Protein in INSANE! Membrane UpperLeaflet>POPC=1.0 LowerLeaflet>POPC=1.0
247937
   14AUC    AUC    1  31.121  20.775   7.501
   15AUC    AUC    2  31.366  20.775   7.349
   16AUC    AUC    3  31.366  20.775   7.652
   17AUC    AUC    4  30.875  20.775   7.349
   18AUC    AUC    5  30.875  20.775   7.652
   19AUC    AUC    6  30.969  21.020   7.501
   20AUC    AUC    7  31.272  21.020   7.501
   21AUC    AUC    8  30.969  20.529   7.501
   22AUC    AUC    9  31.272  20.529   7.501
   23AUC    AUC   10  31.121  20.623   7.746
   24AUC    AUC   11  31.121  20.926   7.746
   25AUC    AUC   12  31.121  20.623   7.255
   26AUC    AUC   13  31.121  20.926   7.255
   27AUC    AUC   14  31.612  20.775   7.197
   28AUC    AUC   15  31.612  20.775   7.501
   29AUC    AUC   16  31.612  20.775   7.804
   30AUC    AUC   17  30.630  20.775   7.197
   31AUC    AUC   18  30.630  20.775   7.501
   32AUC    AUC   19  30.630  20.775   7.804
   33AUC    AUC   20  30.817  21.265   7.501
   34AUC    AUC   21  31.121  21.265   7.501
   35AUC    AUC   22  31.424  21.265   7.501
   36AUC    AUC   23  30.817  20.284   7.501
   37AUC    AUC   24  31.121  20.284   7.501
   38AUC    AUC   25  31.424  20.284   7.501
   39AUC    AUC   26  31.121  20.471   7.991
   40AUC    AUC   27  31.121  20.775   7.991
   41AUC    AUC   28  31.121  21.078   7.991
   42AUC    AUC   29  31.121  20.471   7.010
   43AUC    AUC   30  31.121  20.775   7.010
   44AUC    AUC   31  31.121  21.078   7.010
   45AUC    AUC   32  31.366  20.623   7.898
   46AUC    AUC   33  31.366  20.926   7.898
   47AUC    AUC   34  31.366  20.623   7.103
   48AUC    AUC   35  31.366  20.926   7.103
   49AUC    AUC   36  30.875  20.623   7.898
   50AUC    AUC   37  30.875  20.926   7.898
   51AUC    AUC   38  30.875  20.623   7.103
   52AUC    AUC   39  30.875  20.926   7.103
   53AUC    AUC   40  31.518  21.020   7.349
   54AUC    AUC   41  31.518  21.020   7.652
   55AUC    AUC   42  30.724  21.020   7.349
   56AUC    AUC   43  30.724  21.020   7.652
   57AUC    AUC   44  31.518  20.529   7.349
   58AUC    AUC   45  31.518  20.529   7.652
   59AUC    AUC   46  30.724  20.529   7.349
   60AUC    AUC   47  30.724  20.529   7.652
   61AUC    AUC   48  30.969  21.172   7.746
   62AUC    AUC   49  31.272  21.172   7.746
   63AUC    AUC   50  30.969  20.378   7.746
   64AUC    AUC   51  31.272  20.378   7.746
   65AUC    AUC   52  30.969  21.172   7.255
   66AUC    AUC   53  31.272  21.172   7.255
   67AUC    AUC   54  30.969  20.378   7.255
   68AUC    AUC   55  31.272  20.378   7.255
   69AUSL   AUS   56  31.530  20.775   8.081
   70AUSL   AUS   57  31.386  20.358   8.011
   71AUL    AUL   58  31.612  20.471   8.295
   72THSLK    S   59  31.513  20.170   8.163
   73ETHY    C1   60  31.671  19.849   8.456
   74ETHY    C1   61  31.919  19.536   8.845
   75THSLK    S   62  31.635  20.735   8.333
   76ETHY    C1   63  31.878  20.668   8.720
   77ETHY    C1   64  32.171  20.687   9.194
   78AUSL   AUS   65  31.284  20.623   8.174
   79AUSL   AUS   66  30.957  20.926   8.174
   80AUL    AUL   67  31.121  20.775   8.482
   81THSLK    S   68  31.371  20.577   8.426
   82ETHY    C1   69  31.484  20.436   8.852
   83ETHY    C1   70  31.633  20.365   9.385
   84THSLK    S   71  30.869  20.895   8.439
   85ETHY    C1   72  30.764  20.906   8.889
   86ETHY    C1   73  30.614  21.014   9.415
   87AUSL   AUS   74  31.284  20.926   8.174
   88AUSL   AUS   75  31.631  21.039   7.917
   89AUL    AUL   76  31.612  21.078   8.295
   90THSLK    S   77  31.372  20.972   8.426
   91ETHY    C1   78  31.478  21.112   8.854
   92ETHY    C1   79  31.628  21.184   9.386
   93THSLK    S   80  31.811  21.155   8.082
   94ETHY    C1   81  32.156  21.290   8.358
   95ETHY    C1   82  32.531  21.544   8.683
   96AUSL   AUS   83  31.530  20.775   6.921
   97AUSL   AUS   84  31.386  21.191   6.990
   98AUL    AUL   85  31.612  21.078   6.706
   99THSLK    S   86  31.636  20.735   6.668
  100ETHY    C1   87  31.873  20.668   6.278
  101ETHY    C1   88  32.166  20.687   5.804
  102THSLK    S   89  31.561  21.319   6.816
  103ETHY    C1   90  31.792  21.537   6.480
  104ETHY    C1   91  32.018  21.879   6.102
  105AUSL   AUS   92  31.284  20.623   6.827
  106AUSL   AUS   93  31.631  20.510   7.084
  107AUL    AUL   94  31.612  20.471   6.706
  108THSLK    S   95  31.777  20.323   6.932
  109ETHY    C1   96  32.061  20.069   6.670
  110ETHY    C1   97  32.453  19.849   6.340
  111THSLK    S   98  31.372  20.577   6.575
  112ETHY    C1   99  31.478  20.437   6.147
  113ETHY    C1  100  31.628  20.365   5.615
  114AUSL   AUS  101  31.284  20.926   6.827
  115AUSL   AUS  102  30.957  20.623   6.827
  116AUL    AUL  103  31.121  20.775   6.519
  117THSLK    S  104  30.857  20.577   6.579
  118ETHY    C1  105  30.723  20.439   6.158
  119ETHY    C1  106  30.580  20.367   5.624
  120THSLK    S  107  31.385  20.894   6.566
  121ETHY    C1  108  31.512  20.903   6.121
  122ETHY    C1  109  31.656  21.012   5.594
  123AUSL   AUS  110  30.712  20.775   8.081
  124AUSL   AUS  111  30.856  21.191   8.011
  125AUL    AUL  112  30.630  21.078   8.295
  126THSLK    S  113  30.606  20.735   8.333
  127ETHY    C1  114  30.369  20.668   8.723
  128ETHY    C1  115  30.075  20.687   9.197
  129THSLK    S  116  30.728  21.333   8.202
  130ETHY    C1  117  30.575  21.578   8.563
  131ETHY    C1  118  30.327  21.913   8.933
  132AUSL   AUS  119  30.957  20.623   8.174
  133AUSL   AUS  120  30.611  20.510   7.917
  134AUL    AUL  121  30.630  20.471   8.295
  135THSLK    S  122  30.430  20.342   8.043
  136ETHY    C1  123  30.089  20.116   8.259
  137ETHY    C1  124  29.713  19.888   8.602
  138THSLK    S  125  30.857  20.577   8.422
  139ETHY    C1  126  30.729  20.438   8.844
  140ETHY    C1  127  30.585  20.366   9.378
  141AUSL   AUS  128  30.712  20.775   6.921
  142AUSL   AUS  129  30.856  20.358   6.990
  143AUL    AUL  130  30.630  20.471   6.706
  144THSLK    S  131  30.607  20.735   6.668
  145ETHY    C1  132  30.363  20.668   6.281
  146ETHY    C1  133  30.071  20.687   5.807
  147THSLK    S  134  30.682  20.184   6.855
  148ETHY    C1  135  30.445  19.891   6.587
  149ETHY    C1  136  30.220  19.570   6.190
  150AUSL   AUS  137  30.957  20.926   6.827
  151AUSL   AUS  138  30.611  21.039   7.084
  152AUL    AUL  139  30.630  21.078   6.706
  153THSLK    S  140  30.465  21.174   6.894
  154ETHY    C1  141  30.176  21.338   6.572
  155ETHY    C1  142  29.785  21.583   6.259
  156THSLK    S  143  30.870  20.895   6.562
  157ETHY    C1  144  30.757  20.905   6.114
  158ETHY    C1  145  30.609  21.013   5.587
  159AUSL   AUS  146  31.701  21.184   7.501
  160AUSL   AUS  147  31.631  21.039   7.084
  161AUL    AUL  148  31.915  21.265   7.197
  162THSLK    S  149  31.811  21.156   6.920
  163ETHY    C1  150  32.152  21.289   6.638
  164ETHY    C1  151  32.528  21.543   6.314
  165THSLK    S  152  31.974  21.255   7.501
  166ETHY    C1  153  32.398  21.439   7.497
  167ETHY    C1  154  32.862  21.748   7.498
  168AUSL   AUS  155  31.795  20.938   7.349
  169AUSL   AUS  156  31.795  20.611   7.652
  170AUL    AUL  157  32.102  20.775   7.501
  171THSLK    S  158  32.062  20.993   7.341
  172ETHY    C1  159  32.514  21.049   7.262
  173ETHY    C1  160  33.039  21.214   7.172
  174THSLK    S  161  32.041  20.479   7.659
  175ETHY    C1  162  32.458  20.294   7.728
  176ETHY    C1  163  32.994  20.166   7.820
  177AUSL   AUS  164  31.795  20.938   7.652
  178AUSL   AUS  165  31.537  21.285   7.765
  179AUL    AUL  166  31.915  21.265   7.804
  180THSLK    S  167  31.723  21.420   7.925
  181ETHY    C1  168  32.039  21.688   8.128
  182ETHY    C1  169  32.354  22.085   8.362
  183THSLK    S  170  32.062  20.993   7.661
  184ETHY    C1  171  32.514  21.049   7.733
  185ETHY    C1  172  33.040  21.214   7.824
  186AUSL   AUS  173  30.541  21.184   7.501
  187AUSL   AUS  174  30.611  21.039   7.917
  188AUL    AUL  175  30.327  21.265   7.804
  189THSLK    S  176  30.464  21.174   8.107
  190ETHY    C1  177  30.180  21.343   8.430
  191ETHY    C1  178  29.788  21.588   8.743
  192THSLK    S  179  30.310  21.322   7.501
  193ETHY    C1  180  29.956  21.620   7.497
  194ETHY    C1  181  29.472  21.897   7.498
  195AUSL   AUS  182  30.447  20.938   7.349
  196AUSL   AUS  183  30.704  21.285   7.236
  197AUL    AUL  184  30.327  21.265   7.197
  198THSLK    S  185  30.201  21.048   7.307
  199ETHY    C1  186  29.783  21.193   7.173
  200ETHY    C1  187  29.248  21.333   7.099
  201THSLK    S  188  30.573  21.454   7.056
  202ETHY    C1  189  30.349  21.776   6.812
  203ETHY    C1  190  30.009  22.158   6.589
  204AUSL   AUS  191  30.447  20.938   7.652
  205AUSL   AUS  192  30.447  20.611   7.349
  206AUL    AUL  193  30.139  20.775   7.501
  207THSLK    S  194  30.180  20.533   7.377
  208ETHY    C1  195  29.727  20.444   7.359
  209ETHY    C1  196  29.202  20.289   7.252
  210THSLK    S  197  30.201  21.048   7.694
  211ETHY    C1  198  29.784  21.199   7.825
  212ETHY    C1  199  29.249  21.337   7.900
  213AUSL   AUS  200  31.701  20.366   7.501
  214AUSL   AUS  201  31.631  20.510   7.917
  215AUL    AUL  202  31.915  20.284   7.804
  216THSLK    S  203  31.932  20.227   7.501
  217ETHY    C1  204  32.286  19.929   7.497
  218ETHY    C1  205  32.770  19.652   7.498
  219THSLK    S  206  31.777  20.323   8.070
  220ETHY    C1  207  32.065  20.068   8.326
  221ETHY    C1  208  32.457  19.848   8.657
  222AUSL   AUS  209  31.795  20.611   7.349
  223AUSL   AUS  210  31.537  20.264   7.236
  224AUL    AUL  211  31.915  20.284   7.197
  225THSLK    S  212  32.041  20.479   7.343
  226ETHY    C1  213  32.457  20.294   7.266
  227ETHY    C1  214  32.993  20.166   7.176
  228THSLK    S  215  31.669  20.073   7.092
  229ETHY    C1  216  31.890  19.712   6.907
  230ETHY    C1  217  32.231  19.342   6.667
  231AUSL   AUS  218  30.541  20.366   7.501
  232AUSL   AUS  219  30.611  20.510   7.084
  233AUL    AUL  220  30.327  20.284   7.197
  234THSLK    S  221  30.431  20.342   6.958
  235ETHY    C1  222  30.085  20.122   6.743
  236ETHY    C1  223  29.710  19.892   6.400
  237THSLK    S  224  30.268  20.294   7.501
  238ETHY    C1  225  29.844  20.111   7.497
  239ETHY    C1  226  29.380  19.801   7.498
  240AUSL   AUS  227  30.447  20.611   7.652
  241AUSL   AUS  228  30.704  20.264   7.765
  242AUL    AUL  229  30.327  20.284   7.804
  243THSLK    S  230  30.518  20.107   7.889
  244ETHY    C1  231  30.205  19.801   8.033
  245ETHY    C1  232  29.890  19.414   8.284
  246THSLK    S  233  30.180  20.534   7.625
  247ETHY    C1  234  29.728  20.438   7.639
  248ETHY    C1  235  29.203  20.285   7.746
  249AUSL   AUS  236  31.121  21.355   7.910
  250AUSL   AUS  237  30.704  21.285   7.765
  251AUL    AUL  238  30.817  21.569   7.991
  252THSLK    S  239  30.573  21.453   7.945
  253ETHY    C1  240  30.352  21.781   8.185
  254ETHY    C1  241  30.011  22.161   8.409
  255THSLK    S  242  31.155  21.596   8.033
  256ETHY    C1  243  31.213  21.968   8.301
  257ETHY    C1  244  31.197  22.447   8.586
  258AUSL   AUS  245  30.969  21.448   7.664
  259AUSL   AUS  246  31.272  21.448   7.337
  260AUL    AUL  247  31.121  21.756   7.501
  261THSLK    S  248  31.000  21.708   7.770
  262ETHY    C1  249  30.990  22.149   7.907
  263ETHY    C1  250  30.881  22.678   8.048
  264THSLK    S  251  31.317  21.697   7.235
  265ETHY    C1  252  31.455  22.115   7.097
  266ETHY    C1  253  31.527  22.650   6.955
  267AUSL   AUS  254  31.272  21.448   7.664
  268AUSL   AUS  255  31.386  21.191   8.011
  269AUL    AUL  256  31.424  21.569   7.991
  270THSLK    S  257  31.560  21.319   8.185
  271ETHY    C1  258  31.796  21.538   8.517
  272ETHY    C1  259  32.022  21.880   8.895
  273THSLK    S  260  31.317  21.696   7.767
  274ETHY    C1  261  31.456  22.117   7.898
  275ETHY    C1  262  31.529  22.651   8.041
  276AUSL   AUS  263  31.121  20.195   7.910
  277AUSL   AUS  264  31.537  20.264   7.765
  278AUL    AUL  265  31.424  19.980   7.991
  279THSLK    S  266  31.087  19.931   7.997
  280ETHY    C1  267  31.032  19.522   8.205
  281ETHY    C1  268  31.047  19.054   8.507
  282THSLK    S  269  31.669  20.073   7.910
  283ETHY    C1  270  31.892  19.711   8.089
  284ETHY    C1  271  32.233  19.341   8.330
  285AUSL   AUS  272  30.969  20.101   7.664
  286AUSL   AUS  273  30.856  20.358   8.011
  287AUL    AUL  274  30.817  19.980   7.991
  288THSLK    S  275  30.924  19.848   7.746
  289ETHY    C1  276  30.787  19.417   7.843
  290ETHY    C1  277  30.714  18.885   7.996
  291THSLK    S  278  30.681  20.184   8.146
  292ETHY    C1  279  30.450  19.886   8.413
  293ETHY    C1  280  30.223  19.566   8.810
  294AUSL   AUS  281  31.272  20.101   7.664
  295AUSL   AUS  282  30.969  20.101   7.337
  296AUL    AUL  283  31.121  19.793   7.501
  297THSLK    S  284  30.924  19.848   7.255
  298ETHY    C1  285  30.785  19.419   7.152
  299ETHY    C1  286  30.713  18.887   7.001
  300THSLK    S  287  31.241  19.836   7.750
  301ETHY    C1  288  31.254  19.385   7.852
  302ETHY    C1  289  31.362  18.859   8.003
  303AUSL   AUS  290  31.121  21.355   7.092
  304AUSL   AUS  291  31.537  21.285   7.236
  305AUL    AUL  292  31.424  21.569   7.010
  306THSLK    S  293  31.155  21.596   6.969
  307ETHY    C1  294  31.210  21.965   6.696
  308ETHY    C1  295  31.194  22.444   6.412
  309THSLK    S  296  31.724  21.420   7.077
  310ETHY    C1  297  32.037  21.687   6.868
  311ETHY    C1  298  32.352  22.084   6.634
  312AUSL   AUS  299  30.969  21.448   7.337
  313AUSL   AUS  300  30.856  21.191   6.990
  314AUL    AUL  301  30.817  21.569   7.010
  315THSLK    S  302  31.000  21.709   7.232
  316ETHY    C1  303  30.988  22.147   7.088
  317ETHY    C1  304  30.880  22.676   6.948
  318THSLK    S  305  30.729  21.334   6.799
  319ETHY    C1  306  30.571  21.574   6.437
  320ETHY    C1  307  30.323  21.909   6.067
  321AUSL   AUS  308  31.121  20.195   7.092
  322AUSL   AUS  309  30.704  20.264   7.236
  323AUL    AUL  310  30.817  19.980   7.010
  324THSLK    S  311  30.518  20.107   7.113
  325ETHY    C1  312  30.202  19.805   6.964
  326ETHY    C1  313  29.888  19.418   6.714
  327THSLK    S  314  31.087  19.931   7.004
  328ETHY    C1  315  31.028  19.526   6.791
  329ETHY    C1  316  31.045  19.056   6.490
  330AUSL   AUS  317  31.272  20.101   7.337
  331AUSL   AUS  318  31.386  20.358   6.990
  332AUL    AUL  319  31.424  19.980   7.010
  333THSLK    S  320  31.242  19.835   7.252
  334ETHY    C1  321  31.252  19.387   7.143
  335ETHY    C1  322  31.360  18.860   6.993
  336THSLK    S  323  31.514  20.169   6.839
  337ETHY    C1  324  31.666  19.851   6.541
  338ETHY    C1  325  31.915  19.537   6.152
  339AUC    AUC  326  20.726  18.106   7.501
  340AUC    AUC  327  20.971  18.106   7.349
  341AUC    AUC  328  20.971  18.106   7.652
  342AUC    AUC  329  20.480  18.106   7.349
  343AUC    AUC  330  20.480  18.106   7.652
  344AUC    AUC  331  20.574  18.351   7.501
  345AUC    AUC  332  20.877  18.351   7.501
  346AUC    AUC  333  20.574  17.860   7.501
  347AUC    AUC  334  20.877  17.860   7.501
  348AUC    AUC  335  20.726  17.954   7.746
  349AUC    AUC  336  20.726  18.257   7.746
  350AUC    AUC  337  20.726  17.954   7.255
  351AUC    AUC  338  20.726  18.257   7.255
  352AUC    AUC  339  21.217  18.106   7.197
  353AUC    AUC  340  21.217  18.106   7.501
  354AUC    AUC  341  21.217  18.106   7.804
  355AUC    AUC  342  20.235  18.106   7.197
  356AUC    AUC  343  20.235  18.106   7.501
  357AUC    AUC  344  20.235  18.106   7.804
  358AUC    AUC  345  20.422  18.596   7.501
  359AUC    AUC  346  20.726  18.596   7.501
  360AUC    AUC  347  21.029  18.596   7.501
  361AUC    AUC  348  20.422  17.615   7.501
  362AUC    AUC  349  20.726  17.615   7.501
  363AUC    AUC  350  21.029  17.615   7.501
  364AUC    AUC  351  20.726  17.802   7.991
  365AUC    AUC  352  20.726  18.106   7.991
  366AUC    AUC  353  20.726  18.409   7.991
  367AUC    AUC  354  20.726  17.802   7.010
  368AUC    AUC  355  20.726  18.106   7.010
  369AUC    AUC  356  20.726  18.409   7.010
  370AUC    AUC  357  20.971  17.954   7.898
  371AUC    AUC  358  20.971  18.257   7.898
  372AUC    AUC  359  20.971  17.954   7.103
  373AUC    AUC  360  20.971  18.257   7.103
  374AUC    AUC  361  20.480  17.954   7.898
  375AUC    AUC  362  20.480  18.257   7.898
  376AUC    AUC  363  20.480  17.954   7.103
  377AUC    AUC  364  20.480  18.257   7.103
  378AUC    AUC  365  21.123  18.351   7.349
  379AUC    AUC  366  21.123  18.351   7.652
  380AUC    AUC  367  20.329  18.351   7.349
  381AUC    AUC  368  20.329  18.351   7.652
  382AUC    AUC  369  21.123  17.860   7.349
  383AUC    AUC  370  21.123  17.860   7.652
  384AUC    AUC  371  20.329  17.860   7.349
  385AUC    AUC  372  20.329  17.860   7.652
  386AUC    AUC  373  20.574  18.503   7.746
  387AUC    AUC  374  20.877  18.503   7.746
  388AUC    AUC  375  20.574  17.709   7.746
  389AUC    AUC  376  20.877  17.709   7.746
  390AUC    AUC  377  20.574  18.503   7.255
  391AUC    AUC  378  20.877  18.503   7.255
  392AUC    AUC  379  20.574  17.709   7.255
  393AUC    AUC  380  20.877  17.709   7.255
  394AUSL   AUS  381  21.135  18.106   8.081
  395AUSL   AUS  382  20.991  17.689   8.011
  396AUL    AUL  383  21.217  17.802   8.295
  397THSLK    S  384  21.118  17.501   8.163
  398ETHY    C1  385  21.276  17.180   8.456
  399ETHY    C1  386  21.524  16.867   8.845
  400THSLK    S  387  21.240  18.066   8.333
  401ETHY    C1  388  21.483  17.999   8.720
  402ETHY    C1  389  21.776  18.018   9.194
  403AUSL   AUS  390  20.889  17.954   8.174
  404AUSL   AUS  391  20.562  18.257   8.174
  405AUL    AUL  392  20.726  18.106   8.482
  406THSLK    S  393  20.976  17.908   8.426
  407ETHY    C1  394  21.089  17.767   8.852
  408ETHY    C1  395  21.238  17.696   9.385
  409THSLK    S  396  20.474  18.226   8.439
  410ETHY    C1  397  20.369  18.237   8.889
  411ETHY    C1  398  20.219  18.345   9.415
  412AUSL   AUS  399  20.889  18.257   8.174
  413AUSL   AUS  400  21.236  18.370   7.917
  414AUL    AUL  401  21.217  18.409   8.295
  415THSLK    S  402  20.977  18.303   8.426
  416ETHY    C1  403  21.083  18.443   8.854
  417ETHY    C1  404  21.233  18.515   9.386
  418THSLK    S  405  21.416  18.486   8.082
  419ETHY    C1  406  21.761  18.621   8.358
  420ETHY    C1  407  22.136  18.875   8.683
  421AUSL   AUS  408  21.135  18.106   6.921
  422AUSL   AUS  409  20.991  18.522   6.990
  423AUL    AUL  410  21.217  18.409   6.706
  424THSLK    S  411  21.241  18.066   6.668
  425ETHY    C1  412  21.478  17.999   6.278
  426ETHY    C1  413  21.771  18.018   5.804
  427THSLK    S  414  21.166  18.650   6.816
  428ETHY    C1  415  21.397  18.868   6.480
  429ETHY    C1  416  21.623  19.210   6.102
  430AUSL   AUS  417  20.889  17.954   6.827
  431AUSL   AUS  418  21.236  17.841   7.084
  432AUL    AUL  419  21.217  17.802   6.706
  433THSLK    S  420  21.382  17.654   6.932
  434ETHY    C1  421  21.666  17.400   6.670
  435ETHY    C1  422  22.058  17.180   6.340
  436THSLK    S  423  20.977  17.908   6.575
  437ETHY    C1  424  21.083  17.768   6.147
  438ETHY    C1  425  21.233  17.696   5.615
  439AUSL   AUS  426  20.889  18.257   6.827
  440AUSL   AUS  427  20.562  17.954   6.827
  441AUL    AUL  428  20.726  18.106   6.519
  442THSLK    S  429  20.462  17.908   6.579
  443ETHY    C1  430  20.328  17.770   6.158
  444ETHY    C1  431  20.185  17.698   5.624
  445THSLK    S  432  20.990  18.225   6.566
  446ETHY    C1  433  21.117  18.234   6.121
  447ETHY    C1  434  21.261  18.343   5.594
  448AUSL   AUS  435  20.317  18.106   8.081
  449AUSL   AUS  436  20.461  18.522   8.011
  450AUL    AUL  437  20.235  18.409   8.295
  451THSLK    S  438  20.211  18.066   8.333
  452ETHY    C1  439  19.974  17.999   8.723
  453ETHY    C1  440  19.680  18.018   9.197
  454THSLK    S  441  20.333  18.664   8.202
  455ETHY    C1  442  20.180  18.909   8.563
  456ETHY    C1  443  19.932  19.244   8.933
  457AUSL   AUS  444  20.562  17.954   8.174
  458AUSL   AUS  445  20.216  17.841   7.917
  459AUL    AUL  446  20.235  17.802   8.295
  460THSLK    S  447  20.035  17.673   8.043
  461ETHY    C1  448  19.694  17.447   8.259
  462ETHY    C1  449  19.318  17.219   8.602
  463THSLK    S  450  20.462  17.908   8.422
  464ETHY    C1  451  20.334  17.769   8.844
  465ETHY    C1  452  20.190  17.697   9.378
  466AUSL   AUS  453  20.317  18.106   6.921
  467AUSL   AUS  454  20.461  17.689   6.990
  468AUL    AUL  455  20.235  17.802   6.706
  469THSLK    S  456  20.212  18.066   6.668
  470ETHY    C1  457  19.968  17.999   6.281
  471ETHY    C1  458  19.676  18.018   5.807
  472THSLK    S  459  20.287  17.515   6.855
  473ETHY    C1  460  20.050  17.222   6.587
  474ETHY    C1  461  19.825  16.901   6.190
  475AUSL   AUS  462  20.562  18.257   6.827
  476AUSL   AUS  463  20.216  18.370   7.084
  477AUL    AUL  464  20.235  18.409   6.706
  478THSLK    S  465  20.070  18.505   6.894
  479ETHY    C1  466  19.781  18.669   6.572
  480ETHY    C1  467  19.390  18.914   6.259
  481THSLK    S  468  20.475  18.226   6.562
  482ETHY    C1  469  20.362  18.236   6.114
  483ETHY    C1  470  20.214  18.344   5.587
  484AUSL   AUS  471  21.306  18.515   7.501
  485AUSL   AUS  472  21.236  18.370   7.084
  486AUL    AUL  473  21.520  18.596   7.197
  487THSLK    S  474  21.416  18.487   6.920
  488ETHY    C1  475  21.757  18.620   6.638
  489ETHY    C1  476  22.133  18.874   6.314
  490THSLK    S  477  21.579  18.586   7.501
  491ETHY    C1  478  22.003  18.770   7.497
  492ETHY    C1  479  22.467  19.079   7.498
  493AUSL   AUS  480  21.400  18.269   7.349
  494AUSL   AUS  481  21.400  17.942   7.652
  495AUL    AUL  482  21.707  18.106   7.501
  496THSLK    S  483  21.667  18.324   7.341
  497ETHY    C1  484  22.119  18.380   7.262
  498ETHY    C1  485  22.644  18.545   7.172
  499THSLK    S  486  21.646  17.810   7.659
  500ETHY    C1  487  22.063  17.625   7.728
  501ETHY    C1  488  22.599  17.497   7.820
  502AUSL   AUS  489  21.400  18.269   7.652
  503AUSL   AUS  490  21.142  18.616   7.765
  504AUL    AUL  491  21.520  18.596   7.804
  505THSLK    S  492  21.328  18.751   7.925
  506ETHY    C1  493  21.644  19.019   8.128
  507ETHY    C1  494  21.959  19.416   8.362
  508THSLK    S  495  21.667  18.324   7.661
  509ETHY    C1  496  22.119  18.380   7.733
  510ETHY    C1  497  22.645  18.545   7.824
  511AUSL   AUS  498  20.146  18.515   7.501
  512AUSL   AUS  499  20.216  18.370   7.917
  513AUL    AUL  500  19.932  18.596   7.804
  514THSLK    S  501  20.069  18.505   8.107
  515ETHY    C1  502  19.785  18.674   8.430
  516ETHY    C1  503  19.393  18.919   8.743
  517THSLK    S  504  19.915  18.653   7.501
  518ETHY    C1  505  19.561  18.951   7.497
  519ETHY    C1  506  19.077  19.228   7.498
  520AUSL   AUS  507  20.052  18.269   7.349
  521AUSL   AUS  508  20.309  18.616   7.236
  522AUL    AUL  509  19.932  18.596   7.197
  523THSLK    S  510  19.806  18.379   7.307
  524ETHY    C1  511  19.388  18.524   7.173
  525ETHY    C1  512  18.853  18.664   7.099
  526THSLK    S  513  20.178  18.785   7.056
  527ETHY    C1  514  19.954  19.107   6.812
  528ETHY    C1  515  19.614  19.489   6.589
  529AUSL   AUS  516  20.052  18.269   7.652
  530AUSL   AUS  517  20.052  17.942   7.349
  531AUL    AUL  518  19.744  18.106   7.501
  532THSLK    S  519  19.785  17.864   7.377
  533ETHY    C1  520  19.332  17.775   7.359
  534ETHY    C1  521  18.807  17.620   7.252
  535THSLK    S  522  19.806  18.379   7.694
  536ETHY    C1  523  19.389  18.530   7.825
  537ETHY    C1  524  18.854  18.668   7.900
  538AUSL   AUS  525  21.306  17.697   7.501
  539AUSL   AUS  526  21.236  17.841   7.917
  540AUL    AUL  527  21.520  17.615   7.804
  541THSLK    S  528  21.537  17.558   7.501
  542ETHY    C1  529  21.891  17.260   7.497
  543ETHY    C1  530  22.375  16.983   7.498
  544THSLK    S  531  21.382  17.654   8.070
  545ETHY    C1  532  21.670  17.399   8.326
  546ETHY    C1  533  22.062  17.179   8.657
  547AUSL   AUS  534  21.400  17.942   7.349
  548AUSL   AUS  535  21.142  17.595   7.236
  549AUL    AUL  536  21.520  17.615   7.197
  550THSLK    S  537  21.646  17.810   7.343
  551ETHY    C1  538  22.062  17.625   7.266
  552ETHY    C1  539  22.598  17.497   7.176
  553THSLK    S  540  21.274  17.404   7.092
  554ETHY    C1  541  21.495  17.043   6.907
  555ETHY    C1  542  21.836  16.673   6.667
  556AUSL   AUS  543  20.146  17.697   7.501
  557AUSL   AUS  544  20.216  17.841   7.084
  558AUL    AUL  545  19.932  17.615   7.197
  559THSLK    S  546  20.036  17.673   6.958
  560ETHY    C1  547  19.690  17.453   6.743
  561ETHY    C1  548  19.315  17.223   6.400
  562THSLK    S  549  19.873  17.625   7.501
  563ETHY    C1  550  19.449  17.442   7.497
  564ETHY    C1  551  18.985  17.132   7.498
  565AUSL   AUS  552  20.052  17.942   7.652
  566AUSL   AUS  553  20.309  17.595   7.765
  567AUL    AUL  554  19.932  17.615   7.804
  568THSLK    S  555  20.123  17.438   7.889
  569ETHY    C1  556  19.810  17.132   8.033
  570ETHY    C1  557  19.495  16.745   8.284
  571THSLK    S  558  19.785  17.865   7.625
  572ETHY    C1  559  19.333  17.769   7.639
  573ETHY    C1  560  18.808  17.616   7.746
  574AUSL   AUS  561  20.726  18.686   7.910
  575AUSL   AUS  562  20.309  18.616   7.765
  576AUL    AUL  563  20.422  18.900   7.991
  577THSLK    S  564  20.178  18.784   7.945
  578ETHY    C1  565  19.957  19.112   8.185
  579ETHY    C1  566  19.616  19.492   8.409
  580THSLK    S  567  20.760  18.927   8.033
  581ETHY    C1  568  20.818  19.299   8.301
  582ETHY    C1  569  20.802  19.778   8.586
  583AUSL   AUS  570  20.574  18.779   7.664
  584AUSL   AUS  571  20.877  18.779   7.337
  585AUL    AUL  572  20.726  19.087   7.501
  586THSLK    S  573  20.605  19.039   7.770
  587ETHY    C1  574  20.595  19.480   7.907
  588ETHY    C1  575  20.486  20.009   8.048
  589THSLK    S  576  20.922  19.028   7.235
  590ETHY    C1  577  21.060  19.446   7.097
  591ETHY    C1  578  21.132  19.981   6.955
  592AUSL   AUS  579  20.877  18.779   7.664
  593AUSL   AUS  580  20.991  18.522   8.011
  594AUL    AUL  581  21.029  18.900   7.991
  595THSLK    S  582  21.165  18.650   8.185
  596ETHY    C1  583  21.401  18.869   8.517
  597ETHY    C1  584  21.627  19.211   8.895
  598THSLK    S  585  20.922  19.027   7.767
  599ETHY    C1  586  21.061  19.448   7.898
  600ETHY    C1  587  21.134  19.982   8.041
  601AUSL   AUS  588  20.726  17.526   7.910
  602AUSL   AUS  589  21.142  17.595   7.765
  603AUL    AUL  590  21.029  17.311   7.991
  604THSLK    S  591  20.692  17.262   7.997
  605ETHY    C1  592  20.637  16.853   8.205
  606ETHY    C1  593  20.652  16.385   8.507
  607THSLK    S  594  21.274  17.404   7.910
  608ETHY    C1  595  21.497  17.042   8.089
  609ETHY    C1  596  21.838  16.672   8.330
  610AUSL   AUS  597  20.574  17.432   7.664
  611AUSL   AUS  598  20.461  17.689   8.011
  612AUL    AUL  599  20.422  17.311   7.991
  613THSLK    S  600  20.529  17.179   7.746
  614ETHY    C1  601  20.392  16.748   7.843
  615ETHY    C1  602  20.319  16.216   7.996
  616THSLK    S  603  20.286  17.515   8.146
  617ETHY    C1  604  20.055  17.217   8.413
  618ETHY    C1  605  19.828  16.897   8.810
  619AUSL   AUS  606  20.877  17.432   7.664
  620AUSL   AUS  607  20.574  17.432   7.337
  621AUL    AUL  608  20.726  17.124   7.501
  622THSLK    S  609  20.529  17.179   7.255
  623ETHY    C1  610  20.390  16.750   7.152
  624ETHY    C1  611  20.318  16.218   7.001
  625THSLK    S  612  20.846  17.167   7.750
  626ETHY    C1  613  20.859  16.716   7.852
  627ETHY    C1  614  20.967  16.190   8.003
  628AUSL   AUS  615  20.726  18.686   7.092
  629AUSL   AUS  616  21.142  18.616   7.236
  630AUL    AUL  617  21.029  18.900   7.010
  631THSLK    S  618  20.760  18.927   6.969
  632ETHY    C1  619  20.815  19.296   6.696
  633ETHY    C1  620  20.799  19.775   6.412
  634THSLK    S  621  21.329  18.751   7.077
  635ETHY    C1  622  21.642  19.018   6.868
  636ETHY    C1  623  21.957  19.415   6.634
  637AUSL   AUS  624  20.574  18.779   7.337
  638AUSL   AUS  625  20.461  18.522   6.990
  639AUL    AUL  626  20.422  18.900   7.010
  640THSLK    S  627  20.605  19.040   7.232
  641ETHY    C1  628  20.593  19.478   7.088
  642ETHY    C1  629  20.485  20.007   6.948
  643THSLK    S  630  20.334  18.665   6.799
  644ETHY    C1  631  20.176  18.905   6.437
  645ETHY    C1  632  19.928  19.240   6.067
  646AUSL   AUS  633  20.726  17.526   7.092
  647AUSL   AUS  634  20.309  17.595   7.236
  648AUL    AUL  635  20.422  17.311   7.010
  649THSLK    S  636  20.123  17.438   7.113
  650ETHY    C1  637  19.807  17.136   6.964
  651ETHY    C1  638  19.493  16.749   6.714
  652THSLK    S  639  20.692  17.262   7.004
  653ETHY    C1  640  20.633  16.857   6.791
  654ETHY    C1  641  20.650  16.387   6.490
  655AUSL   AUS  642  20.877  17.432   7.337
  656AUSL   AUS  643  20.991  17.689   6.990
  657AUL    AUL  644  21.029  17.311   7.010
  658THSLK    S  645  20.847  17.166   7.252
  659ETHY    C1  646  20.857  16.718   7.143
  660ETHY    C1  647  20.965  16.191   6.993
  661THSLK    S  648  21.119  17.500   6.839
  662ETHY    C1  649  21.271  17.182   6.541
  663ETHY    C1  650  21.520  16.868   6.152
  664AUC    AUC  651   3.241  37.548   7.501
  665AUC    AUC  652   3.486  37.548   7.349
  666AUC    AUC  653   3.486  37.548   7.652
  667AUC    AUC  654   2.995  37.548   7.349
  668AUC    AUC  655   2.995  37.548   7.652
  669AUC    AUC  656   3.089  37.793   7.501
  670AUC    AUC  657   3.392  37.793   7.501
  671AUC    AUC  658   3.089  37.302   7.501
  672AUC    AUC  659   3.392  37.302   7.501
  673AUC    AUC  660   3.241  37.396   7.746
  674AUC    AUC  661   3.241  37.699   7.746
  675AUC    AUC  662   3.241  37.396   7.255
  676AUC    AUC  663   3.241  37.699   7.255
  677AUC    AUC  664   3.732  37.548   7.197
  678AUC    AUC  665   3.732  37.548   7.501
  679AUC    AUC  666   3.732  37.548   7.804
  680AUC    AUC  667   2.750  37.548   7.197
  681AUC    AUC  668   2.750  37.548   7.501
  682AUC    AUC  669   2.750  37.548   7.804
  683AUC    AUC  670   2.937  38.038   7.501
  684AUC    AUC  671   3.241  38.038   7.501
  685AUC    AUC  672   3.544  38.038   7.501
  686AUC    AUC  673   2.937  37.057   7.501
  687AUC    AUC  674   3.241  37.057   7.501
  688AUC    AUC  675   3.544  37.057   7.501
  689AUC    AUC  676   3.241  37.244   7.991
  690AUC    AUC  677   3.241  37.548   7.991
  691AUC    AUC  678   3.241  37.851   7.991
  692AUC    AUC  679   3.241  37.244   7.010
  693AUC    AUC  680   3.241  37.548   7.010
  694AUC    AUC  681   3.241  37.851   7.010
  695AUC    AUC  682   3.486  37.396   7.898
  696AUC    AUC  683   3.486  37.699   7.898
  697AUC    AUC  684   3.486  37.396   7.103
  698AUC    AUC  685   3.486  37.699   7.103
  699AUC    AUC  686   2.995  37.396   7.898
  700AUC    AUC  687   2.995  37.699   7.898
  701AUC    AUC  688   2.995  37.396   7.103
  702AUC    AUC  689   2.995  37.699   7.103
  703AUC    AUC  690   3.638  37.793   7.349
  704AUC    AUC  691   3.638  37.793   7.652
  705AUC    AUC  692   2.844  37.793   7.349
  706AUC    AUC  693   2.844  37.793   7.652
  707AUC    AUC  694   3.638  37.302   7.349
  708AUC    AUC  695   3.638  37.302   7.652
  709AUC    AUC  696   2.844  37.302   7.349
  710AUC    AUC  697   2.844  37.302   7.652
  711AUC    AUC  698   3.089  37.945   7.746
  712AUC    AUC  699   3.392  37.945   7.746
  713AUC    AUC  700   3.089  37.151   7.746
  714AUC    AUC  701   3.392  37.151   7.746
  715AUC    AUC  702   3.089  37.945   7.255
  716AUC    AUC  703   3.392  37.945   7.255
  717AUC    AUC  704   3.089  37.151   7.255
  718AUC    AUC  705   3.392  37.151   7.255
  719AUSL   AUS  706   3.650  37.548   8.081
  720AUSL   AUS  707   3.506  37.131   8.011
  721AUL    AUL  708   3.732  37.244   8.295
  722THSLK    S  709   3.633  36.943   8.163
  723ETHY    C1  710   3.791  36.622   8.456
  724ETHY    C1  711   4.039  36.309   8.845
  725THSLK    S  712   3.755  37.508   8.333
  726ETHY    C1  713   3.998  37.441   8.720
  727ETHY    C1  714   4.291  37.460   9.194
  728AUSL   AUS  715   3.404  37.396   8.174
  729AUSL   AUS  716   3.077  37.699   8.174
  730AUL    AUL  717   3.241  37.548   8.482
  731THSLK    S  718   3.491  37.350   8.426
  732ETHY    C1  719   3.604  37.209   8.852
  733ETHY    C1  720   3.753  37.138   9.385
  734THSLK    S  721   2.989  37.668   8.439
  735ETHY    C1  722   2.884  37.679   8.889
  736ETHY    C1  723   2.734  37.787   9.415
  737AUSL   AUS  724   3.404  37.699   8.174
  738AUSL   AUS  725   3.751  37.812   7.917
  739AUL    AUL  726   3.732  37.851   8.295
  740THSLK    S  727   3.492  37.745   8.426
  741ETHY    C1  728   3.598  37.885   8.854
  742ETHY    C1  729   3.748  37.957   9.386
  743THSLK    S  730   3.931  37.928   8.082
  744ETHY    C1  731   4.276  38.063   8.358
  745ETHY    C1  732   4.651  38.317   8.683
  746AUSL   AUS  733   3.650  37.548   6.921
  747AUSL   AUS  734   3.506  37.964   6.990
  748AUL    AUL  735   3.732  37.851   6.706
  749THSLK    S  736   3.756  37.508   6.668
  750ETHY    C1  737   3.993  37.441   6.278
  751ETHY    C1  738   4.286  37.460   5.804
  752THSLK    S  739   3.681  38.092   6.816
  753ETHY    C1  740   3.912  38.310   6.480
  754ETHY    C1  741   4.138  38.652   6.102
  755AUSL   AUS  742   3.404  37.396   6.827
  756AUSL   AUS  743   3.751  37.283   7.084
  757AUL    AUL  744   3.732  37.244   6.706
  758THSLK    S  745   3.897  37.096   6.932
  759ETHY    C1  746   4.181  36.842   6.670
  760ETHY    C1  747   4.573  36.622   6.340
  761THSLK    S  748   3.492  37.350   6.575
  762ETHY    C1  749   3.598  37.210   6.147
  763ETHY    C1  750   3.748  37.138   5.615
  764AUSL   AUS  751   3.404  37.699   6.827
  765AUSL   AUS  752   3.077  37.396   6.827
  766AUL    AUL  753   3.241  37.548   6.519
  767THSLK    S  754   2.977  37.350   6.579
  768ETHY    C1  755   2.843  37.212   6.158
  769ETHY    C1  756   2.700  37.140   5.624
  770THSLK    S  757   3.505  37.667   6.566
  771ETHY    C1  758   3.632  37.676   6.121
  772ETHY    C1  759   3.776  37.785   5.594
  773AUSL   AUS  760   2.832  37.548   8.081
  774AUSL   AUS  761   2.976  37.964   8.011
  775AUL    AUL  762   2.750  37.851   8.295
  776THSLK    S  763   2.726  37.508   8.333
  777ETHY    C1  764   2.489  37.441   8.723
  778ETHY    C1  765   2.195  37.460   9.197
  779THSLK    S  766   2.848  38.106   8.202
  780ETHY    C1  767   2.695  38.351   8.563
  781ETHY    C1  768   2.447  38.686   8.933
  782AUSL   AUS  769   3.077  37.396   8.174
  783AUSL   AUS  770   2.731  37.283   7.917
  784AUL    AUL  771   2.750  37.244   8.295
  785THSLK    S  772   2.550  37.115   8.043
  786ETHY    C1  773   2.209  36.889   8.259
  787ETHY    C1  774   1.833  36.661   8.602
  788THSLK    S  775   2.977  37.350   8.422
  789ETHY    C1  776   2.849  37.211   8.844
  790ETHY    C1  777   2.705  37.139   9.378
  791AUSL   AUS  778   2.832  37.548   6.921
  792AUSL   AUS  779   2.976  37.131   6.990
  793AUL    AUL  780   2.750  37.244   6.706
  794THSLK    S  781   2.727  37.508   6.668
  795ETHY    C1  782   2.483  37.441   6.281
  796ETHY    C1  783   2.191  37.460   5.807
  797THSLK    S  784   2.802  36.957   6.855
  798ETHY    C1  785   2.565  36.664   6.587
  799ETHY    C1  786   2.340  36.343   6.190
  800AUSL   AUS  787   3.077  37.699   6.827
  801AUSL   AUS  788   2.731  37.812   7.084
  802AUL    AUL  789   2.750  37.851   6.706
  803THSLK    S  790   2.585  37.947   6.894
  804ETHY    C1  791   2.296  38.111   6.572
  805ETHY    C1  792   1.905  38.356   6.259
  806THSLK    S  793   2.990  37.668   6.562
  807ETHY    C1  794   2.877  37.678   6.114
  808ETHY    C1  795   2.729  37.786   5.587
  809AUSL   AUS  796   3.821  37.957   7.501
  810AUSL   AUS  797   3.751  37.812   7.084
  811AUL    AUL  798   4.035  38.038   7.197
  812THSLK    S  799   3.931  37.929   6.920
  813ETHY    C1  800   4.272  38.062   6.638
  814ETHY    C1  801   4.648  38.316   6.314
  815THSLK    S  802   4.094  38.028   7.501
  816ETHY    C1  803   4.518  38.212   7.497
  817ETHY    C1  804   4.982  38.521   7.498
  818AUSL   AUS  805   3.915  37.711   7.349
  819AUSL   AUS  806   3.915  37.384   7.652
  820AUL    AUL  807   4.222  37.548   7.501
  821THSLK    S  808   4.182  37.766   7.341
  822ETHY    C1  809   4.634  37.822   7.262
  823ETHY    C1  810   5.159  37.987   7.172
  824THSLK    S  811   4.161  37.252   7.659
  825ETHY    C1  812   4.578  37.067   7.728
  826ETHY    C1  813   5.114  36.939   7.820
  827AUSL   AUS  814   3.915  37.711   7.652
  828AUSL   AUS  815   3.657  38.058   7.765
  829AUL    AUL  816   4.035  38.038   7.804
  830THSLK    S  817   3.843  38.193   7.925
  831ETHY    C1  818   4.159  38.461   8.128
  832ETHY    C1  819   4.474  38.858   8.362
  833THSLK    S  820   4.182  37.766   7.661
  834ETHY    C1  821   4.634  37.822   7.733
  835ETHY    C1  822   5.160  37.987   7.824
  836AUSL   AUS  823   2.661  37.957   7.501
  837AUSL   AUS  824   2.731  37.812   7.917
  838AUL    AUL  825   2.447  38.038   7.804
  839THSLK    S  826   2.584  37.947   8.107
  840ETHY    C1  827   2.300  38.116   8.430
  841ETHY    C1  828   1.908  38.361   8.743
  842THSLK    S  829   2.430  38.095   7.501
  843ETHY    C1  830   2.076  38.393   7.497
  844ETHY    C1  831   1.592  38.670   7.498
  845AUSL   AUS  832   2.567  37.711   7.349
  846AUSL   AUS  833   2.824  38.058   7.236
  847AUL    AUL  834   2.447  38.038   7.197
  848THSLK    S  835   2.321  37.821   7.307
  849ETHY    C1  836   1.903  37.966   7.173
  850ETHY    C1  837   1.368  38.106   7.099
  851THSLK    S  838   2.693  38.227   7.056
  852ETHY    C1  839   2.469  38.549   6.812
  853ETHY    C1  840   2.129  38.931   6.589
  854AUSL   AUS  841   2.567  37.711   7.652
  855AUSL   AUS  842   2.567  37.384   7.349
  856AUL    AUL  843   2.259  37.548   7.501
  857THSLK    S  844   2.300  37.306   7.377
  858ETHY    C1  845   1.847  37.217   7.359
  859ETHY    C1  846   1.322  37.062   7.252
  860THSLK    S  847   2.321  37.821   7.694
  861ETHY    C1  848   1.904  37.972   7.825
  862ETHY    C1  849   1.369  38.110   7.900
  863AUSL   AUS  850   3.821  37.139   7.501
  864AUSL   AUS  851   3.751  37.283   7.917
  865AUL    AUL  852   4.035  37.057   7.804
  866THSLK    S  853   4.052  37.000   7.501
  867ETHY    C1  854   4.406  36.702   7.497
  868ETHY    C1  855   4.890  36.425   7.498
  869THSLK    S  856   3.897  37.096   8.070
  870ETHY    C1  857   4.185  36.841   8.326
  871ETHY    C1  858   4.577  36.621   8.657
  872AUSL   AUS  859   3.915  37.384   7.349
  873AUSL   AUS  860   3.657  37.037   7.236
  874AUL    AUL  861   4.035  37.057   7.197
  875THSLK    S  862   4.161  37.252   7.343
  876ETHY    C1  863   4.577  37.067   7.266
  877ETHY    C1  864   5.113  36.939   7.176
  878THSLK    S  865   3.789  36.846   7.092
  879ETHY    C1  866   4.010  36.485   6.907
  880ETHY    C1  867   4.351  36.115   6.667
  881AUSL   AUS  868   2.661  37.139   7.501
  882AUSL   AUS  869   2.731  37.283   7.084
  883AUL    AUL  870   2.447  37.057   7.197
  884THSLK    S  871   2.551  37.115   6.958
  885ETHY    C1  872   2.205  36.895   6.743
  886ETHY    C1  873   1.830  36.665   6.400
  887THSLK    S  874   2.388  37.067   7.501
  888ETHY    C1  875   1.964  36.884   7.497
  889ETHY    C1  876   1.500  36.574   7.498
  890AUSL   AUS  877   2.567  37.384   7.652
  891AUSL   AUS  878   2.824  37.037   7.765
  892AUL    AUL  879   2.447  37.057   7.804
  893THSLK    S  880   2.638  36.880   7.889
  894ETHY    C1  881   2.325  36.574   8.033
  895ETHY    C1  882   2.010  36.187   8.284
  896THSLK    S  883   2.300  37.307   7.625
  897ETHY    C1  884   1.848  37.211   7.639
  898ETHY    C1  885   1.323  37.058   7.746
  899AUSL   AUS  886   3.241  38.128   7.910
  900AUSL   AUS  887   2.824  38.058   7.765
  901AUL    AUL  888   2.937  38.342   7.991
  902THSLK    S  889   2.693  38.226   7.945
  903ETHY    C1  890   2.472  38.554   8.185
  904ETHY    C1  891   2.131  38.934   8.409
  905THSLK    S  892   3.275  38.369   8.033
  906ETHY    C1  893   3.333  38.741   8.301
  907ETHY    C1  894   3.317  39.220   8.586
  908AUSL   AUS  895   3.089  38.221   7.664
  909AUSL   AUS  896   3.392  38.221   7.337
  910AUL    AUL  897   3.241  38.529   7.501
  911THSLK    S  898   3.120  38.481   7.770
  912ETHY    C1  899   3.110  38.922   7.907
  913ETHY    C1  900   3.001  39.451   8.048
  914THSLK    S  901   3.437  38.470   7.235
  915ETHY    C1  902   3.575  38.888   7.097
  916ETHY    C1  903   3.647  39.423   6.955
  917AUSL   AUS  904   3.392  38.221   7.664
  918AUSL   AUS  905   3.506  37.964   8.011
  919AUL    AUL  906   3.544  38.342   7.991
  920THSLK    S  907   3.680  38.092   8.185
  921ETHY    C1  908   3.916  38.311   8.517
  922ETHY    C1  909   4.142  38.653   8.895
  923THSLK    S  910   3.437  38.469   7.767
  924ETHY    C1  911   3.576  38.890   7.898
  925ETHY    C1  912   3.649  39.424   8.041
  926AUSL   AUS  913   3.241  36.968   7.910
  927AUSL   AUS  914   3.657  37.037   7.765
  928AUL    AUL  915   3.544  36.753   7.991
  929THSLK    S  916   3.207  36.704   7.997
  930ETHY    C1  917   3.152  36.295   8.205
  931ETHY    C1  918   3.167  35.827   8.507
  932THSLK    S  919   3.789  36.846   7.910
  933ETHY    C1  920   4.012  36.484   8.089
  934ETHY    C1  921   4.353  36.114   8.330
  935AUSL   AUS  922   3.089  36.874   7.664
  936AUSL   AUS  923   2.976  37.131   8.011
  937AUL    AUL  924   2.937  36.753   7.991
  938THSLK    S  925   3.044  36.621   7.746
  939ETHY    C1  926   2.907  36.190   7.843
  940ETHY    C1  927   2.834  35.658   7.996
  941THSLK    S  928   2.801  36.957   8.146
  942ETHY    C1  929   2.570  36.659   8.413
  943ETHY    C1  930   2.343  36.339   8.810
  944AUSL   AUS  931   3.392  36.874   7.664
  945AUSL   AUS  932   3.089  36.874   7.337
  946AUL    AUL  933   3.241  36.566   7.501
  947THSLK    S  934   3.044  36.621   7.255
  948ETHY    C1  935   2.905  36.192   7.152
  949ETHY    C1  936   2.833  35.660   7.001
  950THSLK    S  937   3.361  36.609   7.750
  951ETHY    C1  938   3.374  36.158   7.852
  952ETHY    C1  939   3.482  35.632   8.003
  953AUSL   AUS  940   3.241  38.128   7.092
  954AUSL   AUS  941   3.657  38.058   7.236
  955AUL    AUL  942   3.544  38.342   7.010
  956THSLK    S  943   3.275  38.369   6.969
  957ETHY    C1  944   3.330  38.738   6.696
  958ETHY    C1  945   3.314  39.217   6.412
  959THSLK    S  946   3.844  38.193   7.077
  960ETHY    C1  947   4.157  38.460   6.868
  961ETHY    C1  948   4.472  38.857   6.634
  962AUSL   AUS  949   3.089  38.221   7.337
  963AUSL   AUS  950   2.976  37.964   6.990
  964AUL    AUL  951   2.937  38.342   7.010
  965THSLK    S  952   3.120  38.482   7.232
  966ETHY    C1  953   3.108  38.920   7.088
  967ETHY    C1  954   3.000  39.449   6.948
  968THSLK    S  955   2.849  38.107   6.799
  969ETHY    C1  956   2.691  38.347   6.437
  970ETHY    C1  957   2.443  38.682   6.067
  971AUSL   AUS  958   3.241  36.968   7.092
  972AUSL   AUS  959   2.824  37.037   7.236
  973AUL    AUL  960   2.937  36.753   7.010
  974THSLK    S  961   2.638  36.880   7.113
  975ETHY    C1  962   2.322  36.578   6.964
  976ETHY    C1  963   2.008  36.191   6.714
  977THSLK    S  964   3.207  36.704   7.004
  978ETHY    C1  965   3.148  36.299   6.791
  979ETHY    C1  966   3.165  35.829   6.490
  980AUSL   AUS  967   3.392  36.874   7.337
  981AUSL   AUS  968   3.506  37.131   6.990
  982AUL    AUL  969   3.544  36.753   7.010
  983THSLK    S  970   3.362  36.608   7.252
  984ETHY    C1  971   3.372  36.160   7.143
  985ETHY    C1  972   3.480  35.633   6.993
  986THSLK    S  973   3.634  36.942   6.839
  987ETHY    C1  974   3.786  36.624   6.541
  988ETHY    C1  975   4.035  36.310   6.152
  989AUC    AUC  976  28.338  32.617   7.501
  990AUC    AUC  977  28.583  32.617   7.349
  991AUC    AUC  978  28.583  32.617   7.652
  992AUC    AUC  979  28.092  32.617   7.349
  993AUC    AUC  980  28.092  32.617   7.652
  994AUC    AUC  981  28.186  32.862   7.501
  995AUC    AUC  982  28.489  32.862   7.501
  996AUC    AUC  983  28.186  32.371   7.501
  997AUC    AUC  984  28.489  32.371   7.501
  998AUC    AUC  985  28.338  32.465   7.746
  999AUC    AUC  986  28.338  32.768   7.746
 1000AUC    AUC  987  28.338  32.465   7.255
 1001AUC    AUC  988  28.338  32.768   7.255
 1002AUC    AUC  989  28.829  32.617   7.197
 1003AUC    AUC  990  28.829  32.617   7.501
 1004AUC    AUC  991  28.829  32.617   7.804
 1005AUC    AUC  992  27.847  32.617   7.197
 1006AUC    AUC  993  27.847  32.617   7.501
 1007AUC    AUC  994  27.847  32.617   7.804
 1008AUC    AUC  995  28.034  33.107   7.501
 1009AUC    AUC  996  28.338  33.107   7.501
 1010AUC    AUC  997  28.641  33.107   7.501
 1011AUC    AUC  998  28.034  32.126   7.501
 1012AUC    AUC  999  28.338  32.126   7.501
 1013AUC    AUC 1000  28.641  32.126   7.501
 1014AUC    AUC 1001  28.338  32.313   7.991
 1015AUC    AUC 1002  28.338  32.617   7.991
 1016AUC    AUC 1003  28.338  32.920   7.991
 1017AUC    AUC 1004  28.338  32.313   7.010
 1018AUC    AUC 1005  28.338  32.617   7.010
 1019AUC    AUC 1006  28.338  32.920   7.010
 1020AUC    AUC 1007  28.583  32.465   7.898
 1021AUC    AUC 1008  28.583  32.768   7.898
 1022AUC    AUC 1009  28.583  32.465   7.103
 1023AUC    AUC 1010  28.583  32.768   7.103
 1024AUC    AUC 1011  28.092  32.465   7.898
 1025AUC    AUC 1012  28.092  32.768   7.898
 1026AUC    AUC 1013  28.092  32.465   7.103
 1027AUC    AUC 1014  28.092  32.768   7.103
 1028AUC    AUC 1015  28.735  32.862   7.349
 1029AUC    AUC 1016  28.735  32.862   7.652
 1030AUC    AUC 1017  27.941  32.862   7.349
 1031AUC    AUC 1018  27.941  32.862   7.652
 1032AUC    AUC 1019  28.735  32.371   7.349
 1033AUC    AUC 1020  28.735  32.371   7.652
 1034AUC    AUC 1021  27.941  32.371   7.349
 1035AUC    AUC 1022  27.941  32.371   7.652
 1036AUC    AUC 1023  28.186  33.014   7.746
 1037AUC    AUC 1024  28.489  33.014   7.746
 1038AUC    AUC 1025  28.186  32.220   7.746
 1039AUC    AUC 1026  28.489  32.220   7.746
 1040AUC    AUC 1027  28.186  33.014   7.255
 1041AUC    AUC 1028  28.489  33.014   7.255
 1042AUC    AUC 1029  28.186  32.220   7.255
 1043AUC    AUC 1030  28.489  32.220   7.255
 1044AUSL   AUS 1031  28.747  32.617   8.081
 1045AUSL   AUS 1032  28.603  32.200   8.011
 1046AUL    AUL 1033  28.829  32.313   8.295
 1047THSLK    S 1034  28.730  32.012   8.163
 1048ETHY    C1 1035  28.888  31.691   8.456
 1049ETHY    C1 1036  29.136  31.378   8.845
 1050THSLK    S 1037  28.852  32.577   8.333
 1051ETHY    C1 1038  29.095  32.510   8.720
 1052ETHY    C1 1039  29.388  32.529   9.194
 1053AUSL   AUS 1040  28.501  32.465   8.174
 1054AUSL   AUS 1041  28.174  32.768   8.174
 1055AUL    AUL 1042  28.338  32.617   8.482
 1056THSLK    S 1043  28.588  32.419   8.426
 1057ETHY    C1 1044  28.701  32.278   8.852
 1058ETHY    C1 1045  28.850  32.207   9.385
 1059THSLK    S 1046  28.086  32.737   8.439
 1060ETHY    C1 1047  27.981  32.748   8.889
 1061ETHY    C1 1048  27.831  32.856   9.415
 1062AUSL   AUS 1049  28.501  32.768   8.174
 1063AUSL   AUS 1050  28.848  32.881   7.917
 1064AUL    AUL 1051  28.829  32.920   8.295
 1065THSLK    S 1052  28.589  32.814   8.426
 1066ETHY    C1 1053  28.695  32.954   8.854
 1067ETHY    C1 1054  28.845  33.026   9.386
 1068THSLK    S 1055  29.028  32.997   8.082
 1069ETHY    C1 1056  29.373  33.132   8.358
 1070ETHY    C1 1057  29.748  33.386   8.683
 1071AUSL   AUS 1058  28.747  32.617   6.921
 1072AUSL   AUS 1059  28.603  33.033   6.990
 1073AUL    AUL 1060  28.829  32.920   6.706
 1074THSLK    S 1061  28.853  32.577   6.668
 1075ETHY    C1 1062  29.090  32.510   6.278
 1076ETHY    C1 1063  29.383  32.529   5.804
 1077THSLK    S 1064  28.778  33.161   6.816
 1078ETHY    C1 1065  29.009  33.379   6.480
 1079ETHY    C1 1066  29.235  33.721   6.102
 1080AUSL   AUS 1067  28.501  32.465   6.827
 1081AUSL   AUS 1068  28.848  32.352   7.084
 1082AUL    AUL 1069  28.829  32.313   6.706
 1083THSLK    S 1070  28.994  32.165   6.932
 1084ETHY    C1 1071  29.278  31.911   6.670
 1085ETHY    C1 1072  29.670  31.691   6.340
 1086THSLK    S 1073  28.589  32.419   6.575
 1087ETHY    C1 1074  28.695  32.279   6.147
 1088ETHY    C1 1075  28.845  32.207   5.615
 1089AUSL   AUS 1076  28.501  32.768   6.827
 1090AUSL   AUS 1077  28.174  32.465   6.827
 1091AUL    AUL 1078  28.338  32.617   6.519
 1092THSLK    S 1079  28.074  32.419   6.579
 1093ETHY    C1 1080  27.940  32.281   6.158
 1094ETHY    C1 1081  27.797  32.209   5.624
 1095THSLK    S 1082  28.602  32.736   6.566
 1096ETHY    C1 1083  28.729  32.745   6.121
 1097ETHY    C1 1084  28.873  32.854   5.594
 1098AUSL   AUS 1085  27.929  32.617   8.081
 1099AUSL   AUS 1086  28.073  33.033   8.011
 1100AUL    AUL 1087  27.847  32.920   8.295
 1101THSLK    S 1088  27.823  32.577   8.333
 1102ETHY    C1 1089  27.586  32.510   8.723
 1103ETHY    C1 1090  27.292  32.529   9.197
 1104THSLK    S 1091  27.945  33.175   8.202
 1105ETHY    C1 1092  27.792  33.420   8.563
 1106ETHY    C1 1093  27.544  33.755   8.933
 1107AUSL   AUS 1094  28.174  32.465   8.174
 1108AUSL   AUS 1095  27.828  32.352   7.917
 1109AUL    AUL 1096  27.847  32.313   8.295
 1110THSLK    S 1097  27.647  32.184   8.043
 1111ETHY    C1 1098  27.306  31.958   8.259
 1112ETHY    C1 1099  26.930  31.730   8.602
 1113THSLK    S 1100  28.074  32.419   8.422
 1114ETHY    C1 1101  27.946  32.280   8.844
 1115ETHY    C1 1102  27.802  32.208   9.378
 1116AUSL   AUS 1103  27.929  32.617   6.921
 1117AUSL   AUS 1104  28.073  32.200   6.990
 1118AUL    AUL 1105  27.847  32.313   6.706
 1119THSLK    S 1106  27.824  32.577   6.668
 1120ETHY    C1 1107  27.580  32.510   6.281
 1121ETHY    C1 1108  27.288  32.529   5.807
 1122THSLK    S 1109  27.899  32.026   6.855
 1123ETHY    C1 1110  27.662  31.733   6.587
 1124ETHY    C1 1111  27.437  31.412   6.190
 1125AUSL   AUS 1112  28.174  32.768   6.827
 1126AUSL   AUS 1113  27.828  32.881   7.084
 1127AUL    AUL 1114  27.847  32.920   6.706
 1128THSLK    S 1115  27.682  33.016   6.894
 1129ETHY    C1 1116  27.393  33.180   6.572
 1130ETHY    C1 1117  27.002  33.425   6.259
 1131THSLK    S 1118  28.087  32.737   6.562
 1132ETHY    C1 1119  27.974  32.747   6.114
 1133ETHY    C1 1120  27.826  32.855   5.587
 1134AUSL   AUS 1121  28.918  33.026   7.501
 1135AUSL   AUS 1122  28.848  32.881   7.084
 1136AUL    AUL 1123  29.132  33.107   7.197
 1137THSLK    S 1124  29.028  32.998   6.920
 1138ETHY    C1 1125  29.369  33.131   6.638
 1139ETHY    C1 1126  29.745  33.385   6.314
 1140THSLK    S 1127  29.191  33.097   7.501
 1141ETHY    C1 1128  29.615  33.281   7.497
 1142ETHY    C1 1129  30.079  33.590   7.498
 1143AUSL   AUS 1130  29.012  32.780   7.349
 1144AUSL   AUS 1131  29.012  32.453   7.652
 1145AUL    AUL 1132  29.319  32.617   7.501
 1146THSLK    S 1133  29.279  32.835   7.341
 1147ETHY    C1 1134  29.731  32.891   7.262
 1148ETHY    C1 1135  30.256  33.056   7.172
 1149THSLK    S 1136  29.258  32.321   7.659
 1150ETHY    C1 1137  29.675  32.136   7.728
 1151ETHY    C1 1138  30.211  32.008   7.820
 1152AUSL   AUS 1139  29.012  32.780   7.652
 1153AUSL   AUS 1140  28.754  33.127   7.765
 1154AUL    AUL 1141  29.132  33.107   7.804
 1155THSLK    S 1142  28.940  33.262   7.925
 1156ETHY    C1 1143  29.256  33.530   8.128
 1157ETHY    C1 1144  29.571  33.927   8.362
 1158THSLK    S 1145  29.279  32.835   7.661
 1159ETHY    C1 1146  29.731  32.891   7.733
 1160ETHY    C1 1147  30.257  33.056   7.824
 1161AUSL   AUS 1148  27.758  33.026   7.501
 1162AUSL   AUS 1149  27.828  32.881   7.917
 1163AUL    AUL 1150  27.544  33.107   7.804
 1164THSLK    S 1151  27.681  33.016   8.107
 1165ETHY    C1 1152  27.397  33.185   8.430
 1166ETHY    C1 1153  27.005  33.430   8.743
 1167THSLK    S 1154  27.527  33.164   7.501
 1168ETHY    C1 1155  27.173  33.462   7.497
 1169ETHY    C1 1156  26.689  33.739   7.498
 1170AUSL   AUS 1157  27.664  32.780   7.349
 1171AUSL   AUS 1158  27.921  33.127   7.236
 1172AUL    AUL 1159  27.544  33.107   7.197
 1173THSLK    S 1160  27.418  32.890   7.307
 1174ETHY    C1 1161  27.000  33.035   7.173
 1175ETHY    C1 1162  26.465  33.175   7.099
 1176THSLK    S 1163  27.790  33.296   7.056
 1177ETHY    C1 1164  27.566  33.618   6.812
 1178ETHY    C1 1165  27.226  34.000   6.589
 1179AUSL   AUS 1166  27.664  32.780   7.652
 1180AUSL   AUS 1167  27.664  32.453   7.349
 1181AUL    AUL 1168  27.356  32.617   7.501
 1182THSLK    S 1169  27.397  32.375   7.377
 1183ETHY    C1 1170  26.944  32.286   7.359
 1184ETHY    C1 1171  26.419  32.131   7.252
 1185THSLK    S 1172  27.418  32.890   7.694
 1186ETHY    C1 1173  27.001  33.041   7.825
 1187ETHY    C1 1174  26.466  33.179   7.900
 1188AUSL   AUS 1175  28.918  32.208   7.501
 1189AUSL   AUS 1176  28.848  32.352   7.917
 1190AUL    AUL 1177  29.132  32.126   7.804
 1191THSLK    S 1178  29.149  32.069   7.501
 1192ETHY    C1 1179  29.503  31.771   7.497
 1193ETHY    C1 1180  29.987  31.494   7.498
 1194THSLK    S 1181  28.994  32.165   8.070
 1195ETHY    C1 1182  29.282  31.910   8.326
 1196ETHY    C1 1183  29.674  31.690   8.657
 1197AUSL   AUS 1184  29.012  32.453   7.349
 1198AUSL   AUS 1185  28.754  32.106   7.236
 1199AUL    AUL 1186  29.132  32.126   7.197
 1200THSLK    S 1187  29.258  32.321   7.343
 1201ETHY    C1 1188  29.674  32.136   7.266
 1202ETHY    C1 1189  30.210  32.008   7.176
 1203THSLK    S 1190  28.886  31.915   7.092
 1204ETHY    C1 1191  29.107  31.554   6.907
 1205ETHY    C1 1192  29.448  31.184   6.667
 1206AUSL   AUS 1193  27.758  32.208   7.501
 1207AUSL   AUS 1194  27.828  32.352   7.084
 1208AUL    AUL 1195  27.544  32.126   7.197
 1209THSLK    S 1196  27.648  32.184   6.958
 1210ETHY    C1 1197  27.302  31.964   6.743
 1211ETHY    C1 1198  26.927  31.734   6.400
 1212THSLK    S 1199  27.485  32.136   7.501
 1213ETHY    C1 1200  27.061  31.953   7.497
 1214ETHY    C1 1201  26.597  31.643   7.498
 1215AUSL   AUS 1202  27.664  32.453   7.652
 1216AUSL   AUS 1203  27.921  32.106   7.765
 1217AUL    AUL 1204  27.544  32.126   7.804
 1218THSLK    S 1205  27.735  31.949   7.889
 1219ETHY    C1 1206  27.422  31.643   8.033
 1220ETHY    C1 1207  27.107  31.256   8.284
 1221THSLK    S 1208  27.397  32.376   7.625
 1222ETHY    C1 1209  26.945  32.280   7.639
 1223ETHY    C1 1210  26.420  32.127   7.746
 1224AUSL   AUS 1211  28.338  33.197   7.910
 1225AUSL   AUS 1212  27.921  33.127   7.765
 1226AUL    AUL 1213  28.034  33.411   7.991
 1227THSLK    S 1214  27.790  33.295   7.945
 1228ETHY    C1 1215  27.569  33.623   8.185
 1229ETHY    C1 1216  27.228  34.003   8.409
 1230THSLK    S 1217  28.372  33.438   8.033
 1231ETHY    C1 1218  28.430  33.810   8.301
 1232ETHY    C1 1219  28.414  34.289   8.586
 1233AUSL   AUS 1220  28.186  33.290   7.664
 1234AUSL   AUS 1221  28.489  33.290   7.337
 1235AUL    AUL 1222  28.338  33.598   7.501
 1236THSLK    S 1223  28.217  33.550   7.770
 1237ETHY    C1 1224  28.207  33.991   7.907
 1238ETHY    C1 1225  28.098  34.520   8.048
 1239THSLK    S 1226  28.534  33.539   7.235
 1240ETHY    C1 1227  28.672  33.957   7.097
 1241ETHY    C1 1228  28.744  34.492   6.955
 1242AUSL   AUS 1229  28.489  33.290   7.664
 1243AUSL   AUS 1230  28.603  33.033   8.011
 1244AUL    AUL 1231  28.641  33.411   7.991
 1245THSLK    S 1232  28.777  33.161   8.185
 1246ETHY    C1 1233  29.013  33.380   8.517
 1247ETHY    C1 1234  29.239  33.722   8.895
 1248THSLK    S 1235  28.534  33.538   7.767
 1249ETHY    C1 1236  28.673  33.959   7.898
 1250ETHY    C1 1237  28.746  34.493   8.041
 1251AUSL   AUS 1238  28.338  32.037   7.910
 1252AUSL   AUS 1239  28.754  32.106   7.765
 1253AUL    AUL 1240  28.641  31.822   7.991
 1254THSLK    S 1241  28.304  31.773   7.997
 1255ETHY    C1 1242  28.249  31.364   8.205
 1256ETHY    C1 1243  28.264  30.896   8.507
 1257THSLK    S 1244  28.886  31.915   7.910
 1258ETHY    C1 1245  29.109  31.553   8.089
 1259ETHY    C1 1246  29.450  31.183   8.330
 1260AUSL   AUS 1247  28.186  31.943   7.664
 1261AUSL   AUS 1248  28.073  32.200   8.011
 1262AUL    AUL 1249  28.034  31.822   7.991
 1263THSLK    S 1250  28.141  31.690   7.746
 1264ETHY    C1 1251  28.004  31.259   7.843
 1265ETHY    C1 1252  27.931  30.727   7.996
 1266THSLK    S 1253  27.898  32.026   8.146
 1267ETHY    C1 1254  27.667  31.728   8.413
 1268ETHY    C1 1255  27.440  31.408   8.810
 1269AUSL   AUS 1256  28.489  31.943   7.664
 1270AUSL   AUS 1257  28.186  31.943   7.337
 1271AUL    AUL 1258  28.338  31.635   7.501
 1272THSLK    S 1259  28.141  31.690   7.255
 1273ETHY    C1 1260  28.002  31.261   7.152
 1274ETHY    C1 1261  27.930  30.729   7.001
 1275THSLK    S 1262  28.458  31.678   7.750
 1276ETHY    C1 1263  28.471  31.227   7.852
 1277ETHY    C1 1264  28.579  30.701   8.003
 1278AUSL   AUS 1265  28.338  33.197   7.092
 1279AUSL   AUS 1266  28.754  33.127   7.236
 1280AUL    AUL 1267  28.641  33.411   7.010
 1281THSLK    S 1268  28.372  33.438   6.969
 1282ETHY    C1 1269  28.427  33.807   6.696
 1283ETHY    C1 1270  28.411  34.286   6.412
 1284THSLK    S 1271  28.941  33.262   7.077
 1285ETHY    C1 1272  29.254  33.529   6.868
 1286ETHY    C1 1273  29.569  33.926   6.634
 1287AUSL   AUS 1274  28.186  33.290   7.337
 1288AUSL   AUS 1275  28.073  33.033   6.990
 1289AUL    AUL 1276  28.034  33.411   7.010
 1290THSLK    S 1277  28.217  33.551   7.232
 1291ETHY    C1 1278  28.205  33.989   7.088
 1292ETHY    C1 1279  28.097  34.518   6.948
 1293THSLK    S 1280  27.946  33.176   6.799
 1294ETHY    C1 1281  27.788  33.416   6.437
 1295ETHY    C1 1282  27.540  33.751   6.067
 1296AUSL   AUS 1283  28.338  32.037   7.092
 1297AUSL   AUS 1284  27.921  32.106   7.236
 1298AUL    AUL 1285  28.034  31.822   7.010
 1299THSLK    S 1286  27.735  31.949   7.113
 1300ETHY    C1 1287  27.419  31.647   6.964
 1301ETHY    C1 1288  27.105  31.260   6.714
 1302THSLK    S 1289  28.304  31.773   7.004
 1303ETHY    C1 1290  28.245  31.368   6.791
 1304ETHY    C1 1291  28.262  30.898   6.490
 1305AUSL   AUS 1292  28.489  31.943   7.337
 1306AUSL   AUS 1293  28.603  32.200   6.990
 1307AUL    AUL 1294  28.641  31.822   7.010
 1308THSLK    S 1295  28.459  31.677   7.252
 1309ETHY    C1 1296  28.469  31.229   7.143
 1310ETHY    C1 1297  28.577  30.702   6.993
 1311THSLK    S 1298  28.731  32.011   6.839
 1312ETHY    C1 1299  28.883  31.693   6.541
 1313ETHY    C1 1300  29.132  31.379   6.152
 1314AUC    AUC 1301  26.713  11.167   7.501
 1315AUC    AUC 1302  26.958  11.167   7.349
 1316AUC    AUC 1303  26.958  11.167   7.652
 1317AUC    AUC 1304  26.467  11.167   7.349
 1318AUC    AUC 1305  26.467  11.167   7.652
 1319AUC    AUC 1306  26.561  11.412   7.501
 1320AUC    AUC 1307  26.864  11.412   7.501
 1321AUC    AUC 1308  26.561  10.921   7.501
 1322AUC    AUC 1309  26.864  10.921   7.501
 1323AUC    AUC 1310  26.713  11.015   7.746
 1324AUC    AUC 1311  26.713  11.318   7.746
 1325AUC    AUC 1312  26.713  11.015   7.255
 1326AUC    AUC 1313  26.713  11.318   7.255
 1327AUC    AUC 1314  27.204  11.167   7.197
 1328AUC    AUC 1315  27.204  11.167   7.501
 1329AUC    AUC 1316  27.204  11.167   7.804
 1330AUC    AUC 1317  26.222  11.167   7.197
 1331AUC    AUC 1318  26.222  11.167   7.501
 1332AUC    AUC 1319  26.222  11.167   7.804
 1333AUC    AUC 1320  26.409  11.657   7.501
 1334AUC    AUC 1321  26.713  11.657   7.501
 1335AUC    AUC 1322  27.016  11.657   7.501
 1336AUC    AUC 1323  26.409  10.676   7.501
 1337AUC    AUC 1324  26.713  10.676   7.501
 1338AUC    AUC 1325  27.016  10.676   7.501
 1339AUC    AUC 1326  26.713  10.863   7.991
 1340AUC    AUC 1327  26.713  11.167   7.991
 1341AUC    AUC 1328  26.713  11.470   7.991
 1342AUC    AUC 1329  26.713  10.863   7.010
 1343AUC    AUC 1330  26.713  11.167   7.010
 1344AUC    AUC 1331  26.713  11.470   7.010
 1345AUC    AUC 1332  26.958  11.015   7.898
 1346AUC    AUC 1333  26.958  11.318   7.898
 1347AUC    AUC 1334  26.958  11.015   7.103
 1348AUC    AUC 1335  26.958  11.318   7.103
 1349AUC    AUC 1336  26.467  11.015   7.898
 1350AUC    AUC 1337  26.467  11.318   7.898
 1351AUC    AUC 1338  26.467  11.015   7.103
 1352AUC    AUC 1339  26.467  11.318   7.103
 1353AUC    AUC 1340  27.110  11.412   7.349
 1354AUC    AUC 1341  27.110  11.412   7.652
 1355AUC    AUC 1342  26.316  11.412   7.349
 1356AUC    AUC 1343  26.316  11.412   7.652
 1357AUC    AUC 1344  27.110  10.921   7.349
 1358AUC    AUC 1345  27.110  10.921   7.652
 1359AUC    AUC 1346  26.316  10.921   7.349
 1360AUC    AUC 1347  26.316  10.921   7.652
 1361AUC    AUC 1348  26.561  11.564   7.746
 1362AUC    AUC 1349  26.864  11.564   7.746
 1363AUC    AUC 1350  26.561  10.770   7.746
 1364AUC    AUC 1351  26.864  10.770   7.746
 1365AUC    AUC 1352  26.561  11.564   7.255
 1366AUC    AUC 1353  26.864  11.564   7.255
 1367AUC    AUC 1354  26.561  10.770   7.255
 1368AUC    AUC 1355  26.864  10.770   7.255
 1369AUSL   AUS 1356  27.122  11.167   8.081
 1370AUSL   AUS 1357  26.978  10.750   8.011
 1371AUL    AUL 1358  27.204  10.863   8.295
 1372THSLK    S 1359  27.105  10.562   8.163
 1373ETHY    C1 1360  27.263  10.241   8.456
 1374ETHY    C1 1361  27.511   9.928   8.845
 1375THSLK    S 1362  27.227  11.127   8.333
 1376ETHY    C1 1363  27.470  11.060   8.720
 1377ETHY    C1 1364  27.763  11.079   9.194
 1378AUSL   AUS 1365  26.876  11.015   8.174
 1379AUSL   AUS 1366  26.549  11.318   8.174
 1380AUL    AUL 1367  26.713  11.167   8.482
 1381THSLK    S 1368  26.963  10.969   8.426
 1382ETHY    C1 1369  27.076  10.828   8.852
 1383ETHY    C1 1370  27.225  10.757   9.385
 1384THSLK    S 1371  26.461  11.287   8.439
 1385ETHY    C1 1372  26.356  11.298   8.889
 1386ETHY    C1 1373  26.206  11.406   9.415
 1387AUSL   AUS 1374  26.876  11.318   8.174
 1388AUSL   AUS 1375  27.223  11.431   7.917
 1389AUL    AUL 1376  27.204  11.470   8.295
 1390THSLK    S 1377  26.964  11.364   8.426
 1391ETHY    C1 1378  27.070  11.504   8.854
 1392ETHY    C1 1379  27.220  11.576   9.386
 1393THSLK    S 1380  27.403  11.547   8.082
 1394ETHY    C1 1381  27.748  11.682   8.358
 1395ETHY    C1 1382  28.123  11.936   8.683
 1396AUSL   AUS 1383  27.122  11.167   6.921
 1397AUSL   AUS 1384  26.978  11.583   6.990
 1398AUL    AUL 1385  27.204  11.470   6.706
 1399THSLK    S 1386  27.228  11.127   6.668
 1400ETHY    C1 1387  27.465  11.060   6.278
 1401ETHY    C1 1388  27.758  11.079   5.804
 1402THSLK    S 1389  27.153  11.711   6.816
 1403ETHY    C1 1390  27.384  11.929   6.480
 1404ETHY    C1 1391  27.610  12.271   6.102
 1405AUSL   AUS 1392  26.876  11.015   6.827
 1406AUSL   AUS 1393  27.223  10.902   7.084
 1407AUL    AUL 1394  27.204  10.863   6.706
 1408THSLK    S 1395  27.369  10.715   6.932
 1409ETHY    C1 1396  27.653  10.461   6.670
 1410ETHY    C1 1397  28.045  10.241   6.340
 1411THSLK    S 1398  26.964  10.969   6.575
 1412ETHY    C1 1399  27.070  10.829   6.147
 1413ETHY    C1 1400  27.220  10.757   5.615
 1414AUSL   AUS 1401  26.876  11.318   6.827
 1415AUSL   AUS 1402  26.549  11.015   6.827
 1416AUL    AUL 1403  26.713  11.167   6.519
 1417THSLK    S 1404  26.449  10.969   6.579
 1418ETHY    C1 1405  26.315  10.831   6.158
 1419ETHY    C1 1406  26.172  10.759   5.624
 1420THSLK    S 1407  26.977  11.286   6.566
 1421ETHY    C1 1408  27.104  11.295   6.121
 1422ETHY    C1 1409  27.248  11.404   5.594
 1423AUSL   AUS 1410  26.304  11.167   8.081
 1424AUSL   AUS 1411  26.448  11.583   8.011
 1425AUL    AUL 1412  26.222  11.470   8.295
 1426THSLK    S 1413  26.198  11.127   8.333
 1427ETHY    C1 1414  25.961  11.060   8.723
 1428ETHY    C1 1415  25.667  11.079   9.197
 1429THSLK    S 1416  26.320  11.725   8.202
 1430ETHY    C1 1417  26.167  11.970   8.563
 1431ETHY    C1 1418  25.919  12.305   8.933
 1432AUSL   AUS 1419  26.549  11.015   8.174
 1433AUSL   AUS 1420  26.203  10.902   7.917
 1434AUL    AUL 1421  26.222  10.863   8.295
 1435THSLK    S 1422  26.022  10.734   8.043
 1436ETHY    C1 1423  25.681  10.508   8.259
 1437ETHY    C1 1424  25.305  10.280   8.602
 1438THSLK    S 1425  26.449  10.969   8.422
 1439ETHY    C1 1426  26.321  10.830   8.844
 1440ETHY    C1 1427  26.177  10.758   9.378
 1441AUSL   AUS 1428  26.304  11.167   6.921
 1442AUSL   AUS 1429  26.448  10.750   6.990
 1443AUL    AUL 1430  26.222  10.863   6.706
 1444THSLK    S 1431  26.199  11.127   6.668
 1445ETHY    C1 1432  25.955  11.060   6.281
 1446ETHY    C1 1433  25.663  11.079   5.807
 1447THSLK    S 1434  26.274  10.576   6.855
 1448ETHY    C1 1435  26.037  10.283   6.587
 1449ETHY    C1 1436  25.812   9.962   6.190
 1450AUSL   AUS 1437  26.549  11.318   6.827
 1451AUSL   AUS 1438  26.203  11.431   7.084
 1452AUL    AUL 1439  26.222  11.470   6.706
 1453THSLK    S 1440  26.057  11.566   6.894
 1454ETHY    C1 1441  25.768  11.730   6.572
 1455ETHY    C1 1442  25.377  11.975   6.259
 1456THSLK    S 1443  26.462  11.287   6.562
 1457ETHY    C1 1444  26.349  11.297   6.114
 1458ETHY    C1 1445  26.201  11.405   5.587
 1459AUSL   AUS 1446  27.293  11.576   7.501
 1460AUSL   AUS 1447  27.223  11.431   7.084
 1461AUL    AUL 1448  27.507  11.657   7.197
 1462THSLK    S 1449  27.403  11.548   6.920
 1463ETHY    C1 1450  27.744  11.681   6.638
 1464ETHY    C1 1451  28.120  11.935   6.314
 1465THSLK    S 1452  27.566  11.647   7.501
 1466ETHY    C1 1453  27.990  11.831   7.497
 1467ETHY    C1 1454  28.454  12.140   7.498
 1468AUSL   AUS 1455  27.387  11.330   7.349
 1469AUSL   AUS 1456  27.387  11.003   7.652
 1470AUL    AUL 1457  27.694  11.167   7.501
 1471THSLK    S 1458  27.654  11.385   7.341
 1472ETHY    C1 1459  28.106  11.441   7.262
 1473ETHY    C1 1460  28.631  11.606   7.172
 1474THSLK    S 1461  27.633  10.871   7.659
 1475ETHY    C1 1462  28.050  10.686   7.728
 1476ETHY    C1 1463  28.586  10.558   7.820
 1477AUSL   AUS 1464  27.387  11.330   7.652
 1478AUSL   AUS 1465  27.129  11.677   7.765
 1479AUL    AUL 1466  27.507  11.657   7.804
 1480THSLK    S 1467  27.315  11.812   7.925
 1481ETHY    C1 1468  27.631  12.080   8.128
 1482ETHY    C1 1469  27.946  12.477   8.362
 1483THSLK    S 1470  27.654  11.385   7.661
 1484ETHY    C1 1471  28.106  11.441   7.733
 1485ETHY    C1 1472  28.632  11.606   7.824
 1486AUSL   AUS 1473  26.133  11.576   7.501
 1487AUSL   AUS 1474  26.203  11.431   7.917
 1488AUL    AUL 1475  25.919  11.657   7.804
 1489THSLK    S 1476  26.056  11.566   8.107
 1490ETHY    C1 1477  25.772  11.735   8.430
 1491ETHY    C1 1478  25.380  11.980   8.743
 1492THSLK    S 1479  25.902  11.714   7.501
 1493ETHY    C1 1480  25.548  12.012   7.497
 1494ETHY    C1 1481  25.064  12.289   7.498
 1495AUSL   AUS 1482  26.039  11.330   7.349
 1496AUSL   AUS 1483  26.296  11.677   7.236
 1497AUL    AUL 1484  25.919  11.657   7.197
 1498THSLK    S 1485  25.793  11.440   7.307
 1499ETHY    C1 1486  25.375  11.585   7.173
 1500ETHY    C1 1487  24.840  11.725   7.099
 1501THSLK    S 1488  26.165  11.846   7.056
 1502ETHY    C1 1489  25.941  12.168   6.812
 1503ETHY    C1 1490  25.601  12.550   6.589
 1504AUSL   AUS 1491  26.039  11.330   7.652
 1505AUSL   AUS 1492  26.039  11.003   7.349
 1506AUL    AUL 1493  25.731  11.167   7.501
 1507THSLK    S 1494  25.772  10.925   7.377
 1508ETHY    C1 1495  25.319  10.836   7.359
 1509ETHY    C1 1496  24.794  10.681   7.252
 1510THSLK    S 1497  25.793  11.440   7.694
 1511ETHY    C1 1498  25.376  11.591   7.825
 1512ETHY    C1 1499  24.841  11.729   7.900
 1513AUSL   AUS 1500  27.293  10.758   7.501
 1514AUSL   AUS 1501  27.223  10.902   7.917
 1515AUL    AUL 1502  27.507  10.676   7.804
 1516THSLK    S 1503  27.524  10.619   7.501
 1517ETHY    C1 1504  27.878  10.321   7.497
 1518ETHY    C1 1505  28.362  10.044   7.498
 1519THSLK    S 1506  27.369  10.715   8.070
 1520ETHY    C1 1507  27.657  10.460   8.326
 1521ETHY    C1 1508  28.049  10.240   8.657
 1522AUSL   AUS 1509  27.387  11.003   7.349
 1523AUSL   AUS 1510  27.129  10.656   7.236
 1524AUL    AUL 1511  27.507  10.676   7.197
 1525THSLK    S 1512  27.633  10.871   7.343
 1526ETHY    C1 1513  28.049  10.686   7.266
 1527ETHY    C1 1514  28.585  10.558   7.176
 1528THSLK    S 1515  27.261  10.465   7.092
 1529ETHY    C1 1516  27.482  10.104   6.907
 1530ETHY    C1 1517  27.823   9.734   6.667
 1531AUSL   AUS 1518  26.133  10.758   7.501
 1532AUSL   AUS 1519  26.203  10.902   7.084
 1533AUL    AUL 1520  25.919  10.676   7.197
 1534THSLK    S 1521  26.023  10.734   6.958
 1535ETHY    C1 1522  25.677  10.514   6.743
 1536ETHY    C1 1523  25.302  10.284   6.400
 1537THSLK    S 1524  25.860  10.686   7.501
 1538ETHY    C1 1525  25.436  10.503   7.497
 1539ETHY    C1 1526  24.972  10.193   7.498
 1540AUSL   AUS 1527  26.039  11.003   7.652
 1541AUSL   AUS 1528  26.296  10.656   7.765
 1542AUL    AUL 1529  25.919  10.676   7.804
 1543THSLK    S 1530  26.110  10.499   7.889
 1544ETHY    C1 1531  25.797  10.193   8.033
 1545ETHY    C1 1532  25.482   9.806   8.284
 1546THSLK    S 1533  25.772  10.926   7.625
 1547ETHY    C1 1534  25.320  10.830   7.639
 1548ETHY    C1 1535  24.795  10.677   7.746
 1549AUSL   AUS 1536  26.713  11.747   7.910
 1550AUSL   AUS 1537  26.296  11.677   7.765
 1551AUL    AUL 1538  26.409  11.961   7.991
 1552THSLK    S 1539  26.165  11.845   7.945
 1553ETHY    C1 1540  25.944  12.173   8.185
 1554ETHY    C1 1541  25.603  12.553   8.409
 1555THSLK    S 1542  26.747  11.988   8.033
 1556ETHY    C1 1543  26.805  12.360   8.301
 1557ETHY    C1 1544  26.789  12.839   8.586
 1558AUSL   AUS 1545  26.561  11.840   7.664
 1559AUSL   AUS 1546  26.864  11.840   7.337
 1560AUL    AUL 1547  26.713  12.148   7.501
 1561THSLK    S 1548  26.592  12.100   7.770
 1562ETHY    C1 1549  26.582  12.541   7.907
 1563ETHY    C1 1550  26.473  13.070   8.048
 1564THSLK    S 1551  26.909  12.089   7.235
 1565ETHY    C1 1552  27.047  12.507   7.097
 1566ETHY    C1 1553  27.119  13.042   6.955
 1567AUSL   AUS 1554  26.864  11.840   7.664
 1568AUSL   AUS 1555  26.978  11.583   8.011
 1569AUL    AUL 1556  27.016  11.961   7.991
 1570THSLK    S 1557  27.152  11.711   8.185
 1571ETHY    C1 1558  27.388  11.930   8.517
 1572ETHY    C1 1559  27.614  12.272   8.895
 1573THSLK    S 1560  26.909  12.088   7.767
 1574ETHY    C1 1561  27.048  12.509   7.898
 1575ETHY    C1 1562  27.121  13.043   8.041
 1576AUSL   AUS 1563  26.713  10.587   7.910
 1577AUSL   AUS 1564  27.129  10.656   7.765
 1578AUL    AUL 1565  27.016  10.372   7.991
 1579THSLK    S 1566  26.679  10.323   7.997
 1580ETHY    C1 1567  26.624   9.914   8.205
 1581ETHY    C1 1568  26.639   9.446   8.507
 1582THSLK    S 1569  27.261  10.465   7.910
 1583ETHY    C1 1570  27.484  10.103   8.089
 1584ETHY    C1 1571  27.825   9.733   8.330
 1585AUSL   AUS 1572  26.561  10.493   7.664
 1586AUSL   AUS 1573  26.448  10.750   8.011
 1587AUL    AUL 1574  26.409  10.372   7.991
 1588THSLK    S 1575  26.516  10.240   7.746
 1589ETHY    C1 1576  26.379   9.809   7.843
 1590ETHY    C1 1577  26.306   9.277   7.996
 1591THSLK    S 1578  26.273  10.576   8.146
 1592ETHY    C1 1579  26.042  10.278   8.413
 1593ETHY    C1 1580  25.815   9.958   8.810
 1594AUSL   AUS 1581  26.864  10.493   7.664
 1595AUSL   AUS 1582  26.561  10.493   7.337
 1596AUL    AUL 1583  26.713  10.185   7.501
 1597THSLK    S 1584  26.516  10.240   7.255
 1598ETHY    C1 1585  26.377   9.811   7.152
 1599ETHY    C1 1586  26.305   9.279   7.001
 1600THSLK    S 1587  26.833  10.228   7.750
 1601ETHY    C1 1588  26.846   9.777   7.852
 1602ETHY    C1 1589  26.954   9.251   8.003
 1603AUSL   AUS 1590  26.713  11.747   7.092
 1604AUSL   AUS 1591  27.129  11.677   7.236
 1605AUL    AUL 1592  27.016  11.961   7.010
 1606THSLK    S 1593  26.747  11.988   6.969
 1607ETHY    C1 1594  26.802  12.357   6.696
 1608ETHY    C1 1595  26.786  12.836   6.412
 1609THSLK    S 1596  27.316  11.812   7.077
 1610ETHY    C1 1597  27.629  12.079   6.868
 1611ETHY    C1 1598  27.944  12.476   6.634
 1612AUSL   AUS 1599  26.561  11.840   7.337
 1613AUSL   AUS 1600  26.448  11.583   6.990
 1614AUL    AUL 1601  26.409  11.961   7.010
 1615THSLK    S 1602  26.592  12.101   7.232
 1616ETHY    C1 1603  26.580  12.539   7.088
 1617ETHY    C1 1604  26.472  13.068   6.948
 1618THSLK    S 1605  26.321  11.726   6.799
 1619ETHY    C1 1606  26.163  11.966   6.437
 1620ETHY    C1 1607  25.915  12.301   6.067
 1621AUSL   AUS 1608  26.713  10.587   7.092
 1622AUSL   AUS 1609  26.296  10.656   7.236
 1623AUL    AUL 1610  26.409  10.372   7.010
 1624THSLK    S 1611  26.110  10.499   7.113
 1625ETHY    C1 1612  25.794  10.197   6.964
 1626ETHY    C1 1613  25.480   9.810   6.714
 1627THSLK    S 1614  26.679  10.323   7.004
 1628ETHY    C1 1615  26.620   9.918   6.791
 1629ETHY    C1 1616  26.637   9.448   6.490
 1630AUSL   AUS 1617  26.864  10.493   7.337
 1631AUSL   AUS 1618  26.978  10.750   6.990
 1632AUL    AUL 1619  27.016  10.372   7.010
 1633THSLK    S 1620  26.834  10.227   7.252
 1634ETHY    C1 1621  26.844   9.779   7.143
 1635ETHY    C1 1622  26.952   9.252   6.993
 1636THSLK    S 1623  27.106  10.561   6.839
 1637ETHY    C1 1624  27.258  10.243   6.541
 1638ETHY    C1 1625  27.507   9.929   6.152
 1639AUC    AUC 1626  21.343   8.382   7.501
 1640AUC    AUC 1627  21.588   8.382   7.349
 1641AUC    AUC 1628  21.588   8.382   7.652
 1642AUC    AUC 1629  21.097   8.382   7.349
 1643AUC    AUC 1630  21.097   8.382   7.652
 1644AUC    AUC 1631  21.191   8.627   7.501
 1645AUC    AUC 1632  21.494   8.627   7.501
 1646AUC    AUC 1633  21.191   8.136   7.501
 1647AUC    AUC 1634  21.494   8.136   7.501
 1648AUC    AUC 1635  21.343   8.230   7.746
 1649AUC    AUC 1636  21.343   8.533   7.746
 1650AUC    AUC 1637  21.343   8.230   7.255
 1651AUC    AUC 1638  21.343   8.533   7.255
 1652AUC    AUC 1639  21.834   8.382   7.197
 1653AUC    AUC 1640  21.834   8.382   7.501
 1654AUC    AUC 1641  21.834   8.382   7.804
 1655AUC    AUC 1642  20.852   8.382   7.197
 1656AUC    AUC 1643  20.852   8.382   7.501
 1657AUC    AUC 1644  20.852   8.382   7.804
 1658AUC    AUC 1645  21.039   8.872   7.501
 1659AUC    AUC 1646  21.343   8.872   7.501
 1660AUC    AUC 1647  21.646   8.872   7.501
 1661AUC    AUC 1648  21.039   7.891   7.501
 1662AUC    AUC 1649  21.343   7.891   7.501
 1663AUC    AUC 1650  21.646   7.891   7.501
 1664AUC    AUC 1651  21.343   8.078   7.991
 1665AUC    AUC 1652  21.343   8.382   7.991
 1666AUC    AUC 1653  21.343   8.685   7.991
 1667AUC    AUC 1654  21.343   8.078   7.010
 1668AUC    AUC 1655  21.343   8.382   7.010
 1669AUC    AUC 1656  21.343   8.685   7.010
 1670AUC    AUC 1657  21.588   8.230   7.898
 1671AUC    AUC 1658  21.588   8.533   7.898
 1672AUC    AUC 1659  21.588   8.230   7.103
 1673AUC    AUC 1660  21.588   8.533   7.103
 1674AUC    AUC 1661  21.097   8.230   7.898
 1675AUC    AUC 1662  21.097   8.533   7.898
 1676AUC    AUC 1663  21.097   8.230   7.103
 1677AUC    AUC 1664  21.097   8.533   7.103
 1678AUC    AUC 1665  21.740   8.627   7.349
 1679AUC    AUC 1666  21.740   8.627   7.652
 1680AUC    AUC 1667  20.946   8.627   7.349
 1681AUC    AUC 1668  20.946   8.627   7.652
 1682AUC    AUC 1669  21.740   8.136   7.349
 1683AUC    AUC 1670  21.740   8.136   7.652
 1684AUC    AUC 1671  20.946   8.136   7.349
 1685AUC    AUC 1672  20.946   8.136   7.652
 1686AUC    AUC 1673  21.191   8.779   7.746
 1687AUC    AUC 1674  21.494   8.779   7.746
 1688AUC    AUC 1675  21.191   7.985   7.746
 1689AUC    AUC 1676  21.494   7.985   7.746
 1690AUC    AUC 1677  21.191   8.779   7.255
 1691AUC    AUC 1678  21.494   8.779   7.255
 1692AUC    AUC 1679  21.191   7.985   7.255
 1693AUC    AUC 1680  21.494   7.985   7.255
 1694AUSL   AUS 1681  21.752   8.382   8.081
 1695AUSL   AUS 1682  21.608   7.965   8.011
 1696AUL    AUL 1683  21.834   8.078   8.295
 1697THSLK    S 1684  21.735   7.777   8.163
 1698ETHY    C1 1685  21.893   7.456   8.456
 1699ETHY    C1 1686  22.141   7.143   8.845
 1700THSLK    S 1687  21.857   8.342   8.333
 1701ETHY    C1 1688  22.100   8.275   8.720
 1702ETHY    C1 1689  22.393   8.294   9.194
 1703AUSL   AUS 1690  21.506   8.230   8.174
 1704AUSL   AUS 1691  21.179   8.533   8.174
 1705AUL    AUL 1692  21.343   8.382   8.482
 1706THSLK    S 1693  21.593   8.184   8.426
 1707ETHY    C1 1694  21.706   8.043   8.852
 1708ETHY    C1 1695  21.855   7.972   9.385
 1709THSLK    S 1696  21.091   8.502   8.439
 1710ETHY    C1 1697  20.986   8.513   8.889
 1711ETHY    C1 1698  20.836   8.621   9.415
 1712AUSL   AUS 1699  21.506   8.533   8.174
 1713AUSL   AUS 1700  21.853   8.646   7.917
 1714AUL    AUL 1701  21.834   8.685   8.295
 1715THSLK    S 1702  21.594   8.579   8.426
 1716ETHY    C1 1703  21.700   8.719   8.854
 1717ETHY    C1 1704  21.850   8.791   9.386
 1718THSLK    S 1705  22.033   8.762   8.082
 1719ETHY    C1 1706  22.378   8.897   8.358
 1720ETHY    C1 1707  22.753   9.151   8.683
 1721AUSL   AUS 1708  21.752   8.382   6.921
 1722AUSL   AUS 1709  21.608   8.798   6.990
 1723AUL    AUL 1710  21.834   8.685   6.706
 1724THSLK    S 1711  21.858   8.342   6.668
 1725ETHY    C1 1712  22.095   8.275   6.278
 1726ETHY    C1 1713  22.388   8.294   5.804
 1727THSLK    S 1714  21.783   8.926   6.816
 1728ETHY    C1 1715  22.014   9.144   6.480
 1729ETHY    C1 1716  22.240   9.486   6.102
 1730AUSL   AUS 1717  21.506   8.230   6.827
 1731AUSL   AUS 1718  21.853   8.117   7.084
 1732AUL    AUL 1719  21.834   8.078   6.706
 1733THSLK    S 1720  21.999   7.930   6.932
 1734ETHY    C1 1721  22.283   7.676   6.670
 1735ETHY    C1 1722  22.675   7.456   6.340
 1736THSLK    S 1723  21.594   8.184   6.575
 1737ETHY    C1 1724  21.700   8.044   6.147
 1738ETHY    C1 1725  21.850   7.972   5.615
 1739AUSL   AUS 1726  21.506   8.533   6.827
 1740AUSL   AUS 1727  21.179   8.230   6.827
 1741AUL    AUL 1728  21.343   8.382   6.519
 1742THSLK    S 1729  21.079   8.184   6.579
 1743ETHY    C1 1730  20.945   8.046   6.158
 1744ETHY    C1 1731  20.802   7.974   5.624
 1745THSLK    S 1732  21.607   8.501   6.566
 1746ETHY    C1 1733  21.734   8.510   6.121
 1747ETHY    C1 1734  21.878   8.619   5.594
 1748AUSL   AUS 1735  20.934   8.382   8.081
 1749AUSL   AUS 1736  21.078   8.798   8.011
 1750AUL    AUL 1737  20.852   8.685   8.295
 1751THSLK    S 1738  20.828   8.342   8.333
 1752ETHY    C1 1739  20.591   8.275   8.723
 1753ETHY    C1 1740  20.297   8.294   9.197
 1754THSLK    S 1741  20.950   8.940   8.202
 1755ETHY    C1 1742  20.797   9.185   8.563
 1756ETHY    C1 1743  20.549   9.520   8.933
 1757AUSL   AUS 1744  21.179   8.230   8.174
 1758AUSL   AUS 1745  20.833   8.117   7.917
 1759AUL    AUL 1746  20.852   8.078   8.295
 1760THSLK    S 1747  20.652   7.949   8.043
 1761ETHY    C1 1748  20.311   7.723   8.259
 1762ETHY    C1 1749  19.935   7.495   8.602
 1763THSLK    S 1750  21.079   8.184   8.422
 1764ETHY    C1 1751  20.951   8.045   8.844
 1765ETHY    C1 1752  20.807   7.973   9.378
 1766AUSL   AUS 1753  20.934   8.382   6.921
 1767AUSL   AUS 1754  21.078   7.965   6.990
 1768AUL    AUL 1755  20.852   8.078   6.706
 1769THSLK    S 1756  20.829   8.342   6.668
 1770ETHY    C1 1757  20.585   8.275   6.281
 1771ETHY    C1 1758  20.293   8.294   5.807
 1772THSLK    S 1759  20.904   7.791   6.855
 1773ETHY    C1 1760  20.667   7.498   6.587
 1774ETHY    C1 1761  20.442   7.177   6.190
 1775AUSL   AUS 1762  21.179   8.533   6.827
 1776AUSL   AUS 1763  20.833   8.646   7.084
 1777AUL    AUL 1764  20.852   8.685   6.706
 1778THSLK    S 1765  20.687   8.781   6.894
 1779ETHY    C1 1766  20.398   8.945   6.572
 1780ETHY    C1 1767  20.007   9.190   6.259
 1781THSLK    S 1768  21.092   8.502   6.562
 1782ETHY    C1 1769  20.979   8.512   6.114
 1783ETHY    C1 1770  20.831   8.620   5.587
 1784AUSL   AUS 1771  21.923   8.791   7.501
 1785AUSL   AUS 1772  21.853   8.646   7.084
 1786AUL    AUL 1773  22.137   8.872   7.197
 1787THSLK    S 1774  22.033   8.763   6.920
 1788ETHY    C1 1775  22.374   8.896   6.638
 1789ETHY    C1 1776  22.750   9.150   6.314
 1790THSLK    S 1777  22.196   8.862   7.501
 1791ETHY    C1 1778  22.620   9.046   7.497
 1792ETHY    C1 1779  23.084   9.355   7.498
 1793AUSL   AUS 1780  22.017   8.545   7.349
 1794AUSL   AUS 1781  22.017   8.218   7.652
 1795AUL    AUL 1782  22.324   8.382   7.501
 1796THSLK    S 1783  22.284   8.600   7.341
 1797ETHY    C1 1784  22.736   8.656   7.262
 1798ETHY    C1 1785  23.261   8.821   7.172
 1799THSLK    S 1786  22.263   8.086   7.659
 1800ETHY    C1 1787  22.680   7.901   7.728
 1801ETHY    C1 1788  23.216   7.773   7.820
 1802AUSL   AUS 1789  22.017   8.545   7.652
 1803AUSL   AUS 1790  21.759   8.892   7.765
 1804AUL    AUL 1791  22.137   8.872   7.804
 1805THSLK    S 1792  21.945   9.027   7.925
 1806ETHY    C1 1793  22.261   9.295   8.128
 1807ETHY    C1 1794  22.576   9.692   8.362
 1808THSLK    S 1795  22.284   8.600   7.661
 1809ETHY    C1 1796  22.736   8.656   7.733
 1810ETHY    C1 1797  23.262   8.821   7.824
 1811AUSL   AUS 1798  20.763   8.791   7.501
 1812AUSL   AUS 1799  20.833   8.646   7.917
 1813AUL    AUL 1800  20.549   8.872   7.804
 1814THSLK    S 1801  20.686   8.781   8.107
 1815ETHY    C1 1802  20.402   8.950   8.430
 1816ETHY    C1 1803  20.010   9.195   8.743
 1817THSLK    S 1804  20.532   8.929   7.501
 1818ETHY    C1 1805  20.178   9.227   7.497
 1819ETHY    C1 1806  19.694   9.504   7.498
 1820AUSL   AUS 1807  20.669   8.545   7.349
 1821AUSL   AUS 1808  20.926   8.892   7.236
 1822AUL    AUL 1809  20.549   8.872   7.197
 1823THSLK    S 1810  20.423   8.655   7.307
 1824ETHY    C1 1811  20.005   8.800   7.173
 1825ETHY    C1 1812  19.470   8.940   7.099
 1826THSLK    S 1813  20.795   9.061   7.056
 1827ETHY    C1 1814  20.571   9.383   6.812
 1828ETHY    C1 1815  20.231   9.765   6.589
 1829AUSL   AUS 1816  20.669   8.545   7.652
 1830AUSL   AUS 1817  20.669   8.218   7.349
 1831AUL    AUL 1818  20.361   8.382   7.501
 1832THSLK    S 1819  20.402   8.140   7.377
 1833ETHY    C1 1820  19.949   8.051   7.359
 1834ETHY    C1 1821  19.424   7.896   7.252
 1835THSLK    S 1822  20.423   8.655   7.694
 1836ETHY    C1 1823  20.006   8.806   7.825
 1837ETHY    C1 1824  19.471   8.944   7.900
 1838AUSL   AUS 1825  21.923   7.973   7.501
 1839AUSL   AUS 1826  21.853   8.117   7.917
 1840AUL    AUL 1827  22.137   7.891   7.804
 1841THSLK    S 1828  22.154   7.834   7.501
 1842ETHY    C1 1829  22.508   7.536   7.497
 1843ETHY    C1 1830  22.992   7.259   7.498
 1844THSLK    S 1831  21.999   7.930   8.070
 1845ETHY    C1 1832  22.287   7.675   8.326
 1846ETHY    C1 1833  22.679   7.455   8.657
 1847AUSL   AUS 1834  22.017   8.218   7.349
 1848AUSL   AUS 1835  21.759   7.871   7.236
 1849AUL    AUL 1836  22.137   7.891   7.197
 1850THSLK    S 1837  22.263   8.086   7.343
 1851ETHY    C1 1838  22.679   7.901   7.266
 1852ETHY    C1 1839  23.215   7.773   7.176
 1853THSLK    S 1840  21.891   7.680   7.092
 1854ETHY    C1 1841  22.112   7.319   6.907
 1855ETHY    C1 1842  22.453   6.949   6.667
 1856AUSL   AUS 1843  20.763   7.973   7.501
 1857AUSL   AUS 1844  20.833   8.117   7.084
 1858AUL    AUL 1845  20.549   7.891   7.197
 1859THSLK    S 1846  20.653   7.949   6.958
 1860ETHY    C1 1847  20.307   7.729   6.743
 1861ETHY    C1 1848  19.932   7.499   6.400
 1862THSLK    S 1849  20.490   7.901   7.501
 1863ETHY    C1 1850  20.066   7.718   7.497
 1864ETHY    C1 1851  19.602   7.408   7.498
 1865AUSL   AUS 1852  20.669   8.218   7.652
 1866AUSL   AUS 1853  20.926   7.871   7.765
 1867AUL    AUL 1854  20.549   7.891   7.804
 1868THSLK    S 1855  20.740   7.714   7.889
 1869ETHY    C1 1856  20.427   7.408   8.033
 1870ETHY    C1 1857  20.112   7.021   8.284
 1871THSLK    S 1858  20.402   8.141   7.625
 1872ETHY    C1 1859  19.950   8.045   7.639
 1873ETHY    C1 1860  19.425   7.892   7.746
 1874AUSL   AUS 1861  21.343   8.962   7.910
 1875AUSL   AUS 1862  20.926   8.892   7.765
 1876AUL    AUL 1863  21.039   9.176   7.991
 1877THSLK    S 1864  20.795   9.060   7.945
 1878ETHY    C1 1865  20.574   9.388   8.185
 1879ETHY    C1 1866  20.233   9.768   8.409
 1880THSLK    S 1867  21.377   9.203   8.033
 1881ETHY    C1 1868  21.435   9.575   8.301
 1882ETHY    C1 1869  21.419  10.054   8.586
 1883AUSL   AUS 1870  21.191   9.055   7.664
 1884AUSL   AUS 1871  21.494   9.055   7.337
 1885AUL    AUL 1872  21.343   9.363   7.501
 1886THSLK    S 1873  21.222   9.315   7.770
 1887ETHY    C1 1874  21.212   9.756   7.907
 1888ETHY    C1 1875  21.103  10.285   8.048
 1889THSLK    S 1876  21.539   9.304   7.235
 1890ETHY    C1 1877  21.677   9.722   7.097
 1891ETHY    C1 1878  21.749  10.257   6.955
 1892AUSL   AUS 1879  21.494   9.055   7.664
 1893AUSL   AUS 1880  21.608   8.798   8.011
 1894AUL    AUL 1881  21.646   9.176   7.991
 1895THSLK    S 1882  21.782   8.926   8.185
 1896ETHY    C1 1883  22.018   9.145   8.517
 1897ETHY    C1 1884  22.244   9.487   8.895
 1898THSLK    S 1885  21.539   9.303   7.767
 1899ETHY    C1 1886  21.678   9.724   7.898
 1900ETHY    C1 1887  21.751  10.258   8.041
 1901AUSL   AUS 1888  21.343   7.802   7.910
 1902AUSL   AUS 1889  21.759   7.871   7.765
 1903AUL    AUL 1890  21.646   7.587   7.991
 1904THSLK    S 1891  21.309   7.538   7.997
 1905ETHY    C1 1892  21.254   7.129   8.205
 1906ETHY    C1 1893  21.269   6.661   8.507
 1907THSLK    S 1894  21.891   7.680   7.910
 1908ETHY    C1 1895  22.114   7.318   8.089
 1909ETHY    C1 1896  22.455   6.948   8.330
 1910AUSL   AUS 1897  21.191   7.708   7.664
 1911AUSL   AUS 1898  21.078   7.965   8.011
 1912AUL    AUL 1899  21.039   7.587   7.991
 1913THSLK    S 1900  21.146   7.455   7.746
 1914ETHY    C1 1901  21.009   7.024   7.843
 1915ETHY    C1 1902  20.936   6.492   7.996
 1916THSLK    S 1903  20.903   7.791   8.146
 1917ETHY    C1 1904  20.672   7.493   8.413
 1918ETHY    C1 1905  20.445   7.173   8.810
 1919AUSL   AUS 1906  21.494   7.708   7.664
 1920AUSL   AUS 1907  21.191   7.708   7.337
 1921AUL    AUL 1908  21.343   7.400   7.501
 1922THSLK    S 1909  21.146   7.455   7.255
 1923ETHY    C1 1910  21.007   7.026   7.152
 1924ETHY    C1 1911  20.935   6.494   7.001
 1925THSLK    S 1912  21.463   7.443   7.750
 1926ETHY    C1 1913  21.476   6.992   7.852
 1927ETHY    C1 1914  21.584   6.466   8.003
 1928AUSL   AUS 1915  21.343   8.962   7.092
 1929AUSL   AUS 1916  21.759   8.892   7.236
 1930AUL    AUL 1917  21.646   9.176   7.010
 1931THSLK    S 1918  21.377   9.203   6.969
 1932ETHY    C1 1919  21.432   9.572   6.696
 1933ETHY    C1 1920  21.416  10.051   6.412
 1934THSLK    S 1921  21.946   9.027   7.077
 1935ETHY    C1 1922  22.259   9.294   6.868
 1936ETHY    C1 1923  22.574   9.691   6.634
 1937AUSL   AUS 1924  21.191   9.055   7.337
 1938AUSL   AUS 1925  21.078   8.798   6.990
 1939AUL    AUL 1926  21.039   9.176   7.010
 1940THSLK    S 1927  21.222   9.316   7.232
 1941ETHY    C1 1928  21.210   9.754   7.088
 1942ETHY    C1 1929  21.102  10.283   6.948
 1943THSLK    S 1930  20.951   8.941   6.799
 1944ETHY    C1 1931  20.793   9.181   6.437
 1945ETHY    C1 1932  20.545   9.516   6.067
 1946AUSL   AUS 1933  21.343   7.802   7.092
 1947AUSL   AUS 1934  20.926   7.871   7.236
 1948AUL    AUL 1935  21.039   7.587   7.010
 1949THSLK    S 1936  20.740   7.714   7.113
 1950ETHY    C1 1937  20.424   7.412   6.964
 1951ETHY    C1 1938  20.110   7.025   6.714
 1952THSLK    S 1939  21.309   7.538   7.004
 1953ETHY    C1 1940  21.250   7.133   6.791
 1954ETHY    C1 1941  21.267   6.663   6.490
 1955AUSL   AUS 1942  21.494   7.708   7.337
 1956AUSL   AUS 1943  21.608   7.965   6.990
 1957AUL    AUL 1944  21.646   7.587   7.010
 1958THSLK    S 1945  21.464   7.442   7.252
 1959ETHY    C1 1946  21.474   6.994   7.143
 1960ETHY    C1 1947  21.582   6.467   6.993
 1961THSLK    S 1948  21.736   7.776   6.839
 1962ETHY    C1 1949  21.888   7.458   6.541
 1963ETHY    C1 1950  22.137   7.144   6.152
 1964AUC    AUC 1951  39.198   6.860   7.501
 1965AUC    AUC 1952  39.443   6.860   7.349
 1966AUC    AUC 1953  39.443   6.860   7.652
 1967AUC    AUC 1954  38.952   6.860   7.349
 1968AUC    AUC 1955  38.952   6.860   7.652
 1969AUC    AUC 1956  39.046   7.105   7.501
 1970AUC    AUC 1957  39.349   7.105   7.501
 1971AUC    AUC 1958  39.046   6.614   7.501
 1972AUC    AUC 1959  39.349   6.614   7.501
 1973AUC    AUC 1960  39.198   6.708   7.746
 1974AUC    AUC 1961  39.198   7.011   7.746
 1975AUC    AUC 1962  39.198   6.708   7.255
 1976AUC    AUC 1963  39.198   7.011   7.255
 1977AUC    AUC 1964  39.689   6.860   7.197
 1978AUC    AUC 1965  39.689   6.860   7.501
 1979AUC    AUC 1966  39.689   6.860   7.804
 1980AUC    AUC 1967  38.707   6.860   7.197
 1981AUC    AUC 1968  38.707   6.860   7.501
 1982AUC    AUC 1969  38.707   6.860   7.804
 1983AUC    AUC 1970  38.894   7.350   7.501
 1984AUC    AUC 1971  39.198   7.350   7.501
 1985AUC    AUC 1972  39.501   7.350   7.501
 1986AUC    AUC 1973  38.894   6.369   7.501
 1987AUC    AUC 1974  39.198   6.369   7.501
 1988AUC    AUC 1975  39.501   6.369   7.501
 1989AUC    AUC 1976  39.198   6.556   7.991
 1990AUC    AUC 1977  39.198   6.860   7.991
 1991AUC    AUC 1978  39.198   7.163   7.991
 1992AUC    AUC 1979  39.198   6.556   7.010
 1993AUC    AUC 1980  39.198   6.860   7.010
 1994AUC    AUC 1981  39.198   7.163   7.010
 1995AUC    AUC 1982  39.443   6.708   7.898
 1996AUC    AUC 1983  39.443   7.011   7.898
 1997AUC    AUC 1984  39.443   6.708   7.103
 1998AUC    AUC 1985  39.443   7.011   7.103
 1999AUC    AUC 1986  38.952   6.708   7.898
 2000AUC    AUC 1987  38.952   7.011   7.898
 2001AUC    AUC 1988  38.952   6.708   7.103
 2002AUC    AUC 1989  38.952   7.011   7.103
 2003AUC    AUC 1990  39.595   7.105   7.349
 2004AUC    AUC 1991  39.595   7.105   7.652
 2005AUC    AUC 1992  38.801   7.105   7.349
 2006AUC    AUC 1993  38.801   7.105   7.652
 2007AUC    AUC 1994  39.595   6.614   7.349
 2008AUC    AUC 1995  39.595   6.614   7.652
 2009AUC    AUC 1996  38.801   6.614   7.349
 2010AUC    AUC 1997  38.801   6.614   7.652
 2011AUC    AUC 1998  39.046   7.257   7.746
 2012AUC    AUC 1999  39.349   7.257   7.746
 2013AUC    AUC 2000  39.046   6.463   7.746
 2014AUC    AUC 2001  39.349   6.463   7.746
 2015AUC    AUC 2002  39.046   7.257   7.255
 2016AUC    AUC 2003  39.349   7.257   7.255
 2017AUC    AUC 2004  39.046   6.463   7.255
 2018AUC    AUC 2005  39.349   6.463   7.255
 2019AUSL   AUS 2006  39.607   6.860   8.081
 2020AUSL   AUS 2007  39.463   6.443   8.011
 2021AUL    AUL 2008  39.689   6.556   8.295
 2022THSLK    S 2009  39.590   6.255   8.163
 2023ETHY    C1 2010  39.748   5.934   8.456
 2024ETHY    C1 2011  39.996   5.621   8.845
 2025THSLK    S 2012  39.712   6.820   8.333
 2026ETHY    C1 2013  39.955   6.753   8.720
 2027ETHY    C1 2014  40.248   6.772   9.194
 2028AUSL   AUS 2015  39.361   6.708   8.174
 2029AUSL   AUS 2016  39.034   7.011   8.174
 2030AUL    AUL 2017  39.198   6.860   8.482
 2031THSLK    S 2018  39.448   6.662   8.426
 2032ETHY    C1 2019  39.561   6.521   8.852
 2033ETHY    C1 2020  39.710   6.450   9.385
 2034THSLK    S 2021  38.946   6.980   8.439
 2035ETHY    C1 2022  38.841   6.991   8.889
 2036ETHY    C1 2023  38.691   7.099   9.415
 2037AUSL   AUS 2024  39.361   7.011   8.174
 2038AUSL   AUS 2025  39.708   7.124   7.917
 2039AUL    AUL 2026  39.689   7.163   8.295
 2040THSLK    S 2027  39.449   7.057   8.426
 2041ETHY    C1 2028  39.555   7.197   8.854
 2042ETHY    C1 2029  39.705   7.269   9.386
 2043THSLK    S 2030  39.888   7.240   8.082
 2044ETHY    C1 2031  40.233   7.375   8.358
 2045ETHY    C1 2032  40.608   7.629   8.683
 2046AUSL   AUS 2033  39.607   6.860   6.921
 2047AUSL   AUS 2034  39.463   7.276   6.990
 2048AUL    AUL 2035  39.689   7.163   6.706
 2049THSLK    S 2036  39.713   6.820   6.668
 2050ETHY    C1 2037  39.950   6.753   6.278
 2051ETHY    C1 2038  40.243   6.772   5.804
 2052THSLK    S 2039  39.638   7.404   6.816
 2053ETHY    C1 2040  39.869   7.622   6.480
 2054ETHY    C1 2041  40.095   7.964   6.102
 2055AUSL   AUS 2042  39.361   6.708   6.827
 2056AUSL   AUS 2043  39.708   6.595   7.084
 2057AUL    AUL 2044  39.689   6.556   6.706
 2058THSLK    S 2045  39.854   6.408   6.932
 2059ETHY    C1 2046  40.138   6.154   6.670
 2060ETHY    C1 2047  40.530   5.934   6.340
 2061THSLK    S 2048  39.449   6.662   6.575
 2062ETHY    C1 2049  39.555   6.522   6.147
 2063ETHY    C1 2050  39.705   6.450   5.615
 2064AUSL   AUS 2051  39.361   7.011   6.827
 2065AUSL   AUS 2052  39.034   6.708   6.827
 2066AUL    AUL 2053  39.198   6.860   6.519
 2067THSLK    S 2054  38.934   6.662   6.579
 2068ETHY    C1 2055  38.800   6.524   6.158
 2069ETHY    C1 2056  38.657   6.452   5.624
 2070THSLK    S 2057  39.462   6.979   6.566
 2071ETHY    C1 2058  39.589   6.988   6.121
 2072ETHY    C1 2059  39.733   7.097   5.594
 2073AUSL   AUS 2060  38.789   6.860   8.081
 2074AUSL   AUS 2061  38.933   7.276   8.011
 2075AUL    AUL 2062  38.707   7.163   8.295
 2076THSLK    S 2063  38.683   6.820   8.333
 2077ETHY    C1 2064  38.446   6.753   8.723
 2078ETHY    C1 2065  38.152   6.772   9.197
 2079THSLK    S 2066  38.805   7.418   8.202
 2080ETHY    C1 2067  38.652   7.663   8.563
 2081ETHY    C1 2068  38.404   7.998   8.933
 2082AUSL   AUS 2069  39.034   6.708   8.174
 2083AUSL   AUS 2070  38.688   6.595   7.917
 2084AUL    AUL 2071  38.707   6.556   8.295
 2085THSLK    S 2072  38.507   6.427   8.043
 2086ETHY    C1 2073  38.166   6.201   8.259
 2087ETHY    C1 2074  37.790   5.973   8.602
 2088THSLK    S 2075  38.934   6.662   8.422
 2089ETHY    C1 2076  38.806   6.523   8.844
 2090ETHY    C1 2077  38.662   6.451   9.378
 2091AUSL   AUS 2078  38.789   6.860   6.921
 2092AUSL   AUS 2079  38.933   6.443   6.990
 2093AUL    AUL 2080  38.707   6.556   6.706
 2094THSLK    S 2081  38.684   6.820   6.668
 2095ETHY    C1 2082  38.440   6.753   6.281
 2096ETHY    C1 2083  38.148   6.772   5.807
 2097THSLK    S 2084  38.759   6.269   6.855
 2098ETHY    C1 2085  38.522   5.976   6.587
 2099ETHY    C1 2086  38.297   5.655   6.190
 2100AUSL   AUS 2087  39.034   7.011   6.827
 2101AUSL   AUS 2088  38.688   7.124   7.084
 2102AUL    AUL 2089  38.707   7.163   6.706
 2103THSLK    S 2090  38.542   7.259   6.894
 2104ETHY    C1 2091  38.253   7.423   6.572
 2105ETHY    C1 2092  37.862   7.668   6.259
 2106THSLK    S 2093  38.947   6.980   6.562
 2107ETHY    C1 2094  38.834   6.990   6.114
 2108ETHY    C1 2095  38.686   7.098   5.587
 2109AUSL   AUS 2096  39.778   7.269   7.501
 2110AUSL   AUS 2097  39.708   7.124   7.084
 2111AUL    AUL 2098  39.992   7.350   7.197
 2112THSLK    S 2099  39.888   7.241   6.920
 2113ETHY    C1 2100  40.229   7.374   6.638
 2114ETHY    C1 2101  40.605   7.628   6.314
 2115THSLK    S 2102  40.051   7.340   7.501
 2116ETHY    C1 2103  40.475   7.524   7.497
 2117ETHY    C1 2104  40.939   7.833   7.498
 2118AUSL   AUS 2105  39.872   7.023   7.349
 2119AUSL   AUS 2106  39.872   6.696   7.652
 2120AUL    AUL 2107  40.179   6.860   7.501
 2121THSLK    S 2108  40.139   7.078   7.341
 2122ETHY    C1 2109  40.591   7.134   7.262
 2123ETHY    C1 2110  41.116   7.299   7.172
 2124THSLK    S 2111  40.118   6.564   7.659
 2125ETHY    C1 2112  40.535   6.379   7.728
 2126ETHY    C1 2113  41.071   6.251   7.820
 2127AUSL   AUS 2114  39.872   7.023   7.652
 2128AUSL   AUS 2115  39.614   7.370   7.765
 2129AUL    AUL 2116  39.992   7.350   7.804
 2130THSLK    S 2117  39.800   7.505   7.925
 2131ETHY    C1 2118  40.116   7.773   8.128
 2132ETHY    C1 2119  40.431   8.170   8.362
 2133THSLK    S 2120  40.139   7.078   7.661
 2134ETHY    C1 2121  40.591   7.134   7.733
 2135ETHY    C1 2122  41.117   7.299   7.824
 2136AUSL   AUS 2123  38.618   7.269   7.501
 2137AUSL   AUS 2124  38.688   7.124   7.917
 2138AUL    AUL 2125  38.404   7.350   7.804
 2139THSLK    S 2126  38.541   7.259   8.107
 2140ETHY    C1 2127  38.257   7.428   8.430
 2141ETHY    C1 2128  37.865   7.673   8.743
 2142THSLK    S 2129  38.387   7.407   7.501
 2143ETHY    C1 2130  38.033   7.705   7.497
 2144ETHY    C1 2131  37.549   7.982   7.498
 2145AUSL   AUS 2132  38.524   7.023   7.349
 2146AUSL   AUS 2133  38.781   7.370   7.236
 2147AUL    AUL 2134  38.404   7.350   7.197
 2148THSLK    S 2135  38.278   7.133   7.307
 2149ETHY    C1 2136  37.860   7.278   7.173
 2150ETHY    C1 2137  37.325   7.418   7.099
 2151THSLK    S 2138  38.650   7.539   7.056
 2152ETHY    C1 2139  38.426   7.861   6.812
 2153ETHY    C1 2140  38.086   8.243   6.589
 2154AUSL   AUS 2141  38.524   7.023   7.652
 2155AUSL   AUS 2142  38.524   6.696   7.349
 2156AUL    AUL 2143  38.216   6.860   7.501
 2157THSLK    S 2144  38.257   6.618   7.377
 2158ETHY    C1 2145  37.804   6.529   7.359
 2159ETHY    C1 2146  37.279   6.374   7.252
 2160THSLK    S 2147  38.278   7.133   7.694
 2161ETHY    C1 2148  37.861   7.284   7.825
 2162ETHY    C1 2149  37.326   7.422   7.900
 2163AUSL   AUS 2150  39.778   6.451   7.501
 2164AUSL   AUS 2151  39.708   6.595   7.917
 2165AUL    AUL 2152  39.992   6.369   7.804
 2166THSLK    S 2153  40.009   6.312   7.501
 2167ETHY    C1 2154  40.363   6.014   7.497
 2168ETHY    C1 2155  40.847   5.737   7.498
 2169THSLK    S 2156  39.854   6.408   8.070
 2170ETHY    C1 2157  40.142   6.153   8.326
 2171ETHY    C1 2158  40.534   5.933   8.657
 2172AUSL   AUS 2159  39.872   6.696   7.349
 2173AUSL   AUS 2160  39.614   6.349   7.236
 2174AUL    AUL 2161  39.992   6.369   7.197
 2175THSLK    S 2162  40.118   6.564   7.343
 2176ETHY    C1 2163  40.534   6.379   7.266
 2177ETHY    C1 2164  41.070   6.251   7.176
 2178THSLK    S 2165  39.746   6.158   7.092
 2179ETHY    C1 2166  39.967   5.797   6.907
 2180ETHY    C1 2167  40.308   5.427   6.667
 2181AUSL   AUS 2168  38.618   6.451   7.501
 2182AUSL   AUS 2169  38.688   6.595   7.084
 2183AUL    AUL 2170  38.404   6.369   7.197
 2184THSLK    S 2171  38.508   6.427   6.958
 2185ETHY    C1 2172  38.162   6.207   6.743
 2186ETHY    C1 2173  37.787   5.977   6.400
 2187THSLK    S 2174  38.345   6.379   7.501
 2188ETHY    C1 2175  37.921   6.196   7.497
 2189ETHY    C1 2176  37.457   5.886   7.498
 2190AUSL   AUS 2177  38.524   6.696   7.652
 2191AUSL   AUS 2178  38.781   6.349   7.765
 2192AUL    AUL 2179  38.404   6.369   7.804
 2193THSLK    S 2180  38.595   6.192   7.889
 2194ETHY    C1 2181  38.282   5.886   8.033
 2195ETHY    C1 2182  37.967   5.499   8.284
 2196THSLK    S 2183  38.257   6.619   7.625
 2197ETHY    C1 2184  37.805   6.523   7.639
 2198ETHY    C1 2185  37.280   6.370   7.746
 2199AUSL   AUS 2186  39.198   7.440   7.910
 2200AUSL   AUS 2187  38.781   7.370   7.765
 2201AUL    AUL 2188  38.894   7.654   7.991
 2202THSLK    S 2189  38.650   7.538   7.945
 2203ETHY    C1 2190  38.429   7.866   8.185
 2204ETHY    C1 2191  38.088   8.246   8.409
 2205THSLK    S 2192  39.232   7.681   8.033
 2206ETHY    C1 2193  39.290   8.053   8.301
 2207ETHY    C1 2194  39.274   8.532   8.586
 2208AUSL   AUS 2195  39.046   7.533   7.664
 2209AUSL   AUS 2196  39.349   7.533   7.337
 2210AUL    AUL 2197  39.198   7.841   7.501
 2211THSLK    S 2198  39.077   7.793   7.770
 2212ETHY    C1 2199  39.067   8.234   7.907
 2213ETHY    C1 2200  38.958   8.763   8.048
 2214THSLK    S 2201  39.394   7.782   7.235
 2215ETHY    C1 2202  39.532   8.200   7.097
 2216ETHY    C1 2203  39.604   8.735   6.955
 2217AUSL   AUS 2204  39.349   7.533   7.664
 2218AUSL   AUS 2205  39.463   7.276   8.011
 2219AUL    AUL 2206  39.501   7.654   7.991
 2220THSLK    S 2207  39.637   7.404   8.185
 2221ETHY    C1 2208  39.873   7.623   8.517
 2222ETHY    C1 2209  40.099   7.965   8.895
 2223THSLK    S 2210  39.394   7.781   7.767
 2224ETHY    C1 2211  39.533   8.202   7.898
 2225ETHY    C1 2212  39.606   8.736   8.041
 2226AUSL   AUS 2213  39.198   6.280   7.910
 2227AUSL   AUS 2214  39.614   6.349   7.765
 2228AUL    AUL 2215  39.501   6.065   7.991
 2229THSLK    S 2216  39.164   6.016   7.997
 2230ETHY    C1 2217  39.109   5.607   8.205
 2231ETHY    C1 2218  39.124   5.139   8.507
 2232THSLK    S 2219  39.746   6.158   7.910
 2233ETHY    C1 2220  39.969   5.796   8.089
 2234ETHY    C1 2221  40.310   5.426   8.330
 2235AUSL   AUS 2222  39.046   6.186   7.664
 2236AUSL   AUS 2223  38.933   6.443   8.011
 2237AUL    AUL 2224  38.894   6.065   7.991
 2238THSLK    S 2225  39.001   5.933   7.746
 2239ETHY    C1 2226  38.864   5.502   7.843
 2240ETHY    C1 2227  38.791   4.970   7.996
 2241THSLK    S 2228  38.758   6.269   8.146
 2242ETHY    C1 2229  38.527   5.971   8.413
 2243ETHY    C1 2230  38.300   5.651   8.810
 2244AUSL   AUS 2231  39.349   6.186   7.664
 2245AUSL   AUS 2232  39.046   6.186   7.337
 2246AUL    AUL 2233  39.198   5.878   7.501
 2247THSLK    S 2234  39.001   5.933   7.255
 2248ETHY    C1 2235  38.862   5.504   7.152
 2249ETHY    C1 2236  38.790   4.972   7.001
 2250THSLK    S 2237  39.318   5.921   7.750
 2251ETHY    C1 2238  39.331   5.470   7.852
 2252ETHY    C1 2239  39.439   4.944   8.003
 2253AUSL   AUS 2240  39.198   7.440   7.092
 2254AUSL   AUS 2241  39.614   7.370   7.236
 2255AUL    AUL 2242  39.501   7.654   7.010
 2256THSLK    S 2243  39.232   7.681   6.969
 2257ETHY    C1 2244  39.287   8.050   6.696
 2258ETHY    C1 2245  39.271   8.529   6.412
 2259THSLK    S 2246  39.801   7.505   7.077
 2260ETHY    C1 2247  40.114   7.772   6.868
 2261ETHY    C1 2248  40.429   8.169   6.634
 2262AUSL   AUS 2249  39.046   7.533   7.337
 2263AUSL   AUS 2250  38.933   7.276   6.990
 2264AUL    AUL 2251  38.894   7.654   7.010
 2265THSLK    S 2252  39.077   7.794   7.232
 2266ETHY    C1 2253  39.065   8.232   7.088
 2267ETHY    C1 2254  38.957   8.761   6.948
 2268THSLK    S 2255  38.806   7.419   6.799
 2269ETHY    C1 2256  38.648   7.659   6.437
 2270ETHY    C1 2257  38.400   7.994   6.067
 2271AUSL   AUS 2258  39.198   6.280   7.092
 2272AUSL   AUS 2259  38.781   6.349   7.236
 2273AUL    AUL 2260  38.894   6.065   7.010
 2274THSLK    S 2261  38.595   6.192   7.113
 2275ETHY    C1 2262  38.279   5.890   6.964
 2276ETHY    C1 2263  37.965   5.503   6.714
 2277THSLK    S 2264  39.164   6.016   7.004
 2278ETHY    C1 2265  39.105   5.611   6.791
 2279ETHY    C1 2266  39.122   5.141   6.490
 2280AUSL   AUS 2267  39.349   6.186   7.337
 2281AUSL   AUS 2268  39.463   6.443   6.990
 2282AUL    AUL 2269  39.501   6.065   7.010
 2283THSLK    S 2270  39.319   5.920   7.252
 2284ETHY    C1 2271  39.329   5.472   7.143
 2285ETHY    C1 2272  39.437   4.945   6.993
 2286THSLK    S 2273  39.591   6.254   6.839
 2287ETHY    C1 2274  39.743   5.936   6.541
 2288ETHY    C1 2275  39.992   5.622   6.152
 2289AUC    AUC 2276  20.949  29.324   7.501
 2290AUC    AUC 2277  21.194  29.324   7.349
 2291AUC    AUC 2278  21.194  29.324   7.652
 2292AUC    AUC 2279  20.703  29.324   7.349
 2293AUC    AUC 2280  20.703  29.324   7.652
 2294AUC    AUC 2281  20.797  29.569   7.501
 2295AUC    AUC 2282  21.100  29.569   7.501
 2296AUC    AUC 2283  20.797  29.078   7.501
 2297AUC    AUC 2284  21.100  29.078   7.501
 2298AUC    AUC 2285  20.949  29.172   7.746
 2299AUC    AUC 2286  20.949  29.475   7.746
 2300AUC    AUC 2287  20.949  29.172   7.255
 2301AUC    AUC 2288  20.949  29.475   7.255
 2302AUC    AUC 2289  21.440  29.324   7.197
 2303AUC    AUC 2290  21.440  29.324   7.501
 2304AUC    AUC 2291  21.440  29.324   7.804
 2305AUC    AUC 2292  20.458  29.324   7.197
 2306AUC    AUC 2293  20.458  29.324   7.501
 2307AUC    AUC 2294  20.458  29.324   7.804
 2308AUC    AUC 2295  20.645  29.814   7.501
 2309AUC    AUC 2296  20.949  29.814   7.501
 2310AUC    AUC 2297  21.252  29.814   7.501
 2311AUC    AUC 2298  20.645  28.833   7.501
 2312AUC    AUC 2299  20.949  28.833   7.501
 2313AUC    AUC 2300  21.252  28.833   7.501
 2314AUC    AUC 2301  20.949  29.020   7.991
 2315AUC    AUC 2302  20.949  29.324   7.991
 2316AUC    AUC 2303  20.949  29.627   7.991
 2317AUC    AUC 2304  20.949  29.020   7.010
 2318AUC    AUC 2305  20.949  29.324   7.010
 2319AUC    AUC 2306  20.949  29.627   7.010
 2320AUC    AUC 2307  21.194  29.172   7.898
 2321AUC    AUC 2308  21.194  29.475   7.898
 2322AUC    AUC 2309  21.194  29.172   7.103
 2323AUC    AUC 2310  21.194  29.475   7.103
 2324AUC    AUC 2311  20.703  29.172   7.898
 2325AUC    AUC 2312  20.703  29.475   7.898
 2326AUC    AUC 2313  20.703  29.172   7.103
 2327AUC    AUC 2314  20.703  29.475   7.103
 2328AUC    AUC 2315  21.346  29.569   7.349
 2329AUC    AUC 2316  21.346  29.569   7.652
 2330AUC    AUC 2317  20.552  29.569   7.349
 2331AUC    AUC 2318  20.552  29.569   7.652
 2332AUC    AUC 2319  21.346  29.078   7.349
 2333AUC    AUC 2320  21.346  29.078   7.652
 2334AUC    AUC 2321  20.552  29.078   7.349
 2335AUC    AUC 2322  20.552  29.078   7.652
 2336AUC    AUC 2323  20.797  29.721   7.746
 2337AUC    AUC 2324  21.100  29.721   7.746
 2338AUC    AUC 2325  20.797  28.927   7.746
 2339AUC    AUC 2326  21.100  28.927   7.746
 2340AUC    AUC 2327  20.797  29.721   7.255
 2341AUC    AUC 2328  21.100  29.721   7.255
 2342AUC    AUC 2329  20.797  28.927   7.255
 2343AUC    AUC 2330  21.100  28.927   7.255
 2344AUSL   AUS 2331  21.358  29.324   8.081
 2345AUSL   AUS 2332  21.214  28.907   8.011
 2346AUL    AUL 2333  21.440  29.020   8.295
 2347THSLK    S 2334  21.341  28.719   8.163
 2348ETHY    C1 2335  21.499  28.398   8.456
 2349ETHY    C1 2336  21.747  28.085   8.845
 2350THSLK    S 2337  21.463  29.284   8.333
 2351ETHY    C1 2338  21.706  29.217   8.720
 2352ETHY    C1 2339  21.999  29.236   9.194
 2353AUSL   AUS 2340  21.112  29.172   8.174
 2354AUSL   AUS 2341  20.785  29.475   8.174
 2355AUL    AUL 2342  20.949  29.324   8.482
 2356THSLK    S 2343  21.199  29.126   8.426
 2357ETHY    C1 2344  21.312  28.985   8.852
 2358ETHY    C1 2345  21.461  28.914   9.385
 2359THSLK    S 2346  20.697  29.444   8.439
 2360ETHY    C1 2347  20.592  29.455   8.889
 2361ETHY    C1 2348  20.442  29.563   9.415
 2362AUSL   AUS 2349  21.112  29.475   8.174
 2363AUSL   AUS 2350  21.459  29.588   7.917
 2364AUL    AUL 2351  21.440  29.627   8.295
 2365THSLK    S 2352  21.200  29.521   8.426
 2366ETHY    C1 2353  21.306  29.661   8.854
 2367ETHY    C1 2354  21.456  29.733   9.386
 2368THSLK    S 2355  21.639  29.704   8.082
 2369ETHY    C1 2356  21.984  29.839   8.358
 2370ETHY    C1 2357  22.359  30.093   8.683
 2371AUSL   AUS 2358  21.358  29.324   6.921
 2372AUSL   AUS 2359  21.214  29.740   6.990
 2373AUL    AUL 2360  21.440  29.627   6.706
 2374THSLK    S 2361  21.464  29.284   6.668
 2375ETHY    C1 2362  21.701  29.217   6.278
 2376ETHY    C1 2363  21.994  29.236   5.804
 2377THSLK    S 2364  21.389  29.868   6.816
 2378ETHY    C1 2365  21.620  30.086   6.480
 2379ETHY    C1 2366  21.846  30.428   6.102
 2380AUSL   AUS 2367  21.112  29.172   6.827
 2381AUSL   AUS 2368  21.459  29.059   7.084
 2382AUL    AUL 2369  21.440  29.020   6.706
 2383THSLK    S 2370  21.605  28.872   6.932
 2384ETHY    C1 2371  21.889  28.618   6.670
 2385ETHY    C1 2372  22.281  28.398   6.340
 2386THSLK    S 2373  21.200  29.126   6.575
 2387ETHY    C1 2374  21.306  28.986   6.147
 2388ETHY    C1 2375  21.456  28.914   5.615
 2389AUSL   AUS 2376  21.112  29.475   6.827
 2390AUSL   AUS 2377  20.785  29.172   6.827
 2391AUL    AUL 2378  20.949  29.324   6.519
 2392THSLK    S 2379  20.685  29.126   6.579
 2393ETHY    C1 2380  20.551  28.988   6.158
 2394ETHY    C1 2381  20.408  28.916   5.624
 2395THSLK    S 2382  21.213  29.443   6.566
 2396ETHY    C1 2383  21.340  29.452   6.121
 2397ETHY    C1 2384  21.484  29.561   5.594
 2398AUSL   AUS 2385  20.540  29.324   8.081
 2399AUSL   AUS 2386  20.684  29.740   8.011
 2400AUL    AUL 2387  20.458  29.627   8.295
 2401THSLK    S 2388  20.434  29.284   8.333
 2402ETHY    C1 2389  20.197  29.217   8.723
 2403ETHY    C1 2390  19.903  29.236   9.197
 2404THSLK    S 2391  20.556  29.882   8.202
 2405ETHY    C1 2392  20.403  30.127   8.563
 2406ETHY    C1 2393  20.155  30.462   8.933
 2407AUSL   AUS 2394  20.785  29.172   8.174
 2408AUSL   AUS 2395  20.439  29.059   7.917
 2409AUL    AUL 2396  20.458  29.020   8.295
 2410THSLK    S 2397  20.258  28.891   8.043
 2411ETHY    C1 2398  19.917  28.665   8.259
 2412ETHY    C1 2399  19.541  28.437   8.602
 2413THSLK    S 2400  20.685  29.126   8.422
 2414ETHY    C1 2401  20.557  28.987   8.844
 2415ETHY    C1 2402  20.413  28.915   9.378
 2416AUSL   AUS 2403  20.540  29.324   6.921
 2417AUSL   AUS 2404  20.684  28.907   6.990
 2418AUL    AUL 2405  20.458  29.020   6.706
 2419THSLK    S 2406  20.435  29.284   6.668
 2420ETHY    C1 2407  20.191  29.217   6.281
 2421ETHY    C1 2408  19.899  29.236   5.807
 2422THSLK    S 2409  20.510  28.733   6.855
 2423ETHY    C1 2410  20.273  28.440   6.587
 2424ETHY    C1 2411  20.048  28.119   6.190
 2425AUSL   AUS 2412  20.785  29.475   6.827
 2426AUSL   AUS 2413  20.439  29.588   7.084
 2427AUL    AUL 2414  20.458  29.627   6.706
 2428THSLK    S 2415  20.293  29.723   6.894
 2429ETHY    C1 2416  20.004  29.887   6.572
 2430ETHY    C1 2417  19.613  30.132   6.259
 2431THSLK    S 2418  20.698  29.444   6.562
 2432ETHY    C1 2419  20.585  29.454   6.114
 2433ETHY    C1 2420  20.437  29.562   5.587
 2434AUSL   AUS 2421  21.529  29.733   7.501
 2435AUSL   AUS 2422  21.459  29.588   7.084
 2436AUL    AUL 2423  21.743  29.814   7.197
 2437THSLK    S 2424  21.639  29.705   6.920
 2438ETHY    C1 2425  21.980  29.838   6.638
 2439ETHY    C1 2426  22.356  30.092   6.314
 2440THSLK    S 2427  21.802  29.804   7.501
 2441ETHY    C1 2428  22.226  29.988   7.497
 2442ETHY    C1 2429  22.690  30.297   7.498
 2443AUSL   AUS 2430  21.623  29.487   7.349
 2444AUSL   AUS 2431  21.623  29.160   7.652
 2445AUL    AUL 2432  21.930  29.324   7.501
 2446THSLK    S 2433  21.890  29.542   7.341
 2447ETHY    C1 2434  22.342  29.598   7.262
 2448ETHY    C1 2435  22.867  29.763   7.172
 2449THSLK    S 2436  21.869  29.028   7.659
 2450ETHY    C1 2437  22.286  28.843   7.728
 2451ETHY    C1 2438  22.822  28.715   7.820
 2452AUSL   AUS 2439  21.623  29.487   7.652
 2453AUSL   AUS 2440  21.365  29.834   7.765
 2454AUL    AUL 2441  21.743  29.814   7.804
 2455THSLK    S 2442  21.551  29.969   7.925
 2456ETHY    C1 2443  21.867  30.237   8.128
 2457ETHY    C1 2444  22.182  30.634   8.362
 2458THSLK    S 2445  21.890  29.542   7.661
 2459ETHY    C1 2446  22.342  29.598   7.733
 2460ETHY    C1 2447  22.868  29.763   7.824
 2461AUSL   AUS 2448  20.369  29.733   7.501
 2462AUSL   AUS 2449  20.439  29.588   7.917
 2463AUL    AUL 2450  20.155  29.814   7.804
 2464THSLK    S 2451  20.292  29.723   8.107
 2465ETHY    C1 2452  20.008  29.892   8.430
 2466ETHY    C1 2453  19.616  30.137   8.743
 2467THSLK    S 2454  20.138  29.871   7.501
 2468ETHY    C1 2455  19.784  30.169   7.497
 2469ETHY    C1 2456  19.300  30.446   7.498
 2470AUSL   AUS 2457  20.275  29.487   7.349
 2471AUSL   AUS 2458  20.532  29.834   7.236
 2472AUL    AUL 2459  20.155  29.814   7.197
 2473THSLK    S 2460  20.029  29.597   7.307
 2474ETHY    C1 2461  19.611  29.742   7.173
 2475ETHY    C1 2462  19.076  29.882   7.099
 2476THSLK    S 2463  20.401  30.003   7.056
 2477ETHY    C1 2464  20.177  30.325   6.812
 2478ETHY    C1 2465  19.837  30.707   6.589
 2479AUSL   AUS 2466  20.275  29.487   7.652
 2480AUSL   AUS 2467  20.275  29.160   7.349
 2481AUL    AUL 2468  19.967  29.324   7.501
 2482THSLK    S 2469  20.008  29.082   7.377
 2483ETHY    C1 2470  19.555  28.993   7.359
 2484ETHY    C1 2471  19.030  28.838   7.252
 2485THSLK    S 2472  20.029  29.597   7.694
 2486ETHY    C1 2473  19.612  29.748   7.825
 2487ETHY    C1 2474  19.077  29.886   7.900
 2488AUSL   AUS 2475  21.529  28.915   7.501
 2489AUSL   AUS 2476  21.459  29.059   7.917
 2490AUL    AUL 2477  21.743  28.833   7.804
 2491THSLK    S 2478  21.760  28.776   7.501
 2492ETHY    C1 2479  22.114  28.478   7.497
 2493ETHY    C1 2480  22.598  28.201   7.498
 2494THSLK    S 2481  21.605  28.872   8.070
 2495ETHY    C1 2482  21.893  28.617   8.326
 2496ETHY    C1 2483  22.285  28.397   8.657
 2497AUSL   AUS 2484  21.623  29.160   7.349
 2498AUSL   AUS 2485  21.365  28.813   7.236
 2499AUL    AUL 2486  21.743  28.833   7.197
 2500THSLK    S 2487  21.869  29.028   7.343
 2501ETHY    C1 2488  22.285  28.843   7.266
 2502ETHY    C1 2489  22.821  28.715   7.176
 2503THSLK    S 2490  21.497  28.622   7.092
 2504ETHY    C1 2491  21.718  28.261   6.907
 2505ETHY    C1 2492  22.059  27.891   6.667
 2506AUSL   AUS 2493  20.369  28.915   7.501
 2507AUSL   AUS 2494  20.439  29.059   7.084
 2508AUL    AUL 2495  20.155  28.833   7.197
 2509THSLK    S 2496  20.259  28.891   6.958
 2510ETHY    C1 2497  19.913  28.671   6.743
 2511ETHY    C1 2498  19.538  28.441   6.400
 2512THSLK    S 2499  20.096  28.843   7.501
 2513ETHY    C1 2500  19.672  28.660   7.497
 2514ETHY    C1 2501  19.208  28.350   7.498
 2515AUSL   AUS 2502  20.275  29.160   7.652
 2516AUSL   AUS 2503  20.532  28.813   7.765
 2517AUL    AUL 2504  20.155  28.833   7.804
 2518THSLK    S 2505  20.346  28.656   7.889
 2519ETHY    C1 2506  20.033  28.350   8.033
 2520ETHY    C1 2507  19.718  27.963   8.284
 2521THSLK    S 2508  20.008  29.083   7.625
 2522ETHY    C1 2509  19.556  28.987   7.639
 2523ETHY    C1 2510  19.031  28.834   7.746
 2524AUSL   AUS 2511  20.949  29.904   7.910
 2525AUSL   AUS 2512  20.532  29.834   7.765
 2526AUL    AUL 2513  20.645  30.118   7.991
 2527THSLK    S 2514  20.401  30.002   7.945
 2528ETHY    C1 2515  20.180  30.330   8.185
 2529ETHY    C1 2516  19.839  30.710   8.409
 2530THSLK    S 2517  20.983  30.145   8.033
 2531ETHY    C1 2518  21.041  30.517   8.301
 2532ETHY    C1 2519  21.025  30.996   8.586
 2533AUSL   AUS 2520  20.797  29.997   7.664
 2534AUSL   AUS 2521  21.100  29.997   7.337
 2535AUL    AUL 2522  20.949  30.305   7.501
 2536THSLK    S 2523  20.828  30.257   7.770
 2537ETHY    C1 2524  20.818  30.698   7.907
 2538ETHY    C1 2525  20.709  31.227   8.048
 2539THSLK    S 2526  21.145  30.246   7.235
 2540ETHY    C1 2527  21.283  30.664   7.097
 2541ETHY    C1 2528  21.355  31.199   6.955
 2542AUSL   AUS 2529  21.100  29.997   7.664
 2543AUSL   AUS 2530  21.214  29.740   8.011
 2544AUL    AUL 2531  21.252  30.118   7.991
 2545THSLK    S 2532  21.388  29.868   8.185
 2546ETHY    C1 2533  21.624  30.087   8.517
 2547ETHY    C1 2534  21.850  30.429   8.895
 2548THSLK    S 2535  21.145  30.245   7.767
 2549ETHY    C1 2536  21.284  30.666   7.898
 2550ETHY    C1 2537  21.357  31.200   8.041
 2551AUSL   AUS 2538  20.949  28.744   7.910
 2552AUSL   AUS 2539  21.365  28.813   7.765
 2553AUL    AUL 2540  21.252  28.529   7.991
 2554THSLK    S 2541  20.915  28.480   7.997
 2555ETHY    C1 2542  20.860  28.071   8.205
 2556ETHY    C1 2543  20.875  27.603   8.507
 2557THSLK    S 2544  21.497  28.622   7.910
 2558ETHY    C1 2545  21.720  28.260   8.089
 2559ETHY    C1 2546  22.061  27.890   8.330
 2560AUSL   AUS 2547  20.797  28.650   7.664
 2561AUSL   AUS 2548  20.684  28.907   8.011
 2562AUL    AUL 2549  20.645  28.529   7.991
 2563THSLK    S 2550  20.752  28.397   7.746
 2564ETHY    C1 2551  20.615  27.966   7.843
 2565ETHY    C1 2552  20.542  27.434   7.996
 2566THSLK    S 2553  20.509  28.733   8.146
 2567ETHY    C1 2554  20.278  28.435   8.413
 2568ETHY    C1 2555  20.051  28.115   8.810
 2569AUSL   AUS 2556  21.100  28.650   7.664
 2570AUSL   AUS 2557  20.797  28.650   7.337
 2571AUL    AUL 2558  20.949  28.342   7.501
 2572THSLK    S 2559  20.752  28.397   7.255
 2573ETHY    C1 2560  20.613  27.968   7.152
 2574ETHY    C1 2561  20.541  27.436   7.001
 2575THSLK    S 2562  21.069  28.385   7.750
 2576ETHY    C1 2563  21.082  27.934   7.852
 2577ETHY    C1 2564  21.190  27.408   8.003
 2578AUSL   AUS 2565  20.949  29.904   7.092
 2579AUSL   AUS 2566  21.365  29.834   7.236
 2580AUL    AUL 2567  21.252  30.118   7.010
 2581THSLK    S 2568  20.983  30.145   6.969
 2582ETHY    C1 2569  21.038  30.514   6.696
 2583ETHY    C1 2570  21.022  30.993   6.412
 2584THSLK    S 2571  21.552  29.969   7.077
 2585ETHY    C1 2572  21.865  30.236   6.868
 2586ETHY    C1 2573  22.180  30.633   6.634
 2587AUSL   AUS 2574  20.797  29.997   7.337
 2588AUSL   AUS 2575  20.684  29.740   6.990
 2589AUL    AUL 2576  20.645  30.118   7.010
 2590THSLK    S 2577  20.828  30.258   7.232
 2591ETHY    C1 2578  20.816  30.696   7.088
 2592ETHY    C1 2579  20.708  31.225   6.948
 2593THSLK    S 2580  20.557  29.883   6.799
 2594ETHY    C1 2581  20.399  30.123   6.437
 2595ETHY    C1 2582  20.151  30.458   6.067
 2596AUSL   AUS 2583  20.949  28.744   7.092
 2597AUSL   AUS 2584  20.532  28.813   7.236
 2598AUL    AUL 2585  20.645  28.529   7.010
 2599THSLK    S 2586  20.346  28.656   7.113
 2600ETHY    C1 2587  20.030  28.354   6.964
 2601ETHY    C1 2588  19.716  27.967   6.714
 2602THSLK    S 2589  20.915  28.480   7.004
 2603ETHY    C1 2590  20.856  28.075   6.791
 2604ETHY    C1 2591  20.873  27.605   6.490
 2605AUSL   AUS 2592  21.100  28.650   7.337
 2606AUSL   AUS 2593  21.214  28.907   6.990
 2607AUL    AUL 2594  21.252  28.529   7.010
 2608THSLK    S 2595  21.070  28.384   7.252
 2609ETHY    C1 2596  21.080  27.936   7.143
 2610ETHY    C1 2597  21.188  27.409   6.993
 2611THSLK    S 2598  21.342  28.718   6.839
 2612ETHY    C1 2599  21.494  28.400   6.541
 2613ETHY    C1 2600  21.743  28.086   6.152
 2614AUC    AUC 2601  15.439  36.051   7.501
 2615AUC    AUC 2602  15.684  36.051   7.349
 2616AUC    AUC 2603  15.684  36.051   7.652
 2617AUC    AUC 2604  15.193  36.051   7.349
 2618AUC    AUC 2605  15.193  36.051   7.652
 2619AUC    AUC 2606  15.287  36.296   7.501
 2620AUC    AUC 2607  15.590  36.296   7.501
 2621AUC    AUC 2608  15.287  35.805   7.501
 2622AUC    AUC 2609  15.590  35.805   7.501
 2623AUC    AUC 2610  15.439  35.899   7.746
 2624AUC    AUC 2611  15.439  36.202   7.746
 2625AUC    AUC 2612  15.439  35.899   7.255
 2626AUC    AUC 2613  15.439  36.202   7.255
 2627AUC    AUC 2614  15.930  36.051   7.197
 2628AUC    AUC 2615  15.930  36.051   7.501
 2629AUC    AUC 2616  15.930  36.051   7.804
 2630AUC    AUC 2617  14.948  36.051   7.197
 2631AUC    AUC 2618  14.948  36.051   7.501
 2632AUC    AUC 2619  14.948  36.051   7.804
 2633AUC    AUC 2620  15.135  36.541   7.501
 2634AUC    AUC 2621  15.439  36.541   7.501
 2635AUC    AUC 2622  15.742  36.541   7.501
 2636AUC    AUC 2623  15.135  35.560   7.501
 2637AUC    AUC 2624  15.439  35.560   7.501
 2638AUC    AUC 2625  15.742  35.560   7.501
 2639AUC    AUC 2626  15.439  35.747   7.991
 2640AUC    AUC 2627  15.439  36.051   7.991
 2641AUC    AUC 2628  15.439  36.354   7.991
 2642AUC    AUC 2629  15.439  35.747   7.010
 2643AUC    AUC 2630  15.439  36.051   7.010
 2644AUC    AUC 2631  15.439  36.354   7.010
 2645AUC    AUC 2632  15.684  35.899   7.898
 2646AUC    AUC 2633  15.684  36.202   7.898
 2647AUC    AUC 2634  15.684  35.899   7.103
 2648AUC    AUC 2635  15.684  36.202   7.103
 2649AUC    AUC 2636  15.193  35.899   7.898
 2650AUC    AUC 2637  15.193  36.202   7.898
 2651AUC    AUC 2638  15.193  35.899   7.103
 2652AUC    AUC 2639  15.193  36.202   7.103
 2653AUC    AUC 2640  15.836  36.296   7.349
 2654AUC    AUC 2641  15.836  36.296   7.652
 2655AUC    AUC 2642  15.042  36.296   7.349
 2656AUC    AUC 2643  15.042  36.296   7.652
 2657AUC    AUC 2644  15.836  35.805   7.349
 2658AUC    AUC 2645  15.836  35.805   7.652
 2659AUC    AUC 2646  15.042  35.805   7.349
 2660AUC    AUC 2647  15.042  35.805   7.652
 2661AUC    AUC 2648  15.287  36.448   7.746
 2662AUC    AUC 2649  15.590  36.448   7.746
 2663AUC    AUC 2650  15.287  35.654   7.746
 2664AUC    AUC 2651  15.590  35.654   7.746
 2665AUC    AUC 2652  15.287  36.448   7.255
 2666AUC    AUC 2653  15.590  36.448   7.255
 2667AUC    AUC 2654  15.287  35.654   7.255
 2668AUC    AUC 2655  15.590  35.654   7.255
 2669AUSL   AUS 2656  15.848  36.051   8.081
 2670AUSL   AUS 2657  15.704  35.634   8.011
 2671AUL    AUL 2658  15.930  35.747   8.295
 2672THSLK    S 2659  15.831  35.446   8.163
 2673ETHY    C1 2660  15.989  35.125   8.456
 2674ETHY    C1 2661  16.237  34.812   8.845
 2675THSLK    S 2662  15.953  36.011   8.333
 2676ETHY    C1 2663  16.196  35.944   8.720
 2677ETHY    C1 2664  16.489  35.963   9.194
 2678AUSL   AUS 2665  15.602  35.899   8.174
 2679AUSL   AUS 2666  15.275  36.202   8.174
 2680AUL    AUL 2667  15.439  36.051   8.482
 2681THSLK    S 2668  15.689  35.853   8.426
 2682ETHY    C1 2669  15.802  35.712   8.852
 2683ETHY    C1 2670  15.951  35.641   9.385
 2684THSLK    S 2671  15.187  36.171   8.439
 2685ETHY    C1 2672  15.082  36.182   8.889
 2686ETHY    C1 2673  14.932  36.290   9.415
 2687AUSL   AUS 2674  15.602  36.202   8.174
 2688AUSL   AUS 2675  15.949  36.315   7.917
 2689AUL    AUL 2676  15.930  36.354   8.295
 2690THSLK    S 2677  15.690  36.248   8.426
 2691ETHY    C1 2678  15.796  36.388   8.854
 2692ETHY    C1 2679  15.946  36.460   9.386
 2693THSLK    S 2680  16.129  36.431   8.082
 2694ETHY    C1 2681  16.474  36.566   8.358
 2695ETHY    C1 2682  16.849  36.820   8.683
 2696AUSL   AUS 2683  15.848  36.051   6.921
 2697AUSL   AUS 2684  15.704  36.467   6.990
 2698AUL    AUL 2685  15.930  36.354   6.706
 2699THSLK    S 2686  15.954  36.011   6.668
 2700ETHY    C1 2687  16.191  35.944   6.278
 2701ETHY    C1 2688  16.484  35.963   5.804
 2702THSLK    S 2689  15.879  36.595   6.816
 2703ETHY    C1 2690  16.110  36.813   6.480
 2704ETHY    C1 2691  16.336  37.155   6.102
 2705AUSL   AUS 2692  15.602  35.899   6.827
 2706AUSL   AUS 2693  15.949  35.786   7.084
 2707AUL    AUL 2694  15.930  35.747   6.706
 2708THSLK    S 2695  16.095  35.599   6.932
 2709ETHY    C1 2696  16.379  35.345   6.670
 2710ETHY    C1 2697  16.771  35.125   6.340
 2711THSLK    S 2698  15.690  35.853   6.575
 2712ETHY    C1 2699  15.796  35.713   6.147
 2713ETHY    C1 2700  15.946  35.641   5.615
 2714AUSL   AUS 2701  15.602  36.202   6.827
 2715AUSL   AUS 2702  15.275  35.899   6.827
 2716AUL    AUL 2703  15.439  36.051   6.519
 2717THSLK    S 2704  15.175  35.853   6.579
 2718ETHY    C1 2705  15.041  35.715   6.158
 2719ETHY    C1 2706  14.898  35.643   5.624
 2720THSLK    S 2707  15.703  36.170   6.566
 2721ETHY    C1 2708  15.830  36.179   6.121
 2722ETHY    C1 2709  15.974  36.288   5.594
 2723AUSL   AUS 2710  15.030  36.051   8.081
 2724AUSL   AUS 2711  15.174  36.467   8.011
 2725AUL    AUL 2712  14.948  36.354   8.295
 2726THSLK    S 2713  14.924  36.011   8.333
 2727ETHY    C1 2714  14.687  35.944   8.723
 2728ETHY    C1 2715  14.393  35.963   9.197
 2729THSLK    S 2716  15.046  36.609   8.202
 2730ETHY    C1 2717  14.893  36.854   8.563
 2731ETHY    C1 2718  14.645  37.189   8.933
 2732AUSL   AUS 2719  15.275  35.899   8.174
 2733AUSL   AUS 2720  14.929  35.786   7.917
 2734AUL    AUL 2721  14.948  35.747   8.295
 2735THSLK    S 2722  14.748  35.618   8.043
 2736ETHY    C1 2723  14.407  35.392   8.259
 2737ETHY    C1 2724  14.031  35.164   8.602
 2738THSLK    S 2725  15.175  35.853   8.422
 2739ETHY    C1 2726  15.047  35.714   8.844
 2740ETHY    C1 2727  14.903  35.642   9.378
 2741AUSL   AUS 2728  15.030  36.051   6.921
 2742AUSL   AUS 2729  15.174  35.634   6.990
 2743AUL    AUL 2730  14.948  35.747   6.706
 2744THSLK    S 2731  14.925  36.011   6.668
 2745ETHY    C1 2732  14.681  35.944   6.281
 2746ETHY    C1 2733  14.389  35.963   5.807
 2747THSLK    S 2734  15.000  35.460   6.855
 2748ETHY    C1 2735  14.763  35.167   6.587
 2749ETHY    C1 2736  14.538  34.846   6.190
 2750AUSL   AUS 2737  15.275  36.202   6.827
 2751AUSL   AUS 2738  14.929  36.315   7.084
 2752AUL    AUL 2739  14.948  36.354   6.706
 2753THSLK    S 2740  14.783  36.450   6.894
 2754ETHY    C1 2741  14.494  36.614   6.572
 2755ETHY    C1 2742  14.103  36.859   6.259
 2756THSLK    S 2743  15.188  36.171   6.562
 2757ETHY    C1 2744  15.075  36.181   6.114
 2758ETHY    C1 2745  14.927  36.289   5.587
 2759AUSL   AUS 2746  16.019  36.460   7.501
 2760AUSL   AUS 2747  15.949  36.315   7.084
 2761AUL    AUL 2748  16.233  36.541   7.197
 2762THSLK    S 2749  16.129  36.432   6.920
 2763ETHY    C1 2750  16.470  36.565   6.638
 2764ETHY    C1 2751  16.846  36.819   6.314
 2765THSLK    S 2752  16.292  36.531   7.501
 2766ETHY    C1 2753  16.716  36.715   7.497
 2767ETHY    C1 2754  17.180  37.024   7.498
 2768AUSL   AUS 2755  16.113  36.214   7.349
 2769AUSL   AUS 2756  16.113  35.887   7.652
 2770AUL    AUL 2757  16.420  36.051   7.501
 2771THSLK    S 2758  16.380  36.269   7.341
 2772ETHY    C1 2759  16.832  36.325   7.262
 2773ETHY    C1 2760  17.357  36.490   7.172
 2774THSLK    S 2761  16.359  35.755   7.659
 2775ETHY    C1 2762  16.776  35.570   7.728
 2776ETHY    C1 2763  17.312  35.442   7.820
 2777AUSL   AUS 2764  16.113  36.214   7.652
 2778AUSL   AUS 2765  15.855  36.561   7.765
 2779AUL    AUL 2766  16.233  36.541   7.804
 2780THSLK    S 2767  16.041  36.696   7.925
 2781ETHY    C1 2768  16.357  36.964   8.128
 2782ETHY    C1 2769  16.672  37.361   8.362
 2783THSLK    S 2770  16.380  36.269   7.661
 2784ETHY    C1 2771  16.832  36.325   7.733
 2785ETHY    C1 2772  17.358  36.490   7.824
 2786AUSL   AUS 2773  14.859  36.460   7.501
 2787AUSL   AUS 2774  14.929  36.315   7.917
 2788AUL    AUL 2775  14.645  36.541   7.804
 2789THSLK    S 2776  14.782  36.450   8.107
 2790ETHY    C1 2777  14.498  36.619   8.430
 2791ETHY    C1 2778  14.106  36.864   8.743
 2792THSLK    S 2779  14.628  36.598   7.501
 2793ETHY    C1 2780  14.274  36.896   7.497
 2794ETHY    C1 2781  13.790  37.173   7.498
 2795AUSL   AUS 2782  14.765  36.214   7.349
 2796AUSL   AUS 2783  15.022  36.561   7.236
 2797AUL    AUL 2784  14.645  36.541   7.197
 2798THSLK    S 2785  14.519  36.324   7.307
 2799ETHY    C1 2786  14.101  36.469   7.173
 2800ETHY    C1 2787  13.566  36.609   7.099
 2801THSLK    S 2788  14.891  36.730   7.056
 2802ETHY    C1 2789  14.667  37.052   6.812
 2803ETHY    C1 2790  14.327  37.434   6.589
 2804AUSL   AUS 2791  14.765  36.214   7.652
 2805AUSL   AUS 2792  14.765  35.887   7.349
 2806AUL    AUL 2793  14.457  36.051   7.501
 2807THSLK    S 2794  14.498  35.809   7.377
 2808ETHY    C1 2795  14.045  35.720   7.359
 2809ETHY    C1 2796  13.520  35.565   7.252
 2810THSLK    S 2797  14.519  36.324   7.694
 2811ETHY    C1 2798  14.102  36.475   7.825
 2812ETHY    C1 2799  13.567  36.613   7.900
 2813AUSL   AUS 2800  16.019  35.642   7.501
 2814AUSL   AUS 2801  15.949  35.786   7.917
 2815AUL    AUL 2802  16.233  35.560   7.804
 2816THSLK    S 2803  16.250  35.503   7.501
 2817ETHY    C1 2804  16.604  35.205   7.497
 2818ETHY    C1 2805  17.088  34.928   7.498
 2819THSLK    S 2806  16.095  35.599   8.070
 2820ETHY    C1 2807  16.383  35.344   8.326
 2821ETHY    C1 2808  16.775  35.124   8.657
 2822AUSL   AUS 2809  16.113  35.887   7.349
 2823AUSL   AUS 2810  15.855  35.540   7.236
 2824AUL    AUL 2811  16.233  35.560   7.197
 2825THSLK    S 2812  16.359  35.755   7.343
 2826ETHY    C1 2813  16.775  35.570   7.266
 2827ETHY    C1 2814  17.311  35.442   7.176
 2828THSLK    S 2815  15.987  35.349   7.092
 2829ETHY    C1 2816  16.208  34.988   6.907
 2830ETHY    C1 2817  16.549  34.618   6.667
 2831AUSL   AUS 2818  14.859  35.642   7.501
 2832AUSL   AUS 2819  14.929  35.786   7.084
 2833AUL    AUL 2820  14.645  35.560   7.197
 2834THSLK    S 2821  14.749  35.618   6.958
 2835ETHY    C1 2822  14.403  35.398   6.743
 2836ETHY    C1 2823  14.028  35.168   6.400
 2837THSLK    S 2824  14.586  35.570   7.501
 2838ETHY    C1 2825  14.162  35.387   7.497
 2839ETHY    C1 2826  13.698  35.077   7.498
 2840AUSL   AUS 2827  14.765  35.887   7.652
 2841AUSL   AUS 2828  15.022  35.540   7.765
 2842AUL    AUL 2829  14.645  35.560   7.804
 2843THSLK    S 2830  14.836  35.383   7.889
 2844ETHY    C1 2831  14.523  35.077   8.033
 2845ETHY    C1 2832  14.208  34.690   8.284
 2846THSLK    S 2833  14.498  35.810   7.625
 2847ETHY    C1 2834  14.046  35.714   7.639
 2848ETHY    C1 2835  13.521  35.561   7.746
 2849AUSL   AUS 2836  15.439  36.631   7.910
 2850AUSL   AUS 2837  15.022  36.561   7.765
 2851AUL    AUL 2838  15.135  36.845   7.991
 2852THSLK    S 2839  14.891  36.729   7.945
 2853ETHY    C1 2840  14.670  37.057   8.185
 2854ETHY    C1 2841  14.329  37.437   8.409
 2855THSLK    S 2842  15.473  36.872   8.033
 2856ETHY    C1 2843  15.531  37.244   8.301
 2857ETHY    C1 2844  15.515  37.723   8.586
 2858AUSL   AUS 2845  15.287  36.724   7.664
 2859AUSL   AUS 2846  15.590  36.724   7.337
 2860AUL    AUL 2847  15.439  37.032   7.501
 2861THSLK    S 2848  15.318  36.984   7.770
 2862ETHY    C1 2849  15.308  37.425   7.907
 2863ETHY    C1 2850  15.199  37.954   8.048
 2864THSLK    S 2851  15.635  36.973   7.235
 2865ETHY    C1 2852  15.773  37.391   7.097
 2866ETHY    C1 2853  15.845  37.926   6.955
 2867AUSL   AUS 2854  15.590  36.724   7.664
 2868AUSL   AUS 2855  15.704  36.467   8.011
 2869AUL    AUL 2856  15.742  36.845   7.991
 2870THSLK    S 2857  15.878  36.595   8.185
 2871ETHY    C1 2858  16.114  36.814   8.517
 2872ETHY    C1 2859  16.340  37.156   8.895
 2873THSLK    S 2860  15.635  36.972   7.767
 2874ETHY    C1 2861  15.774  37.393   7.898
 2875ETHY    C1 2862  15.847  37.927   8.041
 2876AUSL   AUS 2863  15.439  35.471   7.910
 2877AUSL   AUS 2864  15.855  35.540   7.765
 2878AUL    AUL 2865  15.742  35.256   7.991
 2879THSLK    S 2866  15.405  35.207   7.997
 2880ETHY    C1 2867  15.350  34.798   8.205
 2881ETHY    C1 2868  15.365  34.330   8.507
 2882THSLK    S 2869  15.987  35.349   7.910
 2883ETHY    C1 2870  16.210  34.987   8.089
 2884ETHY    C1 2871  16.551  34.617   8.330
 2885AUSL   AUS 2872  15.287  35.377   7.664
 2886AUSL   AUS 2873  15.174  35.634   8.011
 2887AUL    AUL 2874  15.135  35.256   7.991
 2888THSLK    S 2875  15.242  35.124   7.746
 2889ETHY    C1 2876  15.105  34.693   7.843
 2890ETHY    C1 2877  15.032  34.161   7.996
 2891THSLK    S 2878  14.999  35.460   8.146
 2892ETHY    C1 2879  14.768  35.162   8.413
 2893ETHY    C1 2880  14.541  34.842   8.810
 2894AUSL   AUS 2881  15.590  35.377   7.664
 2895AUSL   AUS 2882  15.287  35.377   7.337
 2896AUL    AUL 2883  15.439  35.069   7.501
 2897THSLK    S 2884  15.242  35.124   7.255
 2898ETHY    C1 2885  15.103  34.695   7.152
 2899ETHY    C1 2886  15.031  34.163   7.001
 2900THSLK    S 2887  15.559  35.112   7.750
 2901ETHY    C1 2888  15.572  34.661   7.852
 2902ETHY    C1 2889  15.680  34.135   8.003
 2903AUSL   AUS 2890  15.439  36.631   7.092
 2904AUSL   AUS 2891  15.855  36.561   7.236
 2905AUL    AUL 2892  15.742  36.845   7.010
 2906THSLK    S 2893  15.473  36.872   6.969
 2907ETHY    C1 2894  15.528  37.241   6.696
 2908ETHY    C1 2895  15.512  37.720   6.412
 2909THSLK    S 2896  16.042  36.696   7.077
 2910ETHY    C1 2897  16.355  36.963   6.868
 2911ETHY    C1 2898  16.670  37.360   6.634
 2912AUSL   AUS 2899  15.287  36.724   7.337
 2913AUSL   AUS 2900  15.174  36.467   6.990
 2914AUL    AUL 2901  15.135  36.845   7.010
 2915THSLK    S 2902  15.318  36.985   7.232
 2916ETHY    C1 2903  15.306  37.423   7.088
 2917ETHY    C1 2904  15.198  37.952   6.948
 2918THSLK    S 2905  15.047  36.610   6.799
 2919ETHY    C1 2906  14.889  36.850   6.437
 2920ETHY    C1 2907  14.641  37.185   6.067
 2921AUSL   AUS 2908  15.439  35.471   7.092
 2922AUSL   AUS 2909  15.022  35.540   7.236
 2923AUL    AUL 2910  15.135  35.256   7.010
 2924THSLK    S 2911  14.836  35.383   7.113
 2925ETHY    C1 2912  14.520  35.081   6.964
 2926ETHY    C1 2913  14.206  34.694   6.714
 2927THSLK    S 2914  15.405  35.207   7.004
 2928ETHY    C1 2915  15.346  34.802   6.791
 2929ETHY    C1 2916  15.363  34.332   6.490
 2930AUSL   AUS 2917  15.590  35.377   7.337
 2931AUSL   AUS 2918  15.704  35.634   6.990
 2932AUL    AUL 2919  15.742  35.256   7.010
 2933THSLK    S 2920  15.560  35.111   7.252
 2934ETHY    C1 2921  15.570  34.663   7.143
 2935ETHY    C1 2922  15.678  34.136   6.993
 2936THSLK    S 2923  15.832  35.445   6.839
 2937ETHY    C1 2924  15.984  35.127   6.541
 2938ETHY    C1 2925  16.233  34.813   6.152
 2939AUC    AUC 2926  17.935  24.361   7.501
 2940AUC    AUC 2927  18.180  24.361   7.349
 2941AUC    AUC 2928  18.180  24.361   7.652
 2942AUC    AUC 2929  17.689  24.361   7.349
 2943AUC    AUC 2930  17.689  24.361   7.652
 2944AUC    AUC 2931  17.783  24.606   7.501
 2945AUC    AUC 2932  18.086  24.606   7.501
 2946AUC    AUC 2933  17.783  24.115   7.501
 2947AUC    AUC 2934  18.086  24.115   7.501
 2948AUC    AUC 2935  17.935  24.209   7.746
 2949AUC    AUC 2936  17.935  24.512   7.746
 2950AUC    AUC 2937  17.935  24.209   7.255
 2951AUC    AUC 2938  17.935  24.512   7.255
 2952AUC    AUC 2939  18.426  24.361   7.197
 2953AUC    AUC 2940  18.426  24.361   7.501
 2954AUC    AUC 2941  18.426  24.361   7.804
 2955AUC    AUC 2942  17.444  24.361   7.197
 2956AUC    AUC 2943  17.444  24.361   7.501
 2957AUC    AUC 2944  17.444  24.361   7.804
 2958AUC    AUC 2945  17.631  24.851   7.501
 2959AUC    AUC 2946  17.935  24.851   7.501
 2960AUC    AUC 2947  18.238  24.851   7.501
 2961AUC    AUC 2948  17.631  23.870   7.501
 2962AUC    AUC 2949  17.935  23.870   7.501
 2963AUC    AUC 2950  18.238  23.870   7.501
 2964AUC    AUC 2951  17.935  24.057   7.991
 2965AUC    AUC 2952  17.935  24.361   7.991
 2966AUC    AUC 2953  17.935  24.664   7.991
 2967AUC    AUC 2954  17.935  24.057   7.010
 2968AUC    AUC 2955  17.935  24.361   7.010
 2969AUC    AUC 2956  17.935  24.664   7.010
 2970AUC    AUC 2957  18.180  24.209   7.898
 2971AUC    AUC 2958  18.180  24.512   7.898
 2972AUC    AUC 2959  18.180  24.209   7.103
 2973AUC    AUC 2960  18.180  24.512   7.103
 2974AUC    AUC 2961  17.689  24.209   7.898
 2975AUC    AUC 2962  17.689  24.512   7.898
 2976AUC    AUC 2963  17.689  24.209   7.103
 2977AUC    AUC 2964  17.689  24.512   7.103
 2978AUC    AUC 2965  18.332  24.606   7.349
 2979AUC    AUC 2966  18.332  24.606   7.652
 2980AUC    AUC 2967  17.538  24.606   7.349
 2981AUC    AUC 2968  17.538  24.606   7.652
 2982AUC    AUC 2969  18.332  24.115   7.349
 2983AUC    AUC 2970  18.332  24.115   7.652
 2984AUC    AUC 2971  17.538  24.115   7.349
 2985AUC    AUC 2972  17.538  24.115   7.652
 2986AUC    AUC 2973  17.783  24.758   7.746
 2987AUC    AUC 2974  18.086  24.758   7.746
 2988AUC    AUC 2975  17.783  23.964   7.746
 2989AUC    AUC 2976  18.086  23.964   7.746
 2990AUC    AUC 2977  17.783  24.758   7.255
 2991AUC    AUC 2978  18.086  24.758   7.255
 2992AUC    AUC 2979  17.783  23.964   7.255
 2993AUC    AUC 2980  18.086  23.964   7.255
 2994AUSL   AUS 2981  18.344  24.361   8.081
 2995AUSL   AUS 2982  18.200  23.944   8.011
 2996AUL    AUL 2983  18.426  24.057   8.295
 2997THSLK    S 2984  18.327  23.756   8.163
 2998ETHY    C1 2985  18.485  23.435   8.456
 2999ETHY    C1 2986  18.733  23.122   8.845
 3000THSLK    S 2987  18.449  24.321   8.333
 3001ETHY    C1 2988  18.692  24.254   8.720
 3002ETHY    C1 2989  18.985  24.273   9.194
 3003AUSL   AUS 2990  18.098  24.209   8.174
 3004AUSL   AUS 2991  17.771  24.512   8.174
 3005AUL    AUL 2992  17.935  24.361   8.482
 3006THSLK    S 2993  18.185  24.163   8.426
 3007ETHY    C1 2994  18.298  24.022   8.852
 3008ETHY    C1 2995  18.447  23.951   9.385
 3009THSLK    S 2996  17.683  24.481   8.439
 3010ETHY    C1 2997  17.578  24.492   8.889
 3011ETHY    C1 2998  17.428  24.600   9.415
 3012AUSL   AUS 2999  18.098  24.512   8.174
 3013AUSL   AUS 3000  18.445  24.625   7.917
 3014AUL    AUL 3001  18.426  24.664   8.295
 3015THSLK    S 3002  18.186  24.558   8.426
 3016ETHY    C1 3003  18.292  24.698   8.854
 3017ETHY    C1 3004  18.442  24.770   9.386
 3018THSLK    S 3005  18.625  24.741   8.082
 3019ETHY    C1 3006  18.970  24.876   8.358
 3020ETHY    C1 3007  19.345  25.130   8.683
 3021AUSL   AUS 3008  18.344  24.361   6.921
 3022AUSL   AUS 3009  18.200  24.777   6.990
 3023AUL    AUL 3010  18.426  24.664   6.706
 3024THSLK    S 3011  18.450  24.321   6.668
 3025ETHY    C1 3012  18.687  24.254   6.278
 3026ETHY    C1 3013  18.980  24.273   5.804
 3027THSLK    S 3014  18.375  24.905   6.816
 3028ETHY    C1 3015  18.606  25.123   6.480
 3029ETHY    C1 3016  18.832  25.465   6.102
 3030AUSL   AUS 3017  18.098  24.209   6.827
 3031AUSL   AUS 3018  18.445  24.096   7.084
 3032AUL    AUL 3019  18.426  24.057   6.706
 3033THSLK    S 3020  18.591  23.909   6.932
 3034ETHY    C1 3021  18.875  23.655   6.670
 3035ETHY    C1 3022  19.267  23.435   6.340
 3036THSLK    S 3023  18.186  24.163   6.575
 3037ETHY    C1 3024  18.292  24.023   6.147
 3038ETHY    C1 3025  18.442  23.951   5.615
 3039AUSL   AUS 3026  18.098  24.512   6.827
 3040AUSL   AUS 3027  17.771  24.209   6.827
 3041AUL    AUL 3028  17.935  24.361   6.519
 3042THSLK    S 3029  17.671  24.163   6.579
 3043ETHY    C1 3030  17.537  24.025   6.158
 3044ETHY    C1 3031  17.394  23.953   5.624
 3045THSLK    S 3032  18.199  24.480   6.566
 3046ETHY    C1 3033  18.326  24.489   6.121
 3047ETHY    C1 3034  18.470  24.598   5.594
 3048AUSL   AUS 3035  17.526  24.361   8.081
 3049AUSL   AUS 3036  17.670  24.777   8.011
 3050AUL    AUL 3037  17.444  24.664   8.295
 3051THSLK    S 3038  17.420  24.321   8.333
 3052ETHY    C1 3039  17.183  24.254   8.723
 3053ETHY    C1 3040  16.889  24.273   9.197
 3054THSLK    S 3041  17.542  24.919   8.202
 3055ETHY    C1 3042  17.389  25.164   8.563
 3056ETHY    C1 3043  17.141  25.499   8.933
 3057AUSL   AUS 3044  17.771  24.209   8.174
 3058AUSL   AUS 3045  17.425  24.096   7.917
 3059AUL    AUL 3046  17.444  24.057   8.295
 3060THSLK    S 3047  17.244  23.928   8.043
 3061ETHY    C1 3048  16.903  23.702   8.259
 3062ETHY    C1 3049  16.527  23.474   8.602
 3063THSLK    S 3050  17.671  24.163   8.422
 3064ETHY    C1 3051  17.543  24.024   8.844
 3065ETHY    C1 3052  17.399  23.952   9.378
 3066AUSL   AUS 3053  17.526  24.361   6.921
 3067AUSL   AUS 3054  17.670  23.944   6.990
 3068AUL    AUL 3055  17.444  24.057   6.706
 3069THSLK    S 3056  17.421  24.321   6.668
 3070ETHY    C1 3057  17.177  24.254   6.281
 3071ETHY    C1 3058  16.885  24.273   5.807
 3072THSLK    S 3059  17.496  23.770   6.855
 3073ETHY    C1 3060  17.259  23.477   6.587
 3074ETHY    C1 3061  17.034  23.156   6.190
 3075AUSL   AUS 3062  17.771  24.512   6.827
 3076AUSL   AUS 3063  17.425  24.625   7.084
 3077AUL    AUL 3064  17.444  24.664   6.706
 3078THSLK    S 3065  17.279  24.760   6.894
 3079ETHY    C1 3066  16.990  24.924   6.572
 3080ETHY    C1 3067  16.599  25.169   6.259
 3081THSLK    S 3068  17.684  24.481   6.562
 3082ETHY    C1 3069  17.571  24.491   6.114
 3083ETHY    C1 3070  17.423  24.599   5.587
 3084AUSL   AUS 3071  18.515  24.770   7.501
 3085AUSL   AUS 3072  18.445  24.625   7.084
 3086AUL    AUL 3073  18.729  24.851   7.197
 3087THSLK    S 3074  18.625  24.742   6.920
 3088ETHY    C1 3075  18.966  24.875   6.638
 3089ETHY    C1 3076  19.342  25.129   6.314
 3090THSLK    S 3077  18.788  24.841   7.501
 3091ETHY    C1 3078  19.212  25.025   7.497
 3092ETHY    C1 3079  19.676  25.334   7.498
 3093AUSL   AUS 3080  18.609  24.524   7.349
 3094AUSL   AUS 3081  18.609  24.197   7.652
 3095AUL    AUL 3082  18.916  24.361   7.501
 3096THSLK    S 3083  18.876  24.579   7.341
 3097ETHY    C1 3084  19.328  24.635   7.262
 3098ETHY    C1 3085  19.853  24.800   7.172
 3099THSLK    S 3086  18.855  24.065   7.659
 3100ETHY    C1 3087  19.272  23.880   7.728
 3101ETHY    C1 3088  19.808  23.752   7.820
 3102AUSL   AUS 3089  18.609  24.524   7.652
 3103AUSL   AUS 3090  18.351  24.871   7.765
 3104AUL    AUL 3091  18.729  24.851   7.804
 3105THSLK    S 3092  18.537  25.006   7.925
 3106ETHY    C1 3093  18.853  25.274   8.128
 3107ETHY    C1 3094  19.168  25.671   8.362
 3108THSLK    S 3095  18.876  24.579   7.661
 3109ETHY    C1 3096  19.328  24.635   7.733
 3110ETHY    C1 3097  19.854  24.800   7.824
 3111AUSL   AUS 3098  17.355  24.770   7.501
 3112AUSL   AUS 3099  17.425  24.625   7.917
 3113AUL    AUL 3100  17.141  24.851   7.804
 3114THSLK    S 3101  17.278  24.760   8.107
 3115ETHY    C1 3102  16.994  24.929   8.430
 3116ETHY    C1 3103  16.602  25.174   8.743
 3117THSLK    S 3104  17.124  24.908   7.501
 3118ETHY    C1 3105  16.770  25.206   7.497
 3119ETHY    C1 3106  16.286  25.483   7.498
 3120AUSL   AUS 3107  17.261  24.524   7.349
 3121AUSL   AUS 3108  17.518  24.871   7.236
 3122AUL    AUL 3109  17.141  24.851   7.197
 3123THSLK    S 3110  17.015  24.634   7.307
 3124ETHY    C1 3111  16.597  24.779   7.173
 3125ETHY    C1 3112  16.062  24.919   7.099
 3126THSLK    S 3113  17.387  25.040   7.056
 3127ETHY    C1 3114  17.163  25.362   6.812
 3128ETHY    C1 3115  16.823  25.744   6.589
 3129AUSL   AUS 3116  17.261  24.524   7.652
 3130AUSL   AUS 3117  17.261  24.197   7.349
 3131AUL    AUL 3118  16.953  24.361   7.501
 3132THSLK    S 3119  16.994  24.119   7.377
 3133ETHY    C1 3120  16.541  24.030   7.359
 3134ETHY    C1 3121  16.016  23.875   7.252
 3135THSLK    S 3122  17.015  24.634   7.694
 3136ETHY    C1 3123  16.598  24.785   7.825
 3137ETHY    C1 3124  16.063  24.923   7.900
 3138AUSL   AUS 3125  18.515  23.952   7.501
 3139AUSL   AUS 3126  18.445  24.096   7.917
 3140AUL    AUL 3127  18.729  23.870   7.804
 3141THSLK    S 3128  18.746  23.813   7.501
 3142ETHY    C1 3129  19.100  23.515   7.497
 3143ETHY    C1 3130  19.584  23.238   7.498
 3144THSLK    S 3131  18.591  23.909   8.070
 3145ETHY    C1 3132  18.879  23.654   8.326
 3146ETHY    C1 3133  19.271  23.434   8.657
 3147AUSL   AUS 3134  18.609  24.197   7.349
 3148AUSL   AUS 3135  18.351  23.850   7.236
 3149AUL    AUL 3136  18.729  23.870   7.197
 3150THSLK    S 3137  18.855  24.065   7.343
 3151ETHY    C1 3138  19.271  23.880   7.266
 3152ETHY    C1 3139  19.807  23.752   7.176
 3153THSLK    S 3140  18.483  23.659   7.092
 3154ETHY    C1 3141  18.704  23.298   6.907
 3155ETHY    C1 3142  19.045  22.928   6.667
 3156AUSL   AUS 3143  17.355  23.952   7.501
 3157AUSL   AUS 3144  17.425  24.096   7.084
 3158AUL    AUL 3145  17.141  23.870   7.197
 3159THSLK    S 3146  17.245  23.928   6.958
 3160ETHY    C1 3147  16.899  23.708   6.743
 3161ETHY    C1 3148  16.524  23.478   6.400
 3162THSLK    S 3149  17.082  23.880   7.501
 3163ETHY    C1 3150  16.658  23.697   7.497
 3164ETHY    C1 3151  16.194  23.387   7.498
 3165AUSL   AUS 3152  17.261  24.197   7.652
 3166AUSL   AUS 3153  17.518  23.850   7.765
 3167AUL    AUL 3154  17.141  23.870   7.804
 3168THSLK    S 3155  17.332  23.693   7.889
 3169ETHY    C1 3156  17.019  23.387   8.033
 3170ETHY    C1 3157  16.704  23.000   8.284
 3171THSLK    S 3158  16.994  24.120   7.625
 3172ETHY    C1 3159  16.542  24.024   7.639
 3173ETHY    C1 3160  16.017  23.871   7.746
 3174AUSL   AUS 3161  17.935  24.941   7.910
 3175AUSL   AUS 3162  17.518  24.871   7.765
 3176AUL    AUL 3163  17.631  25.155   7.991
 3177THSLK    S 3164  17.387  25.039   7.945
 3178ETHY    C1 3165  17.166  25.367   8.185
 3179ETHY    C1 3166  16.825  25.747   8.409
 3180THSLK    S 3167  17.969  25.182   8.033
 3181ETHY    C1 3168  18.027  25.554   8.301
 3182ETHY    C1 3169  18.011  26.033   8.586
 3183AUSL   AUS 3170  17.783  25.034   7.664
 3184AUSL   AUS 3171  18.086  25.034   7.337
 3185AUL    AUL 3172  17.935  25.342   7.501
 3186THSLK    S 3173  17.814  25.294   7.770
 3187ETHY    C1 3174  17.804  25.735   7.907
 3188ETHY    C1 3175  17.695  26.264   8.048
 3189THSLK    S 3176  18.131  25.283   7.235
 3190ETHY    C1 3177  18.269  25.701   7.097
 3191ETHY    C1 3178  18.341  26.236   6.955
 3192AUSL   AUS 3179  18.086  25.034   7.664
 3193AUSL   AUS 3180  18.200  24.777   8.011
 3194AUL    AUL 3181  18.238  25.155   7.991
 3195THSLK    S 3182  18.374  24.905   8.185
 3196ETHY    C1 3183  18.610  25.124   8.517
 3197ETHY    C1 3184  18.836  25.466   8.895
 3198THSLK    S 3185  18.131  25.282   7.767
 3199ETHY    C1 3186  18.270  25.703   7.898
 3200ETHY    C1 3187  18.343  26.237   8.041
 3201AUSL   AUS 3188  17.935  23.781   7.910
 3202AUSL   AUS 3189  18.351  23.850   7.765
 3203AUL    AUL 3190  18.238  23.566   7.991
 3204THSLK    S 3191  17.901  23.517   7.997
 3205ETHY    C1 3192  17.846  23.108   8.205
 3206ETHY    C1 3193  17.861  22.640   8.507
 3207THSLK    S 3194  18.483  23.659   7.910
 3208ETHY    C1 3195  18.706  23.297   8.089
 3209ETHY    C1 3196  19.047  22.927   8.330
 3210AUSL   AUS 3197  17.783  23.687   7.664
 3211AUSL   AUS 3198  17.670  23.944   8.011
 3212AUL    AUL 3199  17.631  23.566   7.991
 3213THSLK    S 3200  17.738  23.434   7.746
 3214ETHY    C1 3201  17.601  23.003   7.843
 3215ETHY    C1 3202  17.528  22.471   7.996
 3216THSLK    S 3203  17.495  23.770   8.146
 3217ETHY    C1 3204  17.264  23.472   8.413
 3218ETHY    C1 3205  17.037  23.152   8.810
 3219AUSL   AUS 3206  18.086  23.687   7.664
 3220AUSL   AUS 3207  17.783  23.687   7.337
 3221AUL    AUL 3208  17.935  23.379   7.501
 3222THSLK    S 3209  17.738  23.434   7.255
 3223ETHY    C1 3210  17.599  23.005   7.152
 3224ETHY    C1 3211  17.527  22.473   7.001
 3225THSLK    S 3212  18.055  23.422   7.750
 3226ETHY    C1 3213  18.068  22.971   7.852
 3227ETHY    C1 3214  18.176  22.445   8.003
 3228AUSL   AUS 3215  17.935  24.941   7.092
 3229AUSL   AUS 3216  18.351  24.871   7.236
 3230AUL    AUL 3217  18.238  25.155   7.010
 3231THSLK    S 3218  17.969  25.182   6.969
 3232ETHY    C1 3219  18.024  25.551   6.696
 3233ETHY    C1 3220  18.008  26.030   6.412
 3234THSLK    S 3221  18.538  25.006   7.077
 3235ETHY    C1 3222  18.851  25.273   6.868
 3236ETHY    C1 3223  19.166  25.670   6.634
 3237AUSL   AUS 3224  17.783  25.034   7.337
 3238AUSL   AUS 3225  17.670  24.777   6.990
 3239AUL    AUL 3226  17.631  25.155   7.010
 3240THSLK    S 3227  17.814  25.295   7.232
 3241ETHY    C1 3228  17.802  25.733   7.088
 3242ETHY    C1 3229  17.694  26.262   6.948
 3243THSLK    S 3230  17.543  24.920   6.799
 3244ETHY    C1 3231  17.385  25.160   6.437
 3245ETHY    C1 3232  17.137  25.495   6.067
 3246AUSL   AUS 3233  17.935  23.781   7.092
 3247AUSL   AUS 3234  17.518  23.850   7.236
 3248AUL    AUL 3235  17.631  23.566   7.010
 3249THSLK    S 3236  17.332  23.693   7.113
 3250ETHY    C1 3237  17.016  23.391   6.964
 3251ETHY    C1 3238  16.702  23.004   6.714
 3252THSLK    S 3239  17.901  23.517   7.004
 3253ETHY    C1 3240  17.842  23.112   6.791
 3254ETHY    C1 3241  17.859  22.642   6.490
 3255AUSL   AUS 3242  18.086  23.687   7.337
 3256AUSL   AUS 3243  18.200  23.944   6.990
 3257AUL    AUL 3244  18.238  23.566   7.010
 3258THSLK    S 3245  18.056  23.421   7.252
 3259ETHY    C1 3246  18.066  22.973   7.143
 3260ETHY    C1 3247  18.174  22.446   6.993
 3261THSLK    S 3248  18.328  23.755   6.839
 3262ETHY    C1 3249  18.480  23.437   6.541
 3263ETHY    C1 3250  18.729  23.123   6.152
 3264POPC   NC3 3251  11.275  16.756   9.450
 3264POPC   PO4 3252  11.338  16.745   9.150
 3264POPC   GL1 3253  11.290  16.765   8.850
 3264POPC   GL2 3254  11.156  16.769   8.850
 3264POPC   C1A 3255  11.285  16.736   8.550
 3264POPC   D2A 3256  11.277  16.773   8.250
 3264POPC   C3A 3257  11.321  16.713   7.950
 3264POPC   C4A 3258  11.329  16.762   7.650
 3264POPC   C1B 3259  11.104  16.876   8.550
 3264POPC   C2B 3260  11.077  16.833   8.250
 3264POPC   C3B 3261  11.131  16.849   7.950
 3264POPC   C4B 3262  11.105  16.840   7.650
 3265POPC   NC3 3263  13.579  27.553   9.450
 3265POPC   PO4 3264  13.647  27.575   9.150
 3265POPC   GL1 3265  13.604  27.565   8.850
 3265POPC   GL2 3266  13.596  27.680   8.850
 3265POPC   C1A 3267  13.631  27.575   8.550
 3265POPC   D2A 3268  13.600  27.565   8.250
 3265POPC   C3A 3269  13.595  27.570   7.950
 3265POPC   C4A 3270  13.650  27.573   7.650
 3265POPC   C1B 3271  13.649  27.883   8.550
 3265POPC   C2B 3272  13.627  27.794   8.250
 3265POPC   C3B 3273  13.660  27.837   7.950
 3265POPC   C4B 3274  13.670  27.823   7.650
 3266POPC   NC3 3275  43.886  39.261   9.450
 3266POPC   PO4 3276  43.882  39.276   9.150
 3266POPC   GL1 3277  43.869  39.278   8.850
 3266POPC   GL2 3278  44.025  39.152   8.850
 3266POPC   C1A 3279  43.858  39.221   8.550
 3266POPC   D2A 3280  43.857  39.273   8.250
 3266POPC   C3A 3281  43.934  39.254   7.950
 3266POPC   C4A 3282  43.932  39.244   7.650
 3266POPC   C1B 3283  44.066  39.061   8.550
 3266POPC   C2B 3284  44.032  39.020   8.250
 3266POPC   C3B 3285  44.056  39.029   7.950
 3266POPC   C4B 3286  44.051  39.012   7.650
 3267POPC   NC3 3287  38.467  32.239   9.450
 3267POPC   PO4 3288  38.494  32.256   9.150
 3267POPC   GL1 3289  38.460  32.261   8.850
 3267POPC   GL2 3290  38.390  32.323   8.850
 3267POPC   C1A 3291  38.496  32.209   8.550
 3267POPC   D2A 3292  38.480  32.210   8.250
 3267POPC   C3A 3293  38.470  32.250   7.950
 3267POPC   C4A 3294  38.496  32.243   7.650
 3267POPC   C1B 3295  38.289  32.459   8.550
 3267POPC   C2B 3296  38.318  32.453   8.250
 3267POPC   C3B 3297  38.276  32.485   7.950
 3267POPC   C4B 3298  38.275  32.496   7.650
 3268POPC   NC3 3299   7.397  35.332   9.450
 3268POPC   PO4 3300   7.389  35.349   9.150
 3268POPC   GL1 3301   7.425  35.321   8.850
 3268POPC   GL2 3302   7.372  35.205   8.850
 3268POPC   C1A 3303   7.419  35.356   8.550
 3268POPC   D2A 3304   7.414  35.386   8.250
 3268POPC   C3A 3305   7.371  35.347   7.950
 3268POPC   C4A 3306   7.406  35.338   7.650
 3268POPC   C1B 3307   7.418  35.115   8.550
 3268POPC   C2B 3308   7.363  35.130   8.250
 3268POPC   C3B 3309   7.443  35.106   7.950
 3268POPC   C4B 3310   7.442  35.057   7.650
 3269POPC   NC3 3311  32.983   3.501   9.450
 3269POPC   PO4 3312  33.013   3.505   9.150
 3269POPC   GL1 3313  33.062   3.590   8.850
 3269POPC   GL2 3314  32.908   3.612   8.850
 3269POPC   C1A 3315  33.015   3.573   8.550
 3269POPC   D2A 3316  32.983   3.533   8.250
 3269POPC   C3A 3317  33.053   3.545   7.950
 3269POPC   C4A 3318  33.013   3.525   7.650
 3269POPC   C1B 3319  32.842   3.722   8.550
 3269POPC   C2B 3320  32.849   3.641   8.250
 3269POPC   C3B 3321  32.797   3.730   7.950
 3269POPC   C4B 3322  32.826   3.637   7.650
 3270POPC   NC3 3323  43.853  35.350   9.450
 3270POPC   PO4 3324  43.867  35.319   9.150
 3270POPC   GL1 3325  43.853  35.360   8.850
 3270POPC   GL2 3326  43.747  35.249   8.850
 3270POPC   C1A 3327  43.927  35.320   8.550
 3270POPC   D2A 3328  43.886  35.357   8.250
 3270POPC   C3A 3329  43.915  35.372   7.950
 3270POPC   C4A 3330  43.903  35.332   7.650
 3270POPC   C1B 3331  43.675  35.212   8.550
 3270POPC   C2B 3332  43.705  35.211   8.250
 3270POPC   C3B 3333  43.701  35.215   7.950
 3270POPC   C4B 3334  43.641  35.225   7.650
 3271POPC   NC3 3335   1.963  11.307   9.450
 3271POPC   PO4 3336   1.968  11.320   9.150
 3271POPC   GL1 3337   1.940  11.323   8.850
 3271POPC   GL2 3338   1.909  11.386   8.850
 3271POPC   C1A 3339   1.960  11.301   8.550
 3271POPC   D2A 3340   1.967  11.275   8.250
 3271POPC   C3A 3341   1.963  11.272   7.950
 3271POPC   C4A 3342   1.948  11.298   7.650
 3271POPC   C1B 3343   1.829  11.520   8.550
 3271POPC   C2B 3344   1.869  11.534   8.250
 3271POPC   C3B 3345   1.832  11.477   7.950
 3271POPC   C4B 3346   1.812  11.484   7.650
 3272POPC   NC3 3347  35.330  19.848   9.450
 3272POPC   PO4 3348  35.353  19.796   9.150
 3272POPC   GL1 3349  35.393  19.872   8.850
 3272POPC   GL2 3350  35.311  19.924   8.850
 3272POPC   C1A 3351  35.336  19.848   8.550
 3272POPC   D2A 3352  35.356  19.799   8.250
 3272POPC   C3A 3353  35.365  19.873   7.950
 3272POPC   C4A 3354  35.336  19.785   7.650
 3272POPC   C1B 3355  35.224  20.020   8.550
 3272POPC   C2B 3356  35.200  20.037   8.250
 3272POPC   C3B 3357  35.183  20.095   7.950
 3272POPC   C4B 3358  35.265  20.070   7.650
 3273POPC   NC3 3359  33.823  25.299   9.450
 3273POPC   PO4 3360  33.780  25.235   9.150
 3273POPC   GL1 3361  33.786  25.301   8.850
 3273POPC   GL2 3362  33.898  25.313   8.850
 3273POPC   C1A 3363  33.793  25.308   8.550
 3273POPC   D2A 3364  33.826  25.271   8.250
 3273POPC   C3A 3365  33.756  25.218   7.950
 3273POPC   C4A 3366  33.814  25.259   7.650
 3273POPC   C1B 3367  33.962  25.399   8.550
 3273POPC   C2B 3368  33.947  25.453   8.250
 3273POPC   C3B 3369  33.969  25.407   7.950
 3273POPC   C4B 3370  34.018  25.456   7.650
 3274POPC   NC3 3371  37.716   1.233   9.450
 3274POPC   PO4 3372  37.729   1.226   9.150
 3274POPC   GL1 3373  37.694   1.213   8.850
 3274POPC   GL2 3374  37.546   1.216   8.850
 3274POPC   C1A 3375  37.664   1.227   8.550
 3274POPC   D2A 3376  37.633   1.176   8.250
 3274POPC   C3A 3377  37.720   1.248   7.950
 3274POPC   C4A 3378  37.631   1.213   7.650
 3274POPC   C1B 3379  37.433   1.216   8.550
 3274POPC   C2B 3380  37.438   1.258   8.250
 3274POPC   C3B 3381  37.469   1.248   7.950
 3274POPC   C4B 3382  37.427   1.222   7.650
 3275POPC   NC3 3383  26.784   8.228   9.450
 3275POPC   PO4 3384  26.828   8.172   9.150
 3275POPC   GL1 3385  26.857   8.235   8.850
 3275POPC   GL2 3386  26.673   8.253   8.850
 3275POPC   C1A 3387  26.858   8.157   8.550
 3275POPC   D2A 3388  26.768   8.207   8.250
 3275POPC   C3A 3389  26.794   8.233   7.950
 3275POPC   C4A 3390  26.773   8.242   7.650
 3275POPC   C1B 3391  26.646   8.367   8.550
 3275POPC   C2B 3392  26.652   8.360   8.250
 3275POPC   C3B 3393  26.571   8.303   7.950
 3275POPC   C4B 3394  26.650   8.295   7.650
 3276POPC   NC3 3395  30.695  43.904   9.450
 3276POPC   PO4 3396  30.675  43.869   9.150
 3276POPC   GL1 3397  30.673  43.872   8.850
 3276POPC   GL2 3398  30.643  43.976   8.850
 3276POPC   C1A 3399  30.654  43.928   8.550
 3276POPC   D2A 3400  30.676  43.912   8.250
 3276POPC   C3A 3401  30.712  43.917   7.950
 3276POPC   C4A 3402  30.720  43.893   7.650
 3276POPC   C1B 3403  30.517  44.042   8.550
 3276POPC   C2B 3404  30.551  44.087   8.250
 3276POPC   C3B 3405  30.555  44.025   7.950
 3276POPC   C4B 3406  30.525  44.041   7.650
 3277POPC   NC3 3407   8.982   7.467   9.450
 3277POPC   PO4 3408   8.995   7.442   9.150
 3277POPC   GL1 3409   8.945   7.467   8.850
 3277POPC   GL2 3410   8.855   7.378   8.850
 3277POPC   C1A 3411   8.943   7.395   8.550
 3277POPC   D2A 3412   8.952   7.395   8.250
 3277POPC   C3A 3413   8.997   7.432   7.950
 3277POPC   C4A 3414   8.925   7.418   7.650
 3277POPC   C1B 3415   8.796   7.279   8.550
 3277POPC   C2B 3416   8.768   7.238   8.250
 3277POPC   C3B 3417   8.782   7.236   7.950
 3277POPC   C4B 3418   8.750   7.211   7.650
 3278POPC   NC3 3419  36.138   8.977   9.450
 3278POPC   PO4 3420  36.127   8.953   9.150
 3278POPC   GL1 3421  36.170   8.953   8.850
 3278POPC   GL2 3422  36.013   9.025   8.850
 3278POPC   C1A 3423  36.097   8.929   8.550
 3278POPC   D2A 3424  36.164   8.954   8.250
 3278POPC   C3A 3425  36.174   8.995   7.950
 3278POPC   C4A 3426  36.150   8.971   7.650
 3278POPC   C1B 3427  35.897   9.091   8.550
 3278POPC   C2B 3428  35.890   9.110   8.250
 3278POPC   C3B 3429  35.964   9.084   7.950
 3278POPC   C4B 3430  35.893   9.128   7.650
 3279POPC   NC3 3431  38.464  22.927   9.450
 3279POPC   PO4 3432  38.451  22.982   9.150
 3279POPC   GL1 3433  38.483  22.966   8.850
 3279POPC   GL2 3434  38.543  22.820   8.850
 3279POPC   C1A 3435  38.423  22.900   8.550
 3279POPC   D2A 3436  38.446  22.928   8.250
 3279POPC   C3A 3437  38.499  22.894   7.950
 3279POPC   C4A 3438  38.410  22.921   7.650
 3279POPC   C1B 3439  38.633  22.714   8.550
 3279POPC   C2B 3440  38.566  22.742   8.250
 3279POPC   C3B 3441  38.640  22.732   7.950
 3279POPC   C4B 3442  38.575  22.734   7.650
 3280POPC   NC3 3443   1.946  35.318   9.450
 3280POPC   PO4 3444   2.031  35.311   9.150
 3280POPC   GL1 3445   1.989  35.383   8.850
 3280POPC   GL2 3446   2.038  35.238   8.850
 3280POPC   C1A 3447   1.965  35.376   8.550
 3280POPC   D2A 3448   1.969  35.400   8.250
 3280POPC   C3A 3449   1.962  35.374   7.950
 3280POPC   C4A 3450   1.983  35.372   7.650
 3280POPC   C1B 3451   2.218  35.218   8.550
 3280POPC   C2B 3452   2.217  35.217   8.250
 3280POPC   C3B 3453   2.132  35.175   7.950
 3280POPC   C4B 3454   2.214  35.220   7.650
 3281POPC   NC3 3455   5.859  11.279   9.450
 3281POPC   PO4 3456   5.835  11.332   9.150
 3281POPC   GL1 3457   5.885  11.339   8.850
 3281POPC   GL2 3458   5.940  11.390   8.850
 3281POPC   C1A 3459   5.898  11.265   8.550
 3281POPC   D2A 3460   5.833  11.288   8.250
 3281POPC   C3A 3461   5.883  11.347   7.950
 3281POPC   C4A 3462   5.908  11.264   7.650
 3281POPC   C1B 3463   5.945  11.518   8.550
 3281POPC   C2B 3464   5.975  11.534   8.250
 3281POPC   C3B 3465   5.918  11.485   7.950
 3281POPC   C4B 3466   5.984  11.539   7.650
 3282POPC   NC3 3467  20.652  14.381   9.450
 3282POPC   PO4 3468  20.596  14.428   9.150
 3282POPC   GL1 3469  20.644  14.400   8.850
 3282POPC   GL2 3470  20.674  14.473   8.850
 3282POPC   C1A 3471  20.607  14.388   8.550
 3282POPC   D2A 3472  20.621  14.405   8.250
 3282POPC   C3A 3473  20.567  14.364   7.950
 3282POPC   C4A 3474  20.629  14.440   7.650
 3282POPC   C1B 3475  20.831  14.553   8.550
 3282POPC   C2B 3476  20.860  14.573   8.250
 3282POPC   C3B 3477  20.848  14.568   7.950
 3282POPC   C4B 3478  20.858  14.523   7.650
 3283POPC   NC3 3479  36.868  24.508   9.450
 3283POPC   PO4 3480  36.874  24.528   9.150
 3283POPC   GL1 3481  36.873  24.518   8.850
 3283POPC   GL2 3482  36.831  24.346   8.850
 3283POPC   C1A 3483  36.944  24.505   8.550
 3283POPC   D2A 3484  36.936  24.464   8.250
 3283POPC   C3A 3485  36.897  24.458   7.950
 3283POPC   C4A 3486  36.877  24.486   7.650
 3283POPC   C1B 3487  36.783  24.244   8.550
 3283POPC   C2B 3488  36.785  24.299   8.250
 3283POPC   C3B 3489  36.850  24.284   7.950
 3283POPC   C4B 3490  36.851  24.239   7.650
 3284POPC   NC3 3491  26.078  26.835   9.450
 3284POPC   PO4 3492  26.006  26.852   9.150
 3284POPC   GL1 3493  26.042  26.855   8.850
 3284POPC   GL2 3494  25.911  26.921   8.850
 3284POPC   C1A 3495  26.063  26.797   8.550
 3284POPC   D2A 3496  26.025  26.817   8.250
 3284POPC   C3A 3497  26.081  26.832   7.950
 3284POPC   C4A 3498  25.993  26.777   7.650
 3284POPC   C1B 3499  25.881  26.918   8.550
 3284POPC   C2B 3500  25.874  26.992   8.250
 3284POPC   C3B 3501  25.874  26.931   7.950
 3284POPC   C4B 3502  25.870  26.941   7.650
 3285POPC   NC3 3503  21.418  26.043   9.450
 3285POPC   PO4 3504  21.392  25.997   9.150
 3285POPC   GL1 3505  21.399  26.046   8.850
 3285POPC   GL2 3506  21.474  26.167   8.850
 3285POPC   C1A 3507  21.434  26.029   8.550
 3285POPC   D2A 3508  21.428  26.002   8.250
 3285POPC   C3A 3509  21.408  26.056   7.950
 3285POPC   C4A 3510  21.398  26.000   7.650
 3285POPC   C1B 3511  21.529  26.249   8.550
 3285POPC   C2B 3512  21.539  26.256   8.250
 3285POPC   C3B 3513  21.561  26.193   7.950
 3285POPC   C4B 3514  21.544  26.244   7.650
 3286POPC   NC3 3515   2.797  43.130   9.450
 3286POPC   PO4 3516   2.798  43.146   9.150
 3286POPC   GL1 3517   2.771  43.151   8.850
 3286POPC   GL2 3518   2.932  43.130   8.850
 3286POPC   C1A 3519   2.760  43.135   8.550
 3286POPC   D2A 3520   2.735  43.153   8.250
 3286POPC   C3A 3521   2.760  43.072   7.950
 3286POPC   C4A 3522   2.771  43.136   7.650
 3286POPC   C1B 3523   2.991  43.035   8.550
 3286POPC   C2B 3524   3.009  43.085   8.250
 3286POPC   C3B 3525   3.007  43.081   7.950
 3286POPC   C4B 3526   2.995  43.102   7.650
 3287POPC   NC3 3527   0.465   6.643   9.450
 3287POPC   PO4 3528   0.390   6.598   9.150
 3287POPC   GL1 3529   0.459   6.611   8.850
 3287POPC   GL2 3530   0.510   6.549   8.850
 3287POPC   C1A 3531   0.440   6.645   8.550
 3287POPC   D2A 3532   0.476   6.644   8.250
 3287POPC   C3A 3533   0.429   6.635   7.950
 3287POPC   C4A 3534   0.472   6.655   7.650
 3287POPC   C1B 3535   0.590   6.389   8.550
 3287POPC   C2B 3536   0.500   6.462   8.250
 3287POPC   C3B 3537   0.532   6.401   7.950
 3287POPC   C4B 3538   0.580   6.461   7.650
 3288POPC   NC3 3539   5.109  21.431   9.450
 3288POPC   PO4 3540   5.134  21.377   9.150
 3288POPC   GL1 3541   5.071  21.382   8.850
 3288POPC   GL2 3542   5.026  21.363   8.850
 3288POPC   C1A 3543   5.047  21.386   8.550
 3288POPC   D2A 3544   5.085  21.345   8.250
 3288POPC   C3A 3545   5.106  21.391   7.950
 3288POPC   C4A 3546   5.131  21.433   7.650
 3288POPC   C1B 3547   4.892  21.251   8.550
 3288POPC   C2B 3548   4.920  21.311   8.250
 3288POPC   C3B 3549   4.855  21.252   7.950
 3288POPC   C4B 3550   4.834  21.236   7.650
 3289POPC   NC3 3551   7.453  12.896   9.450
 3289POPC   PO4 3552   7.379  12.812   9.150
 3289POPC   GL1 3553   7.459  12.855   8.850
 3289POPC   GL2 3554   7.335  12.703   8.850
 3289POPC   C1A 3555   7.385  12.832   8.550
 3289POPC   D2A 3556   7.415  12.823   8.250
 3289POPC   C3A 3557   7.396  12.804   7.950
 3289POPC   C4A 3558   7.391  12.875   7.650
 3289POPC   C1B 3559   7.249  12.640   8.550
 3289POPC   C2B 3560   7.308  12.619   8.250
 3289POPC   C3B 3561   7.260  12.671   7.950
 3289POPC   C4B 3562   7.294  12.622   7.650
 3290POPC   NC3 3563  10.563   2.016   9.450
 3290POPC   PO4 3564  10.512   1.971   9.150
 3290POPC   GL1 3565  10.568   1.970   8.850
 3290POPC   GL2 3566  10.500   2.139   8.850
 3290POPC   C1A 3567  10.520   1.945   8.550
 3290POPC   D2A 3568  10.573   1.940   8.250
 3290POPC   C3A 3569  10.518   2.015   7.950
 3290POPC   C4A 3570  10.495   2.036   7.650
 3290POPC   C1B 3571  10.551   2.286   8.550
 3290POPC   C2B 3572  10.475   2.245   8.250
 3290POPC   C3B 3573  10.506   2.240   7.950
 3290POPC   C4B 3574  10.547   2.238   7.650
 3291POPC   NC3 3575  33.794  38.412   9.450
 3291POPC   PO4 3576  33.812  38.476   9.150
 3291POPC   GL1 3577  33.795  38.465   8.850
 3291POPC   GL2 3578  33.719  38.558   8.850
 3291POPC   C1A 3579  33.810  38.498   8.550
 3291POPC   D2A 3580  33.820  38.452   8.250
 3291POPC   C3A 3581  33.774  38.431   7.950
 3291POPC   C4A 3582  33.849  38.468   7.650
 3291POPC   C1B 3583  33.549  38.607   8.550
 3291POPC   C2B 3584  33.592  38.552   8.250
 3291POPC   C3B 3585  33.539  38.536   7.950
 3291POPC   C4B 3586  33.585  38.622   7.650
 3292POPC   NC3 3587  14.451  22.890   9.450
 3292POPC   PO4 3588  14.439  22.919   9.150
 3292POPC   GL1 3589  14.370  22.926   8.850
 3292POPC   GL2 3590  14.388  23.074   8.850
 3292POPC   C1A 3591  14.422  22.952   8.550
 3292POPC   D2A 3592  14.399  22.895   8.250
 3292POPC   C3A 3593  14.365  22.900   7.950
 3292POPC   C4A 3594  14.397  22.917   7.650
 3292POPC   C1B 3595  14.347  23.220   8.550
 3292POPC   C2B 3596  14.373  23.158   8.250
 3292POPC   C3B 3597  14.319  23.190   7.950
 3292POPC   C4B 3598  14.302  23.191   7.650
 3293POPC   NC3 3599  26.777  18.233   9.450
 3293POPC   PO4 3600  26.865  18.288   9.150
 3293POPC   GL1 3601  26.825  18.295   8.850
 3293POPC   GL2 3602  26.853  18.201   8.850
 3293POPC   C1A 3603  26.862  18.303   8.550
 3293POPC   D2A 3604  26.787  18.242   8.250
 3293POPC   C3A 3605  26.851  18.285   7.950
 3293POPC   C4A 3606  26.839  18.286   7.650
 3293POPC   C1B 3607  26.953  18.054   8.550
 3293POPC   C2B 3608  26.983  18.024   8.250
 3293POPC   C3B 3609  26.962  18.106   7.950
 3293POPC   C4B 3610  26.906  18.080   7.650
 3294POPC   NC3 3611  17.521  26.824   9.450
 3294POPC   PO4 3612  17.531  26.826   9.150
 3294POPC   GL1 3613  17.483  26.857   8.850
 3294POPC   GL2 3614  17.410  26.963   8.850
 3294POPC   C1A 3615  17.511  26.859   8.550
 3294POPC   D2A 3616  17.526  26.857   8.250
 3294POPC   C3A 3617  17.505  26.847   7.950
 3294POPC   C4A 3618  17.480  26.856   7.650
 3294POPC   C1B 3619  17.433  27.079   8.550
 3294POPC   C2B 3620  17.375  27.019   8.250
 3294POPC   C3B 3621  17.399  27.043   7.950
 3294POPC   C4B 3622  17.387  27.015   7.650
 3295POPC   NC3 3623   1.991  29.904   9.450
 3295POPC   PO4 3624   1.986  29.952   9.150
 3295POPC   GL1 3625   1.982  29.951   8.850
 3295POPC   GL2 3626   1.883  29.780   8.850
 3295POPC   C1A 3627   1.969  29.952   8.550
 3295POPC   D2A 3628   1.972  29.917   8.250
 3295POPC   C3A 3629   2.037  29.912   7.950
 3295POPC   C4A 3630   1.952  29.913   7.650
 3295POPC   C1B 3631   1.876  29.696   8.550
 3295POPC   C2B 3632   1.867  29.743   8.250
 3295POPC   C3B 3633   1.819  29.754   7.950
 3295POPC   C4B 3634   1.874  29.708   7.650
 3296POPC   NC3 3635   5.870  36.857   9.450
 3296POPC   PO4 3636   5.887  36.871   9.150
 3296POPC   GL1 3637   5.844  36.867   8.850
 3296POPC   GL2 3638   5.887  36.729   8.850
 3296POPC   C1A 3639   5.899  36.889   8.550
 3296POPC   D2A 3640   5.822  36.938   8.250
 3296POPC   C3A 3641   5.901  36.913   7.950
 3296POPC   C4A 3642   5.852  36.933   7.650
 3296POPC   C1B 3643   5.873  36.648   8.550
 3296POPC   C2B 3644   5.934  36.665   8.250
 3296POPC   C3B 3645   5.892  36.613   7.950
 3296POPC   C4B 3646   5.882  36.656   7.650
 3297POPC   NC3 3647   6.603  44.633   9.450
 3297POPC   PO4 3648   6.682  44.708   9.150
 3297POPC   GL1 3649   6.602  44.655   8.850
 3297POPC   GL2 3650   6.730  44.558   8.850
 3297POPC   C1A 3651   6.679  44.682   8.550
 3297POPC   D2A 3652   6.601  44.663   8.250
 3297POPC   C3A 3653   6.687  44.697   7.950
 3297POPC   C4A 3654   6.633  44.652   7.650
 3297POPC   C1B 3655   6.783  44.400   8.550
 3297POPC   C2B 3656   6.733  44.404   8.250
 3297POPC   C3B 3657   6.732  44.445   7.950
 3297POPC   C4B 3658   6.757  44.479   7.650
 3298POPC   NC3 3659  11.344  35.397   9.450
 3298POPC   PO4 3660  11.329  35.307   9.150
 3298POPC   GL1 3661  11.268  35.358   8.850
 3298POPC   GL2 3662  11.458  35.421   8.850
 3298POPC   C1A 3663  11.306  35.369   8.550
 3298POPC   D2A 3664  11.280  35.359   8.250
 3298POPC   C3A 3665  11.320  35.326   7.950
 3298POPC   C4A 3666  11.304  35.359   7.650
 3298POPC   C1B 3667  11.481  35.498   8.550
 3298POPC   C2B 3668  11.538  35.473   8.250
 3298POPC   C3B 3669  11.503  35.497   7.950
 3298POPC   C4B 3670  11.527  35.458   7.650
 3299POPC   NC3 3671  41.551  27.613   9.450
 3299POPC   PO4 3672  41.549  27.604   9.150
 3299POPC   GL1 3673  41.532  27.630   8.850
 3299POPC   GL2 3674  41.692  27.531   8.850
 3299POPC   C1A 3675  41.552  27.627   8.550
 3299POPC   D2A 3676  41.524  27.556   8.250
 3299POPC   C3A 3677  41.600  27.623   7.950
 3299POPC   C4A 3678  41.559  27.607   7.650
 3299POPC   C1B 3679  41.801  27.456   8.550
 3299POPC   C2B 3680  41.787  27.440   8.250
 3299POPC   C3B 3681  41.730  27.448   7.950
 3299POPC   C4B 3682  41.766  27.465   7.650
 3300POPC   NC3 3683  44.629  22.942   9.450
 3300POPC   PO4 3684  44.671  22.955   9.150
 3300POPC   GL1 3685  44.711  22.952   8.850
 3300POPC   GL2 3686  44.781  22.888   8.850
 3300POPC   C1A 3687  44.655  22.904   8.550
 3300POPC   D2A 3688  44.626  22.969   8.250
 3300POPC   C3A 3689  44.638  22.975   7.950
 3300POPC   C4A 3690  44.692  22.941   7.650
 3300POPC   C1B 3691  44.864  22.920   8.550
 3300POPC   C2B 3692  44.906  22.865   8.250
 3300POPC   C3B 3693  44.937  22.905   7.950
 3300POPC   C4B 3694  44.904  22.948   7.650
 3301POPC   NC3 3695  18.300   8.165   9.450
 3301POPC   PO4 3696  18.307   8.207   9.150
 3301POPC   GL1 3697  18.307   8.190   8.850
 3301POPC   GL2 3698  18.180   8.261   8.850
 3301POPC   C1A 3699  18.254   8.157   8.550
 3301POPC   D2A 3700  18.322   8.207   8.250
 3301POPC   C3A 3701  18.240   8.227   7.950
 3301POPC   C4A 3702  18.278   8.244   7.650
 3301POPC   C1B 3703  18.134   8.414   8.550
 3301POPC   C2B 3704  18.084   8.362   8.250
 3301POPC   C3B 3705  18.098   8.384   7.950
 3301POPC   C4B 3706  18.118   8.426   7.650
 3302POPC   NC3 3707   7.415  42.307   9.450
 3302POPC   PO4 3708   7.413  42.349   9.150
 3302POPC   GL1 3709   7.428  42.335   8.850
 3302POPC   GL2 3710   7.561  42.342   8.850
 3302POPC   C1A 3711   7.441  42.343   8.550
 3302POPC   D2A 3712   7.460  42.361   8.250
 3302POPC   C3A 3713   7.398  42.329   7.950
 3302POPC   C4A 3714   7.430  42.312   7.650
 3302POPC   C1B 3715   7.638  42.301   8.550
 3302POPC   C2B 3716   7.680  42.312   8.250
 3302POPC   C3B 3717   7.618  42.289   7.950
 3302POPC   C4B 3718   7.665  42.267   7.650
 3303POPC   NC3 3719  18.258   0.445   9.450
 3303POPC   PO4 3720  18.256   0.431   9.150
 3303POPC   GL1 3721  18.250   0.479   8.850
 3303POPC   GL2 3722  18.324   0.544   8.850
 3303POPC   C1A 3723  18.261   0.437   8.550
 3303POPC   D2A 3724  18.308   0.426   8.250
 3303POPC   C3A 3725  18.314   0.414   7.950
 3303POPC   C4A 3726  18.256   0.443   7.650
 3303POPC   C1B 3727  18.390   0.624   8.550
 3303POPC   C2B 3728  18.418   0.655   8.250
 3303POPC   C3B 3729  18.435   0.640   7.950
 3303POPC   C4B 3730  18.436   0.682   7.650
 3304POPC   NC3 3731  36.120   0.447   9.450
 3304POPC   PO4 3732  36.154   0.480   9.150
 3304POPC   GL1 3733  36.110   0.441   8.850
 3304POPC   GL2 3734  36.178   0.304   8.850
 3304POPC   C1A 3735  36.121   0.414   8.550
 3304POPC   D2A 3736  36.078   0.487   8.250
 3304POPC   C3A 3737  36.104   0.431   7.950
 3304POPC   C4A 3738  36.149   0.480   7.650
 3304POPC   C1B 3739  36.125   0.234   8.550
 3304POPC   C2B 3740  36.165   0.208   8.250
 3304POPC   C3B 3741  36.153   0.167   7.950
 3304POPC   C4B 3742  36.082   0.186   7.650
 3305POPC   NC3 3743   1.182  28.330   9.450
 3305POPC   PO4 3744   1.213  28.396   9.150
 3305POPC   GL1 3745   1.197  28.418   8.850
 3305POPC   GL2 3746   1.126  28.367   8.850
 3305POPC   C1A 3747   1.245  28.397   8.550
 3305POPC   D2A 3748   1.168  28.326   8.250
 3305POPC   C3A 3749   1.246  28.407   7.950
 3305POPC   C4A 3750   1.197  28.390   7.650
 3305POPC   C1B 3751   0.951  28.269   8.550
 3305POPC   C2B 3752   1.000  28.282   8.250
 3305POPC   C3B 3753   0.960  28.233   7.950
 3305POPC   C4B 3754   1.025  28.269   7.650
 3306POPC   NC3 3755  33.754  32.976   9.450
 3306POPC   PO4 3756  33.831  32.980   9.150
 3306POPC   GL1 3757  33.844  33.062   8.850
 3306POPC   GL2 3758  33.787  33.106   8.850
 3306POPC   C1A 3759  33.831  33.023   8.550
 3306POPC   D2A 3760  33.798  33.016   8.250
 3306POPC   C3A 3761  33.788  32.983   7.950
 3306POPC   C4A 3762  33.846  33.066   7.650
 3306POPC   C1B 3763  33.747  33.259   8.550
 3306POPC   C2B 3764  33.768  33.318   8.250
 3306POPC   C3B 3765  33.834  33.274   7.950
 3306POPC   C4B 3766  33.818  33.245   7.650
 3307POPC   NC3 3767  40.013  43.087   9.450
 3307POPC   PO4 3768  40.005  43.096   9.150
 3307POPC   GL1 3769  39.993  43.076   8.850
 3307POPC   GL2 3770  39.941  43.184   8.850
 3307POPC   C1A 3771  40.055  43.072   8.550
 3307POPC   D2A 3772  40.026  43.111   8.250
 3307POPC   C3A 3773  39.985  43.148   7.950
 3307POPC   C4A 3774  39.969  43.091   7.650
 3307POPC   C1B 3775  39.867  43.311   8.550
 3307POPC   C2B 3776  39.831  43.330   8.250
 3307POPC   C3B 3777  39.872  43.286   7.950
 3307POPC   C4B 3778  39.839  43.269   7.650
 3308POPC   NC3 3779  18.312   8.958   9.450
 3308POPC   PO4 3780  18.284   9.016   9.150
 3308POPC   GL1 3781  18.233   8.963   8.850
 3308POPC   GL2 3782  18.137   8.927   8.850
 3308POPC   C1A 3783  18.266   8.987   8.550
 3308POPC   D2A 3784  18.327   8.930   8.250
 3308POPC   C3A 3785  18.275   8.991   7.950
 3308POPC   C4A 3786  18.290   9.001   7.650
 3308POPC   C1B 3787  18.085   8.860   8.550
 3308POPC   C2B 3788  18.013   8.876   8.250
 3308POPC   C3B 3789  18.078   8.839   7.950
 3308POPC   C4B 3790  18.042   8.889   7.650
 3309POPC   NC3 3791  38.462   2.770   9.450
 3309POPC   PO4 3792  38.486   2.788   9.150
 3309POPC   GL1 3793  38.481   2.756   8.850
 3309POPC   GL2 3794  38.377   2.849   8.850
 3309POPC   C1A 3795  38.445   2.782   8.550
 3309POPC   D2A 3796  38.435   2.777   8.250
 3309POPC   C3A 3797  38.417   2.785   7.950
 3309POPC   C4A 3798  38.466   2.786   7.650
 3309POPC   C1B 3799  38.349   2.985   8.550
 3309POPC   C2B 3800  38.354   3.038   8.250
 3309POPC   C3B 3801  38.419   2.987   7.950
 3309POPC   C4B 3802  38.392   2.991   7.650
 3310POPC   NC3 3803   0.434  40.006   9.450
 3310POPC   PO4 3804   0.421  40.035   9.150
 3310POPC   GL1 3805   0.398  39.976   8.850
 3310POPC   GL2 3806   0.340  39.878   8.850
 3310POPC   C1A 3807   0.434  40.042   8.550
 3310POPC   D2A 3808   0.464  39.970   8.250
 3310POPC   C3A 3809   0.404  40.004   7.950
 3310POPC   C4A 3810   0.397  40.024   7.650
 3310POPC   C1B 3811   0.276  39.785   8.550
 3310POPC   C2B 3812   0.268  39.783   8.250
 3310POPC   C3B 3813   0.248  39.797   7.950
 3310POPC   C4B 3814   0.250  39.776   7.650
 3311POPC   NC3 3815  41.569  41.561   9.450
 3311POPC   PO4 3816  41.538  41.524   9.150
 3311POPC   GL1 3817  41.586  41.555   8.850
 3311POPC   GL2 3818  41.537  41.478   8.850
 3311POPC   C1A 3819  41.573  41.595   8.550
 3311POPC   D2A 3820  41.569  41.578   8.250
 3311POPC   C3A 3821  41.590  41.559   7.950
 3311POPC   C4A 3822  41.586  41.592   7.650
 3311POPC   C1B 3823  41.439  41.315   8.550
 3311POPC   C2B 3824  41.417  41.298   8.250
 3311POPC   C3B 3825  41.419  41.379   7.950
 3311POPC   C4B 3826  41.452  41.382   7.650
 3312POPC   NC3 3827  12.875  42.330   9.450
 3312POPC   PO4 3828  12.819  42.358   9.150
 3312POPC   GL1 3829  12.817  42.326   8.850
 3312POPC   GL2 3830  12.708  42.241   8.850
 3312POPC   C1A 3831  12.837  42.297   8.550
 3312POPC   D2A 3832  12.841  42.324   8.250
 3312POPC   C3A 3833  12.856  42.378   7.950
 3312POPC   C4A 3834  12.802  42.350   7.650
 3312POPC   C1B 3835  12.629  42.274   8.550
 3312POPC   C2B 3836  12.662  42.277   8.250
 3312POPC   C3B 3837  12.599  42.228   7.950
 3312POPC   C4B 3838  12.674  42.198   7.650
 3313POPC   NC3 3839   5.110  22.975   9.450
 3313POPC   PO4 3840   5.129  22.963   9.150
 3313POPC   GL1 3841   5.091  22.929   8.850
 3313POPC   GL2 3842   4.930  23.009   8.850
 3313POPC   C1A 3843   5.053  22.981   8.550
 3313POPC   D2A 3844   5.065  22.907   8.250
 3313POPC   C3A 3845   5.122  22.939   7.950
 3313POPC   C4A 3846   5.083  22.973   7.650
 3313POPC   C1B 3847   4.846  22.976   8.550
 3313POPC   C2B 3848   4.889  22.984   8.250
 3313POPC   C3B 3849   4.829  23.041   7.950
 3313POPC   C4B 3850   4.806  23.022   7.650
 3314POPC   NC3 3851  22.178  42.367   9.450
 3314POPC   PO4 3852  22.136  42.340   9.150
 3314POPC   GL1 3853  22.171  42.348   8.850
 3314POPC   GL2 3854  22.262  42.440   8.850
 3314POPC   C1A 3855  22.202  42.305   8.550
 3314POPC   D2A 3856  22.206  42.296   8.250
 3314POPC   C3A 3857  22.113  42.333   7.950
 3314POPC   C4A 3858  22.178  42.363   7.650
 3314POPC   C1B 3859  22.317  42.452   8.550
 3314POPC   C2B 3860  22.322  42.548   8.250
 3314POPC   C3B 3861  22.363  42.496   7.950
 3314POPC   C4B 3862  22.359  42.487   7.650
 3315POPC   NC3 3863   8.190  12.098   9.450
 3315POPC   PO4 3864   8.195  12.079   9.150
 3315POPC   GL1 3865   8.175  12.104   8.850
 3315POPC   GL2 3866   8.340  11.964   8.850
 3315POPC   C1A 3867   8.159  12.038   8.550
 3315POPC   D2A 3868   8.193  12.051   8.250
 3315POPC   C3A 3869   8.244  12.107   7.950
 3315POPC   C4A 3870   8.197  12.082   7.650
 3315POPC   C1B 3871   8.456  11.990   8.550
 3315POPC   C2B 3872   8.444  11.927   8.250
 3315POPC   C3B 3873   8.403  11.912   7.950
 3315POPC   C4B 3874   8.370  11.990   7.650
 3316POPC   NC3 3875   8.160  24.482   9.450
 3316POPC   PO4 3876   8.241  24.446   9.150
 3316POPC   GL1 3877   8.161  24.530   8.850
 3316POPC   GL2 3878   8.078  24.627   8.850
 3316POPC   C1A 3879   8.153  24.450   8.550
 3316POPC   D2A 3880   8.234  24.488   8.250
 3316POPC   C3A 3881   8.222  24.523   7.950
 3316POPC   C4A 3882   8.218  24.474   7.650
 3316POPC   C1B 3883   8.012  24.695   8.550
 3316POPC   C2B 3884   8.008  24.679   8.250
 3316POPC   C3B 3885   8.036  24.662   7.950
 3316POPC   C4B 3886   8.050  24.692   7.650
 3317POPC   NC3 3887  20.619  21.395   9.450
 3317POPC   PO4 3888  20.578  21.400   9.150
 3317POPC   GL1 3889  20.580  21.428   8.850
 3317POPC   GL2 3890  20.710  21.331   8.850
 3317POPC   C1A 3891  20.608  21.360   8.550
 3317POPC   D2A 3892  20.565  21.338   8.250
 3317POPC   C3A 3893  20.600  21.385   7.950
 3317POPC   C4A 3894  20.621  21.360   7.650
 3317POPC   C1B 3895  20.778  21.235   8.550
 3317POPC   C2B 3896  20.788  21.235   8.250
 3317POPC   C3B 3897  20.815  21.219   7.950
 3317POPC   C4B 3898  20.798  21.227   7.650
 3318POPC   NC3 3899   7.452  23.702   9.450
 3318POPC   PO4 3900   7.460  23.745   9.150
 3318POPC   GL1 3901   7.431  23.735   8.850
 3318POPC   GL2 3902   7.473  23.581   8.850
 3318POPC   C1A 3903   7.398  23.708   8.550
 3318POPC   D2A 3904   7.389  23.715   8.250
 3318POPC   C3A 3905   7.458  23.739   7.950
 3318POPC   C4A 3906   7.399  23.716   7.650
 3318POPC   C1B 3907   7.590  23.549   8.550
 3318POPC   C2B 3908   7.554  23.530   8.250
 3318POPC   C3B 3909   7.624  23.517   7.950
 3318POPC   C4B 3910   7.623  23.498   7.650
 3319POPC   NC3 3911  26.076   5.141   9.450
 3319POPC   PO4 3912  26.090   5.094   9.150
 3319POPC   GL1 3913  26.056   5.057   8.850
 3319POPC   GL2 3914  26.208   5.095   8.850
 3319POPC   C1A 3915  26.064   5.122   8.550
 3319POPC   D2A 3916  26.060   5.130   8.250
 3319POPC   C3A 3917  26.056   5.111   7.950
 3319POPC   C4A 3918  26.087   5.068   7.650
 3319POPC   C1B 3919  26.303   5.194   8.550
 3319POPC   C2B 3920  26.247   5.220   8.250
 3319POPC   C3B 3921  26.288   5.197   7.950
 3319POPC   C4B 3922  26.236   5.166   7.650
 3320POPC   NC3 3923  26.824   5.830   9.450
 3320POPC   PO4 3924  26.824   5.887   9.150
 3320POPC   GL1 3925  26.803   5.868   8.850
 3320POPC   GL2 3926  26.784   5.697   8.850
 3320POPC   C1A 3927  26.863   5.843   8.550
 3320POPC   D2A 3928  26.798   5.845   8.250
 3320POPC   C3A 3929  26.782   5.881   7.950
 3320POPC   C4A 3930  26.842   5.861   7.650
 3320POPC   C1B 3931  26.762   5.598   8.550
 3320POPC   C2B 3932  26.843   5.615   8.250
 3320POPC   C3B 3933  26.835   5.622   7.950
 3320POPC   C4B 3934  26.779   5.604   7.650
 3321POPC   NC3 3935  31.484  33.788   9.450
 3321POPC   PO4 3936  31.485  33.807   9.150
 3321POPC   GL1 3937  31.453  33.774   8.850
 3321POPC   GL2 3938  31.577  33.858   8.850
 3321POPC   C1A 3939  31.429  33.791   8.550
 3321POPC   D2A 3940  31.466  33.755   8.250
 3321POPC   C3A 3941  31.515  33.773   7.950
 3321POPC   C4A 3942  31.423  33.781   7.650
 3321POPC   C1B 3943  31.594  34.031   8.550
 3321POPC   C2B 3944  31.593  33.984   8.250
 3321POPC   C3B 3945  31.656  33.981   7.950
 3321POPC   C4B 3946  31.596  33.980   7.650
 3322POPC   NC3 3947  31.451  24.440   9.450
 3322POPC   PO4 3948  31.475  24.440   9.150
 3322POPC   GL1 3949  31.445  24.472   8.850
 3322POPC   GL2 3950  31.573  24.463   8.850
 3322POPC   C1A 3951  31.505  24.451   8.550
 3322POPC   D2A 3952  31.497  24.441   8.250
 3322POPC   C3A 3953  31.424  24.513   7.950
 3322POPC   C4A 3954  31.430  24.457   7.650
 3322POPC   C1B 3955  31.696  24.345   8.550
 3322POPC   C2B 3956  31.626  24.338   8.250
 3322POPC   C3B 3957  31.684  24.322   7.950
 3322POPC   C4B 3958  31.632  24.366   7.650
 3323POPC   NC3 3959  42.342   5.857   9.450
 3323POPC   PO4 3960  42.362   5.887   9.150
 3323POPC   GL1 3961  42.316   5.882   8.850
 3323POPC   GL2 3962  42.445   5.957   8.850
 3323POPC   C1A 3963  42.320   5.880   8.550
 3323POPC   D2A 3964  42.328   5.862   8.250
 3323POPC   C3A 3965  42.369   5.907   7.950
 3323POPC   C4A 3966  42.295   5.879   7.650
 3323POPC   C1B 3967  42.524   6.096   8.550
 3323POPC   C2B 3968  42.505   6.059   8.250
 3323POPC   C3B 3969  42.541   6.067   7.950
 3323POPC   C4B 3970  42.525   6.062   7.650
 3324POPC   NC3 3971  39.200  22.908   9.450
 3324POPC   PO4 3972  39.270  22.948   9.150
 3324POPC   GL1 3973  39.197  22.972   8.850
 3324POPC   GL2 3974  39.404  22.971   8.850
 3324POPC   C1A 3975  39.245  22.966   8.550
 3324POPC   D2A 3976  39.228  22.938   8.250
 3324POPC   C3A 3977  39.208  22.924   7.950
 3324POPC   C4A 3978  39.235  22.946   7.650
 3324POPC   C1B 3979  39.505  22.926   8.550
 3324POPC   C2B 3980  39.441  22.969   8.250
 3324POPC   C3B 3981  39.518  22.908   7.950
 3324POPC   C4B 3982  39.464  22.887   7.650
 3325POPC   NC3 3983  27.560  16.000   9.450
 3325POPC   PO4 3984  27.616  15.962   9.150
 3325POPC   GL1 3985  27.553  15.935   8.850
 3325POPC   GL2 3986  27.632  15.866   8.850
 3325POPC   C1A 3987  27.574  15.941   8.550
 3325POPC   D2A 3988  27.572  15.916   8.250
 3325POPC   C3A 3989  27.628  15.985   7.950
 3325POPC   C4A 3990  27.554  16.005   7.650
 3325POPC   C1B 3991  27.634  15.740   8.550
 3325POPC   C2B 3992  27.662  15.756   8.250
 3325POPC   C3B 3993  27.650  15.690   7.950
 3325POPC   C4B 3994  27.649  15.676   7.650
 3326POPC   NC3 3995   5.070  29.964   9.450
 3326POPC   PO4 3996   5.088  29.925   9.150
 3326POPC   GL1 3997   5.069  29.950   8.850
 3326POPC   GL2 3998   5.150  30.018   8.850
 3326POPC   C1A 3999   5.094  29.898   8.550
 3326POPC   D2A 4000   5.066  29.897   8.250
 3326POPC   C3A 4001   5.054  29.900   7.950
 3326POPC   C4A 4002   5.133  29.880   7.650
 3326POPC   C1B 4003   5.227  30.114   8.550
 3326POPC   C2B 4004   5.262  30.099   8.250
 3326POPC   C3B 4005   5.238  30.108   7.950
 3326POPC   C4B 4006   5.227  30.174   7.650
 3327POPC   NC3 4007   4.367  35.339   9.450
 3327POPC   PO4 4008   4.347  35.365   9.150
 3327POPC   GL1 4009   4.314  35.315   8.850
 3327POPC   GL2 4010   4.373  35.484   8.850
 3327POPC   C1A 4011   4.334  35.323   8.550
 3327POPC   D2A 4012   4.350  35.372   8.250
 3327POPC   C3A 4013   4.273  35.310   7.950
 3327POPC   C4A 4014   4.332  35.362   7.650
 3327POPC   C1B 4015   4.421  35.561   8.550
 3327POPC   C2B 4016   4.372  35.544   8.250
 3327POPC   C3B 4017   4.338  35.614   7.950
 3327POPC   C4B 4018   4.399  35.643   7.650
 3328POPC   NC3 4019  27.624  22.928   9.450
 3328POPC   PO4 4020  27.629  22.942   9.150
 3328POPC   GL1 4021  27.623  22.976   8.850
 3328POPC   GL2 4022  27.649  23.060   8.850
 3328POPC   C1A 4023  27.586  22.921   8.550
 3328POPC   D2A 4024  27.550  22.894   8.250
 3328POPC   C3A 4025  27.615  22.918   7.950
 3328POPC   C4A 4026  27.619  22.977   7.650
 3328POPC   C1B 4027  27.617  23.221   8.550
 3328POPC   C2B 4028  27.631  23.227   8.250
 3328POPC   C3B 4029  27.654  23.183   7.950
 3328POPC   C4B 4030  27.634  23.132   7.650
 3329POPC   NC3 4031   1.173  24.512   9.450
 3329POPC   PO4 4032   1.226  24.448   9.150
 3329POPC   GL1 4033   1.239  24.480   8.850
 3329POPC   GL2 4034   1.195  24.651   8.850
 3329POPC   C1A 4035   1.234  24.507   8.550
 3329POPC   D2A 4036   1.234  24.525   8.250
 3329POPC   C3A 4037   1.254  24.486   7.950
 3329POPC   C4A 4038   1.224  24.455   7.650
 3329POPC   C1B 4039   1.275  24.724   8.550
 3329POPC   C2B 4040   1.266  24.695   8.250
 3329POPC   C3B 4041   1.224  24.751   7.950
 3329POPC   C4B 4042   1.223  24.730   7.650
 3330POPC   NC3 4043  12.878  40.024   9.450
 3330POPC   PO4 4044  12.870  40.049   9.150
 3330POPC   GL1 4045  12.821  39.992   8.850
 3330POPC   GL2 4046  12.714  40.060   8.850
 3330POPC   C1A 4047  12.882  39.961   8.550
 3330POPC   D2A 4048  12.855  39.960   8.250
 3330POPC   C3A 4049  12.875  39.987   7.950
 3330POPC   C4A 4050  12.880  39.999   7.650
 3330POPC   C1B 4051  12.637  40.142   8.550
 3330POPC   C2B 4052  12.671  40.077   8.250
 3330POPC   C3B 4053  12.608  40.107   7.950
 3330POPC   C4B 4054  12.580  40.069   7.650
 3331POPC   NC3 4055  33.756  34.556   9.450
 3331POPC   PO4 4056  33.789  34.568   9.150
 3331POPC   GL1 4057  33.798  34.567   8.850
 3331POPC   GL2 4058  33.726  34.661   8.850
 3331POPC   C1A 4059  33.813  34.602   8.550
 3331POPC   D2A 4060  33.849  34.580   8.250
 3331POPC   C3A 4061  33.790  34.600   7.950
 3331POPC   C4A 4062  33.754  34.574   7.650
 3331POPC   C1B 4063  33.690  34.765   8.550
 3331POPC   C2B 4064  33.647  34.848   8.250
 3331POPC   C3B 4065  33.697  34.841   7.950
 3331POPC   C4B 4066  33.657  34.774   7.650
 3332POPC   NC3 4067   2.787  22.916   9.450
 3332POPC   PO4 4068   2.739  22.985   9.150
 3332POPC   GL1 4069   2.742  22.958   8.850
 3332POPC   GL2 4070   2.865  22.969   8.850
 3332POPC   C1A 4071   2.725  22.976   8.550
 3332POPC   D2A 4072   2.775  22.984   8.250
 3332POPC   C3A 4073   2.788  22.984   7.950
 3332POPC   C4A 4074   2.755  22.969   7.650
 3332POPC   C1B 4075   3.039  23.004   8.550
 3332POPC   C2B 4076   2.995  22.974   8.250
 3332POPC   C3B 4077   2.969  22.980   7.950
 3332POPC   C4B 4078   2.986  23.060   7.650
 3333POPC   NC3 4079   4.324  33.068   9.450
 3333POPC   PO4 4080   4.304  33.000   9.150
 3333POPC   GL1 4081   4.295  33.021   8.850
 3333POPC   GL2 4082   4.382  33.125   8.850
 3333POPC   C1A 4083   4.326  32.985   8.550
 3333POPC   D2A 4084   4.351  33.058   8.250
 3333POPC   C3A 4085   4.292  33.027   7.950
 3333POPC   C4A 4086   4.357  32.994   7.650
 3333POPC   C1B 4087   4.432  33.276   8.550
 3333POPC   C2B 4088   4.404  33.251   8.250
 3333POPC   C3B 4089   4.427  33.239   7.950
 3333POPC   C4B 4090   4.416  33.243   7.650
 3334POPC   NC3 4091   2.007  23.715   9.450
 3334POPC   PO4 4092   1.954  23.732   9.150
 3334POPC   GL1 4093   1.962  23.734   8.850
 3334POPC   GL2 4094   2.027  23.872   8.850
 3334POPC   C1A 4095   1.988  23.671   8.550
 3334POPC   D2A 4096   2.002  23.752   8.250
 3334POPC   C3A 4097   1.950  23.692   7.950
 3334POPC   C4A 4098   1.960  23.748   7.650
 3334POPC   C1B 4099   2.099  23.939   8.550
 3334POPC   C2B 4100   2.118  23.905   8.250
 3334POPC   C3B 4101   2.054  23.974   7.950
 3334POPC   C4B 4102   2.106  23.954   7.650
 3335POPC   NC3 4103   8.999  14.391   9.450
 3335POPC   PO4 4104   8.942  14.364   9.150
 3335POPC   GL1 4105   9.020  14.425   8.850
 3335POPC   GL2 4106   8.991  14.519   8.850
 3335POPC   C1A 4107   8.942  14.370   8.550
 3335POPC   D2A 4108   8.952  14.450   8.250
 3335POPC   C3A 4109   8.992  14.451   7.950
 3335POPC   C4A 4110   8.975  14.442   7.650
 3335POPC   C1B 4111   8.917  14.648   8.550
 3335POPC   C2B 4112   8.917  14.638   8.250
 3335POPC   C3B 4113   8.984  14.610   7.950
 3335POPC   C4B 4114   8.970  14.653   7.650
 3336POPC   NC3 4115  35.337  20.656   9.450
 3336POPC   PO4 4116  35.340  20.568   9.150
 3336POPC   GL1 4117  35.374  20.596   8.850
 3336POPC   GL2 4118  35.409  20.695   8.850
 3336POPC   C1A 4119  35.357  20.645   8.550
 3336POPC   D2A 4120  35.354  20.657   8.250
 3336POPC   C3A 4121  35.346  20.606   7.950
 3336POPC   C4A 4122  35.373  20.565   7.650
 3336POPC   C1B 4123  35.468  20.793   8.550
 3336POPC   C2B 4124  35.519  20.835   8.250
 3336POPC   C3B 4125  35.474  20.784   7.950
 3336POPC   C4B 4126  35.502  20.858   7.650
 3337POPC   NC3 4127  13.637  21.383   9.450
 3337POPC   PO4 4128  13.582  21.401   9.150
 3337POPC   GL1 4129  13.621  21.394   8.850
 3337POPC   GL2 4130  13.543  21.368   8.850
 3337POPC   C1A 4131  13.582  21.419   8.550
 3337POPC   D2A 4132  13.662  21.355   8.250
 3337POPC   C3A 4133  13.623  21.361   7.950
 3337POPC   C4A 4134  13.653  21.403   7.650
 3337POPC   C1B 4135  13.377  21.296   8.550
 3337POPC   C2B 4136  13.397  21.278   8.250
 3337POPC   C3B 4137  13.402  21.347   7.950
 3337POPC   C4B 4138  13.418  21.289   7.650
 3338POPC   NC3 4139   8.201  11.252   9.450
 3338POPC   PO4 4140   8.214  11.292   9.150
 3338POPC   GL1 4141   8.196  11.329   8.850
 3338POPC   GL2 4142   8.105  11.301   8.850
 3338POPC   C1A 4143   8.219  11.323   8.550
 3338POPC   D2A 4144   8.237  11.268   8.250
 3338POPC   C3A 4145   8.235  11.255   7.950
 3338POPC   C4A 4146   8.149  11.314   7.650
 3338POPC   C1B 4147   7.943  11.246   8.550
 3338POPC   C2B 4148   7.997  11.256   8.250
 3338POPC   C3B 4149   8.002  11.254   7.950
 3338POPC   C4B 4150   7.927  11.255   7.650
 3339POPC   NC3 4151  13.594  39.971   9.450
 3339POPC   PO4 4152  13.662  40.012   9.150
 3339POPC   GL1 4153  13.603  40.031   8.850
 3339POPC   GL2 4154  13.775  40.033   8.850
 3339POPC   C1A 4155  13.638  39.994   8.550
 3339POPC   D2A 4156  13.592  40.045   8.250
 3339POPC   C3A 4157  13.600  40.002   7.950
 3339POPC   C4A 4158  13.652  40.034   7.650
 3339POPC   C1B 4159  13.895  39.965   8.550
 3339POPC   C2B 4160  13.845  39.970   8.250
 3339POPC   C3B 4161  13.899  40.019   7.950
 3339POPC   C4B 4162  13.868  40.046   7.650
 3340POPC   NC3 4163   9.759  42.295   9.450
 3340POPC   PO4 4164   9.747  42.299   9.150
 3340POPC   GL1 4165   9.720  42.309   8.850
 3340POPC   GL2 4166   9.720  42.162   8.850
 3340POPC   C1A 4167   9.742  42.294   8.550
 3340POPC   D2A 4168   9.783  42.313   8.250
 3340POPC   C3A 4169   9.699  42.375   7.950
 3340POPC   C4A 4170   9.700  42.297   7.650
 3340POPC   C1B 4171   9.738  42.076   8.550
 3340POPC   C2B 4172   9.757  42.110   8.250
 3340POPC   C3B 4173   9.789  42.069   7.950
 3340POPC   C4B 4174   9.792  42.072   7.650
 3341POPC   NC3 4175   8.942  32.231   9.450
 3341POPC   PO4 4176   8.960  32.226   9.150
 3341POPC   GL1 4177   8.999  32.265   8.850
 3341POPC   GL2 4178   8.945  32.410   8.850
 3341POPC   C1A 4179   8.950  32.282   8.550
 3341POPC   D2A 4180   8.926  32.281   8.250
 3341POPC   C3A 4181   8.991  32.262   7.950
 3341POPC   C4A 4182   8.974  32.239   7.650
 3341POPC   C1B 4183   8.865  32.520   8.550
 3341POPC   C2B 4184   8.877  32.475   8.250
 3341POPC   C3B 4185   8.900  32.469   7.950
 3341POPC   C4B 4186   8.873  32.506   7.650
 3342POPC   NC3 4187  38.467  36.175   9.450
 3342POPC   PO4 4188  38.414  36.143   9.150
 3342POPC   GL1 4189  38.420  36.090   8.850
 3342POPC   GL2 4190  38.320  36.083   8.850
 3342POPC   C1A 4191  38.477  36.131   8.550
 3342POPC   D2A 4192  38.419  36.124   8.250
 3342POPC   C3A 4193  38.495  36.086   7.950
 3342POPC   C4A 4194  38.430  36.145   7.650
 3342POPC   C1B 4195  38.189  36.180   8.550
 3342POPC   C2B 4196  38.218  36.176   8.250
 3342POPC   C3B 4197  38.155  36.147   7.950
 3342POPC   C4B 4198  38.180  36.103   7.650
 3343POPC   NC3 4199  21.412  36.176   9.450
 3343POPC   PO4 4200  21.428  36.174   9.150
 3343POPC   GL1 4201  21.377  36.090   8.850
 3343POPC   GL2 4202  21.377  36.280   8.850
 3343POPC   C1A 4203  21.405  36.131   8.550
 3343POPC   D2A 4204  21.384  36.122   8.250
 3343POPC   C3A 4205  21.382  36.079   7.950
 3343POPC   C4A 4206  21.358  36.096   7.650
 3343POPC   C1B 4207  21.315  36.352   8.550
 3343POPC   C2B 4208  21.291  36.302   8.250
 3343POPC   C3B 4209  21.304  36.343   7.950
 3343POPC   C4B 4210  21.265  36.361   7.650
 3344POPC   NC3 4211  22.941   0.421   9.450
 3344POPC   PO4 4212  22.942   0.463   9.150
 3344POPC   GL1 4213  22.929   0.411   8.850
 3344POPC   GL2 4214  22.976   0.578   8.850
 3344POPC   C1A 4215  22.984   0.464   8.550
 3344POPC   D2A 4216  22.961   0.477   8.250
 3344POPC   C3A 4217  22.965   0.481   7.950
 3344POPC   C4A 4218  22.966   0.459   7.650
 3344POPC   C1B 4219  22.915   0.715   8.550
 3344POPC   C2B 4220  22.909   0.703   8.250
 3344POPC   C3B 4221  22.877   0.684   7.950
 3344POPC   C4B 4222  22.877   0.681   7.650
 3345POPC   NC3 4223   1.262  13.606   9.450
 3345POPC   PO4 4224   1.198  13.602   9.150
 3345POPC   GL1 4225   1.167  13.623   8.850
 3345POPC   GL2 4226   1.281  13.549   8.850
 3345POPC   C1A 4227   1.184  13.627   8.550
 3345POPC   D2A 4228   1.213  13.627   8.250
 3345POPC   C3A 4229   1.214  13.615   7.950
 3345POPC   C4A 4230   1.216  13.668   7.650
 3345POPC   C1B 4231   1.297  13.393   8.550
 3345POPC   C2B 4232   1.370  13.383   8.250
 3345POPC   C3B 4233   1.371  13.395   7.950
 3345POPC   C4B 4234   1.325  13.410   7.650
 3346POPC   NC3 4235  29.885  26.015   9.450
 3346POPC   PO4 4236  29.939  25.992   9.150
 3346POPC   GL1 4237  29.883  26.089   8.850
 3346POPC   GL2 4238  29.943  25.932   8.850
 3346POPC   C1A 4239  29.927  26.007   8.550
 3346POPC   D2A 4240  29.954  26.029   8.250
 3346POPC   C3A 4241  29.886  26.076   7.950
 3346POPC   C4A 4242  29.917  26.028   7.650
 3346POPC   C1B 4243  29.904  25.819   8.550
 3346POPC   C2B 4244  29.837  25.823   8.250
 3346POPC   C3B 4245  29.869  25.798   7.950
 3346POPC   C4B 4246  29.891  25.746   7.650
 3347POPC   NC3 4247   5.054  33.766   9.450
 3347POPC   PO4 4248   5.059  33.787   9.150
 3347POPC   GL1 4249   5.117  33.823   8.850
 3347POPC   GL2 4250   5.128  33.918   8.850
 3347POPC   C1A 4251   5.084  33.844   8.550
 3347POPC   D2A 4252   5.116  33.768   8.250
 3347POPC   C3A 4253   5.106  33.774   7.950
 3347POPC   C4A 4254   5.078  33.759   7.650
 3347POPC   C1B 4255   5.101  34.043   8.550
 3347POPC   C2B 4256   5.111  34.005   8.250
 3347POPC   C3B 4257   5.121  34.041   7.950
 3347POPC   C4B 4258   5.064  34.022   7.650
 3348POPC   NC3 4259  15.180  27.546   9.450
 3348POPC   PO4 4260  15.158  27.612   9.150
 3348POPC   GL1 4261  15.178  27.592   8.850
 3348POPC   GL2 4262  15.046  27.656   8.850
 3348POPC   C1A 4263  15.173  27.626   8.550
 3348POPC   D2A 4264  15.140  27.640   8.250
 3348POPC   C3A 4265  15.222  27.547   7.950
 3348POPC   C4A 4266  15.141  27.592   7.650
 3348POPC   C1B 4267  14.926  27.755   8.550
 3348POPC   C2B 4268  14.949  27.709   8.250
 3348POPC   C3B 4269  14.983  27.749   7.950
 3348POPC   C4B 4270  14.916  27.694   7.650
 3349POPC   NC3 4271  21.340  33.058   9.450
 3349POPC   PO4 4272  21.396  33.008   9.150
 3349POPC   GL1 4273  21.363  32.975   8.850
 3349POPC   GL2 4274  21.508  32.945   8.850
 3349POPC   C1A 4275  21.372  32.992   8.550
 3349POPC   D2A 4276  21.415  33.023   8.250
 3349POPC   C3A 4277  21.377  33.024   7.950
 3349POPC   C4A 4278  21.404  33.057   7.650
 3349POPC   C1B 4279  21.636  32.874   8.550
 3349POPC   C2B 4280  21.630  32.918   8.250
 3349POPC   C3B 4281  21.640  32.866   7.950
 3349POPC   C4B 4282  21.633  32.902   7.650
 3350POPC   NC3 4283  13.608  31.451   9.450
 3350POPC   PO4 4284  13.641  31.467   9.150
 3350POPC   GL1 4285  13.646  31.517   8.850
 3350POPC   GL2 4286  13.458  31.492   8.850
 3350POPC   C1A 4287  13.671  31.519   8.550
 3350POPC   D2A 4288  13.621  31.446   8.250
 3350POPC   C3A 4289  13.653  31.484   7.950
 3350POPC   C4A 4290  13.582  31.469   7.650
 3350POPC   C1B 4291  13.391  31.517   8.550
 3350POPC   C2B 4292  13.350  31.531   8.250
 3350POPC   C3B 4293  13.389  31.492   7.950
 3350POPC   C4B 4294  13.417  31.478   7.650
 3351POPC   NC3 4295   9.751  32.215   9.450
 3351POPC   PO4 4296   9.727  32.263   9.150
 3351POPC   GL1 4297   9.743  32.232   8.850
 3351POPC   GL2 4298   9.751  32.361   8.850
 3351POPC   C1A 4299   9.758  32.295   8.550
 3351POPC   D2A 4300   9.785  32.260   8.250
 3351POPC   C3A 4301   9.771  32.254   7.950
 3351POPC   C4A 4302   9.711  32.210   7.650
 3351POPC   C1B 4303   9.768  32.542   8.550
 3351POPC   C2B 4304   9.776  32.534   8.250
 3351POPC   C3B 4305   9.738  32.457   7.950
 3351POPC   C4B 4306   9.781  32.496   7.650
 3352POPC   NC3 4307  15.939  19.055   9.450
 3352POPC   PO4 4308  15.927  19.082   9.150
 3352POPC   GL1 4309  15.990  19.070   8.850
 3352POPC   GL2 4310  15.956  18.905   8.850
 3352POPC   C1A 4311  15.990  19.075   8.550
 3352POPC   D2A 4312  15.973  19.031   8.250
 3352POPC   C3A 4313  15.987  19.053   7.950
 3352POPC   C4A 4314  15.944  19.095   7.650
 3352POPC   C1B 4315  15.876  18.847   8.550
 3352POPC   C2B 4316  15.833  18.872   8.250
 3352POPC   C3B 4317  15.859  18.861   7.950
 3352POPC   C4B 4318  15.835  18.791   7.650
 3353POPC   NC3 4319   0.483  43.151   9.450
 3353POPC   PO4 4320   0.403  43.091   9.150
 3353POPC   GL1 4321   0.402  43.071   8.850
 3353POPC   GL2 4322   0.540  43.012   8.850
 3353POPC   C1A 4323   0.443  43.062   8.550
 3353POPC   D2A 4324   0.433  43.094   8.250
 3353POPC   C3A 4325   0.461  43.158   7.950
 3353POPC   C4A 4326   0.454  43.139   7.650
 3353POPC   C1B 4327   0.608  42.968   8.550
 3353POPC   C2B 4328   0.612  42.947   8.250
 3353POPC   C3B 4329   0.611  42.955   7.950
 3353POPC   C4B 4330   0.637  42.915   7.650
 3354POPC   NC3 4331  29.122   6.612   9.450
 3354POPC   PO4 4332  29.191   6.661   9.150
 3354POPC   GL1 4333  29.157   6.687   8.850
 3354POPC   GL2 4334  29.301   6.655   8.850
 3354POPC   C1A 4335  29.163   6.672   8.550
 3354POPC   D2A 4336  29.151   6.689   8.250
 3354POPC   C3A 4337  29.158   6.623   7.950
 3354POPC   C4A 4338  29.111   6.643   7.650
 3354POPC   C1B 4339  29.356   6.751   8.550
 3354POPC   C2B 4340  29.425   6.702   8.250
 3354POPC   C3B 4341  29.366   6.784   7.950
 3354POPC   C4B 4342  29.341   6.751   7.650
 3355POPC   NC3 4343  34.553  26.051   9.450
 3355POPC   PO4 4344  34.596  26.010   9.150
 3355POPC   GL1 4345  34.556  26.075   8.850
 3355POPC   GL2 4346  34.606  25.956   8.850
 3355POPC   C1A 4347  34.608  26.078   8.550
 3355POPC   D2A 4348  34.598  26.052   8.250
 3355POPC   C3A 4349  34.569  26.033   7.950
 3355POPC   C4A 4350  34.542  26.030   7.650
 3355POPC   C1B 4351  34.568  25.787   8.550
 3355POPC   C2B 4352  34.583  25.787   8.250
 3355POPC   C3B 4353  34.597  25.762   7.950
 3355POPC   C4B 4354  34.536  25.835   7.650
 3356POPC   NC3 4355   6.676  40.775   9.450
 3356POPC   PO4 4356   6.620  40.737   9.150
 3356POPC   GL1 4357   6.668  40.829   8.850
 3356POPC   GL2 4358   6.648  40.949   8.850
 3356POPC   C1A 4359   6.623  40.806   8.550
 3356POPC   D2A 4360   6.606  40.827   8.250
 3356POPC   C3A 4361   6.606  40.737   7.950
 3356POPC   C4A 4362   6.619  40.801   7.650
 3356POPC   C1B 4363   6.707  41.007   8.550
 3356POPC   C2B 4364   6.657  41.012   8.250
 3356POPC   C3B 4365   6.654  41.070   7.950
 3356POPC   C4B 4366   6.707  41.063   7.650
 3357POPC   NC3 4367  11.348  22.965   9.450
 3357POPC   PO4 4368  11.326  22.983   9.150
 3357POPC   GL1 4369  11.303  22.920   8.850
 3357POPC   GL2 4370  11.328  23.072   8.850
 3357POPC   C1A 4371  11.267  22.936   8.550
 3357POPC   D2A 4372  11.316  22.902   8.250
 3357POPC   C3A 4373  11.276  22.916   7.950
 3357POPC   C4A 4374  11.290  22.979   7.650
 3357POPC   C1B 4375  11.328  23.162   8.550
 3357POPC   C2B 4376  11.381  23.165   8.250
 3357POPC   C3B 4377  11.368  23.160   7.950
 3357POPC   C4B 4378  11.398  23.139   7.650
 3358POPC   NC3 4379  18.304   5.892   9.450
 3358POPC   PO4 4380  18.255   5.870   9.150
 3358POPC   GL1 4381  18.272   5.834   8.850
 3358POPC   GL2 4382  18.381   5.842   8.850
 3358POPC   C1A 4383  18.254   5.836   8.550
 3358POPC   D2A 4384  18.291   5.911   8.250
 3358POPC   C3A 4385  18.315   5.826   7.950
 3358POPC   C4A 4386  18.298   5.845   7.650
 3358POPC   C1B 4387  18.531   5.824   8.550
 3358POPC   C2B 4388  18.563   5.859   8.250
 3358POPC   C3B 4389  18.546   5.883   7.950
 3358POPC   C4B 4390  18.539   5.867   7.650
 3359POPC   NC3 4391  13.601  34.545   9.450
 3359POPC   PO4 4392  13.643  34.555   9.150
 3359POPC   GL1 4393  13.645  34.609   8.850
 3359POPC   GL2 4394  13.627  34.746   8.850
 3359POPC   C1A 4395  13.601  34.576   8.550
 3359POPC   D2A 4396  13.665  34.587   8.250
 3359POPC   C3A 4397  13.581  34.609   7.950
 3359POPC   C4A 4398  13.621  34.577   7.650
 3359POPC   C1B 4399  13.648  34.838   8.550
 3359POPC   C2B 4400  13.650  34.841   8.250
 3359POPC   C3B 4401  13.623  34.785   7.950
 3359POPC   C4B 4402  13.679  34.858   7.650
 3360POPC   NC3 4403  27.545   9.008   9.450
 3360POPC   PO4 4404  27.550   8.991   9.150
 3360POPC   GL1 4405  27.637   8.989   8.850
 3360POPC   GL2 4406  27.644   8.843   8.850
 3360POPC   C1A 4407  27.566   8.970   8.550
 3360POPC   D2A 4408  27.544   8.963   8.250
 3360POPC   C3A 4409  27.553   8.943   7.950
 3360POPC   C4A 4410  27.572   8.969   7.650
 3360POPC   C1B 4411  27.768   8.821   8.550
 3360POPC   C2B 4412  27.788   8.769   8.250
 3360POPC   C3B 4413  27.736   8.834   7.950
 3360POPC   C4B 4414  27.758   8.762   7.650
 3361POPC   NC3 4415   6.670  42.322   9.450
 3361POPC   PO4 4416   6.664  42.294   9.150
 3361POPC   GL1 4417   6.635  42.352   8.850
 3361POPC   GL2 4418   6.494  42.335   8.850
 3361POPC   C1A 4419   6.637  42.347   8.550
 3361POPC   D2A 4420   6.642  42.320   8.250
 3361POPC   C3A 4421   6.671  42.357   7.950
 3361POPC   C4A 4422   6.673  42.316   7.650
 3361POPC   C1B 4423   6.430  42.260   8.550
 3361POPC   C2B 4424   6.423  42.267   8.250
 3361POPC   C3B 4425   6.420  42.254   7.950
 3361POPC   C4B 4426   6.383  42.228   7.650
 3362POPC   NC3 4427  12.824  15.200   9.450
 3362POPC   PO4 4428  12.840  15.129   9.150
 3362POPC   GL1 4429  12.835  15.154   8.850
 3362POPC   GL2 4430  12.909  15.243   8.850
 3362POPC   C1A 4431  12.806  15.163   8.550
 3362POPC   D2A 4432  12.884  15.144   8.250
 3362POPC   C3A 4433  12.842  15.209   7.950
 3362POPC   C4A 4434  12.862  15.196   7.650
 3362POPC   C1B 4435  12.972  15.372   8.550
 3362POPC   C2B 4436  13.020  15.443   8.250
 3362POPC   C3B 4437  12.940  15.434   7.950
 3362POPC   C4B 4438  12.970  15.418   7.650
 3363POPC   NC3 4439  36.914  22.149   9.450
 3363POPC   PO4 4440  36.889  22.164   9.150
 3363POPC   GL1 4441  36.932  22.134   8.850
 3363POPC   GL2 4442  36.825  22.132   8.850
 3363POPC   C1A 4443  36.933  22.180   8.550
 3363POPC   D2A 4444  36.891  22.161   8.250
 3363POPC   C3A 4445  36.862  22.171   7.950
 3363POPC   C4A 4446  36.935  22.203   7.650
 3363POPC   C1B 4447  36.707  22.029   8.550
 3363POPC   C2B 4448  36.708  22.053   8.250
 3363POPC   C3B 4449  36.693  21.997   7.950
 3363POPC   C4B 4450  36.735  22.079   7.650
 3364POPC   NC3 4451  23.673  13.620   9.450
 3364POPC   PO4 4452  23.709  13.580   9.150
 3364POPC   GL1 4453  23.669  13.608   8.850
 3364POPC   GL2 4454  23.708  13.545   8.850
 3364POPC   C1A 4455  23.757  13.641   8.550
 3364POPC   D2A 4456  23.668  13.603   8.250
 3364POPC   C3A 4457  23.668  13.605   7.950
 3364POPC   C4A 4458  23.756  13.655   7.650
 3364POPC   C1B 4459  23.666  13.347   8.550
 3364POPC   C2B 4460  23.665  13.363   8.250
 3364POPC   C3B 4461  23.603  13.352   7.950
 3364POPC   C4B 4462  23.621  13.365   7.650
 3365POPC   NC3 4463  18.233   2.014   9.450
 3365POPC   PO4 4464  18.262   1.964   9.150
 3365POPC   GL1 4465  18.323   1.989   8.850
 3365POPC   GL2 4466  18.155   2.020   8.850
 3365POPC   C1A 4467  18.306   1.944   8.550
 3365POPC   D2A 4468  18.314   2.033   8.250
 3365POPC   C3A 4469  18.267   1.996   7.950
 3365POPC   C4A 4470  18.242   1.989   7.650
 3365POPC   C1B 4471  18.087   2.155   8.550
 3365POPC   C2B 4472  18.083   2.114   8.250
 3365POPC   C3B 4473  18.075   2.147   7.950
 3365POPC   C4B 4474  18.123   2.139   7.650
 3366POPC   NC3 4475  23.671  36.105   9.450
 3366POPC   PO4 4476  23.697  36.091   9.150
 3366POPC   GL1 4477  23.668  36.156   8.850
 3366POPC   GL2 4478  23.785  36.039   8.850
 3366POPC   C1A 4479  23.733  36.140   8.550
 3366POPC   D2A 4480  23.727  36.160   8.250
 3366POPC   C3A 4481  23.674  36.079   7.950
 3366POPC   C4A 4482  23.727  36.126   7.650
 3366POPC   C1B 4483  23.913  35.990   8.550
 3366POPC   C2B 4484  23.945  35.999   8.250
 3366POPC   C3B 4485  23.962  36.037   7.950
 3366POPC   C4B 4486  23.930  35.982   7.650
 3367POPC   NC3 4487  41.552  33.832   9.450
 3367POPC   PO4 4488  41.565  33.760   9.150
 3367POPC   GL1 4489  41.533  33.825   8.850
 3367POPC   GL2 4490  41.629  33.851   8.850
 3367POPC   C1A 4491  41.589  33.845   8.550
 3367POPC   D2A 4492  41.517  33.816   8.250
 3367POPC   C3A 4493  41.596  33.821   7.950
 3367POPC   C4A 4494  41.564  33.810   7.650
 3367POPC   C1B 4495  41.745  33.978   8.550
 3367POPC   C2B 4496  41.735  33.951   8.250
 3367POPC   C3B 4497  41.729  33.972   7.950
 3367POPC   C4B 4498  41.702  33.950   7.650
 3368POPC   NC3 4499  15.191   3.562   9.450
 3368POPC   PO4 4500  15.192   3.561   9.150
 3368POPC   GL1 4501  15.206   3.561   8.850
 3368POPC   GL2 4502  15.256   3.448   8.850
 3368POPC   C1A 4503  15.136   3.550   8.550
 3368POPC   D2A 4504  15.224   3.586   8.250
 3368POPC   C3A 4505  15.171   3.539   7.950
 3368POPC   C4A 4506  15.168   3.492   7.650
 3368POPC   C1B 4507  15.301   3.300   8.550
 3368POPC   C2B 4508  15.279   3.275   8.250
 3368POPC   C3B 4509  15.223   3.300   7.950
 3368POPC   C4B 4510  15.230   3.336   7.650
 3369POPC   NC3 4511  33.034  27.567   9.450
 3369POPC   PO4 4512  33.070  27.630   9.150
 3369POPC   GL1 4513  32.988  27.618   8.850
 3369POPC   GL2 4514  33.124  27.508   8.850
 3369POPC   C1A 4515  32.984  27.628   8.550
 3369POPC   D2A 4516  33.043  27.598   8.250
 3369POPC   C3A 4517  33.010  27.615   7.950
 3369POPC   C4A 4518  33.039  27.625   7.650
 3369POPC   C1B 4519  33.114  27.406   8.550
 3369POPC   C2B 4520  33.114  27.368   8.250
 3369POPC   C3B 4521  33.088  27.333   7.950
 3369POPC   C4B 4522  33.140  27.414   7.650
 3370POPC   NC3 4523   7.392  15.136   9.450
 3370POPC   PO4 4524   7.396  15.228   9.150
 3370POPC   GL1 4525   7.464  15.216   8.850
 3370POPC   GL2 4526   7.335  15.107   8.850
 3370POPC   C1A 4527   7.420  15.222   8.550
 3370POPC   D2A 4528   7.426  15.156   8.250
 3370POPC   C3A 4529   7.466  15.140   7.950
 3370POPC   C4A 4530   7.420  15.201   7.650
 3370POPC   C1B 4531   7.289  15.004   8.550
 3370POPC   C2B 4532   7.285  15.026   8.250
 3370POPC   C3B 4533   7.239  15.026   7.950
 3370POPC   C4B 4534   7.236  14.953   7.650
 3371POPC   NC3 4535  30.720  15.187   9.450
 3371POPC   PO4 4536  30.656  15.226   9.150
 3371POPC   GL1 4537  30.742  15.157   8.850
 3371POPC   GL2 4538  30.681  15.059   8.850
 3371POPC   C1A 4539  30.733  15.193   8.550
 3371POPC   D2A 4540  30.705  15.222   8.250
 3371POPC   C3A 4541  30.704  15.184   7.950
 3371POPC   C4A 4542  30.676  15.129   7.650
 3371POPC   C1B 4543  30.579  15.015   8.550
 3371POPC   C2B 4544  30.535  14.979   8.250
 3371POPC   C3B 4545  30.576  14.959   7.950
 3371POPC   C4B 4546  30.528  14.979   7.650
 3372POPC   NC3 4547  24.451  31.519   9.450
 3372POPC   PO4 4548  24.495  31.510   9.150
 3372POPC   GL1 4549  24.515  31.493   8.850
 3372POPC   GL2 4550  24.563  31.552   8.850
 3372POPC   C1A 4551  24.508  31.452   8.550
 3372POPC   D2A 4552  24.458  31.461   8.250
 3372POPC   C3A 4553  24.470  31.505   7.950
 3372POPC   C4A 4554  24.496  31.479   7.650
 3372POPC   C1B 4555  24.699  31.610   8.550
 3372POPC   C2B 4556  24.657  31.612   8.250
 3372POPC   C3B 4557  24.658  31.618   7.950
 3372POPC   C4B 4558  24.659  31.577   7.650
 3373POPC   NC3 4559  15.183  26.068   9.450
 3373POPC   PO4 4560  15.186  25.993   9.150
 3373POPC   GL1 4561  15.149  26.017   8.850
 3373POPC   GL2 4562  15.281  26.159   8.850
 3373POPC   C1A 4563  15.189  26.068   8.550
 3373POPC   D2A 4564  15.229  26.090   8.250
 3373POPC   C3A 4565  15.166  26.055   7.950
 3373POPC   C4A 4566  15.180  26.082   7.650
 3373POPC   C1B 4567  15.371  26.215   8.550
 3373POPC   C2B 4568  15.412  26.157   8.250
 3373POPC   C3B 4569  15.361  26.139   7.950
 3373POPC   C4B 4570  15.417  26.147   7.650
 3374POPC   NC3 4571   9.007  19.820   9.450
 3374POPC   PO4 4572   8.949  19.790   9.150
 3374POPC   GL1 4573   9.022  19.862   8.850
 3374POPC   GL2 4574   8.879  19.673   8.850
 3374POPC   C1A 4575   8.961  19.799   8.550
 3374POPC   D2A 4576   8.965  19.834   8.250
 3374POPC   C3A 4577   9.022  19.805   7.950
 3374POPC   C4A 4578   8.941  19.864   7.650
 3374POPC   C1B 4579   8.841  19.647   8.550
 3374POPC   C2B 4580   8.890  19.661   8.250
 3374POPC   C3B 4581   8.879  19.657   7.950
 3374POPC   C4B 4582   8.871  19.584   7.650
 3375POPC   NC3 4583  29.125  10.511   9.450
 3375POPC   PO4 4584  29.176  10.487   9.150
 3375POPC   GL1 4585  29.107  10.477   8.850
 3375POPC   GL2 4586  29.208  10.665   8.850
 3375POPC   C1A 4587  29.101  10.537   8.550
 3375POPC   D2A 4588  29.121  10.542   8.250
 3375POPC   C3A 4589  29.095  10.507   7.950
 3375POPC   C4A 4590  29.138  10.567   7.650
 3375POPC   C1B 4591  29.223  10.705   8.550
 3375POPC   C2B 4592  29.284  10.722   8.250
 3375POPC   C3B 4593  29.223  10.726   7.950
 3375POPC   C4B 4594  29.273  10.779   7.650
 3376POPC   NC3 4595  32.233  29.146   9.450
 3376POPC   PO4 4596  32.293  29.153   9.150
 3376POPC   GL1 4597  32.289  29.178   8.850
 3376POPC   GL2 4598  32.088  29.232   8.850
 3376POPC   C1A 4599  32.251  29.186   8.550
 3376POPC   D2A 4600  32.217  29.133   8.250
 3376POPC   C3A 4601  32.276  29.119   7.950
 3376POPC   C4A 4602  32.233  29.133   7.650
 3376POPC   C1B 4603  32.040  29.227   8.550
 3376POPC   C2B 4604  31.978  29.258   8.250
 3376POPC   C3B 4605  32.029  29.270   7.950
 3376POPC   C4B 4606  32.023  29.268   7.650
 3377POPC   NC3 4607   5.105   9.794   9.450
 3377POPC   PO4 4608   5.061   9.703   9.150
 3377POPC   GL1 4609   5.062   9.720   8.850
 3377POPC   GL2 4610   5.042   9.820   8.850
 3377POPC   C1A 4611   5.088   9.717   8.550
 3377POPC   D2A 4612   5.095   9.728   8.250
 3377POPC   C3A 4613   5.110   9.724   7.950
 3377POPC   C4A 4614   5.123   9.735   7.650
 3377POPC   C1B 4615   4.890   9.908   8.550
 3377POPC   C2B 4616   4.940   9.934   8.250
 3377POPC   C3B 4617   4.976   9.964   7.950
 3377POPC   C4B 4618   4.915   9.980   7.650
 3378POPC   NC3 4619  14.410  12.813   9.450
 3378POPC   PO4 4620  14.406  12.849   9.150
 3378POPC   GL1 4621  14.366  12.879   8.850
 3378POPC   GL2 4622  14.529  12.942   8.850
 3378POPC   C1A 4623  14.444  12.830   8.550
 3378POPC   D2A 4624  14.434  12.866   8.250
 3378POPC   C3A 4625  14.419  12.825   7.950
 3378POPC   C4A 4626  14.407  12.805   7.650
 3378POPC   C1B 4627  14.569  12.962   8.550
 3378POPC   C2B 4628  14.563  13.008   8.250
 3378POPC   C3B 4629  14.592  12.997   7.950
 3378POPC   C4B 4630  14.558  12.979   7.650
 3379POPC   NC3 4631  39.989  15.176   9.450
 3379POPC   PO4 4632  39.972  15.206   9.150
 3379POPC   GL1 4633  40.028  15.215   8.850
 3379POPC   GL2 4634  40.033  15.045   8.850
 3379POPC   C1A 4635  40.050  15.221   8.550
 3379POPC   D2A 4636  40.021  15.179   8.250
 3379POPC   C3A 4637  39.984  15.145   7.950
 3379POPC   C4A 4638  39.981  15.159   7.650
 3379POPC   C1B 4639  39.998  14.936   8.550
 3379POPC   C2B 4640  40.011  14.918   8.250
 3379POPC   C3B 4641  40.002  14.964   7.950
 3379POPC   C4B 4642  40.035  14.897   7.650
 3380POPC   NC3 4643  39.274  16.754   9.450
 3380POPC   PO4 4644  39.206  16.698   9.150
 3380POPC   GL1 4645  39.187  16.711   8.850
 3380POPC   GL2 4646  39.285  16.884   8.850
 3380POPC   C1A 4647  39.252  16.705   8.550
 3380POPC   D2A 4648  39.278  16.779   8.250
 3380POPC   C3A 4649  39.268  16.706   7.950
 3380POPC   C4A 4650  39.236  16.751   7.650
 3380POPC   C1B 4651  39.263  16.949   8.550
 3380POPC   C2B 4652  39.311  17.004   8.250
 3380POPC   C3B 4653  39.283  17.013   7.950
 3380POPC   C4B 4654  39.251  16.958   7.650
 3381POPC   NC3 4655  32.228  33.764   9.450
 3381POPC   PO4 4656  32.278  33.840   9.150
 3381POPC   GL1 4657  32.273  33.802   8.850
 3381POPC   GL2 4658  32.368  33.725   8.850
 3381POPC   C1A 4659  32.259  33.837   8.550
 3381POPC   D2A 4660  32.210  33.808   8.250
 3381POPC   C3A 4661  32.230  33.758   7.950
 3381POPC   C4A 4662  32.241  33.816   7.650
 3381POPC   C1B 4663  32.481  33.706   8.550
 3381POPC   C2B 4664  32.487  33.740   8.250
 3381POPC   C3B 4665  32.484  33.708   7.950
 3381POPC   C4B 4666  32.468  33.744   7.650
 3382POPC   NC3 4667   1.193   9.001   9.450
 3382POPC   PO4 4668   1.180   9.002   9.150
 3382POPC   GL1 4669   1.261   8.980   8.850
 3382POPC   GL2 4670   1.151   9.065   8.850
 3382POPC   C1A 4671   1.178   9.021   8.550
 3382POPC   D2A 4672   1.246   8.936   8.250
 3382POPC   C3A 4673   1.198   8.967   7.950
 3382POPC   C4A 4674   1.235   8.975   7.650
 3382POPC   C1B 4675   1.096   9.195   8.550
 3382POPC   C2B 4676   1.138   9.185   8.250
 3382POPC   C3B 4677   1.133   9.242   7.950
 3382POPC   C4B 4678   1.121   9.190   7.650
 3383POPC   NC3 4679  18.315  13.648   9.450
 3383POPC   PO4 4680  18.288  13.592   9.150
 3383POPC   GL1 4681  18.279  13.593   8.850
 3383POPC   GL2 4682  18.281  13.735   8.850
 3383POPC   C1A 4683  18.242  13.601   8.550
 3383POPC   D2A 4684  18.285  13.661   8.250
 3383POPC   C3A 4685  18.331  13.597   7.950
 3383POPC   C4A 4686  18.246  13.621   7.650
 3383POPC   C1B 4687  18.296  13.908   8.550
 3383POPC   C2B 4688  18.340  13.893   8.250
 3383POPC   C3B 4689  18.364  13.831   7.950
 3383POPC   C4B 4690  18.323  13.871   7.650
 3384POPC   NC3 4691  36.086  15.971   9.450
 3384POPC   PO4 4692  36.176  15.947   9.150
 3384POPC   GL1 4693  36.111  15.926   8.850
 3384POPC   GL2 4694  35.979  15.902   8.850
 3384POPC   C1A 4695  36.111  15.940   8.550
 3384POPC   D2A 4696  36.082  15.939   8.250
 3384POPC   C3A 4697  36.088  15.974   7.950
 3384POPC   C4A 4698  36.138  15.948   7.650
 3384POPC   C1B 4699  35.926  15.844   8.550
 3384POPC   C2B 4700  35.970  15.836   8.250
 3384POPC   C3B 4701  35.917  15.771   7.950
 3384POPC   C4B 4702  35.954  15.801   7.650
 3385POPC   NC3 4703  41.580  17.531   9.450
 3385POPC   PO4 4704  41.601  17.506   9.150
 3385POPC   GL1 4705  41.566  17.472   8.850
 3385POPC   GL2 4706  41.465  17.502   8.850
 3385POPC   C1A 4707  41.569  17.476   8.550
 3385POPC   D2A 4708  41.581  17.474   8.250
 3385POPC   C3A 4709  41.571  17.464   7.950
 3385POPC   C4A 4710  41.549  17.502   7.650
 3385POPC   C1B 4711  41.336  17.597   8.550
 3385POPC   C2B 4712  41.314  17.606   8.250
 3385POPC   C3B 4713  41.287  17.594   7.950
 3385POPC   C4B 4714  41.350  17.580   7.650
 3386POPC   NC3 4715   7.375  27.634   9.450
 3386POPC   PO4 4716   7.372  27.601   9.150
 3386POPC   GL1 4717   7.410  27.544   8.850
 3386POPC   GL2 4718   7.538  27.600   8.850
 3386POPC   C1A 4719   7.464  27.598   8.550
 3386POPC   D2A 4720   7.384  27.556   8.250
 3386POPC   C3A 4721   7.387  27.621   7.950
 3386POPC   C4A 4722   7.453  27.628   7.650
 3386POPC   C1B 4723   7.638  27.546   8.550
 3386POPC   C2B 4724   7.694  27.567   8.250
 3386POPC   C3B 4725   7.623  27.550   7.950
 3386POPC   C4B 4726   7.663  27.557   7.650
 3387POPC   NC3 4727  14.380   5.894   9.450
 3387POPC   PO4 4728  14.384   5.842   9.150
 3387POPC   GL1 4729  14.359   5.875   8.850
 3387POPC   GL2 4730  14.504   5.958   8.850
 3387POPC   C1A 4731  14.362   5.918   8.550
 3387POPC   D2A 4732  14.393   5.886   8.250
 3387POPC   C3A 4733  14.407   5.819   7.950
 3387POPC   C4A 4734  14.419   5.897   7.650
 3387POPC   C1B 4735  14.595   6.082   8.550
 3387POPC   C2B 4736  14.567   6.031   8.250
 3387POPC   C3B 4737  14.505   6.040   7.950
 3387POPC   C4B 4738  14.521   6.038   7.650
 3388POPC   NC3 4739  35.385   0.470   9.450
 3388POPC   PO4 4740  35.387   0.486   9.150
 3388POPC   GL1 4741  35.361   0.479   8.850
 3388POPC   GL2 4742  35.213   0.529   8.850
 3388POPC   C1A 4743  35.323   0.408   8.550
 3388POPC   D2A 4744  35.347   0.409   8.250
 3388POPC   C3A 4745  35.386   0.475   7.950
 3388POPC   C4A 4746  35.317   0.461   7.650
 3388POPC   C1B 4747  35.169   0.624   8.550
 3388POPC   C2B 4748  35.146   0.621   8.250
 3388POPC   C3B 4749  35.155   0.619   7.950
 3388POPC   C4B 4750  35.106   0.566   7.650
 3389POPC   NC3 4751  24.507   9.701   9.450
 3389POPC   PO4 4752  24.537   9.797   9.150
 3389POPC   GL1 4753  24.514   9.795   8.850
 3389POPC   GL2 4754  24.490   9.627   8.850
 3389POPC   C1A 4755  24.454   9.791   8.550
 3389POPC   D2A 4756  24.480   9.794   8.250
 3389POPC   C3A 4757  24.531   9.760   7.950
 3389POPC   C4A 4758  24.462   9.738   7.650
 3389POPC   C1B 4759  24.576   9.507   8.550
 3389POPC   C2B 4760  24.548   9.550   8.250
 3389POPC   C3B 4761  24.550   9.479   7.950
 3389POPC   C4B 4762  24.564   9.551   7.650
 3390POPC   NC3 4763  26.058  40.024   9.450
 3390POPC   PO4 4764  26.044  40.041   9.150
 3390POPC   GL1 4765  26.067  39.964   8.850
 3390POPC   GL2 4766  25.887  40.064   8.850
 3390POPC   C1A 4767  26.001  40.008   8.550
 3390POPC   D2A 4768  26.029  39.969   8.250
 3390POPC   C3A 4769  26.087  39.983   7.950
 3390POPC   C4A 4770  25.998  40.005   7.650
 3390POPC   C1B 4771  25.754  40.077   8.550
 3390POPC   C2B 4772  25.844  40.065   8.250
 3390POPC   C3B 4773  25.755  40.043   7.950
 3390POPC   C4B 4774  25.749  40.090   7.650
 3391POPC   NC3 4775   2.001  44.624   9.450
 3391POPC   PO4 4776   2.002  44.623   9.150
 3391POPC   GL1 4777   2.012  44.615   8.850
 3391POPC   GL2 4778   1.973  44.494   8.850
 3391POPC   C1A 4779   1.969  44.659   8.550
 3391POPC   D2A 4780   1.970  44.691   8.250
 3391POPC   C3A 4781   1.944  44.631   7.950
 3391POPC   C4A 4782   1.969  44.665   7.650
 3391POPC   C1B 4783   1.959  44.398   8.550
 3391POPC   C2B 4784   1.978  44.463   8.250
 3391POPC   C3B 4785   1.961  44.371   7.950
 3391POPC   C4B 4786   1.968  44.439   7.650
 3392POPC   NC3 4787  31.489  23.727   9.450
 3392POPC   PO4 4788  31.510  23.727   9.150
 3392POPC   GL1 4789  31.462  23.762   8.850
 3392POPC   GL2 4790  31.629  23.778   8.850
 3392POPC   C1A 4791  31.463  23.710   8.550
 3392POPC   D2A 4792  31.455  23.712   8.250
 3392POPC   C3A 4793  31.443  23.733   7.950
 3392POPC   C4A 4794  31.438  23.677   7.650
 3392POPC   C1B 4795  31.668  23.833   8.550
 3392POPC   C2B 4796  31.675  23.763   8.250
 3392POPC   C3B 4797  31.673  23.819   7.950
 3392POPC   C4B 4798  31.687  23.792   7.650
 3393POPC   NC3 4799  44.632  20.660   9.450
 3393POPC   PO4 4800  44.709  20.653   9.150
 3393POPC   GL1 4801  44.643  20.641   8.850
 3393POPC   GL2 4802  44.588  20.628   8.850
 3393POPC   C1A 4803  44.686  20.589   8.550
 3393POPC   D2A 4804  44.675  20.658   8.250
 3393POPC   C3A 4805  44.675  20.598   7.950
 3393POPC   C4A 4806  44.659  20.606   7.650
 3393POPC   C1B 4807  44.386  20.634   8.550
 3393POPC   C2B 4808  44.367  20.645   8.250
 3393POPC   C3B 4809  44.401  20.688   7.950
 3393POPC   C4B 4810  44.419  20.659   7.650
 3394POPC   NC3 4811   6.651  17.519   9.450
 3394POPC   PO4 4812   6.672  17.524   9.150
 3394POPC   GL1 4813   6.611  17.542   8.850
 3394POPC   GL2 4814   6.699  17.428   8.850
 3394POPC   C1A 4815   6.664  17.550   8.550
 3394POPC   D2A 4816   6.645  17.465   8.250
 3394POPC   C3A 4817   6.600  17.466   7.950
 3394POPC   C4A 4818   6.608  17.484   7.650
 3394POPC   C1B 4819   6.751  17.264   8.550
 3394POPC   C2B 4820   6.694  17.226   8.250
 3394POPC   C3B 4821   6.728  17.257   7.950
 3394POPC   C4B 4822   6.746  17.267   7.650
 3395POPC   NC3 4823   6.659   1.170   9.450
 3395POPC   PO4 4824   6.689   1.205   9.150
 3395POPC   GL1 4825   6.623   1.198   8.850
 3395POPC   GL2 4826   6.577   1.381   8.850
 3395POPC   C1A 4827   6.689   1.192   8.550
 3395POPC   D2A 4828   6.618   1.212   8.250
 3395POPC   C3A 4829   6.659   1.225   7.950
 3395POPC   C4A 4830   6.665   1.250   7.650
 3395POPC   C1B 4831   6.545   1.435   8.550
 3395POPC   C2B 4832   6.544   1.435   8.250
 3395POPC   C3B 4833   6.613   1.412   7.950
 3395POPC   C4B 4834   6.546   1.475   7.650
 3396POPC   NC3 4835  42.298   6.626   9.450
 3396POPC   PO4 4836  42.383   6.605   9.150
 3396POPC   GL1 4837  42.310   6.637   8.850
 3396POPC   GL2 4838  42.341   6.775   8.850
 3396POPC   C1A 4839  42.354   6.673   8.550
 3396POPC   D2A 4840  42.301   6.691   8.250
 3396POPC   C3A 4841  42.328   6.659   7.950
 3396POPC   C4A 4842  42.287   6.603   7.650
 3396POPC   C1B 4843  42.284   6.876   8.550
 3396POPC   C2B 4844  42.295   6.907   8.250
 3396POPC   C3B 4845  42.318   6.916   7.950
 3396POPC   C4B 4846  42.338   6.860   7.650
 3397POPC   NC3 4847  14.388   9.762   9.450
 3397POPC   PO4 4848  14.451   9.738   9.150
 3397POPC   GL1 4849  14.359   9.699   8.850
 3397POPC   GL2 4850  14.330   9.669   8.850
 3397POPC   C1A 4851  14.400   9.760   8.550
 3397POPC   D2A 4852  14.394   9.721   8.250
 3397POPC   C3A 4853  14.421   9.792   7.950
 3397POPC   C4A 4854  14.403   9.795   7.650
 3397POPC   C1B 4855  14.235   9.604   8.550
 3397POPC   C2B 4856  14.178   9.607   8.250
 3397POPC   C3B 4857  14.173   9.606   7.950
 3397POPC   C4B 4858  14.186   9.650   7.650
 3398POPC   NC3 4859  29.120  11.285   9.450
 3398POPC   PO4 4860  29.103  11.263   9.150
 3398POPC   GL1 4861  29.106  11.291   8.850
 3398POPC   GL2 4862  29.220  11.301   8.850
 3398POPC   C1A 4863  29.133  11.274   8.550
 3398POPC   D2A 4864  29.162  11.302   8.250
 3398POPC   C3A 4865  29.159  11.336   7.950
 3398POPC   C4A 4866  29.097  11.281   7.650
 3398POPC   C1B 4867  29.403  11.289   8.550
 3398POPC   C2B 4868  29.391  11.280   8.250
 3398POPC   C3B 4869  29.360  11.257   7.950
 3398POPC   C4B 4870  29.390  11.327   7.650
 3399POPC   NC3 4871  34.576   5.911   9.450
 3399POPC   PO4 4872  34.526   5.885   9.150
 3399POPC   GL1 4873  34.529   5.857   8.850
 3399POPC   GL2 4874  34.434   5.872   8.850
 3399POPC   C1A 4875  34.546   5.888   8.550
 3399POPC   D2A 4876  34.615   5.866   8.250
 3399POPC   C3A 4877  34.584   5.908   7.950
 3399POPC   C4A 4878  34.568   5.905   7.650
 3399POPC   C1B 4879  34.292   5.897   8.550
 3399POPC   C2B 4880  34.310   5.909   8.250
 3399POPC   C3B 4881  34.365   5.906   7.950
 3399POPC   C4B 4882  34.353   5.969   7.650
 3400POPC   NC3 4883  19.862  14.406   9.450
 3400POPC   PO4 4884  19.806  14.391   9.150
 3400POPC   GL1 4885  19.874  14.371   8.850
 3400POPC   GL2 4886  19.748  14.552   8.850
 3400POPC   C1A 4887  19.817  14.416   8.550
 3400POPC   D2A 4888  19.854  14.449   8.250
 3400POPC   C3A 4889  19.810  14.438   7.950
 3400POPC   C4A 4890  19.836  14.381   7.650
 3400POPC   C1B 4891  19.755  14.609   8.550
 3400POPC   C2B 4892  19.679  14.624   8.250
 3400POPC   C3B 4893  19.706  14.609   7.950
 3400POPC   C4B 4894  19.700  14.649   7.650
 3401POPC   NC3 4895  38.436  23.695   9.450
 3401POPC   PO4 4896  38.450  23.700   9.150
 3401POPC   GL1 4897  38.442  23.717   8.850
 3401POPC   GL2 4898  38.367  23.554   8.850
 3401POPC   C1A 4899  38.495  23.758   8.550
 3401POPC   D2A 4900  38.425  23.726   8.250
 3401POPC   C3A 4901  38.470  23.687   7.950
 3401POPC   C4A 4902  38.470  23.721   7.650
 3401POPC   C1B 4903  38.306  23.451   8.550
 3401POPC   C2B 4904  38.296  23.519   8.250
 3401POPC   C3B 4905  38.363  23.512   7.950
 3401POPC   C4B 4906  38.305  23.444   7.650
 3402POPC   NC3 4907  34.604  42.286   9.450
 3402POPC   PO4 4908  34.596  42.308   9.150
 3402POPC   GL1 4909  34.548  42.384   8.850
 3402POPC   GL2 4910  34.465  42.415   8.850
 3402POPC   C1A 4911  34.546  42.335   8.550
 3402POPC   D2A 4912  34.560  42.309   8.250
 3402POPC   C3A 4913  34.595  42.358   7.950
 3402POPC   C4A 4914  34.593  42.294   7.650
 3402POPC   C1B 4915  34.374  42.454   8.550
 3402POPC   C2B 4916  34.345  42.451   8.250
 3402POPC   C3B 4917  34.380  42.458   7.950
 3402POPC   C4B 4918  34.321  42.443   7.650
 3403POPC   NC3 4919  11.294   2.034   9.450
 3403POPC   PO4 4920  11.341   1.948   9.150
 3403POPC   GL1 4921  11.279   1.964   8.850
 3403POPC   GL2 4922  11.290   2.148   8.850
 3403POPC   C1A 4923  11.316   1.974   8.550
 3403POPC   D2A 4924  11.257   1.988   8.250
 3403POPC   C3A 4925  11.347   1.992   7.950
 3403POPC   C4A 4926  11.329   2.010   7.650
 3403POPC   C1B 4927  11.357   2.268   8.550
 3403POPC   C2B 4928  11.378   2.259   8.250
 3403POPC   C3B 4929  11.352   2.240   7.950
 3403POPC   C4B 4930  11.319   2.264   7.650
 3404POPC   NC3 4931  14.385   8.931   9.450
 3404POPC   PO4 4932  14.372   8.924   9.150
 3404POPC   GL1 4933  14.356   8.999   8.850
 3404POPC   GL2 4934  14.342   8.934   8.850
 3404POPC   C1A 4935  14.354   8.964   8.550
 3404POPC   D2A 4936  14.359   8.977   8.250
 3404POPC   C3A 4937  14.427   8.945   7.950
 3404POPC   C4A 4938  14.374   9.014   7.650
 3404POPC   C1B 4939  14.150   8.886   8.550
 3404POPC   C2B 4940  14.207   8.865   8.250
 3404POPC   C3B 4941  14.204   8.839   7.950
 3404POPC   C4B 4942  14.133   8.851   7.650
 3405POPC   NC3 4943   6.693   3.495   9.450
 3405POPC   PO4 4944   6.688   3.523   9.150
 3405POPC   GL1 4945   6.645   3.498   8.850
 3405POPC   GL2 4946   6.611   3.388   8.850
 3405POPC   C1A 4947   6.682   3.531   8.550
 3405POPC   D2A 4948   6.634   3.544   8.250
 3405POPC   C3A 4949   6.656   3.549   7.950
 3405POPC   C4A 4950   6.640   3.509   7.650
 3405POPC   C1B 4951   6.539   3.313   8.550
 3405POPC   C2B 4952   6.593   3.320   8.250
 3405POPC   C3B 4953   6.549   3.340   7.950
 3405POPC   C4B 4954   6.591   3.348   7.650
 3406POPC   NC3 4955  26.820  22.957   9.450
 3406POPC   PO4 4956  26.865  22.966   9.150
 3406POPC   GL1 4957  26.805  22.947   8.850
 3406POPC   GL2 4958  26.938  22.883   8.850
 3406POPC   C1A 4959  26.858  22.933   8.550
 3406POPC   D2A 4960  26.851  22.928   8.250
 3406POPC   C3A 4961  26.775  22.917   7.950
 3406POPC   C4A 4962  26.867  22.914   7.650
 3406POPC   C1B 4963  26.943  22.785   8.550
 3406POPC   C2B 4964  26.955  22.785   8.250
 3406POPC   C3B 4965  26.964  22.713   7.950
 3406POPC   C4B 4966  26.996  22.754   7.650
 3407POPC   NC3 4967  22.959  37.723   9.450
 3407POPC   PO4 4968  22.923  37.632   9.150
 3407POPC   GL1 4969  22.930  37.705   8.850
 3407POPC   GL2 4970  23.019  37.759   8.850
 3407POPC   C1A 4971  22.942  37.698   8.550
 3407POPC   D2A 4972  22.945  37.652   8.250
 3407POPC   C3A 4973  22.959  37.678   7.950
 3407POPC   C4A 4974  22.962  37.672   7.650
 3407POPC   C1B 4975  23.167  37.839   8.550
 3407POPC   C2B 4976  23.157  37.806   8.250
 3407POPC   C3B 4977  23.201  37.817   7.950
 3407POPC   C4B 4978  23.131  37.829   7.650
 3408POPC   NC3 4979  17.461  19.014   9.450
 3408POPC   PO4 4980  17.461  19.050   9.150
 3408POPC   GL1 4981  17.499  19.092   8.850
 3408POPC   GL2 4982  17.522  19.222   8.850
 3408POPC   C1A 4983  17.471  19.042   8.550
 3408POPC   D2A 4984  17.534  19.094   8.250
 3408POPC   C3A 4985  17.511  19.092   7.950
 3408POPC   C4A 4986  17.505  19.058   7.650
 3408POPC   C1B 4987  17.596  19.275   8.550
 3408POPC   C2B 4988  17.638  19.271   8.250
 3408POPC   C3B 4989  17.613  19.308   7.950
 3408POPC   C4B 4990  17.565  19.292   7.650
 3409POPC   NC3 4991  16.757  12.086   9.450
 3409POPC   PO4 4992  16.732  12.041   9.150
 3409POPC   GL1 4993  16.686  12.045   8.850
 3409POPC   GL2 4994  16.687  12.191   8.850
 3409POPC   C1A 4995  16.780  12.062   8.550
 3409POPC   D2A 4996  16.781  12.099   8.250
 3409POPC   C3A 4997  16.701  12.027   7.950
 3409POPC   C4A 4998  16.684  12.067   7.650
 3409POPC   C1B 4999  16.652  12.311   8.550
 3409POPC   C2B 5000  16.686  12.350   8.250
 3409POPC   C3B 5001  16.628  12.333   7.950
 3409POPC   C4B 5002  16.710  12.280   7.650
 3410POPC   NC3 5003  11.313  12.086   9.450
 3410POPC   PO4 5004  11.281  12.081   9.150
 3410POPC   GL1 5005  11.256  12.034   8.850
 3410POPC   GL2 5006  11.403  11.980   8.850
 3410POPC   C1A 5007  11.294  12.110   8.550
 3410POPC   D2A 5008  11.302  12.073   8.250
 3410POPC   C3A 5009  11.317  12.063   7.950
 3410POPC   C4A 5010  11.261  12.041   7.650
 3410POPC   C1B 5011  11.470  11.891   8.550
 3410POPC   C2B 5012  11.463  11.908   8.250
 3410POPC   C3B 5013  11.454  11.861   7.950
 3410POPC   C4B 5014  11.439  11.884   7.650
 3411POPC   NC3 5015  25.220  43.149   9.450
 3411POPC   PO4 5016  25.281  43.070   9.150
 3411POPC   GL1 5017  25.270  43.142   8.850
 3411POPC   GL2 5018  25.305  42.949   8.850
 3411POPC   C1A 5019  25.313  43.097   8.550
 3411POPC   D2A 5020  25.228  43.088   8.250
 3411POPC   C3A 5021  25.307  43.135   7.950
 3411POPC   C4A 5022  25.260  43.107   7.650
 3411POPC   C1B 5023  25.363  42.847   8.550
 3411POPC   C2B 5024  25.351  42.841   8.250
 3411POPC   C3B 5025  25.358  42.838   7.950
 3411POPC   C4B 5026  25.331  42.874   7.650
 3412POPC   NC3 5027  40.049   0.479   9.450
 3412POPC   PO4 5028  40.010   0.420   9.150
 3412POPC   GL1 5029  40.002   0.479   8.850
 3412POPC   GL2 5030  40.011   0.269   8.850
 3412POPC   C1A 5031  40.015   0.437   8.550
 3412POPC   D2A 5032  40.024   0.401   8.250
 3412POPC   C3A 5033  39.992   0.413   7.950
 3412POPC   C4A 5034  39.990   0.471   7.650
 3412POPC   C1B 5035  40.039   0.204   8.550
 3412POPC   C2B 5036  40.037   0.237   8.250
 3412POPC   C3B 5037  39.983   0.151   7.950
 3412POPC   C4B 5038  40.007   0.198   7.650
 3413POPC   NC3 5039   3.533  32.216   9.450
 3413POPC   PO4 5040   3.585  32.246   9.150
 3413POPC   GL1 5041   3.547  32.226   8.850
 3413POPC   GL2 5042   3.404  32.295   8.850
 3413POPC   C1A 5043   3.508  32.223   8.550
 3413POPC   D2A 5044   3.543  32.227   8.250
 3413POPC   C3A 5045   3.587  32.276   7.950
 3413POPC   C4A 5046   3.570  32.206   7.650
 3413POPC   C1B 5047   3.312  32.386   8.550
 3413POPC   C2B 5048   3.337  32.332   8.250
 3413POPC   C3B 5049   3.290  32.345   7.950
 3413POPC   C4B 5050   3.286  32.318   7.650
 3414POPC   NC3 5051  29.921   8.211   9.450
 3414POPC   PO4 5052  29.875   8.215   9.150
 3414POPC   GL1 5053  29.904   8.169   8.850
 3414POPC   GL2 5054  29.941   8.082   8.850
 3414POPC   C1A 5055  29.907   8.190   8.550
 3414POPC   D2A 5056  29.872   8.162   8.250
 3414POPC   C3A 5057  29.943   8.156   7.950
 3414POPC   C4A 5058  29.902   8.147   7.650
 3414POPC   C1B 5059  29.978   7.997   8.550
 3414POPC   C2B 5060  29.978   7.988   8.250
 3414POPC   C3B 5061  29.988   7.957   7.950
 3414POPC   C4B 5062  30.068   7.974   7.650
 3415POPC   NC3 5063  27.600  36.947   9.450
 3415POPC   PO4 5064  27.567  36.874   9.150
 3415POPC   GL1 5065  27.545  36.906   8.850
 3415POPC   GL2 5066  27.705  37.007   8.850
 3415POPC   C1A 5067  27.554  36.906   8.550
 3415POPC   D2A 5068  27.610  36.886   8.250
 3415POPC   C3A 5069  27.597  36.928   7.950
 3415POPC   C4A 5070  27.599  36.931   7.650
 3415POPC   C1B 5071  27.770  37.066   8.550
 3415POPC   C2B 5072  27.742  37.080   8.250
 3415POPC   C3B 5073  27.787  37.105   7.950
 3415POPC   C4B 5074  27.723  37.143   7.650
 3416POPC   NC3 5075  38.432  38.415   9.450
 3416POPC   PO4 5076  38.438  38.463   9.150
 3416POPC   GL1 5077  38.409  38.487   8.850
 3416POPC   GL2 5078  38.626  38.424   8.850
 3416POPC   C1A 5079  38.494  38.469   8.550
 3416POPC   D2A 5080  38.470  38.500   8.250
 3416POPC   C3A 5081  38.500  38.473   7.950
 3416POPC   C4A 5082  38.406  38.408   7.650
 3416POPC   C1B 5083  38.729  38.462   8.550
 3416POPC   C2B 5084  38.687  38.430   8.250
 3416POPC   C3B 5085  38.660  38.396   7.950
 3416POPC   C4B 5086  38.680  38.471   7.650
 3417POPC   NC3 5087   0.404  25.310   9.450
 3417POPC   PO4 5088   0.420  25.230   9.150
 3417POPC   GL1 5089   0.402  25.255   8.850
 3417POPC   GL2 5090   0.479  25.170   8.850
 3417POPC   C1A 5091   0.422  25.275   8.550
 3417POPC   D2A 5092   0.437  25.244   8.250
 3417POPC   C3A 5093   0.437  25.309   7.950
 3417POPC   C4A 5094   0.439  25.246   7.650
 3417POPC   C1B 5095   0.596  25.088   8.550
 3417POPC   C2B 5096   0.580  25.080   8.250
 3417POPC   C3B 5097   0.616  25.057   7.950
 3417POPC   C4B 5098   0.598  25.056   7.650
 3418POPC   NC3 5099  31.495   1.953   9.450
 3418POPC   PO4 5100  31.503   2.000   9.150
 3418POPC   GL1 5101  31.448   2.032   8.850
 3418POPC   GL2 5102  31.578   2.088   8.850
 3418POPC   C1A 5103  31.427   2.038   8.550
 3418POPC   D2A 5104  31.427   1.945   8.250
 3418POPC   C3A 5105  31.506   2.021   7.950
 3418POPC   C4A 5106  31.459   2.013   7.650
 3418POPC   C1B 5107  31.744   2.106   8.550
 3418POPC   C2B 5108  31.689   2.129   8.250
 3418POPC   C3B 5109  31.722   2.101   7.950
 3418POPC   C4B 5110  31.670   2.060   7.650
 3419POPC   NC3 5111   9.018  23.668   9.450
 3419POPC   PO4 5112   8.937  23.730   9.150
 3419POPC   GL1 5113   9.004  23.665   8.850
 3419POPC   GL2 5114   9.026  23.619   8.850
 3419POPC   C1A 5115   9.008  23.679   8.550
 3419POPC   D2A 5116   8.933  23.680   8.250
 3419POPC   C3A 5117   8.953  23.705   7.950
 3419POPC   C4A 5118   8.957  23.679   7.650
 3419POPC   C1B 5119   9.163  23.541   8.550
 3419POPC   C2B 5120   9.135  23.548   8.250
 3419POPC   C3B 5121   9.148  23.503   7.950
 3419POPC   C4B 5122   9.193  23.542   7.650
 3420POPC   NC3 5123   7.427  11.283   9.450
 3420POPC   PO4 5124   7.468  11.317   9.150
 3420POPC   GL1 5125   7.371  11.299   8.850
 3420POPC   GL2 5126   7.518  11.226   8.850
 3420POPC   C1A 5127   7.372  11.318   8.550
 3420POPC   D2A 5128   7.409  11.290   8.250
 3420POPC   C3A 5129   7.431  11.321   7.950
 3420POPC   C4A 5130   7.387  11.280   7.650
 3420POPC   C1B 5131   7.622  11.091   8.550
 3420POPC   C2B 5132   7.588  11.069   8.250
 3420POPC   C3B 5133   7.616  11.121   7.950
 3420POPC   C4B 5134   7.614  11.085   7.650
 3421POPC   NC3 5135  31.512  36.088   9.450
 3421POPC   PO4 5136  31.472  36.169   9.150
 3421POPC   GL1 5137  31.454  36.120   8.850
 3421POPC   GL2 5138  31.381  36.188   8.850
 3421POPC   C1A 5139  31.504  36.163   8.550
 3421POPC   D2A 5140  31.478  36.154   8.250
 3421POPC   C3A 5141  31.479  36.172   7.950
 3421POPC   C4A 5142  31.487  36.131   7.650
 3421POPC   C1B 5143  31.305  36.313   8.550
 3421POPC   C2B 5144  31.347  36.381   8.250
 3421POPC   C3B 5145  31.372  36.295   7.950
 3421POPC   C4B 5146  31.377  36.339   7.650
 3422POPC   NC3 5147   1.184   4.340   9.450
 3422POPC   PO4 5148   1.229   4.291   9.150
 3422POPC   GL1 5149   1.178   4.361   8.850
 3422POPC   GL2 5150   1.155   4.256   8.850
 3422POPC   C1A 5151   1.247   4.280   8.550
 3422POPC   D2A 5152   1.239   4.338   8.250
 3422POPC   C3A 5153   1.205   4.270   7.950
 3422POPC   C4A 5154   1.194   4.281   7.650
 3422POPC   C1B 5155   1.040   4.186   8.550
 3422POPC   C2B 5156   0.990   4.196   8.250
 3422POPC   C3B 5157   0.956   4.162   7.950
 3422POPC   C4B 5158   1.001   4.242   7.650
 3423POPC   NC3 5159  17.517  29.193   9.450
 3423POPC   PO4 5160  17.499  29.122   9.150
 3423POPC   GL1 5161  17.457  29.095   8.850
 3423POPC   GL2 5162  17.421  29.007   8.850
 3423POPC   C1A 5163  17.491  29.129   8.550
 3423POPC   D2A 5164  17.517  29.113   8.250
 3423POPC   C3A 5165  17.552  29.165   7.950
 3423POPC   C4A 5166  17.557  29.109   7.650
 3423POPC   C1B 5167  17.412  28.900   8.550
 3423POPC   C2B 5168  17.357  28.937   8.250
 3423POPC   C3B 5169  17.405  28.930   7.950
 3423POPC   C4B 5170  17.377  28.972   7.650
 3424POPC   NC3 5171  39.250  21.399   9.450
 3424POPC   PO4 5172  39.221  21.414   9.150
 3424POPC   GL1 5173  39.185  21.347   8.850
 3424POPC   GL2 5174  39.300  21.439   8.850
 3424POPC   C1A 5175  39.224  21.350   8.550
 3424POPC   D2A 5176  39.220  21.419   8.250
 3424POPC   C3A 5177  39.229  21.427   7.950
 3424POPC   C4A 5178  39.256  21.399   7.650
 3424POPC   C1B 5179  39.411  21.502   8.550
 3424POPC   C2B 5180  39.420  21.504   8.250
 3424POPC   C3B 5181  39.419  21.503   7.950
 3424POPC   C4B 5182  39.474  21.536   7.650
 3425POPC   NC3 5183  43.903  22.206   9.450
 3425POPC   PO4 5184  43.847  22.138   9.150
 3425POPC   GL1 5185  43.915  22.204   8.850
 3425POPC   GL2 5186  43.800  22.189   8.850
 3425POPC   C1A 5187  43.921  22.184   8.550
 3425POPC   D2A 5188  43.851  22.172   8.250
 3425POPC   C3A 5189  43.864  22.189   7.950
 3425POPC   C4A 5190  43.842  22.180   7.650
 3425POPC   C1B 5191  43.629  22.231   8.550
 3425POPC   C2B 5192  43.633  22.259   8.250
 3425POPC   C3B 5193  43.601  22.194   7.950
 3425POPC   C4B 5194  43.653  22.198   7.650
 3426POPC   NC3 5195  37.691  41.593   9.450
 3426POPC   PO4 5196  37.723  41.538   9.150
 3426POPC   GL1 5197  37.636  41.552   8.850
 3426POPC   GL2 5198  37.608  41.392   8.850
 3426POPC   C1A 5199  37.714  41.570   8.550
 3426POPC   D2A 5200  37.636  41.550   8.250
 3426POPC   C3A 5201  37.701  41.534   7.950
 3426POPC   C4A 5202  37.699  41.551   7.650
 3426POPC   C1B 5203  37.653  41.336   8.550
 3426POPC   C2B 5204  37.611  41.314   8.250
 3426POPC   C3B 5205  37.624  41.329   7.950
 3426POPC   C4B 5206  37.646  41.308   7.650
 3427POPC   NC3 5207   1.942   5.822   9.450
 3427POPC   PO4 5208   1.963   5.879   9.150
 3427POPC   GL1 5209   2.022   5.908   8.850
 3427POPC   GL2 5210   1.980   5.955   8.850
 3427POPC   C1A 5211   1.959   5.892   8.550
 3427POPC   D2A 5212   2.009   5.853   8.250
 3427POPC   C3A 5213   2.001   5.916   7.950
 3427POPC   C4A 5214   2.018   5.912   7.650
 3427POPC   C1B 5215   2.101   6.152   8.550
 3427POPC   C2B 5216   2.029   6.153   8.250
 3427POPC   C3B 5217   2.058   6.124   7.950
 3427POPC   C4B 5218   2.079   6.150   7.650
 3428POPC   NC3 5219  23.673   4.319   9.450
 3428POPC   PO4 5220  23.711   4.300   9.150
 3428POPC   GL1 5221  23.742   4.289   8.850
 3428POPC   GL2 5222  23.797   4.212   8.850
 3428POPC   C1A 5223  23.675   4.302   8.550
 3428POPC   D2A 5224  23.729   4.293   8.250
 3428POPC   C3A 5225  23.741   4.287   7.950
 3428POPC   C4A 5226  23.690   4.308   7.650
 3428POPC   C1B 5227  23.877   4.198   8.550
 3428POPC   C2B 5228  23.935   4.179   8.250
 3428POPC   C3B 5229  23.876   4.120   7.950
 3428POPC   C4B 5230  23.936   4.130   7.650
 3429POPC   NC3 5231  36.154   8.212   9.450
 3429POPC   PO4 5232  36.102   8.156   9.150
 3429POPC   GL1 5233  36.091   8.210   8.850
 3429POPC   GL2 5234  36.109   8.344   8.850
 3429POPC   C1A 5235  36.083   8.242   8.550
 3429POPC   D2A 5236  36.117   8.162   8.250
 3429POPC   C3A 5237  36.095   8.201   7.950
 3429POPC   C4A 5238  36.173   8.216   7.650
 3429POPC   C1B 5239  36.077   8.450   8.550
 3429POPC   C2B 5240  36.074   8.448   8.250
 3429POPC   C3B 5241  36.076   8.438   7.950
 3429POPC   C4B 5242  36.073   8.395   7.650
 3430POPC   NC3 5243   2.737  27.602   9.450
 3430POPC   PO4 5244   2.736  27.639   9.150
 3430POPC   GL1 5245   2.769  27.556   8.850
 3430POPC   GL2 5246   2.882  27.518   8.850
 3430POPC   C1A 5247   2.730  27.573   8.550
 3430POPC   D2A 5248   2.739  27.578   8.250
 3430POPC   C3A 5249   2.744  27.578   7.950
 3430POPC   C4A 5250   2.763  27.569   7.650
 3430POPC   C1B 5251   3.028  27.458   8.550
 3430POPC   C2B 5252   3.033  27.504   8.250
 3430POPC   C3B 5253   3.026  27.536   7.950
 3430POPC   C4B 5254   2.981  27.453   7.650
 3431POPC   NC3 5255  22.935  23.740   9.450
 3431POPC   PO4 5256  22.965  23.726   9.150
 3431POPC   GL1 5257  22.908  23.726   8.850
 3431POPC   GL2 5258  22.824  23.615   8.850
 3431POPC   C1A 5259  22.956  23.710   8.550
 3431POPC   D2A 5260  22.924  23.687   8.250
 3431POPC   C3A 5261  22.933  23.690   7.950
 3431POPC   C4A 5262  22.940  23.679   7.650
 3431POPC   C1B 5263  22.714  23.559   8.550
 3431POPC   C2B 5264  22.738  23.529   8.250
 3431POPC   C3B 5265  22.735  23.589   7.950
 3431POPC   C4B 5266  22.744  23.542   7.650
 3432POPC   NC3 5267   5.120  40.781   9.450
 3432POPC   PO4 5268   5.141  40.821   9.150
 3432POPC   GL1 5269   5.137  40.761   8.850
 3432POPC   GL2 5270   5.051  40.663   8.850
 3432POPC   C1A 5271   5.122  40.815   8.550
 3432POPC   D2A 5272   5.071  40.766   8.250
 3432POPC   C3A 5273   5.118  40.772   7.950
 3432POPC   C4A 5274   5.094  40.739   7.650
 3432POPC   C1B 5275   4.894  40.620   8.550
 3432POPC   C2B 5276   4.862  40.662   8.250
 3432POPC   C3B 5277   4.949  40.648   7.950
 3432POPC   C4B 5278   4.899  40.656   7.650
 3433POPC   NC3 5279  15.136  29.953   9.450
 3433POPC   PO4 5280  15.136  29.895   9.150
 3433POPC   GL1 5281  15.196  29.915   8.850
 3433POPC   GL2 5282  15.272  30.043   8.850
 3433POPC   C1A 5283  15.213  29.924   8.550
 3433POPC   D2A 5284  15.145  29.899   8.250
 3433POPC   C3A 5285  15.179  29.946   7.950
 3433POPC   C4A 5286  15.203  29.922   7.650
 3433POPC   C1B 5287  15.291  30.087   8.550
 3433POPC   C2B 5288  15.302  30.180   8.250
 3433POPC   C3B 5289  15.339  30.091   7.950
 3433POPC   C4B 5290  15.350  30.133   7.650
 3434POPC   NC3 5291  40.756   2.025   9.450
 3434POPC   PO4 5292  40.746   2.037   9.150
 3434POPC   GL1 5293  40.757   1.973   8.850
 3434POPC   GL2 5294  40.718   2.102   8.850
 3434POPC   C1A 5295  40.746   1.991   8.550
 3434POPC   D2A 5296  40.775   1.982   8.250
 3434POPC   C3A 5297  40.803   1.965   7.950
 3434POPC   C4A 5298  40.760   1.942   7.650
 3434POPC   C1B 5299  40.706   2.193   8.550
 3434POPC   C2B 5300  40.717   2.237   8.250
 3434POPC   C3B 5301  40.757   2.183   7.950
 3434POPC   C4B 5302  40.709   2.203   7.650
 3435POPC   NC3 5303  29.118   5.862   9.450
 3435POPC   PO4 5304  29.142   5.880   9.150
 3435POPC   GL1 5305  29.152   5.895   8.850
 3435POPC   GL2 5306  29.060   5.767   8.850
 3435POPC   C1A 5307  29.121   5.919   8.550
 3435POPC   D2A 5308  29.175   5.898   8.250
 3435POPC   C3A 5309  29.165   5.845   7.950
 3435POPC   C4A 5310  29.111   5.917   7.650
 3435POPC   C1B 5311  28.917   5.715   8.550
 3435POPC   C2B 5312  28.970   5.745   8.250
 3435POPC   C3B 5313  28.965   5.677   7.950
 3435POPC   C4B 5314  28.950   5.739   7.650
 3436POPC   NC3 5315  15.215   4.326   9.450
 3436POPC   PO4 5316  15.158   4.357   9.150
 3436POPC   GL1 5317  15.164   4.341   8.850
 3436POPC   GL2 5318  15.074   4.279   8.850
 3436POPC   C1A 5319  15.216   4.311   8.550
 3436POPC   D2A 5320  15.142   4.331   8.250
 3436POPC   C3A 5321  15.206   4.333   7.950
 3436POPC   C4A 5322  15.219   4.340   7.650
 3436POPC   C1B 5323  14.976   4.141   8.550
 3436POPC   C2B 5324  14.969   4.184   8.250
 3436POPC   C3B 5325  14.951   4.170   7.950
 3436POPC   C4B 5326  14.988   4.145   7.650
 3437POPC   NC3 5327  40.034  39.255   9.450
 3437POPC   PO4 5328  39.995  39.262   9.150
 3437POPC   GL1 5329  40.006  39.187   8.850
 3437POPC   GL2 5330  40.078  39.347   8.850
 3437POPC   C1A 5331  40.044  39.266   8.550
 3437POPC   D2A 5332  39.987  39.249   8.250
 3437POPC   C3A 5333  39.995  39.213   7.950
 3437POPC   C4A 5334  40.057  39.213   7.650
 3437POPC   C1B 5335  40.156  39.409   8.550
 3437POPC   C2B 5336  40.147  39.440   8.250
 3437POPC   C3B 5337  40.079  39.407   7.950
 3437POPC   C4B 5338  40.168  39.433   7.650
 3438POPC   NC3 5339  13.598   7.374   9.450
 3438POPC   PO4 5340  13.592   7.392   9.150
 3438POPC   GL1 5341  13.585   7.374   8.850
 3438POPC   GL2 5342  13.759   7.482   8.850
 3438POPC   C1A 5343  13.582   7.429   8.550
 3438POPC   D2A 5344  13.580   7.380   8.250
 3438POPC   C3A 5345  13.631   7.385   7.950
 3438POPC   C4A 5346  13.673   7.383   7.650
 3438POPC   C1B 5347  13.875   7.512   8.550
 3438POPC   C2B 5348  13.912   7.435   8.250
 3438POPC   C3B 5349  13.842   7.449   7.950
 3438POPC   C4B 5350  13.850   7.434   7.650
 3439POPC   NC3 5351  19.101   5.101   9.450
 3439POPC   PO4 5352  19.072   5.095   9.150
 3439POPC   GL1 5353  19.101   5.122   8.850
 3439POPC   GL2 5354  18.971   5.074   8.850
 3439POPC   C1A 5355  19.075   5.137   8.550
 3439POPC   D2A 5356  19.093   5.121   8.250
 3439POPC   C3A 5357  19.097   5.131   7.950
 3439POPC   C4A 5358  19.039   5.049   7.650
 3439POPC   C1B 5359  18.835   5.044   8.550
 3439POPC   C2B 5360  18.802   5.040   8.250
 3439POPC   C3B 5361  18.826   5.011   7.950
 3439POPC   C4B 5362  18.847   5.037   7.650
 3440POPC   NC3 5363  20.617  40.756   9.450
 3440POPC   PO4 5364  20.638  40.782   9.150
 3440POPC   GL1 5365  20.641  40.786   8.850
 3440POPC   GL2 5366  20.464  40.836   8.850
 3440POPC   C1A 5367  20.612  40.734   8.550
 3440POPC   D2A 5368  20.646  40.778   8.250
 3440POPC   C3A 5369  20.595  40.761   7.950
 3440POPC   C4A 5370  20.603  40.823   7.650
 3440POPC   C1B 5371  20.418  40.907   8.550
 3440POPC   C2B 5372  20.427  40.918   8.250
 3440POPC   C3B 5373  20.412  40.887   7.950
 3440POPC   C4B 5374  20.389  40.936   7.650
 3441POPC   NC3 5375  26.822  43.867   9.450
 3441POPC   PO4 5376  26.829  43.876   9.150
 3441POPC   GL1 5377  26.839  43.923   8.850
 3441POPC   GL2 5378  26.932  43.832   8.850
 3441POPC   C1A 5379  26.796  43.894   8.550
 3441POPC   D2A 5380  26.862  43.923   8.250
 3441POPC   C3A 5381  26.779  43.863   7.950
 3441POPC   C4A 5382  26.834  43.851   7.650
 3441POPC   C1B 5383  27.102  43.820   8.550
 3441POPC   C2B 5384  27.096  43.809   8.250
 3441POPC   C3B 5385  27.052  43.810   7.950
 3441POPC   C4B 5386  27.052  43.886   7.650
 3442POPC   NC3 5387  36.902  41.510   9.450
 3442POPC   PO4 5388  36.943  41.524   9.150
 3442POPC   GL1 5389  36.914  41.542   8.850
 3442POPC   GL2 5390  36.775  41.492   8.850
 3442POPC   C1A 5391  36.921  41.592   8.550
 3442POPC   D2A 5392  36.867  41.545   8.250
 3442POPC   C3A 5393  36.899  41.608   7.950
 3442POPC   C4A 5394  36.891  41.549   7.650
 3442POPC   C1B 5395  36.675  41.423   8.550
 3442POPC   C2B 5396  36.670  41.433   8.250
 3442POPC   C3B 5397  36.686  41.416   7.950
 3442POPC   C4B 5398  36.679  41.446   7.650
 3443POPC   NC3 5399  34.600   1.946   9.450
 3443POPC   PO4 5400  34.567   1.993   9.150
 3443POPC   GL1 5401  34.605   1.974   8.850
 3443POPC   GL2 5402  34.681   1.994   8.850
 3443POPC   C1A 5403  34.602   2.010   8.550
 3443POPC   D2A 5404  34.527   1.998   8.250
 3443POPC   C3A 5405  34.619   1.978   7.950
 3443POPC   C4A 5406  34.603   1.999   7.650
 3443POPC   C1B 5407  34.857   2.026   8.550
 3443POPC   C2B 5408  34.825   2.109   8.250
 3443POPC   C3B 5409  34.790   2.026   7.950
 3443POPC   C4B 5410  34.810   2.069   7.650
 3444POPC   NC3 5411  22.209  33.808   9.450
 3444POPC   PO4 5412  22.182  33.803   9.150
 3444POPC   GL1 5413  22.120  33.803   8.850
 3444POPC   GL2 5414  22.172  33.677   8.850
 3444POPC   C1A 5415  22.190  33.819   8.550
 3444POPC   D2A 5416  22.119  33.791   8.250
 3444POPC   C3A 5417  22.170  33.793   7.950
 3444POPC   C4A 5418  22.190  33.788   7.650
 3444POPC   C1B 5419  22.077  33.575   8.550
 3444POPC   C2B 5420  22.160  33.509   8.250
 3444POPC   C3B 5421  22.088  33.596   7.950
 3444POPC   C4B 5422  22.095  33.583   7.650
 3445POPC   NC3 5423  36.939  12.039   9.450
 3445POPC   PO4 5424  36.921  12.062   9.150
 3445POPC   GL1 5425  36.914  12.092   8.850
 3445POPC   GL2 5426  36.764  12.122   8.850
 3445POPC   C1A 5427  36.909  12.120   8.550
 3445POPC   D2A 5428  36.854  12.032   8.250
 3445POPC   C3A 5429  36.907  12.109   7.950
 3445POPC   C4A 5430  36.919  12.054   7.650
 3445POPC   C1B 5431  36.695  12.121   8.550
 3445POPC   C2B 5432  36.686  12.177   8.250
 3445POPC   C3B 5433  36.678  12.201   7.950
 3445POPC   C4B 5434  36.643  12.216   7.650
 3446POPC   NC3 5435  36.078  37.672   9.450
 3446POPC   PO4 5436  36.082  37.706   9.150
 3446POPC   GL1 5437  36.175  37.654   8.850
 3446POPC   GL2 5438  36.291  37.665   8.850
 3446POPC   C1A 5439  36.169  37.717   8.550
 3446POPC   D2A 5440  36.078  37.695   8.250
 3446POPC   C3A 5441  36.154  37.671   7.950
 3446POPC   C4A 5442  36.137  37.724   7.650
 3446POPC   C1B 5443  36.364  37.613   8.550
 3446POPC   C2B 5444  36.333  37.641   8.250
 3446POPC   C3B 5445  36.339  37.584   7.950
 3446POPC   C4B 5446  36.374  37.634   7.650
 3447POPC   NC3 5447   9.787   8.974   9.450
 3447POPC   PO4 5448   9.737   8.934   9.150
 3447POPC   GL1 5449   9.775   8.982   8.850
 3447POPC   GL2 5450   9.685   9.141   8.850
 3447POPC   C1A 5451   9.719   8.976   8.550
 3447POPC   D2A 5452   9.719   9.007   8.250
 3447POPC   C3A 5453   9.711   9.004   7.950
 3447POPC   C4A 5454   9.717   8.966   7.650
 3447POPC   C1B 5455   9.659   9.203   8.550
 3447POPC   C2B 5456   9.665   9.231   8.250
 3447POPC   C3B 5457   9.637   9.220   7.950
 3447POPC   C4B 5458   9.706   9.200   7.650
 3448POPC   NC3 5459  36.123  21.382   9.450
 3448POPC   PO4 5460  36.122  21.424   9.150
 3448POPC   GL1 5461  36.107  21.356   8.850
 3448POPC   GL2 5462  36.140  21.464   8.850
 3448POPC   C1A 5463  36.138  21.386   8.550
 3448POPC   D2A 5464  36.094  21.369   8.250
 3448POPC   C3A 5465  36.096  21.394   7.950
 3448POPC   C4A 5466  36.145  21.397   7.650
 3448POPC   C1B 5467  36.049  21.595   8.550
 3448POPC   C2B 5468  36.129  21.588   8.250
 3448POPC   C3B 5469  36.098  21.681   7.950
 3448POPC   C4B 5470  36.094  21.602   7.650
 3449POPC   NC3 5471  32.290  37.652   9.450
 3449POPC   PO4 5472  32.208  37.667   9.150
 3449POPC   GL1 5473  32.249  37.660   8.850
 3449POPC   GL2 5474  32.287  37.848   8.850
 3449POPC   C1A 5475  32.274  37.657   8.550
 3449POPC   D2A 5476  32.223  37.654   8.250
 3449POPC   C3A 5477  32.278  37.657   7.950
 3449POPC   C4A 5478  32.203  37.692   7.650
 3449POPC   C1B 5479  32.264  37.963   8.550
 3449POPC   C2B 5480  32.343  37.935   8.250
 3449POPC   C3B 5481  32.304  37.943   7.950
 3449POPC   C4B 5482  32.266  37.928   7.650
 3450POPC   NC3 5483  43.838  32.977   9.450
 3450POPC   PO4 5484  43.924  32.980   9.150
 3450POPC   GL1 5485  43.863  33.032   8.850
 3450POPC   GL2 5486  43.895  32.927   8.850
 3450POPC   C1A 5487  43.908  33.018   8.550
 3450POPC   D2A 5488  43.879  33.014   8.250
 3450POPC   C3A 5489  43.886  32.985   7.950
 3450POPC   C4A 5490  43.855  32.989   7.650
 3450POPC   C1B 5491  43.846  32.771   8.550
 3450POPC   C2B 5492  43.882  32.816   8.250
 3450POPC   C3B 5493  43.847  32.822   7.950
 3450POPC   C4B 5494  43.903  32.824   7.650
 3451POPC   NC3 5495  44.648  28.344   9.450
 3451POPC   PO4 5496  44.680  28.343   9.150
 3451POPC   GL1 5497  44.618  28.405   8.850
 3451POPC   GL2 5498  44.605  28.210   8.850
 3451POPC   C1A 5499  44.646  28.322   8.550
 3451POPC   D2A 5500  44.613  28.403   8.250
 3451POPC   C3A 5501  44.618  28.326   7.950
 3451POPC   C4A 5502  44.644  28.380   7.650
 3451POPC   C1B 5503  44.600  28.081   8.550
 3451POPC   C2B 5504  44.581  28.173   8.250
 3451POPC   C3B 5505  44.584  28.140   7.950
 3451POPC   C4B 5506  44.578  28.133   7.650
 3452POPC   NC3 5507  19.103   2.716   9.450
 3452POPC   PO4 5508  19.055   2.795   9.150
 3452POPC   GL1 5509  19.019   2.794   8.850
 3452POPC   GL2 5510  18.950   2.719   8.850
 3452POPC   C1A 5511  19.046   2.716   8.550
 3452POPC   D2A 5512  19.014   2.743   8.250
 3452POPC   C3A 5513  19.064   2.745   7.950
 3452POPC   C4A 5514  19.039   2.757   7.650
 3452POPC   C1B 5515  18.847   2.752   8.550
 3452POPC   C2B 5516  18.788   2.754   8.250
 3452POPC   C3B 5517  18.769   2.708   7.950
 3452POPC   C4B 5518  18.783   2.736   7.650
 3453POPC   NC3 5519  22.975   2.779   9.450
 3453POPC   PO4 5520  22.980   2.812   9.150
 3453POPC   GL1 5521  22.968   2.745   8.850
 3453POPC   GL2 5522  22.820   2.677   8.850
 3453POPC   C1A 5523  22.946   2.737   8.550
 3453POPC   D2A 5524  22.904   2.721   8.250
 3453POPC   C3A 5525  22.977   2.795   7.950
 3453POPC   C4A 5526  22.943   2.801   7.650
 3453POPC   C1B 5527  22.832   2.593   8.550
 3453POPC   C2B 5528  22.775   2.600   8.250
 3453POPC   C3B 5529  22.751   2.574   7.950
 3453POPC   C4B 5530  22.836   2.595   7.650
 3454POPC   NC3 5531  18.301  37.693   9.450
 3454POPC   PO4 5532  18.271  37.695   9.150
 3454POPC   GL1 5533  18.278  37.644   8.850
 3454POPC   GL2 5534  18.164  37.639   8.850
 3454POPC   C1A 5535  18.313  37.685   8.550
 3454POPC   D2A 5536  18.283  37.719   8.250
 3454POPC   C3A 5537  18.249  37.689   7.950
 3454POPC   C4A 5538  18.301  37.715   7.650
 3454POPC   C1B 5539  18.114  37.502   8.550
 3454POPC   C2B 5540  18.090  37.524   8.250
 3454POPC   C3B 5541  18.083  37.505   7.950
 3454POPC   C4B 5542  18.052  37.593   7.650
 3455POPC   NC3 5543  32.274  32.992   9.450
 3455POPC   PO4 5544  32.260  33.039   9.150
 3455POPC   GL1 5545  32.274  32.978   8.850
 3455POPC   GL2 5546  32.366  33.092   8.850
 3455POPC   C1A 5547  32.253  33.036   8.550
 3455POPC   D2A 5548  32.236  32.994   8.250
 3455POPC   C3A 5549  32.213  33.063   7.950
 3455POPC   C4A 5550  32.219  32.976   7.650
 3455POPC   C1B 5551  32.416  33.191   8.550
 3455POPC   C2B 5552  32.469  33.143   8.250
 3455POPC   C3B 5553  32.485  33.206   7.950
 3455POPC   C4B 5554  32.493  33.212   7.650
 3456POPC   NC3 5555  21.372   1.994   9.450
 3456POPC   PO4 5556  21.416   2.030   9.150
 3456POPC   GL1 5557  21.337   2.001   8.850
 3456POPC   GL2 5558  21.545   2.005   8.850
 3456POPC   C1A 5559  21.393   1.950   8.550
 3456POPC   D2A 5560  21.360   2.004   8.250
 3456POPC   C3A 5561  21.428   1.949   7.950
 3456POPC   C4A 5562  21.400   1.942   7.650
 3456POPC   C1B 5563  21.609   1.969   8.550
 3456POPC   C2B 5564  21.678   1.967   8.250
 3456POPC   C3B 5565  21.588   1.992   7.950
 3456POPC   C4B 5566  21.654   1.979   7.650
 3457POPC   NC3 5567  43.073  27.625   9.450
 3457POPC   PO4 5568  43.107  27.543   9.150
 3457POPC   GL1 5569  43.122  27.613   8.850
 3457POPC   GL2 5570  43.056  27.515   8.850
 3457POPC   C1A 5571  43.115  27.603   8.550
 3457POPC   D2A 5572  43.117  27.592   8.250
 3457POPC   C3A 5573  43.089  27.634   7.950
 3457POPC   C4A 5574  43.082  27.604   7.650
 3457POPC   C1B 5575  43.085  27.375   8.550
 3457POPC   C2B 5576  43.002  27.314   8.250
 3457POPC   C3B 5577  43.039  27.354   7.950
 3457POPC   C4B 5578  43.042  27.381   7.650
 3458POPC   NC3 5579  38.480   1.236   9.450
 3458POPC   PO4 5580  38.451   1.188   9.150
 3458POPC   GL1 5581  38.441   1.211   8.850
 3458POPC   GL2 5582  38.369   1.298   8.850
 3458POPC   C1A 5583  38.495   1.194   8.550
 3458POPC   D2A 5584  38.488   1.254   8.250
 3458POPC   C3A 5585  38.450   1.198   7.950
 3458POPC   C4A 5586  38.417   1.229   7.650
 3458POPC   C1B 5587  38.341   1.464   8.550
 3458POPC   C2B 5588  38.373   1.418   8.250
 3458POPC   C3B 5589  38.323   1.466   7.950
 3458POPC   C4B 5590  38.313   1.407   7.650
 3459POPC   NC3 5591  12.809   7.375   9.450
 3459POPC   PO4 5592  12.847   7.397   9.150
 3459POPC   GL1 5593  12.817   7.398   8.850
 3459POPC   GL2 5594  12.936   7.545   8.850
 3459POPC   C1A 5595  12.837   7.393   8.550
 3459POPC   D2A 5596  12.875   7.440   8.250
 3459POPC   C3A 5597  12.814   7.433   7.950
 3459POPC   C4A 5598  12.806   7.392   7.650
 3459POPC   C1B 5599  13.002   7.653   8.550
 3459POPC   C2B 5600  13.012   7.576   8.250
 3459POPC   C3B 5601  12.967   7.644   7.950
 3459POPC   C4B 5602  13.010   7.660   7.650
 3460POPC   NC3 5603   4.330  19.879   9.450
 3460POPC   PO4 5604   4.318  19.788   9.150
 3460POPC   GL1 5605   4.284  19.854   8.850
 3460POPC   GL2 5606   4.163  19.853   8.850
 3460POPC   C1A 5607   4.280  19.831   8.550
 3460POPC   D2A 5608   4.273  19.857   8.250
 3460POPC   C3A 5609   4.318  19.882   7.950
 3460POPC   C4A 5610   4.360  19.791   7.650
 3460POPC   C1B 5611   4.033  19.821   8.550
 3460POPC   C2B 5612   4.027  19.847   8.250
 3460POPC   C3B 5613   4.110  19.870   7.950
 3460POPC   C4B 5614   4.073  19.900   7.650
 3461POPC   NC3 5615  12.123  36.870   9.450
 3461POPC   PO4 5616  12.088  36.923   9.150
 3461POPC   GL1 5617  12.107  36.858   8.850
 3461POPC   GL2 5618  12.154  36.976   8.850
 3461POPC   C1A 5619  12.095  36.872   8.550
 3461POPC   D2A 5620  12.119  36.907   8.250
 3461POPC   C3A 5621  12.080  36.944   7.950
 3461POPC   C4A 5622  12.106  36.878   7.650
 3461POPC   C1B 5623  12.246  37.061   8.550
 3461POPC   C2B 5624  12.334  36.987   8.250
 3461POPC   C3B 5625  12.259  37.038   7.950
 3461POPC   C4B 5626  12.320  37.009   7.650
 3462POPC   NC3 5627  24.465  29.908   9.450
 3462POPC   PO4 5628  24.503  29.883   9.150
 3462POPC   GL1 5629  24.478  29.882   8.850
 3462POPC   GL2 5630  24.339  29.892   8.850
 3462POPC   C1A 5631  24.516  29.969   8.550
 3462POPC   D2A 5632  24.486  29.876   8.250
 3462POPC   C3A 5633  24.507  29.882   7.950
 3462POPC   C4A 5634  24.540  29.896   7.650
 3462POPC   C1B 5635  24.208  29.853   8.550
 3462POPC   C2B 5636  24.228  29.884   8.250
 3462POPC   C3B 5637  24.201  29.903   7.950
 3462POPC   C4B 5638  24.283  29.834   7.650
 3463POPC   NC3 5639   5.123  27.576   9.450
 3463POPC   PO4 5640   5.102  27.612   9.150
 3463POPC   GL1 5641   5.105  27.565   8.850
 3463POPC   GL2 5642   5.144  27.740   8.850
 3463POPC   C1A 5643   5.119  27.605   8.550
 3463POPC   D2A 5644   5.097  27.565   8.250
 3463POPC   C3A 5645   5.134  27.621   7.950
 3463POPC   C4A 5646   5.058  27.553   7.650
 3463POPC   C1B 5647   5.216  27.863   8.550
 3463POPC   C2B 5648   5.154  27.801   8.250
 3463POPC   C3B 5649   5.187  27.878   7.950
 3463POPC   C4B 5650   5.145  27.863   7.650
 3464POPC   NC3 5651  19.817  15.958   9.450
 3464POPC   PO4 5652  19.802  15.976   9.150
 3464POPC   GL1 5653  19.871  15.908   8.850
 3464POPC   GL2 5654  19.898  15.868   8.850
 3464POPC   C1A 5655  19.862  15.911   8.550
 3464POPC   D2A 5656  19.854  15.915   8.250
 3464POPC   C3A 5657  19.836  15.914   7.950
 3464POPC   C4A 5658  19.836  15.939   7.650
 3464POPC   C1B 5659  19.963  15.791   8.550
 3464POPC   C2B 5660  19.987  15.722   8.250
 3464POPC   C3B 5661  20.046  15.751   7.950
 3464POPC   C4B 5662  20.015  15.804   7.650
 3465POPC   NC3 5663  23.668   0.424   9.450
 3465POPC   PO4 5664  23.720   0.403   9.150
 3465POPC   GL1 5665  23.735   0.409   8.850
 3465POPC   GL2 5666  23.772   0.520   8.850
 3465POPC   C1A 5667  23.743   0.464   8.550
 3465POPC   D2A 5668  23.671   0.468   8.250
 3465POPC   C3A 5669  23.668   0.460   7.950
 3465POPC   C4A 5670  23.751   0.396   7.650
 3465POPC   C1B 5671  23.726   0.699   8.550
 3465POPC   C2B 5672  23.759   0.698   8.250
 3465POPC   C3B 5673  23.723   0.712   7.950
 3465POPC   C4B 5674  23.776   0.687   7.650
 3466POPC   NC3 5675  34.570  11.324   9.450
 3466POPC   PO4 5676  34.585  11.276   9.150
 3466POPC   GL1 5677  34.552  11.308   8.850
 3466POPC   GL2 5678  34.570  11.365   8.850
 3466POPC   C1A 5679  34.621  11.252   8.550
 3466POPC   D2A 5680  34.543  11.306   8.250
 3466POPC   C3A 5681  34.580  11.340   7.950
 3466POPC   C4A 5682  34.571  11.344   7.650
 3466POPC   C1B 5683  34.517  11.501   8.550
 3466POPC   C2B 5684  34.431  11.478   8.250
 3466POPC   C3B 5685  34.452  11.508   7.950
 3466POPC   C4B 5686  34.473  11.565   7.650
 3467POPC   NC3 5687  41.595  20.633   9.450
 3467POPC   PO4 5688  41.523  20.607   9.150
 3467POPC   GL1 5689  41.594  20.562   8.850
 3467POPC   GL2 5690  41.476  20.477   8.850
 3467POPC   C1A 5691  41.587  20.590   8.550
 3467POPC   D2A 5692  41.562  20.643   8.250
 3467POPC   C3A 5693  41.521  20.572   7.950
 3467POPC   C4A 5694  41.593  20.652   7.650
 3467POPC   C1B 5695  41.422  20.409   8.550
 3467POPC   C2B 5696  41.465  20.413   8.250
 3467POPC   C3B 5697  41.417  20.377   7.950
 3467POPC   C4B 5698  41.382  20.357   7.650
 3468POPC   NC3 5699  14.373  33.049   9.450
 3468POPC   PO4 5700  14.381  33.003   9.150
 3468POPC   GL1 5701  14.440  33.061   8.850
 3468POPC   GL2 5702  14.491  33.130   8.850
 3468POPC   C1A 5703  14.386  33.003   8.550
 3468POPC   D2A 5704  14.423  33.063   8.250
 3468POPC   C3A 5705  14.440  33.045   7.950
 3468POPC   C4A 5706  14.355  33.046   7.650
 3468POPC   C1B 5707  14.644  33.139   8.550
 3468POPC   C2B 5708  14.594  33.179   8.250
 3468POPC   C3B 5709  14.598  33.181   7.950
 3468POPC   C4B 5710  14.630  33.130   7.650
 3469POPC   NC3 5711  15.953  30.729   9.450
 3469POPC   PO4 5712  15.948  30.680   9.150
 3469POPC   GL1 5713  15.907  30.716   8.850
 3469POPC   GL2 5714  15.818  30.793   8.850
 3469POPC   C1A 5715  15.972  30.697   8.550
 3469POPC   D2A 5716  15.950  30.721   8.250
 3469POPC   C3A 5717  15.982  30.653   7.950
 3469POPC   C4A 5718  15.962  30.685   7.650
 3469POPC   C1B 5719  15.772  30.815   8.550
 3469POPC   C2B 5720  15.750  30.846   8.250
 3469POPC   C3B 5721  15.726  30.867   7.950
 3469POPC   C4B 5722  15.711  30.849   7.650
 3470POPC   NC3 5723  31.483   1.224   9.450
 3470POPC   PO4 5724  31.470   1.173   9.150
 3470POPC   GL1 5725  31.470   1.227   8.850
 3470POPC   GL2 5726  31.384   1.094   8.850
 3470POPC   C1A 5727  31.447   1.212   8.550
 3470POPC   D2A 5728  31.477   1.188   8.250
 3470POPC   C3A 5729  31.462   1.203   7.950
 3470POPC   C4A 5730  31.510   1.165   7.650
 3470POPC   C1B 5731  31.323   1.042   8.550
 3470POPC   C2B 5732  31.317   0.983   8.250
 3470POPC   C3B 5733  31.300   0.976   7.950
 3470POPC   C4B 5734  31.299   1.022   7.650
 3471POPC   NC3 5735   9.699  33.063   9.450
 3471POPC   PO4 5736   9.747  33.053   9.150
 3471POPC   GL1 5737   9.729  32.991   8.850
 3471POPC   GL2 5738   9.619  33.076   8.850
 3471POPC   C1A 5739   9.713  33.013   8.550
 3471POPC   D2A 5740   9.766  33.023   8.250
 3471POPC   C3A 5741   9.767  32.989   7.950
 3471POPC   C4A 5742   9.715  33.024   7.650
 3471POPC   C1B 5743   9.476  32.997   8.550
 3471POPC   C2B 5744   9.477  32.997   8.250
 3471POPC   C3B 5745   9.492  33.056   7.950
 3471POPC   C4B 5746   9.487  33.079   7.650
 3472POPC   NC3 5747   0.476   8.234   9.450
 3472POPC   PO4 5748   0.481   8.236   9.150
 3472POPC   GL1 5749   0.468   8.212   8.850
 3472POPC   GL2 5750   0.271   8.217   8.850
 3472POPC   C1A 5751   0.445   8.187   8.550
 3472POPC   D2A 5752   0.475   8.220   8.250
 3472POPC   C3A 5753   0.484   8.157   7.950
 3472POPC   C4A 5754   0.463   8.202   7.650
 3472POPC   C1B 5755   0.190   8.174   8.550
 3472POPC   C2B 5756   0.185   8.156   8.250
 3472POPC   C3B 5757   0.181   8.159   7.950
 3472POPC   C4B 5758   0.225   8.126   7.650
 3473POPC   NC3 5759  33.018  15.196   9.450
 3473POPC   PO4 5760  33.008  15.209   9.150
 3473POPC   GL1 5761  32.987  15.218   8.850
 3473POPC   GL2 5762  32.974  15.326   8.850
 3473POPC   C1A 5763  33.057  15.228   8.550
 3473POPC   D2A 5764  33.043  15.223   8.250
 3473POPC   C3A 5765  32.974  15.222   7.950
 3473POPC   C4A 5766  32.986  15.214   7.650
 3473POPC   C1B 5767  32.934  15.412   8.550
 3473POPC   C2B 5768  32.914  15.388   8.250
 3473POPC   C3B 5769  32.943  15.365   7.950
 3473POPC   C4B 5770  32.878  15.455   7.650
 3474POPC   NC3 5771   8.237  36.907   9.450
 3474POPC   PO4 5772   8.192  36.953   9.150
 3474POPC   GL1 5773   8.221  36.920   8.850
 3474POPC   GL2 5774   8.108  37.041   8.850
 3474POPC   C1A 5775   8.231  36.880   8.550
 3474POPC   D2A 5776   8.185  36.896   8.250
 3474POPC   C3A 5777   8.204  36.941   7.950
 3474POPC   C4A 5778   8.160  36.902   7.650
 3474POPC   C1B 5779   7.994  37.067   8.550
 3474POPC   C2B 5780   8.016  37.098   8.250
 3474POPC   C3B 5781   7.987  37.050   7.950
 3474POPC   C4B 5782   8.045  37.038   7.650
 3475POPC   NC3 5783   9.736  12.826   9.450
 3475POPC   PO4 5784   9.750  12.886   9.150
 3475POPC   GL1 5785   9.705  12.814   8.850
 3475POPC   GL2 5786   9.731  12.964   8.850
 3475POPC   C1A 5787   9.730  12.883   8.550
 3475POPC   D2A 5788   9.747  12.883   8.250
 3475POPC   C3A 5789   9.704  12.844   7.950
 3475POPC   C4A 5790   9.703  12.852   7.650
 3475POPC   C1B 5791   9.596  13.017   8.550
 3475POPC   C2B 5792   9.659  13.113   8.250
 3475POPC   C3B 5793   9.666  13.066   7.950
 3475POPC   C4B 5794   9.585  13.063   7.650
 3476POPC   NC3 5795  29.932  12.111   9.450
 3476POPC   PO4 5796  29.887  12.107   9.150
 3476POPC   GL1 5797  29.909  12.116   8.850
 3476POPC   GL2 5798  29.852  12.025   8.850
 3476POPC   C1A 5799  29.969  12.096   8.550
 3476POPC   D2A 5800  29.923  12.113   8.250
 3476POPC   C3A 5801  29.887  12.079   7.950
 3476POPC   C4A 5802  29.904  12.092   7.650
 3476POPC   C1B 5803  29.783  11.868   8.550
 3476POPC   C2B 5804  29.724  11.950   8.250
 3476POPC   C3B 5805  29.744  11.952   7.950
 3476POPC   C4B 5806  29.757  11.923   7.650
 3477POPC   NC3 5807  37.648  29.924   9.450
 3477POPC   PO4 5808  37.634  29.930   9.150
 3477POPC   GL1 5809  37.716  29.952   8.850
 3477POPC   GL2 5810  37.536  29.807   8.850
 3477POPC   C1A 5811  37.670  29.924   8.550
 3477POPC   D2A 5812  37.703  29.959   8.250
 3477POPC   C3A 5813  37.685  29.970   7.950
 3477POPC   C4A 5814  37.694  29.910   7.650
 3477POPC   C1B 5815  37.448  29.763   8.550
 3477POPC   C2B 5816  37.496  29.788   8.250
 3477POPC   C3B 5817  37.513  29.764   7.950
 3477POPC   C4B 5818  37.445  29.790   7.650
 3478POPC   NC3 5819  25.315  39.247   9.450
 3478POPC   PO4 5820  25.314  39.185   9.150
 3478POPC   GL1 5821  25.239  39.220   8.850
 3478POPC   GL2 5822  25.382  39.113   8.850
 3478POPC   C1A 5823  25.292  39.278   8.550
 3478POPC   D2A 5824  25.276  39.238   8.250
 3478POPC   C3A 5825  25.243  39.232   7.950
 3478POPC   C4A 5826  25.260  39.223   7.650
 3478POPC   C1B 5827  25.431  39.014   8.550
 3478POPC   C2B 5828  25.476  39.089   8.250
 3478POPC   C3B 5829  25.432  39.047   7.950
 3478POPC   C4B 5830  25.441  39.038   7.650
 3479POPC   NC3 5831  27.639   7.390   9.450
 3479POPC   PO4 5832  27.552   7.463   9.150
 3479POPC   GL1 5833  27.585   7.457   8.850
 3479POPC   GL2 5834  27.466   7.458   8.850
 3479POPC   C1A 5835  27.593   7.374   8.550
 3479POPC   D2A 5836  27.604   7.414   8.250
 3479POPC   C3A 5837  27.569   7.445   7.950
 3479POPC   C4A 5838  27.569   7.436   7.650
 3479POPC   C1B 5839  27.405   7.495   8.550
 3479POPC   C2B 5840  27.336   7.518   8.250
 3479POPC   C3B 5841  27.399   7.518   7.950
 3479POPC   C4B 5842  27.380   7.487   7.650
 3480POPC   NC3 5843  26.864   1.949   9.450
 3480POPC   PO4 5844  26.841   1.989   9.150
 3480POPC   GL1 5845  26.800   2.033   8.850
 3480POPC   GL2 5846  26.770   2.132   8.850
 3480POPC   C1A 5847  26.808   1.996   8.550
 3480POPC   D2A 5848  26.853   1.990   8.250
 3480POPC   C3A 5849  26.820   1.962   7.950
 3480POPC   C4A 5850  26.830   2.007   7.650
 3480POPC   C1B 5851  26.827   2.208   8.550
 3480POPC   C2B 5852  26.812   2.256   8.250
 3480POPC   C3B 5853  26.800   2.225   7.950
 3480POPC   C4B 5854  26.787   2.276   7.650
 3481POPC   NC3 5855  10.499  26.025   9.450
 3481POPC   PO4 5856  10.559  26.024   9.150
 3481POPC   GL1 5857  10.533  26.017   8.850
 3481POPC   GL2 5858  10.494  25.950   8.850
 3481POPC   C1A 5859  10.516  26.034   8.550
 3481POPC   D2A 5860  10.487  25.998   8.250
 3481POPC   C3A 5861  10.573  26.036   7.950
 3481POPC   C4A 5862  10.546  26.026   7.650
 3481POPC   C1B 5863  10.389  25.843   8.550
 3481POPC   C2B 5864  10.358  25.833   8.250
 3481POPC   C3B 5865  10.359  25.810   7.950
 3481POPC   C4B 5866  10.394  25.826   7.650
 3482POPC   NC3 5867  31.431  32.263   9.450
 3482POPC   PO4 5868  31.439  32.278   9.150
 3482POPC   GL1 5869  31.508  32.288   8.850
 3482POPC   GL2 5870  31.367  32.139   8.850
 3482POPC   C1A 5871  31.488  32.222   8.550
 3482POPC   D2A 5872  31.447  32.279   8.250
 3482POPC   C3A 5873  31.466  32.257   7.950
 3482POPC   C4A 5874  31.497  32.218   7.650
 3482POPC   C1B 5875  31.266  32.023   8.550
 3482POPC   C2B 5876  31.355  32.023   8.250
 3482POPC   C3B 5877  31.323  32.056   7.950
 3482POPC   C4B 5878  31.287  32.097   7.650
 3483POPC   NC3 5879   5.910  20.601   9.450
 3483POPC   PO4 5880   5.863  20.597   9.150
 3483POPC   GL1 5881   5.863  20.581   8.850
 3483POPC   GL2 5882   5.886  20.477   8.850
 3483POPC   C1A 5883   5.870  20.587   8.550
 3483POPC   D2A 5884   5.855  20.653   8.250
 3483POPC   C3A 5885   5.897  20.574   7.950
 3483POPC   C4A 5886   5.897  20.575   7.650
 3483POPC   C1B 5887   5.913  20.377   8.550
 3483POPC   C2B 5888   5.893  20.411   8.250
 3483POPC   C3B 5889   5.854  20.357   7.950
 3483POPC   C4B 5890   5.916  20.324   7.650
 3484POPC   NC3 5891  24.485  33.011   9.450
 3484POPC   PO4 5892  24.458  32.996   9.150
 3484POPC   GL1 5893  24.496  32.993   8.850
 3484POPC   GL2 5894  24.572  33.073   8.850
 3484POPC   C1A 5895  24.466  33.016   8.550
 3484POPC   D2A 5896  24.482  33.029   8.250
 3484POPC   C3A 5897  24.505  33.046   7.950
 3484POPC   C4A 5898  24.462  32.991   7.650
 3484POPC   C1B 5899  24.716  33.175   8.550
 3484POPC   C2B 5900  24.704  33.139   8.250
 3484POPC   C3B 5901  24.673  33.145   7.950
 3484POPC   C4B 5902  24.747  33.174   7.650
 3485POPC   NC3 5903  36.868  31.479   9.450
 3485POPC   PO4 5904  36.911  31.459   9.150
 3485POPC   GL1 5905  36.920  31.484   8.850
 3485POPC   GL2 5906  36.815  31.361   8.850
 3485POPC   C1A 5907  36.937  31.493   8.550
 3485POPC   D2A 5908  36.885  31.490   8.250
 3485POPC   C3A 5909  36.871  31.521   7.950
 3485POPC   C4A 5910  36.951  31.445   7.650
 3485POPC   C1B 5911  36.806  31.251   8.550
 3485POPC   C2B 5912  36.763  31.244   8.250
 3485POPC   C3B 5913  36.783  31.262   7.950
 3485POPC   C4B 5914  36.718  31.290   7.650
 3486POPC   NC3 5915  27.621   5.898   9.450
 3486POPC   PO4 5916  27.591   5.893   9.150
 3486POPC   GL1 5917  27.569   5.823   8.850
 3486POPC   GL2 5918  27.684   5.746   8.850
 3486POPC   C1A 5919  27.579   5.878   8.550
 3486POPC   D2A 5920  27.558   5.908   8.250
 3486POPC   C3A 5921  27.618   5.885   7.950
 3486POPC   C4A 5922  27.585   5.904   7.650
 3486POPC   C1B 5923  27.695   5.606   8.550
 3486POPC   C2B 5924  27.721   5.674   8.250
 3486POPC   C3B 5925  27.696   5.622   7.950
 3486POPC   C4B 5926  27.680   5.684   7.650
 3487POPC   NC3 5927  19.026  12.052   9.450
 3487POPC   PO4 5928  19.063  12.054   9.150
 3487POPC   GL1 5929  19.076  12.074   8.850
 3487POPC   GL2 5930  19.193  11.952   8.850
 3487POPC   C1A 5931  19.090  12.077   8.550
 3487POPC   D2A 5932  19.106  12.108   8.250
 3487POPC   C3A 5933  19.044  12.117   7.950
 3487POPC   C4A 5934  19.099  12.085   7.650
 3487POPC   C1B 5935  19.217  11.912   8.550
 3487POPC   C2B 5936  19.214  11.933   8.250
 3487POPC   C3B 5937  19.262  11.941   7.950
 3487POPC   C4B 5938  19.277  11.899   7.650
 3488POPC   NC3 5939  27.553  16.779   9.450
 3488POPC   PO4 5940  27.561  16.721   9.150
 3488POPC   GL1 5941  27.640  16.729   8.850
 3488POPC   GL2 5942  27.687  16.701   8.850
 3488POPC   C1A 5943  27.586  16.700   8.550
 3488POPC   D2A 5944  27.620  16.689   8.250
 3488POPC   C3A 5945  27.616  16.764   7.950
 3488POPC   C4A 5946  27.575  16.721   7.650
 3488POPC   C1B 5947  27.824  16.729   8.550
 3488POPC   C2B 5948  27.799  16.664   8.250
 3488POPC   C3B 5949  27.887  16.666   7.950
 3488POPC   C4B 5950  27.842  16.673   7.650
 3489POPC   NC3 5951  19.847  11.294   9.450
 3489POPC   PO4 5952  19.814  11.345   9.150
 3489POPC   GL1 5953  19.787  11.261   8.850
 3489POPC   GL2 5954  19.979  11.341   8.850
 3489POPC   C1A 5955  19.882  11.334   8.550
 3489POPC   D2A 5956  19.884  11.313   8.250
 3489POPC   C3A 5957  19.805  11.297   7.950
 3489POPC   C4A 5958  19.861  11.265   7.650
 3489POPC   C1B 5959  20.022  11.499   8.550
 3489POPC   C2B 5960  20.024  11.432   8.250
 3489POPC   C3B 5961  20.020  11.483   7.950
 3489POPC   C4B 5962  20.006  11.486   7.650
 3490POPC   NC3 5963  33.015  24.534   9.450
 3490POPC   PO4 5964  33.003  24.495   9.150
 3490POPC   GL1 5965  32.984  24.448   8.850
 3490POPC   GL2 5966  32.992  24.630   8.850
 3490POPC   C1A 5967  33.063  24.463   8.550
 3490POPC   D2A 5968  32.984  24.489   8.250
 3490POPC   C3A 5969  33.073  24.485   7.950
 3490POPC   C4A 5970  32.987  24.492   7.650
 3490POPC   C1B 5971  32.967  24.694   8.550
 3490POPC   C2B 5972  32.972  24.747   8.250
 3490POPC   C3B 5973  32.927  24.697   7.950
 3490POPC   C4B 5974  32.972  24.781   7.650
 3491POPC   NC3 5975  26.037  23.758   9.450
 3491POPC   PO4 5976  26.002  23.740   9.150
 3491POPC   GL1 5977  26.091  23.761   8.850
 3491POPC   GL2 5978  26.133  23.649   8.850
 3491POPC   C1A 5979  26.029  23.718   8.550
 3491POPC   D2A 5980  25.998  23.710   8.250
 3491POPC   C3A 5981  26.077  23.728   7.950
 3491POPC   C4A 5982  26.084  23.707   7.650
 3491POPC   C1B 5983  26.283  23.616   8.550
 3491POPC   C2B 5984  26.308  23.628   8.250
 3491POPC   C3B 5985  26.328  23.623   7.950
 3491POPC   C4B 5986  26.318  23.670   7.650
 3492POPC   NC3 5987  10.490  27.555   9.450
 3492POPC   PO4 5988  10.559  27.570   9.150
 3492POPC   GL1 5989  10.498  27.567   8.850
 3492POPC   GL2 5990  10.568  27.478   8.850
 3492POPC   C1A 5991  10.568  27.634   8.550
 3492POPC   D2A 5992  10.518  27.547   8.250
 3492POPC   C3A 5993  10.489  27.634   7.950
 3492POPC   C4A 5994  10.550  27.613   7.650
 3492POPC   C1B 5995  10.691  27.349   8.550
 3492POPC   C2B 5996  10.668  27.416   8.250
 3492POPC   C3B 5997  10.678  27.402   7.950
 3492POPC   C4B 5998  10.722  27.439   7.650
 3493POPC   NC3 5999  29.178  30.728   9.450
 3493POPC   PO4 6000  29.106  30.698   9.150
 3493POPC   GL1 6001  29.176  30.722   8.850
 3493POPC   GL2 6002  29.142  30.550   8.850
 3493POPC   C1A 6003  29.096  30.662   8.550
 3493POPC   D2A 6004  29.185  30.706   8.250
 3493POPC   C3A 6005  29.124  30.679   7.950
 3493POPC   C4A 6006  29.144  30.664   7.650
 3493POPC   C1B 6007  29.104  30.476   8.550
 3493POPC   C2B 6008  29.167  30.464   8.250
 3493POPC   C3B 6009  29.115  30.479   7.950
 3493POPC   C4B 6010  29.105  30.481   7.650
 3494POPC   NC3 6011  36.159  42.293   9.450
 3494POPC   PO4 6012  36.172  42.285   9.150
 3494POPC   GL1 6013  36.116  42.331   8.850
 3494POPC   GL2 6014  36.231  42.258   8.850
 3494POPC   C1A 6015  36.145  42.334   8.550
 3494POPC   D2A 6016  36.176  42.323   8.250
 3494POPC   C3A 6017  36.154  42.375   7.950
 3494POPC   C4A 6018  36.108  42.367   7.650
 3494POPC   C1B 6019  36.391  42.280   8.550
 3494POPC   C2B 6020  36.365  42.274   8.250
 3494POPC   C3B 6021  36.402  42.265   7.950
 3494POPC   C4B 6022  36.383  42.199   7.650
 3495POPC   NC3 6023   0.432  16.695   9.450
 3495POPC   PO4 6024   0.417  16.732   9.150
 3495POPC   GL1 6025   0.442  16.734   8.850
 3495POPC   GL2 6026   0.577  16.606   8.850
 3495POPC   C1A 6027   0.447  16.686   8.550
 3495POPC   D2A 6028   0.442  16.775   8.250
 3495POPC   C3A 6029   0.402  16.756   7.950
 3495POPC   C4A 6030   0.478  16.737   7.650
 3495POPC   C1B 6031   0.644  16.566   8.550
 3495POPC   C2B 6032   0.669  16.574   8.250
 3495POPC   C3B 6033   0.619  16.586   7.950
 3495POPC   C4B 6034   0.623  16.614   7.650
 3496POPC   NC3 6035  29.126  12.059   9.450
 3496POPC   PO4 6036  29.189  12.027   9.150
 3496POPC   GL1 6037  29.178  12.076   8.850
 3496POPC   GL2 6038  29.186  12.162   8.850
 3496POPC   C1A 6039  29.105  12.111   8.550
 3496POPC   D2A 6040  29.174  12.057   8.250
 3496POPC   C3A 6041  29.152  12.061   7.950
 3496POPC   C4A 6042  29.117  12.050   7.650
 3496POPC   C1B 6043  29.279  12.233   8.550
 3496POPC   C2B 6044  29.293  12.319   8.250
 3496POPC   C3B 6045  29.283  12.299   7.950
 3496POPC   C4B 6046  29.271  12.261   7.650
 3497POPC   NC3 6047  26.016  26.080   9.450
 3497POPC   PO4 6048  26.075  26.075   9.150
 3497POPC   GL1 6049  26.041  26.060   8.850
 3497POPC   GL2 6050  25.990  26.094   8.850
 3497POPC   C1A 6051  26.025  26.016   8.550
 3497POPC   D2A 6052  26.084  25.993   8.250
 3497POPC   C3A 6053  25.992  26.003   7.950
 3497POPC   C4A 6054  26.048  26.082   7.650
 3497POPC   C1B 6055  25.856  26.228   8.550
 3497POPC   C2B 6056  25.831  26.183   8.250
 3497POPC   C3B 6057  25.836  26.214   7.950
 3497POPC   C4B 6058  25.806  26.164   7.650
 3498POPC   NC3 6059   1.247   2.037   9.450
 3498POPC   PO4 6060   1.193   1.940   9.150
 3498POPC   GL1 6061   1.211   1.952   8.850
 3498POPC   GL2 6062   1.170   2.057   8.850
 3498POPC   C1A 6063   1.206   1.964   8.550
 3498POPC   D2A 6064   1.210   1.970   8.250
 3498POPC   C3A 6065   1.178   2.035   7.950
 3498POPC   C4A 6066   1.260   1.990   7.650
 3498POPC   C1B 6067   1.030   2.213   8.550
 3498POPC   C2B 6068   1.048   2.186   8.250
 3498POPC   C3B 6069   1.063   2.230   7.950
 3498POPC   C4B 6070   1.091   2.159   7.650
 3499POPC   NC3 6071   8.936  43.117   9.450
 3499POPC   PO4 6072   8.969  43.091   9.150
 3499POPC   GL1 6073   8.932  43.100   8.850
 3499POPC   GL2 6074   8.800  43.138   8.850
 3499POPC   C1A 6075   8.954  43.114   8.550
 3499POPC   D2A 6076   9.016  43.151   8.250
 3499POPC   C3A 6077   8.977  43.159   7.950
 3499POPC   C4A 6078   8.942  43.149   7.650
 3499POPC   C1B 6079   8.743  43.099   8.550
 3499POPC   C2B 6080   8.689  43.105   8.250
 3499POPC   C3B 6081   8.718  43.113   7.950
 3499POPC   C4B 6082   8.758  43.090   7.650
 3500POPC   NC3 6083  31.458   0.488   9.450
 3500POPC   PO4 6084  31.425   0.399   9.150
 3500POPC   GL1 6085  31.424   0.392   8.850
 3500POPC   GL2 6086  31.631   0.428   8.850
 3500POPC   C1A 6087  31.451   0.449   8.550
 3500POPC   D2A 6088  31.479   0.414   8.250
 3500POPC   C3A 6089  31.466   0.405   7.950
 3500POPC   C4A 6090  31.437   0.486   7.650
 3500POPC   C1B 6091  31.727   0.307   8.550
 3500POPC   C2B 6092  31.696   0.319   8.250
 3500POPC   C3B 6093  31.707   0.314   7.950
 3500POPC   C4B 6094  31.678   0.366   7.650
 3501POPC   NC3 6095   5.120   5.060   9.450
 3501POPC   PO4 6096   5.122   5.138   9.150
 3501POPC   GL1 6097   5.105   5.065   8.850
 3501POPC   GL2 6098   4.949   5.077   8.850
 3501POPC   C1A 6099   5.047   5.112   8.550
 3501POPC   D2A 6100   5.117   5.141   8.250
 3501POPC   C3A 6101   5.050   5.106   7.950
 3501POPC   C4A 6102   5.123   5.117   7.650
 3501POPC   C1B 6103   4.814   5.031   8.550
 3501POPC   C2B 6104   4.870   5.054   8.250
 3501POPC   C3B 6105   4.886   5.042   7.950
 3501POPC   C4B 6106   4.867   5.027   7.650
 3502POPC   NC3 6107   5.904   4.325   9.450
 3502POPC   PO4 6108   5.912   4.350   9.150
 3502POPC   GL1 6109   5.900   4.289   8.850
 3502POPC   GL2 6110   5.881   4.472   8.850
 3502POPC   C1A 6111   5.819   4.354   8.550
 3502POPC   D2A 6112   5.905   4.311   8.250
 3502POPC   C3A 6113   5.905   4.273   7.950
 3502POPC   C4A 6114   5.870   4.349   7.650
 3502POPC   C1B 6115   5.777   4.519   8.550
 3502POPC   C2B 6116   5.835   4.595   8.250
 3502POPC   C3B 6117   5.800   4.555   7.950
 3502POPC   C4B 6118   5.833   4.513   7.650
 3503POPC   NC3 6119   1.188   1.242   9.450
 3503POPC   PO4 6120   1.170   1.190   9.150
 3503POPC   GL1 6121   1.200   1.239   8.850
 3503POPC   GL2 6122   1.291   1.091   8.850
 3503POPC   C1A 6123   1.202   1.260   8.550
 3503POPC   D2A 6124   1.233   1.168   8.250
 3503POPC   C3A 6125   1.201   1.230   7.950
 3503POPC   C4A 6126   1.232   1.261   7.650
 3503POPC   C1B 6127   1.378   1.107   8.550
 3503POPC   C2B 6128   1.416   1.057   8.250
 3503POPC   C3B 6129   1.398   1.084   7.950
 3503POPC   C4B 6130   1.403   1.101   7.650
 3504POPC   NC3 6131  39.983  33.039   9.450
 3504POPC   PO4 6132  40.037  33.068   9.150
 3504POPC   GL1 6133  40.051  32.985   8.850
 3504POPC   GL2 6134  39.913  33.059   8.850
 3504POPC   C1A 6135  40.044  32.975   8.550
 3504POPC   D2A 6136  39.973  33.027   8.250
 3504POPC   C3A 6137  40.016  33.024   7.950
 3504POPC   C4A 6138  40.023  32.976   7.650
 3504POPC   C1B 6139  39.720  33.066   8.550
 3504POPC   C2B 6140  39.720  33.064   8.250
 3504POPC   C3B 6141  39.728  33.069   7.950
 3504POPC   C4B 6142  39.793  33.107   7.650
 3505POPC   NC3 6143  33.798   6.654   9.450
 3505POPC   PO4 6144  33.814   6.656   9.150
 3505POPC   GL1 6145  33.783   6.628   8.850
 3505POPC   GL2 6146  33.712   6.731   8.850
 3505POPC   C1A 6147  33.839   6.638   8.550
 3505POPC   D2A 6148  33.772   6.643   8.250
 3505POPC   C3A 6149  33.803   6.690   7.950
 3505POPC   C4A 6150  33.752   6.668   7.650
 3505POPC   C1B 6151  33.571   6.781   8.550
 3505POPC   C2B 6152  33.570   6.802   8.250
 3505POPC   C3B 6153  33.649   6.789   7.950
 3505POPC   C4B 6154  33.616   6.789   7.650
 3506POPC   NC3 6155  36.130  17.506   9.450
 3506POPC   PO4 6156  36.078  17.512   9.150
 3506POPC   GL1 6157  36.173  17.510   8.850
 3506POPC   GL2 6158  36.291  17.509   8.850
 3506POPC   C1A 6159  36.154  17.485   8.550
 3506POPC   D2A 6160  36.137  17.484   8.250
 3506POPC   C3A 6161  36.081  17.465   7.950
 3506POPC   C4A 6162  36.132  17.483   7.650
 3506POPC   C1B 6163  36.354  17.450   8.550
 3506POPC   C2B 6164  36.369  17.478   8.250
 3506POPC   C3B 6165  36.398  17.493   7.950
 3506POPC   C4B 6166  36.339  17.483   7.650
 3507POPC   NC3 6167  19.072  26.806   9.450
 3507POPC   PO4 6168  19.069  26.787   9.150
 3507POPC   GL1 6169  19.021  26.837   8.850
 3507POPC   GL2 6170  18.933  26.765   8.850
 3507POPC   C1A 6171  19.044  26.787   8.550
 3507POPC   D2A 6172  19.068  26.793   8.250
 3507POPC   C3A 6173  19.096  26.797   7.950
 3507POPC   C4A 6174  19.036  26.852   7.650
 3507POPC   C1B 6175  18.829  26.796   8.550
 3507POPC   C2B 6176  18.855  26.832   8.250
 3507POPC   C3B 6177  18.841  26.768   7.950
 3507POPC   C4B 6178  18.800  26.747   7.650
 3508POPC   NC3 6179  18.245  43.894   9.450
 3508POPC   PO4 6180  18.301  43.890   9.150
 3508POPC   GL1 6181  18.308  43.873   8.850
 3508POPC   GL2 6182  18.373  43.928   8.850
 3508POPC   C1A 6183  18.325  43.852   8.550
 3508POPC   D2A 6184  18.262  43.885   8.250
 3508POPC   C3A 6185  18.238  43.908   7.950
 3508POPC   C4A 6186  18.324  43.914   7.650
 3508POPC   C1B 6187  18.535  43.904   8.550
 3508POPC   C2B 6188  18.493  43.880   8.250
 3508POPC   C3B 6189  18.575  43.863   7.950
 3508POPC   C4B 6190  18.535  43.911   7.650
 3509POPC   NC3 6191   6.617  41.540   9.450
 3509POPC   PO4 6192   6.653  41.517   9.150
 3509POPC   GL1 6193   6.681  41.512   8.850
 3509POPC   GL2 6194   6.793  41.623   8.850
 3509POPC   C1A 6195   6.666  41.580   8.550
 3509POPC   D2A 6196   6.604  41.565   8.250
 3509POPC   C3A 6197   6.621  41.566   7.950
 3509POPC   C4A 6198   6.674  41.510   7.650
 3509POPC   C1B 6199   6.797  41.719   8.550
 3509POPC   C2B 6200   6.817  41.699   8.250
 3509POPC   C3B 6201   6.857  41.688   7.950
 3509POPC   C4B 6202   6.832  41.713   7.650
 3510POPC   NC3 6203  14.387  22.142   9.450
 3510POPC   PO4 6204  14.372  22.173   9.150
 3510POPC   GL1 6205  14.424  22.200   8.850
 3510POPC   GL2 6206  14.394  22.005   8.850
 3510POPC   C1A 6207  14.381  22.125   8.550
 3510POPC   D2A 6208  14.443  22.194   8.250
 3510POPC   C3A 6209  14.412  22.180   7.950
 3510POPC   C4A 6210  14.437  22.113   7.650
 3510POPC   C1B 6211  14.258  21.899   8.550
 3510POPC   C2B 6212  14.268  21.893   8.250
 3510POPC   C3B 6213  14.258  21.967   7.950
 3510POPC   C4B 6214  14.290  21.918   7.650
 3511POPC   NC3 6215   1.183  12.041   9.450
 3511POPC   PO4 6216   1.207  12.066   9.150
 3511POPC   GL1 6217   1.239  12.070   8.850
 3511POPC   GL2 6218   1.370  12.034   8.850
 3511POPC   C1A 6219   1.231  12.078   8.550
 3511POPC   D2A 6220   1.179  12.105   8.250
 3511POPC   C3A 6221   1.214  12.090   7.950
 3511POPC   C4A 6222   1.213  12.079   7.650
 3511POPC   C1B 6223   1.449  12.043   8.550
 3511POPC   C2B 6224   1.499  12.079   8.250
 3511POPC   C3B 6225   1.419  12.128   7.950
 3511POPC   C4B 6226   1.439  12.053   7.650
 3512POPC   NC3 6227  42.384  21.337   9.450
 3512POPC   PO4 6228  42.330  21.383   9.150
 3512POPC   GL1 6229  42.356  21.427   8.850
 3512POPC   GL2 6230  42.428  21.515   8.850
 3512POPC   C1A 6231  42.329  21.399   8.550
 3512POPC   D2A 6232  42.303  21.351   8.250
 3512POPC   C3A 6233  42.328  21.407   7.950
 3512POPC   C4A 6234  42.338  21.378   7.650
 3512POPC   C1B 6235  42.522  21.556   8.550
 3512POPC   C2B 6236  42.513  21.557   8.250
 3512POPC   C3B 6237  42.482  21.590   7.950
 3512POPC   C4B 6238  42.542  21.530   7.650
 3513POPC   NC3 6239  43.862   0.398   9.450
 3513POPC   PO4 6240  43.921   0.420   9.150
 3513POPC   GL1 6241  43.894   0.410   8.850
 3513POPC   GL2 6242  43.990   0.500   8.850
 3513POPC   C1A 6243  43.883   0.392   8.550
 3513POPC   D2A 6244  43.851   0.421   8.250
 3513POPC   C3A 6245  43.856   0.440   7.950
 3513POPC   C4A 6246  43.921   0.456   7.650
 3513POPC   C1B 6247  44.121   0.479   8.550
 3513POPC   C2B 6248  44.154   0.553   8.250
 3513POPC   C3B 6249  44.160   0.555   7.950
 3513POPC   C4B 6250  44.147   0.531   7.650
 3514POPC   NC3 6251   7.416   2.808   9.450
 3514POPC   PO4 6252   7.389   2.749   9.150
 3514POPC   GL1 6253   7.407   2.801   8.850
 3514POPC   GL2 6254   7.361   2.653   8.850
 3514POPC   C1A 6255   7.462   2.734   8.550
 3514POPC   D2A 6256   7.389   2.781   8.250
 3514POPC   C3A 6257   7.445   2.760   7.950
 3514POPC   C4A 6258   7.406   2.753   7.650
 3514POPC   C1B 6259   7.250   2.568   8.550
 3514POPC   C2B 6260   7.223   2.625   8.250
 3514POPC   C3B 6261   7.186   2.640   7.950
 3514POPC   C4B 6262   7.259   2.570   7.650
 3515POPC   NC3 6263  16.778  14.389   9.450
 3515POPC   PO4 6264  16.738  14.429   9.150
 3515POPC   GL1 6265  16.725  14.354   8.850
 3515POPC   GL2 6266  16.733  14.507   8.850
 3515POPC   C1A 6267  16.723  14.410   8.550
 3515POPC   D2A 6268  16.689  14.373   8.250
 3515POPC   C3A 6269  16.687  14.445   7.950
 3515POPC   C4A 6270  16.772  14.368   7.650
 3515POPC   C1B 6271  16.708  14.676   8.550
 3515POPC   C2B 6272  16.656  14.628   8.250
 3515POPC   C3B 6273  16.730  14.667   7.950
 3515POPC   C4B 6274  16.680  14.622   7.650
 3516POPC   NC3 6275   3.514  33.002   9.450
 3516POPC   PO4 6276   3.521  32.988   9.150
 3516POPC   GL1 6277   3.539  33.016   8.850
 3516POPC   GL2 6278   3.432  33.001   8.850
 3516POPC   C1A 6279   3.577  32.987   8.550
 3516POPC   D2A 6280   3.551  33.024   8.250
 3516POPC   C3A 6281   3.496  33.061   7.950
 3516POPC   C4A 6282   3.523  32.999   7.650
 3516POPC   C1B 6283   3.340  33.071   8.550
 3516POPC   C2B 6284   3.287  33.057   8.250
 3516POPC   C3B 6285   3.304  33.060   7.950
 3516POPC   C4B 6286   3.342  33.023   7.650
 3517POPC   NC3 6287   7.392  21.346   9.450
 3517POPC   PO4 6288   7.399  21.359   9.150
 3517POPC   GL1 6289   7.459  21.418   8.850
 3517POPC   GL2 6290   7.552  21.430   8.850
 3517POPC   C1A 6291   7.447  21.337   8.550
 3517POPC   D2A 6292   7.400  21.406   8.250
 3517POPC   C3A 6293   7.412  21.423   7.950
 3517POPC   C4A 6294   7.437  21.370   7.650
 3517POPC   C1B 6295   7.579  21.537   8.550
 3517POPC   C2B 6296   7.575  21.571   8.250
 3517POPC   C3B 6297   7.627  21.509   7.950
 3517POPC   C4B 6298   7.603  21.509   7.650
 3518POPC   NC3 6299  43.149   8.237   9.450
 3518POPC   PO4 6300  43.143   8.163   9.150
 3518POPC   GL1 6301  43.120   8.170   8.850
 3518POPC   GL2 6302  42.939   8.184   8.850
 3518POPC   C1A 6303  43.061   8.225   8.550
 3518POPC   D2A 6304  43.108   8.171   8.250
 3518POPC   C3A 6305  43.114   8.173   7.950
 3518POPC   C4A 6306  43.070   8.154   7.650
 3518POPC   C1B 6307  42.841   8.191   8.550
 3518POPC   C2B 6308  42.823   8.204   8.250
 3518POPC   C3B 6309  42.866   8.258   7.950
 3518POPC   C4B 6310  42.905   8.235   7.650
 3519POPC   NC3 6311  35.310  36.875   9.450
 3519POPC   PO4 6312  35.397  36.923   9.150
 3519POPC   GL1 6313  35.305  36.901   8.850
 3519POPC   GL2 6314  35.410  36.839   8.850
 3519POPC   C1A 6315  35.361  36.888   8.550
 3519POPC   D2A 6316  35.347  36.857   8.250
 3519POPC   C3A 6317  35.365  36.866   7.950
 3519POPC   C4A 6318  35.373  36.932   7.650
 3519POPC   C1B 6319  35.519  36.766   8.550
 3519POPC   C2B 6320  35.548  36.735   8.250
 3519POPC   C3B 6321  35.582  36.753   7.950
 3519POPC   C4B 6322  35.548  36.791   7.650
 3520POPC   NC3 6323  33.796  39.216   9.450
 3520POPC   PO4 6324  33.837  39.185   9.150
 3520POPC   GL1 6325  33.762  39.207   8.850
 3520POPC   GL2 6326  33.745  39.336   8.850
 3520POPC   C1A 6327  33.828  39.209   8.550
 3520POPC   D2A 6328  33.777  39.223   8.250
 3520POPC   C3A 6329  33.813  39.215   7.950
 3520POPC   C4A 6330  33.810  39.240   7.650
 3520POPC   C1B 6331  33.641  39.402   8.550
 3520POPC   C2B 6332  33.578  39.399   8.250
 3520POPC   C3B 6333  33.652  39.337   7.950
 3520POPC   C4B 6334  33.581  39.367   7.650
 3521POPC   NC3 6335  26.782  14.366   9.450
 3521POPC   PO4 6336  26.788  14.383   9.150
 3521POPC   GL1 6337  26.838  14.451   8.850
 3521POPC   GL2 6338  26.701  14.472   8.850
 3521POPC   C1A 6339  26.806  14.451   8.550
 3521POPC   D2A 6340  26.852  14.411   8.250
 3521POPC   C3A 6341  26.849  14.452   7.950
 3521POPC   C4A 6342  26.772  14.431   7.650
 3521POPC   C1B 6343  26.591  14.517   8.550
 3521POPC   C2B 6344  26.623  14.511   8.250
 3521POPC   C3B 6345  26.572  14.439   7.950
 3521POPC   C4B 6346  26.569  14.433   7.650
 3522POPC   NC3 6347  12.045   3.548   9.450
 3522POPC   PO4 6348  12.118   3.517   9.150
 3522POPC   GL1 6349  12.072   3.547   8.850
 3522POPC   GL2 6350  11.987   3.471   8.850
 3522POPC   C1A 6351  12.107   3.493   8.550
 3522POPC   D2A 6352  12.064   3.500   8.250
 3522POPC   C3A 6353  12.109   3.519   7.950
 3522POPC   C4A 6354  12.120   3.540   7.650
 3522POPC   C1B 6355  11.851   3.398   8.550
 3522POPC   C2B 6356  11.846   3.483   8.250
 3522POPC   C3B 6357  11.851   3.457   7.950
 3522POPC   C4B 6358  11.864   3.428   7.650
 3523POPC   NC3 6359  10.528  43.878   9.450
 3523POPC   PO4 6360  10.516  43.854   9.150
 3523POPC   GL1 6361  10.487  43.842   8.850
 3523POPC   GL2 6362  10.606  43.858   8.850
 3523POPC   C1A 6363  10.518  43.933   8.550
 3523POPC   D2A 6364  10.499  43.845   8.250
 3523POPC   C3A 6365  10.518  43.924   7.950
 3523POPC   C4A 6366  10.556  43.914   7.650
 3523POPC   C1B 6367  10.725  43.834   8.550
 3523POPC   C2B 6368  10.738  43.789   8.250
 3523POPC   C3B 6369  10.784  43.760   7.950
 3523POPC   C4B 6370  10.716  43.832   7.650
 3524POPC   NC3 6371  17.517  44.680   9.450
 3524POPC   PO4 6372  17.493  44.648   9.150
 3524POPC   GL1 6373  17.458  44.702   8.850
 3524POPC   GL2 6374  17.459  44.727   8.850
 3524POPC   C1A 6375  17.491  44.615   8.550
 3524POPC   D2A 6376  17.480  44.707   8.250
 3524POPC   C3A 6377  17.501  44.654   7.950
 3524POPC   C4A 6378  17.485  44.698   7.650
 3524POPC   C1B 6379  17.428  44.883   8.550
 3524POPC   C2B 6380  17.438  44.933   8.250
 3524POPC   C3B 6381  17.386  44.855   7.950
 3524POPC   C4B 6382  17.351  44.884   7.650
 3525POPC   NC3 6383   6.636  27.628   9.450
 3525POPC   PO4 6384   6.616  27.558   9.150
 3525POPC   GL1 6385   6.635  27.623   8.850
 3525POPC   GL2 6386   6.609  27.684   8.850
 3525POPC   C1A 6387   6.611  27.629   8.550
 3525POPC   D2A 6388   6.674  27.557   8.250
 3525POPC   C3A 6389   6.652  27.585   7.950
 3525POPC   C4A 6390   6.656  27.642   7.650
 3525POPC   C1B 6391   6.480  27.759   8.550
 3525POPC   C2B 6392   6.548  27.829   8.250
 3525POPC   C3B 6393   6.522  27.834   7.950
 3525POPC   C4B 6394   6.511  27.794   7.650
 3526POPC   NC3 6395  10.560   9.007   9.450
 3526POPC   PO4 6396  10.501   9.005   9.150
 3526POPC   GL1 6397  10.499   8.965   8.850
 3526POPC   GL2 6398  10.509   8.889   8.850
 3526POPC   C1A 6399  10.491   8.950   8.550
 3526POPC   D2A 6400  10.501   9.021   8.250
 3526POPC   C3A 6401  10.520   9.022   7.950
 3526POPC   C4A 6402  10.491   9.018   7.650
 3526POPC   C1B 6403  10.511   8.684   8.550
 3526POPC   C2B 6404  10.473   8.748   8.250
 3526POPC   C3B 6405  10.482   8.693   7.950
 3526POPC   C4B 6406  10.456   8.705   7.650
 3527POPC   NC3 6407  31.517  43.925   9.450
 3527POPC   PO4 6408  31.462  43.906   9.150
 3527POPC   GL1 6409  31.429  43.922   8.850
 3527POPC   GL2 6410  31.466  43.815   8.850
 3527POPC   C1A 6411  31.503  43.907   8.550
 3527POPC   D2A 6412  31.424  43.862   8.250
 3527POPC   C3A 6413  31.507  43.884   7.950
 3527POPC   C4A 6414  31.499  43.936   7.650
 3527POPC   C1B 6415  31.580  43.598   8.550
 3527POPC   C2B 6416  31.528  43.633   8.250
 3527POPC   C3B 6417  31.521  43.616   7.950
 3527POPC   C4B 6418  31.576  43.623   7.650
 3528POPC   NC3 6419  42.343   5.126   9.450
 3528POPC   PO4 6420  42.369   5.064   9.150
 3528POPC   GL1 6421  42.375   5.124   8.850
 3528POPC   GL2 6422  42.414   5.023   8.850
 3528POPC   C1A 6423  42.381   5.072   8.550
 3528POPC   D2A 6424  42.328   5.088   8.250
 3528POPC   C3A 6425  42.335   5.064   7.950
 3528POPC   C4A 6426  42.366   5.074   7.650
 3528POPC   C1B 6427  42.595   5.031   8.550
 3528POPC   C2B 6428  42.601   5.037   8.250
 3528POPC   C3B 6429  42.553   4.988   7.950
 3528POPC   C4B 6430  42.592   5.060   7.650
 3529POPC   NC3 6431  18.324  12.106   9.450
 3529POPC   PO4 6432  18.257  12.080   9.150
 3529POPC   GL1 6433  18.315  12.084   8.850
 3529POPC   GL2 6434  18.209  12.190   8.850
 3529POPC   C1A 6435  18.324  12.111   8.550
 3529POPC   D2A 6436  18.269  12.045   8.250
 3529POPC   C3A 6437  18.291  12.065   7.950
 3529POPC   C4A 6438  18.313  12.089   7.650
 3529POPC   C1B 6439  18.158  12.317   8.550
 3529POPC   C2B 6440  18.229  12.293   8.250
 3529POPC   C3B 6441  18.183  12.339   7.950
 3529POPC   C4B 6442  18.149  12.287   7.650
 3530POPC   NC3 6443  26.005  42.299   9.450
 3530POPC   PO4 6444  26.018  42.356   9.150
 3530POPC   GL1 6445  26.016  42.376   8.850
 3530POPC   GL2 6446  25.940  42.427   8.850
 3530POPC   C1A 6447  26.038  42.318   8.550
 3530POPC   D2A 6448  26.058  42.334   8.250
 3530POPC   C3A 6449  26.011  42.358   7.950
 3530POPC   C4A 6450  26.020  42.352   7.650
 3530POPC   C1B 6451  25.810  42.483   8.550
 3530POPC   C2B 6452  25.846  42.399   8.250
 3530POPC   C3B 6453  25.802  42.462   7.950
 3530POPC   C4B 6454  25.814  42.443   7.650
 3531POPC   NC3 6455   1.240  23.718   9.450
 3531POPC   PO4 6456   1.192  23.718   9.150
 3531POPC   GL1 6457   1.249  23.754   8.850
 3531POPC   GL2 6458   1.320  23.721   8.850
 3531POPC   C1A 6459   1.175  23.718   8.550
 3531POPC   D2A 6460   1.179  23.735   8.250
 3531POPC   C3A 6461   1.224  23.684   7.950
 3531POPC   C4A 6462   1.177  23.695   7.650
 3531POPC   C1B 6463   1.503  23.757   8.550
 3531POPC   C2B 6464   1.462  23.776   8.250
 3531POPC   C3B 6465   1.431  23.755   7.950
 3531POPC   C4B 6466   1.484  23.769   7.650
 3532POPC   NC3 6467  16.764  33.047   9.450
 3532POPC   PO4 6468  16.759  33.015   9.150
 3532POPC   GL1 6469  16.781  32.986   8.850
 3532POPC   GL2 6470  16.713  33.160   8.850
 3532POPC   C1A 6471  16.701  33.036   8.550
 3532POPC   D2A 6472  16.740  33.011   8.250
 3532POPC   C3A 6473  16.780  33.026   7.950
 3532POPC   C4A 6474  16.751  32.975   7.650
 3532POPC   C1B 6475  16.632  33.256   8.550
 3532POPC   C2B 6476  16.646  33.313   8.250
 3532POPC   C3B 6477  16.658  33.284   7.950
 3532POPC   C4B 6478  16.664  33.279   7.650
 3533POPC   NC3 6479  33.028  17.519   9.450
 3533POPC   PO4 6480  33.013  17.481   9.150
 3533POPC   GL1 6481  33.044  17.514   8.850
 3533POPC   GL2 6482  33.017  17.354   8.850
 3533POPC   C1A 6483  33.033  17.481   8.550
 3533POPC   D2A 6484  33.011  17.552   8.250
 3533POPC   C3A 6485  33.064  17.525   7.950
 3533POPC   C4A 6486  32.978  17.509   7.650
 3533POPC   C1B 6487  32.977  17.267   8.550
 3533POPC   C2B 6488  32.897  17.306   8.250
 3533POPC   C3B 6489  32.890  17.238   7.950
 3533POPC   C4B 6490  32.942  17.240   7.650
 3534POPC   NC3 6491  29.939  24.517   9.450
 3534POPC   PO4 6492  29.887  24.531   9.150
 3534POPC   GL1 6493  29.899  24.519   8.850
 3534POPC   GL2 6494  29.995  24.539   8.850
 3534POPC   C1A 6495  29.940  24.514   8.550
 3534POPC   D2A 6496  29.921  24.518   8.250
 3534POPC   C3A 6497  29.921  24.491   7.950
 3534POPC   C4A 6498  29.871  24.471   7.650
 3534POPC   C1B 6499  30.114  24.668   8.550
 3534POPC   C2B 6500  30.120  24.698   8.250
 3534POPC   C3B 6501  30.122  24.682   7.950
 3534POPC   C4B 6502  30.081  24.675   7.650
 3535POPC   NC3 6503  19.882  20.618   9.450
 3535POPC   PO4 6504  19.852  20.634   9.150
 3535POPC   GL1 6505  19.800  20.566   8.850
 3535POPC   GL2 6506  19.798  20.736   8.850
 3535POPC   C1A 6507  19.843  20.624   8.550
 3535POPC   D2A 6508  19.800  20.637   8.250
 3535POPC   C3A 6509  19.815  20.588   7.950
 3535POPC   C4A 6510  19.832  20.585   7.650
 3535POPC   C1B 6511  19.785  20.875   8.550
 3535POPC   C2B 6512  19.765  20.822   8.250
 3535POPC   C3B 6513  19.789  20.868   7.950
 3535POPC   C4B 6514  19.789  20.815   7.650
 3536POPC   NC3 6515   1.170  17.467   9.450
 3536POPC   PO4 6516   1.164  17.467   9.150
 3536POPC   GL1 6517   1.249  17.532   8.850
 3536POPC   GL2 6518   1.349  17.618   8.850
 3536POPC   C1A 6519   1.179  17.542   8.550
 3536POPC   D2A 6520   1.223  17.550   8.250
 3536POPC   C3A 6521   1.240  17.471   7.950
 3536POPC   C4A 6522   1.178  17.460   7.650
 3536POPC   C1B 6523   1.375  17.672   8.550
 3536POPC   C2B 6524   1.368  17.660   8.250
 3536POPC   C3B 6525   1.380  17.712   7.950
 3536POPC   C4B 6526   1.425  17.659   7.650
 3537POPC   NC3 6527  34.610  14.386   9.450
 3537POPC   PO4 6528  34.587  14.363   9.150
 3537POPC   GL1 6529  34.620  14.371   8.850
 3537POPC   GL2 6530  34.720  14.463   8.850
 3537POPC   C1A 6531  34.607  14.416   8.550
 3537POPC   D2A 6532  34.538  14.379   8.250
 3537POPC   C3A 6533  34.589  14.411   7.950
 3537POPC   C4A 6534  34.559  14.403   7.650
 3537POPC   C1B 6535  34.791  14.429   8.550
 3537POPC   C2B 6536  34.783  14.463   8.250
 3537POPC   C3B 6537  34.781  14.477   7.950
 3537POPC   C4B 6538  34.796  14.486   7.650
 3538POPC   NC3 6539  13.644  19.851   9.450
 3538POPC   PO4 6540  13.678  19.810   9.150
 3538POPC   GL1 6541  13.674  19.858   8.850
 3538POPC   GL2 6542  13.587  19.745   8.850
 3538POPC   C1A 6543  13.584  19.883   8.550
 3538POPC   D2A 6544  13.668  19.792   8.250
 3538POPC   C3A 6545  13.618  19.848   7.950
 3538POPC   C4A 6546  13.606  19.884   7.650
 3538POPC   C1B 6547  13.601  19.607   8.550
 3538POPC   C2B 6548  13.611  19.586   8.250
 3538POPC   C3B 6549  13.634  19.608   7.950
 3538POPC   C4B 6550  13.620  19.581   7.650
 3539POPC   NC3 6551  32.228  43.880   9.450
 3539POPC   PO4 6552  32.253  43.927   9.150
 3539POPC   GL1 6553  32.260  43.887   8.850
 3539POPC   GL2 6554  32.349  43.852   8.850
 3539POPC   C1A 6555  32.210  43.895   8.550
 3539POPC   D2A 6556  32.202  43.884   8.250
 3539POPC   C3A 6557  32.205  43.920   7.950
 3539POPC   C4A 6558  32.282  43.884   7.650
 3539POPC   C1B 6559  32.449  43.900   8.550
 3539POPC   C2B 6560  32.496  43.857   8.250
 3539POPC   C3B 6561  32.495  43.893   7.950
 3539POPC   C4B 6562  32.490  43.838   7.650
 3540POPC   NC3 6563   5.904   9.007   9.450
 3540POPC   PO4 6564   5.872   8.928   9.150
 3540POPC   GL1 6565   5.874   8.969   8.850
 3540POPC   GL2 6566   5.985   8.886   8.850
 3540POPC   C1A 6567   5.856   8.994   8.550
 3540POPC   D2A 6568   5.909   8.931   8.250
 3540POPC   C3A 6569   5.917   8.930   7.950
 3540POPC   C4A 6570   5.857   8.973   7.650
 3540POPC   C1B 6571   6.001   8.820   8.550
 3540POPC   C2B 6572   6.029   8.738   8.250
 3540POPC   C3B 6573   6.028   8.786   7.950
 3540POPC   C4B 6574   6.055   8.835   7.650
 3541POPC   NC3 6575  39.205  20.598   9.450
 3541POPC   PO4 6576  39.238  20.626   9.150
 3541POPC   GL1 6577  39.190  20.601   8.850
 3541POPC   GL2 6578  39.178  20.720   8.850
 3541POPC   C1A 6579  39.255  20.632   8.550
 3541POPC   D2A 6580  39.280  20.607   8.250
 3541POPC   C3A 6581  39.232  20.631   7.950
 3541POPC   C4A 6582  39.228  20.601   7.650
 3541POPC   C1B 6583  39.108  20.830   8.550
 3541POPC   C2B 6584  39.164  20.881   8.250
 3541POPC   C3B 6585  39.144  20.860   7.950
 3541POPC   C4B 6586  39.166  20.893   7.650
 3542POPC   NC3 6587  34.527   1.204   9.450
 3542POPC   PO4 6588  34.542   1.252   9.150
 3542POPC   GL1 6589  34.555   1.249   8.850
 3542POPC   GL2 6590  34.570   1.356   8.850
 3542POPC   C1A 6591  34.572   1.215   8.550
 3542POPC   D2A 6592  34.589   1.185   8.250
 3542POPC   C3A 6593  34.535   1.227   7.950
 3542POPC   C4A 6594  34.607   1.195   7.650
 3542POPC   C1B 6595  34.601   1.478   8.550
 3542POPC   C2B 6596  34.548   1.452   8.250
 3542POPC   C3B 6597  34.538   1.506   7.950
 3542POPC   C4B 6598  34.540   1.475   7.650
 3543POPC   NC3 6599  22.201  43.879   9.450
 3543POPC   PO4 6600  22.120  43.926   9.150
 3543POPC   GL1 6601  22.198  43.869   8.850
 3543POPC   GL2 6602  22.077  43.826   8.850
 3543POPC   C1A 6603  22.124  43.928   8.550
 3543POPC   D2A 6604  22.157  43.876   8.250
 3543POPC   C3A 6605  22.183  43.838   7.950
 3543POPC   C4A 6606  22.134  43.906   7.650
 3543POPC   C1B 6607  22.001  43.726   8.550
 3543POPC   C2B 6608  22.051  43.674   8.250
 3543POPC   C3B 6609  22.052  43.702   7.950
 3543POPC   C4B 6610  21.990  43.676   7.650
 3544POPC   NC3 6611  43.914  41.591   9.450
 3544POPC   PO4 6612  43.861  41.514   9.150
 3544POPC   GL1 6613  43.897  41.578   8.850
 3544POPC   GL2 6614  43.891  41.468   8.850
 3544POPC   C1A 6615  43.917  41.520   8.550
 3544POPC   D2A 6616  43.934  41.552   8.250
 3544POPC   C3A 6617  43.900  41.568   7.950
 3544POPC   C4A 6618  43.879  41.576   7.650
 3544POPC   C1B 6619  43.964  41.266   8.550
 3544POPC   C2B 6620  43.907  41.328   8.250
 3544POPC   C3B 6621  43.941  41.356   7.950
 3544POPC   C4B 6622  43.904  41.362   7.650
 3545POPC   NC3 6623  33.008  30.701   9.450
 3545POPC   PO4 6624  33.042  30.719   9.150
 3545POPC   GL1 6625  33.047  30.712   8.850
 3545POPC   GL2 6626  32.916  30.708   8.850
 3545POPC   C1A 6627  32.986  30.656   8.550
 3545POPC   D2A 6628  33.041  30.730   8.250
 3545POPC   C3A 6629  33.017  30.666   7.950
 3545POPC   C4A 6630  33.073  30.673   7.650
 3545POPC   C1B 6631  32.826  30.745   8.550
 3545POPC   C2B 6632  32.804  30.812   8.250
 3545POPC   C3B 6633  32.829  30.813   7.950
 3545POPC   C4B 6634  32.809  30.819   7.650
 3546POPC   NC3 6635  34.546  23.744   9.450
 3546POPC   PO4 6636  34.560  23.759   9.150
 3546POPC   GL1 6637  34.596  23.699   8.850
 3546POPC   GL2 6638  34.440  23.718   8.850
 3546POPC   C1A 6639  34.618  23.667   8.550
 3546POPC   D2A 6640  34.549  23.679   8.250
 3546POPC   C3A 6641  34.537  23.678   7.950
 3546POPC   C4A 6642  34.604  23.730   7.650
 3546POPC   C1B 6643  34.301  23.647   8.550
 3546POPC   C2B 6644  34.361  23.723   8.250
 3546POPC   C3B 6645  34.327  23.711   7.950
 3546POPC   C4B 6646  34.353  23.682   7.650
 3547POPC   NC3 6647  33.050   9.012   9.450
 3547POPC   PO4 6648  33.057   9.002   9.150
 3547POPC   GL1 6649  33.034   8.951   8.850
 3547POPC   GL2 6650  33.032   8.872   8.850
 3547POPC   C1A 6651  33.005   9.001   8.550
 3547POPC   D2A 6652  33.027   8.964   8.250
 3547POPC   C3A 6653  33.069   8.951   7.950
 3547POPC   C4A 6654  32.991   8.940   7.650
 3547POPC   C1B 6655  33.030   8.755   8.550
 3547POPC   C2B 6656  33.038   8.687   8.250
 3547POPC   C3B 6657  33.062   8.743   7.950
 3547POPC   C4B 6658  33.037   8.697   7.650
 3548POPC   NC3 6659  23.696  10.477   9.450
 3548POPC   PO4 6660  23.727  10.548   9.150
 3548POPC   GL1 6661  23.761  10.553   8.850
 3548POPC   GL2 6662  23.699  10.413   8.850
 3548POPC   C1A 6663  23.684  10.532   8.550
 3548POPC   D2A 6664  23.716  10.508   8.250
 3548POPC   C3A 6665  23.706  10.492   7.950
 3548POPC   C4A 6666  23.693  10.476   7.650
 3548POPC   C1B 6667  23.599  10.309   8.550
 3548POPC   C2B 6668  23.570  10.314   8.250
 3548POPC   C3B 6669  23.619  10.255   7.950
 3548POPC   C4B 6670  23.578  10.326   7.650
 3549POPC   NC3 6671  42.305  19.844   9.450
 3549POPC   PO4 6672  42.301  19.870   9.150
 3549POPC   GL1 6673  42.318  19.860   8.850
 3549POPC   GL2 6674  42.243  19.832   8.850
 3549POPC   C1A 6675  42.328  19.828   8.550
 3549POPC   D2A 6676  42.344  19.858   8.250
 3549POPC   C3A 6677  42.322  19.829   7.950
 3549POPC   C4A 6678  42.310  19.848   7.650
 3549POPC   C1B 6679  42.084  19.865   8.550
 3549POPC   C2B 6680  42.091  19.847   8.250
 3549POPC   C3B 6681  42.127  19.854   7.950
 3549POPC   C4B 6682  42.130  19.868   7.650
 3550POPC   NC3 6683  25.266  21.400   9.450
 3550POPC   PO4 6684  25.284  21.378   9.150
 3550POPC   GL1 6685  25.272  21.380   8.850
 3550POPC   GL2 6686  25.185  21.233   8.850
 3550POPC   C1A 6687  25.220  21.423   8.550
 3550POPC   D2A 6688  25.275  21.407   8.250
 3550POPC   C3A 6689  25.268  21.374   7.950
 3550POPC   C4A 6690  25.284  21.432   7.650
 3550POPC   C1B 6691  25.172  21.128   8.550
 3550POPC   C2B 6692  25.134  21.148   8.250
 3550POPC   C3B 6693  25.149  21.121   7.950
 3550POPC   C4B 6694  25.179  21.197   7.650
 3551POPC   NC3 6695   3.525  34.625   9.450
 3551POPC   PO4 6696   3.573  34.616   9.150
 3551POPC   GL1 6697   3.558  34.555   8.850
 3551POPC   GL2 6698   3.467  34.528   8.850
 3551POPC   C1A 6699   3.583  34.575   8.550
 3551POPC   D2A 6700   3.537  34.537   8.250
 3551POPC   C3A 6701   3.555  34.561   7.950
 3551POPC   C4A 6702   3.569  34.590   7.650
 3551POPC   C1B 6703   3.370  34.477   8.550
 3551POPC   C2B 6704   3.339  34.428   8.250
 3551POPC   C3B 6705   3.320  34.455   7.950
 3551POPC   C4B 6706   3.383  34.464   7.650
 3552POPC   NC3 6707  43.159  41.511   9.450
 3552POPC   PO4 6708  43.158  41.589   9.150
 3552POPC   GL1 6709  43.062  41.572   8.850
 3552POPC   GL2 6710  43.046  41.673   8.850
 3552POPC   C1A 6711  43.123  41.519   8.550
 3552POPC   D2A 6712  43.067  41.576   8.250
 3552POPC   C3A 6713  43.135  41.541   7.950
 3552POPC   C4A 6714  43.082  41.519   7.650
 3552POPC   C1B 6715  43.084  41.803   8.550
 3552POPC   C2B 6716  43.012  41.847   8.250
 3552POPC   C3B 6717  43.067  41.831   7.950
 3552POPC   C4B 6718  43.070  41.831   7.650
 3553POPC   NC3 6719  43.884   5.132   9.450
 3553POPC   PO4 6720  43.921   5.044   9.150
 3553POPC   GL1 6721  43.891   5.134   8.850
 3553POPC   GL2 6722  43.910   5.192   8.850
 3553POPC   C1A 6723  43.848   5.123   8.550
 3553POPC   D2A 6724  43.905   5.077   8.250
 3553POPC   C3A 6725  43.917   5.137   7.950
 3553POPC   C4A 6726  43.901   5.089   7.650
 3553POPC   C1B 6727  44.001   5.362   8.550
 3553POPC   C2B 6728  44.025   5.303   8.250
 3553POPC   C3B 6729  44.029   5.298   7.950
 3553POPC   C4B 6730  44.004   5.299   7.650
 3554POPC   NC3 6731   9.768  30.669   9.450
 3554POPC   PO4 6732   9.718  30.708   9.150
 3554POPC   GL1 6733   9.730  30.648   8.850
 3554POPC   GL2 6734   9.819  30.777   8.850
 3554POPC   C1A 6735   9.724  30.688   8.550
 3554POPC   D2A 6736   9.794  30.700   8.250
 3554POPC   C3A 6737   9.737  30.702   7.950
 3554POPC   C4A 6738   9.757  30.677   7.650
 3554POPC   C1B 6739   9.959  30.811   8.550
 3554POPC   C2B 6740   9.959  30.795   8.250
 3554POPC   C3B 6741   9.974  30.826   7.950
 3554POPC   C4B 6742   9.976  30.812   7.650
 3555POPC   NC3 6743  21.394  39.193   9.450
 3555POPC   PO4 6744  21.351  39.272   9.150
 3555POPC   GL1 6745  21.368  39.182   8.850
 3555POPC   GL2 6746  21.314  39.131   8.850
 3555POPC   C1A 6747  21.424  39.259   8.550
 3555POPC   D2A 6748  21.380  39.189   8.250
 3555POPC   C3A 6749  21.433  39.240   7.950
 3555POPC   C4A 6750  21.427  39.269   7.650
 3555POPC   C1B 6751  21.189  39.118   8.550
 3555POPC   C2B 6752  21.148  39.103   8.250
 3555POPC   C3B 6753  21.201  39.153   7.950
 3555POPC   C4B 6754  21.212  39.070   7.650
 3556POPC   NC3 6755  11.271  18.310   9.450
 3556POPC   PO4 6756  11.318  18.272   9.150
 3556POPC   GL1 6757  11.254  18.316   8.850
 3556POPC   GL2 6758  11.223  18.179   8.850
 3556POPC   C1A 6759  11.278  18.328   8.550
 3556POPC   D2A 6760  11.338  18.245   8.250
 3556POPC   C3A 6761  11.296  18.297   7.950
 3556POPC   C4A 6762  11.293  18.275   7.650
 3556POPC   C1B 6763  11.248  18.024   8.550
 3556POPC   C2B 6764  11.266  18.077   8.250
 3556POPC   C3B 6765  11.196  18.013   7.950
 3556POPC   C4B 6766  11.200  18.038   7.650
 3557POPC   NC3 6767  27.643   0.421   9.450
 3557POPC   PO4 6768  27.621   0.462   9.150
 3557POPC   GL1 6769  27.573   0.410   8.850
 3557POPC   GL2 6770  27.540   0.366   8.850
 3557POPC   C1A 6771  27.609   0.433   8.550
 3557POPC   D2A 6772  27.635   0.488   8.250
 3557POPC   C3A 6773  27.565   0.410   7.950
 3557POPC   C4A 6774  27.611   0.462   7.650
 3557POPC   C1B 6775  27.513   0.223   8.550
 3557POPC   C2B 6776  27.507   0.233   8.250
 3557POPC   C3B 6777  27.509   0.217   7.950
 3557POPC   C4B 6778  27.512   0.229   7.650
 3558POPC   NC3 6779  14.402  42.348   9.450
 3558POPC   PO4 6780  14.403  42.384   9.150
 3558POPC   GL1 6781  14.400  42.298   8.850
 3558POPC   GL2 6782  14.563  42.305   8.850
 3558POPC   C1A 6783  14.446  42.330   8.550
 3558POPC   D2A 6784  14.387  42.305   8.250
 3558POPC   C3A 6785  14.440  42.352   7.950
 3558POPC   C4A 6786  14.354  42.290   7.650
 3558POPC   C1B 6787  14.619  42.304   8.550
 3558POPC   C2B 6788  14.594  42.290   8.250
 3558POPC   C3B 6789  14.611  42.258   7.950
 3558POPC   C4B 6790  14.638  42.252   7.650
 3559POPC   NC3 6791  44.672  27.553   9.450
 3559POPC   PO4 6792  44.621  27.641   9.150
 3559POPC   GL1 6793  44.651  27.577   8.850
 3559POPC   GL2 6794  44.823  27.599   8.850
 3559POPC   C1A 6795  44.639  27.594   8.550
 3559POPC   D2A 6796  44.644  27.579   8.250
 3559POPC   C3A 6797  44.686  27.564   7.950
 3559POPC   C4A 6798  44.709  27.597   7.650
 3559POPC   C1B 6799  44.892  27.568   8.550
 3559POPC   C2B 6800  44.871  27.581   8.250
 3559POPC   C3B 6801  44.916  27.590   7.950
 3559POPC   C4B 6802  44.865  27.570   7.650
 3560POPC   NC3 6803   9.777  15.182   9.450
 3560POPC   PO4 6804   9.791  15.207   9.150
 3560POPC   GL1 6805   9.772  15.148   8.850
 3560POPC   GL2 6806   9.649  15.162   8.850
 3560POPC   C1A 6807   9.753  15.197   8.550
 3560POPC   D2A 6808   9.728  15.171   8.250
 3560POPC   C3A 6809   9.733  15.212   7.950
 3560POPC   C4A 6810   9.705  15.177   7.650
 3560POPC   C1B 6811   9.476  15.268   8.550
 3560POPC   C2B 6812   9.472  15.243   8.250
 3560POPC   C3B 6813   9.469  15.223   7.950
 3560POPC   C4B 6814   9.468  15.208   7.650
 3561POPC   NC3 6815   1.220  29.953   9.450
 3561POPC   PO4 6816   1.179  29.890   9.150
 3561POPC   GL1 6817   1.232  29.971   8.850
 3561POPC   GL2 6818   1.168  29.858   8.850
 3561POPC   C1A 6819   1.211  29.957   8.550
 3561POPC   D2A 6820   1.196  29.966   8.250
 3561POPC   C3A 6821   1.249  29.917   7.950
 3561POPC   C4A 6822   1.213  29.970   7.650
 3561POPC   C1B 6823   0.994  29.713   8.550
 3561POPC   C2B 6824   1.045  29.755   8.250
 3561POPC   C3B 6825   1.047  29.791   7.950
 3561POPC   C4B 6826   1.019  29.781   7.650
 3562POPC   NC3 6827  36.157  26.053   9.450
 3562POPC   PO4 6828  36.173  26.014   9.150
 3562POPC   GL1 6829  36.126  26.071   8.850
 3562POPC   GL2 6830  36.276  26.081   8.850
 3562POPC   C1A 6831  36.121  25.996   8.550
 3562POPC   D2A 6832  36.085  26.038   8.250
 3562POPC   C3A 6833  36.119  26.000   7.950
 3562POPC   C4A 6834  36.078  26.036   7.650
 3562POPC   C1B 6835  36.367  26.111   8.550
 3562POPC   C2B 6836  36.400  26.133   8.250
 3562POPC   C3B 6837  36.362  26.150   7.950
 3562POPC   C4B 6838  36.405  26.157   7.650
 3563POPC   NC3 6839  13.668   6.642   9.450
 3563POPC   PO4 6840  13.599   6.636   9.150
 3563POPC   GL1 6841  13.592   6.674   8.850
 3563POPC   GL2 6842  13.776   6.549   8.850
 3563POPC   C1A 6843  13.640   6.639   8.550
 3563POPC   D2A 6844  13.674   6.611   8.250
 3563POPC   C3A 6845  13.664   6.642   7.950
 3563POPC   C4A 6846  13.615   6.688   7.650
 3563POPC   C1B 6847  13.882   6.558   8.550
 3563POPC   C2B 6848  13.849   6.562   8.250
 3563POPC   C3B 6849  13.859   6.467   7.950
 3563POPC   C4B 6850  13.809   6.490   7.650
 3564POPC   NC3 6851  17.535  37.657   9.450
 3564POPC   PO4 6852  17.477  37.679   9.150
 3564POPC   GL1 6853  17.523  37.649   8.850
 3564POPC   GL2 6854  17.566  37.762   8.850
 3564POPC   C1A 6855  17.525  37.661   8.550
 3564POPC   D2A 6856  17.546  37.642   8.250
 3564POPC   C3A 6857  17.544  37.681   7.950
 3564POPC   C4A 6858  17.514  37.686   7.650
 3564POPC   C1B 6859  17.685  37.884   8.550
 3564POPC   C2B 6860  17.698  37.837   8.250
 3564POPC   C3B 6861  17.685  37.866   7.950
 3564POPC   C4B 6862  17.714  37.880   7.650
 3565POPC   NC3 6863  35.377   1.193   9.450
 3565POPC   PO4 6864  35.327   1.228   9.150
 3565POPC   GL1 6865  35.401   1.196   8.850
 3565POPC   GL2 6866  35.356   1.129   8.850
 3565POPC   C1A 6867  35.357   1.251   8.550
 3565POPC   D2A 6868  35.335   1.165   8.250
 3565POPC   C3A 6869  35.363   1.221   7.950
 3565POPC   C4A 6870  35.333   1.201   7.650
 3565POPC   C1B 6871  35.303   0.927   8.550
 3565POPC   C2B 6872  35.316   0.986   8.250
 3565POPC   C3B 6873  35.301   0.955   7.950
 3565POPC   C4B 6874  35.287   1.018   7.650
 3566POPC   NC3 6875   6.663  29.136   9.450
 3566POPC   PO4 6876   6.602  29.176   9.150
 3566POPC   GL1 6877   6.663  29.181   8.850
 3566POPC   GL2 6878   6.705  29.241   8.850
 3566POPC   C1A 6879   6.649  29.179   8.550
 3566POPC   D2A 6880   6.663  29.128   8.250
 3566POPC   C3A 6881   6.639  29.110   7.950
 3566POPC   C4A 6882   6.620  29.128   7.650
 3566POPC   C1B 6883   6.843  29.284   8.550
 3566POPC   C2B 6884   6.860  29.284   8.250
 3566POPC   C3B 6885   6.821  29.291   7.950
 3566POPC   C4B 6886   6.821  29.256   7.650
 3567POPC   NC3 6887  28.390  38.490   9.450
 3567POPC   PO4 6888  28.395  38.407   9.150
 3567POPC   GL1 6889  28.407  38.416   8.850
 3567POPC   GL2 6890  28.508  38.486   8.850
 3567POPC   C1A 6891  28.353  38.455   8.550
 3567POPC   D2A 6892  28.354  38.450   8.250
 3567POPC   C3A 6893  28.393  38.503   7.950
 3567POPC   C4A 6894  28.367  38.487   7.650
 3567POPC   C1B 6895  28.615  38.609   8.550
 3567POPC   C2B 6896  28.608  38.545   8.250
 3567POPC   C3B 6897  28.621  38.622   7.950
 3567POPC   C4B 6898  28.548  38.566   7.650
 3568POPC   NC3 6899  40.782  14.357   9.450
 3568POPC   PO4 6900  40.790  14.417   9.150
 3568POPC   GL1 6901  40.818  14.386   8.850
 3568POPC   GL2 6902  40.870  14.341   8.850
 3568POPC   C1A 6903  40.751  14.450   8.550
 3568POPC   D2A 6904  40.757  14.417   8.250
 3568POPC   C3A 6905  40.745  14.430   7.950
 3568POPC   C4A 6906  40.790  14.395   7.650
 3568POPC   C1B 6907  40.924  14.192   8.550
 3568POPC   C2B 6908  40.964  14.173   8.250
 3568POPC   C3B 6909  40.907  14.217   7.950
 3568POPC   C4B 6910  40.905  14.254   7.650
 3569POPC   NC3 6911  43.088  35.376   9.450
 3569POPC   PO4 6912  43.139  35.344   9.150
 3569POPC   GL1 6913  43.143  35.343   8.850
 3569POPC   GL2 6914  43.113  35.210   8.850
 3569POPC   C1A 6915  43.083  35.333   8.550
 3569POPC   D2A 6916  43.102  35.322   8.250
 3569POPC   C3A 6917  43.144  35.310   7.950
 3569POPC   C4A 6918  43.152  35.335   7.650
 3569POPC   C1B 6919  43.118  35.062   8.550
 3569POPC   C2B 6920  43.085  35.068   8.250
 3569POPC   C3B 6921  43.104  35.137   7.950
 3569POPC   C4B 6922  43.075  35.144   7.650
 3570POPC   NC3 6923  21.405   3.501   9.450
 3570POPC   PO4 6924  21.396   3.526   9.150
 3570POPC   GL1 6925  21.371   3.530   8.850
 3570POPC   GL2 6926  21.438   3.593   8.850
 3570POPC   C1A 6927  21.415   3.492   8.550
 3570POPC   D2A 6928  21.356   3.564   8.250
 3570POPC   C3A 6929  21.406   3.505   7.950
 3570POPC   C4A 6930  21.368   3.557   7.650
 3570POPC   C1B 6931  21.524   3.771   8.550
 3570POPC   C2B 6932  21.508   3.788   8.250
 3570POPC   C3B 6933  21.506   3.783   7.950
 3570POPC   C4B 6934  21.525   3.698   7.650
 3571POPC   NC3 6935  11.277  41.567   9.450
 3571POPC   PO4 6936  11.277  41.593   9.150
 3571POPC   GL1 6937  11.262  41.602   8.850
 3571POPC   GL2 6938  11.395  41.576   8.850
 3571POPC   C1A 6939  11.303  41.562   8.550
 3571POPC   D2A 6940  11.278  41.585   8.250
 3571POPC   C3A 6941  11.330  41.586   7.950
 3571POPC   C4A 6942  11.325  41.605   7.650
 3571POPC   C1B 6943  11.569  41.487   8.550
 3571POPC   C2B 6944  11.512  41.561   8.250
 3571POPC   C3B 6945  11.559  41.543   7.950
 3571POPC   C4B 6946  11.583  41.518   7.650
 3572POPC   NC3 6947  29.947   1.955   9.450
 3572POPC   PO4 6948  29.885   1.973   9.150
 3572POPC   GL1 6949  29.923   1.945   8.850
 3572POPC   GL2 6950  29.961   2.155   8.850
 3572POPC   C1A 6951  29.874   1.967   8.550
 3572POPC   D2A 6952  29.875   1.952   8.250
 3572POPC   C3A 6953  29.946   1.941   7.950
 3572POPC   C4A 6954  29.933   1.977   7.650
 3572POPC   C1B 6955  29.925   2.242   8.550
 3572POPC   C2B 6956  29.989   2.235   8.250
 3572POPC   C3B 6957  29.935   2.202   7.950
 3572POPC   C4B 6958  29.918   2.256   7.650
 3573POPC   NC3 6959  22.907   1.979   9.450
 3573POPC   PO4 6960  22.938   2.032   9.150
 3573POPC   GL1 6961  22.983   2.030   8.850
 3573POPC   GL2 6962  23.011   1.911   8.850
 3573POPC   C1A 6963  22.890   2.006   8.550
 3573POPC   D2A 6964  22.925   1.974   8.250
 3573POPC   C3A 6965  22.925   2.033   7.950
 3573POPC   C4A 6966  22.956   1.959   7.650
 3573POPC   C1B 6967  22.956   1.713   8.550
 3573POPC   C2B 6968  22.960   1.795   8.250
 3573POPC   C3B 6969  22.993   1.748   7.950
 3573POPC   C4B 6970  23.009   1.774   7.650
 3574POPC   NC3 6971   8.193  36.122   9.450
 3574POPC   PO4 6972   8.176  36.083   9.150
 3574POPC   GL1 6973   8.149  36.116   8.850
 3574POPC   GL2 6974   8.082  36.149   8.850
 3574POPC   C1A 6975   8.178  36.110   8.550
 3574POPC   D2A 6976   8.148  36.100   8.250
 3574POPC   C3A 6977   8.241  36.079   7.950
 3574POPC   C4A 6978   8.219  36.147   7.650
 3574POPC   C1B 6979   8.029  36.237   8.550
 3574POPC   C2B 6980   7.973  36.280   8.250
 3574POPC   C3B 6981   8.012  36.304   7.950
 3574POPC   C4B 6982   8.006  36.228   7.650
 3575POPC   NC3 6983  22.127  36.123   9.450
 3575POPC   PO4 6984  22.136  36.169   9.150
 3575POPC   GL1 6985  22.201  36.090   8.850
 3575POPC   GL2 6986  22.083  36.146   8.850
 3575POPC   C1A 6987  22.138  36.127   8.550
 3575POPC   D2A 6988  22.113  36.078   8.250
 3575POPC   C3A 6989  22.189  36.111   7.950
 3575POPC   C4A 6990  22.135  36.108   7.650
 3575POPC   C1B 6991  21.881  36.133   8.550
 3575POPC   C2B 6992  21.945  36.168   8.250
 3575POPC   C3B 6993  21.962  36.174   7.950
 3575POPC   C4B 6994  21.968  36.202   7.650
 3576POPC   NC3 6995  27.639  18.282   9.450
 3576POPC   PO4 6996  27.580  18.292   9.150
 3576POPC   GL1 6997  27.611  18.279   8.850
 3576POPC   GL2 6998  27.589  18.154   8.850
 3576POPC   C1A 6999  27.625  18.237   8.550
 3576POPC   D2A 7000  27.635  18.327   8.250
 3576POPC   C3A 7001  27.619  18.311   7.950
 3576POPC   C4A 7002  27.551  18.331   7.650
 3576POPC   C1B 7003  27.624  18.032   8.550
 3576POPC   C2B 7004  27.678  18.056   8.250
 3576POPC   C3B 7005  27.682  18.035   7.950
 3576POPC   C4B 7006  27.603  18.046   7.650
 3577POPC   NC3 7007   8.166  35.375   9.450
 3577POPC   PO4 7008   8.205  35.331   9.150
 3577POPC   GL1 7009   8.211  35.352   8.850
 3577POPC   GL2 7010   8.296  35.424   8.850
 3577POPC   C1A 7011   8.206  35.356   8.550
 3577POPC   D2A 7012   8.180  35.349   8.250
 3577POPC   C3A 7013   8.211  35.371   7.950
 3577POPC   C4A 7014   8.242  35.312   7.650
 3577POPC   C1B 7015   8.405  35.457   8.550
 3577POPC   C2B 7016   8.410  35.501   8.250
 3577POPC   C3B 7017   8.426  35.444   7.950
 3577POPC   C4B 7018   8.401  35.471   7.650
 3578POPC   NC3 7019  15.179  26.780   9.450
 3578POPC   PO4 7020  15.145  26.840   9.150
 3578POPC   GL1 7021  15.182  26.851   8.850
 3578POPC   GL2 7022  15.231  26.990   8.850
 3578POPC   C1A 7023  15.217  26.781   8.550
 3578POPC   D2A 7024  15.190  26.864   8.250
 3578POPC   C3A 7025  15.209  26.801   7.950
 3578POPC   C4A 7026  15.144  26.853   7.650
 3578POPC   C1B 7027  15.240  27.060   8.550
 3578POPC   C2B 7028  15.221  27.059   8.250
 3578POPC   C3B 7029  15.236  27.024   7.950
 3578POPC   C4B 7030  15.191  27.051   7.650
 3579POPC   NC3 7031   0.397   7.400   9.450
 3579POPC   PO4 7032   0.414   7.376   9.150
 3579POPC   GL1 7033   0.425   7.412   8.850
 3579POPC   GL2 7034   0.346   7.406   8.850
 3579POPC   C1A 7035   0.391   7.384   8.550
 3579POPC   D2A 7036   0.456   7.442   8.250
 3579POPC   C3A 7037   0.389   7.404   7.950
 3579POPC   C4A 7038   0.470   7.427   7.650
 3579POPC   C1B 7039   0.206   7.407   8.550
 3579POPC   C2B 7040   0.208   7.381   8.250
 3579POPC   C3B 7041   0.169   7.377   7.950
 3579POPC   C4B 7042   0.233   7.440   7.650
 3580POPC   NC3 7043  28.402  26.847   9.450
 3580POPC   PO4 7044  28.357  26.790   9.150
 3580POPC   GL1 7045  28.410  26.818   8.850
 3580POPC   GL2 7046  28.522  26.744   8.850
 3580POPC   C1A 7047  28.392  26.849   8.550
 3580POPC   D2A 7048  28.337  26.822   8.250
 3580POPC   C3A 7049  28.418  26.773   7.950
 3580POPC   C4A 7050  28.389  26.836   7.650
 3580POPC   C1B 7051  28.576  26.799   8.550
 3580POPC   C2B 7052  28.576  26.719   8.250
 3580POPC   C3B 7053  28.576  26.776   7.950
 3580POPC   C4B 7054  28.563  26.734   7.650
 3581POPC   NC3 7055  34.624  27.553   9.450
 3581POPC   PO4 7056  34.576  27.602   9.150
 3581POPC   GL1 7057  34.538  27.618   8.850
 3581POPC   GL2 7058  34.642  27.645   8.850
 3581POPC   C1A 7059  34.604  27.567   8.550
 3581POPC   D2A 7060  34.586  27.610   8.250
 3581POPC   C3A 7061  34.593  27.592   7.950
 3581POPC   C4A 7062  34.562  27.630   7.650
 3581POPC   C1B 7063  34.813  27.764   8.550
 3581POPC   C2B 7064  34.777  27.748   8.250
 3581POPC   C3B 7065  34.821  27.706   7.950
 3581POPC   C4B 7066  34.789  27.780   7.650
 3582POPC   NC3 7067  41.599   5.866   9.450
 3582POPC   PO4 7068  41.551   5.852   9.150
 3582POPC   GL1 7069  41.528   5.867   8.850
 3582POPC   GL2 7070  41.625   5.835   8.850
 3582POPC   C1A 7071  41.557   5.839   8.550
 3582POPC   D2A 7072  41.549   5.869   8.250
 3582POPC   C3A 7073  41.541   5.854   7.950
 3582POPC   C4A 7074  41.519   5.877   7.650
 3582POPC   C1B 7075  41.757   5.699   8.550
 3582POPC   C2B 7076  41.764   5.745   8.250
 3582POPC   C3B 7077  41.796   5.684   7.950
 3582POPC   C4B 7078  41.741   5.717   7.650
 3583POPC   NC3 7079  37.674  11.349   9.450
 3583POPC   PO4 7080  37.718  11.286   9.150
 3583POPC   GL1 7081  37.729  11.279   8.850
 3583POPC   GL2 7082  37.633  11.448   8.850
 3583POPC   C1A 7083  37.675  11.281   8.550
 3583POPC   D2A 7084  37.716  11.255   8.250
 3583POPC   C3A 7085  37.677  11.278   7.950
 3583POPC   C4A 7086  37.675  11.278   7.650
 3583POPC   C1B 7087  37.651  11.528   8.550
 3583POPC   C2B 7088  37.639  11.505   8.250
 3583POPC   C3B 7089  37.705  11.568   7.950
 3583POPC   C4B 7090  37.709  11.587   7.650
 3584POPC   NC3 7091  15.190   5.823   9.450
 3584POPC   PO4 7092  15.167   5.886   9.150
 3584POPC   GL1 7093  15.184   5.862   8.850
 3584POPC   GL2 7094  15.224   5.771   8.850
 3584POPC   C1A 7095  15.220   5.850   8.550
 3584POPC   D2A 7096  15.132   5.853   8.250
 3584POPC   C3A 7097  15.208   5.912   7.950
 3584POPC   C4A 7098  15.151   5.821   7.650
 3584POPC   C1B 7099  15.321   5.694   8.550
 3584POPC   C2B 7100  15.274   5.684   8.250
 3584POPC   C3B 7101  15.348   5.708   7.950
 3584POPC   C4B 7102  15.328   5.628   7.650
 3585POPC   NC3 7103  43.133  44.711   9.450
 3585POPC   PO4 7104  43.101  44.617   9.150
 3585POPC   GL1 7105  43.123  44.666   8.850
 3585POPC   GL2 7106  43.101  44.542   8.850
 3585POPC   C1A 7107  43.113  44.668   8.550
 3585POPC   D2A 7108  43.092  44.641   8.250
 3585POPC   C3A 7109  43.082  44.690   7.950
 3585POPC   C4A 7110  43.065  44.654   7.650
 3585POPC   C1B 7111  43.072  44.377   8.550
 3585POPC   C2B 7112  43.098  44.452   8.250
 3585POPC   C3B 7113  43.092  44.421   7.950
 3585POPC   C4B 7114  43.067  44.403   7.650
 3586POPC   NC3 7115  27.545  24.445   9.450
 3586POPC   PO4 7116  27.595  24.484   9.150
 3586POPC   GL1 7117  27.557  24.465   8.850
 3586POPC   GL2 7118  27.682  24.653   8.850
 3586POPC   C1A 7119  27.642  24.441   8.550
 3586POPC   D2A 7120  27.548  24.441   8.250
 3586POPC   C3A 7121  27.550  24.508   7.950
 3586POPC   C4A 7122  27.639  24.496   7.650
 3586POPC   C1B 7123  27.696  24.717   8.550
 3586POPC   C2B 7124  27.717  24.745   8.250
 3586POPC   C3B 7125  27.660  24.710   7.950
 3586POPC   C4B 7126  27.699  24.703   7.650
 3587POPC   NC3 7127  26.789  41.514   9.450
 3587POPC   PO4 7128  26.802  41.586   9.150
 3587POPC   GL1 7129  26.860  41.533   8.850
 3587POPC   GL2 7130  26.773  41.634   8.850
 3587POPC   C1A 7131  26.793  41.511   8.550
 3587POPC   D2A 7132  26.775  41.566   8.250
 3587POPC   C3A 7133  26.784  41.559   7.950
 3587POPC   C4A 7134  26.774  41.606   7.650
 3587POPC   C1B 7135  26.696  41.742   8.550
 3587POPC   C2B 7136  26.674  41.720   8.250
 3587POPC   C3B 7137  26.689  41.749   7.950
 3587POPC   C4B 7138  26.657  41.796   7.650
 3588POPC   NC3 7139  40.000  14.421   9.450
 3588POPC   PO4 7140  40.042  14.359   9.150
 3588POPC   GL1 7141  39.991  14.367   8.850
 3588POPC   GL2 7142  40.022  14.480   8.850
 3588POPC   C1A 7143  40.031  14.368   8.550
 3588POPC   D2A 7144  40.004  14.391   8.250
 3588POPC   C3A 7145  39.972  14.366   7.950
 3588POPC   C4A 7146  40.015  14.367   7.650
 3588POPC   C1B 7147  40.163  14.594   8.550
 3588POPC   C2B 7148  40.082  14.648   8.250
 3588POPC   C3B 7149  40.149  14.628   7.950
 3588POPC   C4B 7150  40.110  14.641   7.650
 3589POPC   NC3 7151  41.557   4.341   9.450
 3589POPC   PO4 7152  41.602   4.316   9.150
 3589POPC   GL1 7153  41.562   4.298   8.850
 3589POPC   GL2 7154  41.557   4.430   8.850
 3589POPC   C1A 7155  41.584   4.297   8.550
 3589POPC   D2A 7156  41.579   4.291   8.250
 3589POPC   C3A 7157  41.553   4.325   7.950
 3589POPC   C4A 7158  41.513   4.346   7.650
 3589POPC   C1B 7159  41.531   4.529   8.550
 3589POPC   C2B 7160  41.573   4.597   8.250
 3589POPC   C3B 7161  41.558   4.600   7.950
 3589POPC   C4B 7162  41.565   4.598   7.650
 3590POPC   NC3 7163  29.901  22.916   9.450
 3590POPC   PO4 7164  29.886  22.891   9.150
 3590POPC   GL1 7165  29.970  22.978   8.850
 3590POPC   GL2 7166  29.811  23.007   8.850
 3590POPC   C1A 7167  29.929  22.929   8.550
 3590POPC   D2A 7168  29.963  22.960   8.250
 3590POPC   C3A 7169  29.916  22.935   7.950
 3590POPC   C4A 7170  29.890  22.966   7.650
 3590POPC   C1B 7171  29.747  23.073   8.550
 3590POPC   C2B 7172  29.662  23.104   8.250
 3590POPC   C3B 7173  29.730  23.071   7.950
 3590POPC   C4B 7174  29.709  23.054   7.650
 3591POPC   NC3 7175  31.426  16.779   9.450
 3591POPC   PO4 7176  31.487  16.758   9.150
 3591POPC   GL1 7177  31.518  16.744   8.850
 3591POPC   GL2 7178  31.318  16.700   8.850
 3591POPC   C1A 7179  31.479  16.753   8.550
 3591POPC   D2A 7180  31.517  16.767   8.250
 3591POPC   C3A 7181  31.460  16.702   7.950
 3591POPC   C4A 7182  31.463  16.687   7.650
 3591POPC   C1B 7183  31.224  16.758   8.550
 3591POPC   C2B 7184  31.183  16.769   8.250
 3591POPC   C3B 7185  31.202  16.773   7.950
 3591POPC   C4B 7186  31.218  16.720   7.650
 3592POPC   NC3 7187  40.816  15.988   9.450
 3592POPC   PO4 7188  40.754  15.930   9.150
 3592POPC   GL1 7189  40.813  15.917   8.850
 3592POPC   GL2 7190  40.846  16.048   8.850
 3592POPC   C1A 7191  40.774  15.915   8.550
 3592POPC   D2A 7192  40.758  15.949   8.250
 3592POPC   C3A 7193  40.799  15.967   7.950
 3592POPC   C4A 7194  40.789  15.958   7.650
 3592POPC   C1B 7195  40.958  16.145   8.550
 3592POPC   C2B 7196  40.909  16.153   8.250
 3592POPC   C3B 7197  40.948  16.138   7.950
 3592POPC   C4B 7198  40.946  16.118   7.650
 3593POPC   NC3 7199  41.591  42.306   9.450
 3593POPC   PO4 7200  41.567  42.307   9.150
 3593POPC   GL1 7201  41.550  42.294   8.850
 3593POPC   GL2 7202  41.636  42.254   8.850
 3593POPC   C1A 7203  41.519  42.354   8.550
 3593POPC   D2A 7204  41.547  42.300   8.250
 3593POPC   C3A 7205  41.581  42.314   7.950
 3593POPC   C4A 7206  41.525  42.294   7.650
 3593POPC   C1B 7207  41.750  42.179   8.550
 3593POPC   C2B 7208  41.734  42.133   8.250
 3593POPC   C3B 7209  41.804  42.202   7.950
 3593POPC   C4B 7210  41.774  42.143   7.650
 3594POPC   NC3 7211  16.772  30.666   9.450
 3594POPC   PO4 7212  16.716  30.705   9.150
 3594POPC   GL1 7213  16.755  30.721   8.850
 3594POPC   GL2 7214  16.608  30.567   8.850
 3594POPC   C1A 7215  16.757  30.666   8.550
 3594POPC   D2A 7216  16.746  30.693   8.250
 3594POPC   C3A 7217  16.706  30.739   7.950
 3594POPC   C4A 7218  16.684  30.727   7.650
 3594POPC   C1B 7219  16.518  30.503   8.550
 3594POPC   C2B 7220  16.598  30.514   8.250
 3594POPC   C3B 7221  16.597  30.494   7.950
 3594POPC   C4B 7222  16.546  30.509   7.650
 3595POPC   NC3 7223  34.583  40.810   9.450
 3595POPC   PO4 7224  34.546  40.751   9.150
 3595POPC   GL1 7225  34.541  40.764   8.850
 3595POPC   GL2 7226  34.593  40.931   8.850
 3595POPC   C1A 7227  34.541  40.774   8.550
 3595POPC   D2A 7228  34.529  40.793   8.250
 3595POPC   C3A 7229  34.572  40.744   7.950
 3595POPC   C4A 7230  34.606  40.798   7.650
 3595POPC   C1B 7231  34.571  41.062   8.550
 3595POPC   C2B 7232  34.520  41.029   8.250
 3595POPC   C3B 7233  34.571  41.078   7.950
 3595POPC   C4B 7234  34.527  40.996   7.650
 3596POPC   NC3 7235  43.146  17.514   9.450
 3596POPC   PO4 7236  43.103  17.494   9.150
 3596POPC   GL1 7237  43.143  17.473   8.850
 3596POPC   GL2 7238  43.017  17.576   8.850
 3596POPC   C1A 7239  43.117  17.458   8.550
 3596POPC   D2A 7240  43.131  17.552   8.250
 3596POPC   C3A 7241  43.111  17.480   7.950
 3596POPC   C4A 7242  43.075  17.482   7.650
 3596POPC   C1B 7243  43.001  17.677   8.550
 3596POPC   C2B 7244  42.963  17.743   8.250
 3596POPC   C3B 7245  42.983  17.704   7.950
 3596POPC   C4B 7246  42.988  17.744   7.650
 3597POPC   NC3 7247  12.857  12.840   9.450
 3597POPC   PO4 7248  12.893  12.829   9.150
 3597POPC   GL1 7249  12.812  12.838   8.850
 3597POPC   GL2 7250  12.890  12.777   8.850
 3597POPC   C1A 7251  12.847  12.818   8.550
 3597POPC   D2A 7252  12.878  12.813   8.250
 3597POPC   C3A 7253  12.871  12.891   7.950
 3597POPC   C4A 7254  12.843  12.808   7.650
 3597POPC   C1B 7255  12.981  12.637   8.550
 3597POPC   C2B 7256  13.035  12.634   8.250
 3597POPC   C3B 7257  13.054  12.613   7.950
 3597POPC   C4B 7258  13.025  12.637   7.650
 3598POPC   NC3 7259  34.620  10.551   9.450
 3598POPC   PO4 7260  34.605  10.525   9.150
 3598POPC   GL1 7261  34.544  10.529   8.850
 3598POPC   GL2 7262  34.687  10.625   8.850
 3598POPC   C1A 7263  34.586  10.501   8.550
 3598POPC   D2A 7264  34.615  10.526   8.250
 3598POPC   C3A 7265  34.593  10.522   7.950
 3598POPC   C4A 7266  34.552  10.515   7.650
 3598POPC   C1B 7267  34.767  10.683   8.550
 3598POPC   C2B 7268  34.793  10.637   8.250
 3598POPC   C3B 7269  34.821  10.676   7.950
 3598POPC   C4B 7270  34.776  10.658   7.650
 3599POPC   NC3 7271   2.750   3.552   9.450
 3599POPC   PO4 7272   2.754   3.505   9.150
 3599POPC   GL1 7273   2.755   3.543   8.850
 3599POPC   GL2 7274   2.857   3.589   8.850
 3599POPC   C1A 7275   2.771   3.550   8.550
 3599POPC   D2A 7276   2.806   3.547   8.250
 3599POPC   C3A 7277   2.793   3.508   7.950
 3599POPC   C4A 7278   2.748   3.521   7.650
 3599POPC   C1B 7279   2.894   3.769   8.550
 3599POPC   C2B 7280   2.970   3.767   8.250
 3599POPC   C3B 7281   2.913   3.704   7.950
 3599POPC   C4B 7282   2.934   3.692   7.650
 3600POPC   NC3 7283  12.863  41.578   9.450
 3600POPC   PO4 7284  12.892  41.560   9.150
 3600POPC   GL1 7285  12.841  41.574   8.850
 3600POPC   GL2 7286  12.741  41.494   8.850
 3600POPC   C1A 7287  12.874  41.557   8.550
 3600POPC   D2A 7288  12.823  41.564   8.250
 3600POPC   C3A 7289  12.899  41.515   7.950
 3600POPC   C4A 7290  12.859  41.511   7.650
 3600POPC   C1B 7291  12.667  41.333   8.550
 3600POPC   C2B 7292  12.639  41.362   8.250
 3600POPC   C3B 7293  12.639  41.409   7.950
 3600POPC   C4B 7294  12.650  41.324   7.650
 3601POPC   NC3 7295   0.469  24.471   9.450
 3601POPC   PO4 7296   0.473  24.444   9.150
 3601POPC   GL1 7297   0.473  24.513   8.850
 3601POPC   GL2 7298   0.537  24.609   8.850
 3601POPC   C1A 7299   0.421  24.529   8.550
 3601POPC   D2A 7300   0.405  24.535   8.250
 3601POPC   C3A 7301   0.407  24.507   7.950
 3601POPC   C4A 7302   0.475  24.463   7.650
 3601POPC   C1B 7303   0.602  24.623   8.550
 3601POPC   C2B 7304   0.650  24.687   8.250
 3601POPC   C3B 7305   0.625  24.669   7.950
 3601POPC   C4B 7306   0.610  24.656   7.650
 3602POPC   NC3 7307  43.088   2.812   9.450
 3602POPC   PO4 7308  43.099   2.809   9.150
 3602POPC   GL1 7309  43.125   2.785   8.850
 3602POPC   GL2 7310  43.120   2.629   8.850
 3602POPC   C1A 7311  43.120   2.792   8.550
 3602POPC   D2A 7312  43.067   2.803   8.250
 3602POPC   C3A 7313  43.158   2.807   7.950
 3602POPC   C4A 7314  43.124   2.810   7.650
 3602POPC   C1B 7315  43.148   2.495   8.550
 3602POPC   C2B 7316  43.078   2.485   8.250
 3602POPC   C3B 7317  43.091   2.471   7.950
 3602POPC   C4B 7318  43.075   2.519   7.650
 3603POPC   NC3 7319  44.632  36.952   9.450
 3603POPC   PO4 7320  44.704  36.872   9.150
 3603POPC   GL1 7321  44.676  36.935   8.850
 3603POPC   GL2 7322  44.633  36.815   8.850
 3603POPC   C1A 7323  44.684  36.870   8.550
 3603POPC   D2A 7324  44.679  36.948   8.250
 3603POPC   C3A 7325  44.615  36.860   7.950
 3603POPC   C4A 7326  44.614  36.881   7.650
 3603POPC   C1B 7327  44.628  36.653   8.550
 3603POPC   C2B 7328  44.659  36.629   8.250
 3603POPC   C3B 7329  44.644  36.627   7.950
 3603POPC   C4B 7330  44.635  36.635   7.650
 3604POPC   NC3 7331  23.685  28.402   9.450
 3604POPC   PO4 7332  23.720  28.345   9.150
 3604POPC   GL1 7333  23.731  28.418   8.850
 3604POPC   GL2 7334  23.806  28.502   8.850
 3604POPC   C1A 7335  23.719  28.348   8.550
 3604POPC   D2A 7336  23.718  28.327   8.250
 3604POPC   C3A 7337  23.670  28.388   7.950
 3604POPC   C4A 7338  23.687  28.321   7.650
 3604POPC   C1B 7339  23.845  28.509   8.550
 3604POPC   C2B 7340  23.927  28.586   8.250
 3604POPC   C3B 7341  23.906  28.583   7.950
 3604POPC   C4B 7342  23.928  28.575   7.650
 3605POPC   NC3 7343  29.109   5.056   9.450
 3605POPC   PO4 7344  29.148   5.126   9.150
 3605POPC   GL1 7345  29.124   5.138   8.850
 3605POPC   GL2 7346  29.186   5.174   8.850
 3605POPC   C1A 7347  29.133   5.138   8.550
 3605POPC   D2A 7348  29.149   5.071   8.250
 3605POPC   C3A 7349  29.171   5.088   7.950
 3605POPC   C4A 7350  29.106   5.081   7.650
 3605POPC   C1B 7351  29.206   5.283   8.550
 3605POPC   C2B 7352  29.249   5.276   8.250
 3605POPC   C3B 7353  29.227   5.333   7.950
 3605POPC   C4B 7354  29.253   5.303   7.650
 3606POPC   NC3 7355  10.509  19.035   9.450
 3606POPC   PO4 7356  10.513  19.033   9.150
 3606POPC   GL1 7357  10.541  19.042   8.850
 3606POPC   GL2 7358  10.497  19.191   8.850
 3606POPC   C1A 7359  10.492  19.067   8.550
 3606POPC   D2A 7360  10.567  19.074   8.250
 3606POPC   C3A 7361  10.557  19.078   7.950
 3606POPC   C4A 7362  10.538  19.030   7.650
 3606POPC   C1B 7363  10.525  19.275   8.550
 3606POPC   C2B 7364  10.518  19.263   8.250
 3606POPC   C3B 7365  10.576  19.282   7.950
 3606POPC   C4B 7366  10.532  19.319   7.650
 3607POPC   NC3 7367  12.120  20.609   9.450
 3607POPC   PO4 7368  12.054  20.616   9.150
 3607POPC   GL1 7369  12.113  20.571   8.850
 3607POPC   GL2 7370  11.949  20.627   8.850
 3607POPC   C1A 7371  12.038  20.593   8.550
 3607POPC   D2A 7372  12.098  20.637   8.250
 3607POPC   C3A 7373  12.118  20.591   7.950
 3607POPC   C4A 7374  12.068  20.603   7.650
 3607POPC   C1B 7375  11.819  20.687   8.550
 3607POPC   C2B 7376  11.869  20.699   8.250
 3607POPC   C3B 7377  11.874  20.652   7.950
 3607POPC   C4B 7378  11.785  20.644   7.650
 3608POPC   NC3 7379  28.373   0.465   9.450
 3608POPC   PO4 7380  28.363   0.409   9.150
 3608POPC   GL1 7381  28.323   0.455   8.850
 3608POPC   GL2 7382  28.399   0.329   8.850
 3608POPC   C1A 7383  28.385   0.421   8.550
 3608POPC   D2A 7384  28.381   0.440   8.250
 3608POPC   C3A 7385  28.361   0.423   7.950
 3608POPC   C4A 7386  28.336   0.390   7.650
 3608POPC   C1B 7387  28.312   0.234   8.550
 3608POPC   C2B 7388  28.368   0.227   8.250
 3608POPC   C3B 7389  28.389   0.172   7.950
 3608POPC   C4B 7390  28.387   0.205   7.650
 3609POPC   NC3 7391  22.180   2.736   9.450
 3609POPC   PO4 7392  22.166   2.800   9.150
 3609POPC   GL1 7393  22.204   2.777   8.850
 3609POPC   GL2 7394  22.044   2.823   8.850
 3609POPC   C1A 7395  22.160   2.784   8.550
 3609POPC   D2A 7396  22.181   2.739   8.250
 3609POPC   C3A 7397  22.126   2.764   7.950
 3609POPC   C4A 7398  22.158   2.749   7.650
 3609POPC   C1B 7399  22.047   2.978   8.550
 3609POPC   C2B 7400  22.040   2.960   8.250
 3609POPC   C3B 7401  21.972   3.001   7.950
 3609POPC   C4B 7402  21.981   2.998   7.650
 3610POPC   NC3 7403  29.179   3.524   9.450
 3610POPC   PO4 7404  29.129   3.509   9.150
 3610POPC   GL1 7405  29.107   3.573   8.850
 3610POPC   GL2 7406  29.065   3.606   8.850
 3610POPC   C1A 7407  29.193   3.509   8.550
 3610POPC   D2A 7408  29.143   3.550   8.250
 3610POPC   C3A 7409  29.144   3.509   7.950
 3610POPC   C4A 7410  29.098   3.524   7.650
 3610POPC   C1B 7411  28.930   3.619   8.550
 3610POPC   C2B 7412  28.933   3.554   8.250
 3610POPC   C3B 7413  28.860   3.598   7.950
 3610POPC   C4B 7414  28.866   3.599   7.650
 3611POPC   NC3 7415   5.111  32.200   9.450
 3611POPC   PO4 7416   5.079  32.271   9.150
 3611POPC   GL1 7417   5.048  32.247   8.850
 3611POPC   GL2 7418   5.108  32.102   8.850
 3611POPC   C1A 7419   5.117  32.260   8.550
 3611POPC   D2A 7420   5.120  32.225   8.250
 3611POPC   C3A 7421   5.049  32.235   7.950
 3611POPC   C4A 7422   5.108  32.206   7.650
 3611POPC   C1B 7423   5.040  32.047   8.550
 3611POPC   C2B 7424   5.083  32.040   8.250
 3611POPC   C3B 7425   5.096  32.023   7.950
 3611POPC   C4B 7426   5.031  31.997   7.650
 3612POPC   NC3 7427  33.036   1.179   9.450
 3612POPC   PO4 7428  33.055   1.182   9.150
 3612POPC   GL1 7429  33.069   1.164   8.850
 3612POPC   GL2 7430  33.150   1.244   8.850
 3612POPC   C1A 7431  33.061   1.205   8.550
 3612POPC   D2A 7432  32.981   1.204   8.250
 3612POPC   C3A 7433  33.039   1.224   7.950
 3612POPC   C4A 7434  32.993   1.197   7.650
 3612POPC   C1B 7435  33.213   1.300   8.550
 3612POPC   C2B 7436  33.250   1.325   8.250
 3612POPC   C3B 7437  33.238   1.288   7.950
 3612POPC   C4B 7438  33.239   1.334   7.650
 3613POPC   NC3 7439  37.661   3.496   9.450
 3613POPC   PO4 7440  37.675   3.526   9.150
 3613POPC   GL1 7441  37.726   3.557   8.850
 3613POPC   GL2 7442  37.616   3.649   8.850
 3613POPC   C1A 7443  37.652   3.504   8.550
 3613POPC   D2A 7444  37.698   3.539   8.250
 3613POPC   C3A 7445  37.692   3.577   7.950
 3613POPC   C4A 7446  37.715   3.518   7.650
 3613POPC   C1B 7447  37.493   3.666   8.550
 3613POPC   C2B 7448  37.465   3.730   8.250
 3613POPC   C3B 7449  37.442   3.718   7.950
 3613POPC   C4B 7450  37.494   3.730   7.650
 3614POPC   NC3 7451  14.433  26.768   9.450
 3614POPC   PO4 7452  14.412  26.779   9.150
 3614POPC   GL1 7453  14.417  26.858   8.850
 3614POPC   GL2 7454  14.383  26.667   8.850
 3614POPC   C1A 7455  14.358  26.867   8.550
 3614POPC   D2A 7456  14.364  26.835   8.250
 3614POPC   C3A 7457  14.440  26.778   7.950
 3614POPC   C4A 7458  14.453  26.864   7.650
 3614POPC   C1B 7459  14.479  26.600   8.550
 3614POPC   C2B 7460  14.451  26.590   8.250
 3614POPC   C3B 7461  14.493  26.551   7.950
 3614POPC   C4B 7462  14.401  26.594   7.650
 3615POPC   NC3 7463   5.893  36.109   9.450
 3615POPC   PO4 7464   5.913  36.118   9.150
 3615POPC   GL1 7465   5.867  36.150   8.850
 3615POPC   GL2 7466   5.949  36.147   8.850
 3615POPC   C1A 7467   5.885  36.173   8.550
 3615POPC   D2A 7468   5.840  36.129   8.250
 3615POPC   C3A 7469   5.851  36.158   7.950
 3615POPC   C4A 7470   5.915  36.144   7.650
 3615POPC   C1B 7471   6.048  36.244   8.550
 3615POPC   C2B 7472   6.085  36.241   8.250
 3615POPC   C3B 7473   6.075  36.277   7.950
 3615POPC   C4B 7474   6.116  36.247   7.650
 3616POPC   NC3 7475  43.070  38.422   9.450
 3616POPC   PO4 7476  43.147  38.413   9.150
 3616POPC   GL1 7477  43.100  38.468   8.850
 3616POPC   GL2 7478  43.206  38.389   8.850
 3616POPC   C1A 7479  43.107  38.482   8.550
 3616POPC   D2A 7480  43.120  38.415   8.250
 3616POPC   C3A 7481  43.112  38.437   7.950
 3616POPC   C4A 7482  43.105  38.487   7.650
 3616POPC   C1B 7483  43.235  38.262   8.550
 3616POPC   C2B 7484  43.231  38.250   8.250
 3616POPC   C3B 7485  43.214  38.284   7.950
 3616POPC   C4B 7486  43.233  38.193   7.650
 3617POPC   NC3 7487  31.522  26.065   9.450
 3617POPC   PO4 7488  31.511  26.036   9.150
 3617POPC   GL1 7489  31.432  26.053   8.850
 3617POPC   GL2 7490  31.435  26.123   8.850
 3617POPC   C1A 7491  31.472  26.025   8.550
 3617POPC   D2A 7492  31.487  26.053   8.250
 3617POPC   C3A 7493  31.502  26.002   7.950
 3617POPC   C4A 7494  31.496  26.007   7.650
 3617POPC   C1B 7495  31.258  26.261   8.550
 3617POPC   C2B 7496  31.304  26.180   8.250
 3617POPC   C3B 7497  31.288  26.195   7.950
 3617POPC   C4B 7498  31.321  26.260   7.650
 3618POPC   NC3 7499  36.080   3.580   9.450
 3618POPC   PO4 7500  36.122   3.535   9.150
 3618POPC   GL1 7501  36.146   3.557   8.850
 3618POPC   GL2 7502  36.023   3.547   8.850
 3618POPC   C1A 7503  36.113   3.532   8.550
 3618POPC   D2A 7504  36.175   3.546   8.250
 3618POPC   C3A 7505  36.155   3.533   7.950
 3618POPC   C4A 7506  36.114   3.542   7.650
 3618POPC   C1B 7507  35.905   3.482   8.550
 3618POPC   C2B 7508  35.875   3.501   8.250
 3618POPC   C3B 7509  35.880   3.541   7.950
 3618POPC   C4B 7510  35.868   3.530   7.650
 3619POPC   NC3 7511  36.177  24.538   9.450
 3619POPC   PO4 7512  36.140  24.464   9.150
 3619POPC   GL1 7513  36.166  24.469   8.850
 3619POPC   GL2 7514  36.229  24.503   8.850
 3619POPC   C1A 7515  36.135  24.446   8.550
 3619POPC   D2A 7516  36.093  24.459   8.250
 3619POPC   C3A 7517  36.080  24.458   7.950
 3619POPC   C4A 7518  36.143  24.472   7.650
 3619POPC   C1B 7519  36.426  24.449   8.550
 3619POPC   C2B 7520  36.369  24.511   8.250
 3619POPC   C3B 7521  36.399  24.470   7.950
 3619POPC   C4B 7522  36.368  24.457   7.650
 3620POPC   NC3 7523  37.658  10.558   9.450
 3620POPC   PO4 7524  37.688  10.526   9.150
 3620POPC   GL1 7525  37.719  10.487   8.850
 3620POPC   GL2 7526  37.557  10.467   8.850
 3620POPC   C1A 7527  37.644  10.477   8.550
 3620POPC   D2A 7528  37.670  10.572   8.250
 3620POPC   C3A 7529  37.675  10.475   7.950
 3620POPC   C4A 7530  37.652  10.540   7.650
 3620POPC   C1B 7531  37.422  10.532   8.550
 3620POPC   C2B 7532  37.390  10.505   8.250
 3620POPC   C3B 7533  37.418  10.479   7.950
 3620POPC   C4B 7534  37.477  10.501   7.650
 3621POPC   NC3 7535  25.300  34.543   9.450
 3621POPC   PO4 7536  25.309  34.565   9.150
 3621POPC   GL1 7537  25.255  34.558   8.850
 3621POPC   GL2 7538  25.367  34.472   8.850
 3621POPC   C1A 7539  25.279  34.551   8.550
 3621POPC   D2A 7540  25.247  34.596   8.250
 3621POPC   C3A 7541  25.244  34.577   7.950
 3621POPC   C4A 7542  25.270  34.539   7.650
 3621POPC   C1B 7543  25.441  34.425   8.550
 3621POPC   C2B 7544  25.440  34.483   8.250
 3621POPC   C3B 7545  25.425  34.421   7.950
 3621POPC   C4B 7546  25.506  34.399   7.650
 3622POPC   NC3 7547  43.122  33.824   9.450
 3622POPC   PO4 7548  43.146  33.772   9.150
 3622POPC   GL1 7549  43.104  33.778   8.850
 3622POPC   GL2 7550  43.224  33.854   8.850
 3622POPC   C1A 7551  43.112  33.840   8.550
 3622POPC   D2A 7552  43.097  33.808   8.250
 3622POPC   C3A 7553  43.109  33.808   7.950
 3622POPC   C4A 7554  43.102  33.826   7.650
 3622POPC   C1B 7555  43.360  33.804   8.550
 3622POPC   C2B 7556  43.405  33.788   8.250
 3622POPC   C3B 7557  43.400  33.820   7.950
 3622POPC   C4B 7558  43.404  33.819   7.650
 3623POPC   NC3 7559  44.701  12.105   9.450
 3623POPC   PO4 7560  44.677  12.081   9.150
 3623POPC   GL1 7561  44.626  12.046   8.850
 3623POPC   GL2 7562  44.575  12.216   8.850
 3623POPC   C1A 7563  44.709  12.123   8.550
 3623POPC   D2A 7564  44.664  12.070   8.250
 3623POPC   C3A 7565  44.641  12.059   7.950
 3623POPC   C4A 7566  44.653  12.083   7.650
 3623POPC   C1B 7567  44.492  12.313   8.550
 3623POPC   C2B 7568  44.502  12.293   8.250
 3623POPC   C3B 7569  44.522  12.338   7.950
 3623POPC   C4B 7570  44.581  12.275   7.650
 3624POPC   NC3 7571   8.956  26.023   9.450
 3624POPC   PO4 7572   8.964  26.055   9.150
 3624POPC   GL1 7573   9.018  26.028   8.850
 3624POPC   GL2 7574   8.856  26.056   8.850
 3624POPC   C1A 7575   8.976  26.058   8.550
 3624POPC   D2A 7576   9.003  26.021   8.250
 3624POPC   C3A 7577   8.964  26.055   7.950
 3624POPC   C4A 7578   8.973  26.024   7.650
 3624POPC   C1B 7579   8.770  26.019   8.550
 3624POPC   C2B 7580   8.677  25.991   8.250
 3624POPC   C3B 7581   8.702  26.024   7.950
 3624POPC   C4B 7582   8.715  26.044   7.650
 3625POPC   NC3 7583  34.606  35.315   9.450
 3625POPC   PO4 7584  34.617  35.324   9.150
 3625POPC   GL1 7585  34.580  35.302   8.850
 3625POPC   GL2 7586  34.696  35.297   8.850
 3625POPC   C1A 7587  34.586  35.309   8.550
 3625POPC   D2A 7588  34.585  35.358   8.250
 3625POPC   C3A 7589  34.558  35.383   7.950
 3625POPC   C4A 7590  34.530  35.329   7.650
 3625POPC   C1B 7591  34.823  35.272   8.550
 3625POPC   C2B 7592  34.861  35.301   8.250
 3625POPC   C3B 7593  34.800  35.345   7.950
 3625POPC   C4B 7594  34.866  35.341   7.650
 3626POPC   NC3 7595  24.472  29.159   9.450
 3626POPC   PO4 7596  24.526  29.139   9.150
 3626POPC   GL1 7597  24.443  29.163   8.850
 3626POPC   GL2 7598  24.387  29.055   8.850
 3626POPC   C1A 7599  24.441  29.147   8.550
 3626POPC   D2A 7600  24.468  29.176   8.250
 3626POPC   C3A 7601  24.486  29.167   7.950
 3626POPC   C4A 7602  24.510  29.153   7.650
 3626POPC   C1B 7603  24.280  29.009   8.550
 3626POPC   C2B 7604  24.252  28.981   8.250
 3626POPC   C3B 7605  24.318  29.018   7.950
 3626POPC   C4B 7606  24.237  28.996   7.650
 3627POPC   NC3 7607  20.614   0.480   9.450
 3627POPC   PO4 7608  20.632   0.485   9.150
 3627POPC   GL1 7609  20.612   0.428   8.850
 3627POPC   GL2 7610  20.586   0.311   8.850
 3627POPC   C1A 7611  20.565   0.391   8.550
 3627POPC   D2A 7612  20.584   0.430   8.250
 3627POPC   C3A 7613  20.593   0.437   7.950
 3627POPC   C4A 7614  20.648   0.427   7.650
 3627POPC   C1B 7615  20.670   0.154   8.550
 3627POPC   C2B 7616  20.631   0.208   8.250
 3627POPC   C3B 7617  20.691   0.177   7.950
 3627POPC   C4B 7618  20.625   0.203   7.650
 3628POPC   NC3 7619  24.479  26.058   9.450
 3628POPC   PO4 7620  24.511  26.090   9.150
 3628POPC   GL1 7621  24.458  26.004   8.850
 3628POPC   GL2 7622  24.524  26.182   8.850
 3628POPC   C1A 7623  24.519  26.085   8.550
 3628POPC   D2A 7624  24.519  26.064   8.250
 3628POPC   C3A 7625  24.480  26.037   7.950
 3628POPC   C4A 7626  24.473  25.995   7.650
 3628POPC   C1B 7627  24.645  26.224   8.550
 3628POPC   C2B 7628  24.660  26.214   8.250
 3628POPC   C3B 7629  24.616  26.252   7.950
 3628POPC   C4B 7630  24.609  26.266   7.650
 3629POPC   NC3 7631  24.468  23.733   9.450
 3629POPC   PO4 7632  24.504  23.704   9.150
 3629POPC   GL1 7633  24.452  23.689   8.850
 3629POPC   GL2 7634  24.646  23.775   8.850
 3629POPC   C1A 7635  24.527  23.682   8.550
 3629POPC   D2A 7636  24.516  23.749   8.250
 3629POPC   C3A 7637  24.520  23.717   7.950
 3629POPC   C4A 7638  24.495  23.699   7.650
 3629POPC   C1B 7639  24.754  23.797   8.550
 3629POPC   C2B 7640  24.685  23.766   8.250
 3629POPC   C3B 7641  24.712  23.743   7.950
 3629POPC   C4B 7642  24.751  23.780   7.650
 3630POPC   NC3 7643   2.000  31.466   9.450
 3630POPC   PO4 7644   1.991  31.474   9.150
 3630POPC   GL1 7645   2.038  31.496   8.850
 3630POPC   GL2 7646   2.140  31.523   8.850
 3630POPC   C1A 7647   2.004  31.430   8.550
 3630POPC   D2A 7648   1.994  31.497   8.250
 3630POPC   C3A 7649   1.953  31.453   7.950
 3630POPC   C4A 7650   1.991  31.481   7.650
 3630POPC   C1B 7651   2.222  31.536   8.550
 3630POPC   C2B 7652   2.226  31.562   8.250
 3630POPC   C3B 7653   2.274  31.582   7.950
 3630POPC   C4B 7654   2.221  31.566   7.650
 3631POPC   NC3 7655   1.248  12.833   9.450
 3631POPC   PO4 7656   1.244  12.897   9.150
 3631POPC   GL1 7657   1.213  12.812   8.850
 3631POPC   GL2 7658   1.126  12.923   8.850
 3631POPC   C1A 7659   1.196  12.861   8.550
 3631POPC   D2A 7660   1.194  12.838   8.250
 3631POPC   C3A 7661   1.234  12.894   7.950
 3631POPC   C4A 7662   1.251  12.825   7.650
 3631POPC   C1B 7663   1.151  13.110   8.550
 3631POPC   C2B 7664   1.098  13.032   8.250
 3631POPC   C3B 7665   1.108  13.072   7.950
 3631POPC   C4B 7666   1.095  13.044   7.650
 3632POPC   NC3 7667  40.762  32.298   9.450
 3632POPC   PO4 7668  40.775  32.272   9.150
 3632POPC   GL1 7669  40.805  32.223   8.850
 3632POPC   GL2 7670  40.794  32.407   8.850
 3632POPC   C1A 7671  40.792  32.254   8.550
 3632POPC   D2A 7672  40.745  32.279   8.250
 3632POPC   C3A 7673  40.780  32.296   7.950
 3632POPC   C4A 7674  40.753  32.294   7.650
 3632POPC   C1B 7675  40.882  32.479   8.550
 3632POPC   C2B 7676  40.890  32.501   8.250
 3632POPC   C3B 7677  40.812  32.456   7.950
 3632POPC   C4B 7678  40.799  32.479   7.650
 3633POPC   NC3 7679  39.234  32.207   9.450
 3633POPC   PO4 7680  39.184  32.251   9.150
 3633POPC   GL1 7681  39.241  32.265   8.850
 3633POPC   GL2 7682  39.289  32.150   8.850
 3633POPC   C1A 7683  39.189  32.284   8.550
 3633POPC   D2A 7684  39.207  32.281   8.250
 3633POPC   C3A 7685  39.210  32.228   7.950
 3633POPC   C4A 7686  39.241  32.228   7.650
 3633POPC   C1B 7687  39.348  32.006   8.550
 3633POPC   C2B 7688  39.306  32.013   8.250
 3633POPC   C3B 7689  39.333  32.057   7.950
 3633POPC   C4B 7690  39.387  32.075   7.650
 3634POPC   NC3 7691   6.656  35.326   9.450
 3634POPC   PO4 7692   6.655  35.314   9.150
 3634POPC   GL1 7693   6.650  35.362   8.850
 3634POPC   GL2 7694   6.813  35.326   8.850
 3634POPC   C1A 7695   6.603  35.373   8.550
 3634POPC   D2A 7696   6.603  35.328   8.250
 3634POPC   C3A 7697   6.601  35.308   7.950
 3634POPC   C4A 7698   6.632  35.363   7.650
 3634POPC   C1B 7699   6.877  35.339   8.550
 3634POPC   C2B 7700   6.941  35.334   8.250
 3634POPC   C3B 7701   6.847  35.326   7.950
 3634POPC   C4B 7702   6.874  35.323   7.650
 3635POPC   NC3 7703  21.417  40.050   9.450
 3635POPC   PO4 7704  21.423  40.008   9.150
 3635POPC   GL1 7705  21.399  39.997   8.850
 3635POPC   GL2 7706  21.417  39.919   8.850
 3635POPC   C1A 7707  21.374  39.968   8.550
 3635POPC   D2A 7708  21.427  40.031   8.250
 3635POPC   C3A 7709  21.411  39.964   7.950
 3635POPC   C4A 7710  21.372  40.025   7.650
 3635POPC   C1B 7711  21.394  39.799   8.550
 3635POPC   C2B 7712  21.433  39.730   8.250
 3635POPC   C3B 7713  21.391  39.745   7.950
 3635POPC   C4B 7714  21.412  39.746   7.650
 3636POPC   NC3 7715  14.408  13.597   9.450
 3636POPC   PO4 7716  14.374  13.670   9.150
 3636POPC   GL1 7717  14.408  13.673   8.850
 3636POPC   GL2 7718  14.461  13.721   8.850
 3636POPC   C1A 7719  14.374  13.595   8.550
 3636POPC   D2A 7720  14.411  13.589   8.250
 3636POPC   C3A 7721  14.452  13.606   7.950
 3636POPC   C4A 7722  14.376  13.675   7.650
 3636POPC   C1B 7723  14.416  13.894   8.550
 3636POPC   C2B 7724  14.473  13.855   8.250
 3636POPC   C3B 7725  14.478  13.887   7.950
 3636POPC   C4B 7726  14.399  13.891   7.650
 3637POPC   NC3 7727  33.068  31.512   9.450
 3637POPC   PO4 7728  32.989  31.462   9.150
 3637POPC   GL1 7729  33.065  31.449   8.850
 3637POPC   GL2 7730  32.936  31.587   8.850
 3637POPC   C1A 7731  32.985  31.438   8.550
 3637POPC   D2A 7732  33.017  31.509   8.250
 3637POPC   C3A 7733  33.004  31.495   7.950
 3637POPC   C4A 7734  33.014  31.423   7.650
 3637POPC   C1B 7735  32.815  31.649   8.550
 3637POPC   C2B 7736  32.799  31.633   8.250
 3637POPC   C3B 7737  32.829  31.625   7.950
 3637POPC   C4B 7738  32.865  31.597   7.650
 3638POPC   NC3 7739   5.849  35.351   9.450
 3638POPC   PO4 7740   5.855  35.338   9.150
 3638POPC   GL1 7741   5.900  35.360   8.850
 3638POPC   GL2 7742   5.950  35.325   8.850
 3638POPC   C1A 7743   5.860  35.383   8.550
 3638POPC   D2A 7744   5.858  35.328   8.250
 3638POPC   C3A 7745   5.856  35.357   7.950
 3638POPC   C4A 7746   5.831  35.384   7.650
 3638POPC   C1B 7747   6.145  35.328   8.550
 3638POPC   C2B 7748   6.140  35.337   8.250
 3638POPC   C3B 7749   6.138  35.323   7.950
 3638POPC   C4B 7750   6.116  35.369   7.650
 3639POPC   NC3 7751  40.804  12.898   9.450
 3639POPC   PO4 7752  40.812  12.872   9.150
 3639POPC   GL1 7753  40.752  12.889   8.850
 3639POPC   GL2 7754  40.764  12.937   8.850
 3639POPC   C1A 7755  40.786  12.830   8.550
 3639POPC   D2A 7756  40.756  12.867   8.250
 3639POPC   C3A 7757  40.766  12.829   7.950
 3639POPC   C4A 7758  40.818  12.832   7.650
 3639POPC   C1B 7759  40.776  13.090   8.550
 3639POPC   C2B 7760  40.794  13.052   8.250
 3639POPC   C3B 7761  40.744  13.118   7.950
 3639POPC   C4B 7762  40.787  13.138   7.650
 3640POPC   NC3 7763  11.312  40.780   9.450
 3640POPC   PO4 7764  11.314  40.770   9.150
 3640POPC   GL1 7765  11.275  40.759   8.850
 3640POPC   GL2 7766  11.365  40.897   8.850
 3640POPC   C1A 7767  11.323  40.735   8.550
 3640POPC   D2A 7768  11.308  40.814   8.250
 3640POPC   C3A 7769  11.289  40.807   7.950
 3640POPC   C4A 7770  11.251  40.757   7.650
 3640POPC   C1B 7771  11.393  40.985   8.550
 3640POPC   C2B 7772  11.426  41.044   8.250
 3640POPC   C3B 7773  11.340  41.062   7.950
 3640POPC   C4B 7774  11.359  41.036   7.650
 3641POPC   NC3 7775  14.382  21.411   9.450
 3641POPC   PO4 7776  14.445  21.423   9.150
 3641POPC   GL1 7777  14.374  21.351   8.850
 3641POPC   GL2 7778  14.316  21.356   8.850
 3641POPC   C1A 7779  14.364  21.348   8.550
 3641POPC   D2A 7780  14.370  21.423   8.250
 3641POPC   C3A 7781  14.400  21.410   7.950
 3641POPC   C4A 7782  14.425  21.369   7.650
 3641POPC   C1B 7783  14.178  21.403   8.550
 3641POPC   C2B 7784  14.194  21.431   8.250
 3641POPC   C3B 7785  14.139  21.396   7.950
 3641POPC   C4B 7786  14.197  21.385   7.650
 3642POPC   NC3 7787  19.811  42.310   9.450
 3642POPC   PO4 7788  19.804  42.348   9.150
 3642POPC   GL1 7789  19.816  42.340   8.850
 3642POPC   GL2 7790  19.908  42.322   8.850
 3642POPC   C1A 7791  19.883  42.350   8.550
 3642POPC   D2A 7792  19.791  42.348   8.250
 3642POPC   C3A 7793  19.862  42.298   7.950
 3642POPC   C4A 7794  19.819  42.298   7.650
 3642POPC   C1B 7795  20.109  42.337   8.550
 3642POPC   C2B 7796  20.072  42.362   8.250
 3642POPC   C3B 7797  20.040  42.404   7.950
 3642POPC   C4B 7798  20.066  42.370   7.650
 3643POPC   NC3 7799  13.609   9.734   9.450
 3643POPC   PO4 7800  13.617   9.764   9.150
 3643POPC   GL1 7801  13.601   9.763   8.850
 3643POPC   GL2 7802  13.550   9.813   8.850
 3643POPC   C1A 7803  13.666   9.721   8.550
 3643POPC   D2A 7804  13.604   9.745   8.250
 3643POPC   C3A 7805  13.615   9.743   7.950
 3643POPC   C4A 7806  13.611   9.761   7.650
 3643POPC   C1B 7807  13.539   9.976   8.550
 3643POPC   C2B 7808  13.517   9.987   8.250
 3643POPC   C3B 7809  13.530   9.977   7.950
 3643POPC   C4B 7810  13.535   9.955   7.650
 3644POPC   NC3 7811  10.532  26.835   9.450
 3644POPC   PO4 7812  10.538  26.824   9.150
 3644POPC   GL1 7813  10.502  26.817   8.850
 3644POPC   GL2 7814  10.366  26.782   8.850
 3644POPC   C1A 7815  10.538  26.819   8.550
 3644POPC   D2A 7816  10.520  26.804   8.250
 3644POPC   C3A 7817  10.485  26.862   7.950
 3644POPC   C4A 7818  10.559  26.805   7.650
 3644POPC   C1B 7819  10.305  26.724   8.550
 3644POPC   C2B 7820  10.312  26.793   8.250
 3644POPC   C3B 7821  10.266  26.797   7.950
 3644POPC   C4B 7822  10.250  26.738   7.650
 3645POPC   NC3 7823  19.014  34.606   9.450
 3645POPC   PO4 7824  19.087  34.625   9.150
 3645POPC   GL1 7825  19.103  34.573   8.850
 3645POPC   GL2 7826  19.129  34.448   8.850
 3645POPC   C1A 7827  19.074  34.551   8.550
 3645POPC   D2A 7828  19.040  34.610   8.250
 3645POPC   C3A 7829  19.021  34.559   7.950
 3645POPC   C4A 7830  19.075  34.558   7.650
 3645POPC   C1B 7831  19.087  34.286   8.550
 3645POPC   C2B 7832  19.085  34.333   8.250
 3645POPC   C3B 7833  19.087  34.355   7.950
 3645POPC   C4B 7834  19.074  34.331   7.650
 3646POPC   NC3 7835  39.223  22.138   9.450
 3646POPC   PO4 7836  39.272  22.131   9.150
 3646POPC   GL1 7837  39.257  22.152   8.850
 3646POPC   GL2 7838  39.395  22.139   8.850
 3646POPC   C1A 7839  39.261  22.206   8.550
 3646POPC   D2A 7840  39.218  22.124   8.250
 3646POPC   C3A 7841  39.281  22.160   7.950
 3646POPC   C4A 7842  39.235  22.137   7.650
 3646POPC   C1B 7843  39.487  22.152   8.550
 3646POPC   C2B 7844  39.495  22.172   8.250
 3646POPC   C3B 7845  39.519  22.163   7.950
 3646POPC   C4B 7846  39.514  22.142   7.650
 3647POPC   NC3 7847  43.844  17.552   9.450
 3647POPC   PO4 7848  43.901  17.466   9.150
 3647POPC   GL1 7849  43.856  17.535   8.850
 3647POPC   GL2 7850  43.804  17.438   8.850
 3647POPC   C1A 7851  43.923  17.490   8.550
 3647POPC   D2A 7852  43.865  17.504   8.250
 3647POPC   C3A 7853  43.849  17.530   7.950
 3647POPC   C4A 7854  43.931  17.520   7.650
 3647POPC   C1B 7855  43.750  17.259   8.550
 3647POPC   C2B 7856  43.779  17.317   8.250
 3647POPC   C3B 7857  43.770  17.248   7.950
 3647POPC   C4B 7858  43.817  17.258   7.650
 3648POPC   NC3 7859   4.358  29.187   9.450
 3648POPC   PO4 7860   4.329  29.145   9.150
 3648POPC   GL1 7861   4.353  29.149   8.850
 3648POPC   GL2 7862   4.375  28.984   8.850
 3648POPC   C1A 7863   4.311  29.184   8.550
 3648POPC   D2A 7864   4.303  29.179   8.250
 3648POPC   C3A 7865   4.327  29.112   7.950
 3648POPC   C4A 7866   4.339  29.137   7.650
 3648POPC   C1B 7867   4.370  28.932   8.550
 3648POPC   C2B 7868   4.389  28.946   8.250
 3648POPC   C3B 7869   4.365  28.869   7.950
 3648POPC   C4B 7870   4.424  28.934   7.650
 3649POPC   NC3 7871   8.991  38.411   9.450
 3649POPC   PO4 7872   8.935  38.410   9.150
 3649POPC   GL1 7873   8.987  38.494   8.850
 3649POPC   GL2 7874   8.977  38.357   8.850
 3649POPC   C1A 7875   9.014  38.455   8.550
 3649POPC   D2A 7876   8.939  38.442   8.250
 3649POPC   C3A 7877   8.998  38.495   7.950
 3649POPC   C4A 7878   9.012  38.504   7.650
 3649POPC   C1B 7879   9.031  38.233   8.550
 3649POPC   C2B 7880   8.974  38.194   8.250
 3649POPC   C3B 7881   9.032  38.212   7.950
 3649POPC   C4B 7882   8.973  38.211   7.650
 3650POPC   NC3 7883  29.891  44.626   9.450
 3650POPC   PO4 7884  29.877  44.689   9.150
 3650POPC   GL1 7885  29.911  44.623   8.850
 3650POPC   GL2 7886  30.034  44.742   8.850
 3650POPC   C1A 7887  29.958  44.681   8.550
 3650POPC   D2A 7888  29.905  44.695   8.250
 3650POPC   C3A 7889  29.916  44.661   7.950
 3650POPC   C4A 7890  29.961  44.628   7.650
 3650POPC   C1B 7891  30.098  44.770   8.550
 3650POPC   C2B 7892  30.135  44.815   8.250
 3650POPC   C3B 7893  30.082  44.788   7.950
 3650POPC   C4B 7894  30.122  44.769   7.650
 3651POPC   NC3 7895  43.856   1.222   9.450
 3651POPC   PO4 7896  43.862   1.194   9.150
 3651POPC   GL1 7897  43.884   1.203   8.850
 3651POPC   GL2 7898  43.928   1.056   8.850
 3651POPC   C1A 7899  43.900   1.257   8.550
 3651POPC   D2A 7900  43.870   1.166   8.250
 3651POPC   C3A 7901  43.880   1.204   7.950
 3651POPC   C4A 7902  43.879   1.182   7.650
 3651POPC   C1B 7903  43.974   0.987   8.550
 3651POPC   C2B 7904  43.990   0.976   8.250
 3651POPC   C3B 7905  44.001   0.964   7.950
 3651POPC   C4B 7906  44.018   0.977   7.650
 3652POPC   NC3 7907  33.786  32.226   9.450
 3652POPC   PO4 7908  33.790  32.243   9.150
 3652POPC   GL1 7909  33.844  32.280   8.850
 3652POPC   GL2 7910  33.694  32.341   8.850
 3652POPC   C1A 7911  33.768  32.223   8.550
 3652POPC   D2A 7912  33.757  32.223   8.250
 3652POPC   C3A 7913  33.847  32.291   7.950
 3652POPC   C4A 7914  33.775  32.240   7.650
 3652POPC   C1B 7915  33.544  32.380   8.550
 3652POPC   C2B 7916  33.611  32.338   8.250
 3652POPC   C3B 7917  33.573  32.331   7.950
 3652POPC   C4B 7918  33.607  32.381   7.650
 3653POPC   NC3 7919   1.963  27.642   9.450
 3653POPC   PO4 7920   1.975  27.560   9.150
 3653POPC   GL1 7921   1.970  27.606   8.850
 3653POPC   GL2 7922   1.955  27.690   8.850
 3653POPC   C1A 7923   1.993  27.634   8.550
 3653POPC   D2A 7924   2.007  27.630   8.250
 3653POPC   C3A 7925   1.992  27.622   7.950
 3653POPC   C4A 7926   1.949  27.625   7.650
 3653POPC   C1B 7927   1.826  27.744   8.550
 3653POPC   C2B 7928   1.852  27.807   8.250
 3653POPC   C3B 7929   1.806  27.776   7.950
 3653POPC   C4B 7930   1.864  27.824   7.650
 3654POPC   NC3 7931  13.666  26.028   9.450
 3654POPC   PO4 7932  13.593  26.048   9.150
 3654POPC   GL1 7933  13.670  26.036   8.850
 3654POPC   GL2 7934  13.731  25.985   8.850
 3654POPC   C1A 7935  13.638  26.034   8.550
 3654POPC   D2A 7936  13.600  26.088   8.250
 3654POPC   C3A 7937  13.658  26.034   7.950
 3654POPC   C4A 7938  13.584  26.041   7.650
 3654POPC   C1B 7939  13.793  25.849   8.550
 3654POPC   C2B 7940  13.845  25.862   8.250
 3654POPC   C3B 7941  13.829  25.880   7.950
 3654POPC   C4B 7942  13.799  25.900   7.650
 3655POPC   NC3 7943  43.066  39.986   9.450
 3655POPC   PO4 7944  43.142  39.986   9.150
 3655POPC   GL1 7945  43.129  40.044   8.850
 3655POPC   GL2 7946  42.968  40.043   8.850
 3655POPC   C1A 7947  43.150  39.960   8.550
 3655POPC   D2A 7948  43.148  40.026   8.250
 3655POPC   C3A 7949  43.112  39.972   7.950
 3655POPC   C4A 7950  43.116  40.007   7.650
 3655POPC   C1B 7951  42.846  40.012   8.550
 3655POPC   C2B 7952  42.847  39.964   8.250
 3655POPC   C3B 7953  42.824  39.995   7.950
 3655POPC   C4B 7954  42.813  39.945   7.650
 3656POPC   NC3 7955  33.823  24.478   9.450
 3656POPC   PO4 7956  33.752  24.479   9.150
 3656POPC   GL1 7957  33.757  24.524   8.850
 3656POPC   GL2 7958  33.769  24.424   8.850
 3656POPC   C1A 7959  33.763  24.442   8.550
 3656POPC   D2A 7960  33.806  24.447   8.250
 3656POPC   C3A 7961  33.825  24.502   7.950
 3656POPC   C4A 7962  33.777  24.457   7.650
 3656POPC   C1B 7963  33.686  24.268   8.550
 3656POPC   C2B 7964  33.634  24.326   8.250
 3656POPC   C3B 7965  33.624  24.296   7.950
 3656POPC   C4B 7966  33.651  24.329   7.650
 3657POPC   NC3 7967  36.091  19.861   9.450
 3657POPC   PO4 7968  36.158  19.842   9.150
 3657POPC   GL1 7969  36.174  19.879   8.850
 3657POPC   GL2 7970  36.060  19.697   8.850
 3657POPC   C1A 7971  36.088  19.878   8.550
 3657POPC   D2A 7972  36.117  19.870   8.250
 3657POPC   C3A 7973  36.095  19.863   7.950
 3657POPC   C4A 7974  36.145  19.825   7.650
 3657POPC   C1B 7975  35.994  19.578   8.550
 3657POPC   C2B 7976  36.010  19.630   8.250
 3657POPC   C3B 7977  36.087  19.576   7.950
 3657POPC   C4B 7978  36.002  19.607   7.650
 3658POPC   NC3 7979  20.641  15.215   9.450
 3658POPC   PO4 7980  20.583  15.224   9.150
 3658POPC   GL1 7981  20.646  15.183   8.850
 3658POPC   GL2 7982  20.584  15.064   8.850
 3658POPC   C1A 7983  20.630  15.156   8.550
 3658POPC   D2A 7984  20.622  15.140   8.250
 3658POPC   C3A 7985  20.585  15.153   7.950
 3658POPC   C4A 7986  20.583  15.182   7.650
 3658POPC   C1B 7987  20.511  14.927   8.550
 3658POPC   C2B 7988  20.538  14.917   8.250
 3658POPC   C3B 7989  20.527  14.962   7.950
 3658POPC   C4B 7990  20.520  14.948   7.650
 3659POPC   NC3 7991  14.359   2.770   9.450
 3659POPC   PO4 7992  14.354   2.747   9.150
 3659POPC   GL1 7993  14.363   2.802   8.850
 3659POPC   GL2 7994  14.380   2.636   8.850
 3659POPC   C1A 7995  14.435   2.789   8.550
 3659POPC   D2A 7996  14.397   2.736   8.250
 3659POPC   C3A 7997  14.376   2.756   7.950
 3659POPC   C4A 7998  14.415   2.805   7.650
 3659POPC   C1B 7999  14.337   2.483   8.550
 3659POPC   C2B 8000  14.305   2.547   8.250
 3659POPC   C3B 8001  14.345   2.547   7.950
 3659POPC   C4B 8002  14.385   2.542   7.650
 3660POPC   NC3 8003  28.389  21.431   9.450
 3660POPC   PO4 8004  28.321  21.386   9.150
 3660POPC   GL1 8005  28.350  21.414   8.850
 3660POPC   GL2 8006  28.219  21.424   8.850
 3660POPC   C1A 8007  28.375  21.393   8.550
 3660POPC   D2A 8008  28.362  21.419   8.250
 3660POPC   C3A 8009  28.386  21.423   7.950
 3660POPC   C4A 8010  28.342  21.361   7.650
 3660POPC   C1B 8011  28.105  21.371   8.550
 3660POPC   C2B 8012  28.092  21.423   8.250
 3660POPC   C3B 8013  28.122  21.431   7.950
 3660POPC   C4B 8014  28.142  21.359   7.650
 3661POPC   NC3 8015  30.687  23.683   9.450
 3661POPC   PO4 8016  30.681  23.728   9.150
 3661POPC   GL1 8017  30.699  23.736   8.850
 3661POPC   GL2 8018  30.813  23.654   8.850
 3661POPC   C1A 8019  30.713  23.699   8.550
 3661POPC   D2A 8020  30.730  23.691   8.250
 3661POPC   C3A 8021  30.655  23.672   7.950
 3661POPC   C4A 8022  30.670  23.749   7.650
 3661POPC   C1B 8023  30.932  23.561   8.550
 3661POPC   C2B 8024  30.905  23.597   8.250
 3661POPC   C3B 8025  30.891  23.581   7.950
 3661POPC   C4B 8026  30.936  23.587   7.650
 3662POPC   NC3 8027  10.566   8.237   9.450
 3662POPC   PO4 8028  10.538   8.210   9.150
 3662POPC   GL1 8029  10.478   8.205   8.850
 3662POPC   GL2 8030  10.626   8.313   8.850
 3662POPC   C1A 8031  10.569   8.220   8.550
 3662POPC   D2A 8032  10.492   8.168   8.250
 3662POPC   C3A 8033  10.504   8.194   7.950
 3662POPC   C4A 8034  10.529   8.216   7.650
 3662POPC   C1B 8035  10.680   8.364   8.550
 3662POPC   C2B 8036  10.621   8.449   8.250
 3662POPC   C3B 8037  10.708   8.400   7.950
 3662POPC   C4B 8038  10.624   8.431   7.650
 3663POPC   NC3 8039  10.514  37.706   9.450
 3663POPC   PO4 8040  10.539  37.702   9.150
 3663POPC   GL1 8041  10.513  37.675   8.850
 3663POPC   GL2 8042  10.521  37.586   8.850
 3663POPC   C1A 8043  10.541  37.701   8.550
 3663POPC   D2A 8044  10.524  37.722   8.250
 3663POPC   C3A 8045  10.479  37.711   7.950
 3663POPC   C4A 8046  10.523  37.700   7.650
 3663POPC   C1B 8047  10.563  37.437   8.550
 3663POPC   C2B 8048  10.581  37.453   8.250
 3663POPC   C3B 8049  10.607  37.453   7.950
 3663POPC   C4B 8050  10.656  37.395   7.650
 3664POPC   NC3 8051   5.044  15.971   9.450
 3664POPC   PO4 8052   5.106  15.936   9.150
 3664POPC   GL1 8053   5.115  15.913   8.850
 3664POPC   GL2 8054   4.991  16.020   8.850
 3664POPC   C1A 8055   5.054  15.916   8.550
 3664POPC   D2A 8056   5.043  15.914   8.250
 3664POPC   C3A 8057   5.097  15.907   7.950
 3664POPC   C4A 8058   5.083  15.930   7.650
 3664POPC   C1B 8059   4.833  16.036   8.550
 3664POPC   C2B 8060   4.904  16.012   8.250
 3664POPC   C3B 8061   4.893  16.077   7.950
 3664POPC   C4B 8062   4.838  16.087   7.650
 3665POPC   NC3 8063  36.856  32.210   9.450
 3665POPC   PO4 8064  36.949  32.206   9.150
 3665POPC   GL1 8065  36.935  32.232   8.850
 3665POPC   GL2 8066  36.958  32.155   8.850
 3665POPC   C1A 8067  36.856  32.239   8.550
 3665POPC   D2A 8068  36.883  32.234   8.250
 3665POPC   C3A 8069  36.948  32.237   7.950
 3665POPC   C4A 8070  36.898  32.250   7.650
 3665POPC   C1B 8071  37.044  32.049   8.550
 3665POPC   C2B 8072  37.082  32.061   8.250
 3665POPC   C3B 8073  37.049  32.061   7.950
 3665POPC   C4B 8074  37.051  32.091   7.650
 3666POPC   NC3 8075  42.295  42.332   9.450
 3666POPC   PO4 8076  42.306  42.352   9.150
 3666POPC   GL1 8077  42.375  42.292   8.850
 3666POPC   GL2 8078  42.307  42.189   8.850
 3666POPC   C1A 8079  42.308  42.349   8.550
 3666POPC   D2A 8080  42.322  42.330   8.250
 3666POPC   C3A 8081  42.335  42.336   7.950
 3666POPC   C4A 8082  42.338  42.314   7.650
 3666POPC   C1B 8083  42.235  42.067   8.550
 3666POPC   C2B 8084  42.239  42.162   8.250
 3666POPC   C3B 8085  42.233  42.106   7.950
 3666POPC   C4B 8086  42.175  42.108   7.650
 3667POPC   NC3 8087  15.199  33.808   9.450
 3667POPC   PO4 8088  15.146  33.777   9.150
 3667POPC   GL1 8089  15.195  33.829   8.850
 3667POPC   GL2 8090  15.180  33.962   8.850
 3667POPC   C1A 8091  15.228  33.771   8.550
 3667POPC   D2A 8092  15.131  33.832   8.250
 3667POPC   C3A 8093  15.215  33.833   7.950
 3667POPC   C4A 8094  15.156  33.768   7.650
 3667POPC   C1B 8095  15.121  34.004   8.550
 3667POPC   C2B 8096  15.152  34.022   8.250
 3667POPC   C3B 8097  15.195  34.022   7.950
 3667POPC   C4B 8098  15.148  34.006   7.650
 3668POPC   NC3 8099  26.856  36.916   9.450
 3668POPC   PO4 8100  26.837  36.882   9.150
 3668POPC   GL1 8101  26.819  36.919   8.850
 3668POPC   GL2 8102  26.711  36.916   8.850
 3668POPC   C1A 8103  26.856  36.870   8.550
 3668POPC   D2A 8104  26.860  36.885   8.250
 3668POPC   C3A 8105  26.831  36.883   7.950
 3668POPC   C4A 8106  26.849  36.864   7.650
 3668POPC   C1B 8107  26.631  37.042   8.550
 3668POPC   C2B 8108  26.619  37.001   8.250
 3668POPC   C3B 8109  26.602  36.957   7.950
 3668POPC   C4B 8110  26.627  36.955   7.650
 3669POPC   NC3 8111  10.529  44.638   9.450
 3669POPC   PO4 8112  10.538  44.613   9.150
 3669POPC   GL1 8113  10.547  44.673   8.850
 3669POPC   GL2 8114  10.561  44.739   8.850
 3669POPC   C1A 8115  10.486  44.679   8.550
 3669POPC   D2A 8116  10.540  44.669   8.250
 3669POPC   C3A 8117  10.488  44.701   7.950
 3669POPC   C4A 8118  10.530  44.636   7.650
 3669POPC   C1B 8119  10.618  44.937   8.550
 3669POPC   C2B 8120  10.569  44.916   8.250
 3669POPC   C3B 8121  10.562  44.867   7.950
 3669POPC   C4B 8122  10.586  44.858   7.650
 3670POPC   NC3 8123  15.162  32.286   9.450
 3670POPC   PO4 8124  15.204  32.298   9.150
 3670POPC   GL1 8125  15.133  32.237   8.850
 3670POPC   GL2 8126  15.296  32.141   8.850
 3670POPC   C1A 8127  15.145  32.252   8.550
 3670POPC   D2A 8128  15.151  32.269   8.250
 3670POPC   C3A 8129  15.155  32.224   7.950
 3670POPC   C4A 8130  15.213  32.201   7.650
 3670POPC   C1B 8131  15.387  32.053   8.550
 3670POPC   C2B 8132  15.337  32.066   8.250
 3670POPC   C3B 8133  15.396  32.065   7.950
 3670POPC   C4B 8134  15.391  32.065   7.650
 3671POPC   NC3 8135  25.309  23.674   9.450
 3671POPC   PO4 8136  25.305  23.754   9.150
 3671POPC   GL1 8137  25.240  23.678   8.850
 3671POPC   GL2 8138  25.335  23.761   8.850
 3671POPC   C1A 8139  25.287  23.686   8.550
 3671POPC   D2A 8140  25.297  23.727   8.250
 3671POPC   C3A 8141  25.311  23.694   7.950
 3671POPC   C4A 8142  25.241  23.676   7.650
 3671POPC   C1B 8143  25.541  23.830   8.550
 3671POPC   C2B 8144  25.536  23.848   8.250
 3671POPC   C3B 8145  25.495  23.765   7.950
 3671POPC   C4B 8146  25.492  23.846   7.650
 3672POPC   NC3 8147  30.696  17.540   9.450
 3672POPC   PO4 8148  30.743  17.465   9.150
 3672POPC   GL1 8149  30.700  17.549   8.850
 3672POPC   GL2 8150  30.814  17.458   8.850
 3672POPC   C1A 8151  30.683  17.466   8.550
 3672POPC   D2A 8152  30.743  17.464   8.250
 3672POPC   C3A 8153  30.718  17.470   7.950
 3672POPC   C4A 8154  30.735  17.508   7.650
 3672POPC   C1B 8155  30.970  17.454   8.550
 3672POPC   C2B 8156  30.942  17.410   8.250
 3672POPC   C3B 8157  30.937  17.481   7.950
 3672POPC   C4B 8158  30.934  17.419   7.650
 3673POPC   NC3 8159  15.921  20.633   9.450
 3673POPC   PO4 8160  15.947  20.579   9.150
 3673POPC   GL1 8161  15.972  20.597   8.850
 3673POPC   GL2 8162  15.860  20.484   8.850
 3673POPC   C1A 8163  15.962  20.568   8.550
 3673POPC   D2A 8164  15.939  20.608   8.250
 3673POPC   C3A 8165  15.962  20.611   7.950
 3673POPC   C4A 8166  15.992  20.642   7.650
 3673POPC   C1B 8167  15.743  20.400   8.550
 3673POPC   C2B 8168  15.737  20.468   8.250
 3673POPC   C3B 8169  15.750  20.435   7.950
 3673POPC   C4B 8170  15.732  20.446   7.650
 3674POPC   NC3 8171  17.491  39.999   9.450
 3674POPC   PO4 8172  17.501  39.979   9.150
 3674POPC   GL1 8173  17.547  39.992   8.850
 3674POPC   GL2 8174  17.503  39.898   8.850
 3674POPC   C1A 8175  17.461  40.028   8.550
 3674POPC   D2A 8176  17.537  40.003   8.250
 3674POPC   C3A 8177  17.540  40.051   7.950
 3674POPC   C4A 8178  17.555  40.053   7.650
 3674POPC   C1B 8179  17.490  39.770   8.550
 3674POPC   C2B 8180  17.483  39.758   8.250
 3674POPC   C3B 8181  17.516  39.708   7.950
 3674POPC   C4B 8182  17.498  39.715   7.650
 3675POPC   NC3 8183   1.982   2.776   9.450
 3675POPC   PO4 8184   2.029   2.808   9.150
 3675POPC   GL1 8185   2.034   2.722   8.850
 3675POPC   GL2 8186   2.021   2.860   8.850
 3675POPC   C1A 8187   1.957   2.771   8.550
 3675POPC   D2A 8188   1.940   2.760   8.250
 3675POPC   C3A 8189   1.988   2.810   7.950
 3675POPC   C4A 8190   1.941   2.737   7.650
 3675POPC   C1B 8191   2.081   2.971   8.550
 3675POPC   C2B 8192   2.030   2.977   8.250
 3675POPC   C3B 8193   2.068   3.006   7.950
 3675POPC   C4B 8194   2.031   2.992   7.650
 3676POPC   NC3 8195  39.957  25.296   9.450
 3676POPC   PO4 8196  39.962  25.264   9.150
 3676POPC   GL1 8197  40.006  25.297   8.850
 3676POPC   GL2 8198  40.059  25.170   8.850
 3676POPC   C1A 8199  40.000  25.284   8.550
 3676POPC   D2A 8200  40.030  25.219   8.250
 3676POPC   C3A 8201  39.984  25.244   7.950
 3676POPC   C4A 8202  39.985  25.228   7.650
 3676POPC   C1B 8203  40.149  25.094   8.550
 3676POPC   C2B 8204  40.151  25.083   8.250
 3676POPC   C3B 8205  40.146  25.120   7.950
 3676POPC   C4B 8206  40.215  25.120   7.650
 3677POPC   NC3 8207  25.226  15.201   9.450
 3677POPC   PO4 8208  25.280  15.192   9.150
 3677POPC   GL1 8209  25.222  15.221   8.850
 3677POPC   GL2 8210  25.159  15.243   8.850
 3677POPC   C1A 8211  25.277  15.204   8.550
 3677POPC   D2A 8212  25.267  15.177   8.250
 3677POPC   C3A 8213  25.294  15.184   7.950
 3677POPC   C4A 8214  25.245  15.168   7.650
 3677POPC   C1B 8215  24.987  15.180   8.550
 3677POPC   C2B 8216  25.035  15.228   8.250
 3677POPC   C3B 8217  25.015  15.211   7.950
 3677POPC   C4B 8218  24.982  15.258   7.650
 3678POPC   NC3 8219  18.271  31.446   9.450
 3678POPC   PO4 8220  18.298  31.486   9.150
 3678POPC   GL1 8221  18.254  31.452   8.850
 3678POPC   GL2 8222  18.291  31.615   8.850
 3678POPC   C1A 8223  18.278  31.452   8.550
 3678POPC   D2A 8224  18.263  31.504   8.250
 3678POPC   C3A 8225  18.236  31.504   7.950
 3678POPC   C4A 8226  18.259  31.471   7.650
 3678POPC   C1B 8227  18.336  31.727   8.550
 3678POPC   C2B 8228  18.375  31.674   8.250
 3678POPC   C3B 8229  18.358  31.677   7.950
 3678POPC   C4B 8230  18.305  31.693   7.650
 3679POPC   NC3 8231  17.535  41.553   9.450
 3679POPC   PO4 8232  17.466  41.605   9.150
 3679POPC   GL1 8233  17.521  41.571   8.850
 3679POPC   GL2 8234  17.490  41.727   8.850
 3679POPC   C1A 8235  17.500  41.604   8.550
 3679POPC   D2A 8236  17.532  41.551   8.250
 3679POPC   C3A 8237  17.528  41.538   7.950
 3679POPC   C4A 8238  17.495  41.584   7.650
 3679POPC   C1B 8239  17.460  41.815   8.550
 3679POPC   C2B 8240  17.527  41.783   8.250
 3679POPC   C3B 8241  17.492  41.774   7.950
 3679POPC   C4B 8242  17.472  41.784   7.650
 3680POPC   NC3 8243  25.280   3.542   9.450
 3680POPC   PO4 8244  25.230   3.569   9.150
 3680POPC   GL1 8245  25.285   3.559   8.850
 3680POPC   GL2 8246  25.215   3.454   8.850
 3680POPC   C1A 8247  25.304   3.535   8.550
 3680POPC   D2A 8248  25.231   3.545   8.250
 3680POPC   C3A 8249  25.239   3.591   7.950
 3680POPC   C4A 8250  25.225   3.555   7.650
 3680POPC   C1B 8251  25.159   3.301   8.550
 3680POPC   C2B 8252  25.181   3.312   8.250
 3680POPC   C3B 8253  25.152   3.280   7.950
 3680POPC   C4B 8254  25.187   3.320   7.650
 3681POPC   NC3 8255  40.783   0.466   9.450
 3681POPC   PO4 8256  40.757   0.457   9.150
 3681POPC   GL1 8257  40.827   0.444   8.850
 3681POPC   GL2 8258  40.677   0.399   8.850
 3681POPC   C1A 8259  40.773   0.444   8.550
 3681POPC   D2A 8260  40.784   0.484   8.250
 3681POPC   C3A 8261  40.809   0.447   7.950
 3681POPC   C4A 8262  40.739   0.431   7.650
 3681POPC   C1B 8263  40.595   0.217   8.550
 3681POPC   C2B 8264  40.622   0.273   8.250
 3681POPC   C3B 8265  40.630   0.225   7.950
 3681POPC   C4B 8266  40.633   0.240   7.650
 3682POPC   NC3 8267  22.192  21.343   9.450
 3682POPC   PO4 8268  22.210  21.426   9.150
 3682POPC   GL1 8269  22.117  21.386   8.850
 3682POPC   GL2 8270  22.265  21.439   8.850
 3682POPC   C1A 8271  22.168  21.359   8.550
 3682POPC   D2A 8272  22.120  21.426   8.250
 3682POPC   C3A 8273  22.195  21.361   7.950
 3682POPC   C4A 8274  22.163  21.406   7.650
 3682POPC   C1B 8275  22.266  21.606   8.550
 3682POPC   C2B 8276  22.326  21.565   8.250
 3682POPC   C3B 8277  22.342  21.578   7.950
 3682POPC   C4B 8278  22.282  21.550   7.650
 3683POPC   NC3 8279  33.842   0.410   9.450
 3683POPC   PO4 8280  33.763   0.454   9.150
 3683POPC   GL1 8281  33.751   0.430   8.850
 3683POPC   GL2 8282  33.902   0.454   8.850
 3683POPC   C1A 8283  33.787   0.396   8.550
 3683POPC   D2A 8284  33.783   0.454   8.250
 3683POPC   C3A 8285  33.797   0.411   7.950
 3683POPC   C4A 8286  33.808   0.484   7.650
 3683POPC   C1B 8287  34.061   0.485   8.550
 3683POPC   C2B 8288  34.012   0.394   8.250
 3683POPC   C3B 8289  34.066   0.412   7.950
 3683POPC   C4B 8290  34.025   0.403   7.650
 3684POPC   NC3 8291  19.852  10.509   9.450
 3684POPC   PO4 8292  19.846  10.514   9.150
 3684POPC   GL1 8293  19.861  10.521   8.850
 3684POPC   GL2 8294  19.764  10.651   8.850
 3684POPC   C1A 8295  19.854  10.491   8.550
 3684POPC   D2A 8296  19.834  10.474   8.250
 3684POPC   C3A 8297  19.815  10.485   7.950
 3684POPC   C4A 8298  19.869  10.474   7.650
 3684POPC   C1B 8299  19.663  10.773   8.550
 3684POPC   C2B 8300  19.698  10.702   8.250
 3684POPC   C3B 8301  19.662  10.690   7.950
 3684POPC   C4B 8302  19.705  10.708   7.650
 3685POPC   NC3 8303  28.330  13.609   9.450
 3685POPC   PO4 8304  28.336  13.600   9.150
 3685POPC   GL1 8305  28.349  13.661   8.850
 3685POPC   GL2 8306  28.429  13.745   8.850
 3685POPC   C1A 8307  28.371  13.658   8.550
 3685POPC   D2A 8308  28.370  13.654   8.250
 3685POPC   C3A 8309  28.349  13.597   7.950
 3685POPC   C4A 8310  28.404  13.651   7.650
 3685POPC   C1B 8311  28.527  13.810   8.550
 3685POPC   C2B 8312  28.581  13.799   8.250
 3685POPC   C3B 8313  28.613  13.805   7.950
 3685POPC   C4B 8314  28.560  13.793   7.650
 3686POPC   NC3 8315  34.541  43.159   9.450
 3686POPC   PO4 8316  34.563  43.082   9.150
 3686POPC   GL1 8317  34.543  43.120   8.850
 3686POPC   GL2 8318  34.600  43.196   8.850
 3686POPC   C1A 8319  34.558  43.094   8.550
 3686POPC   D2A 8320  34.592  43.137   8.250
 3686POPC   C3A 8321  34.573  43.062   7.950
 3686POPC   C4A 8322  34.617  43.160   7.650
 3686POPC   C1B 8323  34.714  43.313   8.550
 3686POPC   C2B 8324  34.697  43.292   8.250
 3686POPC   C3B 8325  34.659  43.379   7.950
 3686POPC   C4B 8326  34.696  43.291   7.650
 3687POPC   NC3 8327  24.527   3.570   9.450
 3687POPC   PO4 8328  24.505   3.555   9.150
 3687POPC   GL1 8329  24.487   3.520   8.850
 3687POPC   GL2 8330  24.407   3.569   8.850
 3687POPC   C1A 8331  24.483   3.555   8.550
 3687POPC   D2A 8332  24.472   3.560   8.250
 3687POPC   C3A 8333  24.485   3.532   7.950
 3687POPC   C4A 8334  24.442   3.501   7.650
 3687POPC   C1B 8335  24.205   3.623   8.550
 3687POPC   C2B 8336  24.193   3.579   8.250
 3687POPC   C3B 8337  24.262   3.618   7.950
 3687POPC   C4B 8338  24.256   3.559   7.650
 3688POPC   NC3 8339  20.562  43.850   9.450
 3688POPC   PO4 8340  20.629  43.864   9.150
 3688POPC   GL1 8341  20.623  43.838   8.850
 3688POPC   GL2 8342  20.462  43.806   8.850
 3688POPC   C1A 8343  20.654  43.905   8.550
 3688POPC   D2A 8344  20.579  43.864   8.250
 3688POPC   C3A 8345  20.581  43.926   7.950
 3688POPC   C4A 8346  20.561  43.873   7.650
 3688POPC   C1B 8347  20.353  43.818   8.550
 3688POPC   C2B 8348  20.423  43.791   8.250
 3688POPC   C3B 8349  20.406  43.771   7.950
 3688POPC   C4B 8350  20.359  43.771   7.650
 3689POPC   NC3 8351  16.703  44.678   9.450
 3689POPC   PO4 8352  16.685  44.641   9.150
 3689POPC   GL1 8353  16.760  44.693   8.850
 3689POPC   GL2 8354  16.855  44.584   8.850
 3689POPC   C1A 8355  16.700  44.619   8.550
 3689POPC   D2A 8356  16.687  44.712   8.250
 3689POPC   C3A 8357  16.692  44.687   7.950
 3689POPC   C4A 8358  16.733  44.711   7.650
 3689POPC   C1B 8359  17.001  44.537   8.550
 3689POPC   C2B 8360  16.928  44.629   8.250
 3689POPC   C3B 8361  16.950  44.595   7.950
 3689POPC   C4B 8362  16.929  44.535   7.650
 3690POPC   NC3 8363  14.417  38.425   9.450
 3690POPC   PO4 8364  14.373  38.494   9.150
 3690POPC   GL1 8365  14.388  38.500   8.850
 3690POPC   GL2 8366  14.501  38.545   8.850
 3690POPC   C1A 8367  14.413  38.453   8.550
 3690POPC   D2A 8368  14.405  38.471   8.250
 3690POPC   C3A 8369  14.425  38.496   7.950
 3690POPC   C4A 8370  14.427  38.435   7.650
 3690POPC   C1B 8371  14.553  38.569   8.550
 3690POPC   C2B 8372  14.596  38.628   8.250
 3690POPC   C3B 8373  14.608  38.590   7.950
 3690POPC   C4B 8374  14.578  38.656   7.650
 3691POPC   NC3 8375  35.377  29.121   9.450
 3691POPC   PO4 8376  35.312  29.151   9.150
 3691POPC   GL1 8377  35.384  29.167   8.850
 3691POPC   GL2 8378  35.504  29.167   8.850
 3691POPC   C1A 8379  35.364  29.188   8.550
 3691POPC   D2A 8380  35.325  29.114   8.250
 3691POPC   C3A 8381  35.369  29.166   7.950
 3691POPC   C4A 8382  35.340  29.159   7.650
 3691POPC   C1B 8383  35.552  29.172   8.550
 3691POPC   C2B 8384  35.580  29.208   8.250
 3691POPC   C3B 8385  35.583  29.172   7.950
 3691POPC   C4B 8386  35.580  29.133   7.650
 3692POPC   NC3 8387  26.792  40.747   9.450
 3692POPC   PO4 8388  26.837  40.817   9.150
 3692POPC   GL1 8389  26.842  40.736   8.850
 3692POPC   GL2 8390  26.957  40.730   8.850
 3692POPC   C1A 8391  26.851  40.746   8.550
 3692POPC   D2A 8392  26.800  40.772   8.250
 3692POPC   C3A 8393  26.856  40.794   7.950
 3692POPC   C4A 8394  26.856  40.748   7.650
 3692POPC   C1B 8395  27.059  40.662   8.550
 3692POPC   C2B 8396  27.057  40.617   8.250
 3692POPC   C3B 8397  27.039  40.633   7.950
 3692POPC   C4B 8398  26.990  40.642   7.650
 3693POPC   NC3 8399  26.770  29.114   9.450
 3693POPC   PO4 8400  26.802  29.143   9.150
 3693POPC   GL1 8401  26.833  29.181   8.850
 3693POPC   GL2 8402  26.878  29.056   8.850
 3693POPC   C1A 8403  26.830  29.174   8.550
 3693POPC   D2A 8404  26.768  29.110   8.250
 3693POPC   C3A 8405  26.838  29.144   7.950
 3693POPC   C4A 8406  26.840  29.107   7.650
 3693POPC   C1B 8407  26.902  28.949   8.550
 3693POPC   C2B 8408  26.981  28.901   8.250
 3693POPC   C3B 8409  26.914  28.885   7.950
 3693POPC   C4B 8410  26.951  28.940   7.650
 3694POPC   NC3 8411   7.406   0.467   9.450
 3694POPC   PO4 8412   7.415   0.487   9.150
 3694POPC   GL1 8413   7.459   0.448   8.850
 3694POPC   GL2 8414   7.304   0.512   8.850
 3694POPC   C1A 8415   7.400   0.443   8.550
 3694POPC   D2A 8416   7.449   0.474   8.250
 3694POPC   C3A 8417   7.372   0.395   7.950
 3694POPC   C4A 8418   7.411   0.414   7.650
 3694POPC   C1B 8419   7.306   0.604   8.550
 3694POPC   C2B 8420   7.222   0.624   8.250
 3694POPC   C3B 8421   7.310   0.589   7.950
 3694POPC   C4B 8422   7.299   0.650   7.650
 3695POPC   NC3 8423  25.281  35.328   9.450
 3695POPC   PO4 8424  25.222  35.371   9.150
 3695POPC   GL1 8425  25.245  35.311   8.850
 3695POPC   GL2 8426  25.172  35.253   8.850
 3695POPC   C1A 8427  25.278  35.336   8.550
 3695POPC   D2A 8428  25.234  35.341   8.250
 3695POPC   C3A 8429  25.269  35.317   7.950
 3695POPC   C4A 8430  25.236  35.338   7.650
 3695POPC   C1B 8431  25.095  35.188   8.550
 3695POPC   C2B 8432  25.069  35.161   8.250
 3695POPC   C3B 8433  25.096  35.222   7.950
 3695POPC   C4B 8434  25.042  35.222   7.650
 3696POPC   NC3 8435  14.434  10.569   9.450
 3696POPC   PO4 8436  14.441  10.506   9.150
 3696POPC   GL1 8437  14.368  10.529   8.850
 3696POPC   GL2 8438  14.361  10.444   8.850
 3696POPC   C1A 8439  14.394  10.536   8.550
 3696POPC   D2A 8440  14.449  10.547   8.250
 3696POPC   C3A 8441  14.445  10.517   7.950
 3696POPC   C4A 8442  14.388  10.523   7.650
 3696POPC   C1B 8443  14.355  10.321   8.550
 3696POPC   C2B 8444  14.382  10.302   8.250
 3696POPC   C3B 8445  14.390  10.293   7.950
 3696POPC   C4B 8446  14.340  10.271   7.650
 3697POPC   NC3 8447  14.439  23.707   9.450
 3697POPC   PO4 8448  14.450  23.701   9.150
 3697POPC   GL1 8449  14.410  23.733   8.850
 3697POPC   GL2 8450  14.474  23.681   8.850
 3697POPC   C1A 8451  14.370  23.729   8.550
 3697POPC   D2A 8452  14.450  23.718   8.250
 3697POPC   C3A 8453  14.402  23.714   7.950
 3697POPC   C4A 8454  14.404  23.696   7.650
 3697POPC   C1B 8455  14.665  23.630   8.550
 3697POPC   C2B 8456  14.638  23.604   8.250
 3697POPC   C3B 8457  14.674  23.612   7.950
 3697POPC   C4B 8458  14.614  23.662   7.650
 3698POPC   NC3 8459   3.584  29.877   9.450
 3698POPC   PO4 8460   3.569  29.927   9.150
 3698POPC   GL1 8461   3.591  29.889   8.850
 3698POPC   GL2 8462   3.646  29.881   8.850
 3698POPC   C1A 8463   3.586  29.956   8.550
 3698POPC   D2A 8464   3.571  29.950   8.250
 3698POPC   C3A 8465   3.584  29.955   7.950
 3698POPC   C4A 8466   3.566  29.889   7.650
 3698POPC   C1B 8467   3.758  29.901   8.550
 3698POPC   C2B 8468   3.818  29.893   8.250
 3698POPC   C3B 8469   3.815  29.896   7.950
 3698POPC   C4B 8470   3.799  29.905   7.650
 3699POPC   NC3 8471   1.998  29.114   9.450
 3699POPC   PO4 8472   1.985  29.173   9.150
 3699POPC   GL1 8473   2.029  29.141   8.850
 3699POPC   GL2 8474   1.857  29.126   8.850
 3699POPC   C1A 8475   2.035  29.194   8.550
 3699POPC   D2A 8476   2.001  29.097   8.250
 3699POPC   C3A 8477   2.019  29.097   7.950
 3699POPC   C4A 8478   1.956  29.131   7.650
 3699POPC   C1B 8479   1.794  29.036   8.550
 3699POPC   C2B 8480   1.737  29.076   8.250
 3699POPC   C3B 8481   1.814  29.007   7.950
 3699POPC   C4B 8482   1.723  28.986   7.650
 3700POPC   NC3 8483   6.606  38.422   9.450
 3700POPC   PO4 8484   6.604  38.466   9.150
 3700POPC   GL1 8485   6.676  38.475   8.850
 3700POPC   GL2 8486   6.677  38.343   8.850
 3700POPC   C1A 8487   6.654  38.414   8.550
 3700POPC   D2A 8488   6.653  38.411   8.250
 3700POPC   C3A 8489   6.678  38.427   7.950
 3700POPC   C4A 8490   6.635  38.436   7.650
 3700POPC   C1B 8491   6.675  38.236   8.550
 3700POPC   C2B 8492   6.684  38.213   8.250
 3700POPC   C3B 8493   6.655  38.191   7.950
 3700POPC   C4B 8494   6.685  38.209   7.650
 3701POPC   NC3 8495   5.070  41.585   9.450
 3701POPC   PO4 8496   5.099  41.595   9.150
 3701POPC   GL1 8497   5.082  41.549   8.850
 3701POPC   GL2 8498   5.167  41.596   8.850
 3701POPC   C1A 8499   5.051  41.511   8.550
 3701POPC   D2A 8500   5.115  41.515   8.250
 3701POPC   C3A 8501   5.078  41.531   7.950
 3701POPC   C4A 8502   5.065  41.603   7.650
 3701POPC   C1B 8503   5.318  41.636   8.550
 3701POPC   C2B 8504   5.367  41.607   8.250
 3701POPC   C3B 8505   5.374  41.618   7.950
 3701POPC   C4B 8506   5.352  41.651   7.650
 3702POPC   NC3 8507   3.585   5.054   9.450
 3702POPC   PO4 8508   3.549   5.066   9.150
 3702POPC   GL1 8509   3.507   5.076   8.850
 3702POPC   GL2 8510   3.594   5.184   8.850
 3702POPC   C1A 8511   3.518   5.123   8.550
 3702POPC   D2A 8512   3.512   5.141   8.250
 3702POPC   C3A 8513   3.506   5.057   7.950
 3702POPC   C4A 8514   3.567   5.110   7.650
 3702POPC   C1B 8515   3.717   5.294   8.550
 3702POPC   C2B 8516   3.681   5.280   8.250
 3702POPC   C3B 8517   3.656   5.327   7.950
 3702POPC   C4B 8518   3.691   5.262   7.650
 3703POPC   NC3 8519  13.599   2.028   9.450
 3703POPC   PO4 8520  13.641   2.034   9.150
 3703POPC   GL1 8521  13.676   1.940   8.850
 3703POPC   GL2 8522  13.733   2.021   8.850
 3703POPC   C1A 8523  13.648   1.944   8.550
 3703POPC   D2A 8524  13.660   1.963   8.250
 3703POPC   C3A 8525  13.661   2.001   7.950
 3703POPC   C4A 8526  13.662   2.003   7.650
 3703POPC   C1B 8527  13.832   1.990   8.550
 3703POPC   C2B 8528  13.828   1.956   8.250
 3703POPC   C3B 8529  13.898   2.017   7.950
 3703POPC   C4B 8530  13.922   1.937   7.650
 3704POPC   NC3 8531   5.867  12.856   9.450
 3704POPC   PO4 8532   5.908  12.860   9.150
 3704POPC   GL1 8533   5.825  12.850   8.850
 3704POPC   GL2 8534   6.015  12.903   8.850
 3704POPC   C1A 8535   5.903  12.852   8.550
 3704POPC   D2A 8536   5.891  12.846   8.250
 3704POPC   C3A 8537   5.868  12.868   7.950
 3704POPC   C4A 8538   5.906  12.841   7.650
 3704POPC   C1B 8539   6.070  12.940   8.550
 3704POPC   C2B 8540   6.127  12.942   8.250
 3704POPC   C3B 8541   6.115  13.002   7.950
 3704POPC   C4B 8542   6.123  12.951   7.650
 3705POPC   NC3 8543  15.988   2.802   9.450
 3705POPC   PO4 8544  15.999   2.782   9.150
 3705POPC   GL1 8545  15.945   2.765   8.850
 3705POPC   GL2 8546  15.972   2.700   8.850
 3705POPC   C1A 8547  15.927   2.717   8.550
 3705POPC   D2A 8548  15.913   2.743   8.250
 3705POPC   C3A 8549  15.982   2.773   7.950
 3705POPC   C4A 8550  15.978   2.741   7.650
 3705POPC   C1B 8551  16.075   2.573   8.550
 3705POPC   C2B 8552  16.047   2.547   8.250
 3705POPC   C3B 8553  16.054   2.565   7.950
 3705POPC   C4B 8554  16.034   2.567   7.650
 3706POPC   NC3 8555  26.012   0.441   9.450
 3706POPC   PO4 8556  26.062   0.459   9.150
 3706POPC   GL1 8557  26.038   0.442   8.850
 3706POPC   GL2 8558  25.966   0.418   8.850
 3706POPC   C1A 8559  25.994   0.443   8.550
 3706POPC   D2A 8560  26.026   0.441   8.250
 3706POPC   C3A 8561  26.067   0.470   7.950
 3706POPC   C4A 8562  26.048   0.394   7.650
 3706POPC   C1B 8563  25.826   0.488   8.550
 3706POPC   C2B 8564  25.834   0.486   8.250
 3706POPC   C3B 8565  25.784   0.470   7.950
 3706POPC   C4B 8566  25.751   0.450   7.650
 3707POPC   NC3 8567  27.639  35.364   9.450
 3707POPC   PO4 8568  27.575  35.325   9.150
 3707POPC   GL1 8569  27.594  35.344   8.850
 3707POPC   GL2 8570  27.524  35.206   8.850
 3707POPC   C1A 8571  27.594  35.370   8.550
 3707POPC   D2A 8572  27.584  35.401   8.250
 3707POPC   C3A 8573  27.637  35.350   7.950
 3707POPC   C4A 8574  27.557  35.307   7.650
 3707POPC   C1B 8575  27.474  35.127   8.550
 3707POPC   C2B 8576  27.418  35.174   8.250
 3707POPC   C3B 8577  27.436  35.154   7.950
 3707POPC   C4B 8578  27.401  35.124   7.650
 3708POPC   NC3 8579   2.771  19.054   9.450
 3708POPC   PO4 8580   2.791  19.050   9.150
 3708POPC   GL1 8581   2.741  19.021   8.850
 3708POPC   GL2 8582   2.827  18.974   8.850
 3708POPC   C1A 8583   2.782  19.057   8.550
 3708POPC   D2A 8584   2.745  19.085   8.250
 3708POPC   C3A 8585   2.737  19.068   7.950
 3708POPC   C4A 8586   2.754  19.099   7.650
 3708POPC   C1B 8587   2.825  18.786   8.550
 3708POPC   C2B 8588   2.854  18.781   8.250
 3708POPC   C3B 8589   2.820  18.839   7.950
 3708POPC   C4B 8590   2.779  18.773   7.650
 3709POPC   NC3 8591  33.006  36.079   9.450
 3709POPC   PO4 8592  33.022  36.118   9.150
 3709POPC   GL1 8593  33.044  36.176   8.850
 3709POPC   GL2 8594  33.167  36.143   8.850
 3709POPC   C1A 8595  33.021  36.137   8.550
 3709POPC   D2A 8596  33.004  36.150   8.250
 3709POPC   C3A 8597  32.996  36.168   7.950
 3709POPC   C4A 8598  33.018  36.082   7.650
 3709POPC   C1B 8599  33.302  36.165   8.550
 3709POPC   C2B 8600  33.286  36.108   8.250
 3709POPC   C3B 8601  33.264  36.187   7.950
 3709POPC   C4B 8602  33.225  36.168   7.650
 3710POPC   NC3 8603  33.027  29.147   9.450
 3710POPC   PO4 8604  33.033  29.157   9.150
 3710POPC   GL1 8605  32.975  29.184   8.850
 3710POPC   GL2 8606  32.958  29.228   8.850
 3710POPC   C1A 8607  33.016  29.194   8.550
 3710POPC   D2A 8608  32.999  29.148   8.250
 3710POPC   C3A 8609  33.066  29.154   7.950
 3710POPC   C4A 8610  32.995  29.105   7.650
 3710POPC   C1B 8611  32.785  29.262   8.550
 3710POPC   C2B 8612  32.816  29.290   8.250
 3710POPC   C3B 8613  32.782  29.327   7.950
 3710POPC   C4B 8614  32.806  29.307   7.650
 3711POPC   NC3 8615  30.707   7.422   9.450
 3711POPC   PO4 8616  30.653   7.453   9.150
 3711POPC   GL1 8617  30.670   7.435   8.850
 3711POPC   GL2 8618  30.772   7.351   8.850
 3711POPC   C1A 8619  30.657   7.390   8.550
 3711POPC   D2A 8620  30.741   7.457   8.250
 3711POPC   C3A 8621  30.710   7.413   7.950
 3711POPC   C4A 8622  30.654   7.454   7.650
 3711POPC   C1B 8623  30.831   7.221   8.550
 3711POPC   C2B 8624  30.872   7.246   8.250
 3711POPC   C3B 8625  30.906   7.188   7.950
 3711POPC   C4B 8626  30.891   7.189   7.650
 3712POPC   NC3 8627  29.191  36.906   9.450
 3712POPC   PO4 8628  29.187  36.877   9.150
 3712POPC   GL1 8629  29.131  36.916   8.850
 3712POPC   GL2 8630  29.223  37.027   8.850
 3712POPC   C1A 8631  29.107  36.928   8.550
 3712POPC   D2A 8632  29.169  36.899   8.250
 3712POPC   C3A 8633  29.115  36.871   7.950
 3712POPC   C4A 8634  29.162  36.891   7.650
 3712POPC   C1B 8635  29.288  37.086   8.550
 3712POPC   C2B 8636  29.276  37.066   8.250
 3712POPC   C3B 8637  29.318  37.123   7.950
 3712POPC   C4B 8638  29.316  37.150   7.650
 3713POPC   NC3 8639   9.767  18.238   9.450
 3713POPC   PO4 8640   9.743  18.316   9.150
 3713POPC   GL1 8641   9.731  18.269   8.850
 3713POPC   GL2 8642   9.624  18.314   8.850
 3713POPC   C1A 8643   9.769  18.268   8.550
 3713POPC   D2A 8644   9.740  18.253   8.250
 3713POPC   C3A 8645   9.704  18.329   7.950
 3713POPC   C4A 8646   9.780  18.285   7.650
 3713POPC   C1B 8647   9.496  18.256   8.550
 3713POPC   C2B 8648   9.461  18.308   8.250
 3713POPC   C3B 8649   9.546  18.301   7.950
 3713POPC   C4B 8650   9.499  18.267   7.650
 3714POPC   NC3 8651  26.020  43.090   9.450
 3714POPC   PO4 8652  26.016  43.066   9.150
 3714POPC   GL1 8653  25.993  43.131   8.850
 3714POPC   GL2 8654  26.136  43.059   8.850
 3714POPC   C1A 8655  26.015  43.155   8.550
 3714POPC   D2A 8656  26.016  43.091   8.250
 3714POPC   C3A 8657  26.019  43.146   7.950
 3714POPC   C4A 8658  26.040  43.084   7.650
 3714POPC   C1B 8659  26.260  43.120   8.550
 3714POPC   C2B 8660  26.329  43.074   8.250
 3714POPC   C3B 8661  26.335  43.095   7.950
 3714POPC   C4B 8662  26.242  43.093   7.650
 3715POPC   NC3 8663  23.697  17.527   9.450
 3715POPC   PO4 8664  23.685  17.508   9.150
 3715POPC   GL1 8665  23.750  17.518   8.850
 3715POPC   GL2 8666  23.805  17.549   8.850
 3715POPC   C1A 8667  23.674  17.463   8.550
 3715POPC   D2A 8668  23.759  17.486   8.250
 3715POPC   C3A 8669  23.699  17.523   7.950
 3715POPC   C4A 8670  23.699  17.460   7.650
 3715POPC   C1B 8671  24.009  17.513   8.550
 3715POPC   C2B 8672  23.958  17.542   8.250
 3715POPC   C3B 8673  23.979  17.496   7.950
 3715POPC   C4B 8674  23.949  17.497   7.650
 3716POPC   NC3 8675  41.541  30.661   9.450
 3716POPC   PO4 8676  41.526  30.698   9.150
 3716POPC   GL1 8677  41.606  30.662   8.850
 3716POPC   GL2 8678  41.630  30.774   8.850
 3716POPC   C1A 8679  41.572  30.686   8.550
 3716POPC   D2A 8680  41.566  30.733   8.250
 3716POPC   C3A 8681  41.537  30.698   7.950
 3716POPC   C4A 8682  41.588  30.711   7.650
 3716POPC   C1B 8683  41.606  30.960   8.550
 3716POPC   C2B 8684  41.589  30.920   8.250
 3716POPC   C3B 8685  41.645  30.912   7.950
 3716POPC   C4B 8686  41.629  30.945   7.650
 3717POPC   NC3 8687  18.323  10.476   9.450
 3717POPC   PO4 8688  18.314  10.482   9.150
 3717POPC   GL1 8689  18.292  10.521   8.850
 3717POPC   GL2 8690  18.192  10.401   8.850
 3717POPC   C1A 8691  18.252  10.521   8.550
 3717POPC   D2A 8692  18.266  10.521   8.250
 3717POPC   C3A 8693  18.290  10.547   7.950
 3717POPC   C4A 8694  18.305  10.560   7.650
 3717POPC   C1B 8695  18.140  10.350   8.550
 3717POPC   C2B 8696  18.128  10.286   8.250
 3717POPC   C3B 8697  18.115  10.342   7.950
 3717POPC   C4B 8698  18.080  10.313   7.650
 3718POPC   NC3 8699  34.615  43.914   9.450
 3718POPC   PO4 8700  34.566  43.920   9.150
 3718POPC   GL1 8701  34.529  43.910   8.850
 3718POPC   GL2 8702  34.491  44.054   8.850
 3718POPC   C1A 8703  34.593  43.876   8.550
 3718POPC   D2A 8704  34.550  43.894   8.250
 3718POPC   C3A 8705  34.550  43.837   7.950
 3718POPC   C4A 8706  34.529  43.840   7.650
 3718POPC   C1B 8707  34.493  44.151   8.550
 3718POPC   C2B 8708  34.457  44.081   8.250
 3718POPC   C3B 8709  34.534  44.102   7.950
 3718POPC   C4B 8710  34.453  44.167   7.650
 3719POPC   NC3 8711  30.697   2.012   9.450
 3719POPC   PO4 8712  30.648   2.026   9.150
 3719POPC   GL1 8713  30.671   2.001   8.850
 3719POPC   GL2 8714  30.809   1.875   8.850
 3719POPC   C1A 8715  30.743   1.955   8.550
 3719POPC   D2A 8716  30.692   1.966   8.250
 3719POPC   C3A 8717  30.651   2.024   7.950
 3719POPC   C4A 8718  30.728   1.952   7.650
 3719POPC   C1B 8719  30.879   1.806   8.550
 3719POPC   C2B 8720  30.844   1.827   8.250
 3719POPC   C3B 8721  30.938   1.860   7.950
 3719POPC   C4B 8722  30.860   1.841   7.650
 3720POPC   NC3 8723   1.988  22.169   9.450
 3720POPC   PO4 8724   2.003  22.173   9.150
 3720POPC   GL1 8725   1.963  22.124   8.850
 3720POPC   GL2 8726   2.125  22.290   8.850
 3720POPC   C1A 8727   2.016  22.114   8.550
 3720POPC   D2A 8728   2.009  22.174   8.250
 3720POPC   C3A 8729   1.980  22.187   7.950
 3720POPC   C4A 8730   2.037  22.182   7.650
 3720POPC   C1B 8731   2.193  22.372   8.550
 3720POPC   C2B 8732   2.212  22.380   8.250
 3720POPC   C3B 8733   2.154  22.291   7.950
 3720POPC   C4B 8734   2.189  22.288   7.650
 3721POPC   NC3 8735  17.520  18.313   9.450
 3721POPC   PO4 8736  17.471  18.277   9.150
 3721POPC   GL1 8737  17.512  18.319   8.850
 3721POPC   GL2 8738  17.358  18.288   8.850
 3721POPC   C1A 8739  17.527  18.297   8.550
 3721POPC   D2A 8740  17.553  18.291   8.250
 3721POPC   C3A 8741  17.495  18.234   7.950
 3721POPC   C4A 8742  17.534  18.331   7.650
 3721POPC   C1B 8743  17.255  18.239   8.550
 3721POPC   C2B 8744  17.244  18.227   8.250
 3721POPC   C3B 8745  17.276  18.242   7.950
 3721POPC   C4B 8746  17.296  18.193   7.650
 3722POPC   NC3 8747  38.452  13.668   9.450
 3722POPC   PO4 8748  38.432  13.615   9.150
 3722POPC   GL1 8749  38.475  13.673   8.850
 3722POPC   GL2 8750  38.569  13.630   8.850
 3722POPC   C1A 8751  38.484  13.615   8.550
 3722POPC   D2A 8752  38.479  13.610   8.250
 3722POPC   C3A 8753  38.444  13.623   7.950
 3722POPC   C4A 8754  38.470  13.641   7.650
 3722POPC   C1B 8755  38.643  13.683   8.550
 3722POPC   C2B 8756  38.688  13.695   8.250
 3722POPC   C3B 8757  38.722  13.684   7.950
 3722POPC   C4B 8758  38.720  13.737   7.650
 3723POPC   NC3 8759  18.298  40.056   9.450
 3723POPC   PO4 8760  18.291  40.033   9.150
 3723POPC   GL1 8761  18.308  39.970   8.850
 3723POPC   GL2 8762  18.129  39.931   8.850
 3723POPC   C1A 8763  18.257  39.992   8.550
 3723POPC   D2A 8764  18.253  40.022   8.250
 3723POPC   C3A 8765  18.286  39.986   7.950
 3723POPC   C4A 8766  18.248  39.961   7.650
 3723POPC   C1B 8767  18.100  39.822   8.550
 3723POPC   C2B 8768  18.093  39.845   8.250
 3723POPC   C3B 8769  18.063  39.919   7.950
 3723POPC   C4B 8770  18.049  39.854   7.650
 3724POPC   NC3 8771  12.860  22.900   9.450
 3724POPC   PO4 8772  12.902  22.898   9.150
 3724POPC   GL1 8773  12.832  22.934   8.850
 3724POPC   GL2 8774  12.979  22.836   8.850
 3724POPC   C1A 8775  12.871  22.948   8.550
 3724POPC   D2A 8776  12.822  22.975   8.250
 3724POPC   C3A 8777  12.812  22.899   7.950
 3724POPC   C4A 8778  12.842  22.965   7.650
 3724POPC   C1B 8779  13.069  22.806   8.550
 3724POPC   C2B 8780  13.015  22.759   8.250
 3724POPC   C3B 8781  13.029  22.816   7.950
 3724POPC   C4B 8782  13.062  22.752   7.650
 3725POPC   NC3 8783  33.028   6.655   9.450
 3725POPC   PO4 8784  33.065   6.659   9.150
 3725POPC   GL1 8785  33.061   6.659   8.850
 3725POPC   GL2 8786  32.931   6.708   8.850
 3725POPC   C1A 8787  33.033   6.669   8.550
 3725POPC   D2A 8788  33.040   6.652   8.250
 3725POPC   C3A 8789  32.992   6.670   7.950
 3725POPC   C4A 8790  33.057   6.681   7.650
 3725POPC   C1B 8791  32.911   6.821   8.550
 3725POPC   C2B 8792  32.880   6.841   8.250
 3725POPC   C3B 8793  32.918   6.852   7.950
 3725POPC   C4B 8794  32.850   6.813   7.650
 3726POPC   NC3 8795  31.520  15.145   9.450
 3726POPC   PO4 8796  31.426  15.218   9.150
 3726POPC   GL1 8797  31.425  15.202   8.850
 3726POPC   GL2 8798  31.381  15.106   8.850
 3726POPC   C1A 8799  31.448  15.135   8.550
 3726POPC   D2A 8800  31.505  15.188   8.250
 3726POPC   C3A 8801  31.449  15.143   7.950
 3726POPC   C4A 8802  31.515  15.148   7.650
 3726POPC   C1B 8803  31.269  15.103   8.550
 3726POPC   C2B 8804  31.272  15.123   8.250
 3726POPC   C3B 8805  31.238  15.056   7.950
 3726POPC   C4B 8806  31.210  15.040   7.650
 3727POPC   NC3 8807  13.619  29.179   9.450
 3727POPC   PO4 8808  13.660  29.193   9.150
 3727POPC   GL1 8809  13.673  29.123   8.850
 3727POPC   GL2 8810  13.714  29.049   8.850
 3727POPC   C1A 8811  13.611  29.117   8.550
 3727POPC   D2A 8812  13.646  29.142   8.250
 3727POPC   C3A 8813  13.587  29.168   7.950
 3727POPC   C4A 8814  13.669  29.169   7.650
 3727POPC   C1B 8815  13.835  29.058   8.550
 3727POPC   C2B 8816  13.855  29.070   8.250
 3727POPC   C3B 8817  13.823  28.994   7.950
 3727POPC   C4B 8818  13.887  28.994   7.650
 3728POPC   NC3 8819  18.238  15.922   9.450
 3728POPC   PO4 8820  18.253  15.913   9.150
 3728POPC   GL1 8821  18.294  15.954   8.850
 3728POPC   GL2 8822  18.302  15.884   8.850
 3728POPC   C1A 8823  18.274  15.949   8.550
 3728POPC   D2A 8824  18.235  15.930   8.250
 3728POPC   C3A 8825  18.331  15.951   7.950
 3728POPC   C4A 8826  18.273  15.979   7.650
 3728POPC   C1B 8827  18.418  15.692   8.550
 3728POPC   C2B 8828  18.338  15.774   8.250
 3728POPC   C3B 8829  18.378  15.709   7.950
 3728POPC   C4B 8830  18.411  15.728   7.650
 3729POPC   NC3 8831  10.571  15.959   9.450
 3729POPC   PO4 8832  10.556  15.922   9.150
 3729POPC   GL1 8833  10.485  15.999   8.850
 3729POPC   GL2 8834  10.387  15.960   8.850
 3729POPC   C1A 8835  10.517  15.928   8.550
 3729POPC   D2A 8836  10.569  15.990   8.250
 3729POPC   C3A 8837  10.560  15.965   7.950
 3729POPC   C4A 8838  10.514  15.925   7.650
 3729POPC   C1B 8839  10.280  15.940   8.550
 3729POPC   C2B 8840  10.274  15.868   8.250
 3729POPC   C3B 8841  10.302  15.855   7.950
 3729POPC   C4B 8842  10.233  15.853   7.650
 3730POPC   NC3 8843  14.367  12.125   9.450
 3730POPC   PO4 8844  14.452  12.089   9.150
 3730POPC   GL1 8845  14.425  12.058   8.850
 3730POPC   GL2 8846  14.499  12.199   8.850
 3730POPC   C1A 8847  14.355  12.095   8.550
 3730POPC   D2A 8848  14.451  12.071   8.250
 3730POPC   C3A 8849  14.355  12.085   7.950
 3730POPC   C4A 8850  14.406  12.115   7.650
 3730POPC   C1B 8851  14.509  12.293   8.550
 3730POPC   C2B 8852  14.508  12.272   8.250
 3730POPC   C3B 8853  14.564  12.244   7.950
 3730POPC   C4B 8854  14.561  12.321   7.650
 3731POPC   NC3 8855  29.106  25.282   9.450
 3731POPC   PO4 8856  29.111  25.250   9.150
 3731POPC   GL1 8857  29.189  25.295   8.850
 3731POPC   GL2 8858  29.225  25.281   8.850
 3731POPC   C1A 8859  29.183  25.239   8.550
 3731POPC   D2A 8860  29.129  25.228   8.250
 3731POPC   C3A 8861  29.127  25.253   7.950
 3731POPC   C4A 8862  29.172  25.249   7.650
 3731POPC   C1B 8863  29.364  25.328   8.550
 3731POPC   C2B 8864  29.374  25.269   8.250
 3731POPC   C3B 8865  29.351  25.274   7.950
 3731POPC   C4B 8866  29.421  25.262   7.650
 3732POPC   NC3 8867   7.382  10.554   9.450
 3732POPC   PO4 8868   7.422  10.500   9.150
 3732POPC   GL1 8869   7.445  10.539   8.850
 3732POPC   GL2 8870   7.554  10.427   8.850
 3732POPC   C1A 8871   7.444  10.504   8.550
 3732POPC   D2A 8872   7.457  10.520   8.250
 3732POPC   C3A 8873   7.427  10.522   7.950
 3732POPC   C4A 8874   7.408  10.556   7.650
 3732POPC   C1B 8875   7.625  10.439   8.550
 3732POPC   C2B 8876   7.669  10.366   8.250
 3732POPC   C3B 8877   7.593  10.445   7.950
 3732POPC   C4B 8878   7.636  10.443   7.650
 3733POPC   NC3 8879   0.398  20.610   9.450
 3733POPC   PO4 8880   0.415  20.643   9.150
 3733POPC   GL1 8881   0.406  20.641   8.850
 3733POPC   GL2 8882   0.326  20.643   8.850
 3733POPC   C1A 8883   0.477  20.636   8.550
 3733POPC   D2A 8884   0.425  20.641   8.250
 3733POPC   C3A 8885   0.421  20.571   7.950
 3733POPC   C4A 8886   0.415  20.594   7.650
 3733POPC   C1B 8887   0.147  20.642   8.550
 3733POPC   C2B 8888   0.218  20.578   8.250
 3733POPC   C3B 8889   0.218  20.647   7.950
 3733POPC   C4B 8890   0.223  20.655   7.650
 3734POPC   NC3 8891  19.013  43.100   9.450
 3734POPC   PO4 8892  19.051  43.120   9.150
 3734POPC   GL1 8893  19.077  43.123   8.850
 3734POPC   GL2 8894  19.039  42.976   8.850
 3734POPC   C1A 8895  19.042  43.069   8.550
 3734POPC   D2A 8896  19.074  43.090   8.250
 3734POPC   C3A 8897  19.095  43.096   7.950
 3734POPC   C4A 8898  19.064  43.079   7.650
 3734POPC   C1B 8899  18.913  42.894   8.550
 3734POPC   C2B 8900  18.888  42.861   8.250
 3734POPC   C3B 8901  18.951  42.938   7.950
 3734POPC   C4B 8902  18.938  42.885   7.650
 3735POPC   NC3 8903  15.987   7.394   9.450
 3735POPC   PO4 8904  15.948   7.453   9.150
 3735POPC   GL1 8905  15.938   7.414   8.850
 3735POPC   GL2 8906  15.866   7.511   8.850
 3735POPC   C1A 8907  15.952   7.466   8.550
 3735POPC   D2A 8908  15.967   7.432   8.250
 3735POPC   C3A 8909  15.977   7.425   7.950
 3735POPC   C4A 8910  15.995   7.447   7.650
 3735POPC   C1B 8911  15.686   7.518   8.550
 3735POPC   C2B 8912  15.724   7.567   8.250
 3735POPC   C3B 8913  15.771   7.480   7.950
 3735POPC   C4B 8914  15.752   7.478   7.650
 3736POPC   NC3 8915  12.853   1.249   9.450
 3736POPC   PO4 8916  12.807   1.183   9.150
 3736POPC   GL1 8917  12.842   1.240   8.850
 3736POPC   GL2 8918  12.841   1.082   8.850
 3736POPC   C1A 8919  12.839   1.189   8.550
 3736POPC   D2A 8920  12.816   1.189   8.250
 3736POPC   C3A 8921  12.849   1.234   7.950
 3736POPC   C4A 8922  12.813   1.200   7.650
 3736POPC   C1B 8923  12.782   1.013   8.550
 3736POPC   C2B 8924  12.802   0.986   8.250
 3736POPC   C3B 8925  12.794   0.950   7.950
 3736POPC   C4B 8926  12.818   0.972   7.650
 3737POPC   NC3 8927  43.913   2.001   9.450
 3737POPC   PO4 8928  43.921   1.970   9.150
 3737POPC   GL1 8929  43.841   1.988   8.850
 3737POPC   GL2 8930  43.833   1.880   8.850
 3737POPC   C1A 8931  43.868   2.026   8.550
 3737POPC   D2A 8932  43.880   1.961   8.250
 3737POPC   C3A 8933  43.925   1.996   7.950
 3737POPC   C4A 8934  43.897   2.028   7.650
 3737POPC   C1B 8935  43.729   1.801   8.550
 3737POPC   C2B 8936  43.677   1.817   8.250
 3737POPC   C3B 8937  43.700   1.800   7.950
 3737POPC   C4B 8938  43.688   1.761   7.650
 3738POPC   NC3 8939   8.934   5.862   9.450
 3738POPC   PO4 8940   8.974   5.866   9.150
 3738POPC   GL1 8941   8.979   5.828   8.850
 3738POPC   GL2 8942   8.855   5.934   8.850
 3738POPC   C1A 8943   9.010   5.871   8.550
 3738POPC   D2A 8944   8.988   5.858   8.250
 3738POPC   C3A 8945   8.953   5.828   7.950
 3738POPC   C4A 8946   8.970   5.893   7.650
 3738POPC   C1B 8947   8.783   6.028   8.550
 3738POPC   C2B 8948   8.771   6.103   8.250
 3738POPC   C3B 8949   8.789   6.073   7.950
 3738POPC   C4B 8950   8.768   6.045   7.650
 3739POPC   NC3 8951   8.170  39.229   9.450
 3739POPC   PO4 8952   8.208  39.253   9.150
 3739POPC   GL1 8953   8.229  39.224   8.850
 3739POPC   GL2 8954   8.235  39.165   8.850
 3739POPC   C1A 8955   8.239  39.249   8.550
 3739POPC   D2A 8956   8.227  39.210   8.250
 3739POPC   C3A 8957   8.168  39.193   7.950
 3739POPC   C4A 8958   8.234  39.266   7.650
 3739POPC   C1B 8959   8.341  39.049   8.550
 3739POPC   C2B 8960   8.391  39.069   8.250
 3739POPC   C3B 8961   8.354  39.009   7.950
 3739POPC   C4B 8962   8.364  39.003   7.650
 3740POPC   NC3 8963  13.597  42.338   9.450
 3740POPC   PO4 8964  13.595  42.334   9.150
 3740POPC   GL1 8965  13.658  42.312   8.850
 3740POPC   GL2 8966  13.675  42.500   8.850
 3740POPC   C1A 8967  13.596  42.369   8.550
 3740POPC   D2A 8968  13.638  42.306   8.250
 3740POPC   C3A 8969  13.669  42.384   7.950
 3740POPC   C4A 8970  13.640  42.343   7.650
 3740POPC   C1B 8971  13.676  42.569   8.550
 3740POPC   C2B 8972  13.681  42.618   8.250
 3740POPC   C3B 8973  13.641  42.587   7.950
 3740POPC   C4B 8974  13.633  42.558   7.650
 3741POPC   NC3 8975   5.049  30.695   9.450
 3741POPC   PO4 8976   5.133  30.672   9.150
 3741POPC   GL1 8977   5.078  30.719   8.850
 3741POPC   GL2 8978   5.254  30.707   8.850
 3741POPC   C1A 8979   5.070  30.722   8.550
 3741POPC   D2A 8980   5.057  30.677   8.250
 3741POPC   C3A 8981   5.102  30.709   7.950
 3741POPC   C4A 8982   5.047  30.745   7.650
 3741POPC   C1B 8983   5.328  30.668   8.550
 3741POPC   C2B 8984   5.361  30.732   8.250
 3741POPC   C3B 8985   5.352  30.694   7.950
 3741POPC   C4B 8986   5.343  30.699   7.650
 3742POPC   NC3 8987  20.575  20.586   9.450
 3742POPC   PO4 8988  20.581  20.640   9.150
 3742POPC   GL1 8989  20.633  20.632   8.850
 3742POPC   GL2 8990  20.638  20.760   8.850
 3742POPC   C1A 8991  20.620  20.629   8.550
 3742POPC   D2A 8992  20.596  20.640   8.250
 3742POPC   C3A 8993  20.587  20.634   7.950
 3742POPC   C4A 8994  20.588  20.632   7.650
 3742POPC   C1B 8995  20.595  20.827   8.550
 3742POPC   C2B 8996  20.554  20.847   8.250
 3742POPC   C3B 8997  20.603  20.859   7.950
 3742POPC   C4B 8998  20.585  20.902   7.650
 3743POPC   NC3 8999  35.362   4.293   9.450
 3743POPC   PO4 9000  35.332   4.318   9.150
 3743POPC   GL1 9001  35.400   4.277   8.850
 3743POPC   GL2 9002  35.514   4.388   8.850
 3743POPC   C1A 9003  35.331   4.301   8.550
 3743POPC   D2A 9004  35.367   4.305   8.250
 3743POPC   C3A 9005  35.395   4.287   7.950
 3743POPC   C4A 9006  35.366   4.268   7.650
 3743POPC   C1B 9007  35.603   4.353   8.550
 3743POPC   C2B 9008  35.631   4.404   8.250
 3743POPC   C3B 9009  35.559   4.380   7.950
 3743POPC   C4B 9010  35.596   4.428   7.650
 3744POPC   NC3 9011  44.708  15.945   9.450
 3744POPC   PO4 9012  44.613  15.929   9.150
 3744POPC   GL1 9013  44.690  15.977   8.850
 3744POPC   GL2 9014  44.667  15.802   8.850
 3744POPC   C1A 9015  44.698  15.999   8.550
 3744POPC   D2A 9016  44.702  15.975   8.250
 3744POPC   C3A 9017  44.650  15.996   7.950
 3744POPC   C4A 9018  44.616  15.908   7.650
 3744POPC   C1B 9019  44.745  15.677   8.550
 3744POPC   C2B 9020  44.725  15.751   8.250
 3744POPC   C3B 9021  44.702  15.690   7.950
 3744POPC   C4B 9022  44.721  15.707   7.650
 3745POPC   NC3 9023  15.954  10.489   9.450
 3745POPC   PO4 9024  16.003  10.562   9.150
 3745POPC   GL1 9025  15.944  10.503   8.850
 3745POPC   GL2 9026  16.033  10.478   8.850
 3745POPC   C1A 9027  15.955  10.494   8.550
 3745POPC   D2A 9028  15.911  10.476   8.250
 3745POPC   C3A 9029  15.965  10.553   7.950
 3745POPC   C4A 9030  15.982  10.552   7.650
 3745POPC   C1B 9031  16.161  10.380   8.550
 3745POPC   C2B 9032  16.156  10.387   8.250
 3745POPC   C3B 9033  16.208  10.466   7.950
 3745POPC   C4B 9034  16.136  10.402   7.650
 3746POPC   NC3 9035   4.322  32.289   9.450
 3746POPC   PO4 9036   4.301  32.204   9.150
 3746POPC   GL1 9037   4.306  32.279   8.850
 3746POPC   GL2 9038   4.382  32.337   8.850
 3746POPC   C1A 9039   4.366  32.217   8.550
 3746POPC   D2A 9040   4.289  32.254   8.250
 3746POPC   C3A 9041   4.290  32.280   7.950
 3746POPC   C4A 9042   4.302  32.214   7.650
 3746POPC   C1B 9043   4.321  32.446   8.550
 3746POPC   C2B 9044   4.351  32.476   8.250
 3746POPC   C3B 9045   4.360  32.484   7.950
 3746POPC   C4B 9046   4.340  32.518   7.650
 3747POPC   NC3 9047  33.779  10.537   9.450
 3747POPC   PO4 9048  33.839  10.566   9.150
 3747POPC   GL1 9049  33.830  10.547   8.850
 3747POPC   GL2 9050  33.704  10.624   8.850
 3747POPC   C1A 9051  33.811  10.496   8.550
 3747POPC   D2A 9052  33.822  10.484   8.250
 3747POPC   C3A 9053  33.763  10.573   7.950
 3747POPC   C4A 9054  33.819  10.501   7.650
 3747POPC   C1B 9055  33.600  10.575   8.550
 3747POPC   C2B 9056  33.607  10.661   8.250
 3747POPC   C3B 9057  33.572  10.621   7.950
 3747POPC   C4B 9058  33.595  10.599   7.650
 3748POPC   NC3 9059  10.537  16.692   9.450
 3748POPC   PO4 9060  10.494  16.714   9.150
 3748POPC   GL1 9061  10.572  16.781   8.850
 3748POPC   GL2 9062  10.598  16.613   8.850
 3748POPC   C1A 9063  10.507  16.721   8.550
 3748POPC   D2A 9064  10.505  16.708   8.250
 3748POPC   C3A 9065  10.564  16.770   7.950
 3748POPC   C4A 9066  10.527  16.770   7.650
 3748POPC   C1B 9067  10.608  16.512   8.550
 3748POPC   C2B 9068  10.663  16.502   8.250
 3748POPC   C3B 9069  10.635  16.535   7.950
 3748POPC   C4B 9070  10.595  16.523   7.650
 3749POPC   NC3 9071  15.151  22.977   9.450
 3749POPC   PO4 9072  15.141  22.966   9.150
 3749POPC   GL1 9073  15.165  22.934   8.850
 3749POPC   GL2 9074  15.213  23.077   8.850
 3749POPC   C1A 9075  15.140  22.938   8.550
 3749POPC   D2A 9076  15.214  22.971   8.250
 3749POPC   C3A 9077  15.189  22.895   7.950
 3749POPC   C4A 9078  15.142  22.960   7.650
 3749POPC   C1B 9079  15.185  23.190   8.550
 3749POPC   C2B 9080  15.210  23.182   8.250
 3749POPC   C3B 9081  15.199  23.213   7.950
 3749POPC   C4B 9082  15.236  23.181   7.650
 3750POPC   NC3 9083  25.229  31.481   9.450
 3750POPC   PO4 9084  25.282  31.495   9.150
 3750POPC   GL1 9085  25.310  31.451   8.850
 3750POPC   GL2 9086  25.133  31.339   8.850
 3750POPC   C1A 9087  25.289  31.428   8.550
 3750POPC   D2A 9088  25.300  31.452   8.250
 3750POPC   C3A 9089  25.237  31.481   7.950
 3750POPC   C4A 9090  25.247  31.462   7.650
 3750POPC   C1B 9091  25.050  31.291   8.550
 3750POPC   C2B 9092  25.082  31.319   8.250
 3750POPC   C3B 9093  25.138  31.247   7.950
 3750POPC   C4B 9094  25.133  31.244   7.650
 3751POPC   NC3 9095   6.675   8.184   9.450
 3751POPC   PO4 9096   6.660   8.217   9.150
 3751POPC   GL1 9097   6.595   8.161   8.850
 3751POPC   GL2 9098   6.761   8.205   8.850
 3751POPC   C1A 9099   6.651   8.218   8.550
 3751POPC   D2A 9100   6.657   8.183   8.250
 3751POPC   C3A 9101   6.605   8.214   7.950
 3751POPC   C4A 9102   6.689   8.207   7.650
 3751POPC   C1B 9103   6.837   8.256   8.550
 3751POPC   C2B 9104   6.898   8.334   8.250
 3751POPC   C3B 9105   6.828   8.273   7.950
 3751POPC   C4B 9106   6.829   8.300   7.650
 3752POPC   NC3 9107  38.469  19.787   9.450
 3752POPC   PO4 9108  38.493  19.859   9.150
 3752POPC   GL1 9109  38.445  19.830   8.850
 3752POPC   GL2 9110  38.569  19.830   8.850
 3752POPC   C1A 9111  38.461  19.809   8.550
 3752POPC   D2A 9112  38.497  19.825   8.250
 3752POPC   C3A 9113  38.463  19.791   7.950
 3752POPC   C4A 9114  38.483  19.864   7.650
 3752POPC   C1B 9115  38.697  19.832   8.550
 3752POPC   C2B 9116  38.733  19.767   8.250
 3752POPC   C3B 9117  38.659  19.825   7.950
 3752POPC   C4B 9118  38.658  19.793   7.650
 3753POPC   NC3 9119  32.232  24.445   9.450
 3753POPC   PO4 9120  32.238  24.538   9.150
 3753POPC   GL1 9121  32.279  24.486   8.850
 3753POPC   GL2 9122  32.159  24.492   8.850
 3753POPC   C1A 9123  32.275  24.495   8.550
 3753POPC   D2A 9124  32.209  24.486   8.250
 3753POPC   C3A 9125  32.204  24.449   7.950
 3753POPC   C4A 9126  32.278  24.474   7.650
 3753POPC   C1B 9127  32.024  24.520   8.550
 3753POPC   C2B 9128  32.017  24.486   8.250
 3753POPC   C3B 9129  32.021  24.480   7.950
 3753POPC   C4B 9130  31.993  24.547   7.650
 3754POPC   NC3 9131  26.773  29.921   9.450
 3754POPC   PO4 9132  26.775  29.891   9.150
 3754POPC   GL1 9133  26.773  29.881   8.850
 3754POPC   GL2 9134  26.677  29.910   8.850
 3754POPC   C1A 9135  26.859  29.958   8.550
 3754POPC   D2A 9136  26.821  29.939   8.250
 3754POPC   C3A 9137  26.778  29.928   7.950
 3754POPC   C4A 9138  26.783  29.875   7.650
 3754POPC   C1B 9139  26.609  30.005   8.550
 3754POPC   C2B 9140  26.606  29.995   8.250
 3754POPC   C3B 9141  26.604  29.940   7.950
 3754POPC   C4B 9142  26.541  30.031   7.650
 3755POPC   NC3 9143  14.428   0.408   9.450
 3755POPC   PO4 9144  14.394   0.418   9.150
 3755POPC   GL1 9145  14.433   0.420   8.850
 3755POPC   GL2 9146  14.446   0.289   8.850
 3755POPC   C1A 9147  14.384   0.475   8.550
 3755POPC   D2A 9148  14.381   0.396   8.250
 3755POPC   C3A 9149  14.390   0.477   7.950
 3755POPC   C4A 9150  14.428   0.405   7.650
 3755POPC   C1B 9151  14.552   0.183   8.550
 3755POPC   C2B 9152  14.539   0.210   8.250
 3755POPC   C3B 9153  14.555   0.180   7.950
 3755POPC   C4B 9154  14.487   0.224   7.650
 3756POPC   NC3 9155  43.061  25.271   9.450
 3756POPC   PO4 9156  43.075  25.247   9.150
 3756POPC   GL1 9157  43.067  25.289   8.850
 3756POPC   GL2 9158  43.022  25.177   8.850
 3756POPC   C1A 9159  43.077  25.258   8.550
 3756POPC   D2A 9160  43.157  25.314   8.250
 3756POPC   C3A 9161  43.160  25.242   7.950
 3756POPC   C4A 9162  43.066  25.257   7.650
 3756POPC   C1B 9163  42.859  25.092   8.550
 3756POPC   C2B 9164  42.901  25.144   8.250
 3756POPC   C3B 9165  42.853  25.080   7.950
 3756POPC   C4B 9166  42.856  25.086   7.650
 3757POPC   NC3 9167  35.346  29.914   9.450
 3757POPC   PO4 9168  35.344  29.873   9.150
 3757POPC   GL1 9169  35.341  29.891   8.850
 3757POPC   GL2 9170  35.231  29.954   8.850
 3757POPC   C1A 9171  35.354  29.965   8.550
 3757POPC   D2A 9172  35.386  29.909   8.250
 3757POPC   C3A 9173  35.400  29.922   7.950
 3757POPC   C4A 9174  35.331  29.910   7.650
 3757POPC   C1B 9175  35.114  30.070   8.550
 3757POPC   C2B 9176  35.087  30.007   8.250
 3757POPC   C3B 9177  35.165  30.020   7.950
 3757POPC   C4B 9178  35.101  30.044   7.650
 3758POPC   NC3 9179  32.261   2.745   9.450
 3758POPC   PO4 9180  32.247   2.764   9.150
 3758POPC   GL1 9181  32.217   2.747   8.850
 3758POPC   GL2 9182  32.081   2.801   8.850
 3758POPC   C1A 9183  32.261   2.726   8.550
 3758POPC   D2A 9184  32.208   2.815   8.250
 3758POPC   C3A 9185  32.295   2.725   7.950
 3758POPC   C4A 9186  32.259   2.767   7.650
 3758POPC   C1B 9187  32.008   2.848   8.550
 3758POPC   C2B 9188  32.039   2.805   8.250
 3758POPC   C3B 9189  32.036   2.850   7.950
 3758POPC   C4B 9190  32.060   2.816   7.650
 3759POPC   NC3 9191  22.936  30.696   9.450
 3759POPC   PO4 9192  22.918  30.694   9.150
 3759POPC   GL1 9193  22.937  30.647   8.850
 3759POPC   GL2 9194  22.882  30.558   8.850
 3759POPC   C1A 9195  22.952  30.732   8.550
 3759POPC   D2A 9196  22.899  30.729   8.250
 3759POPC   C3A 9197  22.927  30.659   7.950
 3759POPC   C4A 9198  22.958  30.714   7.650
 3759POPC   C1B 9199  22.865  30.464   8.550
 3759POPC   C2B 9200  22.850  30.485   8.250
 3759POPC   C3B 9201  22.808  30.501   7.950
 3759POPC   C4B 9202  22.793  30.430   7.650
 3760POPC   NC3 9203   2.798   7.464   9.450
 3760POPC   PO4 9204   2.773   7.419   9.150
 3760POPC   GL1 9205   2.766   7.459   8.850
 3760POPC   GL2 9206   2.678   7.316   8.850
 3760POPC   C1A 9207   2.731   7.383   8.550
 3760POPC   D2A 9208   2.789   7.379   8.250
 3760POPC   C3A 9209   2.743   7.418   7.950
 3760POPC   C4A 9210   2.728   7.381   7.650
 3760POPC   C1B 9211   2.528   7.315   8.550
 3760POPC   C2B 9212   2.521   7.254   8.250
 3760POPC   C3B 9213   2.511   7.255   7.950
 3760POPC   C4B 9214   2.556   7.272   7.650
 3761POPC   NC3 9215  26.024  16.775   9.450
 3761POPC   PO4 9216  26.056  16.700   9.150
 3761POPC   GL1 9217  26.078  16.765   8.850
 3761POPC   GL2 9218  26.024  16.582   8.850
 3761POPC   C1A 9219  26.052  16.778   8.550
 3761POPC   D2A 9220  26.074  16.759   8.250
 3761POPC   C3A 9221  26.084  16.740   7.950
 3761POPC   C4A 9222  26.083  16.770   7.650
 3761POPC   C1B 9223  26.065  16.476   8.550
 3761POPC   C2B 9224  26.019  16.444   8.250
 3761POPC   C3B 9225  25.977  16.484   7.950
 3761POPC   C4B 9226  26.024  16.487   7.650
 3762POPC   NC3 9227  43.882  15.936   9.450
 3762POPC   PO4 9228  43.861  15.915   9.150
 3762POPC   GL1 9229  43.933  15.987   8.850
 3762POPC   GL2 9230  43.754  15.944   8.850
 3762POPC   C1A 9231  43.907  15.950   8.550
 3762POPC   D2A 9232  43.898  15.982   8.250
 3762POPC   C3A 9233  43.898  15.924   7.950
 3762POPC   C4A 9234  43.855  15.912   7.650
 3762POPC   C1B 9235  43.641  15.809   8.550
 3762POPC   C2B 9236  43.685  15.814   8.250
 3762POPC   C3B 9237  43.673  15.826   7.950
 3762POPC   C4B 9238  43.674  15.833   7.650
 3763POPC   NC3 9239   1.176  22.970   9.450
 3763POPC   PO4 9240   1.256  22.908   9.150
 3763POPC   GL1 9241   1.185  22.974   8.850
 3763POPC   GL2 9242   1.276  23.068   8.850
 3763POPC   C1A 9243   1.223  22.960   8.550
 3763POPC   D2A 9244   1.203  22.931   8.250
 3763POPC   C3A 9245   1.173  22.960   7.950
 3763POPC   C4A 9246   1.219  22.907   7.650
 3763POPC   C1B 9247   1.410  23.151   8.550
 3763POPC   C2B 9248   1.405  23.098   8.250
 3763POPC   C3B 9249   1.366  23.100   7.950
 3763POPC   C4B 9250   1.422  23.107   7.650
 3764POPC   NC3 9251  36.865  42.340   9.450
 3764POPC   PO4 9252  36.934  42.287   9.150
 3764POPC   GL1 9253  36.920  42.316   8.850
 3764POPC   GL2 9254  36.907  42.410   8.850
 3764POPC   C1A 9255  36.892  42.383   8.550
 3764POPC   D2A 9256  36.896  42.331   8.250
 3764POPC   C3A 9257  36.914  42.338   7.950
 3764POPC   C4A 9258  36.879  42.317   7.650
 3764POPC   C1B 9259  37.002  42.522   8.550
 3764POPC   C2B 9260  36.958  42.540   8.250
 3764POPC   C3B 9261  37.014  42.526   7.950
 3764POPC   C4B 9262  37.014  42.524   7.650
 3765POPC   NC3 9263   1.980  41.519   9.450
 3765POPC   PO4 9264   2.014  41.578   9.150
 3765POPC   GL1 9265   2.032  41.571   8.850
 3765POPC   GL2 9266   2.061  41.602   8.850
 3765POPC   C1A 9267   2.019  41.599   8.550
 3765POPC   D2A 9268   1.997  41.511   8.250
 3765POPC   C3A 9269   2.014  41.538   7.950
 3765POPC   C4A 9270   2.004  41.575   7.650
 3765POPC   C1B 9271   2.203  41.638   8.550
 3765POPC   C2B 9272   2.220  41.660   8.250
 3765POPC   C3B 9273   2.191  41.671   7.950
 3765POPC   C4B 9274   2.193  41.732   7.650
 3766POPC   NC3 9275  29.113  18.270   9.450
 3766POPC   PO4 9276  29.182  18.294   9.150
 3766POPC   GL1 9277  29.176  18.240   8.850
 3766POPC   GL2 9278  29.231  18.197   8.850
 3766POPC   C1A 9279  29.191  18.322   8.550
 3766POPC   D2A 9280  29.130  18.295   8.250
 3766POPC   C3A 9281  29.181  18.277   7.950
 3766POPC   C4A 9282  29.095  18.253   7.650
 3766POPC   C1B 9283  29.234  18.047   8.550
 3766POPC   C2B 9284  29.188  18.069   8.250
 3766POPC   C3B 9285  29.233  18.044   7.950
 3766POPC   C4B 9286  29.225  18.072   7.650
 3767POPC   NC3 9287  44.675  37.632   9.450
 3767POPC   PO4 9288  44.642  37.654   9.150
 3767POPC   GL1 9289  44.669  37.683   8.850
 3767POPC   GL2 9290  44.673  37.777   8.850
 3767POPC   C1A 9291  44.648  37.646   8.550
 3767POPC   D2A 9292  44.616  37.727   8.250
 3767POPC   C3A 9293  44.619  37.692   7.950
 3767POPC   C4A 9294  44.633  37.670   7.650
 3767POPC   C1B 9295  44.815  37.868   8.550
 3767POPC   C2B 9296  44.734  37.905   8.250
 3767POPC   C3B 9297  44.813  37.901   7.950
 3767POPC   C4B 9298  44.806  37.898   7.650
 3768POPC   NC3 9299  19.015  20.589   9.450
 3768POPC   PO4 9300  19.046  20.616   9.150
 3768POPC   GL1 9301  19.018  20.569   8.850
 3768POPC   GL2 9302  18.920  20.637   8.850
 3768POPC   C1A 9303  19.021  20.622   8.550
 3768POPC   D2A 9304  19.022  20.600   8.250
 3768POPC   C3A 9305  19.043  20.570   7.950
 3768POPC   C4A 9306  19.067  20.608   7.650
 3768POPC   C1B 9307  18.785  20.636   8.550
 3768POPC   C2B 9308  18.784  20.612   8.250
 3768POPC   C3B 9309  18.791  20.594   7.950
 3768POPC   C4B 9310  18.790  20.624   7.650
 3769POPC   NC3 9311  29.887   5.109   9.450
 3769POPC   PO4 9312  29.938   5.079   9.150
 3769POPC   GL1 9313  29.889   5.065   8.850
 3769POPC   GL2 9314  30.049   5.128   8.850
 3769POPC   C1A 9315  29.907   5.118   8.550
 3769POPC   D2A 9316  29.965   5.121   8.250
 3769POPC   C3A 9317  29.907   5.132   7.950
 3769POPC   C4A 9318  29.960   5.124   7.650
 3769POPC   C1B 9319  30.145   5.128   8.550
 3769POPC   C2B 9320  30.210   5.076   8.250
 3769POPC   C3B 9321  30.139   5.086   7.950
 3769POPC   C4B 9322  30.130   5.117   7.650
 3770POPC   NC3 9323  10.490  31.506   9.450
 3770POPC   PO4 9324  10.517  31.426   9.150
 3770POPC   GL1 9325  10.504  31.455   8.850
 3770POPC   GL2 9326  10.419  31.421   8.850
 3770POPC   C1A 9327  10.507  31.464   8.550
 3770POPC   D2A 9328  10.518  31.506   8.250
 3770POPC   C3A 9329  10.533  31.433   7.950
 3770POPC   C4A 9330  10.552  31.479   7.650
 3770POPC   C1B 9331  10.235  31.408   8.550
 3770POPC   C2B 9332  10.291  31.415   8.250
 3770POPC   C3B 9333  10.267  31.438   7.950
 3770POPC   C4B 9334  10.278  31.479   7.650
 3771POPC   NC3 9335  37.718  43.092   9.450
 3771POPC   PO4 9336  37.667  43.136   9.150
 3771POPC   GL1 9337  37.660  43.079   8.850
 3771POPC   GL2 9338  37.806  43.076   8.850
 3771POPC   C1A 9339  37.631  43.072   8.550
 3771POPC   D2A 9340  37.688  43.139   8.250
 3771POPC   C3A 9341  37.632  43.130   7.950
 3771POPC   C4A 9342  37.663  43.071   7.650
 3771POPC   C1B 9343  37.880  42.997   8.550
 3771POPC   C2B 9344  37.955  43.035   8.250
 3771POPC   C3B 9345  37.951  43.052   7.950
 3771POPC   C4B 9346  37.921  43.043   7.650
 3772POPC   NC3 9347  33.787  33.830   9.450
 3772POPC   PO4 9348  33.798  33.806   9.150
 3772POPC   GL1 9349  33.821  33.848   8.850
 3772POPC   GL2 9350  33.745  33.653   8.850
 3772POPC   C1A 9351  33.804  33.798   8.550
 3772POPC   D2A 9352  33.816  33.766   8.250
 3772POPC   C3A 9353  33.763  33.831   7.950
 3772POPC   C4A 9354  33.761  33.753   7.650
 3772POPC   C1B 9355  33.786  33.592   8.550
 3772POPC   C2B 9356  33.749  33.558   8.250
 3772POPC   C3B 9357  33.800  33.588   7.950
 3772POPC   C4B 9358  33.742  33.537   7.650
 3773POPC   NC3 9359  15.941   9.786   9.450
 3773POPC   PO4 9360  15.953   9.787   9.150
 3773POPC   GL1 9361  15.998   9.746   8.850
 3773POPC   GL2 9362  16.050   9.746   8.850
 3773POPC   C1A 9363  15.946   9.707   8.550
 3773POPC   D2A 9364  15.951   9.774   8.250
 3773POPC   C3A 9365  15.961   9.763   7.950
 3773POPC   C4A 9366  15.955   9.767   7.650
 3773POPC   C1B 9367  16.165   9.801   8.550
 3773POPC   C2B 9368  16.145   9.781   8.250
 3773POPC   C3B 9369  16.240   9.878   7.950
 3773POPC   C4B 9370  16.205   9.794   7.650
 3774POPC   NC3 9371   2.014  19.827   9.450
 3774POPC   PO4 9372   2.036  19.849   9.150
 3774POPC   GL1 9373   2.018  19.807   8.850
 3774POPC   GL2 9374   1.922  19.708   8.850
 3774POPC   C1A 9375   2.010  19.797   8.550
 3774POPC   D2A 9376   1.981  19.790   8.250
 3774POPC   C3A 9377   1.940  19.863   7.950
 3774POPC   C4A 9378   1.995  19.875   7.650
 3774POPC   C1B 9379   1.962  19.568   8.550
 3774POPC   C2B 9380   1.888  19.631   8.250
 3774POPC   C3B 9381   1.877  19.617   7.950
 3774POPC   C4B 9382   1.940  19.620   7.650
 3775POPC   NC3 9383  35.315  41.544   9.450
 3775POPC   PO4 9384  35.369  41.554   9.150
 3775POPC   GL1 9385  35.352  41.540   8.850
 3775POPC   GL2 9386  35.297  41.612   8.850
 3775POPC   C1A 9387  35.337  41.540   8.550
 3775POPC   D2A 9388  35.375  41.524   8.250
 3775POPC   C3A 9389  35.396  41.524   7.950
 3775POPC   C4A 9390  35.335  41.587   7.650
 3775POPC   C1B 9391  35.121  41.717   8.550
 3775POPC   C2B 9392  35.157  41.686   8.250
 3775POPC   C3B 9393  35.157  41.671   7.950
 3775POPC   C4B 9394  35.152  41.685   7.650
 3776POPC   NC3 9395  32.205  31.520   9.450
 3776POPC   PO4 9396  32.217  31.480   9.150
 3776POPC   GL1 9397  32.247  31.519   8.850
 3776POPC   GL2 9398  32.158  31.419   8.850
 3776POPC   C1A 9399  32.201  31.502   8.550
 3776POPC   D2A 9400  32.212  31.492   8.250
 3776POPC   C3A 9401  32.294  31.495   7.950
 3776POPC   C4A 9402  32.232  31.457   7.650
 3776POPC   C1B 9403  32.029  31.409   8.550
 3776POPC   C2B 9404  32.065  31.428   8.250
 3776POPC   C3B 9405  32.024  31.339   7.950
 3776POPC   C4B 9406  32.052  31.414   7.650
 3777POPC   NC3 9407  40.764  23.720   9.450
 3777POPC   PO4 9408  40.741  23.749   9.150
 3777POPC   GL1 9409  40.818  23.669   8.850
 3777POPC   GL2 9410  40.727  23.802   8.850
 3777POPC   C1A 9411  40.809  23.707   8.550
 3777POPC   D2A 9412  40.799  23.762   8.250
 3777POPC   C3A 9413  40.823  23.759   7.950
 3777POPC   C4A 9414  40.826  23.713   7.650
 3777POPC   C1B 9415  40.723  23.906   8.550
 3777POPC   C2B 9416  40.691  23.962   8.250
 3777POPC   C3B 9417  40.699  23.999   7.950
 3777POPC   C4B 9418  40.674  23.930   7.650
 3778POPC   NC3 9419   0.469   2.014   9.450
 3778POPC   PO4 9420   0.438   2.039   9.150
 3778POPC   GL1 9421   0.460   2.014   8.850
 3778POPC   GL2 9422   0.516   1.994   8.850
 3778POPC   C1A 9423   0.412   1.964   8.550
 3778POPC   D2A 9424   0.450   2.004   8.250
 3778POPC   C3A 9425   0.454   1.941   7.950
 3778POPC   C4A 9426   0.459   2.038   7.650
 3778POPC   C1B 9427   0.721   2.037   8.550
 3778POPC   C2B 9428   0.689   2.017   8.250
 3778POPC   C3B 9429   0.733   1.956   7.950
 3778POPC   C4B 9430   0.694   2.040   7.650
 3779POPC   NC3 9431  11.261  15.146   9.450
 3779POPC   PO4 9432  11.309  15.224   9.150
 3779POPC   GL1 9433  11.309  15.171   8.850
 3779POPC   GL2 9434  11.380  15.300   8.850
 3779POPC   C1A 9435  11.330  15.226   8.550
 3779POPC   D2A 9436  11.312  15.220   8.250
 3779POPC   C3A 9437  11.280  15.213   7.950
 3779POPC   C4A 9438  11.254  15.164   7.650
 3779POPC   C1B 9439  11.459  15.425   8.550
 3779POPC   C2B 9440  11.457  15.434   8.250
 3779POPC   C3B 9441  11.467  15.365   7.950
 3779POPC   C4B 9442  11.469  15.426   7.650
 3780POPC   NC3 9443   5.071  26.030   9.450
 3780POPC   PO4 9444   5.076  26.081   9.150
 3780POPC   GL1 9445   5.122  26.042   8.850
 3780POPC   GL2 9446   5.005  26.099   8.850
 3780POPC   C1A 9447   5.083  26.079   8.550
 3780POPC   D2A 9448   5.068  26.054   8.250
 3780POPC   C3A 9449   5.052  26.075   7.950
 3780POPC   C4A 9450   5.116  26.021   7.650
 3780POPC   C1B 9451   4.860  26.144   8.550
 3780POPC   C2B 9452   4.867  26.175   8.250
 3780POPC   C3B 9453   4.841  26.137   7.950
 3780POPC   C4B 9454   4.890  26.099   7.650
 3781POPC   NC3 9455  42.367  24.518   9.450
 3781POPC   PO4 9456  42.293  24.448   9.150
 3781POPC   GL1 9457  42.303  24.516   8.850
 3781POPC   GL2 9458  42.240  24.440   8.850
 3781POPC   C1A 9459  42.294  24.507   8.550
 3781POPC   D2A 9460  42.352  24.488   8.250
 3781POPC   C3A 9461  42.305  24.504   7.950
 3781POPC   C4A 9462  42.374  24.508   7.650
 3781POPC   C1B 9463  42.212  24.320   8.550
 3781POPC   C2B 9464  42.155  24.284   8.250
 3781POPC   C3B 9465  42.200  24.265   7.950
 3781POPC   C4B 9466  42.189  24.254   7.650
 3782POPC   NC3 9467   9.717  19.028   9.450
 3782POPC   PO4 9468   9.729  19.021   9.150
 3782POPC   GL1 9469   9.728  19.034   8.850
 3782POPC   GL2 9470   9.731  19.134   8.850
 3782POPC   C1A 9471   9.715  19.037   8.550
 3782POPC   D2A 9472   9.719  19.049   8.250
 3782POPC   C3A 9473   9.787  19.097   7.950
 3782POPC   C4A 9474   9.707  19.060   7.650
 3782POPC   C1B 9475   9.728  19.287   8.550
 3782POPC   C2B 9476   9.725  19.345   8.250
 3782POPC   C3B 9477   9.721  19.292   7.950
 3782POPC   C4B 9478   9.768  19.337   7.650
 3783POPC   NC3 9479   5.053  26.841   9.450
 3783POPC   PO4 9480   5.139  26.830   9.150
 3783POPC   GL1 9481   5.108  26.842   8.850
 3783POPC   GL2 9482   5.017  26.694   8.850
 3783POPC   C1A 9483   5.068  26.834   8.550
 3783POPC   D2A 9484   5.125  26.852   8.250
 3783POPC   C3A 9485   5.133  26.794   7.950
 3783POPC   C4A 9486   5.142  26.777   7.650
 3783POPC   C1B 9487   4.951  26.645   8.550
 3783POPC   C2B 9488   4.881  26.682   8.250
 3783POPC   C3B 9489   4.935  26.616   7.950
 3783POPC   C4B 9490   4.871  26.610   7.650
 3784POPC   NC3 9491  29.892   5.863   9.450
 3784POPC   PO4 9492  29.902   5.869   9.150
 3784POPC   GL1 9493  29.957   5.835   8.850
 3784POPC   GL2 9494  29.772   5.938   8.850
 3784POPC   C1A 9495  29.888   5.904   8.550
 3784POPC   D2A 9496  29.926   5.884   8.250
 3784POPC   C3A 9497  29.915   5.842   7.950
 3784POPC   C4A 9498  29.927   5.907   7.650
 3784POPC   C1B 9499  29.653   5.995   8.550
 3784POPC   C2B 9500  29.715   5.947   8.250
 3784POPC   C3B 9501  29.702   5.942   7.950
 3784POPC   C4B 9502  29.691   5.968   7.650
 3785POPC   NC3 9503  29.183  26.059   9.450
 3785POPC   PO4 9504  29.147  26.062   9.150
 3785POPC   GL1 9505  29.186  26.052   8.850
 3785POPC   GL2 9506  29.135  26.155   8.850
 3785POPC   C1A 9507  29.096  26.046   8.550
 3785POPC   D2A 9508  29.134  26.015   8.250
 3785POPC   C3A 9509  29.103  26.066   7.950
 3785POPC   C4A 9510  29.134  26.013   7.650
 3785POPC   C1B 9511  29.094  26.264   8.550
 3785POPC   C2B 9512  29.042  26.311   8.250
 3785POPC   C3B 9513  29.096  26.250   7.950
 3785POPC   C4B 9514  29.083  26.310   7.650
 3786POPC   NC3 9515   9.735  39.230   9.450
 3786POPC   PO4 9516   9.731  39.226   9.150
 3786POPC   GL1 9517   9.724  39.234   8.850
 3786POPC   GL2 9518   9.857  39.318   8.850
 3786POPC   C1A 9519   9.720  39.240   8.550
 3786POPC   D2A 9520   9.741  39.251   8.250
 3786POPC   C3A 9521   9.746  39.275   7.950
 3786POPC   C4A 9522   9.705  39.186   7.650
 3786POPC   C1B 9523   9.959  39.392   8.550
 3786POPC   C2B 9524   9.987  39.379   8.250
 3786POPC   C3B 9525   9.948  39.358   7.950
 3786POPC   C4B 9526   9.970  39.386   7.650
 3787POPC   NC3 9527  43.892  36.122   9.450
 3787POPC   PO4 9528  43.922  36.082   9.150
 3787POPC   GL1 9529  43.875  36.114   8.850
 3787POPC   GL2 9530  43.949  36.235   8.850
 3787POPC   C1A 9531  43.891  36.105   8.550
 3787POPC   D2A 9532  43.917  36.083   8.250
 3787POPC   C3A 9533  43.841  36.148   7.950
 3787POPC   C4A 9534  43.902  36.151   7.650
 3787POPC   C1B 9535  43.865  36.401   8.550
 3787POPC   C2B 9536  43.907  36.418   8.250
 3787POPC   C3B 9537  43.944  36.391   7.950
 3787POPC   C4B 9538  43.908  36.357   7.650
 3788POPC   NC3 9539   2.775   2.029   9.450
 3788POPC   PO4 9540   2.757   2.028   9.150
 3788POPC   GL1 9541   2.720   1.953   8.850
 3788POPC   GL2 9542   2.839   2.129   8.850
 3788POPC   C1A 9543   2.758   2.014   8.550
 3788POPC   D2A 9544   2.814   2.006   8.250
 3788POPC   C3A 9545   2.776   1.953   7.950
 3788POPC   C4A 9546   2.791   2.001   7.650
 3788POPC   C1B 9547   2.833   2.187   8.550
 3788POPC   C2B 9548   2.866   2.253   8.250
 3788POPC   C3B 9549   2.864   2.249   7.950
 3788POPC   C4B 9550   2.884   2.191   7.650
 3789POPC   NC3 9551  34.600  13.602   9.450
 3789POPC   PO4 9552  34.566  13.625   9.150
 3789POPC   GL1 9553  34.584  13.594   8.850
 3789POPC   GL2 9554  34.595  13.771   8.850
 3789POPC   C1A 9555  34.584  13.629   8.550
 3789POPC   D2A 9556  34.602  13.664   8.250
 3789POPC   C3A 9557  34.552  13.635   7.950
 3789POPC   C4A 9558  34.540  13.677   7.650
 3789POPC   C1B 9559  34.523  13.884   8.550
 3789POPC   C2B 9560  34.518  13.872   8.250
 3789POPC   C3B 9561  34.586  13.892   7.950
 3789POPC   C4B 9562  34.575  13.830   7.650
 3790POPC   NC3 9563  12.826  11.341   9.450
 3790POPC   PO4 9564  12.804  11.325   9.150
 3790POPC   GL1 9565  12.808  11.334   8.850
 3790POPC   GL2 9566  13.009  11.319   8.850
 3790POPC   C1A 9567  12.868  11.344   8.550
 3790POPC   D2A 9568  12.845  11.340   8.250
 3790POPC   C3A 9569  12.825  11.278   7.950
 3790POPC   C4A 9570  12.839  11.291   7.650
 3790POPC   C1B 9571  13.114  11.290   8.550
 3790POPC   C2B 9572  13.108  11.277   8.250
 3790POPC   C3B 9573  13.126  11.302   7.950
 3790POPC   C4B 9574  13.131  11.310   7.650
 3791POPC   NC3 9575  25.302   4.287   9.450
 3791POPC   PO4 9576  25.272   4.299   9.150
 3791POPC   GL1 9577  25.288   4.342   8.850
 3791POPC   GL2 9578  25.119   4.308   8.850
 3791POPC   C1A 9579  25.234   4.296   8.550
 3791POPC   D2A 9580  25.292   4.357   8.250
 3791POPC   C3A 9581  25.303   4.350   7.950
 3791POPC   C4A 9582  25.216   4.292   7.650
 3791POPC   C1B 9583  25.040   4.350   8.550
 3791POPC   C2B 9584  24.967   4.356   8.250
 3791POPC   C3B 9585  25.008   4.311   7.950
 3791POPC   C4B 9586  25.017   4.273   7.650
 3792POPC   NC3 9587  12.028  24.514   9.450
 3792POPC   PO4 9588  12.032  24.478   9.150
 3792POPC   GL1 9589  12.056  24.471   8.850
 3792POPC   GL2 9590  12.223  24.450   8.850
 3792POPC   C1A 9591  12.113  24.442   8.550
 3792POPC   D2A 9592  12.082  24.537   8.250
 3792POPC   C3A 9593  12.117  24.523   7.950
 3792POPC   C4A 9594  12.117  24.497   7.650
 3792POPC   C1B 9595  12.356  24.469   8.550
 3792POPC   C2B 9596  12.334  24.436   8.250
 3792POPC   C3B 9597  12.371  24.513   7.950
 3792POPC   C4B 9598  12.330  24.507   7.650
 3793POPC   NC3 9599   8.225  21.430   9.450
 3793POPC   PO4 9600   8.201  21.377   9.150
 3793POPC   GL1 9601   8.157  21.436   8.850
 3793POPC   GL2 9602   8.330  21.333   8.850
 3793POPC   C1A 9603   8.162  21.343   8.550
 3793POPC   D2A 9604   8.148  21.415   8.250
 3793POPC   C3A 9605   8.190  21.406   7.950
 3793POPC   C4A 9606   8.222  21.375   7.650
 3793POPC   C1B 9607   8.442  21.220   8.550
 3793POPC   C2B 9608   8.393  21.227   8.250
 3793POPC   C3B 9609   8.385  21.263   7.950
 3793POPC   C4B 9610   8.459  21.235   7.650
 3794POPC   NC3 9611  11.260   8.158   9.450
 3794POPC   PO4 9612  11.332   8.160   9.150
 3794POPC   GL1 9613  11.282   8.230   8.850
 3794POPC   GL2 9614  11.399   8.131   8.850
 3794POPC   C1A 9615  11.344   8.216   8.550
 3794POPC   D2A 9616  11.315   8.190   8.250
 3794POPC   C3A 9617  11.327   8.155   7.950
 3794POPC   C4A 9618  11.348   8.218   7.650
 3794POPC   C1B 9619  11.457   8.038   8.550
 3794POPC   C2B 9620  11.483   8.085   8.250
 3794POPC   C3B 9621  11.523   8.008   7.950
 3794POPC   C4B 9622  11.546   8.094   7.650
 3795POPC   NC3 9623  41.517   1.230   9.450
 3795POPC   PO4 9624  41.568   1.260   9.150
 3795POPC   GL1 9625  41.533   1.199   8.850
 3795POPC   GL2 9626  41.681   1.334   8.850
 3795POPC   C1A 9627  41.514   1.181   8.550
 3795POPC   D2A 9628  41.574   1.245   8.250
 3795POPC   C3A 9629  41.566   1.181   7.950
 3795POPC   C4A 9630  41.593   1.220   7.650
 3795POPC   C1B 9631  41.799   1.368   8.550
 3795POPC   C2B 9632  41.796   1.418   8.250
 3795POPC   C3B 9633  41.743   1.411   7.950
 3795POPC   C4B 9634  41.718   1.352   7.650
 3796POPC   NC3 9635  18.257   4.339   9.450
 3796POPC   PO4 9636  18.312   4.285   9.150
 3796POPC   GL1 9637  18.298   4.295   8.850
 3796POPC   GL2 9638  18.113   4.327   8.850
 3796POPC   C1A 9639  18.309   4.292   8.550
 3796POPC   D2A 9640  18.297   4.328   8.250
 3796POPC   C3A 9641  18.271   4.275   7.950
 3796POPC   C4A 9642  18.271   4.325   7.650
 3796POPC   C1B 9643  17.991   4.312   8.550
 3796POPC   C2B 9644  18.030   4.390   8.250
 3796POPC   C3B 9645  18.040   4.312   7.950
 3796POPC   C4B 9646  18.017   4.341   7.650
 3797POPC   NC3 9647  16.000  15.986   9.450
 3797POPC   PO4 9648  15.948  15.938   9.150
 3797POPC   GL1 9649  15.945  15.932   8.850
 3797POPC   GL2 9650  16.035  15.823   8.850
 3797POPC   C1A 9651  15.960  15.911   8.550
 3797POPC   D2A 9652  15.969  15.998   8.250
 3797POPC   C3A 9653  15.990  15.965   7.950
 3797POPC   C4A 9654  15.938  15.965   7.650
 3797POPC   C1B 9655  16.071  15.734   8.550
 3797POPC   C2B 9656  16.126  15.782   8.250
 3797POPC   C3B 9657  16.109  15.734   7.950
 3797POPC   C4B 9658  16.138  15.807   7.650
 3798POPC   NC3 9659   9.734  13.620   9.450
 3798POPC   PO4 9660   9.779  13.604   9.150
 3798POPC   GL1 9661   9.708  13.598   8.850
 3798POPC   GL2 9662   9.784  13.772   8.850
 3798POPC   C1A 9663   9.720  13.604   8.550
 3798POPC   D2A 9664   9.734  13.609   8.250
 3798POPC   C3A 9665   9.700  13.663   7.950
 3798POPC   C4A 9666   9.792  13.592   7.650
 3798POPC   C1B 9667   9.889  13.850   8.550
 3798POPC   C2B 9668   9.928  13.887   8.250
 3798POPC   C3B 9669   9.890  13.844   7.950
 3798POPC   C4B 9670   9.895  13.815   7.650
 3799POPC   NC3 9671   3.523  31.429   9.450
 3799POPC   PO4 9672   3.564  31.515   9.150
 3799POPC   GL1 9673   3.545  31.510   8.850
 3799POPC   GL2 9674   3.582  31.299   8.850
 3799POPC   C1A 9675   3.498  31.448   8.550
 3799POPC   D2A 9676   3.507  31.456   8.250
 3799POPC   C3A 9677   3.588  31.444   7.950
 3799POPC   C4A 9678   3.572  31.472   7.650
 3799POPC   C1B 9679   3.546  31.236   8.550
 3799POPC   C2B 9680   3.540  31.231   8.250
 3799POPC   C3B 9681   3.502  31.250   7.950
 3799POPC   C4B 9682   3.556  31.237   7.650
 3800POPC   NC3 9683  36.174  14.416   9.450
 3800POPC   PO4 9684  36.163  14.416   9.150
 3800POPC   GL1 9685  36.154  14.357   8.850
 3800POPC   GL2 9686  36.284  14.394   8.850
 3800POPC   C1A 9687  36.153  14.407   8.550
 3800POPC   D2A 9688  36.108  14.450   8.250
 3800POPC   C3A 9689  36.155  14.372   7.950
 3800POPC   C4A 9690  36.149  14.405   7.650
 3800POPC   C1B 9691  36.394  14.403   8.550
 3800POPC   C2B 9692  36.364  14.338   8.250
 3800POPC   C3B 9693  36.331  14.337   7.950
 3800POPC   C4B 9694  36.352  14.364   7.650
 3801POPC   NC3 9695  44.665  18.300   9.450
 3801POPC   PO4 9696  44.638  18.287   9.150
 3801POPC   GL1 9697  44.712  18.292   8.850
 3801POPC   GL2 9698  44.565  18.203   8.850
 3801POPC   C1A 9699  44.631  18.300   8.550
 3801POPC   D2A 9700  44.637  18.296   8.250
 3801POPC   C3A 9701  44.686  18.292   7.950
 3801POPC   C4A 9702  44.628  18.319   7.650
 3801POPC   C1B 9703  44.597  18.029   8.550
 3801POPC   C2B 9704  44.576  18.070   8.250
 3801POPC   C3B 9705  44.600  18.050   7.950
 3801POPC   C4B 9706  44.604  18.071   7.650
 3802POPC   NC3 9707  18.284  33.793   9.450
 3802POPC   PO4 9708  18.286  33.780   9.150
 3802POPC   GL1 9709  18.310  33.780   8.850
 3802POPC   GL2 9710  18.228  33.902   8.850
 3802POPC   C1A 9711  18.321  33.761   8.550
 3802POPC   D2A 9712  18.310  33.788   8.250
 3802POPC   C3A 9713  18.327  33.769   7.950
 3802POPC   C4A 9714  18.286  33.810   7.650
 3802POPC   C1B 9715  18.100  33.970   8.550
 3802POPC   C2B 9716  18.144  33.928   8.250
 3802POPC   C3B 9717  18.067  33.960   7.950
 3802POPC   C4B 9718  18.147  33.931   7.650
 3803POPC   NC3 9719  12.819  31.509   9.450
 3803POPC   PO4 9720  12.898  31.509   9.150
 3803POPC   GL1 9721  12.876  31.522   8.850
 3803POPC   GL2 9722  12.718  31.491   8.850
 3803POPC   C1A 9723  12.876  31.505   8.550
 3803POPC   D2A 9724  12.847  31.494   8.250
 3803POPC   C3A 9725  12.803  31.437   7.950
 3803POPC   C4A 9726  12.883  31.461   7.650
 3803POPC   C1B 9727  12.582  31.619   8.550
 3803POPC   C2B 9728  12.638  31.556   8.250
 3803POPC   C3B 9729  12.678  31.631   7.950
 3803POPC   C4B 9730  12.651  31.618   7.650
 3804POPC   NC3 9731   2.010  16.688   9.450
 3804POPC   PO4 9732   2.000  16.768   9.150
 3804POPC   GL1 9733   2.026  16.740   8.850
 3804POPC   GL2 9734   1.940  16.794   8.850
 3804POPC   C1A 9735   1.943  16.732   8.550
 3804POPC   D2A 9736   1.948  16.765   8.250
 3804POPC   C3A 9737   2.032  16.753   7.950
 3804POPC   C4A 9738   2.028  16.689   7.650
 3804POPC   C1B 9739   1.780  16.855   8.550
 3804POPC   C2B 9740   1.749  16.849   8.250
 3804POPC   C3B 9741   1.759  16.926   7.950
 3804POPC   C4B 9742   1.831  16.937   7.650
 3805POPC   NC3 9743  43.118  29.175   9.450
 3805POPC   PO4 9744  43.110  29.096   9.150
 3805POPC   GL1 9745  43.155  29.112   8.850
 3805POPC   GL2 9746  42.966  29.249   8.850
 3805POPC   C1A 9747  43.131  29.098   8.550
 3805POPC   D2A 9748  43.082  29.135   8.250
 3805POPC   C3A 9749  43.095  29.163   7.950
 3805POPC   C4A 9750  43.134  29.105   7.650
 3805POPC   C1B 9751  42.946  29.244   8.550
 3805POPC   C2B 9752  42.855  29.316   8.250
 3805POPC   C3B 9753  42.895  29.282   7.950
 3805POPC   C4B 9754  42.927  29.312   7.650
 3806POPC   NC3 9755   8.951  12.097   9.450
 3806POPC   PO4 9756   8.937  12.060   9.150
 3806POPC   GL1 9757   8.965  12.064   8.850
 3806POPC   GL2 9758   8.855  12.127   8.850
 3806POPC   C1A 9759   8.998  12.034   8.550
 3806POPC   D2A 9760   8.931  12.031   8.250
 3806POPC   C3A 9761   8.996  12.115   7.950
 3806POPC   C4A 9762   8.928  12.052   7.650
 3806POPC   C1B 9763   8.787  12.226   8.550
 3806POPC   C2B 9764   8.790  12.252   8.250
 3806POPC   C3B 9765   8.803  12.261   7.950
 3806POPC   C4B 9766   8.787  12.253   7.650
 3807POPC   NC3 9767  37.658  33.796   9.450
 3807POPC   PO4 9768  37.664  33.794   9.150
 3807POPC   GL1 9769  37.707  33.803   8.850
 3807POPC   GL2 9770  37.652  33.970   8.850
 3807POPC   C1A 9771  37.675  33.777   8.550
 3807POPC   D2A 9772  37.642  33.775   8.250
 3807POPC   C3A 9773  37.711  33.824   7.950
 3807POPC   C4A 9774  37.729  33.800   7.650
 3807POPC   C1B 9775  37.629  34.059   8.550
 3807POPC   C2B 9776  37.624  34.007   8.250
 3807POPC   C3B 9777  37.609  34.043   7.950
 3807POPC   C4B 9778  37.658  34.019   7.650
 3808POPC   NC3 9779   0.481  38.498   9.450
 3808POPC   PO4 9780   0.406  38.460   9.150
 3808POPC   GL1 9781   0.476  38.479   8.850
 3808POPC   GL2 9782   0.388  38.527   8.850
 3808POPC   C1A 9783   0.394  38.485   8.550
 3808POPC   D2A 9784   0.444  38.431   8.250
 3808POPC   C3A 9785   0.428  38.411   7.950
 3808POPC   C4A 9786   0.404  38.412   7.650
 3808POPC   C1B 9787   0.312  38.728   8.550
 3808POPC   C2B 9788   0.345  38.639   8.250
 3808POPC   C3B 9789   0.308  38.720   7.950
 3808POPC   C4B 9790   0.381  38.729   7.650
 3809POPC   NC3 9791  43.880  27.634   9.450
 3809POPC   PO4 9792  43.930  27.566   9.150
 3809POPC   GL1 9793  43.850  27.587   8.850
 3809POPC   GL2 9794  43.792  27.533   8.850
 3809POPC   C1A 9795  43.860  27.620   8.550
 3809POPC   D2A 9796  43.895  27.583   8.250
 3809POPC   C3A 9797  43.857  27.562   7.950
 3809POPC   C4A 9798  43.918  27.607   7.650
 3809POPC   C1B 9799  43.774  27.405   8.550
 3809POPC   C2B 9800  43.780  27.378   8.250
 3809POPC   C3B 9801  43.737  27.395   7.950
 3809POPC   C4B 9802  43.696  27.345   7.650
 3810POPC   NC3 9803  12.053  23.671   9.450
 3810POPC   PO4 9804  12.049  23.678   9.150
 3810POPC   GL1 9805  12.095  23.749   8.850
 3810POPC   GL2 9806  12.111  23.794   8.850
 3810POPC   C1A 9807  12.076  23.689   8.550
 3810POPC   D2A 9808  12.052  23.698   8.250
 3810POPC   C3A 9809  12.094  23.681   7.950
 3810POPC   C4A 9810  12.090  23.717   7.650
 3810POPC   C1B 9811  12.228  23.964   8.550
 3810POPC   C2B 9812  12.184  23.931   8.250
 3810POPC   C3B 9813  12.238  23.938   7.950
 3810POPC   C4B 9814  12.194  23.895   7.650
 3811POPC   NC3 9815  13.663  33.010   9.450
 3811POPC   PO4 9816  13.610  32.989   9.150
 3811POPC   GL1 9817  13.667  33.028   8.850
 3811POPC   GL2 9818  13.793  32.989   8.850
 3811POPC   C1A 9819  13.611  33.000   8.550
 3811POPC   D2A 9820  13.632  33.021   8.250
 3811POPC   C3A 9821  13.621  32.975   7.950
 3811POPC   C4A 9822  13.667  33.065   7.650
 3811POPC   C1B 9823  13.911  33.071   8.550
 3811POPC   C2B 9824  13.868  33.058   8.250
 3811POPC   C3B 9825  13.878  33.035   7.950
 3811POPC   C4B 9826  13.870  33.018   7.650
 3812POPC   NC3 9827   1.252  21.360   9.450
 3812POPC   PO4 9828   1.218  21.410   9.150
 3812POPC   GL1 9829   1.170  21.368   8.850
 3812POPC   GL2 9830   1.289  21.326   8.850
 3812POPC   C1A 9831   1.242  21.341   8.550
 3812POPC   D2A 9832   1.254  21.403   8.250
 3812POPC   C3A 9833   1.221  21.388   7.950
 3812POPC   C4A 9834   1.218  21.357   7.650
 3812POPC   C1B 9835   1.505  21.280   8.550
 3812POPC   C2B 9836   1.506  21.319   8.250
 3812POPC   C3B 9837   1.495  21.322   7.950
 3812POPC   C4B 9838   1.492  21.361   7.650
 3813POPC   NC3 9839   0.415  34.620   9.450
 3813POPC   PO4 9840   0.430  34.540   9.150
 3813POPC   GL1 9841   0.425  34.576   8.850
 3813POPC   GL2 9842   0.514  34.675   8.850
 3813POPC   C1A 9843   0.408  34.608   8.550
 3813POPC   D2A 9844   0.478  34.543   8.250
 3813POPC   C3A 9845   0.392  34.624   7.950
 3813POPC   C4A 9846   0.421  34.532   7.650
 3813POPC   C1B 9847   0.526  34.842   8.550
 3813POPC   C2B 9848   0.542  34.799   8.250
 3813POPC   C3B 9849   0.500  34.855   7.950
 3813POPC   C4B 9850   0.561  34.832   7.650
 3814POPC   NC3 9851   2.750  29.944   9.450
 3814POPC   PO4 9852   2.762  29.890   9.150
 3814POPC   GL1 9853   2.786  29.906   8.850
 3814POPC   GL2 9854   2.870  29.962   8.850
 3814POPC   C1A 9855   2.778  29.887   8.550
 3814POPC   D2A 9856   2.749  29.950   8.250
 3814POPC   C3A 9857   2.754  29.952   7.950
 3814POPC   C4A 9858   2.763  29.968   7.650
 3814POPC   C1B 9859   3.046  29.885   8.550
 3814POPC   C2B 9860   2.997  29.863   8.250
 3814POPC   C3B 9861   2.993  29.888   7.950
 3814POPC   C4B 9862   3.028  29.886   7.650
 3815POPC   NC3 9863  35.345  10.546   9.450
 3815POPC   PO4 9864  35.376  10.491   9.150
 3815POPC   GL1 9865  35.322  10.528   8.850
 3815POPC   GL2 9866  35.274  10.528   8.850
 3815POPC   C1A 9867  35.333  10.482   8.550
 3815POPC   D2A 9868  35.370  10.532   8.250
 3815POPC   C3A 9869  35.355  10.499   7.950
 3815POPC   C4A 9870  35.378  10.510   7.650
 3815POPC   C1B 9871  35.075  10.640   8.550
 3815POPC   C2B 9872  35.073  10.571   8.250
 3815POPC   C3B 9873  35.086  10.607   7.950
 3815POPC   C4B 9874  35.081  10.642   7.650
 3816POPC   NC3 9875  33.020  20.643   9.450
 3816POPC   PO4 9876  32.979  20.608   9.150
 3816POPC   GL1 9877  33.004  20.604   8.850
 3816POPC   GL2 9878  32.866  20.716   8.850
 3816POPC   C1A 9879  33.071  20.568   8.550
 3816POPC   D2A 9880  33.036  20.594   8.250
 3816POPC   C3A 9881  32.996  20.638   7.950
 3816POPC   C4A 9882  33.046  20.594   7.650
 3816POPC   C1B 9883  32.761  20.722   8.550
 3816POPC   C2B 9884  32.796  20.761   8.250
 3816POPC   C3B 9885  32.790  20.746   7.950
 3816POPC   C4B 9886  32.825  20.773   7.650
 3817POPC   NC3 9887  42.352  22.963   9.450
 3817POPC   PO4 9888  42.347  22.914   9.150
 3817POPC   GL1 9889  42.378  22.903   8.850
 3817POPC   GL2 9890  42.254  22.867   8.850
 3817POPC   C1A 9891  42.372  22.949   8.550
 3817POPC   D2A 9892  42.356  22.909   8.250
 3817POPC   C3A 9893  42.353  22.933   7.950
 3817POPC   C4A 9894  42.340  22.967   7.650
 3817POPC   C1B 9895  42.134  22.868   8.550
 3817POPC   C2B 9896  42.084  22.835   8.250
 3817POPC   C3B 9897  42.057  22.898   7.950
 3817POPC   C4B 9898  42.130  22.821   7.650
 3818POPC   NC3 9899  42.340  40.762   9.450
 3818POPC   PO4 9900  42.357  40.739   9.150
 3818POPC   GL1 9901  42.322  40.743   8.850
 3818POPC   GL2 9902  42.417  40.827   8.850
 3818POPC   C1A 9903  42.312  40.823   8.550
 3818POPC   D2A 9904  42.310  40.780   8.250
 3818POPC   C3A 9905  42.339  40.739   7.950
 3818POPC   C4A 9906  42.317  40.771   7.650
 3818POPC   C1B 9907  42.595  40.905   8.550
 3818POPC   C2B 9908  42.538  40.863   8.250
 3818POPC   C3B 9909  42.578  40.885   7.950
 3818POPC   C4B 9910  42.548  40.908   7.650
 3819POPC   NC3 9911  31.461  12.050   9.450
 3819POPC   PO4 9912  31.467  12.050   9.150
 3819POPC   GL1 9913  31.448  12.063   8.850
 3819POPC   GL2 9914  31.389  11.930   8.850
 3819POPC   C1A 9915  31.436  12.040   8.550
 3819POPC   D2A 9916  31.519  12.112   8.250
 3819POPC   C3A 9917  31.503  12.041   7.950
 3819POPC   C4A 9918  31.502  12.035   7.650
 3819POPC   C1B 9919  31.408  11.846   8.550
 3819POPC   C2B 9920  31.414  11.869   8.250
 3819POPC   C3B 9921  31.367  11.812   7.950
 3819POPC   C4B 9922  31.413  11.836   7.650
 3820POPC   NC3 9923  19.035  22.210   9.450
 3820POPC   PO4 9924  19.106  22.138   9.150
 3820POPC   GL1 9925  19.093  22.146   8.850
 3820POPC   GL2 9926  19.153  22.014   8.850
 3820POPC   C1A 9927  19.078  22.140   8.550
 3820POPC   D2A 9928  19.058  22.190   8.250
 3820POPC   C3A 9929  19.061  22.182   7.950
 3820POPC   C4A 9930  19.068  22.185   7.650
 3820POPC   C1B 9931  19.174  21.968   8.550
 3820POPC   C2B 9932  19.216  21.968   8.250
 3820POPC   C3B 9933  19.184  21.908   7.950
 3820POPC   C4B 9934  19.137  21.937   7.650
 3821POPC   NC3 9935  18.268  29.106   9.450
 3821POPC   PO4 9936  18.312  29.127   9.150
 3821POPC   GL1 9937  18.331  29.135   8.850
 3821POPC   GL2 9938  18.311  29.038   8.850
 3821POPC   C1A 9939  18.257  29.173   8.550
 3821POPC   D2A 9940  18.305  29.186   8.250
 3821POPC   C3A 9941  18.284  29.144   7.950
 3821POPC   C4A 9942  18.267  29.149   7.650
 3821POPC   C1B 9943  18.395  28.964   8.550
 3821POPC   C2B 9944  18.370  28.892   8.250
 3821POPC   C3B 9945  18.398  28.940   7.950
 3821POPC   C4B 9946  18.431  28.937   7.650
 3822POPC   NC3 9947  43.116   0.455   9.450
 3822POPC   PO4 9948  43.099   0.486   9.150
 3822POPC   GL1 9949  43.067   0.464   8.850
 3822POPC   GL2 9950  42.986   0.375   8.850
 3822POPC   C1A 9951  43.124   0.399   8.550
 3822POPC   D2A 9952  43.125   0.428   8.250
 3822POPC   C3A 9953  43.062   0.399   7.950
 3822POPC   C4A 9954  43.076   0.476   7.650
 3822POPC   C1B 9955  42.893   0.437   8.550
 3822POPC   C2B 9956  42.878   0.421   8.250
 3822POPC   C3B 9957  42.821   0.407   7.950
 3822POPC   C4B 9958  42.898   0.408   7.650
 3823POPC   NC3 9959   1.947   7.448   9.450
 3823POPC   PO4 9960   1.965   7.437   9.150
 3823POPC   GL1 9961   2.026   7.438   8.850
 3823POPC   GL2 9962   1.877   7.472   8.850
 3823POPC   C1A 9963   2.019   7.435   8.550
 3823POPC   D2A 9964   2.025   7.400   8.250
 3823POPC   C3A 9965   2.008   7.394   7.950
 3823POPC   C4A 9966   2.027   7.409   7.650
 3823POPC   C1B 9967   1.792   7.481   8.550
 3823POPC   C2B 9968   1.717   7.412   8.250
 3823POPC   C3B 9969   1.759   7.474   7.950
 3823POPC   C4B 9970   1.705   7.452   7.650
 3824POPC   NC3 9971  25.221  13.606   9.450
 3824POPC   PO4 9972  25.289  13.666   9.150
 3824POPC   GL1 9973  25.251  13.653   8.850
 3824POPC   GL2 9974  25.403  13.701   8.850
 3824POPC   C1A 9975  25.240  13.609   8.550
 3824POPC   D2A 9976  25.224  13.586   8.250
 3824POPC   C3A 9977  25.271  13.603   7.950
 3824POPC   C4A 9978  25.279  13.600   7.650
 3824POPC   C1B 9979  25.467  13.780   8.550
 3824POPC   C2B 9980  25.471  13.844   8.250
 3824POPC   C3B 9981  25.470  13.808   7.950
 3824POPC   C4B 9982  25.425  13.787   7.650
 3825POPC   NC3 9983  19.034  44.711   9.450
 3825POPC   PO4 9984  19.062  44.632   9.150
 3825POPC   GL1 9985  19.029  44.695   8.850
 3825POPC   GL2 9986  18.976  44.738   8.850
 3825POPC   C1A 9987  19.102  44.635   8.550
 3825POPC   D2A 9988  19.070  44.642   8.250
 3825POPC   C3A 9989  19.091  44.673   7.950
 3825POPC   C4A 9990  19.070  44.670   7.650
 3825POPC   C1B 9991  18.876  44.888   8.550
 3825POPC   C2B 9992  18.915  44.870   8.250
 3825POPC   C3B 9993  18.936  44.835   7.950
 3825POPC   C4B 9994  18.931  44.912   7.650
 3826POPC   NC3 9995  15.928  26.771   9.450
 3826POPC   PO4 9996  15.920  26.786   9.150
 3826POPC   GL1 9997  15.949  26.829   8.850
 3826POPC   GL2 9998  16.038  26.714   8.850
 3826POPC   C1A 9999  15.997  26.785   8.550
 3826POPC   D2A10000  15.994  26.788   8.250
 3826POPC   C3A10001  16.002  26.860   7.950
 3826POPC   C4A10002  15.939  26.832   7.650
 3826POPC   C1B10003  16.034  26.542   8.550
 3826POPC   C2B10004  16.081  26.619   8.250
 3826POPC   C3B10005  16.011  26.611   7.950
 3826POPC   C4B10006  16.010  26.622   7.650
 3827POPC   NC310007   3.562  15.211   9.450
 3827POPC   PO410008   3.583  15.176   9.150
 3827POPC   GL110009   3.525  15.176   8.850
 3827POPC   GL210010   3.479  15.308   8.850
 3827POPC   C1A10011   3.549  15.212   8.550
 3827POPC   D2A10012   3.549  15.222   8.250
 3827POPC   C3A10013   3.507  15.132   7.950
 3827POPC   C4A10014   3.545  15.151   7.650
 3827POPC   C1B10015   3.505  15.414   8.550
 3827POPC   C2B10016   3.531  15.459   8.250
 3827POPC   C3B10017   3.519  15.389   7.950
 3827POPC   C4B10018   3.450  15.438   7.650
 3828POPC   NC310019  32.285  18.314   9.450
 3828POPC   PO410020  32.293  18.305   9.150
 3828POPC   GL110021  32.287  18.282   8.850
 3828POPC   GL210022  32.349  18.318   8.850
 3828POPC   C1A10023  32.235  18.270   8.550
 3828POPC   D2A10024  32.221  18.273   8.250
 3828POPC   C3A10025  32.221  18.242   7.950
 3828POPC   C4A10026  32.225  18.300   7.650
 3828POPC   C1B10027  32.482  18.256   8.550
 3828POPC   C2B10028  32.479  18.328   8.250
 3828POPC   C3B10029  32.533  18.261   7.950
 3828POPC   C4B10030  32.492  18.276   7.650
 3829POPC   NC310031  34.593  15.175   9.450
 3829POPC   PO410032  34.612  15.226   9.150
 3829POPC   GL110033  34.539  15.221   8.850
 3829POPC   GL210034  34.682  15.181   8.850
 3829POPC   C1A10035  34.565  15.140   8.550
 3829POPC   D2A10036  34.534  15.199   8.250
 3829POPC   C3A10037  34.527  15.224   7.950
 3829POPC   C4A10038  34.596  15.166   7.650
 3829POPC   C1B10039  34.818  15.174   8.550
 3829POPC   C2B10040  34.873  15.138   8.250
 3829POPC   C3B10041  34.779  15.140   7.950
 3829POPC   C4B10042  34.836  15.170   7.650
 3830POPC   NC310043  22.905  24.495   9.450
 3830POPC   PO410044  22.935  24.442   9.150
 3830POPC   GL110045  22.898  24.482   8.850
 3830POPC   GL210046  23.080  24.484   8.850
 3830POPC   C1A10047  22.975  24.526   8.550
 3830POPC   D2A10048  22.911  24.482   8.250
 3830POPC   C3A10049  22.951  24.448   7.950
 3830POPC   C4A10050  22.980  24.490   7.650
 3830POPC   C1B10051  23.200  24.456   8.550
 3830POPC   C2B10052  23.154  24.453   8.250
 3830POPC   C3B10053  23.159  24.508   7.950
 3830POPC   C4B10054  23.182  24.467   7.650
 3831POPC   NC310055  29.903   0.406   9.450
 3831POPC   PO410056  29.970   0.421   9.150
 3831POPC   GL110057  29.960   0.450   8.850
 3831POPC   GL210058  29.903   0.288   8.850
 3831POPC   C1A10059  29.904   0.396   8.550
 3831POPC   D2A10060  29.899   0.450   8.250
 3831POPC   C3A10061  29.900   0.398   7.950
 3831POPC   C4A10062  29.956   0.463   7.650
 3831POPC   C1B10063  29.934   0.151   8.550
 3831POPC   C2B10064  30.021   0.148   8.250
 3831POPC   C3B10065  29.945   0.238   7.950
 3831POPC   C4B10066  29.993   0.218   7.650
 3832POPC   NC310067  42.375  20.660   9.450
 3832POPC   PO410068  42.337  20.617   9.150
 3832POPC   GL110069  42.378  20.655   8.850
 3832POPC   GL210070  42.306  20.470   8.850
 3832POPC   C1A10071  42.289  20.589   8.550
 3832POPC   D2A10072  42.335  20.595   8.250
 3832POPC   C3A10073  42.313  20.600   7.950
 3832POPC   C4A10074  42.342  20.620   7.650
 3832POPC   C1B10075  42.185  20.416   8.550
 3832POPC   C2B10076  42.201  20.403   8.250
 3832POPC   C3B10077  42.160  20.394   7.950
 3832POPC   C4B10078  42.149  20.424   7.650
 3833POPC   NC310079  26.057  44.682   9.450
 3833POPC   PO410080  26.009  44.668   9.150
 3833POPC   GL110081  26.011  44.629   8.850
 3833POPC   GL210082  25.966  44.615   8.850
 3833POPC   C1A10083  26.050  44.651   8.550
 3833POPC   D2A10084  26.012  44.687   8.250
 3833POPC   C3A10085  26.024  44.704   7.950
 3833POPC   C4A10086  26.011  44.673   7.650
 3833POPC   C1B10087  25.863  44.483   8.550
 3833POPC   C2B10088  25.870  44.472   8.250
 3833POPC   C3B10089  25.851  44.530   7.950
 3833POPC   C4B10090  25.814  44.472   7.650
 3834POPC   NC310091  12.121  43.843   9.450
 3834POPC   PO410092  12.052  43.930   9.150
 3834POPC   GL110093  12.055  43.896   8.850
 3834POPC   GL210094  11.964  43.935   8.850
 3834POPC   C1A10095  12.095  43.882   8.550
 3834POPC   D2A10096  12.122  43.882   8.250
 3834POPC   C3A10097  12.087  43.882   7.950
 3834POPC   C4A10098  12.111  43.890   7.650
 3834POPC   C1B10099  11.861  43.860   8.550
 3834POPC   C2B10100  11.803  43.938   8.250
 3834POPC   C3B10101  11.825  43.899   7.950
 3834POPC   C4B10102  11.789  43.882   7.650
 3835POPC   NC310103  36.164  12.831   9.450
 3835POPC   PO410104  36.154  12.899   9.150
 3835POPC   GL110105  36.135  12.884   8.850
 3835POPC   GL210106  36.247  12.928   8.850
 3835POPC   C1A10107  36.164  12.873   8.550
 3835POPC   D2A10108  36.096  12.830   8.250
 3835POPC   C3A10109  36.159  12.851   7.950
 3835POPC   C4A10110  36.151  12.862   7.650
 3835POPC   C1B10111  36.311  13.010   8.550
 3835POPC   C2B10112  36.346  13.036   8.250
 3835POPC   C3B10113  36.345  12.989   7.950
 3835POPC   C4B10114  36.352  13.008   7.650
 3836POPC   NC310115  22.179  25.245   9.450
 3836POPC   PO410116  22.134  25.223   9.150
 3836POPC   GL110117  22.135  25.220   8.850
 3836POPC   GL210118  22.099  25.160   8.850
 3836POPC   C1A10119  22.204  25.293   8.550
 3836POPC   D2A10120  22.186  25.263   8.250
 3836POPC   C3A10121  22.130  25.247   7.950
 3836POPC   C4A10122  22.132  25.313   7.650
 3836POPC   C1B10123  21.988  25.097   8.550
 3836POPC   C2B10124  21.931  25.060   8.250
 3836POPC   C3B10125  21.953  25.062   7.950
 3836POPC   C4B10126  21.924  25.125   7.650
 3837POPC   NC310127  22.161  14.360   9.450
 3837POPC   PO410128  22.201  14.441   9.150
 3837POPC   GL110129  22.122  14.377   8.850
 3837POPC   GL210130  22.128  14.243   8.850
 3837POPC   C1A10131  22.147  14.448   8.550
 3837POPC   D2A10132  22.210  14.381   8.250
 3837POPC   C3A10133  22.171  14.400   7.950
 3837POPC   C4A10134  22.179  14.453   7.650
 3837POPC   C1B10135  22.099  14.187   8.550
 3837POPC   C2B10136  22.121  14.143   8.250
 3837POPC   C3B10137  22.189  14.195   7.950
 3837POPC   C4B10138  22.093  14.152   7.650
 3838POPC   NC310139  34.529   7.374   9.450
 3838POPC   PO410140  34.572   7.417   9.150
 3838POPC   GL110141  34.559   7.413   8.850
 3838POPC   GL210142  34.657   7.342   8.850
 3838POPC   C1A10143  34.536   7.378   8.550
 3838POPC   D2A10144  34.540   7.426   8.250
 3838POPC   C3A10145  34.572   7.398   7.950
 3838POPC   C4A10146  34.555   7.391   7.650
 3838POPC   C1B10147  34.778   7.311   8.550
 3838POPC   C2B10148  34.801   7.360   8.250
 3838POPC   C3B10149  34.803   7.312   7.950
 3838POPC   C4B10150  34.775   7.300   7.650
 3839POPC   NC310151   9.727  21.368   9.450
 3839POPC   PO410152   9.722  21.412   9.150
 3839POPC   GL110153   9.793  21.390   8.850
 3839POPC   GL210154   9.728  21.253   8.850
 3839POPC   C1A10155   9.787  21.424   8.550
 3839POPC   D2A10156   9.773  21.369   8.250
 3839POPC   C3A10157   9.770  21.397   7.950
 3839POPC   C4A10158   9.794  21.349   7.650
 3839POPC   C1B10159   9.660  21.192   8.550
 3839POPC   C2B10160   9.644  21.113   8.250
 3839POPC   C3B10161   9.635  21.112   7.950
 3839POPC   C4B10162   9.647  21.141   7.650
 3840POPC   NC310163  31.501  30.691   9.450
 3840POPC   PO410164  31.519  30.675   9.150
 3840POPC   GL110165  31.472  30.726   8.850
 3840POPC   GL210166  31.516  30.551   8.850
 3840POPC   C1A10167  31.443  30.679   8.550
 3840POPC   D2A10168  31.429  30.673   8.250
 3840POPC   C3A10169  31.517  30.655   7.950
 3840POPC   C4A10170  31.500  30.727   7.650
 3840POPC   C1B10171  31.495  30.429   8.550
 3840POPC   C2B10172  31.509  30.426   8.250
 3840POPC   C3B10173  31.419  30.461   7.950
 3840POPC   C4B10174  31.486  30.483   7.650
 3841POPC   NC310175  35.371  13.584   9.450
 3841POPC   PO410176  35.388  13.585   9.150
 3841POPC   GL110177  35.388  13.618   8.850
 3841POPC   GL210178  35.303  13.705   8.850
 3841POPC   C1A10179  35.330  13.617   8.550
 3841POPC   D2A10180  35.387  13.585   8.250
 3841POPC   C3A10181  35.379  13.620   7.950
 3841POPC   C4A10182  35.360  13.666   7.650
 3841POPC   C1B10183  35.200  13.843   8.550
 3841POPC   C2B10184  35.167  13.837   8.250
 3841POPC   C3B10185  35.193  13.770   7.950
 3841POPC   C4B10186  35.173  13.795   7.650
 3842POPC   NC310187  34.617  12.030   9.450
 3842POPC   PO410188  34.577  12.092   9.150
 3842POPC   GL110189  34.551  12.058   8.850
 3842POPC   GL210190  34.680  12.188   8.850
 3842POPC   C1A10191  34.544  12.083   8.550
 3842POPC   D2A10192  34.620  12.057   8.250
 3842POPC   C3A10193  34.541  12.078   7.950
 3842POPC   C4A10194  34.567  12.049   7.650
 3842POPC   C1B10195  34.739  12.255   8.550
 3842POPC   C2B10196  34.756  12.207   8.250
 3842POPC   C3B10197  34.805  12.249   7.950
 3842POPC   C4B10198  34.782  12.240   7.650
 3843POPC   NC310199  41.510  38.468   9.450
 3843POPC   PO410200  41.594  38.479   9.150
 3843POPC   GL110201  41.559  38.416   8.850
 3843POPC   GL210202  41.704  38.373   8.850
 3843POPC   C1A10203  41.584  38.489   8.550
 3843POPC   D2A10204  41.608  38.462   8.250
 3843POPC   C3A10205  41.609  38.485   7.950
 3843POPC   C4A10206  41.517  38.439   7.650
 3843POPC   C1B10207  41.806  38.371   8.550
 3843POPC   C2B10208  41.800  38.370   8.250
 3843POPC   C3B10209  41.838  38.382   7.950
 3843POPC   C4B10210  41.822  38.394   7.650
 3844POPC   NC310211  41.511  43.076   9.450
 3844POPC   PO410212  41.512  43.063   9.150
 3844POPC   GL110213  41.590  43.082   8.850
 3844POPC   GL210214  41.424  43.111   8.850
 3844POPC   C1A10215  41.591  43.133   8.550
 3844POPC   D2A10216  41.563  43.119   8.250
 3844POPC   C3A10217  41.561  43.145   7.950
 3844POPC   C4A10218  41.558  43.073   7.650
 3844POPC   C1B10219  41.288  43.165   8.550
 3844POPC   C2B10220  41.322  43.237   8.250
 3844POPC   C3B10221  41.344  43.239   7.950
 3844POPC   C4B10222  41.290  43.249   7.650
 3845POPC   NC310223  44.673  10.521   9.450
 3845POPC   PO410224  44.704  10.558   9.150
 3845POPC   GL110225  44.679  10.487   8.850
 3845POPC   GL210226  44.735  10.623   8.850
 3845POPC   C1A10227  44.699  10.482   8.550
 3845POPC   D2A10228  44.646  10.484   8.250
 3845POPC   C3A10229  44.673  10.477   7.950
 3845POPC   C4A10230  44.671  10.563   7.650
 3845POPC   C1B10231  44.840  10.722   8.550
 3845POPC   C2B10232  44.777  10.726   8.250
 3845POPC   C3B10233  44.822  10.753   7.950
 3845POPC   C4B10234  44.770  10.717   7.650
 3846POPC   NC310235  43.887  15.179   9.450
 3846POPC   PO410236  43.923  15.165   9.150
 3846POPC   GL110237  43.886  15.163   8.850
 3846POPC   GL210238  43.805  15.317   8.850
 3846POPC   C1A10239  43.925  15.168   8.550
 3846POPC   D2A10240  43.845  15.198   8.250
 3846POPC   C3A10241  43.886  15.158   7.950
 3846POPC   C4A10242  43.837  15.141   7.650
 3846POPC   C1B10243  43.761  15.399   8.550
 3846POPC   C2B10244  43.751  15.420   8.250
 3846POPC   C3B10245  43.777  15.407   7.950
 3846POPC   C4B10246  43.758  15.423   7.650
 3847POPC   NC310247  13.659  22.909   9.450
 3847POPC   PO410248  13.638  22.958   9.150
 3847POPC   GL110249  13.584  22.960   8.850
 3847POPC   GL210250  13.512  22.907   8.850
 3847POPC   C1A10251  13.641  22.894   8.550
 3847POPC   D2A10252  13.660  22.894   8.250
 3847POPC   C3A10253  13.605  22.897   7.950
 3847POPC   C4A10254  13.653  22.980   7.650
 3847POPC   C1B10255  13.450  22.851   8.550
 3847POPC   C2B10256  13.368  22.866   8.250
 3847POPC   C3B10257  13.358  22.856   7.950
 3847POPC   C4B10258  13.373  22.869   7.650
 3848POPC   NC310259  42.298  15.965   9.450
 3848POPC   PO410260  42.335  15.948   9.150
 3848POPC   GL110261  42.285  15.917   8.850
 3848POPC   GL210262  42.460  15.836   8.850
 3848POPC   C1A10263  42.359  15.955   8.550
 3848POPC   D2A10264  42.373  15.970   8.250
 3848POPC   C3A10265  42.290  15.935   7.950
 3848POPC   C4A10266  42.360  15.991   7.650
 3848POPC   C1B10267  42.509  15.788   8.550
 3848POPC   C2B10268  42.543  15.804   8.250
 3848POPC   C3B10269  42.499  15.810   7.950
 3848POPC   C4B10270  42.556  15.739   7.650
 3849POPC   NC310271  14.417  16.000   9.450
 3849POPC   PO410272  14.386  15.931   9.150
 3849POPC   GL110273  14.432  15.983   8.850
 3849POPC   GL210274  14.311  15.825   8.850
 3849POPC   C1A10275  14.363  15.951   8.550
 3849POPC   D2A10276  14.364  15.916   8.250
 3849POPC   C3A10277  14.431  15.945   7.950
 3849POPC   C4A10278  14.420  15.928   7.650
 3849POPC   C1B10279  14.213  15.743   8.550
 3849POPC   C2B10280  14.265  15.731   8.250
 3849POPC   C3B10281  14.268  15.768   7.950
 3849POPC   C4B10282  14.220  15.704   7.650
 3850POPC   NC310283  36.082   1.957   9.450
 3850POPC   PO410284  36.162   2.031   9.150
 3850POPC   GL110285  36.167   2.035   8.850
 3850POPC   GL210286  36.224   2.128   8.850
 3850POPC   C1A10287  36.098   2.026   8.550
 3850POPC   D2A10288  36.166   1.974   8.250
 3850POPC   C3A10289  36.131   2.001   7.950
 3850POPC   C4A10290  36.087   1.972   7.650
 3850POPC   C1B10291  36.310   2.135   8.550
 3850POPC   C2B10292  36.300   2.220   8.250
 3850POPC   C3B10293  36.291   2.200   7.950
 3850POPC   C4B10294  36.278   2.222   7.650
 3851POPC   NC310295  12.853  10.490   9.450
 3851POPC   PO410296  12.821  10.480   9.150
 3851POPC   GL110297  12.844  10.569   8.850
 3851POPC   GL210298  12.839  10.403   8.850
 3851POPC   C1A10299  12.901  10.545   8.550
 3851POPC   D2A10300  12.841  10.530   8.250
 3851POPC   C3A10301  12.890  10.560   7.950
 3851POPC   C4A10302  12.804  10.508   7.650
 3851POPC   C1B10303  12.810  10.254   8.550
 3851POPC   C2B10304  12.801  10.329   8.250
 3851POPC   C3B10305  12.767  10.316   7.950
 3851POPC   C4B10306  12.800  10.300   7.650
 3852POPC   NC310307   3.569  28.364   9.450
 3852POPC   PO410308   3.569  28.354   9.150
 3852POPC   GL110309   3.552  28.398   8.850
 3852POPC   GL210310   3.417  28.232   8.850
 3852POPC   C1A10311   3.577  28.350   8.550
 3852POPC   D2A10312   3.539  28.372   8.250
 3852POPC   C3A10313   3.499  28.369   7.950
 3852POPC   C4A10314   3.578  28.337   7.650
 3852POPC   C1B10315   3.337  28.183   8.550
 3852POPC   C2B10316   3.324  28.151   8.250
 3852POPC   C3B10317   3.381  28.180   7.950
 3852POPC   C4B10318   3.322  28.209   7.650
 3853POPC   NC310319  33.023  34.548   9.450
 3853POPC   PO410320  33.064  34.621   9.150
 3853POPC   GL110321  33.001  34.577   8.850
 3853POPC   GL210322  33.174  34.621   8.850
 3853POPC   C1A10323  32.976  34.530   8.550
 3853POPC   D2A10324  33.062  34.533   8.250
 3853POPC   C3A10325  33.055  34.554   7.950
 3853POPC   C4A10326  33.065  34.543   7.650
 3853POPC   C1B10327  33.237  34.588   8.550
 3853POPC   C2B10328  33.251  34.623   8.250
 3853POPC   C3B10329  33.319  34.533   7.950
 3853POPC   C4B10330  33.283  34.535   7.650
 3854POPC   NC310331  19.060   9.794   9.450
 3854POPC   PO410332  19.076   9.720   9.150
 3854POPC   GL110333  19.102   9.763   8.850
 3854POPC   GL210334  19.135   9.633   8.850
 3854POPC   C1A10335  19.054   9.783   8.550
 3854POPC   D2A10336  19.106   9.766   8.250
 3854POPC   C3A10337  19.055   9.769   7.950
 3854POPC   C4A10338  19.041   9.781   7.650
 3854POPC   C1B10339  19.180   9.513   8.550
 3854POPC   C2B10340  19.220   9.506   8.250
 3854POPC   C3B10341  19.226   9.513   7.950
 3854POPC   C4B10342  19.152   9.576   7.650
 3855POPC   NC310343   9.707  28.351   9.450
 3855POPC   PO410344   9.787  28.360   9.150
 3855POPC   GL110345   9.748  28.349   8.850
 3855POPC   GL210346   9.740  28.256   8.850
 3855POPC   C1A10347   9.734  28.365   8.550
 3855POPC   D2A10348   9.713  28.393   8.250
 3855POPC   C3A10349   9.753  28.336   7.950
 3855POPC   C4A10350   9.740  28.364   7.650
 3855POPC   C1B10351   9.726  28.145   8.550
 3855POPC   C2B10352   9.695  28.130   8.250
 3855POPC   C3B10353   9.784  28.151   7.950
 3855POPC   C4B10354   9.790  28.159   7.650
 3856POPC   NC310355  36.932  18.259   9.450
 3856POPC   PO410356  36.896  18.329   9.150
 3856POPC   GL110357  36.892  18.233   8.850
 3856POPC   GL210358  36.839  18.202   8.850
 3856POPC   C1A10359  36.952  18.245   8.550
 3856POPC   D2A10360  36.887  18.265   8.250
 3856POPC   C3A10361  36.938  18.306   7.950
 3856POPC   C4A10362  36.938  18.326   7.650
 3856POPC   C1B10363  36.826  18.015   8.550
 3856POPC   C2B10364  36.783  18.051   8.250
 3856POPC   C3B10365  36.736  18.090   7.950
 3856POPC   C4B10366  36.821  18.025   7.650
 3857POPC   NC310367   6.684  39.991   9.450
 3857POPC   PO410368   6.682  39.971   9.150
 3857POPC   GL110369   6.626  39.992   8.850
 3857POPC   GL210370   6.610  39.884   8.850
 3857POPC   C1A10371   6.613  40.055   8.550
 3857POPC   D2A10372   6.643  39.991   8.250
 3857POPC   C3A10373   6.650  40.019   7.950
 3857POPC   C4A10374   6.637  40.055   7.650
 3857POPC   C1B10375   6.515  39.781   8.550
 3857POPC   C2B10376   6.484  39.745   8.250
 3857POPC   C3B10377   6.489  39.815   7.950
 3857POPC   C4B10378   6.521  39.809   7.650
 3858POPC   NC310379  33.842   8.928   9.450
 3858POPC   PO410380  33.767   8.965   9.150
 3858POPC   GL110381  33.783   8.966   8.850
 3858POPC   GL210382  33.898   8.989   8.850
 3858POPC   C1A10383  33.752   9.022   8.550
 3858POPC   D2A10384  33.773   8.974   8.250
 3858POPC   C3A10385  33.791   8.933   7.950
 3858POPC   C4A10386  33.826   8.981   7.650
 3858POPC   C1B10387  34.007   8.949   8.550
 3858POPC   C2B10388  34.081   8.970   8.250
 3858POPC   C3B10389  34.029   9.035   7.950
 3858POPC   C4B10390  34.038   9.015   7.650
 3859POPC   NC310391   6.640   2.039   9.450
 3859POPC   PO410392   6.678   2.024   9.150
 3859POPC   GL110393   6.669   1.945   8.850
 3859POPC   GL210394   6.485   2.053   8.850
 3859POPC   C1A10395   6.682   2.028   8.550
 3859POPC   D2A10396   6.661   2.000   8.250
 3859POPC   C3A10397   6.622   2.034   7.950
 3859POPC   C4A10398   6.603   1.982   7.650
 3859POPC   C1B10399   6.422   2.059   8.550
 3859POPC   C2B10400   6.388   2.002   8.250
 3859POPC   C3B10401   6.391   2.053   7.950
 3859POPC   C4B10402   6.432   2.023   7.650
 3860POPC   NC310403  39.192  38.475   9.450
 3860POPC   PO410404  39.251  38.456   9.150
 3860POPC   GL110405  39.251  38.481   8.850
 3860POPC   GL210406  39.195  38.375   8.850
 3860POPC   C1A10407  39.251  38.486   8.550
 3860POPC   D2A10408  39.261  38.461   8.250
 3860POPC   C3A10409  39.188  38.444   7.950
 3860POPC   C4A10410  39.258  38.416   7.650
 3860POPC   C1B10411  39.041  38.208   8.550
 3860POPC   C2B10412  39.057  38.235   8.250
 3860POPC   C3B10413  39.082  38.301   7.950
 3860POPC   C4B10414  39.079  38.211   7.650
 3861POPC   NC310415  23.763  19.790   9.450
 3861POPC   PO410416  23.734  19.786   9.150
 3861POPC   GL110417  23.665  19.815   8.850
 3861POPC   GL210418  23.807  19.780   8.850
 3861POPC   C1A10419  23.750  19.795   8.550
 3861POPC   D2A10420  23.702  19.820   8.250
 3861POPC   C3A10421  23.670  19.798   7.950
 3861POPC   C4A10422  23.672  19.845   7.650
 3861POPC   C1B10423  23.875  19.666   8.550
 3861POPC   C2B10424  23.871  19.656   8.250
 3861POPC   C3B10425  23.841  19.668   7.950
 3861POPC   C4B10426  23.932  19.650   7.650
 3862POPC   NC310427  26.834  43.110   9.450
 3862POPC   PO410428  26.779  43.094   9.150
 3862POPC   GL110429  26.798  43.098   8.850
 3862POPC   GL210430  26.652  43.094   8.850
 3862POPC   C1A10431  26.807  43.133   8.550
 3862POPC   D2A10432  26.816  43.077   8.250
 3862POPC   C3A10433  26.795  43.099   7.950
 3862POPC   C4A10434  26.804  43.123   7.650
 3862POPC   C1B10435  26.563  43.063   8.550
 3862POPC   C2B10436  26.550  42.981   8.250
 3862POPC   C3B10437  26.580  43.076   7.950
 3862POPC   C4B10438  26.561  43.058   7.650
 3863POPC   NC310439  31.428  26.841   9.450
 3863POPC   PO410440  31.519  26.787   9.150
 3863POPC   GL110441  31.491  26.829   8.850
 3863POPC   GL210442  31.407  26.909   8.850
 3863POPC   C1A10443  31.456  26.781   8.550
 3863POPC   D2A10444  31.463  26.771   8.250
 3863POPC   C3A10445  31.463  26.801   7.950
 3863POPC   C4A10446  31.483  26.796   7.650
 3863POPC   C1B10447  31.258  26.954   8.550
 3863POPC   C2B10448  31.280  26.977   8.250
 3863POPC   C3B10449  31.216  26.979   7.950
 3863POPC   C4B10450  31.205  26.926   7.650
 3864POPC   NC310451  16.694  39.186   9.450
 3864POPC   PO410452  16.684  39.253   9.150
 3864POPC   GL110453  16.763  39.217   8.850
 3864POPC   GL210454  16.767  39.129   8.850
 3864POPC   C1A10455  16.762  39.197   8.550
 3864POPC   D2A10456  16.715  39.230   8.250
 3864POPC   C3A10457  16.758  39.192   7.950
 3864POPC   C4A10458  16.752  39.256   7.650
 3864POPC   C1B10459  16.854  38.987   8.550
 3864POPC   C2B10460  16.917  39.048   8.250
 3864POPC   C3B10461  16.905  39.052   7.950
 3864POPC   C4B10462  16.854  39.040   7.650
 3865POPC   NC310463  16.739  17.493   9.450
 3865POPC   PO410464  16.715  17.548   9.150
 3865POPC   GL110465  16.757  17.555   8.850
 3865POPC   GL210466  16.633  17.547   8.850
 3865POPC   C1A10467  16.757  17.511   8.550
 3865POPC   D2A10468  16.754  17.473   8.250
 3865POPC   C3A10469  16.710  17.515   7.950
 3865POPC   C4A10470  16.697  17.542   7.650
 3865POPC   C1B10471  16.554  17.649   8.550
 3865POPC   C2B10472  16.473  17.670   8.250
 3865POPC   C3B10473  16.500  17.660   7.950
 3865POPC   C4B10474  16.484  17.597   7.650
 3866POPC   NC310475  33.820   4.267   9.450
 3866POPC   PO410476  33.850   4.312   9.150
 3866POPC   GL110477  33.841   4.333   8.850
 3866POPC   GL210478  33.756   4.466   8.850
 3866POPC   C1A10479  33.830   4.293   8.550
 3866POPC   D2A10480  33.769   4.303   8.250
 3866POPC   C3A10481  33.755   4.320   7.950
 3866POPC   C4A10482  33.838   4.286   7.650
 3866POPC   C1B10483  33.734   4.503   8.550
 3866POPC   C2B10484  33.710   4.514   8.250
 3866POPC   C3B10485  33.664   4.570   7.950
 3866POPC   C4B10486  33.657   4.505   7.650
 3867POPC   NC310487  15.923   8.147   9.450
 3867POPC   PO410488  16.005   8.160   9.150
 3867POPC   GL110489  15.914   8.167   8.850
 3867POPC   GL210490  16.039   8.247   8.850
 3867POPC   C1A10491  15.931   8.214   8.550
 3867POPC   D2A10492  15.967   8.200   8.250
 3867POPC   C3A10493  15.948   8.207   7.950
 3867POPC   C4A10494  15.984   8.236   7.650
 3867POPC   C1B10495  16.157   8.333   8.550
 3867POPC   C2B10496  16.208   8.270   8.250
 3867POPC   C3B10497  16.159   8.273   7.950
 3867POPC   C4B10498  16.233   8.324   7.650
 3868POPC   NC310499  43.069   5.082   9.450
 3868POPC   PO410500  43.076   5.053   9.150
 3868POPC   GL110501  43.104   5.105   8.850
 3868POPC   GL210502  42.961   5.155   8.850
 3868POPC   C1A10503  43.147   5.126   8.550
 3868POPC   D2A10504  43.088   5.081   8.250
 3868POPC   C3A10505  43.076   5.090   7.950
 3868POPC   C4A10506  43.125   5.089   7.650
 3868POPC   C1B10507  42.875   5.196   8.550
 3868POPC   C2B10508  42.852   5.180   8.250
 3868POPC   C3B10509  42.897   5.235   7.950
 3868POPC   C4B10510  42.867   5.209   7.650
 3869POPC   NC310511  20.588   1.234   9.450
 3869POPC   PO410512  20.613   1.248   9.150
 3869POPC   GL110513  20.563   1.173   8.850
 3869POPC   GL210514  20.622   1.138   8.850
 3869POPC   C1A10515  20.584   1.251   8.550
 3869POPC   D2A10516  20.589   1.199   8.250
 3869POPC   C3A10517  20.638   1.188   7.950
 3869POPC   C4A10518  20.609   1.183   7.650
 3869POPC   C1B10519  20.528   0.978   8.550
 3869POPC   C2B10520  20.528   0.963   8.250
 3869POPC   C3B10521  20.583   0.975   7.950
 3869POPC   C4B10522  20.519   0.971   7.650
 3870POPC   NC310523  26.832  19.094   9.450
 3870POPC   PO410524  26.806  19.096   9.150
 3870POPC   GL110525  26.821  19.096   8.850
 3870POPC   GL210526  26.762  19.135   8.850
 3870POPC   C1A10527  26.809  19.056   8.550
 3870POPC   D2A10528  26.840  19.015   8.250
 3870POPC   C3A10529  26.821  19.077   7.950
 3870POPC   C4A10530  26.814  19.052   7.650
 3870POPC   C1B10531  26.676  19.222   8.550
 3870POPC   C2B10532  26.625  19.215   8.250
 3870POPC   C3B10533  26.627  19.284   7.950
 3870POPC   C4B10534  26.619  19.187   7.650
 3871POPC   NC310535  34.556  38.435   9.450
 3871POPC   PO410536  34.552  38.504   9.150
 3871POPC   GL110537  34.535  38.444   8.850
 3871POPC   GL210538  34.651  38.527   8.850
 3871POPC   C1A10539  34.605  38.468   8.550
 3871POPC   D2A10540  34.542  38.501   8.250
 3871POPC   C3A10541  34.590  38.449   7.950
 3871POPC   C4A10542  34.596  38.490   7.650
 3871POPC   C1B10543  34.826  38.562   8.550
 3871POPC   C2B10544  34.734  38.627   8.250
 3871POPC   C3B10545  34.823  38.604   7.950
 3871POPC   C4B10546  34.798  38.584   7.650
 3872POPC   NC310547  18.303   6.637   9.450
 3872POPC   PO410548  18.266   6.656   9.150
 3872POPC   GL110549  18.314   6.694   8.850
 3872POPC   GL210550  18.443   6.651   8.850
 3872POPC   C1A10551  18.324   6.597   8.550
 3872POPC   D2A10552  18.321   6.650   8.250
 3872POPC   C3A10553  18.287   6.622   7.950
 3872POPC   C4A10554  18.289   6.604   7.650
 3872POPC   C1B10555  18.509   6.627   8.550
 3872POPC   C2B10556  18.516   6.629   8.250
 3872POPC   C3B10557  18.518   6.589   7.950
 3872POPC   C4B10558  18.536   6.667   7.650
 3873POPC   NC310559   4.292  22.162   9.450
 3873POPC   PO410560   4.327  22.134   9.150
 3873POPC   GL110561   4.301  22.123   8.850
 3873POPC   GL210562   4.228  22.232   8.850
 3873POPC   C1A10563   4.295  22.197   8.550
 3873POPC   D2A10564   4.355  22.148   8.250
 3873POPC   C3A10565   4.314  22.172   7.950
 3873POPC   C4A10566   4.333  22.120   7.650
 3873POPC   C1B10567   4.026  22.248   8.550
 3873POPC   C2B10568   4.077  22.233   8.250
 3873POPC   C3B10569   4.033  22.230   7.950
 3873POPC   C4B10570   4.049  22.168   7.650
 3874POPC   NC310571  20.627   1.962   9.450
 3874POPC   PO410572  20.586   1.978   9.150
 3874POPC   GL110573  20.641   2.035   8.850
 3874POPC   GL210574  20.697   1.971   8.850
 3874POPC   C1A10575  20.597   1.956   8.550
 3874POPC   D2A10576  20.596   1.967   8.250
 3874POPC   C3A10577  20.588   1.958   7.950
 3874POPC   C4A10578  20.578   1.948   7.650
 3874POPC   C1B10579  20.880   1.991   8.550
 3874POPC   C2B10580  20.887   1.993   8.250
 3874POPC   C3B10581  20.860   1.962   7.950
 3874POPC   C4B10582  20.892   2.035   7.650
 3875POPC   NC310583  29.913  15.933   9.450
 3875POPC   PO410584  29.902  16.001   9.150
 3875POPC   GL110585  29.935  15.950   8.850
 3875POPC   GL210586  29.774  16.068   8.850
 3875POPC   C1A10587  29.953  15.991   8.550
 3875POPC   D2A10588  29.893  15.972   8.250
 3875POPC   C3A10589  29.965  15.980   7.950
 3875POPC   C4A10590  29.881  15.980   7.650
 3875POPC   C1B10591  29.693  16.102   8.550
 3875POPC   C2B10592  29.766  16.078   8.250
 3875POPC   C3B10593  29.718  16.129   7.950
 3875POPC   C4B10594  29.722  16.127   7.650
 3876POPC   NC310595  20.586  24.463   9.450
 3876POPC   PO410596  20.568  24.496   9.150
 3876POPC   GL110597  20.595  24.517   8.850
 3876POPC   GL210598  20.578  24.573   8.850
 3876POPC   C1A10599  20.631  24.513   8.550
 3876POPC   D2A10600  20.607  24.466   8.250
 3876POPC   C3A10601  20.635  24.522   7.950
 3876POPC   C4A10602  20.566  24.478   7.650
 3876POPC   C1B10603  20.488  24.727   8.550
 3876POPC   C2B10604  20.494  24.667   8.250
 3876POPC   C3B10605  20.480  24.645   7.950
 3876POPC   C4B10606  20.405  24.653   7.650
 3877POPC   NC310607  26.814   2.775   9.450
 3877POPC   PO410608  26.804   2.726   9.150
 3877POPC   GL110609  26.786   2.781   8.850
 3877POPC   GL210610  26.715   2.805   8.850
 3877POPC   C1A10611  26.804   2.770   8.550
 3877POPC   D2A10612  26.835   2.761   8.250
 3877POPC   C3A10613  26.770   2.774   7.950
 3877POPC   C4A10614  26.783   2.755   7.650
 3877POPC   C1B10615  26.566   2.845   8.550
 3877POPC   C2B10616  26.629   2.868   8.250
 3877POPC   C3B10617  26.543   2.824   7.950
 3877POPC   C4B10618  26.620   2.887   7.650
 3878POPC   NC310619   8.179  44.697   9.450
 3878POPC   PO410620   8.213  44.640   9.150
 3878POPC   GL110621   8.156  44.631   8.850
 3878POPC   GL210622   8.249  44.775   8.850
 3878POPC   C1A10623   8.159  44.624   8.550
 3878POPC   D2A10624   8.220  44.686   8.250
 3878POPC   C3A10625   8.176  44.663   7.950
 3878POPC   C4A10626   8.161  44.695   7.650
 3878POPC   C1B10627   8.238  44.927   8.550
 3878POPC   C2B10628   8.218  44.911   8.250
 3878POPC   C3B10629   8.213  44.903   7.950
 3878POPC   C4B10630   8.237  44.944   7.650
 3879POPC   NC310631  22.955  21.414   9.450
 3879POPC   PO410632  22.889  21.418   9.150
 3879POPC   GL110633  22.923  21.423   8.850
 3879POPC   GL210634  23.018  21.257   8.850
 3879POPC   C1A10635  22.961  21.369   8.550
 3879POPC   D2A10636  22.908  21.338   8.250
 3879POPC   C3A10637  22.930  21.412   7.950
 3879POPC   C4A10638  22.950  21.428   7.650
 3879POPC   C1B10639  23.011  21.151   8.550
 3879POPC   C2B10640  23.050  21.128   8.250
 3879POPC   C3B10641  23.031  21.108   7.950
 3879POPC   C4B10642  23.034  21.154   7.650
 3880POPC   NC310643  43.914   8.952   9.450
 3880POPC   PO410644  43.913   8.943   9.150
 3880POPC   GL110645  43.889   8.974   8.850
 3880POPC   GL210646  43.927   9.034   8.850
 3880POPC   C1A10647  43.896   9.005   8.550
 3880POPC   D2A10648  43.877   9.004   8.250
 3880POPC   C3A10649  43.897   8.974   7.950
 3880POPC   C4A10650  43.901   8.985   7.650
 3880POPC   C1B10651  43.997   9.176   8.550
 3880POPC   C2B10652  44.038   9.176   8.250
 3880POPC   C3B10653  43.986   9.162   7.950
 3880POPC   C4B10654  44.047   9.159   7.650
 3881POPC   NC310655  40.016  23.722   9.450
 3881POPC   PO410656  40.031  23.761   9.150
 3881POPC   GL110657  39.987  23.732   8.850
 3881POPC   GL210658  39.919  23.790   8.850
 3881POPC   C1A10659  40.043  23.733   8.550
 3881POPC   D2A10660  40.031  23.677   8.250
 3881POPC   C3A10661  39.960  23.677   7.950
 3881POPC   C4A10662  39.986  23.731   7.650
 3881POPC   C1B10663  39.895  23.952   8.550
 3881POPC   C2B10664  39.923  23.939   8.250
 3881POPC   C3B10665  39.940  23.936   7.950
 3881POPC   C4B10666  39.875  23.893   7.650
 3882POPC   NC310667  13.620  33.825   9.450
 3882POPC   PO410668  13.677  33.799   9.150
 3882POPC   GL110669  13.633  33.826   8.850
 3882POPC   GL210670  13.707  33.879   8.850
 3882POPC   C1A10671  13.639  33.769   8.550
 3882POPC   D2A10672  13.653  33.832   8.250
 3882POPC   C3A10673  13.608  33.833   7.950
 3882POPC   C4A10674  13.628  33.837   7.650
 3882POPC   C1B10675  13.838  33.992   8.550
 3882POPC   C2B10676  13.832  33.946   8.250
 3882POPC   C3B10677  13.769  34.001   7.950
 3882POPC   C4B10678  13.776  34.001   7.650
 3883POPC   NC310679   8.982  16.762   9.450
 3883POPC   PO410680   8.974  16.697   9.150
 3883POPC   GL110681   8.971  16.752   8.850
 3883POPC   GL210682   9.144  16.749   8.850
 3883POPC   C1A10683   8.995  16.691   8.550
 3883POPC   D2A10684   8.987  16.756   8.250
 3883POPC   C3A10685   8.983  16.763   7.950
 3883POPC   C4A10686   8.933  16.720   7.650
 3883POPC   C1B10687   9.226  16.687   8.550
 3883POPC   C2B10688   9.253  16.637   8.250
 3883POPC   C3B10689   9.196  16.652   7.950
 3883POPC   C4B10690   9.256  16.698   7.650
 3884POPC   NC310691  26.073   1.198   9.450
 3884POPC   PO410692  26.004   1.234   9.150
 3884POPC   GL110693  26.005   1.177   8.850
 3884POPC   GL210694  26.200   1.257   8.850
 3884POPC   C1A10695  26.075   1.240   8.550
 3884POPC   D2A10696  25.994   1.227   8.250
 3884POPC   C3A10697  26.039   1.253   7.950
 3884POPC   C4A10698  26.089   1.244   7.650
 3884POPC   C1B10699  26.241   1.235   8.550
 3884POPC   C2B10700  26.296   1.275   8.250
 3884POPC   C3B10701  26.245   1.244   7.950
 3884POPC   C4B10702  26.313   1.287   7.650
 3885POPC   NC310703  14.357  26.043   9.450
 3885POPC   PO410704  14.424  26.059   9.150
 3885POPC   GL110705  14.376  26.039   8.850
 3885POPC   GL210706  14.489  25.924   8.850
 3885POPC   C1A10707  14.422  26.086   8.550
 3885POPC   D2A10708  14.405  25.995   8.250
 3885POPC   C3A10709  14.413  26.020   7.950
 3885POPC   C4A10710  14.357  26.081   7.650
 3885POPC   C1B10711  14.524  25.851   8.550
 3885POPC   C2B10712  14.554  25.814   8.250
 3885POPC   C3B10713  14.515  25.806   7.950
 3885POPC   C4B10714  14.518  25.773   7.650
 3886POPC   NC310715  33.760   2.023   9.450
 3886POPC   PO410716  33.812   2.035   9.150
 3886POPC   GL110717  33.780   2.025   8.850
 3886POPC   GL210718  33.719   1.972   8.850
 3886POPC   C1A10719  33.842   2.002   8.550
 3886POPC   D2A10720  33.806   2.005   8.250
 3886POPC   C3A10721  33.819   1.997   7.950
 3886POPC   C4A10722  33.824   1.957   7.650
 3886POPC   C1B10723  33.561   1.858   8.550
 3886POPC   C2B10724  33.542   1.875   8.250
 3886POPC   C3B10725  33.566   1.886   7.950
 3886POPC   C4B10726  33.606   1.837   7.650
 3887POPC   NC310727   1.233   9.765   9.450
 3887POPC   PO410728   1.235   9.719   9.150
 3887POPC   GL110729   1.172   9.702   8.850
 3887POPC   GL210730   1.317   9.743   8.850
 3887POPC   C1A10731   1.247   9.795   8.550
 3887POPC   D2A10732   1.223   9.771   8.250
 3887POPC   C3A10733   1.231   9.742   7.950
 3887POPC   C4A10734   1.172   9.746   7.650
 3887POPC   C1B10735   1.413   9.665   8.550
 3887POPC   C2B10736   1.438   9.665   8.250
 3887POPC   C3B10737   1.457   9.692   7.950
 3887POPC   C4B10738   1.509   9.718   7.650
 3888POPC   NC310739  43.912  24.491   9.450
 3888POPC   PO410740  43.934  24.532   9.150
 3888POPC   GL110741  43.859  24.487   8.850
 3888POPC   GL210742  43.933  24.599   8.850
 3888POPC   C1A10743  43.923  24.447   8.550
 3888POPC   D2A10744  43.923  24.502   8.250
 3888POPC   C3A10745  43.889  24.479   7.950
 3888POPC   C4A10746  43.909  24.486   7.650
 3888POPC   C1B10747  43.933  24.702   8.550
 3888POPC   C2B10748  43.900  24.764   8.250
 3888POPC   C3B10749  43.982  24.741   7.950
 3888POPC   C4B10750  43.939  24.683   7.650
 3889POPC   NC310751  36.098  38.443   9.450
 3889POPC   PO410752  36.120  38.432   9.150
 3889POPC   GL110753  36.156  38.455   8.850
 3889POPC   GL210754  36.218  38.575   8.850
 3889POPC   C1A10755  36.132  38.439   8.550
 3889POPC   D2A10756  36.112  38.502   8.250
 3889POPC   C3A10757  36.099  38.431   7.950
 3889POPC   C4A10758  36.088  38.493   7.650
 3889POPC   C1B10759  36.217  38.634   8.550
 3889POPC   C2B10760  36.299  38.666   8.250
 3889POPC   C3B10761  36.252  38.690   7.950
 3889POPC   C4B10762  36.209  38.666   7.650
 3890POPC   NC310763   7.434  25.246   9.450
 3890POPC   PO410764   7.441  25.308   9.150
 3890POPC   GL110765   7.375  25.301   8.850
 3890POPC   GL210766   7.395  25.433   8.850
 3890POPC   C1A10767   7.419  25.298   8.550
 3890POPC   D2A10768   7.452  25.236   8.250
 3890POPC   C3A10769   7.464  25.255   7.950
 3890POPC   C4A10770   7.379  25.285   7.650
 3890POPC   C1B10771   7.361  25.561   8.550
 3890POPC   C2B10772   7.392  25.520   8.250
 3890POPC   C3B10773   7.346  25.476   7.950
 3890POPC   C4B10774   7.330  25.517   7.650
 3891POPC   NC310775  36.888  12.841   9.450
 3891POPC   PO410776  36.888  12.891   9.150
 3891POPC   GL110777  36.925  12.878   8.850
 3891POPC   GL210778  36.827  12.915   8.850
 3891POPC   C1A10779  36.860  12.858   8.550
 3891POPC   D2A10780  36.938  12.878   8.250
 3891POPC   C3A10781  36.918  12.894   7.950
 3891POPC   C4A10782  36.902  12.822   7.650
 3891POPC   C1B10783  36.660  12.921   8.550
 3891POPC   C2B10784  36.697  12.915   8.250
 3891POPC   C3B10785  36.619  12.920   7.950
 3891POPC   C4B10786  36.685  12.881   7.650
 3892POPC   NC310787  28.343  24.447   9.450
 3892POPC   PO410788  28.322  24.529   9.150
 3892POPC   GL110789  28.403  24.468   8.850
 3892POPC   GL210790  28.380  24.328   8.850
 3892POPC   C1A10791  28.371  24.505   8.550
 3892POPC   D2A10792  28.325  24.484   8.250
 3892POPC   C3A10793  28.350  24.441   7.950
 3892POPC   C4A10794  28.365  24.477   7.650
 3892POPC   C1B10795  28.453  24.253   8.550
 3892POPC   C2B10796  28.381  24.216   8.250
 3892POPC   C3B10797  28.430  24.224   7.950
 3892POPC   C4B10798  28.470  24.272   7.650
 3893POPC   NC310799   2.763  26.803   9.450
 3893POPC   PO410800   2.749  26.784   9.150
 3893POPC   GL110801   2.804  26.800   8.850
 3893POPC   GL210802   2.740  26.924   8.850
 3893POPC   C1A10803   2.771  26.823   8.550
 3893POPC   D2A10804   2.749  26.809   8.250
 3893POPC   C3A10805   2.805  26.816   7.950
 3893POPC   C4A10806   2.807  26.855   7.650
 3893POPC   C1B10807   2.730  27.032   8.550
 3893POPC   C2B10808   2.691  27.071   8.250
 3893POPC   C3B10809   2.725  27.032   7.950
 3893POPC   C4B10810   2.740  27.092   7.650
 3894POPC   NC310811   1.995  12.106   9.450
 3894POPC   PO410812   1.960  12.030   9.150
 3894POPC   GL110813   2.039  12.042   8.850
 3894POPC   GL210814   2.133  12.148   8.850
 3894POPC   C1A10815   2.018  12.029   8.550
 3894POPC   D2A10816   1.981  12.063   8.250
 3894POPC   C3A10817   1.976  12.080   7.950
 3894POPC   C4A10818   1.976  12.054   7.650
 3894POPC   C1B10819   2.244  12.228   8.550
 3894POPC   C2B10820   2.190  12.227   8.250
 3894POPC   C3B10821   2.162  12.210   7.950
 3894POPC   C4B10822   2.172  12.144   7.650
 3895POPC   NC310823   1.234   2.721   9.450
 3895POPC   PO410824   1.259   2.803   9.150
 3895POPC   GL110825   1.167   2.791   8.850
 3895POPC   GL210826   1.367   2.747   8.850
 3895POPC   C1A10827   1.203   2.771   8.550
 3895POPC   D2A10828   1.182   2.791   8.250
 3895POPC   C3A10829   1.224   2.769   7.950
 3895POPC   C4A10830   1.238   2.807   7.650
 3895POPC   C1B10831   1.465   2.849   8.550
 3895POPC   C2B10832   1.496   2.776   8.250
 3895POPC   C3B10833   1.443   2.797   7.950
 3895POPC   C4B10834   1.498   2.783   7.650
 3896POPC   NC310835  13.652  17.468   9.450
 3896POPC   PO410836  13.638  17.555   9.150
 3896POPC   GL110837  13.611  17.529   8.850
 3896POPC   GL210838  13.617  17.412   8.850
 3896POPC   C1A10839  13.587  17.466   8.550
 3896POPC   D2A10840  13.600  17.472   8.250
 3896POPC   C3A10841  13.618  17.475   7.950
 3896POPC   C4A10842  13.598  17.508   7.650
 3896POPC   C1B10843  13.504  17.306   8.550
 3896POPC   C2B10844  13.509  17.291   8.250
 3896POPC   C3B10845  13.477  17.270   7.950
 3896POPC   C4B10846  13.514  17.317   7.650
 3897POPC   NC310847  40.000  42.301   9.450
 3897POPC   PO410848  39.992  42.299   9.150
 3897POPC   GL110849  39.959  42.306   8.850
 3897POPC   GL210850  39.929  42.313   8.850
 3897POPC   C1A10851  39.988  42.330   8.550
 3897POPC   D2A10852  40.049  42.370   8.250
 3897POPC   C3A10853  39.966  42.354   7.950
 3897POPC   C4A10854  39.989  42.358   7.650
 3897POPC   C1B10855  39.760  42.355   8.550
 3897POPC   C2B10856  39.763  42.300   8.250
 3897POPC   C3B10857  39.765  42.296   7.950
 3897POPC   C4B10858  39.733  42.364   7.650
 3898POPC   NC310859   7.386  29.875   9.450
 3898POPC   PO410860   7.408  29.873   9.150
 3898POPC   GL110861   7.415  29.967   8.850
 3898POPC   GL210862   7.488  29.836   8.850
 3898POPC   C1A10863   7.386  29.910   8.550
 3898POPC   D2A10864   7.433  29.943   8.250
 3898POPC   C3A10865   7.462  29.874   7.950
 3898POPC   C4A10866   7.431  29.948   7.650
 3898POPC   C1B10867   7.640  29.815   8.550
 3898POPC   C2B10868   7.651  29.807   8.250
 3898POPC   C3B10869   7.637  29.775   7.950
 3898POPC   C4B10870   7.602  29.841   7.650
 3899POPC   NC310871   9.765   0.393   9.450
 3899POPC   PO410872   9.756   0.481   9.150
 3899POPC   GL110873   9.783   0.464   8.850
 3899POPC   GL210874   9.635   0.511   8.850
 3899POPC   C1A10875   9.743   0.471   8.550
 3899POPC   D2A10876   9.779   0.472   8.250
 3899POPC   C3A10877   9.783   0.432   7.950
 3899POPC   C4A10878   9.724   0.404   7.650
 3899POPC   C1B10879   9.468   0.570   8.550
 3899POPC   C2B10880   9.518   0.530   8.250
 3899POPC   C3B10881   9.543   0.514   7.950
 3899POPC   C4B10882   9.471   0.544   7.650
 3900POPC   NC310883   3.515   1.249   9.450
 3900POPC   PO410884   3.587   1.169   9.150
 3900POPC   GL110885   3.553   1.209   8.850
 3900POPC   GL210886   3.518   1.312   8.850
 3900POPC   C1A10887   3.563   1.178   8.550
 3900POPC   D2A10888   3.512   1.206   8.250
 3900POPC   C3A10889   3.576   1.213   7.950
 3900POPC   C4A10890   3.590   1.247   7.650
 3900POPC   C1B10891   3.417   1.468   8.550
 3900POPC   C2B10892   3.440   1.429   8.250
 3900POPC   C3B10893   3.479   1.425   7.950
 3900POPC   C4B10894   3.414   1.469   7.650
 3901POPC   NC310895  40.792  13.608   9.450
 3901POPC   PO410896  40.741  13.662   9.150
 3901POPC   GL110897  40.737  13.593   8.850
 3901POPC   GL210898  40.842  13.748   8.850
 3901POPC   C1A10899  40.779  13.660   8.550
 3901POPC   D2A10900  40.748  13.623   8.250
 3901POPC   C3A10901  40.832  13.601   7.950
 3901POPC   C4A10902  40.773  13.672   7.650
 3901POPC   C1B10903  40.898  13.794   8.550
 3901POPC   C2B10904  40.922  13.866   8.250
 3901POPC   C3B10905  40.892  13.837   7.950
 3901POPC   C4B10906  40.949  13.854   7.650
 3902POPC   NC310907  32.277  39.228   9.450
 3902POPC   PO410908  32.199  39.249   9.150
 3902POPC   GL110909  32.242  39.246   8.850
 3902POPC   GL210910  32.355  39.117   8.850
 3902POPC   C1A10911  32.243  39.238   8.550
 3902POPC   D2A10912  32.291  39.229   8.250
 3902POPC   C3A10913  32.247  39.214   7.950
 3902POPC   C4A10914  32.237  39.217   7.650
 3902POPC   C1B10915  32.342  39.021   8.550
 3902POPC   C2B10916  32.400  39.006   8.250
 3902POPC   C3B10917  32.358  39.045   7.950
 3902POPC   C4B10918  32.340  39.038   7.650
 3903POPC   NC310919  43.081   3.524   9.450
 3903POPC   PO410920  43.117   3.503   9.150
 3903POPC   GL110921  43.089   3.534   8.850
 3903POPC   GL210922  43.051   3.429   8.850
 3903POPC   C1A10923  43.066   3.562   8.550
 3903POPC   D2A10924  43.134   3.567   8.250
 3903POPC   C3A10925  43.061   3.564   7.950
 3903POPC   C4A10926  43.066   3.528   7.650
 3903POPC   C1B10927  42.992   3.300   8.550
 3903POPC   C2B10928  42.976   3.316   8.250
 3903POPC   C3B10929  43.000   3.301   7.950
 3903POPC   C4B10930  42.925   3.293   7.650
 3904POPC   NC310931  10.547  29.190   9.450
 3904POPC   PO410932  10.548  29.139   9.150
 3904POPC   GL110933  10.519  29.098   8.850
 3904POPC   GL210934  10.621  29.231   8.850
 3904POPC   C1A10935  10.534  29.169   8.550
 3904POPC   D2A10936  10.543  29.166   8.250
 3904POPC   C3A10937  10.530  29.166   7.950
 3904POPC   C4A10938  10.511  29.108   7.650
 3904POPC   C1B10939  10.701  29.257   8.550
 3904POPC   C2B10940  10.774  29.262   8.250
 3904POPC   C3B10941  10.706  29.271   7.950
 3904POPC   C4B10942  10.738  29.231   7.650
 3905POPC   NC310943  31.466  41.583   9.450
 3905POPC   PO410944  31.472  41.509   9.150
 3905POPC   GL110945  31.429  41.593   8.850
 3905POPC   GL210946  31.357  41.660   8.850
 3905POPC   C1A10947  31.519  41.603   8.550
 3905POPC   D2A10948  31.509  41.544   8.250
 3905POPC   C3A10949  31.437  41.602   7.950
 3905POPC   C4A10950  31.427  41.518   7.650
 3905POPC   C1B10951  31.272  41.694   8.550
 3905POPC   C2B10952  31.217  41.670   8.250
 3905POPC   C3B10953  31.216  41.676   7.950
 3905POPC   C4B10954  31.245  41.636   7.650
 3906POPC   NC310955   0.415  15.187   9.450
 3906POPC   PO410956   0.466  15.210   9.150
 3906POPC   GL110957   0.399  15.170   8.850
 3906POPC   GL210958   0.503  15.179   8.850
 3906POPC   C1A10959   0.470  15.172   8.550
 3906POPC   D2A10960   0.469  15.140   8.250
 3906POPC   C3A10961   0.432  15.132   7.950
 3906POPC   C4A10962   0.414  15.155   7.650
 3906POPC   C1B10963   0.624  15.324   8.550
 3906POPC   C2B10964   0.655  15.252   8.250
 3906POPC   C3B10965   0.637  15.241   7.950
 3906POPC   C4B10966   0.690  15.288   7.650
 3907POPC   NC310967  10.506   3.567   9.450
 3907POPC   PO410968  10.539   3.579   9.150
 3907POPC   GL110969  10.522   3.527   8.850
 3907POPC   GL210970  10.442   3.436   8.850
 3907POPC   C1A10971  10.570   3.521   8.550
 3907POPC   D2A10972  10.495   3.550   8.250
 3907POPC   C3A10973  10.490   3.568   7.950
 3907POPC   C4A10974  10.560   3.518   7.650
 3907POPC   C1B10975  10.289   3.388   8.550
 3907POPC   C2B10976  10.280   3.364   8.250
 3907POPC   C3B10977  10.340   3.412   7.950
 3907POPC   C4B10978  10.288   3.358   7.650
 3908POPC   NC310979  44.680  14.377   9.450
 3908POPC   PO410980  44.627  14.368   9.150
 3908POPC   GL110981  44.689  14.433   8.850
 3908POPC   GL210982  44.763  14.433   8.850
 3908POPC   C1A10983  44.637  14.410   8.550
 3908POPC   D2A10984  44.634  14.430   8.250
 3908POPC   C3A10985  44.644  14.423   7.950
 3908POPC   C4A10986  44.696  14.367   7.650
 3908POPC   C1B10987  44.896  14.514   8.550
 3908POPC   C2B10988  44.874  14.438   8.250
 3908POPC   C3B10989  44.942  14.501   7.950
 3908POPC   C4B10990  44.891  14.447   7.650
 3909POPC   NC310991  26.035  12.812   9.450
 3909POPC   PO410992  26.058  12.898   9.150
 3909POPC   GL110993  26.090  12.847   8.850
 3909POPC   GL210994  26.036  12.950   8.850
 3909POPC   C1A10995  26.013  12.851   8.550
 3909POPC   D2A10996  26.025  12.879   8.250
 3909POPC   C3A10997  26.079  12.804   7.950
 3909POPC   C4A10998  26.056  12.874   7.650
 3909POPC   C1B10999  26.032  13.147   8.550
 3909POPC   C2B11000  26.024  13.058   8.250
 3909POPC   C3B11001  25.986  13.077   7.950
 3909POPC   C4B11002  25.992  13.111   7.650
 3910POPC   NC311003  19.009  36.137   9.450
 3910POPC   PO411004  19.021  36.102   9.150
 3910POPC   GL111005  19.016  36.136   8.850
 3910POPC   GL211006  19.016  35.957   8.850
 3910POPC   C1A11007  19.071  36.149   8.550
 3910POPC   D2A11008  19.020  36.153   8.250
 3910POPC   C3A11009  19.083  36.121   7.950
 3910POPC   C4A11010  19.089  36.137   7.650
 3910POPC   C1B11011  19.031  35.886   8.550
 3910POPC   C2B11012  19.018  35.885   8.250
 3910POPC   C3B11013  19.086  35.898   7.950
 3910POPC   C4B11014  19.084  35.884   7.650
 3911POPC   NC311015  36.894   2.789   9.450
 3911POPC   PO411016  36.870   2.767   9.150
 3911POPC   GL111017  36.932   2.779   8.850
 3911POPC   GL211018  36.854   2.641   8.850
 3911POPC   C1A11019  36.897   2.723   8.550
 3911POPC   D2A11020  36.894   2.783   8.250
 3911POPC   C3A11021  36.894   2.765   7.950
 3911POPC   C4A11022  36.859   2.780   7.650
 3911POPC   C1B11023  36.857   2.477   8.550
 3911POPC   C2B11024  36.903   2.542   8.250
 3911POPC   C3B11025  36.843   2.509   7.950
 3911POPC   C4B11026  36.940   2.472   7.650
 3912POPC   NC311027  43.066   8.979   9.450
 3912POPC   PO411028  43.145   8.996   9.150
 3912POPC   GL111029  43.097   9.022   8.850
 3912POPC   GL211030  43.199   8.893   8.850
 3912POPC   C1A11031  43.087   8.986   8.550
 3912POPC   D2A11032  43.132   8.998   8.250
 3912POPC   C3A11033  43.078   8.928   7.950
 3912POPC   C4A11034  43.119   8.942   7.650
 3912POPC   C1B11035  43.246   8.720   8.550
 3912POPC   C2B11036  43.241   8.742   8.250
 3912POPC   C3B11037  43.218   8.706   7.950
 3912POPC   C4B11038  43.234   8.748   7.650
 3913POPC   NC311039  24.487  15.144   9.450
 3913POPC   PO411040  24.472  15.182   9.150
 3913POPC   GL111041  24.523  15.143   8.850
 3913POPC   GL211042  24.483  15.084   8.850
 3913POPC   C1A11043  24.492  15.168   8.550
 3913POPC   D2A11044  24.452  15.198   8.250
 3913POPC   C3A11045  24.446  15.140   7.950
 3913POPC   C4A11046  24.515  15.200   7.650
 3913POPC   C1B11047  24.522  14.971   8.550
 3913POPC   C2B11048  24.496  14.935   8.250
 3913POPC   C3B11049  24.514  14.883   7.950
 3913POPC   C4B11050  24.450  14.951   7.650
 3914POPC   NC311051   2.016   6.598   9.450
 3914POPC   PO411052   2.002   6.673   9.150
 3914POPC   GL111053   2.026   6.643   8.850
 3914POPC   GL211054   1.958   6.763   8.850
 3914POPC   C1A11055   2.010   6.613   8.550
 3914POPC   D2A11056   1.956   6.632   8.250
 3914POPC   C3A11057   2.023   6.639   7.950
 3914POPC   C4A11058   1.951   6.675   7.650
 3914POPC   C1B11059   1.920   6.891   8.550
 3914POPC   C2B11060   1.922   6.858   8.250
 3914POPC   C3B11061   1.985   6.853   7.950
 3914POPC   C4B11062   1.954   6.879   7.650
 3915POPC   NC311063  38.481  34.597   9.450
 3915POPC   PO411064  38.499  34.593   9.150
 3915POPC   GL111065  38.431  34.572   8.850
 3915POPC   GL211066  38.558  34.566   8.850
 3915POPC   C1A11067  38.425  34.561   8.550
 3915POPC   D2A11068  38.497  34.561   8.250
 3915POPC   C3A11069  38.453  34.583   7.950
 3915POPC   C4A11070  38.437  34.574   7.650
 3915POPC   C1B11071  38.747  34.601   8.550
 3915POPC   C2B11072  38.710  34.570   8.250
 3915POPC   C3B11073  38.743  34.587   7.950
 3915POPC   C4B11074  38.676  34.621   7.650
 3916POPC   NC311075  43.861  33.774   9.450
 3916POPC   PO411076  43.859  33.834   9.150
 3916POPC   GL111077  43.862  33.776   8.850
 3916POPC   GL211078  43.758  33.735   8.850
 3916POPC   C1A11079  43.872  33.782   8.550
 3916POPC   D2A11080  43.907  33.845   8.250
 3916POPC   C3A11081  43.896  33.778   7.950
 3916POPC   C4A11082  43.888  33.752   7.650
 3916POPC   C1B11083  43.642  33.662   8.550
 3916POPC   C2B11084  43.695  33.722   8.250
 3916POPC   C3B11085  43.644  33.645   7.950
 3916POPC   C4B11086  43.644  33.669   7.650
 3917POPC   NC311087   1.212  26.006   9.450
 3917POPC   PO411088   1.258  26.038   9.150
 3917POPC   GL111089   1.206  26.072   8.850
 3917POPC   GL211090   1.163  25.959   8.850
 3917POPC   C1A11091   1.171  26.047   8.550
 3917POPC   D2A11092   1.249  26.033   8.250
 3917POPC   C3A11093   1.186  25.994   7.950
 3917POPC   C4A11094   1.222  26.053   7.650
 3917POPC   C1B11095   1.041  25.895   8.550
 3917POPC   C2B11096   1.075  25.909   8.250
 3917POPC   C3B11097   1.004  25.879   7.950
 3917POPC   C4B11098   1.008  25.840   7.650
 3918POPC   NC311099  42.304  28.387   9.450
 3918POPC   PO411100  42.375  28.416   9.150
 3918POPC   GL111101  42.384  28.370   8.850
 3918POPC   GL211102  42.434  28.419   8.850
 3918POPC   C1A11103  42.313  28.356   8.550
 3918POPC   D2A11104  42.375  28.362   8.250
 3918POPC   C3A11105  42.320  28.320   7.950
 3918POPC   C4A11106  42.308  28.368   7.650
 3918POPC   C1B11107  42.559  28.420   8.550
 3918POPC   C2B11108  42.563  28.397   8.250
 3918POPC   C3B11109  42.593  28.405   7.950
 3918POPC   C4B11110  42.624  28.414   7.650
 3919POPC   NC311111  20.577  43.099   9.450
 3919POPC   PO411112  20.646  43.138   9.150
 3919POPC   GL111113  20.654  43.101   8.850
 3919POPC   GL211114  20.766  43.051   8.850
 3919POPC   C1A11115  20.656  43.095   8.550
 3919POPC   D2A11116  20.609  43.148   8.250
 3919POPC   C3A11117  20.628  43.083   7.950
 3919POPC   C4A11118  20.655  43.064   7.650
 3919POPC   C1B11119  20.885  43.075   8.550
 3919POPC   C2B11120  20.895  43.078   8.250
 3919POPC   C3B11121  20.823  43.098   7.950
 3919POPC   C4B11122  20.900  43.118   7.650
 3920POPC   NC311123  22.985  32.276   9.450
 3920POPC   PO411124  22.892  32.284   9.150
 3920POPC   GL111125  22.913  32.285   8.850
 3920POPC   GL211126  22.950  32.168   8.850
 3920POPC   C1A11127  22.900  32.218   8.550
 3920POPC   D2A11128  22.950  32.261   8.250
 3920POPC   C3A11129  22.965  32.282   7.950
 3920POPC   C4A11130  22.912  32.231   7.650
 3920POPC   C1B11131  22.953  31.958   8.550
 3920POPC   C2B11132  22.883  32.005   8.250
 3920POPC   C3B11133  22.966  31.992   7.950
 3920POPC   C4B11134  22.923  32.012   7.650
 3921POPC   NC311135  23.706  35.360   9.450
 3921POPC   PO411136  23.727  35.322   9.150
 3921POPC   GL111137  23.722  35.399   8.850
 3921POPC   GL211138  23.846  35.388   8.850
 3921POPC   C1A11139  23.685  35.338   8.550
 3921POPC   D2A11140  23.713  35.330   8.250
 3921POPC   C3A11141  23.679  35.328   7.950
 3921POPC   C4A11142  23.686  35.307   7.650
 3921POPC   C1B11143  23.994  35.403   8.550
 3921POPC   C2B11144  23.997  35.455   8.250
 3921POPC   C3B11145  23.907  35.437   7.950
 3921POPC   C4B11146  23.913  35.426   7.650
 3922POPC   NC311147   5.869  27.576   9.450
 3922POPC   PO411148   5.849  27.641   9.150
 3922POPC   GL111149   5.840  27.607   8.850
 3922POPC   GL211150   5.850  27.742   8.850
 3922POPC   C1A11151   5.835  27.628   8.550
 3922POPC   D2A11152   5.867  27.614   8.250
 3922POPC   C3A11153   5.884  27.615   7.950
 3922POPC   C4A11154   5.861  27.629   7.650
 3922POPC   C1B11155   5.863  27.826   8.550
 3922POPC   C2B11156   5.858  27.828   8.250
 3922POPC   C3B11157   5.779  27.800   7.950
 3922POPC   C4B11158   5.811  27.884   7.650
 3923POPC   NC311159  34.584  22.179   9.450
 3923POPC   PO411160  34.581  22.149   9.150
 3923POPC   GL111161  34.600  22.126   8.850
 3923POPC   GL211162  34.503  22.177   8.850
 3923POPC   C1A11163  34.562  22.156   8.550
 3923POPC   D2A11164  34.570  22.196   8.250
 3923POPC   C3A11165  34.539  22.194   7.950
 3923POPC   C4A11166  34.578  22.209   7.650
 3923POPC   C1B11167  34.377  22.195   8.550
 3923POPC   C2B11168  34.299  22.282   8.250
 3923POPC   C3B11169  34.344  22.255   7.950
 3923POPC   C4B11170  34.328  22.281   7.650
 3924POPC   NC311171  33.816  40.037   9.450
 3924POPC   PO411172  33.830  39.981   9.150
 3924POPC   GL111173  33.828  39.969   8.850
 3924POPC   GL211174  33.648  40.005   8.850
 3924POPC   C1A11175  33.769  39.999   8.550
 3924POPC   D2A11176  33.829  39.970   8.250
 3924POPC   C3A11177  33.823  40.024   7.950
 3924POPC   C4A11178  33.804  40.011   7.650
 3924POPC   C1B11179  33.581  39.955   8.550
 3924POPC   C2B11180  33.546  40.000   8.250
 3924POPC   C3B11181  33.514  39.972   7.950
 3924POPC   C4B11182  33.591  40.011   7.650
 3925POPC   NC311183   3.586  40.761   9.450
 3925POPC   PO411184   3.535  40.833   9.150
 3925POPC   GL111185   3.541  40.769   8.850
 3925POPC   GL211186   3.656  40.906   8.850
 3925POPC   C1A11187   3.591  40.760   8.550
 3925POPC   D2A11188   3.559  40.795   8.250
 3925POPC   C3A11189   3.586  40.801   7.950
 3925POPC   C4A11190   3.589  40.825   7.650
 3925POPC   C1B11191   3.684  40.999   8.550
 3925POPC   C2B11192   3.715  41.010   8.250
 3925POPC   C3B11193   3.636  40.960   7.950
 3925POPC   C4B11194   3.703  41.011   7.650
 3926POPC   NC311195  34.614  17.481   9.450
 3926POPC   PO411196  34.623  17.504   9.150
 3926POPC   GL111197  34.568  17.486   8.850
 3926POPC   GL211198  34.471  17.614   8.850
 3926POPC   C1A11199  34.529  17.537   8.550
 3926POPC   D2A11200  34.596  17.475   8.250
 3926POPC   C3A11201  34.535  17.484   7.950
 3926POPC   C4A11202  34.527  17.539   7.650
 3926POPC   C1B11203  34.399  17.722   8.550
 3926POPC   C2B11204  34.431  17.669   8.250
 3926POPC   C3B11205  34.460  17.739   7.950
 3926POPC   C4B11206  34.458  17.723   7.650
 3927POPC   NC311207  43.118  13.611   9.450
 3927POPC   PO411208  43.134  13.616   9.150
 3927POPC   GL111209  43.094  13.660   8.850
 3927POPC   GL211210  43.253  13.592   8.850
 3927POPC   C1A11211  43.140  13.588   8.550
 3927POPC   D2A11212  43.114  13.670   8.250
 3927POPC   C3A11213  43.124  13.641   7.950
 3927POPC   C4A11214  43.124  13.603   7.650
 3927POPC   C1B11215  43.353  13.578   8.550
 3927POPC   C2B11216  43.375  13.645   8.250
 3927POPC   C3B11217  43.384  13.609   7.950
 3927POPC   C4B11218  43.409  13.582   7.650
 3928POPC   NC311219  32.245  34.599   9.450
 3928POPC   PO411220  32.252  34.562   9.150
 3928POPC   GL111221  32.277  34.559   8.850
 3928POPC   GL211222  32.400  34.605   8.850
 3928POPC   C1A11223  32.228  34.612   8.550
 3928POPC   D2A11224  32.270  34.542   8.250
 3928POPC   C3A11225  32.258  34.590   7.950
 3928POPC   C4A11226  32.262  34.603   7.650
 3928POPC   C1B11227  32.456  34.609   8.550
 3928POPC   C2B11228  32.449  34.697   8.250
 3928POPC   C3B11229  32.517  34.663   7.950
 3928POPC   C4B11230  32.465  34.677   7.650
 3929POPC   NC311231  33.013   1.967   9.450
 3929POPC   PO411232  33.051   1.987   9.150
 3929POPC   GL111233  32.981   2.002   8.850
 3929POPC   GL211234  32.895   1.962   8.850
 3929POPC   C1A11235  32.986   2.002   8.550
 3929POPC   D2A11236  33.022   2.007   8.250
 3929POPC   C3A11237  33.012   1.988   7.950
 3929POPC   C4A11238  32.982   1.982   7.650
 3929POPC   C1B11239  32.792   1.848   8.550
 3929POPC   C2B11240  32.814   1.932   8.250
 3929POPC   C3B11241  32.762   1.904   7.950
 3929POPC   C4B11242  32.837   1.905   7.650
 3930POPC   NC311243  15.937  13.585   9.450
 3930POPC   PO411244  15.925  13.637   9.150
 3930POPC   GL111245  15.939  13.672   8.850
 3930POPC   GL211246  15.837  13.725   8.850
 3930POPC   C1A11247  15.952  13.606   8.550
 3930POPC   D2A11248  15.930  13.656   8.250
 3930POPC   C3A11249  15.939  13.653   7.950
 3930POPC   C4A11250  15.977  13.593   7.650
 3930POPC   C1B11251  15.732  13.778   8.550
 3930POPC   C2B11252  15.778  13.689   8.250
 3930POPC   C3B11253  15.702  13.751   7.950
 3930POPC   C4B11254  15.739  13.736   7.650
 3931POPC   NC311255   1.225  11.339   9.450
 3931POPC   PO411256   1.249  11.334   9.150
 3931POPC   GL111257   1.250  11.329   8.850
 3931POPC   GL211258   1.264  11.362   8.850
 3931POPC   C1A11259   1.214  11.322   8.550
 3931POPC   D2A11260   1.234  11.319   8.250
 3931POPC   C3A11261   1.218  11.308   7.950
 3931POPC   C4A11262   1.205  11.302   7.650
 3931POPC   C1B11263   1.356  11.470   8.550
 3931POPC   C2B11264   1.375  11.501   8.250
 3931POPC   C3B11265   1.432  11.428   7.950
 3931POPC   C4B11266   1.383  11.439   7.650
 3932POPC   NC311267  44.655  24.514   9.450
 3932POPC   PO411268  44.636  24.512   9.150
 3932POPC   GL111269  44.694  24.481   8.850
 3932POPC   GL211270  44.671  24.350   8.850
 3932POPC   C1A11271  44.710  24.515   8.550
 3932POPC   D2A11272  44.710  24.446   8.250
 3932POPC   C3A11273  44.657  24.506   7.950
 3932POPC   C4A11274  44.675  24.511   7.650
 3932POPC   C1B11275  44.630  24.255   8.550
 3932POPC   C2B11276  44.648  24.254   8.250
 3932POPC   C3B11277  44.632  24.221   7.950
 3932POPC   C4B11278  44.713  24.284   7.650
 3933POPC   NC311279  12.060  10.540   9.450
 3933POPC   PO411280  12.112  10.528   9.150
 3933POPC   GL111281  12.115  10.540   8.850
 3933POPC   GL211282  12.050  10.384   8.850
 3933POPC   C1A11283  12.063  10.487   8.550
 3933POPC   D2A11284  12.065  10.500   8.250
 3933POPC   C3A11285  12.047  10.501   7.950
 3933POPC   C4A11286  12.121  10.541   7.650
 3933POPC   C1B11287  11.927  10.344   8.550
 3933POPC   C2B11288  11.953  10.324   8.250
 3933POPC   C3B11289  11.978  10.261   7.950
 3933POPC   C4B11290  12.019  10.342   7.650
 3934POPC   NC311291  44.687   9.740   9.450
 3934POPC   PO411292  44.614   9.797   9.150
 3934POPC   GL111293  44.647   9.793   8.850
 3934POPC   GL211294  44.532   9.764   8.850
 3934POPC   C1A11295  44.673   9.789   8.550
 3934POPC   D2A11296  44.661   9.782   8.250
 3934POPC   C3A11297  44.641   9.706   7.950
 3934POPC   C4A11298  44.678   9.729   7.650
 3934POPC   C1B11299  44.434   9.748   8.550
 3934POPC   C2B11300  44.367   9.730   8.250
 3934POPC   C3B11301  44.436   9.767   7.950
 3934POPC   C4B11302  44.420   9.735   7.650
 3935POPC   NC311303  21.337   1.198   9.450
 3935POPC   PO411304  21.365   1.205   9.150
 3935POPC   GL111305  21.412   1.210   8.850
 3935POPC   GL211306  21.496   1.294   8.850
 3935POPC   C1A11307  21.353   1.175   8.550
 3935POPC   D2A11308  21.423   1.225   8.250
 3935POPC   C3A11309  21.344   1.262   7.950
 3935POPC   C4A11310  21.396   1.251   7.650
 3935POPC   C1B11311  21.604   1.389   8.550
 3935POPC   C2B11312  21.611   1.339   8.250
 3935POPC   C3B11313  21.589   1.405   7.950
 3935POPC   C4B11314  21.607   1.362   7.650
 3936POPC   NC311315  13.660  25.265   9.450
 3936POPC   PO411316  13.664  25.256   9.150
 3936POPC   GL111317  13.660  25.274   8.850
 3936POPC   GL211318  13.558  25.304   8.850
 3936POPC   C1A11319  13.624  25.269   8.550
 3936POPC   D2A11320  13.598  25.271   8.250
 3936POPC   C3A11321  13.677  25.279   7.950
 3936POPC   C4A11322  13.651  25.309   7.650
 3936POPC   C1B11323  13.426  25.436   8.550
 3936POPC   C2B11324  13.438  25.401   8.250
 3936POPC   C3B11325  13.445  25.424   7.950
 3936POPC   C4B11326  13.405  25.433   7.650
 3937POPC   NC311327  26.001  15.920   9.450
 3937POPC   PO411328  25.993  15.966   9.150
 3937POPC   GL111329  26.028  15.966   8.850
 3937POPC   GL211330  25.897  16.029   8.850
 3937POPC   C1A11331  26.024  15.971   8.550
 3937POPC   D2A11332  26.054  15.974   8.250
 3937POPC   C3A11333  26.025  15.945   7.950
 3937POPC   C4A11334  26.067  15.950   7.650
 3937POPC   C1B11335  25.786  16.067   8.550
 3937POPC   C2B11336  25.813  16.097   8.250
 3937POPC   C3B11337  25.841  16.129   7.950
 3937POPC   C4B11338  25.823  16.091   7.650
 3938POPC   NC311339  43.150  28.332   9.450
 3938POPC   PO411340  43.139  28.358   9.150
 3938POPC   GL111341  43.117  28.331   8.850
 3938POPC   GL211342  43.207  28.273   8.850
 3938POPC   C1A11343  43.130  28.400   8.550
 3938POPC   D2A11344  43.096  28.358   8.250
 3938POPC   C3A11345  43.137  28.325   7.950
 3938POPC   C4A11346  43.150  28.354   7.650
 3938POPC   C1B11347  43.324  28.304   8.550
 3938POPC   C2B11348  43.307  28.264   8.250
 3938POPC   C3B11349  43.358  28.272   7.950
 3938POPC   C4B11350  43.317  28.270   7.650
 3939POPC   NC311351  18.259  28.349   9.450
 3939POPC   PO411352  18.252  28.320   9.150
 3939POPC   GL111353  18.321  28.342   8.850
 3939POPC   GL211354  18.369  28.488   8.850
 3939POPC   C1A11355  18.258  28.379   8.550
 3939POPC   D2A11356  18.277  28.348   8.250
 3939POPC   C3A11357  18.269  28.326   7.950
 3939POPC   C4A11358  18.306  28.332   7.650
 3939POPC   C1B11359  18.431  28.515   8.550
 3939POPC   C2B11360  18.456  28.513   8.250
 3939POPC   C3B11361  18.466  28.587   7.950
 3939POPC   C4B11362  18.489  28.505   7.650
 3940POPC   NC311363  44.709  13.619   9.450
 3940POPC   PO411364  44.612  13.672   9.150
 3940POPC   GL111365  44.613  13.644   8.850
 3940POPC   GL211366  44.734  13.543   8.850
 3940POPC   C1A11367  44.663  13.582   8.550
 3940POPC   D2A11368  44.685  13.602   8.250
 3940POPC   C3A11369  44.636  13.615   7.950
 3940POPC   C4A11370  44.620  13.653   7.650
 3940POPC   C1B11371  44.806  13.461   8.550
 3940POPC   C2B11372  44.787  13.447   8.250
 3940POPC   C3B11373  44.839  13.388   7.950
 3940POPC   C4B11374  44.749  13.421   7.650
 3941POPC   NC311375  12.894  33.762   9.450
 3941POPC   PO411376  12.841  33.818   9.150
 3941POPC   GL111377  12.839  33.778   8.850
 3941POPC   GL211378  12.912  33.907   8.850
 3941POPC   C1A11379  12.824  33.831   8.550
 3941POPC   D2A11380  12.827  33.822   8.250
 3941POPC   C3A11381  12.878  33.795   7.950
 3941POPC   C4A11382  12.867  33.846   7.650
 3941POPC   C1B11383  12.870  34.083   8.550
 3941POPC   C2B11384  12.858  34.050   8.250
 3941POPC   C3B11385  12.849  34.098   7.950
 3941POPC   C4B11386  12.836  34.058   7.650
 3942POPC   NC311387  38.436   9.723   9.450
 3942POPC   PO411388  38.424   9.775   9.150
 3942POPC   GL111389  38.504   9.733   8.850
 3942POPC   GL211390  38.405   9.860   8.850
 3942POPC   C1A11391  38.488   9.791   8.550
 3942POPC   D2A11392  38.407   9.705   8.250
 3942POPC   C3A11393  38.408   9.753   7.950
 3942POPC   C4A11394  38.434   9.761   7.650
 3942POPC   C1B11395  38.280   9.953   8.550
 3942POPC   C2B11396  38.259   9.957   8.250
 3942POPC   C3B11397  38.266   9.958   7.950
 3942POPC   C4B11398  38.261   9.976   7.650
 3943POPC   NC311399  21.396  11.319   9.450
 3943POPC   PO411400  21.338  11.331   9.150
 3943POPC   GL111401  21.411  11.337   8.850
 3943POPC   GL211402  21.461  11.380   8.850
 3943POPC   C1A11403  21.415  11.343   8.550
 3943POPC   D2A11404  21.360  11.263   8.250
 3943POPC   C3A11405  21.384  11.261   7.950
 3943POPC   C4A11406  21.406  11.349   7.650
 3943POPC   C1B11407  21.461  11.506   8.550
 3943POPC   C2B11408  21.450  11.542   8.250
 3943POPC   C3B11409  21.466  11.561   7.950
 3943POPC   C4B11410  21.517  11.543   7.650
 3944POPC   NC311411   5.133   5.862   9.450
 3944POPC   PO411412   5.073   5.862   9.150
 3944POPC   GL111413   5.138   5.838   8.850
 3944POPC   GL211414   5.012   5.998   8.850
 3944POPC   C1A11415   5.118   5.843   8.550
 3944POPC   D2A11416   5.139   5.914   8.250
 3944POPC   C3A11417   5.099   5.861   7.950
 3944POPC   C4A11418   5.100   5.918   7.650
 3944POPC   C1B11419   4.967   6.153   8.550
 3944POPC   C2B11420   5.023   6.056   8.250
 3944POPC   C3B11421   5.064   6.153   7.950
 3944POPC   C4B11422   4.998   6.067   7.650
 3945POPC   NC311423  18.270   3.557   9.450
 3945POPC   PO411424  18.308   3.553   9.150
 3945POPC   GL111425  18.263   3.520   8.850
 3945POPC   GL211426  18.250   3.654   8.850
 3945POPC   C1A11427  18.273   3.492   8.550
 3945POPC   D2A11428  18.267   3.545   8.250
 3945POPC   C3A11429  18.244   3.532   7.950
 3945POPC   C4A11430  18.287   3.591   7.650
 3945POPC   C1B11431  18.146   3.732   8.550
 3945POPC   C2B11432  18.213   3.758   8.250
 3945POPC   C3B11433  18.163   3.731   7.950
 3945POPC   C4B11434  18.162   3.767   7.650
 3946POPC   NC311435  11.256  44.708   9.450
 3946POPC   PO411436  11.312  44.684   9.150
 3946POPC   GL111437  11.346  44.681   8.850
 3946POPC   GL211438  11.311  44.507   8.850
 3946POPC   C1A11439  11.306  44.670   8.550
 3946POPC   D2A11440  11.280  44.709   8.250
 3946POPC   C3A11441  11.336  44.691   7.950
 3946POPC   C4A11442  11.295  44.658   7.650
 3946POPC   C1B11443  11.411  44.393   8.550
 3946POPC   C2B11444  11.392  44.415   8.250
 3946POPC   C3B11445  11.408  44.397   7.950
 3946POPC   C4B11446  11.370  44.394   7.650
 3947POPC   NC311447  11.318  36.909   9.450
 3947POPC   PO411448  11.313  36.931   9.150
 3947POPC   GL111449  11.320  36.864   8.850
 3947POPC   GL211450  11.382  36.797   8.850
 3947POPC   C1A11451  11.262  36.888   8.550
 3947POPC   D2A11452  11.270  36.863   8.250
 3947POPC   C3A11453  11.255  36.898   7.950
 3947POPC   C4A11454  11.292  36.860   7.650
 3947POPC   C1B11455  11.395  36.695   8.550
 3947POPC   C2B11456  11.391  36.666   8.250
 3947POPC   C3B11457  11.394  36.696   7.950
 3947POPC   C4B11458  11.350  36.638   7.650
 3948POPC   NC311459  35.308  43.100   9.450
 3948POPC   PO411460  35.352  43.086   9.150
 3948POPC   GL111461  35.370  43.145   8.850
 3948POPC   GL211462  35.409  43.003   8.850
 3948POPC   C1A11463  35.373  43.155   8.550
 3948POPC   D2A11464  35.302  43.145   8.250
 3948POPC   C3A11465  35.387  43.115   7.950
 3948POPC   C4A11466  35.313  43.139   7.650
 3948POPC   C1B11467  35.405  42.849   8.550
 3948POPC   C2B11468  35.386  42.902   8.250
 3948POPC   C3B11469  35.423  42.874   7.950
 3948POPC   C4B11470  35.378  42.826   7.650
 3949POPC   NC311471  22.914  26.034   9.450
 3949POPC   PO411472  22.888  26.048   9.150
 3949POPC   GL111473  22.945  26.049   8.850
 3949POPC   GL211474  23.030  26.141   8.850
 3949POPC   C1A11475  22.904  26.056   8.550
 3949POPC   D2A11476  22.919  26.065   8.250
 3949POPC   C3A11477  22.911  26.056   7.950
 3949POPC   C4A11478  22.908  26.045   7.650
 3949POPC   C1B11479  22.979  26.243   8.550
 3949POPC   C2B11480  22.984  26.232   8.250
 3949POPC   C3B11481  23.053  26.282   7.950
 3949POPC   C4B11482  23.078  26.322   7.650
 3950POPC   NC311483   3.580  12.120   9.450
 3950POPC   PO411484   3.582  12.042   9.150
 3950POPC   GL111485   3.526  12.032   8.850
 3950POPC   GL211486   3.626  11.957   8.850
 3950POPC   C1A11487   3.533  12.104   8.550
 3950POPC   D2A11488   3.568  12.034   8.250
 3950POPC   C3A11489   3.498  12.104   7.950
 3950POPC   C4A11490   3.536  12.083   7.650
 3950POPC   C1B11491   3.698  11.921   8.550
 3950POPC   C2B11492   3.709  11.874   8.250
 3950POPC   C3B11493   3.725  11.927   7.950
 3950POPC   C4B11494   3.762  11.867   7.650
 3951POPC   NC311495  40.802  19.840   9.450
 3951POPC   PO411496  40.757  19.880   9.150
 3951POPC   GL111497  40.756  19.832   8.850
 3951POPC   GL211498  40.805  19.704   8.850
 3951POPC   C1A11499  40.810  19.865   8.550
 3951POPC   D2A11500  40.800  19.840   8.250
 3951POPC   C3A11501  40.779  19.816   7.950
 3951POPC   C4A11502  40.749  19.825   7.650
 3951POPC   C1B11503  40.880  19.613   8.550
 3951POPC   C2B11504  40.939  19.587   8.250
 3951POPC   C3B11505  40.916  19.572   7.950
 3951POPC   C4B11506  40.873  19.634   7.650
 3952POPC   NC311507  44.619   7.416   9.450
 3952POPC   PO411508  44.677   7.446   9.150
 3952POPC   GL111509  44.613   7.448   8.850
 3952POPC   GL211510  44.742   7.457   8.850
 3952POPC   C1A11511  44.626   7.386   8.550
 3952POPC   D2A11512  44.641   7.437   8.250
 3952POPC   C3A11513  44.705   7.441   7.950
 3952POPC   C4A11514  44.668   7.446   7.650
 3952POPC   C1B11515  44.920   7.525   8.550
 3952POPC   C2B11516  44.870   7.513   8.250
 3952POPC   C3B11517  44.901   7.530   7.950
 3952POPC   C4B11518  44.881   7.475   7.650
 3953POPC   NC311519  15.991  32.975   9.450
 3953POPC   PO411520  15.914  33.060   9.150
 3953POPC   GL111521  15.951  32.990   8.850
 3953POPC   GL211522  15.809  33.044   8.850
 3953POPC   C1A11523  16.000  33.038   8.550
 3953POPC   D2A11524  16.004  32.987   8.250
 3953POPC   C3A11525  16.003  33.067   7.950
 3953POPC   C4A11526  15.919  33.036   7.650
 3953POPC   C1B11527  15.721  33.059   8.550
 3953POPC   C2B11528  15.663  33.092   8.250
 3953POPC   C3B11529  15.745  33.097   7.950
 3953POPC   C4B11530  15.668  33.006   7.650
 3954POPC   NC311531  11.300   8.964   9.450
 3954POPC   PO411532  11.326   8.978   9.150
 3954POPC   GL111533  11.307   9.009   8.850
 3954POPC   GL211534  11.379   8.951   8.850
 3954POPC   C1A11535  11.275   9.007   8.550
 3954POPC   D2A11536  11.301   8.981   8.250
 3954POPC   C3A11537  11.335   8.970   7.950
 3954POPC   C4A11538  11.275   8.924   7.650
 3954POPC   C1B11539  11.560   9.026   8.550
 3954POPC   C2B11540  11.516   8.998   8.250
 3954POPC   C3B11541  11.590   9.053   7.950
 3954POPC   C4B11542  11.587   9.020   7.650
 3955POPC   NC311543   8.224  29.178   9.450
 3955POPC   PO411544   8.242  29.135   9.150
 3955POPC   GL111545   8.165  29.163   8.850
 3955POPC   GL211546   8.356  29.173   8.850
 3955POPC   C1A11547   8.161  29.165   8.550
 3955POPC   D2A11548   8.154  29.103   8.250
 3955POPC   C3A11549   8.174  29.174   7.950
 3955POPC   C4A11550   8.234  29.104   7.650
 3955POPC   C1B11551   8.484  29.215   8.550
 3955POPC   C2B11552   8.470  29.165   8.250
 3955POPC   C3B11553   8.484  29.186   7.950
 3955POPC   C4B11554   8.422  29.176   7.650
 3956POPC   NC311555   4.309  21.366   9.450
 3956POPC   PO411556   4.331  21.411   9.150
 3956POPC   GL111557   4.331  21.343   8.850
 3956POPC   GL211558   4.231  21.356   8.850
 3956POPC   C1A11559   4.330  21.422   8.550
 3956POPC   D2A11560   4.270  21.408   8.250
 3956POPC   C3A11561   4.364  21.415   7.950
 3956POPC   C4A11562   4.345  21.385   7.650
 3956POPC   C1B11563   4.106  21.339   8.550
 3956POPC   C2B11564   4.102  21.365   8.250
 3956POPC   C3B11565   4.055  21.331   7.950
 3956POPC   C4B11566   4.053  21.319   7.650
 3957POPC   NC311567  37.704  40.796   9.450
 3957POPC   PO411568  37.711  40.734   9.150
 3957POPC   GL111569  37.729  40.786   8.850
 3957POPC   GL211570  37.779  40.830   8.850
 3957POPC   C1A11571  37.664  40.785   8.550
 3957POPC   D2A11572  37.631  40.756   8.250
 3957POPC   C3A11573  37.665  40.746   7.950
 3957POPC   C4A11574  37.703  40.755   7.650
 3957POPC   C1B11575  37.935  40.919   8.550
 3957POPC   C2B11576  37.875  40.907   8.250
 3957POPC   C3B11577  37.882  40.916   7.950
 3957POPC   C4B11578  37.953  40.859   7.650
 3958POPC   NC311579   4.296  39.973   9.450
 3958POPC   PO411580   4.312  40.005   9.150
 3958POPC   GL111581   4.334  39.966   8.850
 3958POPC   GL211582   4.434  40.089   8.850
 3958POPC   C1A11583   4.356  40.010   8.550
 3958POPC   D2A11584   4.292  40.021   8.250
 3958POPC   C3A11585   4.270  39.986   7.950
 3958POPC   C4A11586   4.356  39.968   7.650
 3958POPC   C1B11587   4.513  40.224   8.550
 3958POPC   C2B11588   4.489  40.153   8.250
 3958POPC   C3B11589   4.534  40.222   7.950
 3958POPC   C4B11590   4.459  40.166   7.650
 3959POPC   NC311591   6.635  23.714   9.450
 3959POPC   PO411592   6.673  23.734   9.150
 3959POPC   GL111593   6.682  23.688   8.850
 3959POPC   GL211594   6.788  23.707   8.850
 3959POPC   C1A11595   6.647  23.724   8.550
 3959POPC   D2A11596   6.599  23.694   8.250
 3959POPC   C3A11597   6.616  23.682   7.950
 3959POPC   C4A11598   6.652  23.676   7.650
 3959POPC   C1B11599   6.935  23.704   8.550
 3959POPC   C2B11600   6.929  23.643   8.250
 3959POPC   C3B11601   6.898  23.706   7.950
 3959POPC   C4B11602   6.864  23.685   7.650
 3960POPC   NC311603  42.343  14.393   9.450
 3960POPC   PO411604  42.298  14.392   9.150
 3960POPC   GL111605  42.379  14.436   8.850
 3960POPC   GL211606  42.373  14.272   8.850
 3960POPC   C1A11607  42.356  14.409   8.550
 3960POPC   D2A11608  42.332  14.450   8.250
 3960POPC   C3A11609  42.384  14.371   7.950
 3960POPC   C4A11610  42.325  14.449   7.650
 3960POPC   C1B11611  42.436  14.215   8.550
 3960POPC   C2B11612  42.485  14.211   8.250
 3960POPC   C3B11613  42.487  14.235   7.950
 3960POPC   C4B11614  42.467  14.233   7.650
 3961POPC   NC311615   0.457  37.706   9.450
 3961POPC   PO411616   0.421  37.655   9.150
 3961POPC   GL111617   0.464  37.636   8.850
 3961POPC   GL211618   0.295  37.682   8.850
 3961POPC   C1A11619   0.449  37.681   8.550
 3961POPC   D2A11620   0.439  37.678   8.250
 3961POPC   C3A11621   0.459  37.717   7.950
 3961POPC   C4A11622   0.438  37.661   7.650
 3961POPC   C1B11623   0.194  37.682   8.550
 3961POPC   C2B11624   0.180  37.682   8.250
 3961POPC   C3B11625   0.193  37.668   7.950
 3961POPC   C4B11626   0.220  37.599   7.650
 3962POPC   NC311627   1.260  10.564   9.450
 3962POPC   PO411628   1.246  10.518   9.150
 3962POPC   GL111629   1.246  10.477   8.850
 3962POPC   GL211630   1.361  10.629   8.850
 3962POPC   C1A11631   1.203  10.543   8.550
 3962POPC   D2A11632   1.203  10.537   8.250
 3962POPC   C3A11633   1.177  10.549   7.950
 3962POPC   C4A11634   1.262  10.500   7.650
 3962POPC   C1B11635   1.403  10.626   8.550
 3962POPC   C2B11636   1.419  10.624   8.250
 3962POPC   C3B11637   1.441  10.692   7.950
 3962POPC   C4B11638   1.415  10.642   7.650
 3963POPC   NC311639  12.117   9.784   9.450
 3963POPC   PO411640  12.065   9.765   9.150
 3963POPC   GL111641  12.036   9.703   8.850
 3963POPC   GL211642  12.041   9.635   8.850
 3963POPC   C1A11643  12.099   9.755   8.550
 3963POPC   D2A11644  12.089   9.721   8.250
 3963POPC   C3A11645  12.045   9.795   7.950
 3963POPC   C4A11646  12.100   9.742   7.650
 3963POPC   C1B11647  11.876   9.559   8.550
 3963POPC   C2B11648  11.900   9.502   8.250
 3963POPC   C3B11649  11.971   9.515   7.950
 3963POPC   C4B11650  11.955   9.591   7.650
 3964POPC   NC311651  29.936  43.132   9.450
 3964POPC   PO411652  29.945  43.141   9.150
 3964POPC   GL111653  29.970  43.121   8.850
 3964POPC   GL211654  29.797  43.096   8.850
 3964POPC   C1A11655  29.894  43.078   8.550
 3964POPC   D2A11656  29.898  43.074   8.250
 3964POPC   C3A11657  29.949  43.136   7.950
 3964POPC   C4A11658  29.922  43.124   7.650
 3964POPC   C1B11659  29.632  43.049   8.550
 3964POPC   C2B11660  29.644  43.075   8.250
 3964POPC   C3B11661  29.652  43.122   7.950
 3964POPC   C4B11662  29.671  43.052   7.650
 3965POPC   NC311663  36.129   7.439   9.450
 3965POPC   PO411664  36.107   7.393   9.150
 3965POPC   GL111665  36.173   7.459   8.850
 3965POPC   GL211666  36.125   7.537   8.850
 3965POPC   C1A11667  36.143   7.381   8.550
 3965POPC   D2A11668  36.086   7.391   8.250
 3965POPC   C3A11669  36.112   7.443   7.950
 3965POPC   C4A11670  36.168   7.371   7.650
 3965POPC   C1B11671  36.099   7.675   8.550
 3965POPC   C2B11672  36.129   7.700   8.250
 3965POPC   C3B11673  36.155   7.692   7.950
 3965POPC   C4B11674  36.158   7.670   7.650
 3966POPC   NC311675   0.416  30.739   9.450
 3966POPC   PO411676   0.459  30.696   9.150
 3966POPC   GL111677   0.404  30.664   8.850
 3966POPC   GL211678   0.504  30.784   8.850
 3966POPC   C1A11679   0.458  30.693   8.550
 3966POPC   D2A11680   0.443  30.701   8.250
 3966POPC   C3A11681   0.416  30.701   7.950
 3966POPC   C4A11682   0.391  30.657   7.650
 3966POPC   C1B11683   0.694  30.815   8.550
 3966POPC   C2B11684   0.627  30.797   8.250
 3966POPC   C3B11685   0.659  30.840   7.950
 3966POPC   C4B11686   0.651  30.832   7.650
 3967POPC   NC311687  38.424  24.467   9.450
 3967POPC   PO411688  38.451  24.506   9.150
 3967POPC   GL111689  38.412  24.480   8.850
 3967POPC   GL211690  38.316  24.423   8.850
 3967POPC   C1A11691  38.499  24.471   8.550
 3967POPC   D2A11692  38.476  24.459   8.250
 3967POPC   C3A11693  38.436  24.469   7.950
 3967POPC   C4A11694  38.458  24.469   7.650
 3967POPC   C1B11695  38.239  24.391   8.550
 3967POPC   C2B11696  38.257  24.336   8.250
 3967POPC   C3B11697  38.245  24.357   7.950
 3967POPC   C4B11698  38.263  24.331   7.650
 3968POPC   NC311699  43.916   6.622   9.450
 3968POPC   PO411700  43.837   6.610   9.150
 3968POPC   GL111701  43.847   6.629   8.850
 3968POPC   GL211702  43.719   6.682   8.850
 3968POPC   C1A11703  43.932   6.667   8.550
 3968POPC   D2A11704  43.873   6.650   8.250
 3968POPC   C3A11705  43.851   6.694   7.950
 3968POPC   C4A11706  43.902   6.664   7.650
 3968POPC   C1B11707  43.628   6.709   8.550
 3968POPC   C2B11708  43.633   6.757   8.250
 3968POPC   C3B11709  43.603   6.718   7.950
 3968POPC   C4B11710  43.693   6.735   7.650
 3969POPC   NC311711  42.355  43.901   9.450
 3969POPC   PO411712  42.381  43.867   9.150
 3969POPC   GL111713  42.296  43.849   8.850
 3969POPC   GL211714  42.446  43.980   8.850
 3969POPC   C1A11715  42.352  43.915   8.550
 3969POPC   D2A11716  42.360  43.910   8.250
 3969POPC   C3A11717  42.297  43.891   7.950
 3969POPC   C4A11718  42.303  43.920   7.650
 3969POPC   C1B11719  42.564  43.949   8.550
 3969POPC   C2B11720  42.551  44.020   8.250
 3969POPC   C3B11721  42.578  43.943   7.950
 3969POPC   C4B11722  42.553  43.999   7.650
 3970POPC   NC311723  39.191  25.309   9.450
 3970POPC   PO411724  39.197  25.242   9.150
 3970POPC   GL111725  39.190  25.225   8.850
 3970POPC   GL211726  39.253  25.131   8.850
 3970POPC   C1A11727  39.272  25.256   8.550
 3970POPC   D2A11728  39.271  25.273   8.250
 3970POPC   C3A11729  39.238  25.284   7.950
 3970POPC   C4A11730  39.248  25.301   7.650
 3970POPC   C1B11731  39.316  24.974   8.550
 3970POPC   C2B11732  39.293  25.003   8.250
 3970POPC   C3B11733  39.297  25.048   7.950
 3970POPC   C4B11734  39.295  25.063   7.650
 3971POPC   NC311735  36.889  35.324   9.450
 3971POPC   PO411736  36.935  35.367   9.150
 3971POPC   GL111737  36.907  35.359   8.850
 3971POPC   GL211738  36.828  35.285   8.850
 3971POPC   C1A11739  36.909  35.361   8.550
 3971POPC   D2A11740  36.938  35.363   8.250
 3971POPC   C3A11741  36.899  35.374   7.950
 3971POPC   C4A11742  36.878  35.349   7.650
 3971POPC   C1B11743  36.748  35.173   8.550
 3971POPC   C2B11744  36.684  35.169   8.250
 3971POPC   C3B11745  36.706  35.215   7.950
 3971POPC   C4B11746  36.678  35.174   7.650
 3972POPC   NC311747  27.634  19.884   9.450
 3972POPC   PO411748  27.565  19.869   9.150
 3972POPC   GL111749  27.629  19.798   8.850
 3972POPC   GL211750  27.641  19.704   8.850
 3972POPC   C1A11751  27.634  19.855   8.550
 3972POPC   D2A11752  27.609  19.834   8.250
 3972POPC   C3A11753  27.556  19.879   7.950
 3972POPC   C4A11754  27.569  19.822   7.650
 3972POPC   C1B11755  27.731  19.625   8.550
 3972POPC   C2B11756  27.801  19.618   8.250
 3972POPC   C3B11757  27.754  19.644   7.950
 3972POPC   C4B11758  27.782  19.679   7.650
 3973POPC   NC311759  16.702  40.818   9.450
 3973POPC   PO411760  16.689  40.812   9.150
 3973POPC   GL111761  16.760  40.816   8.850
 3973POPC   GL211762  16.886  40.743   8.850
 3973POPC   C1A11763  16.705  40.753   8.550
 3973POPC   D2A11764  16.695  40.788   8.250
 3973POPC   C3A11765  16.736  40.760   7.950
 3973POPC   C4A11766  16.703  40.826   7.650
 3973POPC   C1B11767  16.986  40.697   8.550
 3973POPC   C2B11768  16.919  40.719   8.250
 3973POPC   C3B11769  16.943  40.730   7.950
 3973POPC   C4B11770  16.930  40.693   7.650
 3974POPC   NC311771  31.446  36.858   9.450
 3974POPC   PO411772  31.522  36.944   9.150
 3974POPC   GL111773  31.483  36.917   8.850
 3974POPC   GL211774  31.386  36.944   8.850
 3974POPC   C1A11775  31.443  36.907   8.550
 3974POPC   D2A11776  31.506  36.900   8.250
 3974POPC   C3A11777  31.430  36.882   7.950
 3974POPC   C4A11778  31.480  36.883   7.650
 3974POPC   C1B11779  31.222  36.979   8.550
 3974POPC   C2B11780  31.275  36.914   8.250
 3974POPC   C3B11781  31.252  36.972   7.950
 3974POPC   C4B11782  31.251  37.000   7.650
 3975POPC   NC311783  29.178  22.968   9.450
 3975POPC   PO411784  29.107  22.979   9.150
 3975POPC   GL111785  29.128  22.960   8.850
 3975POPC   GL211786  29.078  23.010   8.850
 3975POPC   C1A11787  29.107  22.956   8.550
 3975POPC   D2A11788  29.099  22.903   8.250
 3975POPC   C3A11789  29.116  22.936   7.950
 3975POPC   C4A11790  29.153  22.888   7.650
 3975POPC   C1B11791  28.996  23.110   8.550
 3975POPC   C2B11792  28.977  23.105   8.250
 3975POPC   C3B11793  28.971  23.134   7.950
 3975POPC   C4B11794  29.026  23.154   7.650
 3976POPC   NC311795  22.892   1.201   9.450
 3976POPC   PO411796  22.896   1.191   9.150
 3976POPC   GL111797  22.935   1.214   8.850
 3976POPC   GL211798  22.984   1.315   8.850
 3976POPC   C1A11799  22.889   1.235   8.550
 3976POPC   D2A11800  22.926   1.232   8.250
 3976POPC   C3A11801  22.974   1.210   7.950
 3976POPC   C4A11802  22.890   1.208   7.650
 3976POPC   C1B11803  23.141   1.362   8.550
 3976POPC   C2B11804  23.125   1.358   8.250
 3976POPC   C3B11805  23.136   1.415   7.950
 3976POPC   C4B11806  23.118   1.421   7.650
 3977POPC   NC311807  26.848   4.331   9.450
 3977POPC   PO411808  26.813   4.270   9.150
 3977POPC   GL111809  26.771   4.305   8.850
 3977POPC   GL211810  26.857   4.407   8.850
 3977POPC   C1A11811  26.813   4.345   8.550
 3977POPC   D2A11812  26.832   4.342   8.250
 3977POPC   C3A11813  26.789   4.268   7.950
 3977POPC   C4A11814  26.789   4.297   7.650
 3977POPC   C1B11815  26.943   4.569   8.550
 3977POPC   C2B11816  26.922   4.523   8.250
 3977POPC   C3B11817  26.976   4.563   7.950
 3977POPC   C4B11818  26.975   4.511   7.650
 3978POPC   NC311819  17.554   5.918   9.450
 3978POPC   PO411820  17.484   5.903   9.150
 3978POPC   GL111821  17.500   5.912   8.850
 3978POPC   GL211822  17.635   5.891   8.850
 3978POPC   C1A11823  17.534   5.858   8.550
 3978POPC   D2A11824  17.539   5.883   8.250
 3978POPC   C3A11825  17.536   5.874   7.950
 3978POPC   C4A11826  17.495   5.890   7.650
 3978POPC   C1B11827  17.709   5.827   8.550
 3978POPC   C2B11828  17.734   5.804   8.250
 3978POPC   C3B11829  17.724   5.872   7.950
 3978POPC   C4B11830  17.725   5.812   7.650
 3979POPC   NC311831   6.634   7.470   9.450
 3979POPC   PO411832   6.616   7.447   9.150
 3979POPC   GL111833   6.680   7.432   8.850
 3979POPC   GL211834   6.621   7.543   8.850
 3979POPC   C1A11835   6.600   7.374   8.550
 3979POPC   D2A11836   6.649   7.448   8.250
 3979POPC   C3A11837   6.693   7.372   7.950
 3979POPC   C4A11838   6.636   7.412   7.650
 3979POPC   C1B11839   6.616   7.624   8.550
 3979POPC   C2B11840   6.645   7.629   8.250
 3979POPC   C3B11841   6.603   7.676   7.950
 3979POPC   C4B11842   6.625   7.710   7.650
 3980POPC   NC311843  43.935  32.208   9.450
 3980POPC   PO411844  43.910  32.261   9.150
 3980POPC   GL111845  43.908  32.247   8.850
 3980POPC   GL211846  43.866  32.097   8.850
 3980POPC   C1A11847  43.853  32.244   8.550
 3980POPC   D2A11848  43.854  32.221   8.250
 3980POPC   C3A11849  43.927  32.207   7.950
 3980POPC   C4A11850  43.870  32.287   7.650
 3980POPC   C1B11851  43.817  31.994   8.550
 3980POPC   C2B11852  43.880  32.007   8.250
 3980POPC   C3B11853  43.783  32.039   7.950
 3980POPC   C4B11854  43.807  31.956   7.650
 3981POPC   NC311855  27.627   2.008   9.450
 3981POPC   PO411856  27.617   2.003   9.150
 3981POPC   GL111857  27.614   2.037   8.850
 3981POPC   GL211858  27.688   1.844   8.850
 3981POPC   C1A11859  27.587   1.957   8.550
 3981POPC   D2A11860  27.558   2.001   8.250
 3981POPC   C3A11861  27.624   1.994   7.950
 3981POPC   C4A11862  27.612   1.944   7.650
 3981POPC   C1B11863  27.738   1.780   8.550
 3981POPC   C2B11864  27.657   1.720   8.250
 3981POPC   C3B11865  27.744   1.781   7.950
 3981POPC   C4B11866  27.677   1.762   7.650
 3982POPC   NC311867  26.810  30.656   9.450
 3982POPC   PO411868  26.845  30.668   9.150
 3982POPC   GL111869  26.845  30.739   8.850
 3982POPC   GL211870  26.877  30.790   8.850
 3982POPC   C1A11871  26.792  30.697   8.550
 3982POPC   D2A11872  26.840  30.741   8.250
 3982POPC   C3A11873  26.783  30.736   7.950
 3982POPC   C4A11874  26.776  30.744   7.650
 3982POPC   C1B11875  26.904  30.953   8.550
 3982POPC   C2B11876  26.941  30.922   8.250
 3982POPC   C3B11877  26.908  30.945   7.950
 3982POPC   C4B11878  26.964  30.955   7.650
 3983POPC   NC311879  37.672  18.318   9.450
 3983POPC   PO411880  37.725  18.279   9.150
 3983POPC   GL111881  37.724  18.323   8.850
 3983POPC   GL211882  37.838  18.235   8.850
 3983POPC   C1A11883  37.647  18.234   8.550
 3983POPC   D2A11884  37.684  18.300   8.250
 3983POPC   C3A11885  37.679  18.324   7.950
 3983POPC   C4A11886  37.652  18.323   7.650
 3983POPC   C1B11887  37.929  18.212   8.550
 3983POPC   C2B11888  37.874  18.156   8.250
 3983POPC   C3B11889  37.948  18.204   7.950
 3983POPC   C4B11890  37.878  18.179   7.650
 3984POPC   NC311891  34.592   6.694   9.450
 3984POPC   PO411892  34.591   6.666   9.150
 3984POPC   GL111893  34.589   6.621   8.850
 3984POPC   GL211894  34.486   6.479   8.850
 3984POPC   C1A11895  34.529   6.681   8.550
 3984POPC   D2A11896  34.579   6.618   8.250
 3984POPC   C3A11897  34.536   6.694   7.950
 3984POPC   C4A11898  34.535   6.657   7.650
 3984POPC   C1B11899  34.451   6.393   8.550
 3984POPC   C2B11900  34.453   6.408   8.250
 3984POPC   C3B11901  34.456   6.400   7.950
 3984POPC   C4B11902  34.518   6.454   7.650
 3985POPC   NC311903  23.672  43.111   9.450
 3985POPC   PO411904  23.737  43.123   9.150
 3985POPC   GL111905  23.756  43.154   8.850
 3985POPC   GL211906  23.842  43.146   8.850
 3985POPC   C1A11907  23.704  43.095   8.550
 3985POPC   D2A11908  23.716  43.063   8.250
 3985POPC   C3A11909  23.710  43.088   7.950
 3985POPC   C4A11910  23.710  43.137   7.650
 3985POPC   C1B11911  23.917  43.207   8.550
 3985POPC   C2B11912  23.883  43.294   8.250
 3985POPC   C3B11913  23.966  43.291   7.950
 3985POPC   C4B11914  23.880  43.220   7.650
 3986POPC   NC311915  41.545  16.688   9.450
 3986POPC   PO411916  41.559  16.728   9.150
 3986POPC   GL111917  41.557  16.763   8.850
 3986POPC   GL211918  41.435  16.682   8.850
 3986POPC   C1A11919  41.525  16.739   8.550
 3986POPC   D2A11920  41.525  16.753   8.250
 3986POPC   C3A11921  41.509  16.699   7.950
 3986POPC   C4A11922  41.539  16.735   7.650
 3986POPC   C1B11923  41.312  16.679   8.550
 3986POPC   C2B11924  41.271  16.663   8.250
 3986POPC   C3B11925  41.347  16.703   7.950
 3986POPC   C4B11926  41.354  16.745   7.650
 3987POPC   NC311927  30.725   9.732   9.450
 3987POPC   PO411928  30.735   9.727   9.150
 3987POPC   GL111929  30.742   9.784   8.850
 3987POPC   GL211930  30.758   9.665   8.850
 3987POPC   C1A11931  30.679   9.778   8.550
 3987POPC   D2A11932  30.674   9.708   8.250
 3987POPC   C3A11933  30.741   9.731   7.950
 3987POPC   C4A11934  30.704   9.772   7.650
 3987POPC   C1B11935  30.797   9.528   8.550
 3987POPC   C2B11936  30.774   9.569   8.250
 3987POPC   C3B11937  30.778   9.536   7.950
 3987POPC   C4B11938  30.776   9.545   7.650
 3988POPC   NC311939  37.696  26.831   9.450
 3988POPC   PO411940  37.669  26.840   9.150
 3988POPC   GL111941  37.664  26.786   8.850
 3988POPC   GL211942  37.793  26.728   8.850
 3988POPC   C1A11943  37.654  26.846   8.550
 3988POPC   D2A11944  37.713  26.771   8.250
 3988POPC   C3A11945  37.660  26.805   7.950
 3988POPC   C4A11946  37.727  26.850   7.650
 3988POPC   C1B11947  37.879  26.674   8.550
 3988POPC   C2B11948  37.852  26.582   8.250
 3988POPC   C3B11949  37.824  26.619   7.950
 3988POPC   C4B11950  37.833  26.631   7.650
 3989POPC   NC311951  44.655   5.070   9.450
 3989POPC   PO411952  44.619   5.091   9.150
 3989POPC   GL111953  44.680   5.093   8.850
 3989POPC   GL211954  44.596   4.989   8.850
 3989POPC   C1A11955  44.671   5.135   8.550
 3989POPC   D2A11956  44.617   5.068   8.250
 3989POPC   C3A11957  44.708   5.136   7.950
 3989POPC   C4A11958  44.644   5.099   7.650
 3989POPC   C1B11959  44.488   4.967   8.550
 3989POPC   C2B11960  44.505   4.874   8.250
 3989POPC   C3B11961  44.528   4.913   7.950
 3989POPC   C4B11962  44.450   4.890   7.650
 3990POPC   NC311963  21.399   5.061   9.450
 3990POPC   PO411964  21.426   5.089   9.150
 3990POPC   GL111965  21.429   5.054   8.850
 3990POPC   GL211966  21.553   5.131   8.850
 3990POPC   C1A11967  21.360   5.070   8.550
 3990POPC   D2A11968  21.399   5.121   8.250
 3990POPC   C3A11969  21.380   5.062   7.950
 3990POPC   C4A11970  21.373   5.049   7.650
 3990POPC   C1B11971  21.663   5.094   8.550
 3990POPC   C2B11972  21.676   5.112   8.250
 3990POPC   C3B11973  21.660   5.099   7.950
 3990POPC   C4B11974  21.671   5.040   7.650
 3991POPC   NC311975  23.723   9.021   9.450
 3991POPC   PO411976  23.715   8.939   9.150
 3991POPC   GL111977  23.756   9.011   8.850
 3991POPC   GL211978  23.676   9.087   8.850
 3991POPC   C1A11979  23.708   9.002   8.550
 3991POPC   D2A11980  23.738   9.018   8.250
 3991POPC   C3A11981  23.721   9.012   7.950
 3991POPC   C4A11982  23.751   8.986   7.650
 3991POPC   C1B11983  23.634   9.252   8.550
 3991POPC   C2B11984  23.627   9.175   8.250
 3991POPC   C3B11985  23.671   9.247   7.950
 3991POPC   C4B11986  23.655   9.192   7.650
 3992POPC   NC311987  18.296  39.266   9.450
 3992POPC   PO411988  18.265  39.281   9.150
 3992POPC   GL111989  18.253  39.262   8.850
 3992POPC   GL211990  18.273  39.370   8.850
 3992POPC   C1A11991  18.283  39.256   8.550
 3992POPC   D2A11992  18.269  39.274   8.250
 3992POPC   C3A11993  18.288  39.203   7.950
 3992POPC   C4A11994  18.318  39.274   7.650
 3992POPC   C1B11995  18.288  39.442   8.550
 3992POPC   C2B11996  18.224  39.515   8.250
 3992POPC   C3B11997  18.304  39.529   7.950
 3992POPC   C4B11998  18.239  39.491   7.650
 3993POPC   NC311999   5.872  21.403   9.450
 3993POPC   PO412000   5.832  21.398   9.150
 3993POPC   GL112001   5.902  21.429   8.850
 3993POPC   GL212002   5.837  21.522   8.850
 3993POPC   C1A12003   5.908  21.376   8.550
 3993POPC   D2A12004   5.821  21.371   8.250
 3993POPC   C3A12005   5.829  21.433   7.950
 3993POPC   C4A12006   5.906  21.339   7.650
 3993POPC   C1B12007   5.816  21.587   8.550
 3993POPC   C2B12008   5.777  21.658   8.250
 3993POPC   C3B12009   5.735  21.606   7.950
 3993POPC   C4B12010   5.751  21.615   7.650
 3994POPC   NC312011  15.221  29.181   9.450
 3994POPC   PO412012  15.137  29.160   9.150
 3994POPC   GL112013  15.165  29.130   8.850
 3994POPC   GL212014  15.073  29.188   8.850
 3994POPC   C1A12015  15.219  29.149   8.550
 3994POPC   D2A12016  15.206  29.099   8.250
 3994POPC   C3A12017  15.144  29.177   7.950
 3994POPC   C4A12018  15.134  29.180   7.650
 3994POPC   C1B12019  15.011  29.285   8.550
 3994POPC   C2B12020  14.966  29.308   8.250
 3994POPC   C3B12021  15.029  29.279   7.950
 3994POPC   C4B12022  14.954  29.315   7.650
 3995POPC   NC312023  25.314  29.876   9.450
 3995POPC   PO412024  25.289  29.892   9.150
 3995POPC   GL112025  25.287  29.899   8.850
 3995POPC   GL212026  25.234  29.847   8.850
 3995POPC   C1A12027  25.260  29.911   8.550
 3995POPC   D2A12028  25.311  29.956   8.250
 3995POPC   C3A12029  25.242  29.882   7.950
 3995POPC   C4A12030  25.273  29.909   7.650
 3995POPC   C1B12031  25.138  29.732   8.550
 3995POPC   C2B12032  25.216  29.688   8.250
 3995POPC   C3B12033  25.191  29.705   7.950
 3995POPC   C4B12034  25.200  29.706   7.650
 3996POPC   NC312035  38.475  18.307   9.450
 3996POPC   PO412036  38.460  18.322   9.150
 3996POPC   GL112037  38.484  18.237   8.850
 3996POPC   GL212038  38.471  18.114   8.850
 3996POPC   C1A12039  38.453  18.274   8.550
 3996POPC   D2A12040  38.453  18.283   8.250
 3996POPC   C3A12041  38.412  18.242   7.950
 3996POPC   C4A12042  38.454  18.258   7.650
 3996POPC   C1B12043  38.422  18.022   8.550
 3996POPC   C2B12044  38.448  18.057   8.250
 3996POPC   C3B12045  38.424  18.033   7.950
 3996POPC   C4B12046  38.402  17.991   7.650
 3997POPC   NC312047  12.851  18.289   9.450
 3997POPC   PO412048  12.807  18.299   9.150
 3997POPC   GL112049  12.803  18.285   8.850
 3997POPC   GL212050  12.687  18.293   8.850
 3997POPC   C1A12051  12.812  18.264   8.550
 3997POPC   D2A12052  12.837  18.285   8.250
 3997POPC   C3A12053  12.875  18.324   7.950
 3997POPC   C4A12054  12.877  18.246   7.650
 3997POPC   C1B12055  12.584  18.200   8.550
 3997POPC   C2B12056  12.568  18.276   8.250
 3997POPC   C3B12057  12.590  18.245   7.950
 3997POPC   C4B12058  12.621  18.287   7.650
 3998POPC   NC312059  41.608  32.268   9.450
 3998POPC   PO412060  41.541  32.201   9.150
 3998POPC   GL112061  41.515  32.244   8.850
 3998POPC   GL212062  41.597  32.371   8.850
 3998POPC   C1A12063  41.509  32.282   8.550
 3998POPC   D2A12064  41.542  32.261   8.250
 3998POPC   C3A12065  41.511  32.216   7.950
 3998POPC   C4A12066  41.542  32.205   7.650
 3998POPC   C1B12067  41.642  32.434   8.550
 3998POPC   C2B12068  41.661  32.460   8.250
 3998POPC   C3B12069  41.713  32.523   7.950
 3998POPC   C4B12070  41.713  32.441   7.650
 3999POPC   NC312071  16.002  31.431   9.450
 3999POPC   PO412072  15.923  31.499   9.150
 3999POPC   GL112073  15.909  31.431   8.850
 3999POPC   GL212074  16.053  31.416   8.850
 3999POPC   C1A12075  15.990  31.522   8.550
 3999POPC   D2A12076  15.932  31.499   8.250
 3999POPC   C3A12077  15.968  31.508   7.950
 3999POPC   C4A12078  15.923  31.499   7.650
 3999POPC   C1B12079  16.222  31.416   8.550
 3999POPC   C2B12080  16.148  31.390   8.250
 3999POPC   C3B12081  16.228  31.386   7.950
 3999POPC   C4B12082  16.152  31.393   7.650
 4000POPC   NC312083  20.581  36.166   9.450
 4000POPC   PO412084  20.567  36.083   9.150
 4000POPC   GL112085  20.643  36.136   8.850
 4000POPC   GL212086  20.555  36.066   8.850
 4000POPC   C1A12087  20.636  36.163   8.550
 4000POPC   D2A12088  20.568  36.116   8.250
 4000POPC   C3A12089  20.595  36.125   7.950
 4000POPC   C4A12090  20.621  36.085   7.650
 4000POPC   C1B12091  20.507  35.912   8.550
 4000POPC   C2B12092  20.453  35.933   8.250
 4000POPC   C3B12093  20.422  35.946   7.950
 4000POPC   C4B12094  20.460  35.935   7.650
 4001POPC   NC312095  22.947  36.159   9.450
 4001POPC   PO412096  22.981  36.120   9.150
 4001POPC   GL112097  22.956  36.086   8.850
 4001POPC   GL212098  22.895  35.971   8.850
 4001POPC   C1A12099  22.901  36.143   8.550
 4001POPC   D2A12100  22.930  36.160   8.250
 4001POPC   C3A12101  22.890  36.113   7.950
 4001POPC   C4A12102  22.894  36.090   7.650
 4001POPC   C1B12103  22.837  35.877   8.550
 4001POPC   C2B12104  22.921  35.850   8.250
 4001POPC   C3B12105  22.842  35.881   7.950
 4001POPC   C4B12106  22.846  35.911   7.650
 4002POPC   NC312107   2.732  17.477   9.450
 4002POPC   PO412108   2.786  17.470   9.150
 4002POPC   GL112109   2.810  17.495   8.850
 4002POPC   GL212110   2.706  17.410   8.850
 4002POPC   C1A12111   2.739  17.530   8.550
 4002POPC   D2A12112   2.717  17.535   8.250
 4002POPC   C3A12113   2.808  17.487   7.950
 4002POPC   C4A12114   2.757  17.509   7.650
 4002POPC   C1B12115   2.653  17.304   8.550
 4002POPC   C2B12116   2.650  17.321   8.250
 4002POPC   C3B12117   2.625  17.322   7.950
 4002POPC   C4B12118   2.690  17.254   7.650
 4003POPC   NC312119  42.329   3.529   9.450
 4003POPC   PO412120  42.301   3.513   9.150
 4003POPC   GL112121  42.348   3.522   8.850
 4003POPC   GL212122  42.354   3.665   8.850
 4003POPC   C1A12123  42.292   3.540   8.550
 4003POPC   D2A12124  42.309   3.575   8.250
 4003POPC   C3A12125  42.298   3.573   7.950
 4003POPC   C4A12126  42.363   3.524   7.650
 4003POPC   C1B12127  42.392   3.769   8.550
 4003POPC   C2B12128  42.309   3.760   8.250
 4003POPC   C3B12129  42.336   3.767   7.950
 4003POPC   C4B12130  42.346   3.759   7.650
 4004POPC   NC312131  12.082  19.093   9.450
 4004POPC   PO412132  12.102  19.079   9.150
 4004POPC   GL112133  12.077  19.066   8.850
 4004POPC   GL212134  12.130  18.956   8.850
 4004POPC   C1A12135  12.082  19.094   8.550
 4004POPC   D2A12136  12.034  19.061   8.250
 4004POPC   C3A12137  12.055  19.070   7.950
 4004POPC   C4A12138  12.028  19.034   7.650
 4004POPC   C1B12139  12.246  18.859   8.550
 4004POPC   C2B12140  12.200  18.854   8.250
 4004POPC   C3B12141  12.173  18.843   7.950
 4004POPC   C4B12142  12.222  18.810   7.650
 4005POPC   NC312143  33.802  44.688   9.450
 4005POPC   PO412144  33.829  44.679   9.150
 4005POPC   GL112145  33.783  44.690   8.850
 4005POPC   GL212146  33.857  44.628   8.850
 4005POPC   C1A12147  33.803  44.615   8.550
 4005POPC   D2A12148  33.816  44.613   8.250
 4005POPC   C3A12149  33.782  44.641   7.950
 4005POPC   C4A12150  33.757  44.649   7.650
 4005POPC   C1B12151  33.995  44.530   8.550
 4005POPC   C2B12152  33.985  44.505   8.250
 4005POPC   C3B12153  34.001  44.459   7.950
 4005POPC   C4B12154  34.028  44.520   7.650
 4006POPC   NC312155  27.567  22.116   9.450
 4006POPC   PO412156  27.602  22.197   9.150
 4006POPC   GL112157  27.594  22.122   8.850
 4006POPC   GL212158  27.580  22.302   8.850
 4006POPC   C1A12159  27.580  22.201   8.550
 4006POPC   D2A12160  27.617  22.152   8.250
 4006POPC   C3A12161  27.548  22.157   7.950
 4006POPC   C4A12162  27.563  22.150   7.650
 4006POPC   C1B12163  27.627  22.424   8.550
 4006POPC   C2B12164  27.607  22.445   8.250
 4006POPC   C3B12165  27.655  22.409   7.950
 4006POPC   C4B12166  27.597  22.368   7.650
 4007POPC   NC312167  44.643  29.871   9.450
 4007POPC   PO412168  44.634  29.938   9.150
 4007POPC   GL112169  44.677  29.892   8.850
 4007POPC   GL212170  44.564  29.895   8.850
 4007POPC   C1A12171  44.708  29.950   8.550
 4007POPC   D2A12172  44.656  29.910   8.250
 4007POPC   C3A12173  44.680  29.964   7.950
 4007POPC   C4A12174  44.650  29.960   7.650
 4007POPC   C1B12175  44.363  29.912   8.550
 4007POPC   C2B12176  44.458  29.966   8.250
 4007POPC   C3B12177  44.408  29.958   7.950
 4007POPC   C4B12178  44.404  29.921   7.650
 4008POPC   NC312179  11.302   1.189   9.450
 4008POPC   PO412180  11.268   1.259   9.150
 4008POPC   GL112181  11.314   1.239   8.850
 4008POPC   GL212182  11.249   1.070   8.850
 4008POPC   C1A12183  11.349   1.217   8.550
 4008POPC   D2A12184  11.263   1.214   8.250
 4008POPC   C3A12185  11.296   1.260   7.950
 4008POPC   C4A12186  11.251   1.216   7.650
 4008POPC   C1B12187  11.220   0.994   8.550
 4008POPC   C2B12188  11.250   0.980   8.250
 4008POPC   C3B12189  11.308   0.977   7.950
 4008POPC   C4B12190  11.214   0.977   7.650
 4009POPC   NC312191  37.650  39.222   9.450
 4009POPC   PO412192  37.663  39.246   9.150
 4009POPC   GL112193  37.636  39.230   8.850
 4009POPC   GL212194  37.813  39.314   8.850
 4009POPC   C1A12195  37.647  39.201   8.550
 4009POPC   D2A12196  37.668  39.263   8.250
 4009POPC   C3A12197  37.699  39.257   7.950
 4009POPC   C4A12198  37.716  39.236   7.650
 4009POPC   C1B12199  37.879  39.355   8.550
 4009POPC   C2B12200  37.907  39.357   8.250
 4009POPC   C3B12201  37.834  39.347   7.950
 4009POPC   C4B12202  37.830  39.369   7.650
 4010POPC   NC312203   2.806  12.113   9.450
 4010POPC   PO412204   2.802  12.048   9.150
 4010POPC   GL112205   2.723  12.043   8.850
 4010POPC   GL212206   2.786  11.937   8.850
 4010POPC   C1A12207   2.750  12.069   8.550
 4010POPC   D2A12208   2.784  12.083   8.250
 4010POPC   C3A12209   2.795  12.122   7.950
 4010POPC   C4A12210   2.798  12.044   7.650
 4010POPC   C1B12211   2.819  11.872   8.550
 4010POPC   C2B12212   2.894  11.840   8.250
 4010POPC   C3B12213   2.915  11.862   7.950
 4010POPC   C4B12214   2.905  11.853   7.650
 4011POPC   NC312215  22.125  31.457   9.450
 4011POPC   PO412216  22.207  31.469   9.150
 4011POPC   GL112217  22.174  31.435   8.850
 4011POPC   GL212218  22.120  31.646   8.850
 4011POPC   C1A12219  22.185  31.482   8.550
 4011POPC   D2A12220  22.115  31.428   8.250
 4011POPC   C3A12221  22.161  31.521   7.950
 4011POPC   C4A12222  22.156  31.520   7.650
 4011POPC   C1B12223  22.194  31.758   8.550
 4011POPC   C2B12224  22.135  31.699   8.250
 4011POPC   C3B12225  22.152  31.723   7.950
 4011POPC   C4B12226  22.121  31.685   7.650
 4012POPC   NC312227  27.571  23.699   9.450
 4012POPC   PO412228  27.561  23.763   9.150
 4012POPC   GL112229  27.557  23.702   8.850
 4012POPC   GL212230  27.558  23.850   8.850
 4012POPC   C1A12231  27.638  23.666   8.550
 4012POPC   D2A12232  27.619  23.747   8.250
 4012POPC   C3A12233  27.546  23.664   7.950
 4012POPC   C4A12234  27.605  23.735   7.650
 4012POPC   C1B12235  27.512  23.972   8.550
 4012POPC   C2B12236  27.504  23.982   8.250
 4012POPC   C3B12237  27.524  23.931   7.950
 4012POPC   C4B12238  27.504  23.905   7.650
 4013POPC   NC312239  32.268  16.775   9.450
 4013POPC   PO412240  32.216  16.739   9.150
 4013POPC   GL112241  32.239  16.755   8.850
 4013POPC   GL212242  32.403  16.642   8.850
 4013POPC   C1A12243  32.288  16.741   8.550
 4013POPC   D2A12244  32.202  16.776   8.250
 4013POPC   C3A12245  32.251  16.738   7.950
 4013POPC   C4A12246  32.235  16.763   7.650
 4013POPC   C1B12247  32.442  16.572   8.550
 4013POPC   C2B12248  32.436  16.564   8.250
 4013POPC   C3B12249  32.503  16.584   7.950
 4013POPC   C4B12250  32.513  16.569   7.650
 4014POPC   NC312251   8.989  20.655   9.450
 4014POPC   PO412252   8.978  20.561   9.150
 4014POPC   GL112253   8.943  20.588   8.850
 4014POPC   GL212254   8.839  20.652   8.850
 4014POPC   C1A12255   8.960  20.611   8.550
 4014POPC   D2A12256   8.972  20.615   8.250
 4014POPC   C3A12257   8.992  20.618   7.950
 4014POPC   C4A12258   8.929  20.635   7.650
 4014POPC   C1B12259   8.811  20.760   8.550
 4014POPC   C2B12260   8.741  20.725   8.250
 4014POPC   C3B12261   8.776  20.805   7.950
 4014POPC   C4B12262   8.775  20.802   7.650
 4015POPC   NC312263   6.639  19.819   9.450
 4015POPC   PO412264   6.663  19.880   9.150
 4015POPC   GL112265   6.665  19.821   8.850
 4015POPC   GL212266   6.700  19.940   8.850
 4015POPC   C1A12267   6.614  19.802   8.550
 4015POPC   D2A12268   6.617  19.827   8.250
 4015POPC   C3A12269   6.683  19.865   7.950
 4015POPC   C4A12270   6.685  19.848   7.650
 4015POPC   C1B12271   6.789  20.052   8.550
 4015POPC   C2B12272   6.806  19.986   8.250
 4015POPC   C3B12273   6.806  20.027   7.950
 4015POPC   C4B12274   6.762  20.048   7.650
 4016POPC   NC312275  24.443  33.813   9.450
 4016POPC   PO412276  24.534  33.757   9.150
 4016POPC   GL112277  24.445  33.828   8.850
 4016POPC   GL212278  24.536  33.901   8.850
 4016POPC   C1A12279  24.474  33.818   8.550
 4016POPC   D2A12280  24.528  33.827   8.250
 4016POPC   C3A12281  24.506  33.768   7.950
 4016POPC   C4A12282  24.464  33.811   7.650
 4016POPC   C1B12283  24.518  34.076   8.550
 4016POPC   C2B12284  24.557  34.079   8.250
 4016POPC   C3B12285  24.516  34.078   7.950
 4016POPC   C4B12286  24.496  34.001   7.650
 4017POPC   NC312287  23.720  18.271   9.450
 4017POPC   PO412288  23.703  18.325   9.150
 4017POPC   GL112289  23.667  18.309   8.850
 4017POPC   GL212290  23.628  18.225   8.850
 4017POPC   C1A12291  23.727  18.289   8.550
 4017POPC   D2A12292  23.721  18.297   8.250
 4017POPC   C3A12293  23.664  18.269   7.950
 4017POPC   C4A12294  23.730  18.292   7.650
 4017POPC   C1B12295  23.542  18.088   8.550
 4017POPC   C2B12296  23.494  18.139   8.250
 4017POPC   C3B12297  23.504  18.146   7.950
 4017POPC   C4B12298  23.500  18.083   7.650
 4018POPC   NC312299  22.964  12.874   9.450
 4018POPC   PO412300  22.959  12.808   9.150
 4018POPC   GL112301  22.893  12.803   8.850
 4018POPC   GL212302  22.790  12.875   8.850
 4018POPC   C1A12303  22.928  12.836   8.550
 4018POPC   D2A12304  22.926  12.859   8.250
 4018POPC   C3A12305  22.939  12.849   7.950
 4018POPC   C4A12306  22.949  12.871   7.650
 4018POPC   C1B12307  22.736  12.958   8.550
 4018POPC   C2B12308  22.694  12.964   8.250
 4018POPC   C3B12309  22.747  12.987   7.950
 4018POPC   C4B12310  22.751  12.967   7.650
 4019POPC   NC312311  12.856  29.149   9.450
 4019POPC   PO412312  12.876  29.120   9.150
 4019POPC   GL112313  12.858  29.164   8.850
 4019POPC   GL212314  12.990  29.049   8.850
 4019POPC   C1A12315  12.846  29.101   8.550
 4019POPC   D2A12316  12.884  29.149   8.250
 4019POPC   C3A12317  12.890  29.109   7.950
 4019POPC   C4A12318  12.806  29.159   7.650
 4019POPC   C1B12319  13.062  28.975   8.550
 4019POPC   C2B12320  13.060  28.989   8.250
 4019POPC   C3B12321  13.026  29.027   7.950
 4019POPC   C4B12322  13.110  29.017   7.650
 4020POPC   NC312323  13.654  19.037   9.450
 4020POPC   PO412324  13.647  19.086   9.150
 4020POPC   GL112325  13.592  19.035   8.850
 4020POPC   GL212326  13.458  19.037   8.850
 4020POPC   C1A12327  13.581  19.031   8.550
 4020POPC   D2A12328  13.669  19.019   8.250
 4020POPC   C3A12329  13.632  19.081   7.950
 4020POPC   C4A12330  13.602  19.055   7.650
 4020POPC   C1B12331  13.365  19.032   8.550
 4020POPC   C2B12332  13.335  19.022   8.250
 4020POPC   C3B12333  13.407  18.966   7.950
 4020POPC   C4B12334  13.422  19.024   7.650
 4021POPC   NC312335  40.804   4.305   9.450
 4021POPC   PO412336  40.801   4.323   9.150
 4021POPC   GL112337  40.778   4.313   8.850
 4021POPC   GL212338  40.642   4.226   8.850
 4021POPC   C1A12339  40.772   4.278   8.550
 4021POPC   D2A12340  40.795   4.268   8.250
 4021POPC   C3A12341  40.758   4.320   7.950
 4021POPC   C4A12342  40.800   4.350   7.650
 4021POPC   C1B12343  40.551   4.186   8.550
 4021POPC   C2B12344  40.602   4.223   8.250
 4021POPC   C3B12345  40.599   4.174   7.950
 4021POPC   C4B12346  40.540   4.182   7.650
 4022POPC   NC312347   5.870   1.957   9.450
 4022POPC   PO412348   5.872   1.953   9.150
 4022POPC   GL112349   5.839   1.987   8.850
 4022POPC   GL212350   5.793   1.913   8.850
 4022POPC   C1A12351   5.887   2.022   8.550
 4022POPC   D2A12352   5.858   1.970   8.250
 4022POPC   C3A12353   5.877   1.979   7.950
 4022POPC   C4A12354   5.851   2.000   7.650
 4022POPC   C1B12355   5.620   1.954   8.550
 4022POPC   C2B12356   5.675   1.905   8.250
 4022POPC   C3B12357   5.663   1.889   7.950
 4022POPC   C4B12358   5.632   1.889   7.650
 4023POPC   NC312359   2.797  33.071   9.450
 4023POPC   PO412360   2.757  33.035   9.150
 4023POPC   GL112361   2.767  33.039   8.850
 4023POPC   GL212362   2.629  32.986   8.850
 4023POPC   C1A12363   2.771  33.006   8.550
 4023POPC   D2A12364   2.812  33.064   8.250
 4023POPC   C3A12365   2.775  33.060   7.950
 4023POPC   C4A12366   2.782  32.994   7.650
 4023POPC   C1B12367   2.551  32.936   8.550
 4023POPC   C2B12368   2.539  32.940   8.250
 4023POPC   C3B12369   2.536  32.906   7.950
 4023POPC   C4B12370   2.524  32.974   7.650
 4024POPC   NC312371  13.590  15.155   9.450
 4024POPC   PO412372  13.587  15.183   9.150
 4024POPC   GL112373  13.674  15.197   8.850
 4024POPC   GL212374  13.671  15.274   8.850
 4024POPC   C1A12375  13.670  15.205   8.550
 4024POPC   D2A12376  13.638  15.181   8.250
 4024POPC   C3A12377  13.613  15.198   7.950
 4024POPC   C4A12378  13.664  15.135   7.650
 4024POPC   C1B12379  13.650  15.410   8.550
 4024POPC   C2B12380  13.653  15.412   8.250
 4024POPC   C3B12381  13.615  15.436   7.950
 4024POPC   C4B12382  13.613  15.447   7.650
 4025POPC   NC312383   4.268   0.406   9.450
 4025POPC   PO412384   4.295   0.399   9.150
 4025POPC   GL112385   4.317   0.432   8.850
 4025POPC   GL212386   4.302   0.273   8.850
 4025POPC   C1A12387   4.353   0.460   8.550
 4025POPC   D2A12388   4.339   0.457   8.250
 4025POPC   C3A12389   4.288   0.476   7.950
 4025POPC   C4A12390   4.349   0.486   7.650
 4025POPC   C1B12391   4.276   0.167   8.550
 4025POPC   C2B12392   4.253   0.214   8.250
 4025POPC   C3B12393   4.281   0.165   7.950
 4025POPC   C4B12394   4.216   0.157   7.650
 4026POPC   NC312395  28.366  19.789   9.450
 4026POPC   PO412396  28.411  19.860   9.150
 4026POPC   GL112397  28.381  19.841   8.850
 4026POPC   GL212398  28.486  19.913   8.850
 4026POPC   C1A12399  28.411  19.837   8.550
 4026POPC   D2A12400  28.373  19.875   8.250
 4026POPC   C3A12401  28.408  19.845   7.950
 4026POPC   C4A12402  28.389  19.839   7.650
 4026POPC   C1B12403  28.562  19.950   8.550
 4026POPC   C2B12404  28.562  19.896   8.250
 4026POPC   C3B12405  28.634  19.889   7.950
 4026POPC   C4B12406  28.646  19.930   7.650
 4027POPC   NC312407  16.726  21.394   9.450
 4027POPC   PO412408  16.733  21.372   9.150
 4027POPC   GL112409  16.696  21.396   8.850
 4027POPC   GL212410  16.561  21.391   8.850
 4027POPC   C1A12411  16.748  21.346   8.550
 4027POPC   D2A12412  16.713  21.391   8.250
 4027POPC   C3A12413  16.737  21.373   7.950
 4027POPC   C4A12414  16.714  21.370   7.650
 4027POPC   C1B12415  16.509  21.373   8.550
 4027POPC   C2B12416  16.519  21.418   8.250
 4027POPC   C3B12417  16.512  21.359   7.950
 4027POPC   C4B12418  16.488  21.364   7.650
 4028POPC   NC312419  26.817  34.575   9.450
 4028POPC   PO412420  26.788  34.570   9.150
 4028POPC   GL112421  26.804  34.564   8.850
 4028POPC   GL212422  26.864  34.649   8.850
 4028POPC   C1A12423  26.803  34.536   8.550
 4028POPC   D2A12424  26.851  34.616   8.250
 4028POPC   C3A12425  26.804  34.567   7.950
 4028POPC   C4A12426  26.808  34.552   7.650
 4028POPC   C1B12427  26.925  34.750   8.550
 4028POPC   C2B12428  26.932  34.763   8.250
 4028POPC   C3B12429  26.977  34.782   7.950
 4028POPC   C4B12430  27.017  34.759   7.650
 4029POPC   NC312431   8.189  33.839   9.450
 4029POPC   PO412432   8.184  33.848   9.150
 4029POPC   GL112433   8.180  33.787   8.850
 4029POPC   GL212434   8.239  33.961   8.850
 4029POPC   C1A12435   8.235  33.813   8.550
 4029POPC   D2A12436   8.217  33.803   8.250
 4029POPC   C3A12437   8.183  33.760   7.950
 4029POPC   C4A12438   8.155  33.769   7.650
 4029POPC   C1B12439   8.254  34.083   8.550
 4029POPC   C2B12440   8.278  34.084   8.250
 4029POPC   C3B12441   8.246  34.003   7.950
 4029POPC   C4B12442   8.274  34.069   7.650
 4030POPC   NC312443  17.533   9.727   9.450
 4030POPC   PO412444  17.544   9.733   9.150
 4030POPC   GL112445  17.552   9.795   8.850
 4030POPC   GL212446  17.491   9.648   8.850
 4030POPC   C1A12447  17.476   9.755   8.550
 4030POPC   D2A12448  17.550   9.759   8.250
 4030POPC   C3A12449  17.537   9.706   7.950
 4030POPC   C4A12450  17.488   9.752   7.650
 4030POPC   C1B12451  17.486   9.530   8.550
 4030POPC   C2B12452  17.476   9.514   8.250
 4030POPC   C3B12453  17.476   9.528   7.950
 4030POPC   C4B12454  17.518   9.505   7.650
 4031POPC   NC312455  33.043   5.127   9.450
 4031POPC   PO412456  33.023   5.134   9.150
 4031POPC   GL112457  33.051   5.112   8.850
 4031POPC   GL212458  32.929   5.036   8.850
 4031POPC   C1A12459  33.033   5.129   8.550
 4031POPC   D2A12460  32.999   5.055   8.250
 4031POPC   C3A12461  33.072   5.100   7.950
 4031POPC   C4A12462  32.984   5.127   7.650
 4031POPC   C1B12463  32.875   4.881   8.550
 4031POPC   C2B12464  32.865   4.881   8.250
 4031POPC   C3B12465  32.852   4.926   7.950
 4031POPC   C4B12466  32.878   4.916   7.650
 4032POPC   NC312467  17.530  17.483   9.450
 4032POPC   PO412468  17.500  17.542   9.150
 4032POPC   GL112469  17.512  17.459   8.850
 4032POPC   GL212470  17.599  17.403   8.850
 4032POPC   C1A12471  17.510  17.464   8.550
 4032POPC   D2A12472  17.534  17.471   8.250
 4032POPC   C3A12473  17.487  17.462   7.950
 4032POPC   C4A12474  17.526  17.472   7.650
 4032POPC   C1B12475  17.722  17.440   8.550
 4032POPC   C2B12476  17.752  17.365   8.250
 4032POPC   C3B12477  17.722  17.348   7.950
 4032POPC   C4B12478  17.762  17.358   7.650
 4033POPC   NC312479  25.247  44.671   9.450
 4033POPC   PO412480  25.246  44.700   9.150
 4033POPC   GL112481  25.218  44.690   8.850
 4033POPC   GL212482  25.163  44.757   8.850
 4033POPC   C1A12483  25.267  44.664   8.550
 4033POPC   D2A12484  25.272  44.668   8.250
 4033POPC   C3A12485  25.307  44.699   7.950
 4033POPC   C4A12486  25.272  44.649   7.650
 4033POPC   C1B12487  25.109  44.764   8.550
 4033POPC   C2B12488  25.027  44.783   8.250
 4033POPC   C3B12489  25.034  44.791   7.950
 4033POPC   C4B12490  25.099  44.784   7.650
 4034POPC   NC312491   8.155  30.651   9.450
 4034POPC   PO412492   8.153  30.735   9.150
 4034POPC   GL112493   8.180  30.678   8.850
 4034POPC   GL212494   8.358  30.734   8.850
 4034POPC   C1A12495   8.159  30.660   8.550
 4034POPC   D2A12496   8.160  30.717   8.250
 4034POPC   C3A12497   8.190  30.667   7.950
 4034POPC   C4A12498   8.231  30.745   7.650
 4034POPC   C1B12499   8.448  30.751   8.550
 4034POPC   C2B12500   8.466  30.742   8.250
 4034POPC   C3B12501   8.467  30.735   7.950
 4034POPC   C4B12502   8.398  30.737   7.650
 4035POPC   NC312503   0.406  44.671   9.450
 4035POPC   PO412504   0.448  44.638   9.150
 4035POPC   GL112505   0.404  44.697   8.850
 4035POPC   GL212506   0.532  44.558   8.850
 4035POPC   C1A12507   0.397  44.690   8.550
 4035POPC   D2A12508   0.417  44.702   8.250
 4035POPC   C3A12509   0.391  44.613   7.950
 4035POPC   C4A12510   0.451  44.622   7.650
 4035POPC   C1B12511   0.642  44.486   8.550
 4035POPC   C2B12512   0.682  44.491   8.250
 4035POPC   C3B12513   0.669  44.528   7.950
 4035POPC   C4B12514   0.623  44.456   7.650
 4036POPC   NC312515  24.491  28.352   9.450
 4036POPC   PO412516  24.469  28.390   9.150
 4036POPC   GL112517  24.526  28.359   8.850
 4036POPC   GL212518  24.443  28.290   8.850
 4036POPC   C1A12519  24.509  28.406   8.550
 4036POPC   D2A12520  24.457  28.413   8.250
 4036POPC   C3A12521  24.530  28.405   7.950
 4036POPC   C4A12522  24.455  28.404   7.650
 4036POPC   C1B12523  24.404  28.162   8.550
 4036POPC   C2B12524  24.375  28.163   8.250
 4036POPC   C3B12525  24.402  28.172   7.950
 4036POPC   C4B12526  24.431  28.179   7.650
 4037POPC   NC312527  36.127  15.166   9.450
 4037POPC   PO412528  36.105  15.161   9.150
 4037POPC   GL112529  36.124  15.207   8.850
 4037POPC   GL212530  35.980  15.264   8.850
 4037POPC   C1A12531  36.136  15.189   8.550
 4037POPC   D2A12532  36.107  15.182   8.250
 4037POPC   C3A12533  36.139  15.203   7.950
 4037POPC   C4A12534  36.172  15.216   7.650
 4037POPC   C1B12535  35.897  15.309   8.550
 4037POPC   C2B12536  35.900  15.278   8.250
 4037POPC   C3B12537  35.854  15.240   7.950
 4037POPC   C4B12538  35.931  15.283   7.650
 4038POPC   NC312539  19.047  28.339   9.450
 4038POPC   PO412540  19.054  28.346   9.150
 4038POPC   GL112541  19.017  28.346   8.850
 4038POPC   GL212542  19.198  28.419   8.850
 4038POPC   C1A12543  19.093  28.360   8.550
 4038POPC   D2A12544  19.095  28.389   8.250
 4038POPC   C3A12545  19.036  28.366   7.950
 4038POPC   C4A12546  19.100  28.416   7.650
 4038POPC   C1B12547  19.282  28.532   8.550
 4038POPC   C2B12548  19.285  28.455   8.250
 4038POPC   C3B12549  19.242  28.455   7.950
 4038POPC   C4B12550  19.253  28.520   7.650
 4039POPC   NC312551  30.736   8.940   9.450
 4039POPC   PO412552  30.745   8.959   9.150
 4039POPC   GL112553  30.662   9.020   8.850
 4039POPC   GL212554  30.666   9.081   8.850
 4039POPC   C1A12555  30.722   8.986   8.550
 4039POPC   D2A12556  30.677   8.954   8.250
 4039POPC   C3A12557  30.672   8.935   7.950
 4039POPC   C4A12558  30.736   8.938   7.650
 4039POPC   C1B12559  30.602   9.221   8.550
 4039POPC   C2B12560  30.582   9.183   8.250
 4039POPC   C3B12561  30.633   9.231   7.950
 4039POPC   C4B12562  30.606   9.195   7.650
 4040POPC   NC312563   9.748   5.124   9.450
 4040POPC   PO412564   9.766   5.097   9.150
 4040POPC   GL112565   9.711   5.073   8.850
 4040POPC   GL212566   9.637   5.060   8.850
 4040POPC   C1A12567   9.702   5.141   8.550
 4040POPC   D2A12568   9.704   5.046   8.250
 4040POPC   C3A12569   9.751   5.102   7.950
 4040POPC   C4A12570   9.753   5.072   7.650
 4040POPC   C1B12571   9.524   4.932   8.550
 4040POPC   C2B12572   9.595   4.973   8.250
 4040POPC   C3B12573   9.554   4.884   7.950
 4040POPC   C4B12574   9.545   4.887   7.650
 4041POPC   NC312575   2.734  41.517   9.450
 4041POPC   PO412576   2.748  41.516   9.150
 4041POPC   GL112577   2.738  41.527   8.850
 4041POPC   GL212578   2.868  41.490   8.850
 4041POPC   C1A12579   2.797  41.566   8.550
 4041POPC   D2A12580   2.742  41.598   8.250
 4041POPC   C3A12581   2.780  41.551   7.950
 4041POPC   C4A12582   2.756  41.605   7.650
 4041POPC   C1B12583   2.979  41.432   8.550
 4041POPC   C2B12584   2.973  41.493   8.250
 4041POPC   C3B12585   2.954  41.465   7.950
 4041POPC   C4B12586   2.961  41.435   7.650
 4042POPC   NC312587   8.930  33.025   9.450
 4042POPC   PO412588   8.964  32.991   9.150
 4042POPC   GL112589   8.945  33.036   8.850
 4042POPC   GL212590   8.986  33.113   8.850
 4042POPC   C1A12591   8.948  33.039   8.550
 4042POPC   D2A12592   8.933  33.048   8.250
 4042POPC   C3A12593   8.984  33.070   7.950
 4042POPC   C4A12594   8.969  33.016   7.650
 4042POPC   C1B12595   9.097  33.295   8.550
 4042POPC   C2B12596   9.063  33.270   8.250
 4042POPC   C3B12597   9.043  33.294   7.950
 4042POPC   C4B12598   9.049  33.210   7.650
 4043POPC   NC312599  39.199  29.122   9.450
 4043POPC   PO412600  39.269  29.139   9.150
 4043POPC   GL112601  39.229  29.194   8.850
 4043POPC   GL212602  39.071  29.139   8.850
 4043POPC   C1A12603  39.234  29.135   8.550
 4043POPC   D2A12604  39.184  29.156   8.250
 4043POPC   C3A12605  39.212  29.179   7.950
 4043POPC   C4A12606  39.194  29.101   7.650
 4043POPC   C1B12607  39.024  29.097   8.550
 4043POPC   C2B12608  38.969  29.190   8.250
 4043POPC   C3B12609  38.942  29.146   7.950
 4043POPC   C4B12610  39.001  29.177   7.650
 4044POPC   NC312611  12.055  30.689   9.450
 4044POPC   PO412612  12.115  30.709   9.150
 4044POPC   GL112613  12.122  30.721   8.850
 4044POPC   GL212614  12.205  30.720   8.850
 4044POPC   C1A12615  12.063  30.706   8.550
 4044POPC   D2A12616  12.045  30.711   8.250
 4044POPC   C3A12617  12.050  30.674   7.950
 4044POPC   C4A12618  12.037  30.698   7.650
 4044POPC   C1B12619  12.359  30.683   8.550
 4044POPC   C2B12620  12.305  30.650   8.250
 4044POPC   C3B12621  12.328  30.678   7.950
 4044POPC   C4B12622  12.341  30.657   7.650
 4045POPC   NC312623   5.840  13.602   9.450
 4045POPC   PO412624   5.894  13.629   9.150
 4045POPC   GL112625   5.918  13.582   8.850
 4045POPC   GL212626   5.960  13.724   8.850
 4045POPC   C1A12627   5.848  13.581   8.550
 4045POPC   D2A12628   5.901  13.600   8.250
 4045POPC   C3A12629   5.863  13.631   7.950
 4045POPC   C4A12630   5.841  13.614   7.650
 4045POPC   C1B12631   6.065  13.758   8.550
 4045POPC   C2B12632   6.092  13.841   8.250
 4045POPC   C3B12633   6.014  13.793   7.950
 4045POPC   C4B12634   6.057  13.763   7.650
 4046POPC   NC312635   5.093  39.213   9.450
 4046POPC   PO412636   5.108  39.242   9.150
 4046POPC   GL112637   5.095  39.245   8.850
 4046POPC   GL212638   4.953  39.238   8.850
 4046POPC   C1A12639   5.098  39.194   8.550
 4046POPC   D2A12640   5.067  39.245   8.250
 4046POPC   C3A12641   5.106  39.214   7.950
 4046POPC   C4A12642   5.108  39.256   7.650
 4046POPC   C1B12643   4.896  39.200   8.550
 4046POPC   C2B12644   4.822  39.158   8.250
 4046POPC   C3B12645   4.904  39.144   7.950
 4046POPC   C4B12646   4.877  39.195   7.650
 4047POPC   NC312647  10.498  15.156   9.450
 4047POPC   PO412648  10.525  15.144   9.150
 4047POPC   GL112649  10.494  15.151   8.850
 4047POPC   GL212650  10.684  15.189   8.850
 4047POPC   C1A12651  10.527  15.222   8.550
 4047POPC   D2A12652  10.552  15.190   8.250
 4047POPC   C3A12653  10.492  15.170   7.950
 4047POPC   C4A12654  10.488  15.196   7.650
 4047POPC   C1B12655  10.802  15.296   8.550
 4047POPC   C2B12656  10.726  15.295   8.250
 4047POPC   C3B12657  10.793  15.219   7.950
 4047POPC   C4B12658  10.730  15.286   7.650
 4048POPC   NC312659  27.625  37.705   9.450
 4048POPC   PO412660  27.547  37.692   9.150
 4048POPC   GL112661  27.604  37.715   8.850
 4048POPC   GL212662  27.441  37.584   8.850
 4048POPC   C1A12663  27.544  37.630   8.550
 4048POPC   D2A12664  27.555  37.713   8.250
 4048POPC   C3A12665  27.588  37.647   7.950
 4048POPC   C4A12666  27.594  37.650   7.650
 4048POPC   C1B12667  27.408  37.547   8.550
 4048POPC   C2B12668  27.376  37.569   8.250
 4048POPC   C3B12669  27.394  37.563   7.950
 4048POPC   C4B12670  27.414  37.536   7.650
 4049POPC   NC312671  28.388   3.574   9.450
 4049POPC   PO412672  28.363   3.504   9.150
 4049POPC   GL112673  28.418   3.532   8.850
 4049POPC   GL212674  28.451   3.481   8.850
 4049POPC   C1A12675  28.330   3.501   8.550
 4049POPC   D2A12676  28.363   3.591   8.250
 4049POPC   C3A12677  28.407   3.527   7.950
 4049POPC   C4A12678  28.360   3.520   7.650
 4049POPC   C1B12679  28.542   3.406   8.550
 4049POPC   C2B12680  28.633   3.440   8.250
 4049POPC   C3B12681  28.567   3.443   7.950
 4049POPC   C4B12682  28.626   3.399   7.650
 4050POPC   NC312683  29.162  43.883   9.450
 4050POPC   PO412684  29.175  43.885   9.150
 4050POPC   GL112685  29.141  43.918   8.850
 4050POPC   GL212686  29.283  43.933   8.850
 4050POPC   C1A12687  29.143  43.897   8.550
 4050POPC   D2A12688  29.169  43.892   8.250
 4050POPC   C3A12689  29.112  43.869   7.950
 4050POPC   C4A12690  29.194  43.874   7.650
 4050POPC   C1B12691  29.339  44.054   8.550
 4050POPC   C2B12692  29.385  44.004   8.250
 4050POPC   C3B12693  29.315  43.992   7.950
 4050POPC   C4B12694  29.376  44.021   7.650
 4051POPC   NC312695  39.215  12.860   9.450
 4051POPC   PO412696  39.278  12.835   9.150
 4051POPC   GL112697  39.278  12.842   8.850
 4051POPC   GL212698  39.153  12.904   8.850
 4051POPC   C1A12699  39.248  12.810   8.550
 4051POPC   D2A12700  39.186  12.823   8.250
 4051POPC   C3A12701  39.248  12.900   7.950
 4051POPC   C4A12702  39.184  12.896   7.650
 4051POPC   C1B12703  38.994  13.007   8.550
 4051POPC   C2B12704  38.988  12.973   8.250
 4051POPC   C3B12705  38.993  13.025   7.950
 4051POPC   C4B12706  39.014  12.991   7.650
 4052POPC   NC312707  13.596   5.908   9.450
 4052POPC   PO412708  13.619   5.891   9.150
 4052POPC   GL112709  13.588   5.859   8.850
 4052POPC   GL212710  13.770   5.824   8.850
 4052POPC   C1A12711  13.580   5.884   8.550
 4052POPC   D2A12712  13.627   5.844   8.250
 4052POPC   C3A12713  13.653   5.889   7.950
 4052POPC   C4A12714  13.603   5.837   7.650
 4052POPC   C1B12715  13.911   5.782   8.550
 4052POPC   C2B12716  13.893   5.812   8.250
 4052POPC   C3B12717  13.857   5.808   7.950
 4052POPC   C4B12718  13.862   5.816   7.650
 4053POPC   NC312719  15.207  31.504   9.450
 4053POPC   PO412720  15.166  31.431   9.150
 4053POPC   GL112721  15.192  31.426   8.850
 4053POPC   GL212722  15.309  31.567   8.850
 4053POPC   C1A12723  15.216  31.503   8.550
 4053POPC   D2A12724  15.158  31.443   8.250
 4053POPC   C3A12725  15.195  31.499   7.950
 4053POPC   C4A12726  15.180  31.449   7.650
 4053POPC   C1B12727  15.420  31.585   8.550
 4053POPC   C2B12728  15.435  31.550   8.250
 4053POPC   C3B12729  15.449  31.627   7.950
 4053POPC   C4B12730  15.371  31.559   7.650
 4054POPC   NC312731  19.804  36.137   9.450
 4054POPC   PO412732  19.805  36.132   9.150
 4054POPC   GL112733  19.852  36.144   8.850
 4054POPC   GL212734  19.827  36.060   8.850
 4054POPC   C1A12735  19.854  36.131   8.550
 4054POPC   D2A12736  19.794  36.148   8.250
 4054POPC   C3A12737  19.786  36.079   7.950
 4054POPC   C4A12738  19.872  36.103   7.650
 4054POPC   C1B12739  19.783  35.924   8.550
 4054POPC   C2B12740  19.773  35.848   8.250
 4054POPC   C3B12741  19.752  35.911   7.950
 4054POPC   C4B12742  19.760  35.879   7.650
 4055POPC   NC312743  12.078  11.340   9.450
 4055POPC   PO412744  12.030  11.293   9.150
 4055POPC   GL112745  12.086  11.297   8.850
 4055POPC   GL212746  12.239  11.296   8.850
 4055POPC   C1A12747  12.037  11.269   8.550
 4055POPC   D2A12748  12.116  11.251   8.250
 4055POPC   C3A12749  12.121  11.295   7.950
 4055POPC   C4A12750  12.066  11.306   7.650
 4055POPC   C1B12751  12.311  11.264   8.550
 4055POPC   C2B12752  12.363  11.217   8.250
 4055POPC   C3B12753  12.299  11.223   7.950
 4055POPC   C4B12754  12.321  11.272   7.650
 4056POPC   NC312755  11.284  32.202   9.450
 4056POPC   PO412756  11.336  32.202   9.150
 4056POPC   GL112757  11.338  32.266   8.850
 4056POPC   GL212758  11.294  32.418   8.850
 4056POPC   C1A12759  11.255  32.279   8.550
 4056POPC   D2A12760  11.255  32.292   8.250
 4056POPC   C3A12761  11.304  32.282   7.950
 4056POPC   C4A12762  11.327  32.218   7.650
 4056POPC   C1B12763  11.375  32.486   8.550
 4056POPC   C2B12764  11.387  32.510   8.250
 4056POPC   C3B12765  11.315  32.506   7.950
 4056POPC   C4B12766  11.352  32.498   7.650
 4057POPC   NC312767  41.588  19.078   9.450
 4057POPC   PO412768  41.537  19.072   9.150
 4057POPC   GL112769  41.600  19.103   8.850
 4057POPC   GL212770  41.480  19.182   8.850
 4057POPC   C1A12771  41.586  19.062   8.550
 4057POPC   D2A12772  41.570  19.061   8.250
 4057POPC   C3A12773  41.577  19.040   7.950
 4057POPC   C4A12774  41.581  19.041   7.650
 4057POPC   C1B12775  41.418  19.235   8.550
 4057POPC   C2B12776  41.429  19.288   8.250
 4057POPC   C3B12777  41.382  19.215   7.950
 4057POPC   C4B12778  41.396  19.226   7.650
 4058POPC   NC312779  25.268  26.795   9.450
 4058POPC   PO412780  25.231  26.839   9.150
 4058POPC   GL112781  25.241  26.782   8.850
 4058POPC   GL212782  25.366  26.693   8.850
 4058POPC   C1A12783  25.230  26.826   8.550
 4058POPC   D2A12784  25.283  26.791   8.250
 4058POPC   C3A12785  25.274  26.857   7.950
 4058POPC   C4A12786  25.265  26.835   7.650
 4058POPC   C1B12787  25.396  26.571   8.550
 4058POPC   C2B12788  25.406  26.627   8.250
 4058POPC   C3B12789  25.372  26.624   7.950
 4058POPC   C4B12790  25.403  26.605   7.650
 4059POPC   NC312791  12.881  26.865   9.450
 4059POPC   PO412792  12.889  26.861   9.150
 4059POPC   GL112793  12.881  26.793   8.850
 4059POPC   GL212794  12.920  26.747   8.850
 4059POPC   C1A12795  12.892  26.780   8.550
 4059POPC   D2A12796  12.892  26.824   8.250
 4059POPC   C3A12797  12.810  26.855   7.950
 4059POPC   C4A12798  12.879  26.776   7.650
 4059POPC   C1B12799  13.071  26.668   8.550
 4059POPC   C2B12800  13.106  26.739   8.250
 4059POPC   C3B12801  13.095  26.706   7.950
 4059POPC   C4B12802  13.066  26.720   7.650
 4060POPC   NC312803   4.289   5.851   9.450
 4060POPC   PO412804   4.330   5.858   9.150
 4060POPC   GL112805   4.297   5.917   8.850
 4060POPC   GL212806   4.241   5.813   8.850
 4060POPC   C1A12807   4.318   5.826   8.550
 4060POPC   D2A12808   4.274   5.836   8.250
 4060POPC   C3A12809   4.363   5.847   7.950
 4060POPC   C4A12810   4.273   5.832   7.650
 4060POPC   C1B12811   4.165   5.634   8.550
 4060POPC   C2B12812   4.196   5.664   8.250
 4060POPC   C3B12813   4.166   5.627   7.950
 4060POPC   C4B12814   4.212   5.710   7.650
 4061POPC   NC312815   2.000  26.028   9.450
 4061POPC   PO412816   2.004  25.999   9.150
 4061POPC   GL112817   2.012  25.998   8.850
 4061POPC   GL212818   2.085  25.975   8.850
 4061POPC   C1A12819   1.977  26.090   8.550
 4061POPC   D2A12820   1.993  26.043   8.250
 4061POPC   C3A12821   2.029  26.030   7.950
 4061POPC   C4A12822   1.984  26.083   7.650
 4061POPC   C1B12823   2.191  25.948   8.550
 4061POPC   C2B12824   2.202  25.870   8.250
 4061POPC   C3B12825   2.208  25.957   7.950
 4061POPC   C4B12826   2.172  25.930   7.650
 4062POPC   NC312827  38.460  26.839   9.450
 4062POPC   PO412828  38.442  26.847   9.150
 4062POPC   GL112829  38.441  26.837   8.850
 4062POPC   GL212830  38.406  26.940   8.850
 4062POPC   C1A12831  38.504  26.818   8.550
 4062POPC   D2A12832  38.496  26.792   8.250
 4062POPC   C3A12833  38.418  26.813   7.950
 4062POPC   C4A12834  38.428  26.824   7.650
 4062POPC   C1B12835  38.399  27.027   8.550
 4062POPC   C2B12836  38.357  27.091   8.250
 4062POPC   C3B12837  38.390  27.044   7.950
 4062POPC   C4B12838  38.319  27.047   7.650
 4063POPC   NC312839   2.803  20.605   9.450
 4063POPC   PO412840   2.719  20.656   9.150
 4063POPC   GL112841   2.814  20.580   8.850
 4063POPC   GL212842   2.850  20.618   8.850
 4063POPC   C1A12843   2.755  20.598   8.550
 4063POPC   D2A12844   2.780  20.616   8.250
 4063POPC   C3A12845   2.783  20.654   7.950
 4063POPC   C4A12846   2.792  20.651   7.650
 4063POPC   C1B12847   3.041  20.577   8.550
 4063POPC   C2B12848   3.017  20.611   8.250
 4063POPC   C3B12849   3.041  20.603   7.950
 4063POPC   C4B12850   3.059  20.622   7.650
 4064POPC   NC312851   2.775  21.380   9.450
 4064POPC   PO412852   2.773  21.433   9.150
 4064POPC   GL112853   2.780  21.399   8.850
 4064POPC   GL212854   2.663  21.397   8.850
 4064POPC   C1A12855   2.741  21.422   8.550
 4064POPC   D2A12856   2.745  21.421   8.250
 4064POPC   C3A12857   2.756  21.394   7.950
 4064POPC   C4A12858   2.741  21.375   7.650
 4064POPC   C1B12859   2.559  21.421   8.550
 4064POPC   C2B12860   2.506  21.459   8.250
 4064POPC   C3B12861   2.490  21.395   7.950
 4064POPC   C4B12862   2.538  21.469   7.650
 4065POPC   NC312863  35.396  27.549   9.450
 4065POPC   PO412864  35.370  27.643   9.150
 4065POPC   GL112865  35.334  27.624   8.850
 4065POPC   GL212866  35.318  27.721   8.850
 4065POPC   C1A12867  35.315  27.543   8.550
 4065POPC   D2A12868  35.361  27.586   8.250
 4065POPC   C3A12869  35.351  27.549   7.950
 4065POPC   C4A12870  35.375  27.640   7.650
 4065POPC   C1B12871  35.319  27.806   8.550
 4065POPC   C2B12872  35.296  27.792   8.250
 4065POPC   C3B12873  35.237  27.798   7.950
 4065POPC   C4B12874  35.283  27.839   7.650
 4066POPC   NC312875  29.878   8.949   9.450
 4066POPC   PO412876  29.921   8.967   9.150
 4066POPC   GL112877  29.905   8.924   8.850
 4066POPC   GL212878  30.056   8.858   8.850
 4066POPC   C1A12879  29.963   8.929   8.550
 4066POPC   D2A12880  29.902   8.945   8.250
 4066POPC   C3A12881  29.928   9.021   7.950
 4066POPC   C4A12882  29.893   8.939   7.650
 4066POPC   C1B12883  30.147   8.811   8.550
 4066POPC   C2B12884  30.136   8.824   8.250
 4066POPC   C3B12885  30.107   8.774   7.950
 4066POPC   C4B12886  30.128   8.823   7.650
 4067POPC   NC312887  17.469  15.946   9.450
 4067POPC   PO412888  17.555  15.925   9.150
 4067POPC   GL112889  17.549  15.963   8.850
 4067POPC   GL212890  17.399  16.037   8.850
 4067POPC   C1A12891  17.546  15.955   8.550
 4067POPC   D2A12892  17.490  15.932   8.250
 4067POPC   C3A12893  17.529  15.920   7.950
 4067POPC   C4A12894  17.505  15.946   7.650
 4067POPC   C1B12895  17.310  16.075   8.550
 4067POPC   C2B12896  17.297  16.043   8.250
 4067POPC   C3B12897  17.273  16.022   7.950
 4067POPC   C4B12898  17.320  16.076   7.650
 4068POPC   NC312899  43.868  22.911   9.450
 4068POPC   PO412900  43.921  22.970   9.150
 4068POPC   GL112901  43.902  22.941   8.850
 4068POPC   GL212902  43.863  23.094   8.850
 4068POPC   C1A12903  43.877  22.962   8.550
 4068POPC   D2A12904  43.863  22.897   8.250
 4068POPC   C3A12905  43.912  22.984   7.950
 4068POPC   C4A12906  43.908  22.897   7.650
 4068POPC   C1B12907  43.889  23.161   8.550
 4068POPC   C2B12908  43.952  23.231   8.250
 4068POPC   C3B12909  43.946  23.176   7.950
 4068POPC   C4B12910  43.894  23.218   7.650
 4069POPC   NC312911  37.707  27.565   9.450
 4069POPC   PO412912  37.660  27.631   9.150
 4069POPC   GL112913  37.714  27.558   8.850
 4069POPC   GL212914  37.516  27.604   8.850
 4069POPC   C1A12915  37.717  27.636   8.550
 4069POPC   D2A12916  37.675  27.548   8.250
 4069POPC   C3A12917  37.637  27.579   7.950
 4069POPC   C4A12918  37.667  27.562   7.650
 4069POPC   C1B12919  37.450  27.516   8.550
 4069POPC   C2B12920  37.455  27.561   8.250
 4069POPC   C3B12921  37.476  27.506   7.950
 4069POPC   C4B12922  37.433  27.559   7.650
 4070POPC   NC312923   4.288  16.688   9.450
 4070POPC   PO412924   4.296  16.707   9.150
 4070POPC   GL112925   4.306  16.723   8.850
 4070POPC   GL212926   4.213  16.609   8.850
 4070POPC   C1A12927   4.268  16.724   8.550
 4070POPC   D2A12928   4.301  16.776   8.250
 4070POPC   C3A12929   4.339  16.752   7.950
 4070POPC   C4A12930   4.287  16.706   7.650
 4070POPC   C1B12931   4.189  16.487   8.550
 4070POPC   C2B12932   4.208  16.560   8.250
 4070POPC   C3B12933   4.243  16.556   7.950
 4070POPC   C4B12934   4.225  16.529   7.650
 4071POPC   NC312935  17.533   2.774   9.450
 4071POPC   PO412936  17.498   2.750   9.150
 4071POPC   GL112937  17.502   2.777   8.850
 4071POPC   GL212938  17.463   2.858   8.850
 4071POPC   C1A12939  17.465   2.735   8.550
 4071POPC   D2A12940  17.488   2.720   8.250
 4071POPC   C3A12941  17.518   2.732   7.950
 4071POPC   C4A12942  17.517   2.806   7.650
 4071POPC   C1B12943  17.334   2.970   8.550
 4071POPC   C2B12944  17.394   2.989   8.250
 4071POPC   C3B12945  17.403   2.993   7.950
 4071POPC   C4B12946  17.349   2.986   7.650
 4072POPC   NC312947  43.890  13.675   9.450
 4072POPC   PO412948  43.860  13.599   9.150
 4072POPC   GL112949  43.930  13.632   8.850
 4072POPC   GL212950  43.979  13.529   8.850
 4072POPC   C1A12951  43.927  13.662   8.550
 4072POPC   D2A12952  43.898  13.672   8.250
 4072POPC   C3A12953  43.875  13.579   7.950
 4072POPC   C4A12954  43.879  13.629   7.650
 4072POPC   C1B12955  44.101  13.458   8.550
 4072POPC   C2B12956  44.085  13.415   8.250
 4072POPC   C3B12957  44.070  13.409   7.950
 4072POPC   C4B12958  44.040  13.443   7.650
 4073POPC   NC312959  10.550  10.481   9.450
 4073POPC   PO412960  10.518  10.531   9.150
 4073POPC   GL112961  10.514  10.523   8.850
 4073POPC   GL212962  10.592  10.478   8.850
 4073POPC   C1A12963  10.509  10.541   8.550
 4073POPC   D2A12964  10.507  10.558   8.250
 4073POPC   C3A12965  10.503  10.494   7.950
 4073POPC   C4A12966  10.562  10.528   7.650
 4073POPC   C1B12967  10.667  10.360   8.550
 4073POPC   C2B12968  10.716  10.384   8.250
 4073POPC   C3B12969  10.743  10.358   7.950
 4073POPC   C4B12970  10.737  10.336   7.650
 4074POPC   NC312971  38.479  10.508   9.450
 4074POPC   PO412972  38.412  10.571   9.150
 4074POPC   GL112973  38.440  10.559   8.850
 4074POPC   GL212974  38.489  10.465   8.850
 4074POPC   C1A12975  38.490  10.501   8.550
 4074POPC   D2A12976  38.424  10.547   8.250
 4074POPC   C3A12977  38.499  10.559   7.950
 4074POPC   C4A12978  38.455  10.496   7.650
 4074POPC   C1B12979  38.592  10.352   8.550
 4074POPC   C2B12980  38.627  10.263   8.250
 4074POPC   C3B12981  38.579  10.337   7.950
 4074POPC   C4B12982  38.556  10.344   7.650
 4075POPC   NC312983  36.087  34.570   9.450
 4075POPC   PO412984  36.125  34.526   9.150
 4075POPC   GL112985  36.142  34.561   8.850
 4075POPC   GL212986  36.115  34.462   8.850
 4075POPC   C1A12987  36.086  34.540   8.550
 4075POPC   D2A12988  36.145  34.625   8.250
 4075POPC   C3A12989  36.177  34.601   7.950
 4075POPC   C4A12990  36.105  34.611   7.650
 4075POPC   C1B12991  36.006  34.374   8.550
 4075POPC   C2B12992  36.027  34.349   8.250
 4075POPC   C3B12993  36.070  34.385   7.950
 4075POPC   C4B12994  36.081  34.366   7.650
 4076POPC   NC312995   5.094  34.547   9.450
 4076POPC   PO412996   5.096  34.620   9.150
 4076POPC   GL112997   5.058  34.615   8.850
 4076POPC   GL212998   5.159  34.517   8.850
 4076POPC   C1A12999   5.112  34.534   8.550
 4076POPC   D2A13000   5.092  34.542   8.250
 4076POPC   C3A13001   5.068  34.541   7.950
 4076POPC   C4A13002   5.071  34.553   7.650
 4076POPC   C1B13003   5.274  34.413   8.550
 4076POPC   C2B13004   5.229  34.395   8.250
 4076POPC   C3B13005   5.250  34.394   7.950
 4076POPC   C4B13006   5.262  34.421   7.650
 4077POPC   NC313007  41.524  15.201   9.450
 4077POPC   PO413008  41.547  15.178   9.150
 4077POPC   GL113009  41.600  15.202   8.850
 4077POPC   GL213010  41.501  15.271   8.850
 4077POPC   C1A13011  41.600  15.201   8.550
 4077POPC   D2A13012  41.593  15.176   8.250
 4077POPC   C3A13013  41.579  15.196   7.950
 4077POPC   C4A13014  41.591  15.167   7.650
 4077POPC   C1B13015  41.485  15.442   8.550
 4077POPC   C2B13016  41.429  15.455   8.250
 4077POPC   C3B13017  41.424  15.453   7.950
 4077POPC   C4B13018  41.432  15.406   7.650
 4078POPC   NC313019  40.830  22.939   9.450
 4078POPC   PO413020  40.745  22.945   9.150
 4078POPC   GL113021  40.748  22.913   8.850
 4078POPC   GL213022  40.831  22.841   8.850
 4078POPC   C1A13023  40.800  22.974   8.550
 4078POPC   D2A13024  40.828  22.909   8.250
 4078POPC   C3A13025  40.747  22.948   7.950
 4078POPC   C4A13026  40.753  22.984   7.650
 4078POPC   C1B13027  40.921  22.803   8.550
 4078POPC   C2B13028  40.979  22.783   8.250
 4078POPC   C3B13029  40.997  22.744   7.950
 4078POPC   C4B13030  40.922  22.768   7.650
 4079POPC   NC313031  43.087  20.636   9.450
 4079POPC   PO413032  43.109  20.623   9.150
 4079POPC   GL113033  43.159  20.561   8.850
 4079POPC   GL213034  43.271  20.595   8.850
 4079POPC   C1A13035  43.108  20.614   8.550
 4079POPC   D2A13036  43.154  20.633   8.250
 4079POPC   C3A13037  43.070  20.660   7.950
 4079POPC   C4A13038  43.082  20.654   7.650
 4079POPC   C1B13039  43.386  20.579   8.550
 4079POPC   C2B13040  43.393  20.624   8.250
 4079POPC   C3B13041  43.409  20.662   7.950
 4079POPC   C4B13042  43.378  20.624   7.650
 4080POPC   NC313043  42.310  33.769   9.450
 4080POPC   PO413044  42.325  33.810   9.150
 4080POPC   GL113045  42.316  33.781   8.850
 4080POPC   GL213046  42.232  33.880   8.850
 4080POPC   C1A13047  42.373  33.837   8.550
 4080POPC   D2A13048  42.300  33.819   8.250
 4080POPC   C3A13049  42.365  33.811   7.950
 4080POPC   C4A13050  42.337  33.832   7.650
 4080POPC   C1B13051  42.133  33.972   8.550
 4080POPC   C2B13052  42.144  33.896   8.250
 4080POPC   C3B13053  42.082  33.903   7.950
 4080POPC   C4B13054  42.076  33.881   7.650
 4081POPC   NC313055  11.344   5.844   9.450
 4081POPC   PO413056  11.302   5.864   9.150
 4081POPC   GL113057  11.266   5.917   8.850
 4081POPC   GL213058  11.220   5.758   8.850
 4081POPC   C1A13059  11.327   5.872   8.550
 4081POPC   D2A13060  11.281   5.842   8.250
 4081POPC   C3A13061  11.271   5.844   7.950
 4081POPC   C4A13062  11.322   5.871   7.650
 4081POPC   C1B13063  11.134   5.700   8.550
 4081POPC   C2B13064  11.200   5.618   8.250
 4081POPC   C3B13065  11.169   5.696   7.950
 4081POPC   C4B13066  11.173   5.686   7.650
 4082POPC   NC313067  13.598   1.215   9.450
 4082POPC   PO413068  13.629   1.221   9.150
 4082POPC   GL113069  13.582   1.231   8.850
 4082POPC   GL213070  13.726   1.168   8.850
 4082POPC   C1A13071  13.586   1.221   8.550
 4082POPC   D2A13072  13.584   1.257   8.250
 4082POPC   C3A13073  13.674   1.223   7.950
 4082POPC   C4A13074  13.652   1.258   7.650
 4082POPC   C1B13075  13.900   1.179   8.550
 4082POPC   C2B13076  13.832   1.144   8.250
 4082POPC   C3B13077  13.834   1.135   7.950
 4082POPC   C4B13078  13.913   1.233   7.650
 4083POPC   NC313079  22.952  22.980   9.450
 4083POPC   PO413080  22.908  22.928   9.150
 4083POPC   GL113081  22.904  22.934   8.850
 4083POPC   GL213082  22.873  23.023   8.850
 4083POPC   C1A13083  22.911  22.903   8.550
 4083POPC   D2A13084  22.936  22.954   8.250
 4083POPC   C3A13085  22.918  22.982   7.950
 4083POPC   C4A13086  22.894  22.944   7.650
 4083POPC   C1B13087  22.845  23.135   8.550
 4083POPC   C2B13088  22.770  23.165   8.250
 4083POPC   C3B13089  22.811  23.182   7.950
 4083POPC   C4B13090  22.855  23.181   7.650
 4084POPC   NC313091  10.541  33.833   9.450
 4084POPC   PO413092  10.545  33.796   9.150
 4084POPC   GL113093  10.479  33.821   8.850
 4084POPC   GL213094  10.383  33.780   8.850
 4084POPC   C1A13095  10.507  33.790   8.550
 4084POPC   D2A13096  10.547  33.754   8.250
 4084POPC   C3A13097  10.523  33.849   7.950
 4084POPC   C4A13098  10.553  33.772   7.650
 4084POPC   C1B13099  10.335  33.645   8.550
 4084POPC   C2B13100  10.353  33.630   8.250
 4084POPC   C3B13101  10.269  33.694   7.950
 4084POPC   C4B13102  10.333  33.689   7.650
 4085POPC   NC313103  42.376  31.451   9.450
 4085POPC   PO413104  42.304  31.431   9.150
 4085POPC   GL113105  42.344  31.469   8.850
 4085POPC   GL213106  42.308  31.371   8.850
 4085POPC   C1A13107  42.293  31.511   8.550
 4085POPC   D2A13108  42.348  31.446   8.250
 4085POPC   C3A13109  42.368  31.516   7.950
 4085POPC   C4A13110  42.368  31.454   7.650
 4085POPC   C1B13111  42.370  31.238   8.550
 4085POPC   C2B13112  42.335  31.182   8.250
 4085POPC   C3B13113  42.412  31.251   7.950
 4085POPC   C4B13114  42.337  31.272   7.650
 4086POPC   NC313115  39.985  24.493   9.450
 4086POPC   PO413116  39.981  24.516   9.150
 4086POPC   GL113117  39.986  24.479   8.850
 4086POPC   GL213118  40.092  24.448   8.850
 4086POPC   C1A13119  39.976  24.460   8.550
 4086POPC   D2A13120  39.984  24.472   8.250
 4086POPC   C3A13121  40.057  24.460   7.950
 4086POPC   C4A13122  40.043  24.526   7.650
 4086POPC   C1B13123  40.226  24.468   8.550
 4086POPC   C2B13124  40.218  24.479   8.250
 4086POPC   C3B13125  40.248  24.513   7.950
 4086POPC   C4B13126  40.224  24.445   7.650
 4087POPC   NC313127  16.682   2.758   9.450
 4087POPC   PO413128  16.768   2.812   9.150
 4087POPC   GL113129  16.709   2.746   8.850
 4087POPC   GL213130  16.820   2.771   8.850
 4087POPC   C1A13131  16.741   2.778   8.550
 4087POPC   D2A13132  16.752   2.737   8.250
 4087POPC   C3A13133  16.718   2.754   7.950
 4087POPC   C4A13134  16.720   2.808   7.650
 4087POPC   C1B13135  16.911   2.875   8.550
 4087POPC   C2B13136  16.993   2.866   8.250
 4087POPC   C3B13137  16.916   2.841   7.950
 4087POPC   C4B13138  16.978   2.896   7.650
 4088POPC   NC313139  20.612  10.506   9.450
 4088POPC   PO413140  20.615  10.539   9.150
 4088POPC   GL113141  20.562  10.555   8.850
 4088POPC   GL213142  20.627  10.610   8.850
 4088POPC   C1A13143  20.575  10.518   8.550
 4088POPC   D2A13144  20.627  10.555   8.250
 4088POPC   C3A13145  20.579  10.497   7.950
 4088POPC   C4A13146  20.561  10.493   7.650
 4088POPC   C1B13147  20.654  10.722   8.550
 4088POPC   C2B13148  20.713  10.802   8.250
 4088POPC   C3B13149  20.748  10.781   7.950
 4088POPC   C4B13150  20.670  10.725   7.650
 4089POPC   NC313151   5.868  30.717   9.450
 4089POPC   PO413152   5.823  30.698   9.150
 4089POPC   GL113153   5.844  30.725   8.850
 4089POPC   GL213154   5.972  30.823   8.850
 4089POPC   C1A13155   5.891  30.720   8.550
 4089POPC   D2A13156   5.853  30.673   8.250
 4089POPC   C3A13157   5.849  30.681   7.950
 4089POPC   C4A13158   5.880  30.651   7.650
 4089POPC   C1B13159   6.075  30.847   8.550
 4089POPC   C2B13160   6.062  30.816   8.250
 4089POPC   C3B13161   6.039  30.831   7.950
 4089POPC   C4B13162   6.059  30.818   7.650
 4090POPC   NC313163  16.730  11.321   9.450
 4090POPC   PO413164  16.714  11.254   9.150
 4090POPC   GL113165  16.751  11.345   8.850
 4090POPC   GL213166  16.899  11.265   8.850
 4090POPC   C1A13167  16.740  11.264   8.550
 4090POPC   D2A13168  16.717  11.304   8.250
 4090POPC   C3A13169  16.700  11.254   7.950
 4090POPC   C4A13170  16.700  11.301   7.650
 4090POPC   C1B13171  16.958  11.231   8.550
 4090POPC   C2B13172  16.958  11.208   8.250
 4090POPC   C3B13173  17.012  11.214   7.950
 4090POPC   C4B13174  16.981  11.207   7.650
 4091POPC   NC313175  33.847  12.044   9.450
 4091POPC   PO413176  33.807  12.119   9.150
 4091POPC   GL113177  33.821  12.118   8.850
 4091POPC   GL213178  33.713  12.077   8.850
 4091POPC   C1A13179  33.844  12.026   8.550
 4091POPC   D2A13180  33.802  12.112   8.250
 4091POPC   C3A13181  33.789  12.051   7.950
 4091POPC   C4A13182  33.810  12.043   7.650
 4091POPC   C1B13183  33.571  12.141   8.550
 4091POPC   C2B13184  33.555  12.111   8.250
 4091POPC   C3B13185  33.562  12.107   7.950
 4091POPC   C4B13186  33.550  12.102   7.650
 4092POPC   NC313187  19.871   9.792   9.450
 4092POPC   PO413188  19.873   9.728   9.150
 4092POPC   GL113189  19.831   9.715   8.850
 4092POPC   GL213190  19.767   9.616   8.850
 4092POPC   C1A13191  19.827   9.708   8.550
 4092POPC   D2A13192  19.813   9.781   8.250
 4092POPC   C3A13193  19.865   9.711   7.950
 4092POPC   C4A13194  19.785   9.749   7.650
 4092POPC   C1B13195  19.688   9.476   8.550
 4092POPC   C2B13196  19.765   9.503   8.250
 4092POPC   C3B13197  19.741   9.508   7.950
 4092POPC   C4B13198  19.690   9.542   7.650
 4093POPC   NC313199  13.627  10.561   9.450
 4093POPC   PO413200  13.634  10.500   9.150
 4093POPC   GL113201  13.610  10.571   8.850
 4093POPC   GL213202  13.725  10.405   8.850
 4093POPC   C1A13203  13.657  10.543   8.550
 4093POPC   D2A13204  13.676  10.505   8.250
 4093POPC   C3A13205  13.656  10.509   7.950
 4093POPC   C4A13206  13.661  10.572   7.650
 4093POPC   C1B13207  13.748  10.259   8.550
 4093POPC   C2B13208  13.710  10.293   8.250
 4093POPC   C3B13209  13.744  10.342   7.950
 4093POPC   C4B13210  13.730  10.280   7.650
 4094POPC   NC313211  35.383  31.516   9.450
 4094POPC   PO413212  35.325  31.459   9.150
 4094POPC   GL113213  35.388  31.479   8.850
 4094POPC   GL213214  35.390  31.627   8.850
 4094POPC   C1A13215  35.383  31.444   8.550
 4094POPC   D2A13216  35.369  31.506   8.250
 4094POPC   C3A13217  35.373  31.434   7.950
 4094POPC   C4A13218  35.307  31.460   7.650
 4094POPC   C1B13219  35.430  31.678   8.550
 4094POPC   C2B13220  35.459  31.743   8.250
 4094POPC   C3B13221  35.377  31.752   7.950
 4094POPC   C4B13222  35.371  31.751   7.650
 4095POPC   NC313223  36.091  10.539   9.450
 4095POPC   PO413224  36.163  10.490   9.150
 4095POPC   GL113225  36.174  10.491   8.850
 4095POPC   GL213226  36.193  10.635   8.850
 4095POPC   C1A13227  36.144  10.488   8.550
 4095POPC   D2A13228  36.142  10.519   8.250
 4095POPC   C3A13229  36.141  10.521   7.950
 4095POPC   C4A13230  36.119  10.479   7.650
 4095POPC   C1B13231  36.325  10.726   8.550
 4095POPC   C2B13232  36.311  10.686   8.250
 4095POPC   C3B13233  36.325  10.680   7.950
 4095POPC   C4B13234  36.345  10.685   7.650
 4096POPC   NC313235  14.399  24.459   9.450
 4096POPC   PO413236  14.448  24.521   9.150
 4096POPC   GL113237  14.411  24.464   8.850
 4096POPC   GL213238  14.426  24.339   8.850
 4096POPC   C1A13239  14.362  24.452   8.550
 4096POPC   D2A13240  14.395  24.512   8.250
 4096POPC   C3A13241  14.423  24.480   7.950
 4096POPC   C4A13242  14.401  24.505   7.650
 4096POPC   C1B13243  14.510  24.236   8.550
 4096POPC   C2B13244  14.488  24.202   8.250
 4096POPC   C3B13245  14.485  24.242   7.950
 4096POPC   C4B13246  14.424  24.290   7.650
 4097POPC   NC313247  38.459  33.030   9.450
 4097POPC   PO413248  38.452  32.980   9.150
 4097POPC   GL113249  38.458  32.990   8.850
 4097POPC   GL213250  38.563  32.956   8.850
 4097POPC   C1A13251  38.409  32.976   8.550
 4097POPC   D2A13252  38.430  33.050   8.250
 4097POPC   C3A13253  38.477  33.053   7.950
 4097POPC   C4A13254  38.446  33.047   7.650
 4097POPC   C1B13255  38.660  32.847   8.550
 4097POPC   C2B13256  38.698  32.852   8.250
 4097POPC   C3B13257  38.671  32.908   7.950
 4097POPC   C4B13258  38.659  32.908   7.650
 4098POPC   NC313259  15.197   0.461   9.450
 4098POPC   PO413260  15.215   0.441   9.150
 4098POPC   GL113261  15.217   0.429   8.850
 4098POPC   GL213262  15.091   0.537   8.850
 4098POPC   C1A13263  15.207   0.427   8.550
 4098POPC   D2A13264  15.165   0.388   8.250
 4098POPC   C3A13265  15.226   0.438   7.950
 4098POPC   C4A13266  15.129   0.391   7.650
 4098POPC   C1B13267  15.088   0.623   8.550
 4098POPC   C2B13268  15.036   0.642   8.250
 4098POPC   C3B13269  15.010   0.651   7.950
 4098POPC   C4B13270  15.067   0.668   7.650
 4099POPC   NC313271  36.900  36.940   9.450
 4099POPC   PO413272  36.953  36.861   9.150
 4099POPC   GL113273  36.941  36.910   8.850
 4099POPC   GL213274  36.813  36.913   8.850
 4099POPC   C1A13275  36.904  36.905   8.550
 4099POPC   D2A13276  36.897  36.912   8.250
 4099POPC   C3A13277  36.944  36.909   7.950
 4099POPC   C4A13278  36.885  36.940   7.650
 4099POPC   C1B13279  36.666  36.967   8.550
 4099POPC   C2B13280  36.690  36.936   8.250
 4099POPC   C3B13281  36.694  36.899   7.950
 4099POPC   C4B13282  36.679  36.960   7.650
 4100POPC   NC313283   2.006  12.869   9.450
 4100POPC   PO413284   1.954  12.883   9.150
 4100POPC   GL113285   1.940  12.852   8.850
 4100POPC   GL213286   1.953  12.780   8.850
 4100POPC   C1A13287   2.008  12.828   8.550
 4100POPC   D2A13288   1.964  12.842   8.250
 4100POPC   C3A13289   1.945  12.807   7.950
 4100POPC   C4A13290   1.986  12.838   7.650
 4100POPC   C1B13291   1.953  12.575   8.550
 4100POPC   C2B13292   1.955  12.589   8.250
 4100POPC   C3B13293   1.914  12.658   7.950
 4100POPC   C4B13294   1.966  12.599   7.650
 4101POPC   NC313295  37.706  36.869   9.450
 4101POPC   PO413296  37.657  36.888   9.150
 4101POPC   GL113297  37.642  36.900   8.850
 4101POPC   GL213298  37.828  36.801   8.850
 4101POPC   C1A13299  37.699  36.921   8.550
 4101POPC   D2A13300  37.727  36.871   8.250
 4101POPC   C3A13301  37.727  36.949   7.950
 4101POPC   C4A13302  37.657  36.861   7.650
 4101POPC   C1B13303  37.880  36.763   8.550
 4101POPC   C2B13304  37.923  36.747   8.250
 4101POPC   C3B13305  37.847  36.801   7.950
 4101POPC   C4B13306  37.885  36.745   7.650
 4102POPC   NC313307  29.112  39.238   9.450
 4102POPC   PO413308  29.156  39.253   9.150
 4102POPC   GL113309  29.188  39.237   8.850
 4102POPC   GL213310  29.158  39.087   8.850
 4102POPC   C1A13311  29.181  39.202   8.550
 4102POPC   D2A13312  29.147  39.270   8.250
 4102POPC   C3A13313  29.115  39.236   7.950
 4102POPC   C4A13314  29.149  39.203   7.650
 4102POPC   C1B13315  29.184  38.980   8.550
 4102POPC   C2B13316  29.245  39.029   8.250
 4102POPC   C3B13317  29.251  39.030   7.950
 4102POPC   C4B13318  29.207  38.988   7.650
 4103POPC   NC313319  12.804  35.325   9.450
 4103POPC   PO413320  12.825  35.324   9.150
 4103POPC   GL113321  12.817  35.303   8.850
 4103POPC   GL213322  12.754  35.264   8.850
 4103POPC   C1A13323  12.820  35.323   8.550
 4103POPC   D2A13324  12.888  35.394   8.250
 4103POPC   C3A13325  12.812  35.388   7.950
 4103POPC   C4A13326  12.875  35.372   7.650
 4103POPC   C1B13327  12.636  35.267   8.550
 4103POPC   C2B13328  12.663  35.295   8.250
 4103POPC   C3B13329  12.596  35.241   7.950
 4103POPC   C4B13330  12.574  35.256   7.650
 4104POPC   NC313331  36.921  38.490   9.450
 4104POPC   PO413332  36.898  38.443   9.150
 4104POPC   GL113333  36.922  38.504   8.850
 4104POPC   GL213334  36.833  38.327   8.850
 4104POPC   C1A13335  36.913  38.432   8.550
 4104POPC   D2A13336  36.942  38.485   8.250
 4104POPC   C3A13337  36.946  38.418   7.950
 4104POPC   C4A13338  36.909  38.492   7.650
 4104POPC   C1B13339  36.795  38.264   8.550
 4104POPC   C2B13340  36.874  38.199   8.250
 4104POPC   C3B13341  36.861  38.173   7.950
 4104POPC   C4B13342  36.779  38.209   7.650
 4105POPC   NC313343  22.147   3.525   9.450
 4105POPC   PO413344  22.203   3.503   9.150
 4105POPC   GL113345  22.128   3.522   8.850
 4105POPC   GL213346  22.257   3.677   8.850
 4105POPC   C1A13347  22.151   3.511   8.550
 4105POPC   D2A13348  22.127   3.518   8.250
 4105POPC   C3A13349  22.197   3.529   7.950
 4105POPC   C4A13350  22.128   3.540   7.650
 4105POPC   C1B13351  22.307   3.677   8.550
 4105POPC   C2B13352  22.301   3.764   8.250
 4105POPC   C3B13353  22.335   3.705   7.950
 4105POPC   C4B13354  22.307   3.691   7.650
 4106POPC   NC313355  32.225   1.186   9.450
 4106POPC   PO413356  32.202   1.234   9.150
 4106POPC   GL113357  32.294   1.249   8.850
 4106POPC   GL213358  32.303   1.302   8.850
 4106POPC   C1A13359  32.205   1.206   8.550
 4106POPC   D2A13360  32.271   1.212   8.250
 4106POPC   C3A13361  32.203   1.169   7.950
 4106POPC   C4A13362  32.287   1.169   7.650
 4106POPC   C1B13363  32.250   1.493   8.550
 4106POPC   C2B13364  32.287   1.422   8.250
 4106POPC   C3B13365  32.260   1.425   7.950
 4106POPC   C4B13366  32.290   1.472   7.650
 4107POPC   NC313367  15.152  30.729   9.450
 4107POPC   PO413368  15.161  30.665   9.150
 4107POPC   GL113369  15.148  30.716   8.850
 4107POPC   GL213370  15.340  30.685   8.850
 4107POPC   C1A13371  15.196  30.699   8.550
 4107POPC   D2A13372  15.219  30.663   8.250
 4107POPC   C3A13373  15.173  30.656   7.950
 4107POPC   C4A13374  15.170  30.703   7.650
 4107POPC   C1B13375  15.428  30.615   8.550
 4107POPC   C2B13376  15.392  30.632   8.250
 4107POPC   C3B13377  15.370  30.582   7.950
 4107POPC   C4B13378  15.426  30.579   7.650
 4108POPC   NC313379   5.821   9.769   9.450
 4108POPC   PO413380   5.901   9.747   9.150
 4108POPC   GL113381   5.859   9.789   8.850
 4108POPC   GL213382   5.830   9.892   8.850
 4108POPC   C1A13383   5.905   9.785   8.550
 4108POPC   D2A13384   5.842   9.755   8.250
 4108POPC   C3A13385   5.863   9.728   7.950
 4108POPC   C4A13386   5.896   9.783   7.650
 4108POPC   C1B13387   5.787  10.029   8.550
 4108POPC   C2B13388   5.747   9.983   8.250
 4108POPC   C3B13389   5.763  10.022   7.950
 4108POPC   C4B13390   5.797  10.031   7.650
 4109POPC   NC313391  28.361   4.330   9.450
 4109POPC   PO413392  28.379   4.268   9.150
 4109POPC   GL113393  28.343   4.349   8.850
 4109POPC   GL213394  28.290   4.286   8.850
 4109POPC   C1A13395  28.327   4.358   8.550
 4109POPC   D2A13396  28.366   4.268   8.250
 4109POPC   C3A13397  28.404   4.361   7.950
 4109POPC   C4A13398  28.372   4.302   7.650
 4109POPC   C1B13399  28.160   4.183   8.550
 4109POPC   C2B13400  28.180   4.190   8.250
 4109POPC   C3B13401  28.097   4.236   7.950
 4109POPC   C4B13402  28.103   4.256   7.650
 4110POPC   NC313403  25.224   7.432   9.450
 4110POPC   PO413404  25.273   7.468   9.150
 4110POPC   GL113405  25.221   7.468   8.850
 4110POPC   GL213406  25.166   7.503   8.850
 4110POPC   C1A13407  25.285   7.377   8.550
 4110POPC   D2A13408  25.251   7.426   8.250
 4110POPC   C3A13409  25.268   7.439   7.950
 4110POPC   C4A13410  25.285   7.372   7.650
 4110POPC   C1B13411  25.118   7.574   8.550
 4110POPC   C2B13412  25.122   7.634   8.250
 4110POPC   C3B13413  25.141   7.633   7.950
 4110POPC   C4B13414  25.124   7.610   7.650
 4111POPC   NC313415  40.044  28.347   9.450
 4111POPC   PO413416  39.996  28.375   9.150
 4111POPC   GL113417  40.023  28.372   8.850
 4111POPC   GL213418  40.151  28.386   8.850
 4111POPC   C1A13419  40.042  28.368   8.550
 4111POPC   D2A13420  40.027  28.345   8.250
 4111POPC   C3A13421  40.016  28.319   7.950
 4111POPC   C4A13422  40.005  28.370   7.650
 4111POPC   C1B13423  40.251  28.506   8.550
 4111POPC   C2B13424  40.227  28.487   8.250
 4111POPC   C3B13425  40.199  28.451   7.950
 4111POPC   C4B13426  40.260  28.493   7.650
 4112POPC   NC313427  29.138  14.412   9.450
 4112POPC   PO413428  29.188  14.403   9.150
 4112POPC   GL113429  29.179  14.430   8.850
 4112POPC   GL213430  29.187  14.328   8.850
 4112POPC   C1A13431  29.146  14.419   8.550
 4112POPC   D2A13432  29.101  14.415   8.250
 4112POPC   C3A13433  29.124  14.411   7.950
 4112POPC   C4A13434  29.110  14.447   7.650
 4112POPC   C1B13435  29.273  14.256   8.550
 4112POPC   C2B13436  29.278  14.215   8.250
 4112POPC   C3B13437  29.308  14.190   7.950
 4112POPC   C4B13438  29.253  14.184   7.650
 4113POPC   NC313439  14.386  44.633   9.450
 4113POPC   PO413440  14.364  44.673   9.150
 4113POPC   GL113441  14.368  44.656   8.850
 4113POPC   GL213442  14.436  44.784   8.850
 4113POPC   C1A13443  14.407  44.708   8.550
 4113POPC   D2A13444  14.439  44.613   8.250
 4113POPC   C3A13445  14.390  44.626   7.950
 4113POPC   C4A13446  14.381  44.691   7.650
 4113POPC   C1B13447  14.412  44.958   8.550
 4113POPC   C2B13448  14.394  44.954   8.250
 4113POPC   C3B13449  14.385  44.924   7.950
 4113POPC   C4B13450  14.394  44.898   7.650
 4114POPC   NC313451  36.088  19.099   9.450
 4114POPC   PO413452  36.177  19.026   9.150
 4114POPC   GL113453  36.144  19.048   8.850
 4114POPC   GL213454  36.138  18.974   8.850
 4114POPC   C1A13455  36.104  19.024   8.550
 4114POPC   D2A13456  36.152  19.090   8.250
 4114POPC   C3A13457  36.167  19.026   7.950
 4114POPC   C4A13458  36.123  19.079   7.650
 4114POPC   C1B13459  36.260  18.832   8.550
 4114POPC   C2B13460  36.183  18.817   8.250
 4114POPC   C3B13461  36.233  18.807   7.950
 4114POPC   C4B13462  36.213  18.793   7.650
 4115POPC   NC313463  18.272   7.437   9.450
 4115POPC   PO413464  18.296   7.466   9.150
 4115POPC   GL113465  18.285   7.389   8.850
 4115POPC   GL213466  18.115   7.363   8.850
 4115POPC   C1A13467  18.258   7.399   8.550
 4115POPC   D2A13468  18.243   7.389   8.250
 4115POPC   C3A13469  18.318   7.392   7.950
 4115POPC   C4A13470  18.259   7.407   7.650
 4115POPC   C1B13471  18.037   7.349   8.550
 4115POPC   C2B13472  18.049   7.357   8.250
 4115POPC   C3B13473  18.086   7.414   7.950
 4115POPC   C4B13474  18.029   7.347   7.650
 4116POPC   NC313475   8.242   3.555   9.450
 4116POPC   PO413476   8.177   3.543   9.150
 4116POPC   GL113477   8.175   3.584   8.850
 4116POPC   GL213478   8.234   3.452   8.850
 4116POPC   C1A13479   8.231   3.552   8.550
 4116POPC   D2A13480   8.220   3.509   8.250
 4116POPC   C3A13481   8.158   3.501   7.950
 4116POPC   C4A13482   8.184   3.546   7.650
 4116POPC   C1B13483   8.244   3.276   8.550
 4116POPC   C2B13484   8.231   3.299   8.250
 4116POPC   C3B13485   8.264   3.333   7.950
 4116POPC   C4B13486   8.282   3.275   7.650
 4117POPC   NC313487  38.424  39.207   9.450
 4117POPC   PO413488  38.472  39.191   9.150
 4117POPC   GL113489  38.439  39.183   8.850
 4117POPC   GL213490  38.516  39.315   8.850
 4117POPC   C1A13491  38.420  39.199   8.550
 4117POPC   D2A13492  38.503  39.184   8.250
 4117POPC   C3A13493  38.460  39.235   7.950
 4117POPC   C4A13494  38.414  39.264   7.650
 4117POPC   C1B13495  38.684  39.348   8.550
 4117POPC   C2B13496  38.630  39.347   8.250
 4117POPC   C3B13497  38.657  39.357   7.950
 4117POPC   C4B13498  38.654  39.412   7.650
 4118POPC   NC313499   4.309  18.296   9.450
 4118POPC   PO413500   4.329  18.289   9.150
 4118POPC   GL113501   4.357  18.320   8.850
 4118POPC   GL213502   4.374  18.413   8.850
 4118POPC   C1A13503   4.326  18.285   8.550
 4118POPC   D2A13504   4.354  18.264   8.250
 4118POPC   C3A13505   4.355  18.297   7.950
 4118POPC   C4A13506   4.318  18.238   7.650
 4118POPC   C1B13507   4.337  18.545   8.550
 4118POPC   C2B13508   4.417  18.522   8.250
 4118POPC   C3B13509   4.322  18.488   7.950
 4118POPC   C4B13510   4.380  18.540   7.650
 4119POPC   NC313511  37.648  30.680   9.450
 4119POPC   PO413512  37.714  30.666   9.150
 4119POPC   GL113513  37.696  30.743   8.850
 4119POPC   GL213514  37.755  30.694   8.850
 4119POPC   C1A13515  37.707  30.741   8.550
 4119POPC   D2A13516  37.719  30.682   8.250
 4119POPC   C3A13517  37.712  30.717   7.950
 4119POPC   C4A13518  37.648  30.730   7.650
 4119POPC   C1B13519  37.946  30.641   8.550
 4119POPC   C2B13520  37.964  30.643   8.250
 4119POPC   C3B13521  37.927  30.693   7.950
 4119POPC   C4B13522  37.949  30.723   7.650
 4120POPC   NC313523   2.729  18.254   9.450
 4120POPC   PO413524   2.802  18.296   9.150
 4120POPC   GL113525   2.748  18.271   8.850
 4120POPC   GL213526   2.602  18.264   8.850
 4120POPC   C1A13527   2.799  18.264   8.550
 4120POPC   D2A13528   2.778  18.316   8.250
 4120POPC   C3A13529   2.724  18.329   7.950
 4120POPC   C4A13530   2.729  18.308   7.650
 4120POPC   C1B13531   2.506  18.280   8.550
 4120POPC   C2B13532   2.543  18.301   8.250
 4120POPC   C3B13533   2.550  18.243   7.950
 4120POPC   C4B13534   2.523  18.242   7.650
 4121POPC   NC313535  33.798  28.394   9.450
 4121POPC   PO413536  33.803  28.373   9.150
 4121POPC   GL113537  33.788  28.367   8.850
 4121POPC   GL213538  33.955  28.280   8.850
 4121POPC   C1A13539  33.827  28.329   8.550
 4121POPC   D2A13540  33.837  28.362   8.250
 4121POPC   C3A13541  33.832  28.354   7.950
 4121POPC   C4A13542  33.759  28.331   7.650
 4121POPC   C1B13543  34.087  28.317   8.550
 4121POPC   C2B13544  34.012  28.287   8.250
 4121POPC   C3B13545  34.019  28.275   7.950
 4121POPC   C4B13546  34.031  28.261   7.650
 4122POPC   NC313547   9.777  34.564   9.450
 4122POPC   PO413548   9.760  34.616   9.150
 4122POPC   GL113549   9.770  34.577   8.850
 4122POPC   GL213550   9.682  34.675   8.850
 4122POPC   C1A13551   9.794  34.537   8.550
 4122POPC   D2A13552   9.744  34.581   8.250
 4122POPC   C3A13553   9.773  34.551   7.950
 4122POPC   C4A13554   9.781  34.600   7.650
 4122POPC   C1B13555   9.629  34.725   8.550
 4122POPC   C2B13556   9.576  34.771   8.250
 4122POPC   C3B13557   9.628  34.777   7.950
 4122POPC   C4B13558   9.588  34.799   7.650
 4123POPC   NC313559  43.157  32.287   9.450
 4123POPC   PO413560  43.104  32.283   9.150
 4123POPC   GL113561  43.143  32.251   8.850
 4123POPC   GL213562  43.119  32.161   8.850
 4123POPC   C1A13563  43.072  32.259   8.550
 4123POPC   D2A13564  43.108  32.267   8.250
 4123POPC   C3A13565  43.107  32.227   7.950
 4123POPC   C4A13566  43.089  32.277   7.650
 4123POPC   C1B13567  43.141  31.964   8.550
 4123POPC   C2B13568  43.044  32.026   8.250
 4123POPC   C3B13569  43.092  32.048   7.950
 4123POPC   C4B13570  43.133  32.018   7.650
 4124POPC   NC313571  14.376  29.150   9.450
 4124POPC   PO413572  14.396  29.132   9.150
 4124POPC   GL113573  14.391  29.158   8.850
 4124POPC   GL213574  14.238  29.193   8.850
 4124POPC   C1A13575  14.354  29.167   8.550
 4124POPC   D2A13576  14.416  29.147   8.250
 4124POPC   C3A13577  14.452  29.148   7.950
 4124POPC   C4A13578  14.397  29.118   7.650
 4124POPC   C1B13579  14.194  29.185   8.550
 4124POPC   C2B13580  14.166  29.234   8.250
 4124POPC   C3B13581  14.135  29.187   7.950
 4124POPC   C4B13582  14.198  29.186   7.650
 4125POPC   NC313583  22.948  38.480   9.450
 4125POPC   PO413584  22.939  38.455   9.150
 4125POPC   GL113585  22.979  38.436   8.850
 4125POPC   GL213586  23.080  38.422   8.850
 4125POPC   C1A13587  22.932  38.408   8.550
 4125POPC   D2A13588  22.892  38.479   8.250
 4125POPC   C3A13589  22.955  38.477   7.950
 4125POPC   C4A13590  22.897  38.465   7.650
 4125POPC   C1B13591  23.173  38.385   8.550
 4125POPC   C2B13592  23.207  38.377   8.250
 4125POPC   C3B13593  23.175  38.385   7.950
 4125POPC   C4B13594  23.124  38.352   7.650
 4126POPC   NC313595  13.619  12.104   9.450
 4126POPC   PO413596  13.649  12.111   9.150
 4126POPC   GL113597  13.649  12.046   8.850
 4126POPC   GL213598  13.549  12.123   8.850
 4126POPC   C1A13599  13.630  12.065   8.550
 4126POPC   D2A13600  13.608  12.061   8.250
 4126POPC   C3A13601  13.644  12.091   7.950
 4126POPC   C4A13602  13.602  12.062   7.650
 4126POPC   C1B13603  13.384  12.139   8.550
 4126POPC   C2B13604  13.335  12.138   8.250
 4126POPC   C3B13605  13.375  12.071   7.950
 4126POPC   C4B13606  13.358  12.078   7.650
 4127POPC   NC313607   3.508   9.761   9.450
 4127POPC   PO413608   3.515   9.731   9.150
 4127POPC   GL113609   3.544   9.714   8.850
 4127POPC   GL213610   3.599   9.623   8.850
 4127POPC   C1A13611   3.522   9.732   8.550
 4127POPC   D2A13612   3.540   9.736   8.250
 4127POPC   C3A13613   3.549   9.785   7.950
 4127POPC   C4A13614   3.588   9.701   7.650
 4127POPC   C1B13615   3.698   9.574   8.550
 4127POPC   C2B13616   3.705   9.531   8.250
 4127POPC   C3B13617   3.668   9.495   7.950
 4127POPC   C4B13618   3.725   9.530   7.650
 4128POPC   NC313619   8.210  12.832   9.450
 4128POPC   PO413620   8.206  12.898   9.150
 4128POPC   GL113621   8.230  12.833   8.850
 4128POPC   GL213622   8.226  12.738   8.850
 4128POPC   C1A13623   8.221  12.810   8.550
 4128POPC   D2A13624   8.162  12.835   8.250
 4128POPC   C3A13625   8.204  12.883   7.950
 4128POPC   C4A13626   8.193  12.892   7.650
 4128POPC   C1B13627   8.290  12.656   8.550
 4128POPC   C2B13628   8.246  12.609   8.250
 4128POPC   C3B13629   8.297  12.590   7.950
 4128POPC   C4B13630   8.294  12.637   7.650
 4129POPC   NC313631  26.823  24.537   9.450
 4129POPC   PO413632  26.838  24.533   9.150
 4129POPC   GL113633  26.851  24.496   8.850
 4129POPC   GL213634  26.895  24.558   8.850
 4129POPC   C1A13635  26.863  24.446   8.550
 4129POPC   D2A13636  26.818  24.487   8.250
 4129POPC   C3A13637  26.857  24.530   7.950
 4129POPC   C4A13638  26.796  24.531   7.650
 4129POPC   C1B13639  27.001  24.614   8.550
 4129POPC   C2B13640  27.069  24.627   8.250
 4129POPC   C3B13641  27.025  24.614   7.950
 4129POPC   C4B13642  26.997  24.661   7.650
 4130POPC   NC313643  26.854  38.440   9.450
 4130POPC   PO413644  26.843  38.412   9.150
 4130POPC   GL113645  26.845  38.454   8.850
 4130POPC   GL213646  26.663  38.423   8.850
 4130POPC   C1A13647  26.839  38.467   8.550
 4130POPC   D2A13648  26.840  38.470   8.250
 4130POPC   C3A13649  26.841  38.407   7.950
 4130POPC   C4A13650  26.864  38.426   7.650
 4130POPC   C1B13651  26.570  38.500   8.550
 4130POPC   C2B13652  26.585  38.460   8.250
 4130POPC   C3B13653  26.565  38.500   7.950
 4130POPC   C4B13654  26.521  38.461   7.650
 4131POPC   NC313655  33.060  25.304   9.450
 4131POPC   PO413656  33.031  25.249   9.150
 4131POPC   GL113657  33.032  25.233   8.850
 4131POPC   GL213658  33.081  25.162   8.850
 4131POPC   C1A13659  33.057  25.293   8.550
 4131POPC   D2A13660  33.035  25.264   8.250
 4131POPC   C3A13661  33.064  25.301   7.950
 4131POPC   C4A13662  33.046  25.273   7.650
 4131POPC   C1B13663  33.247  25.061   8.550
 4131POPC   C2B13664  33.219  25.120   8.250
 4131POPC   C3B13665  33.191  25.114   7.950
 4131POPC   C4B13666  33.191  25.049   7.650
 4132POPC   NC313667  32.998  39.280   9.450
 4132POPC   PO413668  33.025  39.181   9.150
 4132POPC   GL113669  33.068  39.216   8.850
 4132POPC   GL213670  33.183  39.265   8.850
 4132POPC   C1A13671  33.027  39.270   8.550
 4132POPC   D2A13672  33.026  39.230   8.250
 4132POPC   C3A13673  32.985  39.202   7.950
 4132POPC   C4A13674  33.034  39.268   7.650
 4132POPC   C1B13675  33.214  39.361   8.550
 4132POPC   C2B13676  33.271  39.279   8.250
 4132POPC   C3B13677  33.228  39.340   7.950
 4132POPC   C4B13678  33.269  39.307   7.650
 4133POPC   NC313679  12.117  34.572   9.450
 4133POPC   PO413680  12.098  34.537   9.150
 4133POPC   GL113681  12.049  34.612   8.850
 4133POPC   GL213682  11.978  34.506   8.850
 4133POPC   C1A13683  12.084  34.551   8.550
 4133POPC   D2A13684  12.027  34.612   8.250
 4133POPC   C3A13685  12.103  34.601   7.950
 4133POPC   C4A13686  12.063  34.550   7.650
 4133POPC   C1B13687  11.870  34.555   8.550
 4133POPC   C2B13688  11.873  34.554   8.250
 4133POPC   C3B13689  11.823  34.535   7.950
 4133POPC   C4B13690  11.795  34.535   7.650
 4134POPC   NC313691   5.827  40.736   9.450
 4134POPC   PO413692   5.883  40.762   9.150
 4134POPC   GL113693   5.872  40.740   8.850
 4134POPC   GL213694   5.748  40.756   8.850
 4134POPC   C1A13695   5.847  40.756   8.550
 4134POPC   D2A13696   5.885  40.811   8.250
 4134POPC   C3A13697   5.914  40.763   7.950
 4134POPC   C4A13698   5.828  40.831   7.650
 4134POPC   C1B13699   5.584  40.847   8.550
 4134POPC   C2B13700   5.625  40.792   8.250
 4134POPC   C3B13701   5.583  40.843   7.950
 4134POPC   C4B13702   5.650  40.850   7.650
 4135POPC   NC313703  23.702  38.448   9.450
 4135POPC   PO413704  23.730  38.449   9.150
 4135POPC   GL113705  23.682  38.430   8.850
 4135POPC   GL213706  23.574  38.436   8.850
 4135POPC   C1A13707  23.732  38.454   8.550
 4135POPC   D2A13708  23.691  38.419   8.250
 4135POPC   C3A13709  23.707  38.489   7.950
 4135POPC   C4A13710  23.726  38.437   7.650
 4135POPC   C1B13711  23.492  38.429   8.550
 4135POPC   C2B13712  23.506  38.384   8.250
 4135POPC   C3B13713  23.505  38.457   7.950
 4135POPC   C4B13714  23.441  38.364   7.650
 4136POPC   NC313715  20.592  32.287   9.450
 4136POPC   PO413716  20.646  32.242   9.150
 4136POPC   GL113717  20.635  32.233   8.850
 4136POPC   GL213718  20.634  32.115   8.850
 4136POPC   C1A13719  20.658  32.205   8.550
 4136POPC   D2A13720  20.592  32.263   8.250
 4136POPC   C3A13721  20.639  32.245   7.950
 4136POPC   C4A13722  20.574  32.233   7.650
 4136POPC   C1B13723  20.591  32.040   8.550
 4136POPC   C2B13724  20.547  31.983   8.250
 4136POPC   C3B13725  20.520  32.048   7.950
 4136POPC   C4B13726  20.577  31.975   7.650
 4137POPC   NC313727   8.167  34.566   9.450
 4137POPC   PO413728   8.162  34.574   9.150
 4137POPC   GL113729   8.168  34.582   8.850
 4137POPC   GL213730   8.254  34.534   8.850
 4137POPC   C1A13731   8.241  34.529   8.550
 4137POPC   D2A13732   8.246  34.552   8.250
 4137POPC   C3A13733   8.239  34.601   7.950
 4137POPC   C4A13734   8.205  34.582   7.650
 4137POPC   C1B13735   8.367  34.412   8.550
 4137POPC   C2B13736   8.421  34.378   8.250
 4137POPC   C3B13737   8.354  34.434   7.950
 4137POPC   C4B13738   8.355  34.379   7.650
 4138POPC   NC313739   4.348  15.987   9.450
 4138POPC   PO413740   4.273  15.972   9.150
 4138POPC   GL113741   4.315  15.957   8.850
 4138POPC   GL213742   4.222  16.094   8.850
 4138POPC   C1A13743   4.308  15.955   8.550
 4138POPC   D2A13744   4.291  15.998   8.250
 4138POPC   C3A13745   4.331  15.907   7.950
 4138POPC   C4A13746   4.277  15.944   7.650
 4138POPC   C1B13747   4.238  16.210   8.550
 4138POPC   C2B13748   4.216  16.200   8.250
 4138POPC   C3B13749   4.263  16.209   7.950
 4138POPC   C4B13750   4.182  16.207   7.650
 4139POPC   NC313751  21.403  22.937   9.450
 4139POPC   PO413752  21.361  22.921   9.150
 4139POPC   GL113753  21.353  22.922   8.850
 4139POPC   GL213754  21.264  23.056   8.850
 4139POPC   C1A13755  21.341  22.915   8.550
 4139POPC   D2A13756  21.350  22.988   8.250
 4139POPC   C3A13757  21.402  22.964   7.950
 4139POPC   C4A13758  21.393  22.895   7.650
 4139POPC   C1B13759  21.197  23.070   8.550
 4139POPC   C2B13760  21.181  23.114   8.250
 4139POPC   C3B13761  21.152  23.137   7.950
 4139POPC   C4B13762  21.149  23.093   7.650
 4140POPC   NC313763  35.401   1.968   9.450
 4140POPC   PO413764  35.387   1.959   9.150
 4140POPC   GL113765  35.357   1.970   8.850
 4140POPC   GL213766  35.344   2.077   8.850
 4140POPC   C1A13767  35.397   2.011   8.550
 4140POPC   D2A13768  35.396   2.030   8.250
 4140POPC   C3A13769  35.400   1.978   7.950
 4140POPC   C4A13770  35.331   1.944   7.650
 4140POPC   C1B13771  35.405   2.243   8.550
 4140POPC   C2B13772  35.378   2.239   8.250
 4140POPC   C3B13773  35.452   2.191   7.950
 4140POPC   C4B13774  35.380   2.273   7.650
 4141POPC   NC313775  42.342   1.943   9.450
 4141POPC   PO413776  42.339   2.037   9.150
 4141POPC   GL113777  42.313   1.968   8.850
 4141POPC   GL213778  42.499   2.040   8.850
 4141POPC   C1A13779  42.322   1.999   8.550
 4141POPC   D2A13780  42.373   2.020   8.250
 4141POPC   C3A13781  42.366   1.975   7.950
 4141POPC   C4A13782  42.302   1.981   7.650
 4141POPC   C1B13783  42.557   2.002   8.550
 4141POPC   C2B13784  42.585   1.998   8.250
 4141POPC   C3B13785  42.565   2.049   7.950
 4141POPC   C4B13786  42.548   2.039   7.650
 4142POPC   NC313787  21.428   2.719   9.450
 4142POPC   PO413788  21.382   2.791   9.150
 4142POPC   GL113789  21.340   2.790   8.850
 4142POPC   GL213790  21.455   2.846   8.850
 4142POPC   C1A13791  21.401   2.727   8.550
 4142POPC   D2A13792  21.415   2.752   8.250
 4142POPC   C3A13793  21.374   2.733   7.950
 4142POPC   C4A13794  21.371   2.723   7.650
 4142POPC   C1B13795  21.558   2.945   8.550
 4142POPC   C2B13796  21.585   2.903   8.250
 4142POPC   C3B13797  21.529   2.971   7.950
 4142POPC   C4B13798  21.591   2.933   7.650
 4143POPC   NC313799  12.070  38.488   9.450
 4143POPC   PO413800  12.124  38.505   9.150
 4143POPC   GL113801  12.060  38.416   8.850
 4143POPC   GL213802  11.921  38.423   8.850
 4143POPC   C1A13803  12.069  38.406   8.550
 4143POPC   D2A13804  12.055  38.449   8.250
 4143POPC   C3A13805  12.073  38.419   7.950
 4143POPC   C4A13806  12.101  38.424   7.650
 4143POPC   C1B13807  11.810  38.380   8.550
 4143POPC   C2B13808  11.838  38.350   8.250
 4143POPC   C3B13809  11.846  38.290   7.950
 4143POPC   C4B13810  11.870  38.300   7.650
 4144POPC   NC313811  18.282  12.835   9.450
 4144POPC   PO413812  18.312  12.854   9.150
 4144POPC   GL113813  18.255  12.832   8.850
 4144POPC   GL213814  18.229  12.782   8.850
 4144POPC   C1A13815  18.266  12.855   8.550
 4144POPC   D2A13816  18.242  12.888   8.250
 4144POPC   C3A13817  18.290  12.829   7.950
 4144POPC   C4A13818  18.277  12.813   7.650
 4144POPC   C1B13819  18.171  12.651   8.550
 4144POPC   C2B13820  18.182  12.595   8.250
 4144POPC   C3B13821  18.237  12.660   7.950
 4144POPC   C4B13822  18.235  12.591   7.650
 4145POPC   NC313823  26.843  35.353   9.450
 4145POPC   PO413824  26.850  35.399   9.150
 4145POPC   GL113825  26.778  35.305   8.850
 4145POPC   GL213826  26.868  35.461   8.850
 4145POPC   C1A13827  26.788  35.391   8.550
 4145POPC   D2A13828  26.769  35.362   8.250
 4145POPC   C3A13829  26.854  35.358   7.950
 4145POPC   C4A13830  26.776  35.305   7.650
 4145POPC   C1B13831  26.965  35.543   8.550
 4145POPC   C2B13832  26.969  35.593   8.250
 4145POPC   C3B13833  26.960  35.525   7.950
 4145POPC   C4B13834  26.908  35.590   7.650
 4146POPC   NC313835  39.280  13.612   9.450
 4146POPC   PO413836  39.204  13.672   9.150
 4146POPC   GL113837  39.225  13.580   8.850
 4146POPC   GL213838  39.390  13.588   8.850
 4146POPC   C1A13839  39.227  13.598   8.550
 4146POPC   D2A13840  39.267  13.660   8.250
 4146POPC   C3A13841  39.192  13.579   7.950
 4146POPC   C4A13842  39.259  13.651   7.650
 4146POPC   C1B13843  39.496  13.556   8.550
 4146POPC   C2B13844  39.409  13.484   8.250
 4146POPC   C3B13845  39.474  13.495   7.950
 4146POPC   C4B13846  39.484  13.549   7.650
 4147POPC   NC313847  17.545   7.446   9.450
 4147POPC   PO413848  17.546   7.417   9.150
 4147POPC   GL113849  17.493   7.464   8.850
 4147POPC   GL213850  17.374   7.516   8.850
 4147POPC   C1A13851  17.524   7.449   8.550
 4147POPC   D2A13852  17.531   7.441   8.250
 4147POPC   C3A13853  17.512   7.455   7.950
 4147POPC   C4A13854  17.524   7.468   7.650
 4147POPC   C1B13855  17.360   7.593   8.550
 4147POPC   C2B13856  17.321   7.578   8.250
 4147POPC   C3B13857  17.304   7.561   7.950
 4147POPC   C4B13858  17.293   7.613   7.650
 4148POPC   NC313859   0.483   5.093   9.450
 4148POPC   PO413860   0.436   5.124   9.150
 4148POPC   GL113861   0.469   5.051   8.850
 4148POPC   GL213862   0.459   5.167   8.850
 4148POPC   C1A13863   0.425   5.046   8.550
 4148POPC   D2A13864   0.446   5.137   8.250
 4148POPC   C3A13865   0.436   5.098   7.950
 4148POPC   C4A13866   0.440   5.122   7.650
 4148POPC   C1B13867   0.392   5.319   8.550
 4148POPC   C2B13868   0.336   5.311   8.250
 4148POPC   C3B13869   0.349   5.323   7.950
 4148POPC   C4B13870   0.419   5.316   7.650
 4149POPC   NC313871  40.041  12.053   9.450
 4149POPC   PO413872  40.024  12.086   9.150
 4149POPC   GL113873  40.035  12.031   8.850
 4149POPC   GL213874  40.087  12.095   8.850
 4149POPC   C1A13875  39.974  12.051   8.550
 4149POPC   D2A13876  39.980  12.095   8.250
 4149POPC   C3A13877  40.047  12.116   7.950
 4149POPC   C4A13878  39.991  12.089   7.650
 4149POPC   C1B13879  40.220  12.178   8.550
 4149POPC   C2B13880  40.255  12.126   8.250
 4149POPC   C3B13881  40.271  12.177   7.950
 4149POPC   C4B13882  40.277  12.183   7.650
 4150POPC   NC313883  18.280  18.327   9.450
 4150POPC   PO413884  18.259  18.248   9.150
 4150POPC   GL113885  18.324  18.306   8.850
 4150POPC   GL213886  18.378  18.318   8.850
 4150POPC   C1A13887  18.290  18.324   8.550
 4150POPC   D2A13888  18.260  18.259   8.250
 4150POPC   C3A13889  18.311  18.242   7.950
 4150POPC   C4A13890  18.279  18.283   7.650
 4150POPC   C1B13891  18.466  18.435   8.550
 4150POPC   C2B13892  18.445  18.433   8.250
 4150POPC   C3B13893  18.501  18.457   7.950
 4150POPC   C4B13894  18.514  18.462   7.650
 4151POPC   NC313895   0.414  31.463   9.450
 4151POPC   PO413896   0.468  31.447   9.150
 4151POPC   GL113897   0.421  31.484   8.850
 4151POPC   GL213898   0.417  31.335   8.850
 4151POPC   C1A13899   0.471  31.503   8.550
 4151POPC   D2A13900   0.436  31.433   8.250
 4151POPC   C3A13901   0.388  31.462   7.950
 4151POPC   C4A13902   0.421  31.439   7.650
 4151POPC   C1B13903   0.432  31.239   8.550
 4151POPC   C2B13904   0.429  31.217   8.250
 4151POPC   C3B13905   0.482  31.199   7.950
 4151POPC   C4B13906   0.412  31.200   7.650
 4152POPC   NC313907  26.800  17.486   9.450
 4152POPC   PO413908  26.828  17.542   9.150
 4152POPC   GL113909  26.819  17.521   8.850
 4152POPC   GL213910  26.889  17.364   8.850
 4152POPC   C1A13911  26.847  17.467   8.550
 4152POPC   D2A13912  26.819  17.508   8.250
 4152POPC   C3A13913  26.853  17.479   7.950
 4152POPC   C4A13914  26.857  17.551   7.650
 4152POPC   C1B13915  27.006  17.292   8.550
 4152POPC   C2B13916  27.018  17.346   8.250
 4152POPC   C3B13917  26.965  17.361   7.950
 4152POPC   C4B13918  27.014  17.357   7.650
 4153POPC   NC313919   5.088  44.626   9.450
 4153POPC   PO413920   5.109  44.635   9.150
 4153POPC   GL113921   5.117  44.684   8.850
 4153POPC   GL213922   5.202  44.808   8.850
 4153POPC   C1A13923   5.139  44.639   8.550
 4153POPC   D2A13924   5.049  44.702   8.250
 4153POPC   C3A13925   5.090  44.666   7.950
 4153POPC   C4A13926   5.132  44.620   7.650
 4153POPC   C1B13927   5.259  44.828   8.550
 4153POPC   C2B13928   5.206  44.848   8.250
 4153POPC   C3B13929   5.236  44.833   7.950
 4153POPC   C4B13930   5.255  44.877   7.650
 4154POPC   NC313931  40.772  44.682   9.450
 4154POPC   PO413932  40.784  44.696   9.150
 4154POPC   GL113933  40.816  44.623   8.850
 4154POPC   GL213934  40.913  44.640   8.850
 4154POPC   C1A13935  40.820  44.684   8.550
 4154POPC   D2A13936  40.805  44.630   8.250
 4154POPC   C3A13937  40.771  44.677   7.950
 4154POPC   C4A13938  40.734  44.664   7.650
 4154POPC   C1B13939  41.069  44.600   8.550
 4154POPC   C2B13940  41.018  44.614   8.250
 4154POPC   C3B13941  41.069  44.660   7.950
 4154POPC   C4B13942  41.003  44.615   7.650
 4155POPC   NC313943   7.438   3.581   9.450
 4155POPC   PO413944   7.442   3.500   9.150
 4155POPC   GL113945   7.449   3.505   8.850
 4155POPC   GL213946   7.410   3.632   8.850
 4155POPC   C1A13947   7.392   3.534   8.550
 4155POPC   D2A13948   7.398   3.494   8.250
 4155POPC   C3A13949   7.438   3.562   7.950
 4155POPC   C4A13950   7.381   3.497   7.650
 4155POPC   C1B13951   7.415   3.764   8.550
 4155POPC   C2B13952   7.336   3.740   8.250
 4155POPC   C3B13953   7.332   3.831   7.950
 4155POPC   C4B13954   7.352   3.771   7.650
 4156POPC   NC313955  29.953  29.930   9.450
 4156POPC   PO413956  29.956  29.963   9.150
 4156POPC   GL113957  29.891  29.929   8.850
 4156POPC   GL213958  29.960  30.033   8.850
 4156POPC   C1A13959  29.899  29.945   8.550
 4156POPC   D2A13960  29.891  29.890   8.250
 4156POPC   C3A13961  29.934  29.880   7.950
 4156POPC   C4A13962  29.886  29.885   7.650
 4156POPC   C1B13963  30.044  30.135   8.550
 4156POPC   C2B13964  30.071  30.169   8.250
 4156POPC   C3B13965  29.987  30.107   7.950
 4156POPC   C4B13966  30.022  30.172   7.650
 4157POPC   NC313967   7.443  32.985   9.450
 4157POPC   PO413968   7.446  33.021   9.150
 4157POPC   GL113969   7.429  33.015   8.850
 4157POPC   GL213970   7.538  32.880   8.850
 4157POPC   C1A13971   7.378  33.022   8.550
 4157POPC   D2A13972   7.415  33.056   8.250
 4157POPC   C3A13973   7.377  33.060   7.950
 4157POPC   C4A13974   7.379  33.006   7.650
 4157POPC   C1B13975   7.571  32.831   8.550
 4157POPC   C2B13976   7.584  32.823   8.250
 4157POPC   C3B13977   7.612  32.773   7.950
 4157POPC   C4B13978   7.513  32.857   7.650
 4158POPC   NC313979  11.266  15.951   9.450
 4158POPC   PO413980  11.262  15.962   9.150
 4158POPC   GL113981  11.270  15.957   8.850
 4158POPC   GL213982  11.146  15.936   8.850
 4158POPC   C1A13983  11.344  15.926   8.550
 4158POPC   D2A13984  11.291  15.991   8.250
 4158POPC   C3A13985  11.327  15.998   7.950
 4158POPC   C4A13986  11.263  15.967   7.650
 4158POPC   C1B13987  11.065  15.869   8.550
 4158POPC   C2B13988  11.075  15.881   8.250
 4158POPC   C3B13989  11.080  15.927   7.950
 4158POPC   C4B13990  11.041  15.880   7.650
 4159POPC   NC313991  36.163  36.101   9.450
 4159POPC   PO413992  36.165  36.088   9.150
 4159POPC   GL113993  36.116  36.102   8.850
 4159POPC   GL213994  36.170  35.991   8.850
 4159POPC   C1A13995  36.146  36.168   8.550
 4159POPC   D2A13996  36.104  36.099   8.250
 4159POPC   C3A13997  36.110  36.144   7.950
 4159POPC   C4A13998  36.167  36.161   7.650
 4159POPC   C1B13999  36.207  35.882   8.550
 4159POPC   C2B14000  36.147  35.850   8.250
 4159POPC   C3B14001  36.201  35.883   7.950
 4159POPC   C4B14002  36.162  35.854   7.650
 4160POPC   NC314003  39.189  23.699   9.450
 4160POPC   PO414004  39.215  23.754   9.150
 4160POPC   GL114005  39.182  23.757   8.850
 4160POPC   GL214006  39.146  23.719   8.850
 4160POPC   C1A14007  39.253  23.748   8.550
 4160POPC   D2A14008  39.255  23.717   8.250
 4160POPC   C3A14009  39.247  23.730   7.950
 4160POPC   C4A14010  39.245  23.673   7.650
 4160POPC   C1B14011  38.938  23.668   8.550
 4160POPC   C2B14012  38.952  23.686   8.250
 4160POPC   C3B14013  38.974  23.692   7.950
 4160POPC   C4B14014  38.936  23.693   7.650
 4161POPC   NC314015  33.785  43.147   9.450
 4161POPC   PO414016  33.844  43.089   9.150
 4161POPC   GL114017  33.817  43.068   8.850
 4161POPC   GL214018  33.915  43.061   8.850
 4161POPC   C1A14019  33.765  43.120   8.550
 4161POPC   D2A14020  33.794  43.158   8.250
 4161POPC   C3A14021  33.763  43.118   7.950
 4161POPC   C4A14022  33.848  43.067   7.650
 4161POPC   C1B14023  33.994  42.929   8.550
 4161POPC   C2B14024  34.005  42.901   8.250
 4161POPC   C3B14025  34.020  42.957   7.950
 4161POPC   C4B14026  34.026  42.908   7.650
 4162POPC   NC314027  18.321   5.087   9.450
 4162POPC   PO414028  18.326   5.053   9.150
 4162POPC   GL114029  18.296   5.059   8.850
 4162POPC   GL214030  18.192   5.232   8.850
 4162POPC   C1A14031  18.323   5.083   8.550
 4162POPC   D2A14032  18.266   5.074   8.250
 4162POPC   C3A14033  18.255   5.121   7.950
 4162POPC   C4A14034  18.262   5.107   7.650
 4162POPC   C1B14035  18.232   5.286   8.550
 4162POPC   C2B14036  18.168   5.374   8.250
 4162POPC   C3B14037  18.177   5.316   7.950
 4162POPC   C4B14038  18.225   5.304   7.650
 4163POPC   NC314039  43.150   4.323   9.450
 4163POPC   PO414040  43.130   4.273   9.150
 4163POPC   GL114041  43.140   4.339   8.850
 4163POPC   GL214042  43.178   4.422   8.850
 4163POPC   C1A14043  43.079   4.320   8.550
 4163POPC   D2A14044  43.108   4.363   8.250
 4163POPC   C3A14045  43.157   4.334   7.950
 4163POPC   C4A14046  43.068   4.269   7.650
 4163POPC   C1B14047  43.235   4.488   8.550
 4163POPC   C2B14048  43.203   4.543   8.250
 4163POPC   C3B14049  43.294   4.559   7.950
 4163POPC   C4B14050  43.203   4.524   7.650
 4164POPC   NC314051  15.153  16.713   9.450
 4164POPC   PO414052  15.214  16.695   9.150
 4164POPC   GL114053  15.155  16.709   8.850
 4164POPC   GL214054  15.271  16.830   8.850
 4164POPC   C1A14055  15.141  16.700   8.550
 4164POPC   D2A14056  15.213  16.703   8.250
 4164POPC   C3A14057  15.193  16.773   7.950
 4164POPC   C4A14058  15.204  16.749   7.650
 4164POPC   C1B14059  15.259  16.916   8.550
 4164POPC   C2B14060  15.277  16.945   8.250
 4164POPC   C3B14061  15.274  16.932   7.950
 4164POPC   C4B14062  15.325  16.961   7.650
 4165POPC   NC314063  33.792  36.106   9.450
 4165POPC   PO414064  33.846  36.084   9.150
 4165POPC   GL114065  33.847  36.107   8.850
 4165POPC   GL214066  33.736  36.142   8.850
 4165POPC   C1A14067  33.841  36.121   8.550
 4165POPC   D2A14068  33.798  36.143   8.250
 4165POPC   C3A14069  33.819  36.132   7.950
 4165POPC   C4A14070  33.806  36.162   7.650
 4165POPC   C1B14071  33.628  36.210   8.550
 4165POPC   C2B14072  33.609  36.220   8.250
 4165POPC   C3B14073  33.600  36.258   7.950
 4165POPC   C4B14074  33.616  36.287   7.650
 4166POPC   NC314075  40.821   5.069   9.450
 4166POPC   PO414076  40.791   5.103   9.150
 4166POPC   GL114077  40.764   5.079   8.850
 4166POPC   GL214078  40.642   5.068   8.850
 4166POPC   C1A14079  40.831   5.126   8.550
 4166POPC   D2A14080  40.766   5.129   8.250
 4166POPC   C3A14081  40.767   5.083   7.950
 4166POPC   C4A14082  40.759   5.105   7.650
 4166POPC   C1B14083  40.526   4.994   8.550
 4166POPC   C2B14084  40.515   5.026   8.250
 4166POPC   C3B14085  40.537   4.987   7.950
 4166POPC   C4B14086  40.516   5.039   7.650
 4167POPC   NC314087  19.100  37.654   9.450
 4167POPC   PO414088  19.082  37.682   9.150
 4167POPC   GL114089  19.032  37.648   8.850
 4167POPC   GL214090  19.216  37.665   8.850
 4167POPC   C1A14091  19.010  37.650   8.550
 4167POPC   D2A14092  19.104  37.698   8.250
 4167POPC   C3A14093  19.058  37.673   7.950
 4167POPC   C4A14094  19.107  37.714   7.650
 4167POPC   C1B14095  19.287  37.574   8.550
 4167POPC   C2B14096  19.247  37.554   8.250
 4167POPC   C3B14097  19.318  37.546   7.950
 4167POPC   C4B14098  19.241  37.541   7.650
 4168POPC   NC314099  27.615  30.722   9.450
 4168POPC   PO414100  27.568  30.725   9.150
 4168POPC   GL114101  27.640  30.650   8.850
 4168POPC   GL214102  27.702  30.813   8.850
 4168POPC   C1A14103  27.611  30.719   8.550
 4168POPC   D2A14104  27.634  30.714   8.250
 4168POPC   C3A14105  27.615  30.718   7.950
 4168POPC   C4A14106  27.547  30.653   7.650
 4168POPC   C1B14107  27.707  30.930   8.550
 4168POPC   C2B14108  27.704  30.914   8.250
 4168POPC   C3B14109  27.744  30.899   7.950
 4168POPC   C4B14110  27.761  30.915   7.650
 4169POPC   NC314111  41.525  13.603   9.450
 4169POPC   PO414112  41.524  13.599   9.150
 4169POPC   GL114113  41.514  13.677   8.850
 4169POPC   GL214114  41.468  13.590   8.850
 4169POPC   C1A14115  41.594  13.669   8.550
 4169POPC   D2A14116  41.546  13.579   8.250
 4169POPC   C3A14117  41.559  13.645   7.950
 4169POPC   C4A14118  41.512  13.605   7.650
 4169POPC   C1B14119  41.337  13.558   8.550
 4169POPC   C2B14120  41.371  13.482   8.250
 4169POPC   C3B14121  41.350  13.493   7.950
 4169POPC   C4B14122  41.344  13.537   7.650
 4170POPC   NC314123  33.754   7.392   9.450
 4170POPC   PO414124  33.756   7.454   9.150
 4170POPC   GL114125  33.813   7.416   8.850
 4170POPC   GL214126  33.694   7.494   8.850
 4170POPC   C1A14127  33.793   7.418   8.550
 4170POPC   D2A14128  33.769   7.457   8.250
 4170POPC   C3A14129  33.782   7.455   7.950
 4170POPC   C4A14130  33.770   7.398   7.650
 4170POPC   C1B14131  33.651   7.599   8.550
 4170POPC   C2B14132  33.723   7.598   8.250
 4170POPC   C3B14133  33.729   7.689   7.950
 4170POPC   C4B14134  33.652   7.636   7.650
 4171POPC   NC314135  37.684   8.192   9.450
 4171POPC   PO414136  37.639   8.236   9.150
 4171POPC   GL114137  37.631   8.235   8.850
 4171POPC   GL214138  37.649   8.039   8.850
 4171POPC   C1A14139  37.687   8.153   8.550
 4171POPC   D2A14140  37.677   8.215   8.250
 4171POPC   C3A14141  37.723   8.209   7.950
 4171POPC   C4A14142  37.665   8.188   7.650
 4171POPC   C1B14143  37.596   8.004   8.550
 4171POPC   C2B14144  37.594   7.932   8.250
 4171POPC   C3B14145  37.531   8.022   7.950
 4171POPC   C4B14146  37.533   8.015   7.650
 4172POPC   NC314147   3.521  29.133   9.450
 4172POPC   PO414148   3.500  29.100   9.150
 4172POPC   GL114149   3.536  29.100   8.850
 4172POPC   GL214150   3.502  29.274   8.850
 4172POPC   C1A14151   3.563  29.119   8.550
 4172POPC   D2A14152   3.518  29.190   8.250
 4172POPC   C3A14153   3.525  29.102   7.950
 4172POPC   C4A14154   3.567  29.185   7.650
 4172POPC   C1B14155   3.574  29.426   8.550
 4172POPC   C2B14156   3.574  29.392   8.250
 4172POPC   C3B14157   3.520  29.356   7.950
 4172POPC   C4B14158   3.584  29.355   7.650
 4173POPC   NC314159  15.979  24.522   9.450
 4173POPC   PO414160  15.925  24.512   9.150
 4173POPC   GL114161  15.971  24.511   8.850
 4173POPC   GL214162  15.965  24.618   8.850
 4173POPC   C1A14163  15.991  24.453   8.550
 4173POPC   D2A14164  15.982  24.494   8.250
 4173POPC   C3A14165  15.905  24.515   7.950
 4173POPC   C4A14166  15.939  24.453   7.650
 4173POPC   C1B14167  16.027  24.706   8.550
 4173POPC   C2B14168  16.032  24.703   8.250
 4173POPC   C3B14169  15.982  24.779   7.950
 4173POPC   C4B14170  15.962  24.773   7.650
 4174POPC   NC314171  39.236   9.725   9.450
 4174POPC   PO414172  39.270   9.725   9.150
 4174POPC   GL114173  39.238   9.745   8.850
 4174POPC   GL214174  39.127   9.736   8.850
 4174POPC   C1A14175  39.195   9.733   8.550
 4174POPC   D2A14176  39.199   9.699   8.250
 4174POPC   C3A14177  39.229   9.705   7.950
 4174POPC   C4A14178  39.202   9.714   7.650
 4174POPC   C1B14179  38.983   9.717   8.550
 4174POPC   C2B14180  39.030   9.763   8.250
 4174POPC   C3B14181  38.979   9.749   7.950
 4174POPC   C4B14182  38.933   9.715   7.650
 4175POPC   NC314183  15.161   5.050   9.450
 4175POPC   PO414184  15.173   5.067   9.150
 4175POPC   GL114185  15.178   5.123   8.850
 4175POPC   GL214186  15.302   5.072   8.850
 4175POPC   C1A14187  15.193   5.064   8.550
 4175POPC   D2A14188  15.148   5.091   8.250
 4175POPC   C3A14189  15.206   5.059   7.950
 4175POPC   C4A14190  15.156   5.074   7.650
 4175POPC   C1B14191  15.427   5.000   8.550
 4175POPC   C2B14192  15.405   5.007   8.250
 4175POPC   C3B14193  15.381   5.066   7.950
 4175POPC   C4B14194  15.393   5.021   7.650
 4176POPC   NC314195  29.107   1.250   9.450
 4176POPC   PO414196  29.150   1.239   9.150
 4176POPC   GL114197  29.181   1.205   8.850
 4176POPC   GL214198  28.996   1.243   8.850
 4176POPC   C1A14199  29.192   1.190   8.550
 4176POPC   D2A14200  29.107   1.232   8.250
 4176POPC   C3A14201  29.166   1.168   7.950
 4176POPC   C4A14202  29.187   1.250   7.650
 4176POPC   C1B14203  28.881   1.373   8.550
 4176POPC   C2B14204  28.929   1.345   8.250
 4176POPC   C3B14205  28.971   1.314   7.950
 4176POPC   C4B14206  28.898   1.342   7.650
 4177POPC   NC314207   8.967  21.431   9.450
 4177POPC   PO414208   8.929  21.340   9.150
 4177POPC   GL114209   8.982  21.431   8.850
 4177POPC   GL214210   9.121  21.365   8.850
 4177POPC   C1A14211   9.019  21.395   8.550
 4177POPC   D2A14212   9.009  21.369   8.250
 4177POPC   C3A14213   8.978  21.359   7.950
 4177POPC   C4A14214   9.003  21.380   7.650
 4177POPC   C1B14215   9.255  21.388   8.550
 4177POPC   C2B14216   9.173  21.402   8.250
 4177POPC   C3B14217   9.259  21.431   7.950
 4177POPC   C4B14218   9.197  21.483   7.650
 4178POPC   NC314219   5.846  44.637   9.450
 4178POPC   PO414220   5.895  44.676   9.150
 4178POPC   GL114221   5.839  44.612   8.850
 4178POPC   GL214222   6.013  44.680   8.850
 4178POPC   C1A14223   5.825  44.635   8.550
 4178POPC   D2A14224   5.856  44.708   8.250
 4178POPC   C3A14225   5.853  44.697   7.950
 4178POPC   C4A14226   5.888  44.687   7.650
 4178POPC   C1B14227   6.061  44.782   8.550
 4178POPC   C2B14228   6.091  44.705   8.250
 4178POPC   C3B14229   6.153  44.756   7.950
 4178POPC   C4B14230   6.073  44.697   7.650
 4179POPC   NC314231  15.971  40.817   9.450
 4179POPC   PO414232  15.969  40.768   9.150
 4179POPC   GL114233  15.952  40.831   8.850
 4179POPC   GL214234  16.062  40.796   8.850
 4179POPC   C1A14235  16.005  40.759   8.550
 4179POPC   D2A14236  15.923  40.773   8.250
 4179POPC   C3A14237  15.994  40.813   7.950
 4179POPC   C4A14238  15.963  40.830   7.650
 4179POPC   C1B14239  16.179  40.861   8.550
 4179POPC   C2B14240  16.201  40.920   8.250
 4179POPC   C3B14241  16.173  40.897   7.950
 4179POPC   C4B14242  16.131  40.919   7.650
 4180POPC   NC314243  21.351  23.691   9.450
 4180POPC   PO414244  21.346  23.666   9.150
 4180POPC   GL114245  21.420  23.705   8.850
 4180POPC   GL214246  21.268  23.684   8.850
 4180POPC   C1A14247  21.378  23.757   8.550
 4180POPC   D2A14248  21.347  23.736   8.250
 4180POPC   C3A14249  21.394  23.688   7.950
 4180POPC   C4A14250  21.425  23.681   7.650
 4180POPC   C1B14251  21.199  23.637   8.550
 4180POPC   C2B14252  21.209  23.556   8.250
 4180POPC   C3B14253  21.178  23.548   7.950
 4180POPC   C4B14254  21.167  23.582   7.650
 4181POPC   NC314255  39.991  44.689   9.450
 4181POPC   PO414256  39.967  44.705   9.150
 4181POPC   GL114257  39.989  44.666   8.850
 4181POPC   GL214258  40.145  44.688   8.850
 4181POPC   C1A14259  40.054  44.651   8.550
 4181POPC   D2A14260  40.013  44.624   8.250
 4181POPC   C3A14261  39.996  44.633   7.950
 4181POPC   C4A14262  39.984  44.672   7.650
 4181POPC   C1B14263  40.249  44.756   8.550
 4181POPC   C2B14264  40.216  44.781   8.250
 4181POPC   C3B14265  40.235  44.773   7.950
 4181POPC   C4B14266  40.217  44.769   7.650
 4182POPC   NC314267  25.256  29.190   9.450
 4182POPC   PO414268  25.256  29.152   9.150
 4182POPC   GL114269  25.315  29.156   8.850
 4182POPC   GL214270  25.155  29.241   8.850
 4182POPC   C1A14271  25.267  29.155   8.550
 4182POPC   D2A14272  25.311  29.167   8.250
 4182POPC   C3A14273  25.261  29.134   7.950
 4182POPC   C4A14274  25.230  29.187   7.650
 4182POPC   C1B14275  25.077  29.283   8.550
 4182POPC   C2B14276  25.028  29.197   8.250
 4182POPC   C3B14277  25.077  29.195   7.950
 4182POPC   C4B14278  25.082  29.262   7.650
 4183POPC   NC314279  12.125  13.632   9.450
 4183POPC   PO414280  12.080  13.585   9.150
 4183POPC   GL114281  12.115  13.615   8.850
 4183POPC   GL214282  11.941  13.566   8.850
 4183POPC   C1A14283  12.028  13.675   8.550
 4183POPC   D2A14284  12.060  13.646   8.250
 4183POPC   C3A14285  12.046  13.596   7.950
 4183POPC   C4A14286  12.098  13.640   7.650
 4183POPC   C1B14287  11.873  13.562   8.550
 4183POPC   C2B14288  11.846  13.520   8.250
 4183POPC   C3B14289  11.829  13.511   7.950
 4183POPC   C4B14290  11.878  13.514   7.650
 4184POPC   NC314291  43.065  39.268   9.450
 4184POPC   PO414292  43.150  39.265   9.150
 4184POPC   GL114293  43.100  39.252   8.850
 4184POPC   GL214294  43.049  39.299   8.850
 4184POPC   C1A14295  43.090  39.280   8.550
 4184POPC   D2A14296  43.118  39.215   8.250
 4184POPC   C3A14297  43.111  39.269   7.950
 4184POPC   C4A14298  43.142  39.249   7.650
 4184POPC   C1B14299  42.885  39.414   8.550
 4184POPC   C2B14300  42.906  39.368   8.250
 4184POPC   C3B14301  42.920  39.386   7.950
 4184POPC   C4B14302  42.948  39.393   7.650
 4185POPC   NC314303   7.456  19.084   9.450
 4185POPC   PO414304   7.375  19.064   9.150
 4185POPC   GL114305   7.458  19.078   8.850
 4185POPC   GL214306   7.271  19.017   8.850
 4185POPC   C1A14307   7.464  19.089   8.550
 4185POPC   D2A14308   7.390  19.061   8.250
 4185POPC   C3A14309   7.412  19.073   7.950
 4185POPC   C4A14310   7.464  19.051   7.650
 4185POPC   C1B14311   7.230  19.000   8.550
 4185POPC   C2B14312   7.230  18.971   8.250
 4185POPC   C3B14313   7.231  18.948   7.950
 4185POPC   C4B14314   7.194  19.004   7.650
 4186POPC   NC314315  12.105  37.657   9.450
 4186POPC   PO414316  12.072  37.668   9.150
 4186POPC   GL114317  12.037  37.663   8.850
 4186POPC   GL214318  11.971  37.553   8.850
 4186POPC   C1A14319  12.053  37.703   8.550
 4186POPC   D2A14320  12.080  37.648   8.250
 4186POPC   C3A14321  12.066  37.679   7.950
 4186POPC   C4A14322  12.084  37.726   7.650
 4186POPC   C1B14323  11.852  37.522   8.550
 4186POPC   C2B14324  11.883  37.515   8.250
 4186POPC   C3B14325  11.882  37.534   7.950
 4186POPC   C4B14326  11.908  37.519   7.650
 4187POPC   NC314327  36.917  26.090   9.450
 4187POPC   PO414328  36.872  26.047   9.150
 4187POPC   GL114329  36.909  26.074   8.850
 4187POPC   GL214330  36.768  26.112   8.850
 4187POPC   C1A14331  36.919  26.064   8.550
 4187POPC   D2A14332  36.878  26.040   8.250
 4187POPC   C3A14333  36.926  26.003   7.950
 4187POPC   C4A14334  36.862  26.085   7.650
 4187POPC   C1B14335  36.734  26.180   8.550
 4187POPC   C2B14336  36.654  26.208   8.250
 4187POPC   C3B14337  36.713  26.120   7.950
 4187POPC   C4B14338  36.665  26.136   7.650
 4188POPC   NC314339  31.437  28.366   9.450
 4188POPC   PO414340  31.509  28.401   9.150
 4188POPC   GL114341  31.467  28.417   8.850
 4188POPC   GL214342  31.483  28.447   8.850
 4188POPC   C1A14343  31.463  28.378   8.550
 4188POPC   D2A14344  31.480  28.387   8.250
 4188POPC   C3A14345  31.507  28.337   7.950
 4188POPC   C4A14346  31.493  28.419   7.650
 4188POPC   C1B14347  31.475  28.643   8.550
 4188POPC   C2B14348  31.451  28.633   8.250
 4188POPC   C3B14349  31.410  28.626   7.950
 4188POPC   C4B14350  31.392  28.614   7.650
 4189POPC   NC314351   7.458  29.106   9.450
 4189POPC   PO414352   7.456  29.184   9.150
 4189POPC   GL114353   7.412  29.128   8.850
 4189POPC   GL214354   7.466  29.020   8.850
 4189POPC   C1A14355   7.436  29.165   8.550
 4189POPC   D2A14356   7.372  29.134   8.250
 4189POPC   C3A14357   7.387  29.183   7.950
 4189POPC   C4A14358   7.431  29.115   7.650
 4189POPC   C1B14359   7.501  28.891   8.550
 4189POPC   C2B14360   7.487  28.884   8.250
 4189POPC   C3B14361   7.454  28.890   7.950
 4189POPC   C4B14362   7.426  28.901   7.650
 4190POPC   NC314363  36.914  13.672   9.450
 4190POPC   PO414364  36.900  13.616   9.150
 4190POPC   GL114365  36.871  13.643   8.850
 4190POPC   GL214366  36.948  13.736   8.850
 4190POPC   C1A14367  36.927  13.651   8.550
 4190POPC   D2A14368  36.929  13.668   8.250
 4190POPC   C3A14369  36.882  13.592   7.950
 4190POPC   C4A14370  36.857  13.580   7.650
 4190POPC   C1B14371  37.019  13.791   8.550
 4190POPC   C2B14372  37.058  13.828   8.250
 4190POPC   C3B14373  37.066  13.826   7.950
 4190POPC   C4B14374  37.039  13.874   7.650
 4191POPC   NC314375  19.105  13.598   9.450
 4191POPC   PO414376  19.043  13.627   9.150
 4191POPC   GL114377  19.059  13.624   8.850
 4191POPC   GL214378  19.016  13.762   8.850
 4191POPC   C1A14379  19.062  13.634   8.550
 4191POPC   D2A14380  19.085  13.654   8.250
 4191POPC   C3A14381  19.087  13.593   7.950
 4191POPC   C4A14382  19.096  13.586   7.650
 4191POPC   C1B14383  19.002  13.880   8.550
 4191POPC   C2B14384  18.969  13.873   8.250
 4191POPC   C3B14385  19.042  13.834   7.950
 4191POPC   C4B14386  19.015  13.832   7.650
 4192POPC   NC314387  42.293  23.664   9.450
 4192POPC   PO414388  42.331  23.709   9.150
 4192POPC   GL114389  42.296  23.699   8.850
 4192POPC   GL214390  42.309  23.849   8.850
 4192POPC   C1A14391  42.328  23.664   8.550
 4192POPC   D2A14392  42.379  23.672   8.250
 4192POPC   C3A14393  42.307  23.706   7.950
 4192POPC   C4A14394  42.329  23.737   7.650
 4192POPC   C1B14395  42.207  23.959   8.550
 4192POPC   C2B14396  42.213  23.965   8.250
 4192POPC   C3B14397  42.190  23.914   7.950
 4192POPC   C4B14398  42.270  23.919   7.650
 4193POPC   NC314399  17.463   5.065   9.450
 4193POPC   PO414400  17.514   5.044   9.150
 4193POPC   GL114401  17.483   5.105   8.850
 4193POPC   GL214402  17.512   4.937   8.850
 4193POPC   C1A14403  17.494   5.089   8.550
 4193POPC   D2A14404  17.496   5.115   8.250
 4193POPC   C3A14405  17.468   5.054   7.950
 4193POPC   C4A14406  17.521   5.098   7.650
 4193POPC   C1B14407  17.518   4.828   8.550
 4193POPC   C2B14408  17.545   4.890   8.250
 4193POPC   C3B14409  17.466   4.874   7.950
 4193POPC   C4B14410  17.554   4.824   7.650
 4194POPC   NC314411  26.036  35.310   9.450
 4194POPC   PO414412  26.028  35.322   9.150
 4194POPC   GL114413  26.049  35.382   8.850
 4194POPC   GL214414  26.103  35.207   8.850
 4194POPC   C1A14415  26.042  35.321   8.550
 4194POPC   D2A14416  26.036  35.317   8.250
 4194POPC   C3A14417  26.072  35.315   7.950
 4194POPC   C4A14418  26.075  35.356   7.650
 4194POPC   C1B14419  26.172  35.178   8.550
 4194POPC   C2B14420  26.163  35.170   8.250
 4194POPC   C3B14421  26.224  35.136   7.950
 4194POPC   C4B14422  26.236  35.190   7.650
 4195POPC   NC314423  18.261  19.815   9.450
 4195POPC   PO414424  18.269  19.799   9.150
 4195POPC   GL114425  18.236  19.851   8.850
 4195POPC   GL214426  18.198  19.926   8.850
 4195POPC   C1A14427  18.302  19.795   8.550
 4195POPC   D2A14428  18.296  19.793   8.250
 4195POPC   C3A14429  18.292  19.785   7.950
 4195POPC   C4A14430  18.286  19.866   7.650
 4195POPC   C1B14431  18.003  19.922   8.550
 4195POPC   C2B14432  18.089  19.885   8.250
 4195POPC   C3B14433  18.072  19.976   7.950
 4195POPC   C4B14434  18.016  19.902   7.650
 4196POPC   NC314435  32.253  10.485   9.450
 4196POPC   PO414436  32.204  10.565   9.150
 4196POPC   GL114437  32.230  10.547   8.850
 4196POPC   GL214438  32.357  10.545   8.850
 4196POPC   C1A14439  32.260  10.490   8.550
 4196POPC   D2A14440  32.249  10.561   8.250
 4196POPC   C3A14441  32.218  10.510   7.950
 4196POPC   C4A14442  32.225  10.527   7.650
 4196POPC   C1B14443  32.492  10.449   8.550
 4196POPC   C2B14444  32.472  10.455   8.250
 4196POPC   C3B14445  32.479  10.447   7.950
 4196POPC   C4B14446  32.507  10.465   7.650
 4197POPC   NC314447  30.649   4.298   9.450
 4197POPC   PO414448  30.684   4.271   9.150
 4197POPC   GL114449  30.739   4.317   8.850
 4197POPC   GL214450  30.610   4.176   8.850
 4197POPC   C1A14451  30.672   4.344   8.550
 4197POPC   D2A14452  30.664   4.330   8.250
 4197POPC   C3A14453  30.714   4.359   7.950
 4197POPC   C4A14454  30.713   4.284   7.650
 4197POPC   C1B14455  30.545   4.146   8.550
 4197POPC   C2B14456  30.559   4.156   8.250
 4197POPC   C3B14457  30.499   4.154   7.950
 4197POPC   C4B14458  30.541   4.137   7.650
 4198POPC   NC314459  41.527  22.924   9.450
 4198POPC   PO414460  41.564  22.960   9.150
 4198POPC   GL114461  41.561  22.976   8.850
 4198POPC   GL214462  41.638  22.889   8.850
 4198POPC   C1A14463  41.517  22.913   8.550
 4198POPC   D2A14464  41.559  22.961   8.250
 4198POPC   C3A14465  41.563  22.983   7.950
 4198POPC   C4A14466  41.594  22.953   7.650
 4198POPC   C1B14467  41.779  22.943   8.550
 4198POPC   C2B14468  41.822  22.950   8.250
 4198POPC   C3B14469  41.769  22.937   7.950
 4198POPC   C4B14470  41.803  22.952   7.650
 4199POPC   NC314471  19.833  12.082   9.450
 4199POPC   PO414472  19.808  12.100   9.150
 4199POPC   GL114473  19.809  12.112   8.850
 4199POPC   GL214474  19.716  12.146   8.850
 4199POPC   C1A14475  19.791  12.041   8.550
 4199POPC   D2A14476  19.871  12.103   8.250
 4199POPC   C3A14477  19.827  12.079   7.950
 4199POPC   C4A14478  19.853  12.056   7.650
 4199POPC   C1B14479  19.609  12.155   8.550
 4199POPC   C2B14480  19.624  12.157   8.250
 4199POPC   C3B14481  19.632  12.153   7.950
 4199POPC   C4B14482  19.551  12.145   7.650
 4200POPC   NC314483  12.844   9.714   9.450
 4200POPC   PO414484  12.828   9.723   9.150
 4200POPC   GL114485  12.850   9.728   8.850
 4200POPC   GL214486  12.795   9.816   8.850
 4200POPC   C1A14487  12.846   9.726   8.550
 4200POPC   D2A14488  12.841   9.733   8.250
 4200POPC   C3A14489  12.808   9.782   7.950
 4200POPC   C4A14490  12.881   9.710   7.650
 4200POPC   C1B14491  12.690   9.920   8.550
 4200POPC   C2B14492  12.692   9.953   8.250
 4200POPC   C3B14493  12.709   9.953   7.950
 4200POPC   C4B14494  12.737   9.995   7.650
 4201POPC   NC314495   3.522   4.275   9.450
 4201POPC   PO414496   3.514   4.343   9.150
 4201POPC   GL114497   3.550   4.284   8.850
 4201POPC   GL214498   3.464   4.214   8.850
 4201POPC   C1A14499   3.499   4.331   8.550
 4201POPC   D2A14500   3.537   4.311   8.250
 4201POPC   C3A14501   3.552   4.356   7.950
 4201POPC   C4A14502   3.569   4.364   7.650
 4201POPC   C1B14503   3.315   4.166   8.550
 4201POPC   C2B14504   3.304   4.219   8.250
 4201POPC   C3B14505   3.305   4.197   7.950
 4201POPC   C4B14506   3.337   4.172   7.650
 4202POPC   NC314507  33.027  38.471   9.450
 4202POPC   PO414508  33.054  38.464   9.150
 4202POPC   GL114509  33.001  38.454   8.850
 4202POPC   GL214510  33.167  38.480   8.850
 4202POPC   C1A14511  33.069  38.413   8.550
 4202POPC   D2A14512  32.986  38.487   8.250
 4202POPC   C3A14513  33.031  38.456   7.950
 4202POPC   C4A14514  33.058  38.480   7.650
 4202POPC   C1B14515  33.298  38.561   8.550
 4202POPC   C2B14516  33.216  38.571   8.250
 4202POPC   C3B14517  33.264  38.543   7.950
 4202POPC   C4B14518  33.259  38.564   7.650
 4203POPC   NC314519  10.489   7.415   9.450
 4203POPC   PO414520  10.547   7.400   9.150
 4203POPC   GL114521  10.532   7.465   8.850
 4203POPC   GL214522  10.575   7.310   8.850
 4203POPC   C1A14523  10.566   7.381   8.550
 4203POPC   D2A14524  10.499   7.455   8.250
 4203POPC   C3A14525  10.561   7.394   7.950
 4203POPC   C4A14526  10.527   7.392   7.650
 4203POPC   C1B14527  10.713   7.205   8.550
 4203POPC   C2B14528  10.720   7.232   8.250
 4203POPC   C3B14529  10.648   7.219   7.950
 4203POPC   C4B14530  10.636   7.189   7.650
 4204POPC   NC314531  19.876  37.726   9.450
 4204POPC   PO414532  19.797  37.691   9.150
 4204POPC   GL114533  19.811  37.687   8.850
 4204POPC   GL214534  19.850  37.765   8.850
 4204POPC   C1A14535  19.800  37.704   8.550
 4204POPC   D2A14536  19.860  37.713   8.250
 4204POPC   C3A14537  19.873  37.639   7.950
 4204POPC   C4A14538  19.864  37.677   7.650
 4204POPC   C1B14539  19.818  37.974   8.550
 4204POPC   C2B14540  19.865  37.960   8.250
 4204POPC   C3B14541  19.851  37.973   7.950
 4204POPC   C4B14542  19.841  37.954   7.650
 4205POPC   NC314543  19.066  14.420   9.450
 4205POPC   PO414544  19.064  14.354   9.150
 4205POPC   GL114545  19.080  14.398   8.850
 4205POPC   GL214546  18.919  14.386   8.850
 4205POPC   C1A14547  19.092  14.406   8.550
 4205POPC   D2A14548  19.017  14.382   8.250
 4205POPC   C3A14549  19.024  14.404   7.950
 4205POPC   C4A14550  19.023  14.434   7.650
 4205POPC   C1B14551  18.811  14.433   8.550
 4205POPC   C2B14552  18.856  14.431   8.250
 4205POPC   C3B14553  18.794  14.431   7.950
 4205POPC   C4B14554  18.816  14.395   7.650
 4206POPC   NC314555  25.279  17.527   9.450
 4206POPC   PO414556  25.305  17.464   9.150
 4206POPC   GL114557  25.248  17.488   8.850
 4206POPC   GL214558  25.268  17.419   8.850
 4206POPC   C1A14559  25.224  17.528   8.550
 4206POPC   D2A14560  25.262  17.509   8.250
 4206POPC   C3A14561  25.257  17.518   7.950
 4206POPC   C4A14562  25.274  17.551   7.650
 4206POPC   C1B14563  25.364  17.224   8.550
 4206POPC   C2B14564  25.364  17.276   8.250
 4206POPC   C3B14565  25.384  17.291   7.950
 4206POPC   C4B14566  25.377  17.234   7.650
 4207POPC   NC314567  29.909  19.019   9.450
 4207POPC   PO414568  29.881  19.092   9.150
 4207POPC   GL114569  29.935  19.063   8.850
 4207POPC   GL214570  30.026  19.005   8.850
 4207POPC   C1A14571  29.873  19.071   8.550
 4207POPC   D2A14572  29.905  19.016   8.250
 4207POPC   C3A14573  29.929  19.052   7.950
 4207POPC   C4A14574  29.902  19.020   7.650
 4207POPC   C1B14575  30.106  19.007   8.550
 4207POPC   C2B14576  30.197  18.950   8.250
 4207POPC   C3B14577  30.123  18.944   7.950
 4207POPC   C4B14578  30.125  18.955   7.650
 4208POPC   NC314579  23.732  20.574   9.450
 4208POPC   PO414580  23.702  20.583   9.150
 4208POPC   GL114581  23.745  20.637   8.850
 4208POPC   GL214582  23.833  20.632   8.850
 4208POPC   C1A14583  23.728  20.601   8.550
 4208POPC   D2A14584  23.706  20.649   8.250
 4208POPC   C3A14585  23.708  20.652   7.950
 4208POPC   C4A14586  23.696  20.562   7.650
 4208POPC   C1B14587  23.932  20.635   8.550
 4208POPC   C2B14588  23.943  20.701   8.250
 4208POPC   C3B14589  23.940  20.662   7.950
 4208POPC   C4B14590  23.930  20.694   7.650
 4209POPC   NC314591  43.935  43.136   9.450
 4209POPC   PO414592  43.850  43.151   9.150
 4209POPC   GL114593  43.934  43.150   8.850
 4209POPC   GL214594  43.899  43.190   8.850
 4209POPC   C1A14595  43.932  43.103   8.550
 4209POPC   D2A14596  43.925  43.143   8.250
 4209POPC   C3A14597  43.929  43.092   7.950
 4209POPC   C4A14598  43.853  43.098   7.650
 4209POPC   C1B14599  43.846  43.340   8.550
 4209POPC   C2B14600  43.832  43.334   8.250
 4209POPC   C3B14601  43.788  43.384   7.950
 4209POPC   C4B14602  43.857  43.317   7.650
 4210POPC   NC314603  37.639  16.749   9.450
 4210POPC   PO414604  37.696  16.740   9.150
 4210POPC   GL114605  37.655  16.771   8.850
 4210POPC   GL214606  37.615  16.638   8.850
 4210POPC   C1A14607  37.693  16.697   8.550
 4210POPC   D2A14608  37.644  16.718   8.250
 4210POPC   C3A14609  37.642  16.761   7.950
 4210POPC   C4A14610  37.683  16.690   7.650
 4210POPC   C1B14611  37.518  16.586   8.550
 4210POPC   C2B14612  37.472  16.574   8.250
 4210POPC   C3B14613  37.474  16.548   7.950
 4210POPC   C4B14614  37.476  16.523   7.650
 4211POPC   NC314615  27.561  28.359   9.450
 4211POPC   PO414616  27.615  28.364   9.150
 4211POPC   GL114617  27.604  28.354   8.850
 4211POPC   GL214618  27.647  28.212   8.850
 4211POPC   C1A14619  27.622  28.358   8.550
 4211POPC   D2A14620  27.620  28.405   8.250
 4211POPC   C3A14621  27.581  28.384   7.950
 4211POPC   C4A14622  27.638  28.382   7.650
 4211POPC   C1B14623  27.672  28.162   8.550
 4211POPC   C2B14624  27.634  28.080   8.250
 4211POPC   C3B14625  27.643  28.163   7.950
 4211POPC   C4B14626  27.600  28.103   7.650
 4212POPC   NC314627  14.404  27.553   9.450
 4212POPC   PO414628  14.365  27.615   9.150
 4212POPC   GL114629  14.441  27.635   8.850
 4212POPC   GL214630  14.371  27.507   8.850
 4212POPC   C1A14631  14.445  27.630   8.550
 4212POPC   D2A14632  14.360  27.640   8.250
 4212POPC   C3A14633  14.417  27.546   7.950
 4212POPC   C4A14634  14.432  27.631   7.650
 4212POPC   C1B14635  14.278  27.401   8.550
 4212POPC   C2B14636  14.328  27.406   8.250
 4212POPC   C3B14637  14.278  27.375   7.950
 4212POPC   C4B14638  14.273  27.340   7.650
 4213POPC   NC314639  22.142   5.913   9.450
 4213POPC   PO414640  22.202   5.883   9.150
 4213POPC   GL114641  22.157   5.856   8.850
 4213POPC   GL214642  22.246   5.933   8.850
 4213POPC   C1A14643  22.126   5.876   8.550
 4213POPC   D2A14644  22.126   5.906   8.250
 4213POPC   C3A14645  22.143   5.900   7.950
 4213POPC   C4A14646  22.112   5.891   7.650
 4213POPC   C1B14647  22.447   5.947   8.550
 4213POPC   C2B14648  22.372   5.866   8.250
 4213POPC   C3B14649  22.404   5.942   7.950
 4213POPC   C4B14650  22.453   5.938   7.650
 4214POPC   NC314651   4.299  31.515   9.450
 4214POPC   PO414652   4.304  31.495   9.150
 4214POPC   GL114653   4.321  31.431   8.850
 4214POPC   GL214654   4.158  31.520   8.850
 4214POPC   C1A14655   4.341  31.513   8.550
 4214POPC   D2A14656   4.267  31.450   8.250
 4214POPC   C3A14657   4.330  31.515   7.950
 4214POPC   C4A14658   4.356  31.456   7.650
 4214POPC   C1B14659   4.087  31.548   8.550
 4214POPC   C2B14660   4.031  31.494   8.250
 4214POPC   C3B14661   4.084  31.479   7.950
 4214POPC   C4B14662   4.062  31.485   7.650
 4215POPC   NC314663  33.804   1.246   9.450
 4215POPC   PO414664  33.752   1.263   9.150
 4215POPC   GL114665  33.844   1.169   8.850
 4215POPC   GL214666  33.865   1.359   8.850
 4215POPC   C1A14667  33.802   1.202   8.550
 4215POPC   D2A14668  33.774   1.198   8.250
 4215POPC   C3A14669  33.788   1.243   7.950
 4215POPC   C4A14670  33.803   1.231   7.650
 4215POPC   C1B14671  33.971   1.431   8.550
 4215POPC   C2B14672  33.959   1.440   8.250
 4215POPC   C3B14673  33.895   1.468   7.950
 4215POPC   C4B14674  33.962   1.396   7.650
 4216POPC   NC314675  42.361  19.026   9.450
 4216POPC   PO414676  42.329  19.022   9.150
 4216POPC   GL114677  42.315  19.069   8.850
 4216POPC   GL214678  42.438  18.970   8.850
 4216POPC   C1A14679  42.295  19.070   8.550
 4216POPC   D2A14680  42.376  19.037   8.250
 4216POPC   C3A14681  42.366  19.057   7.950
 4216POPC   C4A14682  42.293  19.052   7.650
 4216POPC   C1B14683  42.520  18.842   8.550
 4216POPC   C2B14684  42.473  18.826   8.250
 4216POPC   C3B14685  42.425  18.831   7.950
 4216POPC   C4B14686  42.434  18.848   7.650
 4217POPC   NC314687  33.784  14.378   9.450
 4217POPC   PO414688  33.812  14.382   9.150
 4217POPC   GL114689  33.806  14.437   8.850
 4217POPC   GL214690  33.970  14.380   8.850
 4217POPC   C1A14691  33.835  14.378   8.550
 4217POPC   D2A14692  33.803  14.412   8.250
 4217POPC   C3A14693  33.771  14.368   7.950
 4217POPC   C4A14694  33.775  14.382   7.650
 4217POPC   C1B14695  34.048  14.333   8.550
 4217POPC   C2B14696  34.086  14.323   8.250
 4217POPC   C3B14697  34.039  14.316   7.950
 4217POPC   C4B14698  34.030  14.365   7.650
 4218POPC   NC314699  22.959  33.774   9.450
 4218POPC   PO414700  22.956  33.776   9.150
 4218POPC   GL114701  22.946  33.754   8.850
 4218POPC   GL214702  22.884  33.653   8.850
 4218POPC   C1A14703  22.915  33.819   8.550
 4218POPC   D2A14704  22.959  33.795   8.250
 4218POPC   C3A14705  22.930  33.763   7.950
 4218POPC   C4A14706  22.906  33.773   7.650
 4218POPC   C1B14707  22.886  33.507   8.550
 4218POPC   C2B14708  22.905  33.558   8.250
 4218POPC   C3B14709  22.898  33.558   7.950
 4218POPC   C4B14710  22.835  33.576   7.650
 4219POPC   NC314711  43.901  23.725   9.450
 4219POPC   PO414712  43.894  23.704   9.150
 4219POPC   GL114713  43.897  23.739   8.850
 4219POPC   GL214714  44.025  23.787   8.850
 4219POPC   C1A14715  43.902  23.750   8.550
 4219POPC   D2A14716  43.909  23.705   8.250
 4219POPC   C3A14717  43.904  23.762   7.950
 4219POPC   C4A14718  43.839  23.675   7.650
 4219POPC   C1B14719  44.146  23.731   8.550
 4219POPC   C2B14720  44.140  23.767   8.250
 4219POPC   C3B14721  44.134  23.791   7.950
 4219POPC   C4B14722  44.126  23.811   7.650
 4220POPC   NC314723  22.943  35.351   9.450
 4220POPC   PO414724  22.921  35.305   9.150
 4220POPC   GL114725  22.963  35.372   8.850
 4220POPC   GL214726  22.889  35.228   8.850
 4220POPC   C1A14727  22.975  35.369   8.550
 4220POPC   D2A14728  22.970  35.391   8.250
 4220POPC   C3A14729  22.939  35.369   7.950
 4220POPC   C4A14730  22.943  35.314   7.650
 4220POPC   C1B14731  22.767  35.222   8.550
 4220POPC   C2B14732  22.781  35.177   8.250
 4220POPC   C3B14733  22.710  35.210   7.950
 4220POPC   C4B14734  22.729  35.177   7.650
 4221POPC   NC314735  12.070  21.419   9.450
 4221POPC   PO414736  12.114  21.365   9.150
 4221POPC   GL114737  12.117  21.351   8.850
 4221POPC   GL214738  12.096  21.291   8.850
 4221POPC   C1A14739  12.078  21.360   8.550
 4221POPC   D2A14740  12.053  21.361   8.250
 4221POPC   C3A14741  12.117  21.355   7.950
 4221POPC   C4A14742  12.030  21.409   7.650
 4221POPC   C1B14743  11.995  21.135   8.550
 4221POPC   C2B14744  12.047  21.170   8.250
 4221POPC   C3B14745  12.071  21.169   7.950
 4221POPC   C4B14746  12.050  21.127   7.650
 4222POPC   NC314747  43.859  40.831   9.450
 4222POPC   PO414748  43.869  40.828   9.150
 4222POPC   GL114749  43.926  40.826   8.850
 4222POPC   GL214750  43.898  40.611   8.850
 4222POPC   C1A14751  43.863  40.825   8.550
 4222POPC   D2A14752  43.891  40.777   8.250
 4222POPC   C3A14753  43.924  40.755   7.950
 4222POPC   C4A14754  43.869  40.777   7.650
 4222POPC   C1B14755  43.863  40.547   8.550
 4222POPC   C2B14756  43.893  40.517   8.250
 4222POPC   C3B14757  43.884  40.549   7.950
 4222POPC   C4B14758  43.918  40.575   7.650
 4223POPC   NC314759  18.270  11.281   9.450
 4223POPC   PO414760  18.312  11.321   9.150
 4223POPC   GL114761  18.254  11.290   8.850
 4223POPC   GL214762  18.186  11.324   8.850
 4223POPC   C1A14763  18.310  11.297   8.550
 4223POPC   D2A14764  18.297  11.282   8.250
 4223POPC   C3A14765  18.246  11.262   7.950
 4223POPC   C4A14766  18.326  11.290   7.650
 4223POPC   C1B14767  18.017  11.343   8.550
 4223POPC   C2B14768  18.049  11.356   8.250
 4223POPC   C3B14769  18.083  11.382   7.950
 4223POPC   C4B14770  18.075  11.327   7.650
 4224POPC   NC314771  15.220  39.235   9.450
 4224POPC   PO414772  15.141  39.184   9.150
 4224POPC   GL114773  15.213  39.186   8.850
 4224POPC   GL214774  15.077  39.194   8.850
 4224POPC   C1A14775  15.194  39.233   8.550
 4224POPC   D2A14776  15.141  39.210   8.250
 4224POPC   C3A14777  15.200  39.257   7.950
 4224POPC   C4A14778  15.222  39.208   7.650
 4224POPC   C1B14779  14.897  39.155   8.550
 4224POPC   C2B14780  14.894  39.225   8.250
 4224POPC   C3B14781  14.964  39.197   7.950
 4224POPC   C4B14782  14.914  39.174   7.650
 4225POPC   NC314783  43.867  12.077   9.450
 4225POPC   PO414784  43.904  12.063   9.150
 4225POPC   GL114785  43.908  12.068   8.850
 4225POPC   GL214786  43.934  12.166   8.850
 4225POPC   C1A14787  43.928  12.027   8.550
 4225POPC   D2A14788  43.858  12.096   8.250
 4225POPC   C3A14789  43.918  12.059   7.950
 4225POPC   C4A14790  43.862  12.056   7.650
 4225POPC   C1B14791  44.029  12.316   8.550
 4225POPC   C2B14792  43.999  12.332   8.250
 4225POPC   C3B14793  44.047  12.308   7.950
 4225POPC   C4B14794  43.976  12.330   7.650
 4226POPC   NC314795  18.314  38.466   9.450
 4226POPC   PO414796  18.276  38.417   9.150
 4226POPC   GL114797  18.320  38.406   8.850
 4226POPC   GL214798  18.276  38.360   8.850
 4226POPC   C1A14799  18.296  38.478   8.550
 4226POPC   D2A14800  18.302  38.429   8.250
 4226POPC   C3A14801  18.249  38.492   7.950
 4226POPC   C4A14802  18.288  38.479   7.650
 4226POPC   C1B14803  18.169  38.261   8.550
 4226POPC   C2B14804  18.221  38.178   8.250
 4226POPC   C3B14805  18.167  38.192   7.950
 4226POPC   C4B14806  18.171  38.255   7.650
 4227POPC   NC314807  27.578  17.485   9.450
 4227POPC   PO414808  27.558  17.497   9.150
 4227POPC   GL114809  27.562  17.536   8.850
 4227POPC   GL214810  27.647  17.656   8.850
 4227POPC   C1A14811  27.561  17.492   8.550
 4227POPC   D2A14812  27.544  17.518   8.250
 4227POPC   C3A14813  27.581  17.520   7.950
 4227POPC   C4A14814  27.603  17.486   7.650
 4227POPC   C1B14815  27.719  17.711   8.550
 4227POPC   C2B14816  27.746  17.734   8.250
 4227POPC   C3B14817  27.770  17.757   7.950
 4227POPC   C4B14818  27.748  17.681   7.650
 4228POPC   NC314819   9.013  24.473   9.450
 4228POPC   PO414820   8.996  24.519   9.150
 4228POPC   GL114821   9.018  24.537   8.850
 4228POPC   GL214822   9.058  24.520   8.850
 4228POPC   C1A14823   8.982  24.527   8.550
 4228POPC   D2A14824   8.999  24.490   8.250
 4228POPC   C3A14825   8.942  24.440   7.950
 4228POPC   C4A14826   9.019  24.525   7.650
 4228POPC   C1B14827   9.241  24.423   8.550
 4228POPC   C2B14828   9.233  24.404   8.250
 4228POPC   C3B14829   9.205  24.425   7.950
 4228POPC   C4B14830   9.233  24.409   7.650
 4229POPC   NC314831  30.676   5.091   9.450
 4229POPC   PO414832  30.678   5.049   9.150
 4229POPC   GL114833  30.654   5.078   8.850
 4229POPC   GL214834  30.762   5.170   8.850
 4229POPC   C1A14835  30.741   5.052   8.550
 4229POPC   D2A14836  30.694   5.086   8.250
 4229POPC   C3A14837  30.729   5.136   7.950
 4229POPC   C4A14838  30.650   5.045   7.650
 4229POPC   C1B14839  30.734   5.364   8.550
 4229POPC   C2B14840  30.769   5.340   8.250
 4229POPC   C3B14841  30.804   5.302   7.950
 4229POPC   C4B14842  30.729   5.334   7.650
 4230POPC   NC314843  11.264  38.433   9.450
 4230POPC   PO414844  11.346  38.488   9.150
 4230POPC   GL114845  11.289  38.440   8.850
 4230POPC   GL214846  11.368  38.346   8.850
 4230POPC   C1A14847  11.258  38.453   8.550
 4230POPC   D2A14848  11.301  38.494   8.250
 4230POPC   C3A14849  11.255  38.486   7.950
 4230POPC   C4A14850  11.294  38.502   7.650
 4230POPC   C1B14851  11.456  38.232   8.550
 4230POPC   C2B14852  11.404  38.194   8.250
 4230POPC   C3B14853  11.385  38.220   7.950
 4230POPC   C4B14854  11.426  38.185   7.650
 4231POPC   NC314855   2.007  13.639   9.450
 4231POPC   PO414856   2.009  13.654   9.150
 4231POPC   GL114857   2.002  13.669   8.850
 4231POPC   GL214858   1.936  13.755   8.850
 4231POPC   C1A14859   1.944  13.643   8.550
 4231POPC   D2A14860   1.974  13.601   8.250
 4231POPC   C3A14861   2.007  13.624   7.950
 4231POPC   C4A14862   1.948  13.602   7.650
 4231POPC   C1B14863   1.963  13.850   8.550
 4231POPC   C2B14864   1.966  13.906   8.250
 4231POPC   C3B14865   1.967  13.865   7.950
 4231POPC   C4B14866   1.974  13.841   7.650
 4232POPC   NC314867  21.352  43.869   9.450
 4232POPC   PO414868  21.372  43.923   9.150
 4232POPC   GL114869  21.425  43.921   8.850
 4232POPC   GL214870  21.371  43.719   8.850
 4232POPC   C1A14871  21.396  43.915   8.550
 4232POPC   D2A14872  21.428  43.894   8.250
 4232POPC   C3A14873  21.377  43.863   7.950
 4232POPC   C4A14874  21.423  43.858   7.650
 4232POPC   C1B14875  21.376  43.626   8.550
 4232POPC   C2B14876  21.372  43.641   8.250
 4232POPC   C3B14877  21.366  43.641   7.950
 4232POPC   C4B14878  21.402  43.626   7.650
 4233POPC   NC314879   6.638  20.633   9.450
 4233POPC   PO414880   6.646  20.643   9.150
 4233POPC   GL114881   6.654  20.658   8.850
 4233POPC   GL214882   6.642  20.527   8.850
 4233POPC   C1A14883   6.652  20.570   8.550
 4233POPC   D2A14884   6.688  20.617   8.250
 4233POPC   C3A14885   6.655  20.641   7.950
 4233POPC   C4A14886   6.667  20.645   7.650
 4233POPC   C1B14887   6.555  20.327   8.550
 4233POPC   C2B14888   6.561  20.409   8.250
 4233POPC   C3B14889   6.578  20.415   7.950
 4233POPC   C4B14890   6.522  20.358   7.650
 4234POPC   NC314891  10.530  33.059   9.450
 4234POPC   PO414892  10.530  33.051   9.150
 4234POPC   GL114893  10.537  33.049   8.850
 4234POPC   GL214894  10.518  33.194   8.850
 4234POPC   C1A14895  10.555  32.983   8.550
 4234POPC   D2A14896  10.527  33.072   8.250
 4234POPC   C3A14897  10.508  33.026   7.950
 4234POPC   C4A14898  10.567  32.981   7.650
 4234POPC   C1B14899  10.421  33.223   8.550
 4234POPC   C2B14900  10.489  33.268   8.250
 4234POPC   C3B14901  10.460  33.268   7.950
 4234POPC   C4B14902  10.422  33.295   7.650
 4235POPC   NC314903  43.892   5.895   9.450
 4235POPC   PO414904  43.843   5.826   9.150
 4235POPC   GL114905  43.848   5.852   8.850
 4235POPC   GL214906  43.953   5.928   8.850
 4235POPC   C1A14907  43.860   5.846   8.550
 4235POPC   D2A14908  43.875   5.864   8.250
 4235POPC   C3A14909  43.920   5.864   7.950
 4235POPC   C4A14910  43.871   5.824   7.650
 4235POPC   C1B14911  44.129   5.955   8.550
 4235POPC   C2B14912  44.086   6.044   8.250
 4235POPC   C3B14913  44.106   6.021   7.950
 4235POPC   C4B14914  44.066   6.011   7.650
 4236POPC   NC314915  40.767  11.251   9.450
 4236POPC   PO414916  40.758  11.304   9.150
 4236POPC   GL114917  40.817  11.287   8.850
 4236POPC   GL214918  40.719  11.223   8.850
 4236POPC   C1A14919  40.788  11.343   8.550
 4236POPC   D2A14920  40.805  11.268   8.250
 4236POPC   C3A14921  40.816  11.317   7.950
 4236POPC   C4A14922  40.766  11.318   7.650
 4236POPC   C1B14923  40.604  11.181   8.550
 4236POPC   C2B14924  40.542  11.154   8.250
 4236POPC   C3B14925  40.569  11.168   7.950
 4236POPC   C4B14926  40.541  11.169   7.650
 4237POPC   NC314927  22.140  26.833   9.450
 4237POPC   PO414928  22.155  26.827   9.150
 4237POPC   GL114929  22.141  26.809   8.850
 4237POPC   GL214930  22.121  26.725   8.850
 4237POPC   C1A14931  22.191  26.803   8.550
 4237POPC   D2A14932  22.201  26.822   8.250
 4237POPC   C3A14933  22.163  26.832   7.950
 4237POPC   C4A14934  22.117  26.781   7.650
 4237POPC   C1B14935  22.069  26.572   8.550
 4237POPC   C2B14936  22.092  26.571   8.250
 4237POPC   C3B14937  22.064  26.528   7.950
 4237POPC   C4B14938  22.101  26.564   7.650
 4238POPC   NC314939  43.917  37.660   9.450
 4238POPC   PO414940  43.891  37.658   9.150
 4238POPC   GL114941  43.908  37.632   8.850
 4238POPC   GL214942  43.885  37.594   8.850
 4238POPC   C1A14943  43.897  37.630   8.550
 4238POPC   D2A14944  43.878  37.727   8.250
 4238POPC   C3A14945  43.895  37.680   7.950
 4238POPC   C4A14946  43.884  37.638   7.650
 4238POPC   C1B14947  43.889  37.449   8.550
 4238POPC   C2B14948  43.959  37.382   8.250
 4238POPC   C3B14949  43.894  37.429   7.950
 4238POPC   C4B14950  43.968  37.461   7.650
 4239POPC   NC314951  42.287   7.461   9.450
 4239POPC   PO414952  42.327   7.448   9.150
 4239POPC   GL114953  42.292   7.388   8.850
 4239POPC   GL214954  42.481   7.333   8.850
 4239POPC   C1A14955  42.369   7.442   8.550
 4239POPC   D2A14956  42.364   7.389   8.250
 4239POPC   C3A14957  42.309   7.397   7.950
 4239POPC   C4A14958  42.311   7.413   7.650
 4239POPC   C1B14959  42.526   7.334   8.550
 4239POPC   C2B14960  42.587   7.334   8.250
 4239POPC   C3B14961  42.515   7.350   7.950
 4239POPC   C4B14962  42.525   7.310   7.650
 4240POPC   NC314963  25.221  25.226   9.450
 4240POPC   PO414964  25.274  25.265   9.150
 4240POPC   GL114965  25.279  25.260   8.850
 4240POPC   GL214966  25.352  25.364   8.850
 4240POPC   C1A14967  25.219  25.262   8.550
 4240POPC   D2A14968  25.237  25.230   8.250
 4240POPC   C3A14969  25.292  25.223   7.950
 4240POPC   C4A14970  25.234  25.246   7.650
 4240POPC   C1B14971  25.407  25.458   8.550
 4240POPC   C2B14972  25.398  25.451   8.250
 4240POPC   C3B14973  25.434  25.432   7.950
 4240POPC   C4B14974  25.457  25.499   7.650
 4241POPC   NC314975  36.929   9.706   9.450
 4241POPC   PO414976  36.926   9.739   9.150
 4241POPC   GL114977  36.903   9.722   8.850
 4241POPC   GL214978  36.833   9.686   8.850
 4241POPC   C1A14979  36.869   9.707   8.550
 4241POPC   D2A14980  36.884   9.766   8.250
 4241POPC   C3A14981  36.894   9.725   7.950
 4241POPC   C4A14982  36.892   9.755   7.650
 4241POPC   C1B14983  36.724   9.600   8.550
 4241POPC   C2B14984  36.759   9.548   8.250
 4241POPC   C3B14985  36.724   9.621   7.950
 4241POPC   C4B14986  36.677   9.562   7.650
 4242POPC   NC314987  42.305  29.159   9.450
 4242POPC   PO414988  42.332  29.192   9.150
 4242POPC   GL114989  42.352  29.096   8.850
 4242POPC   GL214990  42.284  29.020   8.850
 4242POPC   C1A14991  42.290  29.185   8.550
 4242POPC   D2A14992  42.312  29.162   8.250
 4242POPC   C3A14993  42.293  29.116   7.950
 4242POPC   C4A14994  42.363  29.115   7.650
 4242POPC   C1B14995  42.220  28.947   8.550
 4242POPC   C2B14996  42.196  28.905   8.250
 4242POPC   C3B14997  42.270  28.934   7.950
 4242POPC   C4B14998  42.202  28.880   7.650
 4243POPC   NC314999  33.789  35.382   9.450
 4243POPC   PO415000  33.808  35.329   9.150
 4243POPC   GL115001  33.764  35.381   8.850
 4243POPC   GL215002  33.840  35.258   8.850
 4243POPC   C1A15003  33.810  35.401   8.550
 4243POPC   D2A15004  33.761  35.387   8.250
 4243POPC   C3A15005  33.763  35.356   7.950
 4243POPC   C4A15006  33.776  35.343   7.650
 4243POPC   C1B15007  33.890  35.092   8.550
 4243POPC   C2B15008  33.837  35.070   8.250
 4243POPC   C3B15009  33.854  35.130   7.950
 4243POPC   C4B15010  33.802  35.095   7.650
 4244POPC   NC315011   6.615  39.236   9.450
 4244POPC   PO415012   6.609  39.264   9.150
 4244POPC   GL115013   6.685  39.214   8.850
 4244POPC   GL215014   6.811  39.202   8.850
 4244POPC   C1A15015   6.637  39.182   8.550
 4244POPC   D2A15016   6.610  39.186   8.250
 4244POPC   C3A15017   6.679  39.260   7.950
 4244POPC   C4A15018   6.634  39.193   7.650
 4244POPC   C1B15019   6.909  39.148   8.550
 4244POPC   C2B15020   6.890  39.150   8.250
 4244POPC   C3B15021   6.872  39.107   7.950
 4244POPC   C4B15022   6.861  39.137   7.650
 4245POPC   NC315023  43.843  18.241   9.450
 4245POPC   PO415024  43.904  18.263   9.150
 4245POPC   GL115025  43.847  18.277   8.850
 4245POPC   GL215026  43.993  18.177   8.850
 4245POPC   C1A15027  43.837  18.245   8.550
 4245POPC   D2A15028  43.900  18.316   8.250
 4245POPC   C3A15029  43.870  18.250   7.950
 4245POPC   C4A15030  43.917  18.241   7.650
 4245POPC   C1B15031  43.979  18.065   8.550
 4245POPC   C2B15032  43.980  18.047   8.250
 4245POPC   C3B15033  43.994  18.028   7.950
 4245POPC   C4B15034  43.976  18.057   7.650
 4246POPC   NC315035  12.802  28.343   9.450
 4246POPC   PO415036  12.864  28.348   9.150
 4246POPC   GL115037  12.814  28.390   8.850
 4246POPC   GL215038  12.678  28.344   8.850
 4246POPC   C1A15039  12.872  28.328   8.550
 4246POPC   D2A15040  12.803  28.329   8.250
 4246POPC   C3A15041  12.817  28.401   7.950
 4246POPC   C4A15042  12.845  28.330   7.650
 4246POPC   C1B15043  12.618  28.366   8.550
 4246POPC   C2B15044  12.647  28.343   8.250
 4246POPC   C3B15045  12.613  28.386   7.950
 4246POPC   C4B15046  12.611  28.356   7.650
 4247POPC   NC315047  15.942  28.336   9.450
 4247POPC   PO415048  15.955  28.331   9.150
 4247POPC   GL115049  15.995  28.320   8.850
 4247POPC   GL215050  16.000  28.254   8.850
 4247POPC   C1A15051  15.994  28.419   8.550
 4247POPC   D2A15052  15.995  28.331   8.250
 4247POPC   C3A15053  15.997  28.378   7.950
 4247POPC   C4A15054  16.001  28.324   7.650
 4247POPC   C1B15055  16.021  28.093   8.550
 4247POPC   C2B15056  16.054  28.084   8.250
 4247POPC   C3B15057  16.035  28.133   7.950
 4247POPC   C4B15058  16.062  28.090   7.650
 4248POPC   NC315059  12.823   0.450   9.450
 4248POPC   PO415060  12.844   0.462   9.150
 4248POPC   GL115061  12.855   0.446   8.850
 4248POPC   GL215062  12.954   0.513   8.850
 4248POPC   C1A15063  12.865   0.485   8.550
 4248POPC   D2A15064  12.816   0.476   8.250
 4248POPC   C3A15065  12.902   0.448   7.950
 4248POPC   C4A15066  12.869   0.478   7.650
 4248POPC   C1B15067  13.037   0.600   8.550
 4248POPC   C2B15068  13.005   0.664   8.250
 4248POPC   C3B15069  13.064   0.621   7.950
 4248POPC   C4B15070  13.052   0.642   7.650
 4249POPC   NC315071  44.624  30.663   9.450
 4249POPC   PO415072  44.634  30.729   9.150
 4249POPC   GL115073  44.692  30.675   8.850
 4249POPC   GL215074  44.588  30.729   8.850
 4249POPC   C1A15075  44.617  30.687   8.550
 4249POPC   D2A15076  44.621  30.691   8.250
 4249POPC   C3A15077  44.637  30.744   7.950
 4249POPC   C4A15078  44.693  30.715   7.650
 4249POPC   C1B15079  44.416  30.862   8.550
 4249POPC   C2B15080  44.468  30.808   8.250
 4249POPC   C3B15081  44.487  30.833   7.950
 4249POPC   C4B15082  44.479  30.822   7.650
 4250POPC   NC315083  22.188  20.618   9.450
 4250POPC   PO415084  22.139  20.659   9.150
 4250POPC   GL115085  22.211  20.628   8.850
 4250POPC   GL215086  22.218  20.651   8.850
 4250POPC   C1A15087  22.192  20.624   8.550
 4250POPC   D2A15088  22.191  20.576   8.250
 4250POPC   C3A15089  22.154  20.605   7.950
 4250POPC   C4A15090  22.189  20.653   7.650
 4250POPC   C1B15091  22.321  20.749   8.550
 4250POPC   C2B15092  22.373  20.770   8.250
 4250POPC   C3B15093  22.337  20.800   7.950
 4250POPC   C4B15094  22.419  20.716   7.650
 4251POPC   NC315095  14.443  14.399   9.450
 4251POPC   PO415096  14.365  14.374   9.150
 4251POPC   GL115097  14.358  14.448   8.850
 4251POPC   GL215098  14.349  14.353   8.850
 4251POPC   C1A15099  14.432  14.392   8.550
 4251POPC   D2A15100  14.412  14.436   8.250
 4251POPC   C3A15101  14.396  14.383   7.950
 4251POPC   C4A15102  14.424  14.433   7.650
 4251POPC   C1B15103  14.218  14.173   8.550
 4251POPC   C2B15104  14.259  14.213   8.250
 4251POPC   C3B15105  14.247  14.222   7.950
 4251POPC   C4B15106  14.235  14.230   7.650
 4252POPC   NC315107  19.018  41.540   9.450
 4252POPC   PO415108  19.047  41.596   9.150
 4252POPC   GL115109  19.052  41.564   8.850
 4252POPC   GL215110  18.937  41.582   8.850
 4252POPC   C1A15111  19.054  41.608   8.550
 4252POPC   D2A15112  19.020  41.510   8.250
 4252POPC   C3A15113  19.050  41.541   7.950
 4252POPC   C4A15114  19.041  41.602   7.650
 4252POPC   C1B15115  18.855  41.701   8.550
 4252POPC   C2B15116  18.848  41.708   8.250
 4252POPC   C3B15117  18.863  41.720   7.950
 4252POPC   C4B15118  18.872  41.730   7.650
 4253POPC   NC315119  44.621  35.400   9.450
 4253POPC   PO415120  44.614  35.372   9.150
 4253POPC   GL115121  44.676  35.352   8.850
 4253POPC   GL215122  44.501  35.268   8.850
 4253POPC   C1A15123  44.691  35.359   8.550
 4253POPC   D2A15124  44.704  35.376   8.250
 4253POPC   C3A15125  44.695  35.344   7.950
 4253POPC   C4A15126  44.616  35.369   7.650
 4253POPC   C1B15127  44.440  35.227   8.550
 4253POPC   C2B15128  44.424  35.228   8.250
 4253POPC   C3B15129  44.430  35.322   7.950
 4253POPC   C4B15130  44.375  35.272   7.650
 4254POPC   NC315131  29.173  13.623   9.450
 4254POPC   PO415132  29.194  13.607   9.150
 4254POPC   GL115133  29.173  13.586   8.850
 4254POPC   GL215134  29.043  13.600   8.850
 4254POPC   C1A15135  29.192  13.604   8.550
 4254POPC   D2A15136  29.166  13.617   8.250
 4254POPC   C3A15137  29.096  13.654   7.950
 4254POPC   C4A15138  29.134  13.642   7.650
 4254POPC   C1B15139  28.894  13.461   8.550
 4254POPC   C2B15140  28.971  13.520   8.250
 4254POPC   C3B15141  28.965  13.533   7.950
 4254POPC   C4B15142  28.893  13.527   7.650
 4255POPC   NC315143  43.119  12.833   9.450
 4255POPC   PO415144  43.105  12.861   9.150
 4255POPC   GL115145  43.106  12.832   8.850
 4255POPC   GL215146  43.036  12.794   8.850
 4255POPC   C1A15147  43.159  12.861   8.550
 4255POPC   D2A15148  43.115  12.826   8.250
 4255POPC   C3A15149  43.119  12.888   7.950
 4255POPC   C4A15150  43.076  12.812   7.650
 4255POPC   C1B15151  42.862  12.764   8.550
 4255POPC   C2B15152  42.895  12.774   8.250
 4255POPC   C3B15153  42.914  12.810   7.950
 4255POPC   C4B15154  42.875  12.767   7.650
 4256POPC   NC315155  29.913  15.183   9.450
 4256POPC   PO415156  29.877  15.140   9.150
 4256POPC   GL115157  29.970  15.132   8.850
 4256POPC   GL215158  29.906  15.040   8.850
 4256POPC   C1A15159  29.934  15.131   8.550
 4256POPC   D2A15160  29.961  15.138   8.250
 4256POPC   C3A15161  29.939  15.156   7.950
 4256POPC   C4A15162  29.906  15.216   7.650
 4256POPC   C1B15163  29.781  14.930   8.550
 4256POPC   C2B15164  29.768  14.935   8.250
 4256POPC   C3B15165  29.815  14.946   7.950
 4256POPC   C4B15166  29.791  14.982   7.650
 4257POPC   NC315167   8.194  15.918   9.450
 4257POPC   PO415168   8.227  15.995   9.150
 4257POPC   GL115169   8.217  15.956   8.850
 4257POPC   GL215170   8.109  15.942   8.850
 4257POPC   C1A15171   8.227  15.975   8.550
 4257POPC   D2A15172   8.187  15.937   8.250
 4257POPC   C3A15173   8.163  16.003   7.950
 4257POPC   C4A15174   8.239  15.969   7.650
 4257POPC   C1B15175   7.944  15.916   8.550
 4257POPC   C2B15176   7.913  15.896   8.250
 4257POPC   C3B15177   7.956  15.856   7.950
 4257POPC   C4B15178   7.969  15.863   7.650
 4258POPC   NC315179   4.354   1.982   9.450
 4258POPC   PO415180   4.310   2.036   9.150
 4258POPC   GL115181   4.366   1.963   8.850
 4258POPC   GL215182   4.235   2.014   8.850
 4258POPC   C1A15183   4.286   1.949   8.550
 4258POPC   D2A15184   4.364   2.024   8.250
 4258POPC   C3A15185   4.358   1.962   7.950
 4258POPC   C4A15186   4.323   2.037   7.650
 4258POPC   C1B15187   4.148   2.098   8.550
 4258POPC   C2B15188   4.086   2.118   8.250
 4258POPC   C3B15189   4.053   2.086   7.950
 4258POPC   C4B15190   4.105   2.071   7.650
 4259POPC   NC315191  40.776  20.649   9.450
 4259POPC   PO415192  40.808  20.607   9.150
 4259POPC   GL115193  40.832  20.581   8.850
 4259POPC   GL215194  40.635  20.722   8.850
 4259POPC   C1A15195  40.758  20.634   8.550
 4259POPC   D2A15196  40.779  20.573   8.250
 4259POPC   C3A15197  40.797  20.585   7.950
 4259POPC   C4A15198  40.736  20.648   7.650
 4259POPC   C1B15199  40.605  20.771   8.550
 4259POPC   C2B15200  40.560  20.703   8.250
 4259POPC   C3B15201  40.551  20.769   7.950
 4259POPC   C4B15202  40.527  20.734   7.650
 4260POPC   NC315203   6.684   2.776   9.450
 4260POPC   PO415204   6.634   2.769   9.150
 4260POPC   GL115205   6.600   2.815   8.850
 4260POPC   GL215206   6.598   2.856   8.850
 4260POPC   C1A15207   6.632   2.811   8.550
 4260POPC   D2A15208   6.665   2.765   8.250
 4260POPC   C3A15209   6.625   2.741   7.950
 4260POPC   C4A15210   6.630   2.793   7.650
 4260POPC   C1B15211   6.480   2.929   8.550
 4260POPC   C2B15212   6.479   2.942   8.250
 4260POPC   C3B15213   6.542   3.000   7.950
 4260POPC   C4B15214   6.470   2.989   7.650
 4261POPC   NC315215  37.657  44.678   9.450
 4261POPC   PO415216  37.694  44.708   9.150
 4261POPC   GL115217  37.729  44.654   8.850
 4261POPC   GL215218  37.766  44.692   8.850
 4261POPC   C1A15219  37.716  44.702   8.550
 4261POPC   D2A15220  37.675  44.676   8.250
 4261POPC   C3A15221  37.682  44.681   7.950
 4261POPC   C4A15222  37.702  44.647   7.650
 4261POPC   C1B15223  37.886  44.695   8.550
 4261POPC   C2B15224  37.918  44.726   8.250
 4261POPC   C3B15225  37.905  44.711   7.950
 4261POPC   C4B15226  37.959  44.702   7.650
 4262POPC   NC315227   0.461   9.020   9.450
 4262POPC   PO415228   0.412   9.013   9.150
 4262POPC   GL115229   0.465   8.982   8.850
 4262POPC   GL215230   0.343   8.960   8.850
 4262POPC   C1A15231   0.422   9.016   8.550
 4262POPC   D2A15232   0.407   8.924   8.250
 4262POPC   C3A15233   0.398   8.981   7.950
 4262POPC   C4A15234   0.413   9.000   7.650
 4262POPC   C1B15235   0.182   8.866   8.550
 4262POPC   C2B15236   0.165   8.899   8.250
 4262POPC   C3B15237   0.153   8.897   7.950
 4262POPC   C4B15238   0.174   8.928   7.650
 4263POPC   NC315239  15.208  32.981   9.450
 4263POPC   PO415240  15.181  33.029   9.150
 4263POPC   GL115241  15.148  33.040   8.850
 4263POPC   GL215242  15.104  32.960   8.850
 4263POPC   C1A15243  15.229  33.040   8.550
 4263POPC   D2A15244  15.142  32.998   8.250
 4263POPC   C3A15245  15.150  33.025   7.950
 4263POPC   C4A15246  15.154  33.009   7.650
 4263POPC   C1B15247  14.921  32.969   8.550
 4263POPC   C2B15248  14.939  32.904   8.250
 4263POPC   C3B15249  14.951  32.898   7.950
 4263POPC   C4B15250  14.991  32.934   7.650
 4264POPC   NC315251  32.263  15.959   9.450
 4264POPC   PO415252  32.203  15.924   9.150
 4264POPC   GL115253  32.294  15.955   8.850
 4264POPC   GL215254  32.233  16.052   8.850
 4264POPC   C1A15255  32.245  15.925   8.550
 4264POPC   D2A15256  32.293  15.912   8.250
 4264POPC   C3A15257  32.238  15.993   7.950
 4264POPC   C4A15258  32.271  15.944   7.650
 4264POPC   C1B15259  32.126  16.240   8.550
 4264POPC   C2B15260  32.203  16.192   8.250
 4264POPC   C3B15261  32.135  16.223   7.950
 4264POPC   C4B15262  32.176  16.156   7.650
 4265POPC   NC315263  39.214  12.099   9.450
 4265POPC   PO415264  39.218  12.060   9.150
 4265POPC   GL115265  39.212  12.108   8.850
 4265POPC   GL215266  39.185  12.008   8.850
 4265POPC   C1A15267  39.218  12.085   8.550
 4265POPC   D2A15268  39.240  12.040   8.250
 4265POPC   C3A15269  39.270  12.086   7.950
 4265POPC   C4A15270  39.214  12.069   7.650
 4265POPC   C1B15271  39.022  11.923   8.550
 4265POPC   C2B15272  39.017  11.865   8.250
 4265POPC   C3B15273  39.080  11.950   7.950
 4265POPC   C4B15274  39.093  11.891   7.650
 4266POPC   NC315275  30.736  12.052   9.450
 4266POPC   PO415276  30.732  12.069   9.150
 4266POPC   GL115277  30.712  12.038   8.850
 4266POPC   GL215278  30.856  12.038   8.850
 4266POPC   C1A15279  30.675  12.050   8.550
 4266POPC   D2A15280  30.662  12.099   8.250
 4266POPC   C3A15281  30.677  12.041   7.950
 4266POPC   C4A15282  30.658  12.086   7.650
 4266POPC   C1B15283  30.896  12.019   8.550
 4266POPC   C2B15284  30.971  12.081   8.250
 4266POPC   C3B15285  30.924  12.092   7.950
 4266POPC   C4B15286  30.946  12.100   7.650
 4267POPC   NC315287  27.622  34.548   9.450
 4267POPC   PO415288  27.568  34.598   9.150
 4267POPC   GL115289  27.591  34.555   8.850
 4267POPC   GL215290  27.488  34.598   8.850
 4267POPC   C1A15291  27.548  34.622   8.550
 4267POPC   D2A15292  27.564  34.554   8.250
 4267POPC   C3A15293  27.634  34.596   7.950
 4267POPC   C4A15294  27.627  34.585   7.650
 4267POPC   C1B15295  27.308  34.673   8.550
 4267POPC   C2B15296  27.394  34.661   8.250
 4267POPC   C3B15297  27.304  34.680   7.950
 4267POPC   C4B15298  27.343  34.659   7.650
 4268POPC   NC315299  26.858  28.354   9.450
 4268POPC   PO415300  26.828  28.334   9.150
 4268POPC   GL115301  26.861  28.345   8.850
 4268POPC   GL215302  26.944  28.429   8.850
 4268POPC   C1A15303  26.779  28.359   8.550
 4268POPC   D2A15304  26.807  28.393   8.250
 4268POPC   C3A15305  26.840  28.329   7.950
 4268POPC   C4A15306  26.852  28.390   7.650
 4268POPC   C1B15307  27.049  28.386   8.550
 4268POPC   C2B15308  27.046  28.412   8.250
 4268POPC   C3B15309  27.111  28.394   7.950
 4268POPC   C4B15310  27.061  28.392   7.650
 4269POPC   NC315311   4.328  25.297   9.450
 4269POPC   PO415312   4.365  25.287   9.150
 4269POPC   GL115313   4.277  25.254   8.850
 4269POPC   GL215314   4.237  25.189   8.850
 4269POPC   C1A15315   4.328  25.315   8.550
 4269POPC   D2A15316   4.315  25.313   8.250
 4269POPC   C3A15317   4.332  25.267   7.950
 4269POPC   C4A15318   4.306  25.270   7.650
 4269POPC   C1B15319   4.166  25.082   8.550
 4269POPC   C2B15320   4.187  25.022   8.250
 4269POPC   C3B15321   4.177  25.116   7.950
 4269POPC   C4B15322   4.115  25.072   7.650
 4270POPC   NC315323  24.536  38.477   9.450
 4270POPC   PO415324  24.450  38.475   9.150
 4270POPC   GL115325  24.518  38.426   8.850
 4270POPC   GL215326  24.515  38.545   8.850
 4270POPC   C1A15327  24.477  38.459   8.550
 4270POPC   D2A15328  24.531  38.439   8.250
 4270POPC   C3A15329  24.508  38.496   7.950
 4270POPC   C4A15330  24.441  38.463   7.650
 4270POPC   C1B15331  24.503  38.687   8.550
 4270POPC   C2B15332  24.479  38.689   8.250
 4270POPC   C3B15333  24.427  38.669   7.950
 4270POPC   C4B15334  24.433  38.664   7.650
 4271POPC   NC315335  18.330  30.693   9.450
 4271POPC   PO415336  18.243  30.660   9.150
 4271POPC   GL115337  18.259  30.736   8.850
 4271POPC   GL215338  18.193  30.573   8.850
 4271POPC   C1A15339  18.234  30.745   8.550
 4271POPC   D2A15340  18.309  30.671   8.250
 4271POPC   C3A15341  18.302  30.667   7.950
 4271POPC   C4A15342  18.263  30.728   7.650
 4271POPC   C1B15343  18.083  30.551   8.550
 4271POPC   C2B15344  18.109  30.556   8.250
 4271POPC   C3B15345  18.106  30.568   7.950
 4271POPC   C4B15346  18.123  30.509   7.650
 4272POPC   NC315347  44.635  22.176   9.450
 4272POPC   PO415348  44.700  22.116   9.150
 4272POPC   GL115349  44.674  22.116   8.850
 4272POPC   GL215350  44.611  22.279   8.850
 4272POPC   C1A15351  44.688  22.205   8.550
 4272POPC   D2A15352  44.695  22.152   8.250
 4272POPC   C3A15353  44.632  22.209   7.950
 4272POPC   C4A15354  44.629  22.126   7.650
 4272POPC   C1B15355  44.613  22.429   8.550
 4272POPC   C2B15356  44.623  22.449   8.250
 4272POPC   C3B15357  44.578  22.447   7.950
 4272POPC   C4B15358  44.549  22.430   7.650
 4273POPC   NC315359   9.796   8.212   9.450
 4273POPC   PO415360   9.714   8.188   9.150
 4273POPC   GL115361   9.782   8.191   8.850
 4273POPC   GL215362   9.696   8.096   8.850
 4273POPC   C1A15363   9.750   8.177   8.550
 4273POPC   D2A15364   9.735   8.169   8.250
 4273POPC   C3A15365   9.793   8.202   7.950
 4273POPC   C4A15366   9.707   8.179   7.650
 4273POPC   C1B15367   9.551   7.998   8.550
 4273POPC   C2B15368   9.579   8.065   8.250
 4273POPC   C3B15369   9.521   8.006   7.950
 4273POPC   C4B15370   9.590   8.029   7.650
 4274POPC   NC315371  12.868  15.927   9.450
 4274POPC   PO415372  12.822  15.990   9.150
 4274POPC   GL115373  12.850  15.949   8.850
 4274POPC   GL215374  12.885  15.855   8.850
 4274POPC   C1A15375  12.830  15.913   8.550
 4274POPC   D2A15376  12.832  15.916   8.250
 4274POPC   C3A15377  12.815  15.934   7.950
 4274POPC   C4A15378  12.822  15.979   7.650
 4274POPC   C1B15379  12.996  15.773   8.550
 4274POPC   C2B15380  12.938  15.769   8.250
 4274POPC   C3B15381  12.942  15.755   7.950
 4274POPC   C4B15382  12.952  15.694   7.650
 4275POPC   NC315383  20.609   5.824   9.450
 4275POPC   PO415384  20.607   5.891   9.150
 4275POPC   GL115385  20.616   5.914   8.850
 4275POPC   GL215386  20.615   5.966   8.850
 4275POPC   C1A15387  20.587   5.822   8.550
 4275POPC   D2A15388  20.641   5.904   8.250
 4275POPC   C3A15389  20.599   5.827   7.950
 4275POPC   C4A15390  20.596   5.916   7.650
 4275POPC   C1B15391  20.617   6.071   8.550
 4275POPC   C2B15392  20.638   6.099   8.250
 4275POPC   C3B15393  20.599   6.112   7.950
 4275POPC   C4B15394  20.622   6.084   7.650
 4276POPC   NC315395  38.406  29.112   9.450
 4276POPC   PO415396  38.408  29.156   9.150
 4276POPC   GL115397  38.484  29.141   8.850
 4276POPC   GL215398  38.319  29.211   8.850
 4276POPC   C1A15399  38.441  29.178   8.550
 4276POPC   D2A15400  38.437  29.150   8.250
 4276POPC   C3A15401  38.427  29.160   7.950
 4276POPC   C4A15402  38.465  29.188   7.650
 4276POPC   C1B15403  38.257  29.259   8.550
 4276POPC   C2B15404  38.288  29.288   8.250
 4276POPC   C3B15405  38.207  29.269   7.950
 4276POPC   C4B15406  38.271  29.268   7.650
 4277POPC   NC315407   9.705  26.010   9.450
 4277POPC   PO415408   9.760  26.090   9.150
 4277POPC   GL115409   9.709  26.026   8.850
 4277POPC   GL215410   9.818  26.185   8.850
 4277POPC   C1A15411   9.771  26.003   8.550
 4277POPC   D2A15412   9.789  26.033   8.250
 4277POPC   C3A15413   9.745  26.048   7.950
 4277POPC   C4A15414   9.703  26.083   7.650
 4277POPC   C1B15415   9.949  26.265   8.550
 4277POPC   C2B15416   9.878  26.253   8.250
 4277POPC   C3B15417   9.925  26.256   7.950
 4277POPC   C4B15418   9.906  26.188   7.650
 4278POPC   NC315419   9.767   9.779   9.450
 4278POPC   PO415420   9.742   9.727   9.150
 4278POPC   GL115421   9.741   9.797   8.850
 4278POPC   GL215422   9.781   9.635   8.850
 4278POPC   C1A15423   9.780   9.719   8.550
 4278POPC   D2A15424   9.725   9.720   8.250
 4278POPC   C3A15425   9.721   9.788   7.950
 4278POPC   C4A15426   9.783   9.757   7.650
 4278POPC   C1B15427   9.924   9.528   8.550
 4278POPC   C2B15428   9.925   9.512   8.250
 4278POPC   C3B15429   9.868   9.540   7.950
 4278POPC   C4B15430   9.872   9.556   7.650
 4279POPC   NC315431   9.771  40.795   9.450
 4279POPC   PO415432   9.700  40.827   9.150
 4279POPC   GL115433   9.752  40.763   8.850
 4279POPC   GL215434   9.901  40.727   8.850
 4279POPC   C1A15435   9.756  40.788   8.550
 4279POPC   D2A15436   9.699  40.827   8.250
 4279POPC   C3A15437   9.721  40.816   7.950
 4279POPC   C4A15438   9.701  40.735   7.650
 4279POPC   C1B15439   9.947  40.733   8.550
 4279POPC   C2B15440  10.004  40.740   8.250
 4279POPC   C3B15441  10.015  40.744   7.950
 4279POPC   C4B15442   9.986  40.700   7.650
 4280POPC   NC315443  29.131  19.849   9.450
 4280POPC   PO415444  29.106  19.882   9.150
 4280POPC   GL115445  29.171  19.844   8.850
 4280POPC   GL215446  29.154  19.701   8.850
 4280POPC   C1A15447  29.182  19.815   8.550
 4280POPC   D2A15448  29.185  19.832   8.250
 4280POPC   C3A15449  29.121  19.854   7.950
 4280POPC   C4A15450  29.165  19.788   7.650
 4280POPC   C1B15451  29.112  19.558   8.550
 4280POPC   C2B15452  29.134  19.608   8.250
 4280POPC   C3B15453  29.127  19.557   7.950
 4280POPC   C4B15454  29.167  19.538   7.650
 4281POPC   NC315455  33.756  20.657   9.450
 4281POPC   PO415456  33.828  20.609   9.150
 4281POPC   GL115457  33.768  20.600   8.850
 4281POPC   GL215458  33.777  20.782   8.850
 4281POPC   C1A15459  33.833  20.605   8.550
 4281POPC   D2A15460  33.837  20.598   8.250
 4281POPC   C3A15461  33.774  20.597   7.950
 4281POPC   C4A15462  33.829  20.574   7.650
 4281POPC   C1B15463  33.780  20.900   8.550
 4281POPC   C2B15464  33.709  20.851   8.250
 4281POPC   C3B15465  33.746  20.847   7.950
 4281POPC   C4B15466  33.760  20.873   7.650
 4282POPC   NC315467   8.203  20.629   9.450
 4282POPC   PO415468   8.217  20.576   9.150
 4282POPC   GL115469   8.222  20.584   8.850
 4282POPC   GL215470   8.055  20.525   8.850
 4282POPC   C1A15471   8.170  20.622   8.550
 4282POPC   D2A15472   8.229  20.593   8.250
 4282POPC   C3A15473   8.205  20.625   7.950
 4282POPC   C4A15474   8.223  20.580   7.650
 4282POPC   C1B15475   7.961  20.412   8.550
 4282POPC   C2B15476   8.049  20.452   8.250
 4282POPC   C3B15477   7.971  20.456   7.950
 4282POPC   C4B15478   8.014  20.409   7.650
 4283POPC   NC315479  28.335  39.226   9.450
 4283POPC   PO415480  28.382  39.183   9.150
 4283POPC   GL115481  28.364  39.232   8.850
 4283POPC   GL215482  28.419  39.089   8.850
 4283POPC   C1A15483  28.369  39.221   8.550
 4283POPC   D2A15484  28.374  39.227   8.250
 4283POPC   C3A15485  28.371  39.226   7.950
 4283POPC   C4A15486  28.326  39.257   7.650
 4283POPC   C1B15487  28.524  39.031   8.550
 4283POPC   C2B15488  28.545  39.008   8.250
 4283POPC   C3B15489  28.540  39.051   7.950
 4283POPC   C4B15490  28.454  38.995   7.650
 4284POPC   NC315491  15.950   1.961   9.450
 4284POPC   PO415492  15.925   2.005   9.150
 4284POPC   GL115493  15.982   1.975   8.850
 4284POPC   GL215494  15.818   2.012   8.850
 4284POPC   C1A15495  15.969   1.952   8.550
 4284POPC   D2A15496  15.955   1.966   8.250
 4284POPC   C3A15497  15.947   2.009   7.950
 4284POPC   C4A15498  15.932   2.002   7.650
 4284POPC   C1B15499  15.739   2.007   8.550
 4284POPC   C2B15500  15.737   1.947   8.250
 4284POPC   C3B15501  15.709   2.009   7.950
 4284POPC   C4B15502  15.706   1.966   7.650
 4285POPC   NC315503   2.775   5.053   9.450
 4285POPC   PO415504   2.809   5.126   9.150
 4285POPC   GL115505   2.799   5.088   8.850
 4285POPC   GL215506   2.879   5.043   8.850
 4285POPC   C1A15507   2.770   5.098   8.550
 4285POPC   D2A15508   2.775   5.104   8.250
 4285POPC   C3A15509   2.718   5.079   7.950
 4285POPC   C4A15510   2.732   5.072   7.650
 4285POPC   C1B15511   3.054   5.044   8.550
 4285POPC   C2B15512   3.017   5.060   8.250
 4285POPC   C3B15513   2.982   5.076   7.950
 4285POPC   C4B15514   3.042   5.062   7.650
 4286POPC   NC315515  38.498  22.174   9.450
 4286POPC   PO415516  38.432  22.175   9.150
 4286POPC   GL115517  38.457  22.208   8.850
 4286POPC   GL215518  38.453  22.305   8.850
 4286POPC   C1A15519  38.503  22.140   8.550
 4286POPC   D2A15520  38.500  22.189   8.250
 4286POPC   C3A15521  38.441  22.194   7.950
 4286POPC   C4A15522  38.461  22.146   7.650
 4286POPC   C1B15523  38.429  22.393   8.550
 4286POPC   C2B15524  38.429  22.418   8.250
 4286POPC   C3B15525  38.508  22.454   7.950
 4286POPC   C4B15526  38.443  22.393   7.650
 4287POPC   NC315527  36.094  20.569   9.450
 4287POPC   PO415528  36.169  20.592   9.150
 4287POPC   GL115529  36.147  20.637   8.850
 4287POPC   GL215530  36.253  20.634   8.850
 4287POPC   C1A15531  36.134  20.656   8.550
 4287POPC   D2A15532  36.177  20.574   8.250
 4287POPC   C3A15533  36.089  20.594   7.950
 4287POPC   C4A15534  36.097  20.590   7.650
 4287POPC   C1B15535  36.403  20.739   8.550
 4287POPC   C2B15536  36.403  20.670   8.250
 4287POPC   C3B15537  36.348  20.720   7.950
 4287POPC   C4B15538  36.336  20.674   7.650
 4288POPC   NC315539   8.985  36.870   9.450
 4288POPC   PO415540   8.988  36.922   9.150
 4288POPC   GL115541   8.986  36.898   8.850
 4288POPC   GL215542   8.918  36.766   8.850
 4288POPC   C1A15543   8.991  36.945   8.550
 4288POPC   D2A15544   8.935  36.913   8.250
 4288POPC   C3A15545   8.939  36.871   7.950
 4288POPC   C4A15546   8.929  36.870   7.650
 4288POPC   C1B15547   8.940  36.659   8.550
 4288POPC   C2B15548   8.930  36.635   8.250
 4288POPC   C3B15549   8.951  36.643   7.950
 4288POPC   C4B15550   8.966  36.633   7.650
 4289POPC   NC315551   9.003   8.226   9.450
 4289POPC   PO415552   8.976   8.236   9.150
 4289POPC   GL115553   8.939   8.207   8.850
 4289POPC   GL215554   8.960   8.314   8.850
 4289POPC   C1A15555   8.929   8.195   8.550
 4289POPC   D2A15556   9.005   8.166   8.250
 4289POPC   C3A15557   8.959   8.148   7.950
 4289POPC   C4A15558   8.939   8.206   7.650
 4289POPC   C1B15559   8.886   8.441   8.550
 4289POPC   C2B15560   8.977   8.462   8.250
 4289POPC   C3B15561   8.959   8.470   7.950
 4289POPC   C4B15562   8.944   8.431   7.650
 4290POPC   NC315563  40.779  36.138   9.450
 4290POPC   PO415564  40.782  36.132   9.150
 4290POPC   GL115565  40.746  36.170   8.850
 4290POPC   GL215566  40.865  36.010   8.850
 4290POPC   C1A15567  40.766  36.108   8.550
 4290POPC   D2A15568  40.756  36.084   8.250
 4290POPC   C3A15569  40.750  36.157   7.950
 4290POPC   C4A15570  40.749  36.090   7.650
 4290POPC   C1B15571  40.908  35.881   8.550
 4290POPC   C2B15572  40.921  35.912   8.250
 4290POPC   C3B15573  40.909  35.927   7.950
 4290POPC   C4B15574  40.845  35.894   7.650
 4291POPC   NC315575  11.347  30.684   9.450
 4291POPC   PO415576  11.333  30.692   9.150
 4291POPC   GL115577  11.302  30.681   8.850
 4291POPC   GL215578  11.396  30.572   8.850
 4291POPC   C1A15579  11.276  30.660   8.550
 4291POPC   D2A15580  11.326  30.656   8.250
 4291POPC   C3A15581  11.343  30.671   7.950
 4291POPC   C4A15582  11.256  30.649   7.650
 4291POPC   C1B15583  11.480  30.469   8.550
 4291POPC   C2B15584  11.432  30.506   8.250
 4291POPC   C3B15585  11.409  30.509   7.950
 4291POPC   C4B15586  11.499  30.510   7.650
 4292POPC   NC315587  10.481  11.349   9.450
 4292POPC   PO415588  10.550  11.322   9.150
 4292POPC   GL115589  10.488  11.345   8.850
 4292POPC   GL215590  10.676  11.286   8.850
 4292POPC   C1A15591  10.523  11.315   8.550
 4292POPC   D2A15592  10.479  11.264   8.250
 4292POPC   C3A15593  10.490  11.314   7.950
 4292POPC   C4A15594  10.555  11.324   7.650
 4292POPC   C1B15595  10.765  11.310   8.550
 4292POPC   C2B15596  10.723  11.401   8.250
 4292POPC   C3B15597  10.760  11.351   7.950
 4292POPC   C4B15598  10.751  11.340   7.650
 4293POPC   NC315599  28.400  14.428   9.450
 4293POPC   PO415600  28.398  14.452   9.150
 4293POPC   GL115601  28.408  14.415   8.850
 4293POPC   GL215602  28.264  14.425   8.850
 4293POPC   C1A15603  28.367  14.367   8.550
 4293POPC   D2A15604  28.408  14.368   8.250
 4293POPC   C3A15605  28.366  14.437   7.950
 4293POPC   C4A15606  28.402  14.429   7.650
 4293POPC   C1B15607  28.161  14.518   8.550
 4293POPC   C2B15608  28.102  14.421   8.250
 4293POPC   C3B15609  28.143  14.452   7.950
 4293POPC   C4B15610  28.128  14.425   7.650
 4294POPC   NC315611  36.122   5.104   9.450
 4294POPC   PO415612  36.109   5.115   9.150
 4294POPC   GL115613  36.099   5.131   8.850
 4294POPC   GL215614  36.008   5.049   8.850
 4294POPC   C1A15615  36.086   5.090   8.550
 4294POPC   D2A15616  36.092   5.099   8.250
 4294POPC   C3A15617  36.104   5.083   7.950
 4294POPC   C4A15618  36.167   5.110   7.650
 4294POPC   C1B15619  35.936   4.952   8.550
 4294POPC   C2B15620  35.877   5.016   8.250
 4294POPC   C3B15621  35.866   4.992   7.950
 4294POPC   C4B15622  35.864   5.016   7.650
 4295POPC   NC315623   5.915  10.566   9.450
 4295POPC   PO415624   5.914  10.506   9.150
 4295POPC   GL115625   5.894  10.482   8.850
 4295POPC   GL215626   5.806  10.411   8.850
 4295POPC   C1A15627   5.861  10.504   8.550
 4295POPC   D2A15628   5.849  10.486   8.250
 4295POPC   C3A15629   5.825  10.552   7.950
 4295POPC   C4A15630   5.903  10.534   7.650
 4295POPC   C1B15631   5.792  10.267   8.550
 4295POPC   C2B15632   5.871  10.298   8.250
 4295POPC   C3B15633   5.823  10.236   7.950
 4295POPC   C4B15634   5.823  10.275   7.650
 4296POPC   NC315635  28.406   2.017   9.450
 4296POPC   PO415636  28.367   1.970   9.150
 4296POPC   GL115637  28.395   2.009   8.850
 4296POPC   GL215638  28.244   2.011   8.850
 4296POPC   C1A15639  28.397   1.940   8.550
 4296POPC   D2A15640  28.365   2.018   8.250
 4296POPC   C3A15641  28.393   1.969   7.950
 4296POPC   C4A15642  28.345   1.971   7.650
 4296POPC   C1B15643  28.114   2.041   8.550
 4296POPC   C2B15644  28.073   2.009   8.250
 4296POPC   C3B15645  28.078   1.983   7.950
 4296POPC   C4B15646  28.089   2.048   7.650
 4297POPC   NC315647  32.288  40.054   9.450
 4297POPC   PO415648  32.243  40.018   9.150
 4297POPC   GL115649  32.224  40.055   8.850
 4297POPC   GL215650  32.145  40.043   8.850
 4297POPC   C1A15651  32.221  39.974   8.550
 4297POPC   D2A15652  32.278  40.017   8.250
 4297POPC   C3A15653  32.274  40.039   7.950
 4297POPC   C4A15654  32.279  39.975   7.650
 4297POPC   C1B15655  31.990  40.073   8.550
 4297POPC   C2B15656  31.962  40.049   8.250
 4297POPC   C3B15657  31.992  40.056   7.950
 4297POPC   C4B15658  31.992  40.050   7.650
 4298POPC   NC315659  30.675  29.970   9.450
 4298POPC   PO415660  30.682  29.876   9.150
 4298POPC   GL115661  30.657  29.881   8.850
 4298POPC   GL215662  30.648  29.767   8.850
 4298POPC   C1A15663  30.729  29.923   8.550
 4298POPC   D2A15664  30.667  29.874   8.250
 4298POPC   C3A15665  30.730  29.938   7.950
 4298POPC   C4A15666  30.746  29.883   7.650
 4298POPC   C1B15667  30.585  29.710   8.550
 4298POPC   C2B15668  30.608  29.667   8.250
 4298POPC   C3B15669  30.548  29.662   7.950
 4298POPC   C4B15670  30.632  29.699   7.650
 4299POPC   NC315671  34.530  15.906   9.450
 4299POPC   PO415672  34.607  15.986   9.150
 4299POPC   GL115673  34.557  15.948   8.850
 4299POPC   GL215674  34.587  15.799   8.850
 4299POPC   C1A15675  34.564  15.915   8.550
 4299POPC   D2A15676  34.563  15.927   8.250
 4299POPC   C3A15677  34.550  15.957   7.950
 4299POPC   C4A15678  34.614  15.912   7.650
 4299POPC   C1B15679  34.630  15.700   8.550
 4299POPC   C2B15680  34.686  15.735   8.250
 4299POPC   C3B15681  34.603  15.723   7.950
 4299POPC   C4B15682  34.671  15.720   7.650
 4300POPC   NC315683  35.346  28.323   9.450
 4300POPC   PO415684  35.338  28.387   9.150
 4300POPC   GL115685  35.341  28.334   8.850
 4300POPC   GL215686  35.463  28.352   8.850
 4300POPC   C1A15687  35.346  28.394   8.550
 4300POPC   D2A15688  35.326  28.361   8.250
 4300POPC   C3A15689  35.365  28.334   7.950
 4300POPC   C4A15690  35.341  28.329   7.650
 4300POPC   C1B15691  35.593  28.297   8.550
 4300POPC   C2B15692  35.561  28.275   8.250
 4300POPC   C3B15693  35.567  28.244   7.950
 4300POPC   C4B15694  35.531  28.249   7.650
 4301POPC   NC315695  36.939  29.183   9.450
 4301POPC   PO415696  36.905  29.096   9.150
 4301POPC   GL115697  36.869  29.171   8.850
 4301POPC   GL215698  36.781  29.245   8.850
 4301POPC   C1A15699  36.876  29.110   8.550
 4301POPC   D2A15700  36.886  29.153   8.250
 4301POPC   C3A15701  36.854  29.108   7.950
 4301POPC   C4A15702  36.887  29.186   7.650
 4301POPC   C1B15703  36.631  29.259   8.550
 4301POPC   C2B15704  36.683  29.257   8.250
 4301POPC   C3B15705  36.676  29.283   7.950
 4301POPC   C4B15706  36.710  29.278   7.650
 4302POPC   NC315707  35.315  35.398   9.450
 4302POPC   PO415708  35.347  35.310   9.150
 4302POPC   GL115709  35.363  35.370   8.850
 4302POPC   GL215710  35.518  35.418   8.850
 4302POPC   C1A15711  35.399  35.385   8.550
 4302POPC   D2A15712  35.321  35.361   8.250
 4302POPC   C3A15713  35.391  35.359   7.950
 4302POPC   C4A15714  35.360  35.394   7.650
 4302POPC   C1B15715  35.645  35.365   8.550
 4302POPC   C2B15716  35.625  35.410   8.250
 4302POPC   C3B15717  35.582  35.378   7.950
 4302POPC   C4B15718  35.621  35.456   7.650
 4303POPC   NC315719  29.171  38.498   9.450
 4303POPC   PO415720  29.113  38.466   9.150
 4303POPC   GL115721  29.160  38.441   8.850
 4303POPC   GL215722  29.110  38.543   8.850
 4303POPC   C1A15723  29.160  38.455   8.550
 4303POPC   D2A15724  29.105  38.437   8.250
 4303POPC   C3A15725  29.110  38.426   7.950
 4303POPC   C4A15726  29.121  38.411   7.650
 4303POPC   C1B15727  28.956  38.620   8.550
 4303POPC   C2B15728  28.982  38.693   8.250
 4303POPC   C3B15729  28.975  38.665   7.950
 4303POPC   C4B15730  29.016  38.669   7.650
 4304POPC   NC315731  29.182  12.896   9.450
 4304POPC   PO415732  29.161  12.870   9.150
 4304POPC   GL115733  29.101  12.880   8.850
 4304POPC   GL215734  29.111  12.979   8.850
 4304POPC   C1A15735  29.123  12.836   8.550
 4304POPC   D2A15736  29.151  12.837   8.250
 4304POPC   C3A15737  29.161  12.860   7.950
 4304POPC   C4A15738  29.106  12.855   7.650
 4304POPC   C1B15739  29.023  13.044   8.550
 4304POPC   C2B15740  29.013  13.035   8.250
 4304POPC   C3B15741  29.002  13.062   7.950
 4304POPC   C4B15742  29.008  13.057   7.650
 4305POPC   NC315743  12.087  31.461   9.450
 4305POPC   PO415744  12.050  31.489   9.150
 4305POPC   GL115745  12.041  31.423   8.850
 4305POPC   GL215746  12.138  31.566   8.850
 4305POPC   C1A15747  12.039  31.439   8.550
 4305POPC   D2A15748  12.098  31.494   8.250
 4305POPC   C3A15749  12.079  31.484   7.950
 4305POPC   C4A15750  12.027  31.492   7.650
 4305POPC   C1B15751  12.183  31.673   8.550
 4305POPC   C2B15752  12.150  31.709   8.250
 4305POPC   C3B15753  12.200  31.709   7.950
 4305POPC   C4B15754  12.144  31.691   7.650
 4306POPC   NC315755  26.865  40.043   9.450
 4306POPC   PO415756  26.859  40.032   9.150
 4306POPC   GL115757  26.847  40.019   8.850
 4306POPC   GL215758  26.857  39.927   8.850
 4306POPC   C1A15759  26.784  39.999   8.550
 4306POPC   D2A15760  26.812  39.965   8.250
 4306POPC   C3A15761  26.843  39.976   7.950
 4306POPC   C4A15762  26.784  40.016   7.650
 4306POPC   C1B15763  26.945  39.748   8.550
 4306POPC   C2B15764  26.880  39.750   8.250
 4306POPC   C3B15765  26.906  39.766   7.950
 4306POPC   C4B15766  26.867  39.731   7.650
 4307POPC   NC315767  25.297  19.812   9.450
 4307POPC   PO415768  25.235  19.868   9.150
 4307POPC   GL115769  25.224  19.846   8.850
 4307POPC   GL215770  25.406  19.795   8.850
 4307POPC   C1A15771  25.311  19.831   8.550
 4307POPC   D2A15772  25.225  19.855   8.250
 4307POPC   C3A15773  25.288  19.818   7.950
 4307POPC   C4A15774  25.275  19.824   7.650
 4307POPC   C1B15775  25.545  19.801   8.550
 4307POPC   C2B15776  25.527  19.740   8.250
 4307POPC   C3B15777  25.543  19.781   7.950
 4307POPC   C4B15778  25.506  19.814   7.650
 4308POPC   NC315779  29.926  39.264   9.450
 4308POPC   PO415780  29.928  39.278   9.150
 4308POPC   GL115781  29.903  39.233   8.850
 4308POPC   GL215782  30.008  39.285   8.850
 4308POPC   C1A15783  29.940  39.208   8.550
 4308POPC   D2A15784  29.893  39.255   8.250
 4308POPC   C3A15785  29.929  39.216   7.950
 4308POPC   C4A15786  29.934  39.253   7.650
 4308POPC   C1B15787  30.179  39.343   8.550
 4308POPC   C2B15788  30.121  39.327   8.250
 4308POPC   C3B15789  30.107  39.370   7.950
 4308POPC   C4B15790  30.174  39.334   7.650
 4309POPC   NC315791  10.571  13.671   9.450
 4309POPC   PO415792  10.509  13.591   9.150
 4309POPC   GL115793  10.494  13.651   8.850
 4309POPC   GL215794  10.573  13.769   8.850
 4309POPC   C1A15795  10.552  13.599   8.550
 4309POPC   D2A15796  10.494  13.599   8.250
 4309POPC   C3A15797  10.514  13.676   7.950
 4309POPC   C4A15798  10.506  13.605   7.650
 4309POPC   C1B15799  10.624  13.852   8.550
 4309POPC   C2B15800  10.587  13.893   8.250
 4309POPC   C3B15801  10.633  13.812   7.950
 4309POPC   C4B15802  10.609  13.876   7.650
 4310POPC   NC315803  25.276   1.992   9.450
 4310POPC   PO415804  25.256   1.997   9.150
 4310POPC   GL115805  25.241   1.992   8.850
 4310POPC   GL215806  25.273   1.888   8.850
 4310POPC   C1A15807  25.229   2.015   8.550
 4310POPC   D2A15808  25.282   2.031   8.250
 4310POPC   C3A15809  25.229   2.032   7.950
 4310POPC   C4A15810  25.258   1.998   7.650
 4310POPC   C1B15811  25.320   1.775   8.550
 4310POPC   C2B15812  25.327   1.773   8.250
 4310POPC   C3B15813  25.287   1.719   7.950
 4310POPC   C4B15814  25.307   1.781   7.650
 4311POPC   NC315815  39.267   0.464   9.450
 4311POPC   PO415816  39.262   0.392   9.150
 4311POPC   GL115817  39.239   0.403   8.850
 4311POPC   GL215818  39.143   0.521   8.850
 4311POPC   C1A15819  39.192   0.405   8.550
 4311POPC   D2A15820  39.281   0.413   8.250
 4311POPC   C3A15821  39.277   0.485   7.950
 4311POPC   C4A15822  39.222   0.425   7.650
 4311POPC   C1B15823  39.140   0.610   8.550
 4311POPC   C2B15824  39.118   0.650   8.250
 4311POPC   C3B15825  39.078   0.626   7.950
 4311POPC   C4B15826  39.125   0.646   7.650
 4312POPC   NC315827   3.520   0.415   9.450
 4312POPC   PO415828   3.502   0.471   9.150
 4312POPC   GL115829   3.543   0.470   8.850
 4312POPC   GL215830   3.403   0.392   8.850
 4312POPC   C1A15831   3.586   0.465   8.550
 4312POPC   D2A15832   3.511   0.465   8.250
 4312POPC   C3A15833   3.567   0.400   7.950
 4312POPC   C4A15834   3.565   0.451   7.650
 4312POPC   C1B15835   3.322   0.386   8.550
 4312POPC   C2B15836   3.324   0.348   8.250
 4312POPC   C3B15837   3.292   0.430   7.950
 4312POPC   C4B15838   3.256   0.382   7.650
 4313POPC   NC315839  17.488   6.607   9.450
 4313POPC   PO415840  17.470   6.630   9.150
 4313POPC   GL115841  17.472   6.603   8.850
 4313POPC   GL215842  17.598   6.638   8.850
 4313POPC   C1A15843  17.483   6.604   8.550
 4313POPC   D2A15844  17.511   6.614   8.250
 4313POPC   C3A15845  17.480   6.602   7.950
 4313POPC   C4A15846  17.532   6.602   7.650
 4313POPC   C1B15847  17.767   6.573   8.550
 4313POPC   C2B15848  17.756   6.579   8.250
 4313POPC   C3B15849  17.723   6.606   7.950
 4313POPC   C4B15850  17.794   6.555   7.650
 4314POPC   NC315851  22.986  33.031   9.450
 4314POPC   PO415852  22.983  33.056   9.150
 4314POPC   GL115853  22.967  33.001   8.850
 4314POPC   GL215854  22.887  32.888   8.850
 4314POPC   C1A15855  22.906  32.986   8.550
 4314POPC   D2A15856  22.945  32.992   8.250
 4314POPC   C3A15857  22.907  33.021   7.950
 4314POPC   C4A15858  22.932  33.051   7.650
 4314POPC   C1B15859  22.862  32.831   8.550
 4314POPC   C2B15860  22.795  32.840   8.250
 4314POPC   C3B15861  22.824  32.757   7.950
 4314POPC   C4B15862  22.853  32.772   7.650
 4315POPC   NC315863   4.356  23.719   9.450
 4315POPC   PO415864   4.321  23.760   9.150
 4315POPC   GL115865   4.293  23.741   8.850
 4315POPC   GL215866   4.291  23.612   8.850
 4315POPC   C1A15867   4.350  23.739   8.550
 4315POPC   D2A15868   4.291  23.742   8.250
 4315POPC   C3A15869   4.289  23.702   7.950
 4315POPC   C4A15870   4.345  23.693   7.650
 4315POPC   C1B15871   4.226  23.467   8.550
 4315POPC   C2B15872   4.168  23.451   8.250
 4315POPC   C3B15873   4.226  23.452   7.950
 4315POPC   C4B15874   4.210  23.496   7.650
 4316POPC   NC315875  31.503   6.667   9.450
 4316POPC   PO415876  31.452   6.689   9.150
 4316POPC   GL115877  31.505   6.638   8.850
 4316POPC   GL215878  31.466   6.799   8.850
 4316POPC   C1A15879  31.464   6.597   8.550
 4316POPC   D2A15880  31.469   6.623   8.250
 4316POPC   C3A15881  31.500   6.648   7.950
 4316POPC   C4A15882  31.493   6.619   7.650
 4316POPC   C1B15883  31.504   6.846   8.550
 4316POPC   C2B15884  31.480   6.934   8.250
 4316POPC   C3B15885  31.519   6.928   7.950
 4316POPC   C4B15886  31.449   6.943   7.650
 4317POPC   NC315887  44.642  40.784   9.450
 4317POPC   PO415888  44.673  40.741   9.150
 4317POPC   GL115889  44.660  40.809   8.850
 4317POPC   GL215890  44.551  40.691   8.850
 4317POPC   C1A15891  44.650  40.777   8.550
 4317POPC   D2A15892  44.633  40.739   8.250
 4317POPC   C3A15893  44.695  40.795   7.950
 4317POPC   C4A15894  44.657  40.787   7.650
 4317POPC   C1B15895  44.441  40.669   8.550
 4317POPC   C2B15896  44.456  40.659   8.250
 4317POPC   C3B15897  44.453  40.704   7.950
 4317POPC   C4B15898  44.459  40.700   7.650
 4318POPC   NC315899  20.592  22.934   9.450
 4318POPC   PO415900  20.619  22.931   9.150
 4318POPC   GL115901  20.623  22.968   8.850
 4318POPC   GL215902  20.522  23.042   8.850
 4318POPC   C1A15903  20.620  22.911   8.550
 4318POPC   D2A15904  20.567  22.971   8.250
 4318POPC   C3A15905  20.593  22.912   7.950
 4318POPC   C4A15906  20.629  22.962   7.650
 4318POPC   C1B15907  20.476  23.133   8.550
 4318POPC   C2B15908  20.412  23.119   8.250
 4318POPC   C3B15909  20.423  23.156   7.950
 4318POPC   C4B15910  20.425  23.118   7.650
 4319POPC   NC315911  15.221  25.262   9.450
 4319POPC   PO415912  15.197  25.275   9.150
 4319POPC   GL115913  15.216  25.250   8.850
 4319POPC   GL215914  15.095  25.231   8.850
 4319POPC   C1A15915  15.177  25.278   8.550
 4319POPC   D2A15916  15.142  25.231   8.250
 4319POPC   C3A15917  15.173  25.244   7.950
 4319POPC   C4A15918  15.169  25.310   7.650
 4319POPC   C1B15919  14.961  25.231   8.550
 4319POPC   C2B15920  14.885  25.277   8.250
 4319POPC   C3B15921  14.916  25.268   7.950
 4319POPC   C4B15922  14.916  25.265   7.650
 4320POPC   NC315923  27.545   4.343   9.450
 4320POPC   PO415924  27.544   4.329   9.150
 4320POPC   GL115925  27.594   4.335   8.850
 4320POPC   GL215926  27.723   4.208   8.850
 4320POPC   C1A15927  27.565   4.315   8.550
 4320POPC   D2A15928  27.572   4.332   8.250
 4320POPC   C3A15929  27.608   4.346   7.950
 4320POPC   C4A15930  27.629   4.329   7.650
 4320POPC   C1B15931  27.830   4.205   8.550
 4320POPC   C2B15932  27.763   4.154   8.250
 4320POPC   C3B15933  27.817   4.206   7.950
 4320POPC   C4B15934  27.798   4.160   7.650
 4321POPC   NC315935  29.948  10.502   9.450
 4321POPC   PO415936  29.894  10.552   9.150
 4321POPC   GL115937  29.891  10.513   8.850
 4321POPC   GL215938  29.826  10.546   8.850
 4321POPC   C1A15939  29.945  10.573   8.550
 4321POPC   D2A15940  29.914  10.571   8.250
 4321POPC   C3A15941  29.881  10.524   7.950
 4321POPC   C4A15942  29.922  10.544   7.650
 4321POPC   C1B15943  29.654  10.581   8.550
 4321POPC   C2B15944  29.709  10.607   8.250
 4321POPC   C3B15945  29.716  10.606   7.950
 4321POPC   C4B15946  29.719  10.585   7.650
 4322POPC   NC315947   0.433  23.748   9.450
 4322POPC   PO415948   0.473  23.683   9.150
 4322POPC   GL115949   0.478  23.677   8.850
 4322POPC   GL215950   0.277  23.686   8.850
 4322POPC   C1A15951   0.475  23.754   8.550
 4322POPC   D2A15952   0.406  23.738   8.250
 4322POPC   C3A15953   0.390  23.734   7.950
 4322POPC   C4A15954   0.483  23.742   7.650
 4322POPC   C1B15955   0.179  23.645   8.550
 4322POPC   C2B15956   0.162  23.608   8.250
 4322POPC   C3B15957   0.159  23.628   7.950
 4322POPC   C4B15958   0.177  23.603   7.650
 4323POPC   NC315959  12.838  43.866   9.450
 4323POPC   PO415960  12.839  43.865   9.150
 4323POPC   GL115961  12.889  43.848   8.850
 4323POPC   GL215962  12.939  43.890   8.850
 4323POPC   C1A15963  12.833  43.852   8.550
 4323POPC   D2A15964  12.812  43.913   8.250
 4323POPC   C3A15965  12.892  43.929   7.950
 4323POPC   C4A15966  12.812  43.887   7.650
 4323POPC   C1B15967  13.108  43.785   8.550
 4323POPC   C2B15968  13.115  43.807   8.250
 4323POPC   C3B15969  13.105  43.820   7.950
 4323POPC   C4B15970  13.066  43.839   7.650
 4324POPC   NC315971  35.311  14.426   9.450
 4324POPC   PO415972  35.345  14.369   9.150
 4324POPC   GL115973  35.363  14.411   8.850
 4324POPC   GL215974  35.474  14.458   8.850
 4324POPC   C1A15975  35.353  14.387   8.550
 4324POPC   D2A15976  35.385  14.439   8.250
 4324POPC   C3A15977  35.310  14.367   7.950
 4324POPC   C4A15978  35.313  14.360   7.650
 4324POPC   C1B15979  35.560  14.557   8.550
 4324POPC   C2B15980  35.548  14.594   8.250
 4324POPC   C3B15981  35.484  14.573   7.950
 4324POPC   C4B15982  35.572  14.566   7.650
 4325POPC   NC315983   4.328  22.903   9.450
 4325POPC   PO415984   4.354  22.983   9.150
 4325POPC   GL115985   4.356  22.958   8.850
 4325POPC   GL215986   4.389  22.790   8.850
 4325POPC   C1A15987   4.321  22.921   8.550
 4325POPC   D2A15988   4.312  22.889   8.250
 4325POPC   C3A15989   4.357  22.894   7.950
 4325POPC   C4A15990   4.354  22.917   7.650
 4325POPC   C1B15991   4.385  22.718   8.550
 4325POPC   C2B15992   4.407  22.733   8.250
 4325POPC   C3B15993   4.371  22.649   7.950
 4325POPC   C4B15994   4.331  22.677   7.650
 4326POPC   NC315995  10.558  21.407   9.450
 4326POPC   PO415996  10.568  21.361   9.150
 4326POPC   GL115997  10.555  21.413   8.850
 4326POPC   GL215998  10.451  21.316   8.850
 4326POPC   C1A15999  10.546  21.350   8.550
 4326POPC   D2A16000  10.482  21.402   8.250
 4326POPC   C3A16001  10.560  21.433   7.950
 4326POPC   C4A16002  10.538  21.337   7.650
 4326POPC   C1B16003  10.377  21.136   8.550
 4326POPC   C2B16004  10.368  21.163   8.250
 4326POPC   C3B16005  10.398  21.117   7.950
 4326POPC   C4B16006  10.368  21.206   7.650
 4327POPC   NC316007  12.814   5.918   9.450
 4327POPC   PO416008  12.807   5.854   9.150
 4327POPC   GL116009  12.846   5.900   8.850
 4327POPC   GL216010  12.873   6.034   8.850
 4327POPC   C1A16011  12.869   5.904   8.550
 4327POPC   D2A16012  12.810   5.834   8.250
 4327POPC   C3A16013  12.819   5.892   7.950
 4327POPC   C4A16014  12.811   5.881   7.650
 4327POPC   C1B16015  12.944   6.066   8.550
 4327POPC   C2B16016  12.910   6.115   8.250
 4327POPC   C3B16017  12.890   6.155   7.950
 4327POPC   C4B16018  12.875   6.115   7.650
 4328POPC   NC316019  35.373  44.691   9.450
 4328POPC   PO416020  35.316  44.695   9.150
 4328POPC   GL116021  35.388  44.656   8.850
 4328POPC   GL216022  35.220  44.587   8.850
 4328POPC   C1A16023  35.336  44.699   8.550
 4328POPC   D2A16024  35.371  44.697   8.250
 4328POPC   C3A16025  35.352  44.703   7.950
 4328POPC   C4A16026  35.333  44.641   7.650
 4328POPC   C1B16027  35.202  44.510   8.550
 4328POPC   C2B16028  35.139  44.495   8.250
 4328POPC   C3B16029  35.147  44.465   7.950
 4328POPC   C4B16030  35.165  44.440   7.650
 4329POPC   NC316031   0.468   0.468   9.450
 4329POPC   PO416032   0.441   0.474   9.150
 4329POPC   GL116033   0.401   0.454   8.850
 4329POPC   GL216034   0.588   0.372   8.850
 4329POPC   C1A16035   0.442   0.416   8.550
 4329POPC   D2A16036   0.437   0.439   8.250
 4329POPC   C3A16037   0.485   0.404   7.950
 4329POPC   C4A16038   0.434   0.465   7.650
 4329POPC   C1B16039   0.651   0.358   8.550
 4329POPC   C2B16040   0.665   0.363   8.250
 4329POPC   C3B16041   0.720   0.347   7.950
 4329POPC   C4B16042   0.710   0.358   7.650
 4330POPC   NC316043  33.796  40.830   9.450
 4330POPC   PO416044  33.824  40.787   9.150
 4330POPC   GL116045  33.828  40.743   8.850
 4330POPC   GL216046  33.913  40.774   8.850
 4330POPC   C1A16047  33.762  40.813   8.550
 4330POPC   D2A16048  33.767  40.832   8.250
 4330POPC   C3A16049  33.800  40.741   7.950
 4330POPC   C4A16050  33.823  40.776   7.650
 4330POPC   C1B16051  34.018  40.907   8.550
 4330POPC   C2B16052  34.064  40.891   8.250
 4330POPC   C3B16053  34.016  40.836   7.950
 4330POPC   C4B16054  34.009  40.906   7.650
 4331POPC   NC316055   8.241  19.883   9.450
 4331POPC   PO416056   8.180  19.832   9.150
 4331POPC   GL116057   8.235  19.790   8.850
 4331POPC   GL216058   8.041  19.922   8.850
 4331POPC   C1A16059   8.165  19.822   8.550
 4331POPC   D2A16060   8.171  19.810   8.250
 4331POPC   C3A16061   8.223  19.846   7.950
 4331POPC   C4A16062   8.188  19.858   7.650
 4331POPC   C1B16063   7.992  19.931   8.550
 4331POPC   C2B16064   8.002  19.987   8.250
 4331POPC   C3B16065   8.005  19.942   7.950
 4331POPC   C4B16066   7.939  19.933   7.650
 4332POPC   NC316067   2.800   4.324   9.450
 4332POPC   PO416068   2.793   4.359   9.150
 4332POPC   GL116069   2.762   4.321   8.850
 4332POPC   GL216070   2.706   4.422   8.850
 4332POPC   C1A16071   2.753   4.297   8.550
 4332POPC   D2A16072   2.754   4.294   8.250
 4332POPC   C3A16073   2.779   4.306   7.950
 4332POPC   C4A16074   2.763   4.324   7.650
 4332POPC   C1B16075   2.710   4.582   8.550
 4332POPC   C2B16076   2.663   4.602   8.250
 4332POPC   C3B16077   2.716   4.550   7.950
 4332POPC   C4B16078   2.696   4.600   7.650
 4333POPC   NC316079  36.949  34.548   9.450
 4333POPC   PO416080  36.917  34.621   9.150
 4333POPC   GL116081  36.882  34.615   8.850
 4333POPC   GL216082  36.794  34.607   8.850
 4333POPC   C1A16083  36.885  34.619   8.550
 4333POPC   D2A16084  36.934  34.611   8.250
 4333POPC   C3A16085  36.927  34.549   7.950
 4333POPC   C4A16086  36.934  34.559   7.650
 4333POPC   C1B16087  36.626  34.682   8.550
 4333POPC   C2B16088  36.646  34.634   8.250
 4333POPC   C3B16089  36.663  34.667   7.950
 4333POPC   C4B16090  36.672  34.626   7.650
 4334POPC   NC316091  39.978  38.478   9.450
 4334POPC   PO416092  39.989  38.439   9.150
 4334POPC   GL116093  40.018  38.462   8.850
 4334POPC   GL216094  40.147  38.546   8.850
 4334POPC   C1A16095  40.014  38.431   8.550
 4334POPC   D2A16096  40.014  38.456   8.250
 4334POPC   C3A16097  40.053  38.424   7.950
 4334POPC   C4A16098  40.027  38.428   7.650
 4334POPC   C1B16099  40.151  38.646   8.550
 4334POPC   C2B16100  40.153  38.594   8.250
 4334POPC   C3B16101  40.194  38.656   7.950
 4334POPC   C4B16102  40.219  38.585   7.650
 4335POPC   NC316103  16.752   5.138   9.450
 4335POPC   PO416104  16.755   5.073   9.150
 4335POPC   GL116105  16.685   5.096   8.850
 4335POPC   GL216106  16.891   5.100   8.850
 4335POPC   C1A16107  16.685   5.071   8.550
 4335POPC   D2A16108  16.683   5.111   8.250
 4335POPC   C3A16109  16.723   5.108   7.950
 4335POPC   C4A16110  16.730   5.092   7.650
 4335POPC   C1B16111  16.936   5.056   8.550
 4335POPC   C2B16112  16.986   5.043   8.250
 4335POPC   C3B16113  16.949   4.969   7.950
 4335POPC   C4B16114  17.011   4.990   7.650
 4336POPC   NC316115  15.211   8.148   9.450
 4336POPC   PO416116  15.192   8.183   9.150
 4336POPC   GL116117  15.191   8.167   8.850
 4336POPC   GL216118  15.248   8.297   8.850
 4336POPC   C1A16119  15.135   8.225   8.550
 4336POPC   D2A16120  15.183   8.233   8.250
 4336POPC   C3A16121  15.226   8.220   7.950
 4336POPC   C4A16122  15.184   8.226   7.650
 4336POPC   C1B16123  15.336   8.329   8.550
 4336POPC   C2B16124  15.321   8.328   8.250
 4336POPC   C3B16125  15.366   8.403   7.950
 4336POPC   C4B16126  15.338   8.373   7.650
 4337POPC   NC316127  38.488  27.597   9.450
 4337POPC   PO416128  38.432  27.565   9.150
 4337POPC   GL116129  38.429  27.601   8.850
 4337POPC   GL216130  38.556  27.599   8.850
 4337POPC   C1A16131  38.489  27.614   8.550
 4337POPC   D2A16132  38.409  27.597   8.250
 4337POPC   C3A16133  38.456  27.627   7.950
 4337POPC   C4A16134  38.424  27.640   7.650
 4337POPC   C1B16135  38.677  27.638   8.550
 4337POPC   C2B16136  38.708  27.627   8.250
 4337POPC   C3B16137  38.658  27.583   7.950
 4337POPC   C4B16138  38.699  27.635   7.650
 4338POPC   NC316139  26.831  37.695   9.450
 4338POPC   PO416140  26.816  37.729   9.150
 4338POPC   GL116141  26.770  37.698   8.850
 4338POPC   GL216142  26.653  37.624   8.850
 4338POPC   C1A16143  26.772  37.637   8.550
 4338POPC   D2A16144  26.787  37.699   8.250
 4338POPC   C3A16145  26.781  37.714   7.950
 4338POPC   C4A16146  26.770  37.634   7.650
 4338POPC   C1B16147  26.595  37.636   8.550
 4338POPC   C2B16148  26.535  37.589   8.250
 4338POPC   C3B16149  26.570  37.580   7.950
 4338POPC   C4B16150  26.577  37.601   7.650
 4339POPC   NC316151  31.430   4.312   9.450
 4339POPC   PO416152  31.446   4.301   9.150
 4339POPC   GL116153  31.498   4.311   8.850
 4339POPC   GL216154  31.356   4.216   8.850
 4339POPC   C1A16155  31.427   4.275   8.550
 4339POPC   D2A16156  31.424   4.312   8.250
 4339POPC   C3A16157  31.463   4.340   7.950
 4339POPC   C4A16158  31.444   4.343   7.650
 4339POPC   C1B16159  31.273   4.172   8.550
 4339POPC   C2B16160  31.291   4.162   8.250
 4339POPC   C3B16161  31.306   4.223   7.950
 4339POPC   C4B16162  31.290   4.231   7.650
 4340POPC   NC316163   0.442  14.378   9.450
 4340POPC   PO416164   0.390  14.434   9.150
 4340POPC   GL116165   0.401  14.366   8.850
 4340POPC   GL216166   0.366  14.341   8.850
 4340POPC   C1A16167   0.465  14.452   8.550
 4340POPC   D2A16168   0.449  14.451   8.250
 4340POPC   C3A16169   0.409  14.400   7.950
 4340POPC   C4A16170   0.484  14.384   7.650
 4340POPC   C1B16171   0.217  14.288   8.550
 4340POPC   C2B16172   0.163  14.317   8.250
 4340POPC   C3B16173   0.194  14.304   7.950
 4340POPC   C4B16174   0.236  14.329   7.650
 4341POPC   NC316175   1.240   5.140   9.450
 4341POPC   PO416176   1.260   5.140   9.150
 4341POPC   GL116177   1.210   5.046   8.850
 4341POPC   GL216178   1.110   5.076   8.850
 4341POPC   C1A16179   1.175   5.057   8.550
 4341POPC   D2A16180   1.220   5.091   8.250
 4341POPC   C3A16181   1.249   5.053   7.950
 4341POPC   C4A16182   1.262   5.130   7.650
 4341POPC   C1B16183   0.969   5.139   8.550
 4341POPC   C2B16184   0.965   5.118   8.250
 4341POPC   C3B16185   1.000   5.109   7.950
 4341POPC   C4B16186   0.973   5.066   7.650
 4342POPC   NC316187   0.437  13.599   9.450
 4342POPC   PO416188   0.391  13.655   9.150
 4342POPC   GL116189   0.467  13.646   8.850
 4342POPC   GL216190   0.348  13.756   8.850
 4342POPC   C1A16191   0.487  13.670   8.550
 4342POPC   D2A16192   0.485  13.638   8.250
 4342POPC   C3A16193   0.417  13.655   7.950
 4342POPC   C4A16194   0.402  13.587   7.650
 4342POPC   C1B16195   0.233  13.827   8.550
 4342POPC   C2B16196   0.275  13.762   8.250
 4342POPC   C3B16197   0.304  13.841   7.950
 4342POPC   C4B16198   0.225  13.803   7.650
 4343POPC   NC316199   5.097  23.712   9.450
 4343POPC   PO416200   5.045  23.732   9.150
 4343POPC   GL116201   5.077  23.759   8.850
 4343POPC   GL216202   5.064  23.850   8.850
 4343POPC   C1A16203   5.109  23.722   8.550
 4343POPC   D2A16204   5.075  23.750   8.250
 4343POPC   C3A16205   5.108  23.681   7.950
 4343POPC   C4A16206   5.108  23.721   7.650
 4343POPC   C1B16207   4.937  23.927   8.550
 4343POPC   C2B16208   4.951  23.958   8.250
 4343POPC   C3B16209   5.000  23.977   7.950
 4343POPC   C4B16210   4.998  23.976   7.650
 4344POPC   NC316211  26.041  33.763   9.450
 4344POPC   PO416212  26.022  33.782   9.150
 4344POPC   GL116213  26.047  33.846   8.850
 4344POPC   GL216214  26.027  33.678   8.850
 4344POPC   C1A16215  26.058  33.831   8.550
 4344POPC   D2A16216  26.054  33.815   8.250
 4344POPC   C3A16217  26.079  33.831   7.950
 4344POPC   C4A16218  26.074  33.801   7.650
 4344POPC   C1B16219  26.088  33.543   8.550
 4344POPC   C2B16220  26.108  33.510   8.250
 4344POPC   C3B16221  26.062  33.548   7.950
 4344POPC   C4B16222  26.074  33.566   7.650
 4345POPC   NC316223   8.948  39.975   9.450
 4345POPC   PO416224   8.932  40.034   9.150
 4345POPC   GL116225   8.981  39.991   8.850
 4345POPC   GL216226   9.043  40.112   8.850
 4345POPC   C1A16227   9.013  40.037   8.550
 4345POPC   D2A16228   9.015  40.028   8.250
 4345POPC   C3A16229   8.936  40.016   7.950
 4345POPC   C4A16230   8.944  40.008   7.650
 4345POPC   C1B16231   9.086  40.246   8.550
 4345POPC   C2B16232   9.056  40.202   8.250
 4345POPC   C3B16233   9.067  40.252   7.950
 4345POPC   C4B16234   9.070  40.261   7.650
 4346POPC   NC316235  27.553  43.930   9.450
 4346POPC   PO416236  27.609  43.848   9.150
 4346POPC   GL116237  27.562  43.900   8.850
 4346POPC   GL216238  27.687  43.849   8.850
 4346POPC   C1A16239  27.546  43.909   8.550
 4346POPC   D2A16240  27.631  43.882   8.250
 4346POPC   C3A16241  27.567  43.866   7.950
 4346POPC   C4A16242  27.631  43.897   7.650
 4346POPC   C1B16243  27.813  43.759   8.550
 4346POPC   C2B16244  27.760  43.707   8.250
 4346POPC   C3B16245  27.847  43.722   7.950
 4346POPC   C4B16246  27.786  43.733   7.650
 4347POPC   NC316247   5.905   0.433   9.450
 4347POPC   PO416248   5.834   0.486   9.150
 4347POPC   GL116249   5.829   0.440   8.850
 4347POPC   GL216250   5.802   0.286   8.850
 4347POPC   C1A16251   5.835   0.476   8.550
 4347POPC   D2A16252   5.893   0.476   8.250
 4347POPC   C3A16253   5.879   0.442   7.950
 4347POPC   C4A16254   5.909   0.434   7.650
 4347POPC   C1B16255   5.706   0.274   8.550
 4347POPC   C2B16256   5.724   0.182   8.250
 4347POPC   C3B16257   5.744   0.248   7.950
 4347POPC   C4B16258   5.731   0.212   7.650
 4348POPC   NC316259  22.977  26.786   9.450
 4348POPC   PO416260  22.956  26.816   9.150
 4348POPC   GL116261  22.924  26.798   8.850
 4348POPC   GL216262  23.000  26.731   8.850
 4348POPC   C1A16263  22.961  26.828   8.550
 4348POPC   D2A16264  22.898  26.864   8.250
 4348POPC   C3A16265  22.927  26.774   7.950
 4348POPC   C4A16266  22.947  26.831   7.650
 4348POPC   C1B16267  23.011  26.629   8.550
 4348POPC   C2B16268  23.057  26.630   8.250
 4348POPC   C3B16269  23.007  26.634   7.950
 4348POPC   C4B16270  22.990  26.623   7.650
 4349POPC   NC316271  31.495  31.437   9.450
 4349POPC   PO416272  31.476  31.484   9.150
 4349POPC   GL116273  31.484  31.444   8.850
 4349POPC   GL216274  31.382  31.521   8.850
 4349POPC   C1A16275  31.494  31.506   8.550
 4349POPC   D2A16276  31.489  31.423   8.250
 4349POPC   C3A16277  31.431  31.468   7.950
 4349POPC   C4A16278  31.422  31.425   7.650
 4349POPC   C1B16279  31.265  31.462   8.550
 4349POPC   C2B16280  31.201  31.485   8.250
 4349POPC   C3B16281  31.253  31.478   7.950
 4349POPC   C4B16282  31.218  31.483   7.650
 4350POPC   NC316283  12.032  12.055   9.450
 4350POPC   PO416284  12.091  12.034   9.150
 4350POPC   GL116285  12.034  12.063   8.850
 4350POPC   GL216286  12.014  12.007   8.850
 4350POPC   C1A16287  12.034  12.033   8.550
 4350POPC   D2A16288  12.058  12.101   8.250
 4350POPC   C3A16289  12.061  12.074   7.950
 4350POPC   C4A16290  12.036  12.029   7.650
 4350POPC   C1B16291  11.904  11.908   8.550
 4350POPC   C2B16292  11.897  11.847   8.250
 4350POPC   C3B16293  11.921  11.869   7.950
 4350POPC   C4B16294  11.900  11.857   7.650
 4351POPC   NC316295  34.583   8.963   9.450
 4351POPC   PO416296  34.540   8.971   9.150
 4351POPC   GL116297  34.622   8.966   8.850
 4351POPC   GL216298  34.586   9.065   8.850
 4351POPC   C1A16299  34.626   8.971   8.550
 4351POPC   D2A16300  34.597   8.972   8.250
 4351POPC   C3A16301  34.552   9.011   7.950
 4351POPC   C4A16302  34.535   9.011   7.650
 4351POPC   C1B16303  34.607   9.237   8.550
 4351POPC   C2B16304  34.636   9.258   8.250
 4351POPC   C3B16305  34.635   9.237   7.950
 4351POPC   C4B16306  34.576   9.195   7.650
 4352POPC   NC316307  29.909  12.823   9.450
 4352POPC   PO416308  29.906  12.898   9.150
 4352POPC   GL116309  29.885  12.826   8.850
 4352POPC   GL216310  29.775  12.847   8.850
 4352POPC   C1A16311  29.893  12.817   8.550
 4352POPC   D2A16312  29.952  12.887   8.250
 4352POPC   C3A16313  29.936  12.837   7.950
 4352POPC   C4A16314  29.960  12.804   7.650
 4352POPC   C1B16315  29.715  12.912   8.550
 4352POPC   C2B16316  29.636  12.912   8.250
 4352POPC   C3B16317  29.715  12.916   7.950
 4352POPC   C4B16318  29.705  12.959   7.650
 4353POPC   NC316319   8.977  37.695   9.450
 4353POPC   PO416320   8.953  37.660   9.150
 4353POPC   GL116321   8.951  37.636   8.850
 4353POPC   GL216322   8.913  37.758   8.850
 4353POPC   C1A16323   8.998  37.696   8.550
 4353POPC   D2A16324   8.932  37.634   8.250
 4353POPC   C3A16325   8.953  37.671   7.950
 4353POPC   C4A16326   8.946  37.640   7.650
 4353POPC   C1B16327   8.747  37.817   8.550
 4353POPC   C2B16328   8.720  37.782   8.250
 4353POPC   C3B16329   8.746  37.778   7.950
 4353POPC   C4B16330   8.715  37.819   7.650
 4354POPC   NC316331  25.262  20.572   9.450
 4354POPC   PO416332  25.266  20.638   9.150
 4354POPC   GL116333  25.250  20.655   8.850
 4354POPC   GL216334  25.359  20.565   8.850
 4354POPC   C1A16335  25.237  20.604   8.550
 4354POPC   D2A16336  25.312  20.600   8.250
 4354POPC   C3A16337  25.293  20.573   7.950
 4354POPC   C4A16338  25.267  20.598   7.650
 4354POPC   C1B16339  25.534  20.535   8.550
 4354POPC   C2B16340  25.520  20.588   8.250
 4354POPC   C3B16341  25.554  20.558   7.950
 4354POPC   C4B16342  25.509  20.546   7.650
 4355POPC   NC316343  25.243  30.740   9.450
 4355POPC   PO416344  25.242  30.736   9.150
 4355POPC   GL116345  25.296  30.685   8.850
 4355POPC   GL216346  25.273  30.780   8.850
 4355POPC   C1A16347  25.286  30.719   8.550
 4355POPC   D2A16348  25.303  30.684   8.250
 4355POPC   C3A16349  25.298  30.650   7.950
 4355POPC   C4A16350  25.238  30.649   7.650
 4355POPC   C1B16351  25.198  30.917   8.550
 4355POPC   C2B16352  25.161  30.958   8.250
 4355POPC   C3B16353  25.167  30.966   7.950
 4355POPC   C4B16354  25.147  30.919   7.650
 4356POPC   NC316355  43.914  34.537   9.450
 4356POPC   PO416356  43.853  34.565   9.150
 4356POPC   GL116357  43.868  34.578   8.850
 4356POPC   GL216358  43.806  34.739   8.850
 4356POPC   C1A16359  43.856  34.531   8.550
 4356POPC   D2A16360  43.886  34.607   8.250
 4356POPC   C3A16361  43.914  34.549   7.950
 4356POPC   C4A16362  43.921  34.609   7.650
 4356POPC   C1B16363  43.744  34.828   8.550
 4356POPC   C2B16364  43.825  34.851   8.250
 4356POPC   C3B16365  43.788  34.841   7.950
 4356POPC   C4B16366  43.785  34.762   7.650
 4357POPC   NC316367  41.531  36.865   9.450
 4357POPC   PO416368  41.526  36.889   9.150
 4357POPC   GL116369  41.587  36.904   8.850
 4357POPC   GL216370  41.574  37.078   8.850
 4357POPC   C1A16371  41.534  36.858   8.550
 4357POPC   D2A16372  41.598  36.896   8.250
 4357POPC   C3A16373  41.555  36.890   7.950
 4357POPC   C4A16374  41.528  36.887   7.650
 4357POPC   C1B16375  41.530  37.153   8.550
 4357POPC   C2B16376  41.584  37.134   8.250
 4357POPC   C3B16377  41.532  37.166   7.950
 4357POPC   C4B16378  41.578  37.118   7.650
 4358POPC   NC316379   4.326  43.856   9.450
 4358POPC   PO416380   4.330  43.847   9.150
 4358POPC   GL116381   4.291  43.932   8.850
 4358POPC   GL216382   4.201  43.786   8.850
 4358POPC   C1A16383   4.286  43.850   8.550
 4358POPC   D2A16384   4.328  43.891   8.250
 4358POPC   C3A16385   4.366  43.857   7.950
 4358POPC   C4A16386   4.365  43.903   7.650
 4358POPC   C1B16387   4.110  43.710   8.550
 4358POPC   C2B16388   4.114  43.779   8.250
 4358POPC   C3B16389   4.145  43.714   7.950
 4358POPC   C4B16390   4.145  43.715   7.650
 4359POPC   NC316391  43.078  10.480   9.450
 4359POPC   PO416392  43.118  10.498   9.150
 4359POPC   GL116393  43.097  10.572   8.850
 4359POPC   GL216394  42.967  10.449   8.850
 4359POPC   C1A16395  43.098  10.514   8.550
 4359POPC   D2A16396  43.153  10.541   8.250
 4359POPC   C3A16397  43.089  10.485   7.950
 4359POPC   C4A16398  43.079  10.528   7.650
 4359POPC   C1B16399  42.885  10.354   8.550
 4359POPC   C2B16400  42.865  10.340   8.250
 4359POPC   C3B16401  42.904  10.329   7.950
 4359POPC   C4B16402  42.944  10.322   7.650
 4360POPC   NC316403  39.272  37.699   9.450
 4360POPC   PO416404  39.187  37.711   9.150
 4360POPC   GL116405  39.236  37.638   8.850
 4360POPC   GL216406  39.365  37.722   8.850
 4360POPC   C1A16407  39.213  37.631   8.550
 4360POPC   D2A16408  39.280  37.695   8.250
 4360POPC   C3A16409  39.242  37.719   7.950
 4360POPC   C4A16410  39.266  37.680   7.650
 4360POPC   C1B16411  39.486  37.769   8.550
 4360POPC   C2B16412  39.416  37.817   8.250
 4360POPC   C3B16413  39.452  37.793   7.950
 4360POPC   C4B16414  39.428  37.774   7.650
 4361POPC   NC316415  22.149  41.571   9.450
 4361POPC   PO416416  22.143  41.513   9.150
 4361POPC   GL116417  22.155  41.541   8.850
 4361POPC   GL216418  22.301  41.530   8.850
 4361POPC   C1A16419  22.119  41.549   8.550
 4361POPC   D2A16420  22.117  41.604   8.250
 4361POPC   C3A16421  22.164  41.548   7.950
 4361POPC   C4A16422  22.114  41.572   7.650
 4361POPC   C1B16423  22.367  41.412   8.550
 4361POPC   C2B16424  22.349  41.396   8.250
 4361POPC   C3B16425  22.409  41.478   7.950
 4361POPC   C4B16426  22.393  41.479   7.650
 4362POPC   NC316427  38.484  42.383   9.450
 4362POPC   PO416428  38.468  42.368   9.150
 4362POPC   GL116429  38.425  42.327   8.850
 4362POPC   GL216430  38.540  42.407   8.850
 4362POPC   C1A16431  38.479  42.360   8.550
 4362POPC   D2A16432  38.444  42.303   8.250
 4362POPC   C3A16433  38.424  42.331   7.950
 4362POPC   C4A16434  38.444  42.336   7.650
 4362POPC   C1B16435  38.699  42.375   8.550
 4362POPC   C2B16436  38.645  42.455   8.250
 4362POPC   C3B16437  38.737  42.439   7.950
 4362POPC   C4B16438  38.672  42.461   7.650
 4363POPC   NC316439  36.919  11.256   9.450
 4363POPC   PO416440  36.858  11.334   9.150
 4363POPC   GL116441  36.865  11.345   8.850
 4363POPC   GL216442  36.909  11.207   8.850
 4363POPC   C1A16443  36.918  11.256   8.550
 4363POPC   D2A16444  36.915  11.348   8.250
 4363POPC   C3A16445  36.880  11.270   7.950
 4363POPC   C4A16446  36.931  11.275   7.650
 4363POPC   C1B16447  36.799  11.092   8.550
 4363POPC   C2B16448  36.825  11.044   8.250
 4363POPC   C3B16449  36.839  11.013   7.950
 4363POPC   C4B16450  36.828  11.030   7.650
 4364POPC   NC316451  26.042  24.508   9.450
 4364POPC   PO416452  26.025  24.477   9.150
 4364POPC   GL116453  26.037  24.505   8.850
 4364POPC   GL216454  26.197  24.417   8.850
 4364POPC   C1A16455  26.056  24.497   8.550
 4364POPC   D2A16456  26.080  24.504   8.250
 4364POPC   C3A16457  26.001  24.490   7.950
 4364POPC   C4A16458  25.992  24.489   7.650
 4364POPC   C1B16459  26.266  24.454   8.550
 4364POPC   C2B16460  26.242  24.468   8.250
 4364POPC   C3B16461  26.293  24.407   7.950
 4364POPC   C4B16462  26.259  24.449   7.650
 4365POPC   NC316463  26.771   1.243   9.450
 4365POPC   PO416464  26.843   1.213   9.150
 4365POPC   GL116465  26.777   1.220   8.850
 4365POPC   GL216466  26.789   1.306   8.850
 4365POPC   C1A16467  26.824   1.233   8.550
 4365POPC   D2A16468  26.825   1.199   8.250
 4365POPC   C3A16469  26.832   1.175   7.950
 4365POPC   C4A16470  26.835   1.203   7.650
 4365POPC   C1B16471  26.775   1.415   8.550
 4365POPC   C2B16472  26.803   1.440   8.250
 4365POPC   C3B16473  26.807   1.505   7.950
 4365POPC   C4B16474  26.824   1.490   7.650
 4366POPC   NC316475  29.161  40.031   9.450
 4366POPC   PO416476  29.159  39.979   9.150
 4366POPC   GL116477  29.166  39.984   8.850
 4366POPC   GL216478  28.983  40.029   8.850
 4366POPC   C1A16479  29.136  39.970   8.550
 4366POPC   D2A16480  29.116  39.974   8.250
 4366POPC   C3A16481  29.096  40.002   7.950
 4366POPC   C4A16482  29.146  40.029   7.650
 4366POPC   C1B16483  28.927  39.964   8.550
 4366POPC   C2B16484  28.857  39.927   8.250
 4366POPC   C3B16485  28.942  39.973   7.950
 4366POPC   C4B16486  28.950  39.948   7.650
 4367POPC   NC316487  19.829  26.046   9.450
 4367POPC   PO416488  19.834  26.038   9.150
 4367POPC   GL116489  19.881  26.054   8.850
 4367POPC   GL216490  19.744  26.029   8.850
 4367POPC   C1A16491  19.884  26.040   8.550
 4367POPC   D2A16492  19.873  25.999   8.250
 4367POPC   C3A16493  19.809  26.081   7.950
 4367POPC   C4A16494  19.786  26.023   7.650
 4367POPC   C1B16495  19.560  26.080   8.550
 4367POPC   C2B16496  19.591  26.069   8.250
 4367POPC   C3B16497  19.544  26.033   7.950
 4367POPC   C4B16498  19.535  26.067   7.650
 4368POPC   NC316499   1.212  18.241   9.450
 4368POPC   PO416500   1.212  18.288   9.150
 4368POPC   GL116501   1.243  18.305   8.850
 4368POPC   GL216502   1.366  18.380   8.850
 4368POPC   C1A16503   1.227  18.321   8.550
 4368POPC   D2A16504   1.246  18.307   8.250
 4368POPC   C3A16505   1.192  18.329   7.950
 4368POPC   C4A16506   1.198  18.315   7.650
 4368POPC   C1B16507   1.470  18.334   8.550
 4368POPC   C2B16508   1.481  18.411   8.250
 4368POPC   C3B16509   1.411  18.334   7.950
 4368POPC   C4B16510   1.460  18.354   7.650
 4369POPC   NC316511  14.424  43.084   9.450
 4369POPC   PO416512  14.396  43.112   9.150
 4369POPC   GL116513  14.450  43.114   8.850
 4369POPC   GL216514  14.563  43.048   8.850
 4369POPC   C1A16515  14.364  43.084   8.550
 4369POPC   D2A16516  14.370  43.137   8.250
 4369POPC   C3A16517  14.421  43.132   7.950
 4369POPC   C4A16518  14.447  43.101   7.650
 4369POPC   C1B16519  14.677  43.043   8.550
 4369POPC   C2B16520  14.629  43.072   8.250
 4369POPC   C3B16521  14.674  43.092   7.950
 4369POPC   C4B16522  14.606  43.063   7.650
 4370POPC   NC316523  34.569  28.343   9.450
 4370POPC   PO416524  34.556  28.407   9.150
 4370POPC   GL116525  34.605  28.401   8.850
 4370POPC   GL216526  34.665  28.431   8.850
 4370POPC   C1A16527  34.589  28.344   8.550
 4370POPC   D2A16528  34.573  28.371   8.250
 4370POPC   C3A16529  34.609  28.374   7.950
 4370POPC   C4A16530  34.593  28.329   7.650
 4370POPC   C1B16531  34.852  28.476   8.550
 4370POPC   C2B16532  34.808  28.447   8.250
 4370POPC   C3B16533  34.861  28.400   7.950
 4370POPC   C4B16534  34.806  28.462   7.650
 4371POPC   NC316535  29.118  40.776   9.450
 4371POPC   PO416536  29.134  40.756   9.150
 4371POPC   GL116537  29.102  40.807   8.850
 4371POPC   GL216538  29.163  40.676   8.850
 4371POPC   C1A16539  29.109  40.806   8.550
 4371POPC   D2A16540  29.107  40.813   8.250
 4371POPC   C3A16541  29.171  40.820   7.950
 4371POPC   C4A16542  29.188  40.832   7.650
 4371POPC   C1B16543  29.146  40.487   8.550
 4371POPC   C2B16544  29.209  40.515   8.250
 4371POPC   C3B16545  29.151  40.558   7.950
 4371POPC   C4B16546  29.209  40.578   7.650
 4372POPC   NC316547   8.962  41.586   9.450
 4372POPC   PO416548   8.957  41.584   9.150
 4372POPC   GL116549   8.932  41.588   8.850
 4372POPC   GL216550   9.036  41.476   8.850
 4372POPC   C1A16551   8.999  41.578   8.550
 4372POPC   D2A16552   8.928  41.575   8.250
 4372POPC   C3A16553   8.928  41.538   7.950
 4372POPC   C4A16554   8.960  41.589   7.650
 4372POPC   C1B16555   9.071  41.359   8.550
 4372POPC   C2B16556   9.087  41.344   8.250
 4372POPC   C3B16557   9.050  41.387   7.950
 4372POPC   C4B16558   9.114  41.366   7.650
 4373POPC   NC316559  34.541  31.491   9.450
 4373POPC   PO416560  34.535  31.426   9.150
 4373POPC   GL116561  34.588  31.504   8.850
 4373POPC   GL216562  34.643  31.364   8.850
 4373POPC   C1A16563  34.576  31.481   8.550
 4373POPC   D2A16564  34.553  31.499   8.250
 4373POPC   C3A16565  34.555  31.456   7.950
 4373POPC   C4A16566  34.613  31.481   7.650
 4373POPC   C1B16567  34.706  31.240   8.550
 4373POPC   C2B16568  34.694  31.259   8.250
 4373POPC   C3B16569  34.715  31.316   7.950
 4373POPC   C4B16570  34.745  31.288   7.650
 4374POPC   NC316571  39.981  20.567   9.450
 4374POPC   PO416572  40.039  20.654   9.150
 4374POPC   GL116573  40.027  20.626   8.850
 4374POPC   GL216574  39.872  20.536   8.850
 4374POPC   C1A16575  40.019  20.624   8.550
 4374POPC   D2A16576  40.040  20.599   8.250
 4374POPC   C3A16577  39.997  20.602   7.950
 4374POPC   C4A16578  39.968  20.585   7.650
 4374POPC   C1B16579  39.885  20.454   8.550
 4374POPC   C2B16580  39.873  20.380   8.250
 4374POPC   C3B16581  39.860  20.403   7.950
 4374POPC   C4B16582  39.879  20.442   7.650
 4375POPC   NC316583  29.142   2.804   9.450
 4375POPC   PO416584  29.176   2.734   9.150
 4375POPC   GL116585  29.158   2.798   8.850
 4375POPC   GL216586  29.076   2.644   8.850
 4375POPC   C1A16587  29.141   2.747   8.550
 4375POPC   D2A16588  29.124   2.731   8.250
 4375POPC   C3A16589  29.105   2.793   7.950
 4375POPC   C4A16590  29.192   2.747   7.650
 4375POPC   C1B16591  28.937   2.599   8.550
 4375POPC   C2B16592  28.929   2.570   8.250
 4375POPC   C3B16593  28.968   2.567   7.950
 4375POPC   C4B16594  28.901   2.657   7.650
 4376POPC   NC316595   9.731   5.903   9.450
 4376POPC   PO416596   9.796   5.831   9.150
 4376POPC   GL116597   9.699   5.823   8.850
 4376POPC   GL216598   9.822   5.949   8.850
 4376POPC   C1A16599   9.744   5.858   8.550
 4376POPC   D2A16600   9.760   5.909   8.250
 4376POPC   C3A16601   9.789   5.874   7.950
 4376POPC   C4A16602   9.720   5.877   7.650
 4376POPC   C1B16603   9.815   6.080   8.550
 4376POPC   C2B16604   9.836   6.140   8.250
 4376POPC   C3B16605   9.890   6.085   7.950
 4376POPC   C4B16606   9.897   6.131   7.650
 4377POPC   NC316607  30.654  15.930   9.450
 4377POPC   PO416608  30.676  15.922   9.150
 4377POPC   GL116609  30.671  15.985   8.850
 4377POPC   GL216610  30.666  15.862   8.850
 4377POPC   C1A16611  30.662  15.940   8.550
 4377POPC   D2A16612  30.684  15.977   8.250
 4377POPC   C3A16613  30.729  15.977   7.950
 4377POPC   C4A16614  30.718  15.971   7.650
 4377POPC   C1B16615  30.593  15.706   8.550
 4377POPC   C2B16616  30.565  15.793   8.250
 4377POPC   C3B16617  30.596  15.735   7.950
 4377POPC   C4B16618  30.529  15.760   7.650
 4378POPC   NC316619  36.136  22.122   9.450
 4378POPC   PO416620  36.079  22.149   9.150
 4378POPC   GL116621  36.133  22.115   8.850
 4378POPC   GL216622  36.019  22.116   8.850
 4378POPC   C1A16623  36.095  22.190   8.550
 4378POPC   D2A16624  36.097  22.150   8.250
 4378POPC   C3A16625  36.157  22.129   7.950
 4378POPC   C4A16626  36.118  22.182   7.650
 4378POPC   C1B16627  35.905  22.134   8.550
 4378POPC   C2B16628  35.848  22.133   8.250
 4378POPC   C3B16629  35.901  22.140   7.950
 4378POPC   C4B16630  35.856  22.074   7.650
 4379POPC   NC316631  21.348  12.064   9.450
 4379POPC   PO416632  21.367  12.119   9.150
 4379POPC   GL116633  21.347  12.088   8.850
 4379POPC   GL216634  21.235  12.066   8.850
 4379POPC   C1A16635  21.413  12.060   8.550
 4379POPC   D2A16636  21.426  12.050   8.250
 4379POPC   C3A16637  21.362  12.035   7.950
 4379POPC   C4A16638  21.387  12.029   7.650
 4379POPC   C1B16639  21.160  12.159   8.550
 4379POPC   C2B16640  21.125  12.095   8.250
 4379POPC   C3B16641  21.119  12.100   7.950
 4379POPC   C4B16642  21.186  12.117   7.650
 4380POPC   NC316643  30.707  26.004   9.450
 4380POPC   PO416644  30.651  26.003   9.150
 4380POPC   GL116645  30.689  26.058   8.850
 4380POPC   GL216646  30.577  26.074   8.850
 4380POPC   C1A16647  30.712  26.031   8.550
 4380POPC   D2A16648  30.692  25.993   8.250
 4380POPC   C3A16649  30.666  26.079   7.950
 4380POPC   C4A16650  30.739  26.013   7.650
 4380POPC   C1B16651  30.483  26.048   8.550
 4380POPC   C2B16652  30.432  26.058   8.250
 4380POPC   C3B16653  30.484  26.065   7.950
 4380POPC   C4B16654  30.474  26.078   7.650
 4381POPC   NC316655  29.926  18.263   9.450
 4381POPC   PO416656  29.924  18.298   9.150
 4381POPC   GL116657  29.949  18.258   8.850
 4381POPC   GL216658  29.839  18.355   8.850
 4381POPC   C1A16659  29.959  18.276   8.550
 4381POPC   D2A16660  29.886  18.260   8.250
 4381POPC   C3A16661  29.897  18.261   7.950
 4381POPC   C4A16662  29.885  18.286   7.650
 4381POPC   C1B16663  29.796  18.536   8.550
 4381POPC   C2B16664  29.835  18.563   8.250
 4381POPC   C3B16665  29.781  18.467   7.950
 4381POPC   C4B16666  29.835  18.508   7.650
 4382POPC   NC316667  18.331  16.762   9.450
 4382POPC   PO416668  18.331  16.720   9.150
 4382POPC   GL116669  18.301  16.714   8.850
 4382POPC   GL216670  18.439  16.767   8.850
 4382POPC   C1A16671  18.302  16.695   8.550
 4382POPC   D2A16672  18.282  16.744   8.250
 4382POPC   C3A16673  18.274  16.742   7.950
 4382POPC   C4A16674  18.289  16.776   7.650
 4382POPC   C1B16675  18.485  16.853   8.550
 4382POPC   C2B16676  18.460  16.875   8.250
 4382POPC   C3B16677  18.458  16.863   7.950
 4382POPC   C4B16678  18.536  16.889   7.650
 4383POPC   NC316679  43.899  12.880   9.450
 4383POPC   PO416680  43.917  12.896   9.150
 4383POPC   GL116681  43.857  12.884   8.850
 4383POPC   GL216682  43.797  12.838   8.850
 4383POPC   C1A16683  43.851  12.872   8.550
 4383POPC   D2A16684  43.920  12.822   8.250
 4383POPC   C3A16685  43.901  12.811   7.950
 4383POPC   C4A16686  43.862  12.865   7.650
 4383POPC   C1B16687  43.621  12.896   8.550
 4383POPC   C2B16688  43.649  12.876   8.250
 4383POPC   C3B16689  43.616  12.849   7.950
 4383POPC   C4B16690  43.686  12.895   7.650
 4384POPC   NC316691  28.398   6.686   9.450
 4384POPC   PO416692  28.378   6.619   9.150
 4384POPC   GL116693  28.324   6.618   8.850
 4384POPC   GL216694  28.481   6.799   8.850
 4384POPC   C1A16695  28.410   6.655   8.550
 4384POPC   D2A16696  28.342   6.630   8.250
 4384POPC   C3A16697  28.411   6.600   7.950
 4384POPC   C4A16698  28.384   6.660   7.650
 4384POPC   C1B16699  28.490   6.886   8.550
 4384POPC   C2B16700  28.463   6.873   8.250
 4384POPC   C3B16701  28.518   6.883   7.950
 4384POPC   C4B16702  28.524   6.889   7.650
 4385POPC   NC316703   6.651  36.887   9.450
 4385POPC   PO416704   6.672  36.938   9.150
 4385POPC   GL116705   6.649  36.875   8.850
 4385POPC   GL216706   6.750  36.838   8.850
 4385POPC   C1A16707   6.607  36.951   8.550
 4385POPC   D2A16708   6.613  36.909   8.250
 4385POPC   C3A16709   6.638  36.949   7.950
 4385POPC   C4A16710   6.668  36.927   7.650
 4385POPC   C1B16711   6.822  36.757   8.550
 4385POPC   C2B16712   6.833  36.746   8.250
 4385POPC   C3B16713   6.907  36.802   7.950
 4385POPC   C4B16714   6.850  36.755   7.650
 4386POPC   NC316715   5.124  19.862   9.450
 4386POPC   PO416716   5.113  19.845   9.150
 4386POPC   GL116717   5.139  19.831   8.850
 4386POPC   GL216718   5.084  19.990   8.850
 4386POPC   C1A16719   5.127  19.837   8.550
 4386POPC   D2A16720   5.051  19.809   8.250
 4386POPC   C3A16721   5.076  19.872   7.950
 4386POPC   C4A16722   5.061  19.829   7.650
 4386POPC   C1B16723   5.008  20.030   8.550
 4386POPC   C2B16724   5.028  20.117   8.250
 4386POPC   C3B16725   5.056  20.102   7.950
 4386POPC   C4B16726   4.994  20.035   7.650
 4387POPC   NC316727  16.735   9.794   9.450
 4387POPC   PO416728  16.707   9.774   9.150
 4387POPC   GL116729  16.757   9.736   8.850
 4387POPC   GL216730  16.818   9.837   8.850
 4387POPC   C1A16731  16.744   9.762   8.550
 4387POPC   D2A16732  16.734   9.714   8.250
 4387POPC   C3A16733  16.699   9.720   7.950
 4387POPC   C4A16734  16.714   9.731   7.650
 4387POPC   C1B16735  16.909   9.959   8.550
 4387POPC   C2B16736  16.941   9.959   8.250
 4387POPC   C3B16737  16.920   9.972   7.950
 4387POPC   C4B16738  16.850   9.932   7.650
 4388POPC   NC316739  26.022  32.233   9.450
 4388POPC   PO416740  26.018  32.251   9.150
 4388POPC   GL116741  26.060  32.274   8.850
 4388POPC   GL216742  26.187  32.209   8.850
 4388POPC   C1A16743  26.041  32.294   8.550
 4388POPC   D2A16744  26.082  32.296   8.250
 4388POPC   C3A16745  26.009  32.253   7.950
 4388POPC   C4A16746  26.079  32.250   7.650
 4388POPC   C1B16747  26.269  32.172   8.550
 4388POPC   C2B16748  26.253  32.195   8.250
 4388POPC   C3B16749  26.259  32.211   7.950
 4388POPC   C4B16750  26.247  32.199   7.650
 4389POPC   NC316751  18.329  27.597   9.450
 4389POPC   PO416752  18.256  27.561   9.150
 4389POPC   GL116753  18.285  27.554   8.850
 4389POPC   GL216754  18.427  27.618   8.850
 4389POPC   C1A16755  18.331  27.569   8.550
 4389POPC   D2A16756  18.291  27.612   8.250
 4389POPC   C3A16757  18.294  27.583   7.950
 4389POPC   C4A16758  18.317  27.582   7.650
 4389POPC   C1B16759  18.536  27.680   8.550
 4389POPC   C2B16760  18.532  27.749   8.250
 4389POPC   C3B16761  18.495  27.731   7.950
 4389POPC   C4B16762  18.492  27.716   7.650
 4390POPC   NC316763  28.400   5.130   9.450
 4390POPC   PO416764  28.398   5.058   9.150
 4390POPC   GL116765  28.377   5.114   8.850
 4390POPC   GL216766  28.227   5.125   8.850
 4390POPC   C1A16767  28.347   5.088   8.550
 4390POPC   D2A16768  28.346   5.051   8.250
 4390POPC   C3A16769  28.413   5.058   7.950
 4390POPC   C4A16770  28.400   5.081   7.650
 4390POPC   C1B16771  28.108   5.152   8.550
 4390POPC   C2B16772  28.098   5.183   8.250
 4390POPC   C3B16773  28.121   5.195   7.950
 4390POPC   C4B16774  28.167   5.165   7.650
 4391POPC   NC316775  37.642  21.383   9.450
 4391POPC   PO416776  37.637  21.378   9.150
 4391POPC   GL116777  37.727  21.356   8.850
 4391POPC   GL216778  37.834  21.437   8.850
 4391POPC   C1A16779  37.675  21.372   8.550
 4391POPC   D2A16780  37.689  21.391   8.250
 4391POPC   C3A16781  37.630  21.362   7.950
 4391POPC   C4A16782  37.659  21.424   7.650
 4391POPC   C1B16783  37.931  21.478   8.550
 4391POPC   C2B16784  37.947  21.426   8.250
 4391POPC   C3B16785  37.908  21.393   7.950
 4391POPC   C4B16786  37.949  21.398   7.650
 4392POPC   NC316787   9.769  23.750   9.450
 4392POPC   PO416788   9.738  23.684   9.150
 4392POPC   GL116789   9.791  23.754   8.850
 4392POPC   GL216790   9.877  23.692   8.850
 4392POPC   C1A16791   9.702  23.667   8.550
 4392POPC   D2A16792   9.707  23.716   8.250
 4392POPC   C3A16793   9.707  23.677   7.950
 4392POPC   C4A16794   9.709  23.691   7.650
 4392POPC   C1B16795   9.924  23.560   8.550
 4392POPC   C2B16796   9.960  23.550   8.250
 4392POPC   C3B16797   9.949  23.539   7.950
 4392POPC   C4B16798   9.917  23.544   7.650
 4393POPC   NC316799   3.569  26.043   9.450
 4393POPC   PO416800   3.526  26.047   9.150
 4393POPC   GL116801   3.589  26.061   8.850
 4393POPC   GL216802   3.704  26.005   8.850
 4393POPC   C1A16803   3.508  26.046   8.550
 4393POPC   D2A16804   3.525  26.025   8.250
 4393POPC   C3A16805   3.557  25.997   7.950
 4393POPC   C4A16806   3.520  26.019   7.650
 4393POPC   C1B16807   3.759  26.085   8.550
 4393POPC   C2B16808   3.748  26.021   8.250
 4393POPC   C3B16809   3.773  26.033   7.950
 4393POPC   C4B16810   3.828  26.057   7.650
 4394POPC   NC316811  15.210   6.628   9.450
 4394POPC   PO416812  15.190   6.608   9.150
 4394POPC   GL116813  15.211   6.638   8.850
 4394POPC   GL216814  15.326   6.702   8.850
 4394POPC   C1A16815  15.160   6.600   8.550
 4394POPC   D2A16816  15.140   6.617   8.250
 4394POPC   C3A16817  15.145   6.601   7.950
 4394POPC   C4A16818  15.211   6.692   7.650
 4394POPC   C1B16819  15.354   6.846   8.550
 4394POPC   C2B16820  15.412   6.765   8.250
 4394POPC   C3B16821  15.363   6.781   7.950
 4394POPC   C4B16822  15.391   6.799   7.650
 4395POPC   NC316823   3.516  19.037   9.450
 4395POPC   PO416824   3.528  19.067   9.150
 4395POPC   GL116825   3.589  19.046   8.850
 4395POPC   GL216826   3.465  18.991   8.850
 4395POPC   C1A16827   3.543  19.032   8.550
 4395POPC   D2A16828   3.515  19.026   8.250
 4395POPC   C3A16829   3.555  19.032   7.950
 4395POPC   C4A16830   3.583  19.067   7.650
 4395POPC   C1B16831   3.473  18.855   8.550
 4395POPC   C2B16832   3.467  18.815   8.250
 4395POPC   C3B16833   3.413  18.828   7.950
 4395POPC   C4B16834   3.419  18.847   7.650
 4396POPC   NC316835  12.859  44.624   9.450
 4396POPC   PO416836  12.827  44.671   9.150
 4396POPC   GL116837  12.881  44.671   8.850
 4396POPC   GL216838  12.899  44.806   8.850
 4396POPC   C1A16839  12.805  44.703   8.550
 4396POPC   D2A16840  12.829  44.711   8.250
 4396POPC   C3A16841  12.851  44.692   7.950
 4396POPC   C4A16842  12.829  44.614   7.650
 4396POPC   C1B16843  12.944  44.858   8.550
 4396POPC   C2B16844  12.984  44.896   8.250
 4396POPC   C3B16845  13.010  44.872   7.950
 4396POPC   C4B16846  13.016  44.826   7.650
 4397POPC   NC316847  26.040  13.636   9.450
 4397POPC   PO416848  26.003  13.617   9.150
 4397POPC   GL116849  26.045  13.664   8.850
 4397POPC   GL216850  26.180  13.556   8.850
 4397POPC   C1A16851  26.076  13.661   8.550
 4397POPC   D2A16852  26.023  13.647   8.250
 4397POPC   C3A16853  26.010  13.633   7.950
 4397POPC   C4A16854  26.020  13.635   7.650
 4397POPC   C1B16855  26.256  13.543   8.550
 4397POPC   C2B16856  26.238  13.563   8.250
 4397POPC   C3B16857  26.286  13.504   7.950
 4397POPC   C4B16858  26.283  13.585   7.650
 4398POPC   NC316859  10.553  41.574   9.450
 4398POPC   PO416860  10.490  41.597   9.150
 4398POPC   GL116861  10.514  41.546   8.850
 4398POPC   GL216862  10.450  41.663   8.850
 4398POPC   C1A16863  10.569  41.602   8.550
 4398POPC   D2A16864  10.549  41.550   8.250
 4398POPC   C3A16865  10.545  41.575   7.950
 4398POPC   C4A16866  10.481  41.529   7.650
 4398POPC   C1B16867  10.315  41.719   8.550
 4398POPC   C2B16868  10.398  41.760   8.250
 4398POPC   C3B16869  10.331  41.747   7.950
 4398POPC   C4B16870  10.386  41.765   7.650
 4399POPC   NC316871  41.593  36.100   9.450
 4399POPC   PO416872  41.597  36.099   9.150
 4399POPC   GL116873  41.533  36.155   8.850
 4399POPC   GL216874  41.464  36.243   8.850
 4399POPC   C1A16875  41.580  36.104   8.550
 4399POPC   D2A16876  41.541  36.110   8.250
 4399POPC   C3A16877  41.602  36.166   7.950
 4399POPC   C4A16878  41.560  36.149   7.650
 4399POPC   C1B16879  41.333  36.320   8.550
 4399POPC   C2B16880  41.345  36.329   8.250
 4399POPC   C3B16881  41.405  36.271   7.950
 4399POPC   C4B16882  41.332  36.323   7.650
 4400POPC   NC316883  41.558  12.836   9.450
 4400POPC   PO416884  41.519  12.879   9.150
 4400POPC   GL116885  41.521  12.868   8.850
 4400POPC   GL216886  41.658  12.949   8.850
 4400POPC   C1A16887  41.525  12.859   8.550
 4400POPC   D2A16888  41.539  12.850   8.250
 4400POPC   C3A16889  41.567  12.815   7.950
 4400POPC   C4A16890  41.529  12.866   7.650
 4400POPC   C1B16891  41.773  12.996   8.550
 4400POPC   C2B16892  41.793  12.971   8.250
 4400POPC   C3B16893  41.745  13.006   7.950
 4400POPC   C4B16894  41.784  12.941   7.650
 4401POPC   NC316895  35.318  26.005   9.450
 4401POPC   PO416896  35.360  26.091   9.150
 4401POPC   GL116897  35.348  26.034   8.850
 4401POPC   GL216898  35.471  26.038   8.850
 4401POPC   C1A16899  35.331  26.068   8.550
 4401POPC   D2A16900  35.306  26.032   8.250
 4401POPC   C3A16901  35.395  26.015   7.950
 4401POPC   C4A16902  35.377  26.034   7.650
 4401POPC   C1B16903  35.624  26.097   8.550
 4401POPC   C2B16904  35.593  26.140   8.250
 4401POPC   C3B16905  35.581  26.090   7.950
 4401POPC   C4B16906  35.584  26.121   7.650
 4402POPC   NC316907  32.232  15.199   9.450
 4402POPC   PO416908  32.295  15.140   9.150
 4402POPC   GL116909  32.219  15.150   8.850
 4402POPC   GL216910  32.316  15.261   8.850
 4402POPC   C1A16911  32.252  15.208   8.550
 4402POPC   D2A16912  32.276  15.208   8.250
 4402POPC   C3A16913  32.233  15.211   7.950
 4402POPC   C4A16914  32.220  15.181   7.650
 4402POPC   C1B16915  32.445  15.321   8.550
 4402POPC   C2B16916  32.468  15.328   8.250
 4402POPC   C3B16917  32.441  15.379   7.950
 4402POPC   C4B16918  32.418  15.345   7.650
 4403POPC   NC316919  27.629  39.207   9.450
 4403POPC   PO416920  27.622  39.219   9.150
 4403POPC   GL116921  27.604  39.239   8.850
 4403POPC   GL216922  27.558  39.309   8.850
 4403POPC   C1A16923  27.605  39.257   8.550
 4403POPC   D2A16924  27.614  39.216   8.250
 4403POPC   C3A16925  27.589  39.254   7.950
 4403POPC   C4A16926  27.637  39.251   7.650
 4403POPC   C1B16927  27.504  39.452   8.550
 4403POPC   C2B16928  27.544  39.472   8.250
 4403POPC   C3B16929  27.575  39.460   7.950
 4403POPC   C4B16930  27.549  39.467   7.650
 4404POPC   NC316931  22.141  44.621   9.450
 4404POPC   PO416932  22.177  44.706   9.150
 4404POPC   GL116933  22.150  44.689   8.850
 4404POPC   GL216934  22.245  44.570   8.850
 4404POPC   C1A16935  22.210  44.675   8.550
 4404POPC   D2A16936  22.154  44.639   8.250
 4404POPC   C3A16937  22.199  44.642   7.950
 4404POPC   C4A16938  22.128  44.670   7.650
 4404POPC   C1B16939  22.375  44.525   8.550
 4404POPC   C2B16940  22.299  44.464   8.250
 4404POPC   C3B16941  22.367  44.451   7.950
 4404POPC   C4B16942  22.381  44.513   7.650
 4405POPC   NC316943  39.989   3.552   9.450
 4405POPC   PO416944  39.981   3.524   9.150
 4405POPC   GL116945  39.962   3.498   8.850
 4405POPC   GL216946  39.959   3.639   8.850
 4405POPC   C1A16947  40.005   3.525   8.550
 4405POPC   D2A16948  39.962   3.514   8.250
 4405POPC   C3A16949  39.966   3.500   7.950
 4405POPC   C4A16950  40.051   3.569   7.650
 4405POPC   C1B16951  39.817   3.744   8.550
 4405POPC   C2B16952  39.868   3.790   8.250
 4405POPC   C3B16953  39.862   3.763   7.950
 4405POPC   C4B16954  39.824   3.788   7.650
 4406POPC   NC316955  40.810  33.845   9.450
 4406POPC   PO416956  40.790  33.816   9.150
 4406POPC   GL116957  40.743  33.772   8.850
 4406POPC   GL216958  40.790  33.636   8.850
 4406POPC   C1A16959  40.741  33.779   8.550
 4406POPC   D2A16960  40.743  33.802   8.250
 4406POPC   C3A16961  40.830  33.812   7.950
 4406POPC   C4A16962  40.741  33.830   7.650
 4406POPC   C1B16963  40.824  33.588   8.550
 4406POPC   C2B16964  40.758  33.596   8.250
 4406POPC   C3B16965  40.810  33.589   7.950
 4406POPC   C4B16966  40.806  33.586   7.650
 4407POPC   NC316967   9.765  36.903   9.450
 4407POPC   PO416968   9.776  36.884   9.150
 4407POPC   GL116969   9.795  36.923   8.850
 4407POPC   GL216970   9.644  37.021   8.850
 4407POPC   C1A16971   9.794  36.933   8.550
 4407POPC   D2A16972   9.784  36.944   8.250
 4407POPC   C3A16973   9.713  36.900   7.950
 4407POPC   C4A16974   9.763  36.940   7.650
 4407POPC   C1B16975   9.625  37.114   8.550
 4407POPC   C2B16976   9.557  37.068   8.250
 4407POPC   C3B16977   9.536  37.104   7.950
 4407POPC   C4B16978   9.619  37.104   7.650
 4408POPC   NC316979  36.105  18.275   9.450
 4408POPC   PO416980  36.165  18.330   9.150
 4408POPC   GL116981  36.101  18.291   8.850
 4408POPC   GL216982  36.165  18.122   8.850
 4408POPC   C1A16983  36.166  18.256   8.550
 4408POPC   D2A16984  36.157  18.261   8.250
 4408POPC   C3A16985  36.154  18.255   7.950
 4408POPC   C4A16986  36.125  18.317   7.650
 4408POPC   C1B16987  36.222  18.025   8.550
 4408POPC   C2B16988  36.288  18.022   8.250
 4408POPC   C3B16989  36.208  18.019   7.950
 4408POPC   C4B16990  36.261  18.057   7.650
 4409POPC   NC316991  16.720  10.525   9.450
 4409POPC   PO416992  16.768  10.477   9.150
 4409POPC   GL116993  16.712  10.482   8.850
 4409POPC   GL216994  16.628  10.654   8.850
 4409POPC   C1A16995  16.694  10.492   8.550
 4409POPC   D2A16996  16.727  10.560   8.250
 4409POPC   C3A16997  16.754  10.546   7.950
 4409POPC   C4A16998  16.769  10.509   7.650
 4409POPC   C1B16999  16.579  10.728   8.550
 4409POPC   C2B17000  16.579  10.773   8.250
 4409POPC   C3B17001  16.634  10.722   7.950
 4409POPC   C4B17002  16.593  10.761   7.650
 4410POPC   NC317003  40.047   9.759   9.450
 4410POPC   PO417004  40.013   9.781   9.150
 4410POPC   GL117005  40.052   9.776   8.850
 4410POPC   GL217006  39.849   9.661   8.850
 4410POPC   C1A17007  40.022   9.730   8.550
 4410POPC   D2A17008  39.983   9.771   8.250
 4410POPC   C3A17009  40.018   9.734   7.950
 4410POPC   C4A17010  40.036   9.758   7.650
 4410POPC   C1B17011  39.822   9.665   8.550
 4410POPC   C2B17012  39.808   9.622   8.250
 4410POPC   C3B17013  39.783   9.628   7.950
 4410POPC   C4B17014  39.798   9.665   7.650
 4411POPC   NC317015   5.876   2.804   9.450
 4411POPC   PO417016   5.895   2.763   9.150
 4411POPC   GL117017   5.894   2.811   8.850
 4411POPC   GL217018   5.861   2.652   8.850
 4411POPC   C1A17019   5.915   2.796   8.550
 4411POPC   D2A17020   5.843   2.794   8.250
 4411POPC   C3A17021   5.854   2.773   7.950
 4411POPC   C4A17022   5.874   2.804   7.650
 4411POPC   C1B17023   5.763   2.499   8.550
 4411POPC   C2B17024   5.827   2.538   8.250
 4411POPC   C3B17025   5.779   2.536   7.950
 4411POPC   C4B17026   5.793   2.523   7.650
 4412POPC   NC317027   8.223   8.932   9.450
 4412POPC   PO417028   8.246   8.942   9.150
 4412POPC   GL117029   8.219   8.940   8.850
 4412POPC   GL217030   8.093   9.058   8.850
 4412POPC   C1A17031   8.211   9.005   8.550
 4412POPC   D2A17032   8.240   8.977   8.250
 4412POPC   C3A17033   8.222   8.970   7.950
 4412POPC   C4A17034   8.209   9.010   7.650
 4412POPC   C1B17035   7.980   9.066   8.550
 4412POPC   C2B17036   8.010   9.047   8.250
 4412POPC   C3B17037   7.977   9.069   7.950
 4412POPC   C4B17038   7.957   9.055   7.650
 4413POPC   NC317039  20.576  34.606   9.450
 4413POPC   PO417040  20.657  34.604   9.150
 4413POPC   GL117041  20.578  34.533   8.850
 4413POPC   GL217042  20.653  34.659   8.850
 4413POPC   C1A17043  20.579  34.602   8.550
 4413POPC   D2A17044  20.602  34.604   8.250
 4413POPC   C3A17045  20.651  34.565   7.950
 4413POPC   C4A17046  20.594  34.527   7.650
 4413POPC   C1B17047  20.753  34.704   8.550
 4413POPC   C2B17048  20.837  34.717   8.250
 4413POPC   C3B17049  20.826  34.768   7.950
 4413POPC   C4B17050  20.759  34.770   7.650
 4414POPC   NC317051   7.385  31.502   9.450
 4414POPC   PO417052   7.408  31.510   9.150
 4414POPC   GL117053   7.449  31.443   8.850
 4414POPC   GL217054   7.348  31.564   8.850
 4414POPC   C1A17055   7.378  31.495   8.550
 4414POPC   D2A17056   7.423  31.477   8.250
 4414POPC   C3A17057   7.468  31.443   7.950
 4414POPC   C4A17058   7.433  31.459   7.650
 4414POPC   C1B17059   7.211  31.687   8.550
 4414POPC   C2B17060   7.307  31.624   8.250
 4414POPC   C3B17061   7.290  31.699   7.950
 4414POPC   C4B17062   7.291  31.682   7.650
 4415POPC   NC317063   7.445  34.583   9.450
 4415POPC   PO417064   7.397  34.576   9.150
 4415POPC   GL117065   7.373  34.589   8.850
 4415POPC   GL217066   7.511  34.553   8.850
 4415POPC   C1A17067   7.439  34.526   8.550
 4415POPC   D2A17068   7.412  34.527   8.250
 4415POPC   C3A17069   7.469  34.529   7.950
 4415POPC   C4A17070   7.383  34.540   7.650
 4415POPC   C1B17071   7.655  34.451   8.550
 4415POPC   C2B17072   7.666  34.432   8.250
 4415POPC   C3B17073   7.607  34.455   7.950
 4415POPC   C4B17074   7.688  34.483   7.650
 4416POPC   NC317075  15.907  41.586   9.450
 4416POPC   PO417076  15.977  41.577   9.150
 4416POPC   GL117077  15.907  41.577   8.850
 4416POPC   GL217078  15.997  41.729   8.850
 4416POPC   C1A17079  15.978  41.586   8.550
 4416POPC   D2A17080  15.992  41.589   8.250
 4416POPC   C3A17081  15.959  41.603   7.950
 4416POPC   C4A17082  15.913  41.565   7.650
 4416POPC   C1B17083  16.034  41.797   8.550
 4416POPC   C2B17084  16.005  41.825   8.250
 4416POPC   C3B17085  15.999  41.846   7.950
 4416POPC   C4B17086  16.027  41.837   7.650
 4417POPC   NC317087  12.059   2.736   9.450
 4417POPC   PO417088  12.058   2.721   9.150
 4417POPC   GL117089  12.091   2.801   8.850
 4417POPC   GL217090  11.964   2.679   8.850
 4417POPC   C1A17091  12.083   2.789   8.550
 4417POPC   D2A17092  12.080   2.753   8.250
 4417POPC   C3A17093  12.107   2.782   7.950
 4417POPC   C4A17094  12.039   2.750   7.650
 4417POPC   C1B17095  11.841   2.597   8.550
 4417POPC   C2B17096  11.886   2.607   8.250
 4417POPC   C3B17097  11.917   2.666   7.950
 4417POPC   C4B17098  11.837   2.648   7.650
 4418POPC   NC317099  39.236  40.031   9.450
 4418POPC   PO417100  39.216  39.979   9.150
 4418POPC   GL117101  39.218  40.035   8.850
 4418POPC   GL217102  39.147  39.930   8.850
 4418POPC   C1A17103  39.258  40.026   8.550
 4418POPC   D2A17104  39.230  40.020   8.250
 4418POPC   C3A17105  39.246  40.052   7.950
 4418POPC   C4A17106  39.253  39.997   7.650
 4418POPC   C1B17107  39.141  39.785   8.550
 4418POPC   C2B17108  39.109  39.762   8.250
 4418POPC   C3B17109  39.110  39.806   7.950
 4418POPC   C4B17110  39.096  39.762   7.650
 4419POPC   NC317111  39.260  31.486   9.450
 4419POPC   PO417112  39.249  31.474   9.150
 4419POPC   GL117113  39.185  31.469   8.850
 4419POPC   GL217114  39.327  31.489   8.850
 4419POPC   C1A17115  39.255  31.503   8.550
 4419POPC   D2A17116  39.245  31.510   8.250
 4419POPC   C3A17117  39.232  31.519   7.950
 4419POPC   C4A17118  39.183  31.506   7.650
 4419POPC   C1B17119  39.449  31.566   8.550
 4419POPC   C2B17120  39.509  31.562   8.250
 4419POPC   C3B17121  39.509  31.516   7.950
 4419POPC   C4B17122  39.508  31.537   7.650
 4420POPC   NC317123   0.483  41.527   9.450
 4420POPC   PO417124   0.449  41.514   9.150
 4420POPC   GL117125   0.403  41.569   8.850
 4420POPC   GL217126   0.519  41.539   8.850
 4420POPC   C1A17127   0.424  41.523   8.550
 4420POPC   D2A17128   0.436  41.531   8.250
 4420POPC   C3A17129   0.432  41.514   7.950
 4420POPC   C4A17130   0.466  41.582   7.650
 4420POPC   C1B17131   0.700  41.558   8.550
 4420POPC   C2B17132   0.662  41.590   8.250
 4420POPC   C3B17133   0.712  41.521   7.950
 4420POPC   C4B17134   0.690  41.577   7.650
 4421POPC   NC317135   6.623  43.157   9.450
 4421POPC   PO417136   6.670  43.089   9.150
 4421POPC   GL117137   6.658  43.127   8.850
 4421POPC   GL217138   6.724  43.116   8.850
 4421POPC   C1A17139   6.610  43.160   8.550
 4421POPC   D2A17140   6.681  43.142   8.250
 4421POPC   C3A17141   6.628  43.154   7.950
 4421POPC   C4A17142   6.682  43.104   7.650
 4421POPC   C1B17143   6.887  43.199   8.550
 4421POPC   C2B17144   6.835  43.176   8.250
 4421POPC   C3B17145   6.893  43.228   7.950
 4421POPC   C4B17146   6.834  43.199   7.650
 4422POPC   NC317147  17.548  15.193   9.450
 4422POPC   PO417148  17.470  15.204   9.150
 4422POPC   GL117149  17.502  15.182   8.850
 4422POPC   GL217150  17.605  15.052   8.850
 4422POPC   C1A17151  17.498  15.188   8.550
 4422POPC   D2A17152  17.535  15.204   8.250
 4422POPC   C3A17153  17.514  15.141   7.950
 4422POPC   C4A17154  17.496  15.208   7.650
 4422POPC   C1B17155  17.629  14.957   8.550
 4422POPC   C2B17156  17.565  14.940   8.250
 4422POPC   C3B17157  17.580  14.978   7.950
 4422POPC   C4B17158  17.561  14.972   7.650
 4423POPC   NC317159   1.261  29.130   9.450
 4423POPC   PO417160   1.233  29.127   9.150
 4423POPC   GL117161   1.168  29.187   8.850
 4423POPC   GL217162   1.175  29.036   8.850
 4423POPC   C1A17163   1.205  29.132   8.550
 4423POPC   D2A17164   1.194  29.106   8.250
 4423POPC   C3A17165   1.185  29.110   7.950
 4423POPC   C4A17166   1.208  29.192   7.650
 4423POPC   C1B17167   1.073  28.891   8.550
 4423POPC   C2B17168   1.091  28.966   8.250
 4423POPC   C3B17169   1.069  28.949   7.950
 4423POPC   C4B17170   1.078  28.913   7.650
 4424POPC   NC317171   7.459  17.555   9.450
 4424POPC   PO417172   7.450  17.509   9.150
 4424POPC   GL117173   7.401  17.527   8.850
 4424POPC   GL217174   7.569  17.528   8.850
 4424POPC   C1A17175   7.384  17.535   8.550
 4424POPC   D2A17176   7.424  17.523   8.250
 4424POPC   C3A17177   7.419  17.542   7.950
 4424POPC   C4A17178   7.375  17.497   7.650
 4424POPC   C1B17179   7.644  17.584   8.550
 4424POPC   C2B17180   7.628  17.555   8.250
 4424POPC   C3B17181   7.692  17.572   7.950
 4424POPC   C4B17182   7.710  17.546   7.650
 4425POPC   NC317183  16.752   8.173   9.450
 4425POPC   PO417184  16.700   8.238   9.150
 4425POPC   GL117185  16.684   8.153   8.850
 4425POPC   GL217186  16.857   8.249   8.850
 4425POPC   C1A17187  16.725   8.171   8.550
 4425POPC   D2A17188  16.759   8.242   8.250
 4425POPC   C3A17189  16.725   8.206   7.950
 4425POPC   C4A17190  16.775   8.212   7.650
 4425POPC   C1B17191  16.921   8.338   8.550
 4425POPC   C2B17192  16.989   8.268   8.250
 4425POPC   C3B17193  16.947   8.276   7.950
 4425POPC   C4B17194  17.005   8.255   7.650
 4426POPC   NC317195  12.032  29.892   9.450
 4426POPC   PO417196  12.121  29.970   9.150
 4426POPC   GL117197  12.067  29.966   8.850
 4426POPC   GL217198  12.077  29.802   8.850
 4426POPC   C1A17199  12.034  29.911   8.550
 4426POPC   D2A17200  12.121  29.948   8.250
 4426POPC   C3A17201  12.108  29.924   7.950
 4426POPC   C4A17202  12.068  29.897   7.650
 4426POPC   C1B17203  12.031  29.637   8.550
 4426POPC   C2B17204  12.030  29.643   8.250
 4426POPC   C3B17205  12.026  29.682   7.950
 4426POPC   C4B17206  12.014  29.669   7.650
 4427POPC   NC317207  22.145  40.006   9.450
 4427POPC   PO417208  22.125  40.016   9.150
 4427POPC   GL117209  22.113  39.958   8.850
 4427POPC   GL217210  22.315  40.096   8.850
 4427POPC   C1A17211  22.210  39.982   8.550
 4427POPC   D2A17212  22.192  40.040   8.250
 4427POPC   C3A17213  22.197  39.994   7.950
 4427POPC   C4A17214  22.210  39.972   7.650
 4427POPC   C1B17215  22.353  40.144   8.550
 4427POPC   C2B17216  22.416  40.108   8.250
 4427POPC   C3B17217  22.408  40.133   7.950
 4427POPC   C4B17218  22.353  40.181   7.650
 4428POPC   NC317219  43.918  20.636   9.450
 4428POPC   PO417220  43.868  20.568   9.150
 4428POPC   GL117221  43.935  20.594   8.850
 4428POPC   GL217222  43.839  20.485   8.850
 4428POPC   C1A17223  43.883  20.570   8.550
 4428POPC   D2A17224  43.851  20.659   8.250
 4428POPC   C3A17225  43.889  20.597   7.950
 4428POPC   C4A17226  43.873  20.642   7.650
 4428POPC   C1B17227  43.738  20.339   8.550
 4428POPC   C2B17228  43.823  20.346   8.250
 4428POPC   C3B17229  43.813  20.375   7.950
 4428POPC   C4B17230  43.744  20.389   7.650
 4429POPC   NC317231  18.254  26.777   9.450
 4429POPC   PO417232  18.250  26.786   9.150
 4429POPC   GL117233  18.238  26.805   8.850
 4429POPC   GL217234  18.351  26.763   8.850
 4429POPC   C1A17235  18.243  26.769   8.550
 4429POPC   D2A17236  18.261  26.834   8.250
 4429POPC   C3A17237  18.307  26.862   7.950
 4429POPC   C4A17238  18.250  26.832   7.650
 4429POPC   C1B17239  18.418  26.603   8.550
 4429POPC   C2B17240  18.424  26.621   8.250
 4429POPC   C3B17241  18.422  26.653   7.950
 4429POPC   C4B17242  18.497  26.659   7.650
 4430POPC   NC317243  11.299  20.577   9.450
 4430POPC   PO417244  11.275  20.617   9.150
 4430POPC   GL117245  11.289  20.638   8.850
 4430POPC   GL217246  11.432  20.549   8.850
 4430POPC   C1A17247  11.302  20.560   8.550
 4430POPC   D2A17248  11.322  20.573   8.250
 4430POPC   C3A17249  11.308  20.572   7.950
 4430POPC   C4A17250  11.326  20.600   7.650
 4430POPC   C1B17251  11.536  20.503   8.550
 4430POPC   C2B17252  11.540  20.457   8.250
 4430POPC   C3B17253  11.507  20.493   7.950
 4430POPC   C4B17254  11.547  20.532   7.650
 4431POPC   NC317255   4.334  42.314   9.450
 4431POPC   PO417256   4.348  42.365   9.150
 4431POPC   GL117257   4.351  42.319   8.850
 4431POPC   GL217258   4.382  42.390   8.850
 4431POPC   C1A17259   4.291  42.312   8.550
 4431POPC   D2A17260   4.349  42.327   8.250
 4431POPC   C3A17261   4.268  42.368   7.950
 4431POPC   C4A17262   4.367  42.315   7.650
 4431POPC   C1B17263   4.466  42.569   8.550
 4431POPC   C2B17264   4.428  42.491   8.250
 4431POPC   C3B17265   4.466  42.577   7.950
 4431POPC   C4B17266   4.489  42.543   7.650
 4432POPC   NC317267   9.708   1.218   9.450
 4432POPC   PO417268   9.723   1.241   9.150
 4432POPC   GL117269   9.752   1.232   8.850
 4432POPC   GL217270   9.645   1.335   8.850
 4432POPC   C1A17271   9.780   1.194   8.550
 4432POPC   D2A17272   9.748   1.199   8.250
 4432POPC   C3A17273   9.753   1.208   7.950
 4432POPC   C4A17274   9.727   1.223   7.650
 4432POPC   C1B17275   9.578   1.380   8.550
 4432POPC   C2B17276   9.557   1.334   8.250
 4432POPC   C3B17277   9.570   1.337   7.950
 4432POPC   C4B17278   9.596   1.359   7.650
 4433POPC   NC317279  25.251  37.672   9.450
 4433POPC   PO417280  25.308  37.688   9.150
 4433POPC   GL117281  25.313  37.680   8.850
 4433POPC   GL217282  25.101  37.745   8.850
 4433POPC   C1A17283  25.280  37.713   8.550
 4433POPC   D2A17284  25.260  37.694   8.250
 4433POPC   C3A17285  25.222  37.669   7.950
 4433POPC   C4A17286  25.271  37.689   7.650
 4433POPC   C1B17287  25.035  37.713   8.550
 4433POPC   C2B17288  25.050  37.789   8.250
 4433POPC   C3B17289  24.979  37.736   7.950
 4433POPC   C4B17290  24.978  37.720   7.650
 4434POPC   NC317291  15.150  18.234   9.450
 4434POPC   PO417292  15.168  18.332   9.150
 4434POPC   GL117293  15.186  18.233   8.850
 4434POPC   GL217294  15.274  18.257   8.850
 4434POPC   C1A17295  15.204  18.297   8.550
 4434POPC   D2A17296  15.146  18.297   8.250
 4434POPC   C3A17297  15.140  18.320   7.950
 4434POPC   C4A17298  15.169  18.324   7.650
 4434POPC   C1B17299  15.467  18.349   8.550
 4434POPC   C2B17300  15.377  18.292   8.250
 4434POPC   C3B17301  15.420  18.369   7.950
 4434POPC   C4B17302  15.389  18.364   7.650
 4435POPC   NC317303   3.572   8.965   9.450
 4435POPC   PO417304   3.567   8.960   9.150
 4435POPC   GL117305   3.562   8.953   8.850
 4435POPC   GL217306   3.438   9.018   8.850
 4435POPC   C1A17307   3.528   8.970   8.550
 4435POPC   D2A17308   3.573   8.954   8.250
 4435POPC   C3A17309   3.503   8.943   7.950
 4435POPC   C4A17310   3.541   9.001   7.650
 4435POPC   C1B17311   3.295   9.072   8.550
 4435POPC   C2B17312   3.271   9.033   8.250
 4435POPC   C3B17313   3.282   9.033   7.950
 4435POPC   C4B17314   3.348   9.095   7.650
 4436POPC   NC317315   1.203  26.842   9.450
 4436POPC   PO417316   1.203  26.795   9.150
 4436POPC   GL117317   1.249  26.855   8.850
 4436POPC   GL217318   1.090  26.848   8.850
 4436POPC   C1A17319   1.178  26.793   8.550
 4436POPC   D2A17320   1.222  26.849   8.250
 4436POPC   C3A17321   1.233  26.813   7.950
 4436POPC   C4A17322   1.182  26.849   7.650
 4436POPC   C1B17323   0.976  26.832   8.550
 4436POPC   C2B17324   0.938  26.818   8.250
 4436POPC   C3B17325   0.951  26.823   7.950
 4436POPC   C4B17326   0.927  26.831   7.650
 4437POPC   NC317327  37.687  17.484   9.450
 4437POPC   PO417328  37.641  17.539   9.150
 4437POPC   GL117329  37.634  17.495   8.850
 4437POPC   GL217330  37.579  17.597   8.850
 4437POPC   C1A17331  37.637  17.472   8.550
 4437POPC   D2A17332  37.653  17.496   8.250
 4437POPC   C3A17333  37.719  17.526   7.950
 4437POPC   C4A17334  37.661  17.529   7.650
 4437POPC   C1B17335  37.553  17.736   8.550
 4437POPC   C2B17336  37.478  17.711   8.250
 4437POPC   C3B17337  37.539  17.652   7.950
 4437POPC   C4B17338  37.535  17.745   7.650
 4438POPC   NC317339  42.345  18.325   9.450
 4438POPC   PO417340  42.331  18.275   9.150
 4438POPC   GL117341  42.344  18.243   8.850
 4438POPC   GL217342  42.217  18.168   8.850
 4438POPC   C1A17343  42.351  18.246   8.550
 4438POPC   D2A17344  42.341  18.298   8.250
 4438POPC   C3A17345  42.365  18.328   7.950
 4438POPC   C4A17346  42.305  18.320   7.650
 4438POPC   C1B17347  42.222  18.097   8.550
 4438POPC   C2B17348  42.219  18.122   8.250
 4438POPC   C3B17349  42.166  18.086   7.950
 4438POPC   C4B17350  42.228  18.038   7.650
 4439POPC   NC317351  25.285  15.969   9.450
 4439POPC   PO417352  25.312  15.915   9.150
 4439POPC   GL117353  25.308  15.959   8.850
 4439POPC   GL217354  25.369  15.870   8.850
 4439POPC   C1A17355  25.310  15.979   8.550
 4439POPC   D2A17356  25.247  15.977   8.250
 4439POPC   C3A17357  25.266  15.990   7.950
 4439POPC   C4A17358  25.277  15.930   7.650
 4439POPC   C1B17359  25.511  15.902   8.550
 4439POPC   C2B17360  25.459  15.902   8.250
 4439POPC   C3B17361  25.469  15.881   7.950
 4439POPC   C4B17362  25.515  15.853   7.650
 4440POPC   NC317363   8.231  41.577   9.450
 4440POPC   PO417364   8.159  41.607   9.150
 4440POPC   GL117365   8.159  41.579   8.850
 4440POPC   GL217366   8.229  41.663   8.850
 4440POPC   C1A17367   8.155  41.530   8.550
 4440POPC   D2A17368   8.243  41.558   8.250
 4440POPC   C3A17369   8.204  41.582   7.950
 4440POPC   C4A17370   8.218  41.530   7.650
 4440POPC   C1B17371   8.286  41.756   8.550
 4440POPC   C2B17372   8.365  41.783   8.250
 4440POPC   C3B17373   8.305  41.720   7.950
 4440POPC   C4B17374   8.327  41.764   7.650
 4441POPC   NC317375   6.604  15.176   9.450
 4441POPC   PO417376   6.613  15.148   9.150
 4441POPC   GL117377   6.644  15.197   8.850
 4441POPC   GL217378   6.691  15.010   8.850
 4441POPC   C1A17379   6.640  15.208   8.550
 4441POPC   D2A17380   6.691  15.133   8.250
 4441POPC   C3A17381   6.598  15.144   7.950
 4441POPC   C4A17382   6.608  15.163   7.650
 4441POPC   C1B17383   6.625  14.930   8.550
 4441POPC   C2B17384   6.655  14.881   8.250
 4441POPC   C3B17385   6.670  14.898   7.950
 4441POPC   C4B17386   6.683  14.923   7.650
 4442POPC   NC317387  18.239  17.515   9.450
 4442POPC   PO417388  18.292  17.556   9.150
 4442POPC   GL117389  18.264  17.554   8.850
 4442POPC   GL217390  18.229  17.416   8.850
 4442POPC   C1A17391  18.305  17.509   8.550
 4442POPC   D2A17392  18.299  17.463   8.250
 4442POPC   C3A17393  18.278  17.513   7.950
 4442POPC   C4A17394  18.235  17.458   7.650
 4442POPC   C1B17395  18.107  17.318   8.550
 4442POPC   C2B17396  18.097  17.358   8.250
 4442POPC   C3B17397  18.100  17.382   7.950
 4442POPC   C4B17398  18.051  17.350   7.650
 4443POPC   NC317399  40.030  34.616   9.450
 4443POPC   PO417400  39.978  34.624   9.150
 4443POPC   GL117401  39.977  34.546   8.850
 4443POPC   GL217402  39.854  34.575   8.850
 4443POPC   C1A17403  40.054  34.568   8.550
 4443POPC   D2A17404  40.017  34.596   8.250
 4443POPC   C3A17405  40.011  34.568   7.950
 4443POPC   C4A17406  40.041  34.596   7.650
 4443POPC   C1B17407  39.765  34.673   8.550
 4443POPC   C2B17408  39.725  34.654   8.250
 4443POPC   C3B17409  39.778  34.632   7.950
 4443POPC   C4B17410  39.770  34.623   7.650
 4444POPC   NC317411  44.633   2.806   9.450
 4444POPC   PO417412  44.616   2.812   9.150
 4444POPC   GL117413  44.615   2.718   8.850
 4444POPC   GL217414  44.777   2.740   8.850
 4444POPC   C1A17415  44.621   2.792   8.550
 4444POPC   D2A17416  44.684   2.731   8.250
 4444POPC   C3A17417  44.707   2.753   7.950
 4444POPC   C4A17418  44.705   2.754   7.650
 4444POPC   C1B17419  44.916   2.634   8.550
 4444POPC   C2B17420  44.946   2.631   8.250
 4444POPC   C3B17421  44.857   2.666   7.950
 4444POPC   C4B17422  44.879   2.688   7.650
 4445POPC   NC317423  36.124   4.345   9.450
 4445POPC   PO417424  36.096   4.347   9.150
 4445POPC   GL117425  36.174   4.276   8.850
 4445POPC   GL217426  36.133   4.176   8.850
 4445POPC   C1A17427  36.102   4.286   8.550
 4445POPC   D2A17428  36.152   4.308   8.250
 4445POPC   C3A17429  36.110   4.282   7.950
 4445POPC   C4A17430  36.156   4.319   7.650
 4445POPC   C1B17431  36.266   4.075   8.550
 4445POPC   C2B17432  36.240   4.114   8.250
 4445POPC   C3B17433  36.186   4.129   7.950
 4445POPC   C4B17434  36.212   4.072   7.650
 4446POPC   NC317435  19.798  44.705   9.450
 4446POPC   PO417436  19.790  44.647   9.150
 4446POPC   GL117437  19.826  44.624   8.850
 4446POPC   GL217438  19.754  44.766   8.850
 4446POPC   C1A17439  19.863  44.669   8.550
 4446POPC   D2A17440  19.851  44.673   8.250
 4446POPC   C3A17441  19.804  44.613   7.950
 4446POPC   C4A17442  19.879  44.688   7.650
 4446POPC   C1B17443  19.614  44.816   8.550
 4446POPC   C2B17444  19.602  44.767   8.250
 4446POPC   C3B17445  19.647  44.843   7.950
 4446POPC   C4B17446  19.679  44.810   7.650
 4447POPC   NC317447  25.266   8.189   9.450
 4447POPC   PO417448  25.277   8.244   9.150
 4447POPC   GL117449  25.297   8.200   8.850
 4447POPC   GL217450  25.310   8.062   8.850
 4447POPC   C1A17451  25.287   8.201   8.550
 4447POPC   D2A17452  25.306   8.242   8.250
 4447POPC   C3A17453  25.273   8.157   7.950
 4447POPC   C4A17454  25.244   8.153   7.650
 4447POPC   C1B17455  25.261   7.989   8.550
 4447POPC   C2B17456  25.223   7.974   8.250
 4447POPC   C3B17457  25.288   7.934   7.950
 4447POPC   C4B17458  25.283   7.988   7.650
 4448POPC   NC317459  24.522  44.662   9.450
 4448POPC   PO417460  24.451  44.712   9.150
 4448POPC   GL117461  24.458  44.671   8.850
 4448POPC   GL217462  24.574  44.696   8.850
 4448POPC   C1A17463  24.517  44.652   8.550
 4448POPC   D2A17464  24.448  44.709   8.250
 4448POPC   C3A17465  24.504  44.663   7.950
 4448POPC   C4A17466  24.459  44.674   7.650
 4448POPC   C1B17467  24.659  44.759   8.550
 4448POPC   C2B17468  24.733  44.813   8.250
 4448POPC   C3B17469  24.747  44.761   7.950
 4448POPC   C4B17470  24.755  44.761   7.650
 4449POPC   NC317471  22.180  22.162   9.450
 4449POPC   PO417472  22.186  22.144   9.150
 4449POPC   GL117473  22.152  22.118   8.850
 4449POPC   GL217474  22.122  22.262   8.850
 4449POPC   C1A17475  22.211  22.141   8.550
 4449POPC   D2A17476  22.125  22.173   8.250
 4449POPC   C3A17477  22.197  22.150   7.950
 4449POPC   C4A17478  22.114  22.210   7.650
 4449POPC   C1B17479  22.146  22.373   8.550
 4449POPC   C2B17480  22.118  22.410   8.250
 4449POPC   C3B17481  22.120  22.415   7.950
 4449POPC   C4B17482  22.209  22.425   7.650
 4450POPC   NC317483  17.525  43.863   9.450
 4450POPC   PO417484  17.469  43.854   9.150
 4450POPC   GL117485  17.523  43.857   8.850
 4450POPC   GL217486  17.559  43.843   8.850
 4450POPC   C1A17487  17.469  43.899   8.550
 4450POPC   D2A17488  17.506  43.921   8.250
 4450POPC   C3A17489  17.553  43.881   7.950
 4450POPC   C4A17490  17.547  43.881   7.650
 4450POPC   C1B17491  17.704  43.691   8.550
 4450POPC   C2B17492  17.689  43.678   8.250
 4450POPC   C3B17493  17.652  43.764   7.950
 4450POPC   C4B17494  17.653  43.720   7.650
 4451POPC   NC317495   4.364   8.234   9.450
 4451POPC   PO417496   4.282   8.232   9.150
 4451POPC   GL117497   4.283   8.218   8.850
 4451POPC   GL217498   4.249   8.109   8.850
 4451POPC   C1A17499   4.352   8.174   8.550
 4451POPC   D2A17500   4.327   8.147   8.250
 4451POPC   C3A17501   4.287   8.184   7.950
 4451POPC   C4A17502   4.286   8.148   7.650
 4451POPC   C1B17503   4.099   8.067   8.550
 4451POPC   C2B17504   4.082   8.045   8.250
 4451POPC   C3B17505   4.061   8.104   7.950
 4451POPC   C4B17506   4.077   8.135   7.650
 4452POPC   NC317507  37.698  42.305   9.450
 4452POPC   PO417508  37.722  42.359   9.150
 4452POPC   GL117509  37.710  42.359   8.850
 4452POPC   GL217510  37.643  42.401   8.850
 4452POPC   C1A17511  37.666  42.314   8.550
 4452POPC   D2A17512  37.686  42.373   8.250
 4452POPC   C3A17513  37.661  42.285   7.950
 4452POPC   C4A17514  37.719  42.361   7.650
 4452POPC   C1B17515  37.517  42.537   8.550
 4452POPC   C2B17516  37.514  42.588   8.250
 4452POPC   C3B17517  37.562  42.547   7.950
 4452POPC   C4B17518  37.594  42.512   7.650
 4453POPC   NC317519   8.202  17.513   9.450
 4453POPC   PO417520   8.176  17.556   9.150
 4453POPC   GL117521   8.161  17.489   8.850
 4453POPC   GL217522   8.099  17.550   8.850
 4453POPC   C1A17523   8.193  17.510   8.550
 4453POPC   D2A17524   8.190  17.484   8.250
 4453POPC   C3A17525   8.161  17.475   7.950
 4453POPC   C4A17526   8.189  17.483   7.650
 4453POPC   C1B17527   7.977  17.727   8.550
 4453POPC   C2B17528   7.997  17.719   8.250
 4453POPC   C3B17529   8.033  17.705   7.950
 4453POPC   C4B17530   8.023  17.701   7.650
 4454POPC   NC317531   3.500  24.539   9.450
 4454POPC   PO417532   3.531  24.459   9.150
 4454POPC   GL117533   3.508  24.447   8.850
 4454POPC   GL217534   3.560  24.376   8.850
 4454POPC   C1A17535   3.495  24.534   8.550
 4454POPC   D2A17536   3.575  24.486   8.250
 4454POPC   C3A17537   3.509  24.442   7.950
 4454POPC   C4A17538   3.538  24.443   7.650
 4454POPC   C1B17539   3.576  24.206   8.550
 4454POPC   C2B17540   3.563  24.289   8.250
 4454POPC   C3B17541   3.575  24.228   7.950
 4454POPC   C4B17542   3.630  24.227   7.650
 4455POPC   NC317543  17.552  40.816   9.450
 4455POPC   PO417544  17.483  40.818   9.150
 4455POPC   GL117545  17.546  40.734   8.850
 4455POPC   GL217546  17.605  40.869   8.850
 4455POPC   C1A17547  17.550  40.765   8.550
 4455POPC   D2A17548  17.474  40.820   8.250
 4455POPC   C3A17549  17.511  40.764   7.950
 4455POPC   C4A17550  17.468  40.779   7.650
 4455POPC   C1B17551  17.672  40.984   8.550
 4455POPC   C2B17552  17.605  40.936   8.250
 4455POPC   C3B17553  17.668  40.952   7.950
 4455POPC   C4B17554  17.695  40.940   7.650
 4456POPC   NC317555  22.919  43.888   9.450
 4456POPC   PO417556  22.908  43.883   9.150
 4456POPC   GL117557  22.897  43.885   8.850
 4456POPC   GL217558  23.021  43.985   8.850
 4456POPC   C1A17559  22.957  43.882   8.550
 4456POPC   D2A17560  22.968  43.865   8.250
 4456POPC   C3A17561  22.910  43.930   7.950
 4456POPC   C4A17562  22.946  43.848   7.650
 4456POPC   C1B17563  23.056  44.115   8.550
 4456POPC   C2B17564  23.084  44.085   8.250
 4456POPC   C3B17565  23.079  44.124   7.950
 4456POPC   C4B17566  23.050  44.126   7.650
 4457POPC   NC317567  26.001  31.425   9.450
 4457POPC   PO417568  26.019  31.469   9.150
 4457POPC   GL117569  26.005  31.456   8.850
 4457POPC   GL217570  25.902  31.436   8.850
 4457POPC   C1A17571  26.013  31.434   8.550
 4457POPC   D2A17572  26.023  31.491   8.250
 4457POPC   C3A17573  26.022  31.425   7.950
 4457POPC   C4A17574  26.049  31.495   7.650
 4457POPC   C1B17575  25.801  31.382   8.550
 4457POPC   C2B17576  25.806  31.435   8.250
 4457POPC   C3B17577  25.794  31.399   7.950
 4457POPC   C4B17578  25.809  31.416   7.650
 4458POPC   NC317579  36.911   1.962   9.450
 4458POPC   PO417580  36.859   1.995   9.150
 4458POPC   GL117581  36.880   1.942   8.850
 4458POPC   GL217582  37.008   1.995   8.850
 4458POPC   C1A17583  36.871   1.963   8.550
 4458POPC   D2A17584  36.927   2.026   8.250
 4458POPC   C3A17585  36.858   1.956   7.950
 4458POPC   C4A17586  36.894   1.958   7.650
 4458POPC   C1B17587  37.158   2.102   8.550
 4458POPC   C2B17588  37.186   2.062   8.250
 4458POPC   C3B17589  37.175   2.084   7.950
 4458POPC   C4B17590  37.107   2.039   7.650
 4459POPC   NC317591  29.874   1.244   9.450
 4459POPC   PO417592  29.918   1.252   9.150
 4459POPC   GL117593  29.888   1.231   8.850
 4459POPC   GL217594  29.978   1.339   8.850
 4459POPC   C1A17595  29.921   1.181   8.550
 4459POPC   D2A17596  29.922   1.234   8.250
 4459POPC   C3A17597  29.908   1.255   7.950
 4459POPC   C4A17598  29.938   1.227   7.650
 4459POPC   C1B17599  30.073   1.448   8.550
 4459POPC   C2B17600  30.052   1.476   8.250
 4459POPC   C3B17601  30.023   1.455   7.950
 4459POPC   C4B17602  30.070   1.427   7.650
 4460POPC   NC317603  38.480   1.979   9.450
 4460POPC   PO417604  38.471   1.972   9.150
 4460POPC   GL117605  38.456   1.995   8.850
 4460POPC   GL217606  38.625   1.948   8.850
 4460POPC   C1A17607  38.424   1.987   8.550
 4460POPC   D2A17608  38.406   1.941   8.250
 4460POPC   C3A17609  38.433   1.982   7.950
 4460POPC   C4A17610  38.498   2.034   7.650
 4460POPC   C1B17611  38.716   2.011   8.550
 4460POPC   C2B17612  38.676   2.037   8.250
 4460POPC   C3B17613  38.699   1.987   7.950
 4460POPC   C4B17614  38.685   1.958   7.650
 4461POPC   NC317615  43.916  10.571   9.450
 4461POPC   PO417616  43.924  10.511   9.150
 4461POPC   GL117617  43.884  10.531   8.850
 4461POPC   GL217618  43.954  10.421   8.850
 4461POPC   C1A17619  43.864  10.496   8.550
 4461POPC   D2A17620  43.931  10.523   8.250
 4461POPC   C3A17621  43.868  10.573   7.950
 4461POPC   C4A17622  43.846  10.495   7.650
 4461POPC   C1B17623  43.983  10.337   8.550
 4461POPC   C2B17624  43.959  10.316   8.250
 4461POPC   C3B17625  43.922  10.296   7.950
 4461POPC   C4B17626  43.959  10.247   7.650
 4462POPC   NC317627   0.413   1.170   9.450
 4462POPC   PO417628   0.456   1.259   9.150
 4462POPC   GL117629   0.401   1.188   8.850
 4462POPC   GL217630   0.434   1.055   8.850
 4462POPC   C1A17631   0.484   1.248   8.550
 4462POPC   D2A17632   0.460   1.167   8.250
 4462POPC   C3A17633   0.413   1.237   7.950
 4462POPC   C4A17634   0.441   1.164   7.650
 4462POPC   C1B17635   0.507   0.963   8.550
 4462POPC   C2B17636   0.449   0.961   8.250
 4462POPC   C3B17637   0.522   0.974   7.950
 4462POPC   C4B17638   0.456   1.016   7.650
 4463POPC   NC317639  32.992  41.601   9.450
 4463POPC   PO417640  33.030  41.550   9.150
 4463POPC   GL117641  32.999  41.586   8.850
 4463POPC   GL217642  33.094  41.680   8.850
 4463POPC   C1A17643  33.007  41.528   8.550
 4463POPC   D2A17644  33.072  41.516   8.250
 4463POPC   C3A17645  33.015  41.515   7.950
 4463POPC   C4A17646  33.073  41.524   7.650
 4463POPC   C1B17647  33.182  41.749   8.550
 4463POPC   C2B17648  33.191  41.733   8.250
 4463POPC   C3B17649  33.182  41.745   7.950
 4463POPC   C4B17650  33.146  41.811   7.650
 4464POPC   NC317651  40.034  36.103   9.450
 4464POPC   PO417652  40.007  36.173   9.150
 4464POPC   GL117653  40.023  36.176   8.850
 4464POPC   GL217654  40.034  36.268   8.850
 4464POPC   C1A17655  40.035  36.132   8.550
 4464POPC   D2A17656  40.032  36.100   8.250
 4464POPC   C3A17657  40.038  36.159   7.950
 4464POPC   C4A17658  39.995  36.078   7.650
 4464POPC   C1B17659  39.999  36.373   8.550
 4464POPC   C2B17660  40.010  36.328   8.250
 4464POPC   C3B17661  40.054  36.425   7.950
 4464POPC   C4B17662  40.033  36.360   7.650
 4465POPC   NC317663  20.627  25.307   9.450
 4465POPC   PO417664  20.620  25.271   9.150
 4465POPC   GL117665  20.564  25.242   8.850
 4465POPC   GL217666  20.730  25.282   8.850
 4465POPC   C1A17667  20.635  25.308   8.550
 4465POPC   D2A17668  20.597  25.250   8.250
 4465POPC   C3A17669  20.631  25.292   7.950
 4465POPC   C4A17670  20.614  25.252   7.650
 4465POPC   C1B17671  20.821  25.205   8.550
 4465POPC   C2B17672  20.852  25.229   8.250
 4465POPC   C3B17673  20.868  25.257   7.950
 4465POPC   C4B17674  20.909  25.217   7.650
 4466POPC   NC317675  21.377  38.414   9.450
 4466POPC   PO417676  21.393  38.486   9.150
 4466POPC   GL117677  21.370  38.423   8.850
 4466POPC   GL217678  21.353  38.340   8.850
 4466POPC   C1A17679  21.382  38.496   8.550
 4466POPC   D2A17680  21.433  38.466   8.250
 4466POPC   C3A17681  21.401  38.424   7.950
 4466POPC   C4A17682  21.414  38.426   7.650
 4466POPC   C1B17683  21.379  38.236   8.550
 4466POPC   C2B17684  21.460  38.183   8.250
 4466POPC   C3B17685  21.380  38.224   7.950
 4466POPC   C4B17686  21.369  38.226   7.650
 4467POPC   NC317687  10.487  19.803   9.450
 4467POPC   PO417688  10.523  19.799   9.150
 4467POPC   GL117689  10.532  19.805   8.850
 4467POPC   GL217690  10.470  19.760   8.850
 4467POPC   C1A17691  10.498  19.832   8.550
 4467POPC   D2A17692  10.537  19.810   8.250
 4467POPC   C3A17693  10.555  19.882   7.950
 4467POPC   C4A17694  10.497  19.796   7.650
 4467POPC   C1B17695  10.437  19.556   8.550
 4467POPC   C2B17696  10.461  19.612   8.250
 4467POPC   C3B17697  10.388  19.569   7.950
 4467POPC   C4B17698  10.443  19.611   7.650
 4468POPC   NC317699   9.727  11.278   9.450
 4468POPC   PO417700   9.774  11.281   9.150
 4468POPC   GL117701   9.755  11.329   8.850
 4468POPC   GL217702   9.848  11.382   8.850
 4468POPC   C1A17703   9.726  11.316   8.550
 4468POPC   D2A17704   9.764  11.267   8.250
 4468POPC   C3A17705   9.738  11.350   7.950
 4468POPC   C4A17706   9.769  11.329   7.650
 4468POPC   C1B17707   9.881  11.474   8.550
 4468POPC   C2B17708   9.839  11.505   8.250
 4468POPC   C3B17709   9.836  11.542   7.950
 4468POPC   C4B17710   9.907  11.532   7.650
 4469POPC   NC317711   4.344  12.879   9.450
 4469POPC   PO417712   4.332  12.836   9.150
 4469POPC   GL117713   4.353  12.804   8.850
 4469POPC   GL217714   4.238  12.764   8.850
 4469POPC   C1A17715   4.280  12.839   8.550
 4469POPC   D2A17716   4.276  12.832   8.250
 4469POPC   C3A17717   4.319  12.805   7.950
 4469POPC   C4A17718   4.357  12.839   7.650
 4469POPC   C1B17719   4.069  12.719   8.550
 4469POPC   C2B17720   4.064  12.783   8.250
 4469POPC   C3B17721   4.036  12.788   7.950
 4469POPC   C4B17722   4.079  12.751   7.650
 4470POPC   NC317723   6.684  25.253   9.450
 4470POPC   PO417724   6.651  25.252   9.150
 4470POPC   GL117725   6.653  25.222   8.850
 4470POPC   GL217726   6.565  25.374   8.850
 4470POPC   C1A17727   6.606  25.237   8.550
 4470POPC   D2A17728   6.598  25.274   8.250
 4470POPC   C3A17729   6.630  25.221   7.950
 4470POPC   C4A17730   6.661  25.221   7.650
 4470POPC   C1B17731   6.457  25.380   8.550
 4470POPC   C2B17732   6.421  25.365   8.250
 4470POPC   C3B17733   6.442  25.440   7.950
 4470POPC   C4B17734   6.478  25.404   7.650
 4471POPC   NC317735  43.147  12.064   9.450
 4471POPC   PO417736  43.140  12.113   9.150
 4471POPC   GL117737  43.074  12.067   8.850
 4471POPC   GL217738  43.071  11.944   8.850
 4471POPC   C1A17739  43.064  12.096   8.550
 4471POPC   D2A17740  43.074  12.099   8.250
 4471POPC   C3A17741  43.109  12.080   7.950
 4471POPC   C4A17742  43.068  12.121   7.650
 4471POPC   C1B17743  42.993  11.881   8.550
 4471POPC   C2B17744  42.949  11.831   8.250
 4471POPC   C3B17745  42.945  11.858   7.950
 4471POPC   C4B17746  42.992  11.905   7.650
 4472POPC   NC317747  11.308   7.448   9.450
 4472POPC   PO417748  11.337   7.429   9.150
 4472POPC   GL117749  11.297   7.371   8.850
 4472POPC   GL217750  11.163   7.383   8.850
 4472POPC   C1A17751  11.350   7.375   8.550
 4472POPC   D2A17752  11.339   7.417   8.250
 4472POPC   C3A17753  11.288   7.419   7.950
 4472POPC   C4A17754  11.314   7.460   7.650
 4472POPC   C1B17755  11.147   7.265   8.550
 4472POPC   C2B17756  11.154   7.280   8.250
 4472POPC   C3B17757  11.150   7.243   7.950
 4472POPC   C4B17758  11.126   7.257   7.650
 4473POPC   NC317759   0.471  26.065   9.450
 4473POPC   PO417760   0.460  26.089   9.150
 4473POPC   GL117761   0.486  26.080   8.850
 4473POPC   GL217762   0.504  25.975   8.850
 4473POPC   C1A17763   0.448  26.067   8.550
 4473POPC   D2A17764   0.447  26.068   8.250
 4473POPC   C3A17765   0.430  26.017   7.950
 4473POPC   C4A17766   0.417  26.047   7.650
 4473POPC   C1B17767   0.547  25.801   8.550
 4473POPC   C2B17768   0.527  25.795   8.250
 4473POPC   C3B17769   0.568  25.845   7.950
 4473POPC   C4B17770   0.515  25.862   7.650
 4474POPC   NC317771   9.787  19.861   9.450
 4474POPC   PO417772   9.792  19.868   9.150
 4474POPC   GL117773   9.796  19.817   8.850
 4474POPC   GL217774   9.604  19.744   8.850
 4474POPC   C1A17775   9.722  19.819   8.550
 4474POPC   D2A17776   9.778  19.849   8.250
 4474POPC   C3A17777   9.774  19.831   7.950
 4474POPC   C4A17778   9.732  19.853   7.650
 4474POPC   C1B17779   9.557  19.670   8.550
 4474POPC   C2B17780   9.546  19.722   8.250
 4474POPC   C3B17781   9.528  19.709   7.950
 4474POPC   C4B17782   9.603  19.651   7.650
 4475POPC   NC317783  36.856   7.454   9.450
 4475POPC   PO417784  36.861   7.385   9.150
 4475POPC   GL117785  36.870   7.442   8.850
 4475POPC   GL217786  36.960   7.557   8.850
 4475POPC   C1A17787  36.946   7.432   8.550
 4475POPC   D2A17788  36.917   7.376   8.250
 4475POPC   C3A17789  36.885   7.403   7.950
 4475POPC   C4A17790  36.921   7.453   7.650
 4475POPC   C1B17791  36.990   7.670   8.550
 4475POPC   C2B17792  36.980   7.685   8.250
 4475POPC   C3B17793  36.987   7.693   7.950
 4475POPC   C4B17794  36.944   7.612   7.650
 4476POPC   NC317795   8.953   3.514   9.450
 4476POPC   PO417796   8.931   3.505   9.150
 4476POPC   GL117797   8.978   3.584   8.850
 4476POPC   GL217798   9.083   3.464   8.850
 4476POPC   C1A17799   8.981   3.573   8.550
 4476POPC   D2A17800   8.956   3.542   8.250
 4476POPC   C3A17801   8.936   3.505   7.950
 4476POPC   C4A17802   8.949   3.505   7.650
 4476POPC   C1B17803   9.191   3.467   8.550
 4476POPC   C2B17804   9.233   3.453   8.250
 4476POPC   C3B17805   9.201   3.438   7.950
 4476POPC   C4B17806   9.180   3.488   7.650
 4477POPC   NC317807  12.888  22.143   9.450
 4477POPC   PO417808  12.851  22.201   9.150
 4477POPC   GL117809  12.835  22.142   8.850
 4477POPC   GL217810  12.819  21.989   8.850
 4477POPC   C1A17811  12.811  22.209   8.550
 4477POPC   D2A17812  12.824  22.125   8.250
 4477POPC   C3A17813  12.892  22.203   7.950
 4477POPC   C4A17814  12.804  22.185   7.650
 4477POPC   C1B17815  12.824  21.892   8.550
 4477POPC   C2B17816  12.902  21.920   8.250
 4477POPC   C3B17817  12.848  21.952   7.950
 4477POPC   C4B17818  12.816  21.868   7.650
 4478POPC   NC317819  24.454   8.199   9.450
 4478POPC   PO417820  24.467   8.241   9.150
 4478POPC   GL117821  24.506   8.206   8.850
 4478POPC   GL217822  24.440   8.154   8.850
 4478POPC   C1A17823  24.451   8.245   8.550
 4478POPC   D2A17824  24.474   8.201   8.250
 4478POPC   C3A17825  24.492   8.191   7.950
 4478POPC   C4A17826  24.478   8.227   7.650
 4478POPC   C1B17827  24.252   8.079   8.550
 4478POPC   C2B17828  24.302   8.028   8.250
 4478POPC   C3B17829  24.350   8.048   7.950
 4478POPC   C4B17830  24.259   8.002   7.650
 4479POPC   NC317831   8.934   2.807   9.450
 4479POPC   PO417832   8.978   2.734   9.150
 4479POPC   GL117833   8.998   2.738   8.850
 4479POPC   GL217834   9.105   2.767   8.850
 4479POPC   C1A17835   9.017   2.815   8.550
 4479POPC   D2A17836   8.934   2.811   8.250
 4479POPC   C3A17837   9.020   2.719   7.950
 4479POPC   C4A17838   8.958   2.804   7.650
 4479POPC   C1B17839   9.185   2.839   8.550
 4479POPC   C2B17840   9.261   2.763   8.250
 4479POPC   C3B17841   9.182   2.837   7.950
 4479POPC   C4B17842   9.211   2.796   7.650
 4480POPC   NC317843  18.277  40.759   9.450
 4480POPC   PO417844  18.242  40.789   9.150
 4480POPC   GL117845  18.310  40.802   8.850
 4480POPC   GL217846  18.204  40.783   8.850
 4480POPC   C1A17847  18.297  40.827   8.550
 4480POPC   D2A17848  18.319  40.760   8.250
 4480POPC   C3A17849  18.300  40.803   7.950
 4480POPC   C4A17850  18.322  40.823   7.650
 4480POPC   C1B17851  18.011  40.700   8.550
 4480POPC   C2B17852  18.000  40.677   8.250
 4480POPC   C3B17853  18.077  40.674   7.950
 4480POPC   C4B17854  18.093  40.691   7.650
 4481POPC   NC317855  38.442  40.752   9.450
 4481POPC   PO417856  38.467  40.767   9.150
 4481POPC   GL117857  38.490  40.750   8.850
 4481POPC   GL217858  38.561  40.888   8.850
 4481POPC   C1A17859  38.437  40.828   8.550
 4481POPC   D2A17860  38.473  40.775   8.250
 4481POPC   C3A17861  38.479  40.798   7.950
 4481POPC   C4A17862  38.440  40.800   7.650
 4481POPC   C1B17863  38.582  41.015   8.550
 4481POPC   C2B17864  38.587  41.021   8.250
 4481POPC   C3B17865  38.640  41.009   7.950
 4481POPC   C4B17866  38.599  40.963   7.650
 4482POPC   NC317867  35.396  37.682   9.450
 4482POPC   PO417868  35.311  37.630   9.150
 4482POPC   GL117869  35.357  37.656   8.850
 4482POPC   GL217870  35.493  37.759   8.850
 4482POPC   C1A17871  35.366  37.714   8.550
 4482POPC   D2A17872  35.332  37.661   8.250
 4482POPC   C3A17873  35.395  37.698   7.950
 4482POPC   C4A17874  35.401  37.715   7.650
 4482POPC   C1B17875  35.555  37.763   8.550
 4482POPC   C2B17876  35.547  37.800   8.250
 4482POPC   C3B17877  35.621  37.739   7.950
 4482POPC   C4B17878  35.573  37.717   7.650
 4483POPC   NC317879   5.870  29.930   9.450
 4483POPC   PO417880   5.879  29.879   9.150
 4483POPC   GL117881   5.915  29.952   8.850
 4483POPC   GL217882   5.911  30.015   8.850
 4483POPC   C1A17883   5.866  29.876   8.550
 4483POPC   D2A17884   5.910  29.942   8.250
 4483POPC   C3A17885   5.915  29.899   7.950
 4483POPC   C4A17886   5.897  29.921   7.650
 4483POPC   C1B17887   5.986  30.117   8.550
 4483POPC   C2B17888   5.937  30.202   8.250
 4483POPC   C3B17889   5.895  30.177   7.950
 4483POPC   C4B17890   5.951  30.171   7.650
 4484POPC   NC317891   1.201   5.863   9.450
 4484POPC   PO417892   1.175   5.898   9.150
 4484POPC   GL117893   1.249   5.822   8.850
 4484POPC   GL217894   1.124   5.899   8.850
 4484POPC   C1A17895   1.249   5.824   8.550
 4484POPC   D2A17896   1.203   5.896   8.250
 4484POPC   C3A17897   1.218   5.892   7.950
 4484POPC   C4A17898   1.254   5.831   7.650
 4484POPC   C1B17899   0.949   5.904   8.550
 4484POPC   C2B17900   0.952   5.852   8.250
 4484POPC   C3B17901   0.952   5.845   7.950
 4484POPC   C4B17902   0.987   5.871   7.650
 4485POPC   NC317903   8.225  42.332   9.450
 4485POPC   PO417904   8.153  42.286   9.150
 4485POPC   GL117905   8.214  42.346   8.850
 4485POPC   GL217906   8.161  42.477   8.850
 4485POPC   C1A17907   8.190  42.288   8.550
 4485POPC   D2A17908   8.219  42.296   8.250
 4485POPC   C3A17909   8.219  42.379   7.950
 4485POPC   C4A17910   8.227  42.377   7.650
 4485POPC   C1B17911   8.004  42.500   8.550
 4485POPC   C2B17912   8.095  42.552   8.250
 4485POPC   C3B17913   8.079  42.568   7.950
 4485POPC   C4B17914   8.091  42.523   7.650
 4486POPC   NC317915  26.787  36.123   9.450
 4486POPC   PO417916  26.815  36.138   9.150
 4486POPC   GL117917  26.785  36.154   8.850
 4486POPC   GL217918  26.651  36.178   8.850
 4486POPC   C1A17919  26.861  36.115   8.550
 4486POPC   D2A17920  26.770  36.088   8.250
 4486POPC   C3A17921  26.834  36.126   7.950
 4486POPC   C4A17922  26.863  36.120   7.650
 4486POPC   C1B17923  26.541  36.171   8.550
 4486POPC   C2B17924  26.579  36.134   8.250
 4486POPC   C3B17925  26.599  36.190   7.950
 4486POPC   C4B17926  26.527  36.181   7.650
 4487POPC   NC317927  33.839  29.960   9.450
 4487POPC   PO417928  33.756  29.892   9.150
 4487POPC   GL117929  33.754  29.879   8.850
 4487POPC   GL217930  33.717  30.040   8.850
 4487POPC   C1A17931  33.768  29.963   8.550
 4487POPC   D2A17932  33.758  29.967   8.250
 4487POPC   C3A17933  33.829  29.898   7.950
 4487POPC   C4A17934  33.774  29.908   7.650
 4487POPC   C1B17935  33.681  30.109   8.550
 4487POPC   C2B17936  33.660  30.180   8.250
 4487POPC   C3B17937  33.678  30.115   7.950
 4487POPC   C4B17938  33.655  30.163   7.650
 4488POPC   NC317939  35.369  15.144   9.450
 4488POPC   PO417940  35.363  15.228   9.150
 4488POPC   GL117941  35.322  15.153   8.850
 4488POPC   GL217942  35.514  15.108   8.850
 4488POPC   C1A17943  35.308  15.204   8.550
 4488POPC   D2A17944  35.385  15.147   8.250
 4488POPC   C3A17945  35.339  15.150   7.950
 4488POPC   C4A17946  35.395  15.210   7.650
 4488POPC   C1B17947  35.544  15.112   8.550
 4488POPC   C2B17948  35.606  15.076   8.250
 4488POPC   C3B17949  35.629  15.163   7.950
 4488POPC   C4B17950  35.549  15.083   7.650
 4489POPC   NC317951  19.014   6.597   9.450
 4489POPC   PO417952  19.020   6.641   9.150
 4489POPC   GL117953  19.031   6.672   8.850
 4489POPC   GL217954  18.992   6.712   8.850
 4489POPC   C1A17955  19.060   6.656   8.550
 4489POPC   D2A17956  19.074   6.689   8.250
 4489POPC   C3A17957  19.045   6.672   7.950
 4489POPC   C4A17958  19.026   6.655   7.650
 4489POPC   C1B17959  18.910   6.772   8.550
 4489POPC   C2B17960  18.815   6.802   8.250
 4489POPC   C3B17961  18.819   6.803   7.950
 4489POPC   C4B17962  18.819   6.838   7.650
 4490POPC   NC317963  43.871  26.027   9.450
 4490POPC   PO417964  43.913  26.072   9.150
 4490POPC   GL117965  43.859  26.029   8.850
 4490POPC   GL217966  43.888  25.936   8.850
 4490POPC   C1A17967  43.901  26.029   8.550
 4490POPC   D2A17968  43.886  26.049   8.250
 4490POPC   C3A17969  43.858  26.080   7.950
 4490POPC   C4A17970  43.840  26.005   7.650
 4490POPC   C1B17971  43.766  25.770   8.550
 4490POPC   C2B17972  43.810  25.772   8.250
 4490POPC   C3B17973  43.779  25.804   7.950
 4490POPC   C4B17974  43.803  25.804   7.650
 4491POPC   NC317975  33.756   8.242   9.450
 4491POPC   PO417976  33.786   8.241   9.150
 4491POPC   GL117977  33.817   8.149   8.850
 4491POPC   GL217978  33.807   8.071   8.850
 4491POPC   C1A17979  33.843   8.245   8.550
 4491POPC   D2A17980  33.805   8.221   8.250
 4491POPC   C3A17981  33.770   8.174   7.950
 4491POPC   C4A17982  33.753   8.197   7.650
 4491POPC   C1B17983  33.788   7.971   8.550
 4491POPC   C2B17984  33.821   7.909   8.250
 4491POPC   C3B17985  33.758   7.967   7.950
 4491POPC   C4B17986  33.814   7.951   7.650
 4492POPC   NC317987   9.718  27.625   9.450
 4492POPC   PO417988   9.701  27.621   9.150
 4492POPC   GL117989   9.753  27.622   8.850
 4492POPC   GL217990   9.913  27.656   8.850
 4492POPC   C1A17991   9.797  27.628   8.550
 4492POPC   D2A17992   9.770  27.596   8.250
 4492POPC   C3A17993   9.768  27.563   7.950
 4492POPC   C4A17994   9.702  27.590   7.650
 4492POPC   C1B17995   9.975  27.652   8.550
 4492POPC   C2B17996  10.019  27.587   8.250
 4492POPC   C3B17997   9.998  27.574   7.950
 4492POPC   C4B17998   9.996  27.650   7.650
 4493POPC   NC317999  24.447  20.627   9.450
 4493POPC   PO418000  24.494  20.635   9.150
 4493POPC   GL118001  24.486  20.603   8.850
 4493POPC   GL218002  24.423  20.730   8.850
 4493POPC   C1A18003  24.529  20.587   8.550
 4493POPC   D2A18004  24.452  20.638   8.250
 4493POPC   C3A18005  24.522  20.567   7.950
 4493POPC   C4A18006  24.534  20.602   7.650
 4493POPC   C1B18007  24.419  20.836   8.550
 4493POPC   C2B18008  24.494  20.868   8.250
 4493POPC   C3B18009  24.451  20.851   7.950
 4493POPC   C4B18010  24.455  20.834   7.650
 4494POPC   NC318011  37.706  31.463   9.450
 4494POPC   PO418012  37.725  31.446   9.150
 4494POPC   GL118013  37.719  31.470   8.850
 4494POPC   GL218014  37.788  31.578   8.850
 4494POPC   C1A18015  37.695  31.454   8.550
 4494POPC   D2A18016  37.674  31.433   8.250
 4494POPC   C3A18017  37.708  31.453   7.950
 4494POPC   C4A18018  37.702  31.515   7.650
 4494POPC   C1B18019  37.808  31.653   8.550
 4494POPC   C2B18020  37.794  31.741   8.250
 4494POPC   C3B18021  37.781  31.707   7.950
 4494POPC   C4B18022  37.787  31.670   7.650
 4495POPC   NC318023  36.854  44.641   9.450
 4495POPC   PO418024  36.875  44.646   9.150
 4495POPC   GL118025  36.880  44.638   8.850
 4495POPC   GL218026  36.789  44.648   8.850
 4495POPC   C1A18027  36.941  44.650   8.550
 4495POPC   D2A18028  36.932  44.637   8.250
 4495POPC   C3A18029  36.892  44.619   7.950
 4495POPC   C4A18030  36.921  44.699   7.650
 4495POPC   C1B18031  36.675  44.722   8.550
 4495POPC   C2B18032  36.712  44.733   8.250
 4495POPC   C3B18033  36.625  44.772   7.950
 4495POPC   C4B18034  36.629  44.771   7.650
 4496POPC   NC318035   5.859  14.424   9.450
 4496POPC   PO418036   5.896  14.435   9.150
 4496POPC   GL118037   5.890  14.413   8.850
 4496POPC   GL218038   5.934  14.293   8.850
 4496POPC   C1A18039   5.836  14.399   8.550
 4496POPC   D2A18040   5.838  14.436   8.250
 4496POPC   C3A18041   5.892  14.359   7.950
 4496POPC   C4A18042   5.907  14.381   7.650
 4496POPC   C1B18043   5.916  14.172   8.550
 4496POPC   C2B18044   5.985  14.179   8.250
 4496POPC   C3B18045   5.997  14.130   7.950
 4496POPC   C4B18046   5.932  14.144   7.650
 4497POPC   NC318047  29.913  13.621   9.450
 4497POPC   PO418048  29.878  13.643   9.150
 4497POPC   GL118049  29.936  13.605   8.850
 4497POPC   GL218050  29.938  13.759   8.850
 4497POPC   C1A18051  29.953  13.596   8.550
 4497POPC   D2A18052  29.930  13.643   8.250
 4497POPC   C3A18053  29.951  13.643   7.950
 4497POPC   C4A18054  29.962  13.621   7.650
 4497POPC   C1B18055  29.956  13.858   8.550
 4497POPC   C2B18056  29.951  13.893   8.250
 4497POPC   C3B18057  29.881  13.861   7.950
 4497POPC   C4B18058  29.941  13.907   7.650
 4498POPC   NC318059  23.730  40.776   9.450
 4498POPC   PO418060  23.722  40.820   9.150
 4498POPC   GL118061  23.695  40.792   8.850
 4498POPC   GL218062  23.588  40.698   8.850
 4498POPC   C1A18063  23.760  40.784   8.550
 4498POPC   D2A18064  23.735  40.795   8.250
 4498POPC   C3A18065  23.735  40.821   7.950
 4498POPC   C4A18066  23.762  40.757   7.650
 4498POPC   C1B18067  23.480  40.632   8.550
 4498POPC   C2B18068  23.450  40.676   8.250
 4498POPC   C3B18069  23.457  40.678   7.950
 4498POPC   C4B18070  23.519  40.627   7.650
 4499POPC   NC318071   5.133  17.458   9.450
 4499POPC   PO418072   5.093  17.526   9.150
 4499POPC   GL118073   5.065  17.521   8.850
 4499POPC   GL218074   4.969  17.422   8.850
 4499POPC   C1A18075   5.073  17.537   8.550
 4499POPC   D2A18076   5.091  17.494   8.250
 4499POPC   C3A18077   5.074  17.519   7.950
 4499POPC   C4A18078   5.128  17.520   7.650
 4499POPC   C1B18079   4.867  17.336   8.550
 4499POPC   C2B18080   4.918  17.301   8.250
 4499POPC   C3B18081   4.940  17.375   7.950
 4499POPC   C4B18082   4.895  17.336   7.650
 4500POPC   NC318083  43.127  14.407   9.450
 4500POPC   PO418084  43.142  14.446   9.150
 4500POPC   GL118085  43.153  14.386   8.850
 4500POPC   GL218086  42.973  14.446   8.850
 4500POPC   C1A18087  43.078  14.445   8.550
 4500POPC   D2A18088  43.069  14.434   8.250
 4500POPC   C3A18089  43.080  14.372   7.950
 4500POPC   C4A18090  43.132  14.419   7.650
 4500POPC   C1B18091  42.885  14.474   8.550
 4500POPC   C2B18092  42.824  14.484   8.250
 4500POPC   C3B18093  42.868  14.508   7.950
 4500POPC   C4B18094  42.851  14.454   7.650
 4501POPC   NC318095   5.103  35.318   9.450
 4501POPC   PO418096   5.077  35.326   9.150
 4501POPC   GL118097   5.077  35.347   8.850
 4501POPC   GL218098   5.109  35.202   8.850
 4501POPC   C1A18099   5.116  35.395   8.550
 4501POPC   D2A18100   5.047  35.400   8.250
 4501POPC   C3A18101   5.070  35.310   7.950
 4501POPC   C4A18102   5.115  35.372   7.650
 4501POPC   C1B18103   5.153  35.148   8.550
 4501POPC   C2B18104   5.139  35.149   8.250
 4501POPC   C3B18105   5.228  35.108   7.950
 4501POPC   C4B18106   5.230  35.153   7.650
 4502POPC   NC318107   1.166   0.448   9.450
 4502POPC   PO418108   1.178   0.403   9.150
 4502POPC   GL118109   1.169   0.429   8.850
 4502POPC   GL218110   1.223   0.534   8.850
 4502POPC   C1A18111   1.188   0.461   8.550
 4502POPC   D2A18112   1.164   0.420   8.250
 4502POPC   C3A18113   1.239   0.433   7.950
 4502POPC   C4A18114   1.178   0.486   7.650
 4502POPC   C1B18115   1.277   0.633   8.550
 4502POPC   C2B18116   1.332   0.700   8.250
 4502POPC   C3B18117   1.315   0.680   7.950
 4502POPC   C4B18118   1.252   0.687   7.650
 4503POPC   NC318119   0.465   5.843   9.450
 4503POPC   PO418120   0.473   5.855   9.150
 4503POPC   GL118121   0.405   5.912   8.850
 4503POPC   GL218122   0.585   5.947   8.850
 4503POPC   C1A18123   0.393   5.841   8.550
 4503POPC   D2A18124   0.405   5.841   8.250
 4503POPC   C3A18125   0.434   5.863   7.950
 4503POPC   C4A18126   0.422   5.830   7.650
 4503POPC   C1B18127   0.715   5.982   8.550
 4503POPC   C2B18128   0.715   5.958   8.250
 4503POPC   C3B18129   0.707   5.926   7.950
 4503POPC   C4B18130   0.710   5.975   7.650
 4504POPC   NC318131   4.307  13.619   9.450
 4504POPC   PO418132   4.342  13.641   9.150
 4504POPC   GL118133   4.341  13.626   8.850
 4504POPC   GL218134   4.328  13.518   8.850
 4504POPC   C1A18135   4.286  13.647   8.550
 4504POPC   D2A18136   4.278  13.586   8.250
 4504POPC   C3A18137   4.272  13.657   7.950
 4504POPC   C4A18138   4.271  13.595   7.650
 4504POPC   C1B18139   4.340  13.404   8.550
 4504POPC   C2B18140   4.285  13.412   8.250
 4504POPC   C3B18141   4.351  13.420   7.950
 4504POPC   C4B18142   4.295  13.411   7.650
 4505POPC   NC318143  20.608  38.459   9.450
 4505POPC   PO418144  20.605  38.409   9.150
 4505POPC   GL118145  20.640  38.480   8.850
 4505POPC   GL218146  20.503  38.436   8.850
 4505POPC   C1A18147  20.591  38.454   8.550
 4505POPC   D2A18148  20.563  38.492   8.250
 4505POPC   C3A18149  20.590  38.410   7.950
 4505POPC   C4A18150  20.595  38.450   7.650
 4505POPC   C1B18151  20.409  38.453   8.550
 4505POPC   C2B18152  20.316  38.437   8.250
 4505POPC   C3B18153  20.351  38.442   7.950
 4505POPC   C4B18154  20.351  38.391   7.650
 4506POPC   NC318155  19.836   1.966   9.450
 4506POPC   PO418156  19.808   1.962   9.150
 4506POPC   GL118157  19.876   1.990   8.850
 4506POPC   GL218158  19.880   1.824   8.850
 4506POPC   C1A18159  19.785   1.987   8.550
 4506POPC   D2A18160  19.794   1.969   8.250
 4506POPC   C3A18161  19.884   1.987   7.950
 4506POPC   C4A18162  19.807   1.967   7.650
 4506POPC   C1B18163  19.871   1.697   8.550
 4506POPC   C2B18164  19.870   1.770   8.250
 4506POPC   C3B18165  19.873   1.779   7.950
 4506POPC   C4B18166  19.931   1.711   7.650
 4507POPC   NC318167   3.541  12.811   9.450
 4507POPC   PO418168   3.564  12.886   9.150
 4507POPC   GL118169   3.517  12.900   8.850
 4507POPC   GL218170   3.581  13.023   8.850
 4507POPC   C1A18171   3.533  12.873   8.550
 4507POPC   D2A18172   3.502  12.868   8.250
 4507POPC   C3A18173   3.498  12.869   7.950
 4507POPC   C4A18174   3.524  12.822   7.650
 4507POPC   C1B18175   3.514  13.055   8.550
 4507POPC   C2B18176   3.538  13.146   8.250
 4507POPC   C3B18177   3.503  13.134   7.950
 4507POPC   C4B18178   3.527  13.089   7.650
 4508POPC   NC318179  27.621  26.058   9.450
 4508POPC   PO418180  27.635  26.027   9.150
 4508POPC   GL118181  27.573  26.071   8.850
 4508POPC   GL218182  27.751  25.998   8.850
 4508POPC   C1A18183  27.626  26.091   8.550
 4508POPC   D2A18184  27.577  26.025   8.250
 4508POPC   C3A18185  27.565  26.021   7.950
 4508POPC   C4A18186  27.610  26.010   7.650
 4508POPC   C1B18187  27.826  26.015   8.550
 4508POPC   C2B18188  27.847  26.000   8.250
 4508POPC   C3B18189  27.823  25.992   7.950
 4508POPC   C4B18190  27.810  26.047   7.650
 4509POPC   NC318191  19.825  33.051   9.450
 4509POPC   PO418192  19.863  32.975   9.150
 4509POPC   GL118193  19.836  32.976   8.850
 4509POPC   GL218194  19.909  33.081   8.850
 4509POPC   C1A18195  19.841  33.016   8.550
 4509POPC   D2A18196  19.824  33.064   8.250
 4509POPC   C3A18197  19.826  33.029   7.950
 4509POPC   C4A18198  19.884  32.978   7.650
 4509POPC   C1B18199  19.993  33.153   8.550
 4509POPC   C2B18200  20.077  33.133   8.250
 4509POPC   C3B18201  20.062  33.200   7.950
 4509POPC   C4B18202  20.030  33.147   7.650
 4510POPC   NC318203   2.771  29.139   9.450
 4510POPC   PO418204   2.742  29.185   9.150
 4510POPC   GL118205   2.735  29.142   8.850
 4510POPC   GL218206   2.939  29.131   8.850
 4510POPC   C1A18207   2.752  29.103   8.550
 4510POPC   D2A18208   2.796  29.114   8.250
 4510POPC   C3A18209   2.745  29.109   7.950
 4510POPC   C4A18210   2.752  29.096   7.650
 4510POPC   C1B18211   3.008  29.114   8.550
 4510POPC   C2B18212   2.969  29.176   8.250
 4510POPC   C3B18213   3.064  29.142   7.950
 4510POPC   C4B18214   3.055  29.136   7.650
 4511POPC   NC318215   5.118  25.267   9.450
 4511POPC   PO418216   5.069  25.216   9.150
 4511POPC   GL118217   5.063  25.282   8.850
 4511POPC   GL218218   4.974  25.222   8.850
 4511POPC   C1A18219   5.118  25.224   8.550
 4511POPC   D2A18220   5.099  25.231   8.250
 4511POPC   C3A18221   5.057  25.236   7.950
 4511POPC   C4A18222   5.071  25.216   7.650
 4511POPC   C1B18223   4.863  25.180   8.550
 4511POPC   C2B18224   4.890  25.126   8.250
 4511POPC   C3B18225   4.877  25.135   7.950
 4511POPC   C4B18226   4.887  25.162   7.650
 4512POPC   NC318227  12.080  40.830   9.450
 4512POPC   PO418228  12.103  40.736   9.150
 4512POPC   GL118229  12.071  40.804   8.850
 4512POPC   GL218230  12.060  40.688   8.850
 4512POPC   C1A18231  12.045  40.794   8.550
 4512POPC   D2A18232  12.079  40.804   8.250
 4512POPC   C3A18233  12.098  40.779   7.950
 4512POPC   C4A18234  12.085  40.778   7.650
 4512POPC   C1B18235  12.004  40.527   8.550
 4512POPC   C2B18236  11.946  40.595   8.250
 4512POPC   C3B18237  11.950  40.514   7.950
 4512POPC   C4B18238  11.955  40.504   7.650
 4513POPC   NC318239  26.078  20.590   9.450
 4513POPC   PO418240  25.996  20.602   9.150
 4513POPC   GL118241  26.082  20.638   8.850
 4513POPC   GL218242  25.935  20.718   8.850
 4513POPC   C1A18243  26.020  20.616   8.550
 4513POPC   D2A18244  26.030  20.618   8.250
 4513POPC   C3A18245  26.038  20.638   7.950
 4513POPC   C4A18246  26.060  20.566   7.650
 4513POPC   C1B18247  25.862  20.825   8.550
 4513POPC   C2B18248  25.910  20.774   8.250
 4513POPC   C3B18249  25.898  20.852   7.950
 4513POPC   C4B18250  25.868  20.850   7.650
 4514POPC   NC318251  36.935  10.531   9.450
 4514POPC   PO418252  36.872  10.482   9.150
 4514POPC   GL118253  36.898  10.504   8.850
 4514POPC   GL218254  36.795  10.479   8.850
 4514POPC   C1A18255  36.915  10.541   8.550
 4514POPC   D2A18256  36.951  10.561   8.250
 4514POPC   C3A18257  36.927  10.570   7.950
 4514POPC   C4A18258  36.913  10.568   7.650
 4514POPC   C1B18259  36.657  10.394   8.550
 4514POPC   C2B18260  36.726  10.432   8.250
 4514POPC   C3B18261  36.637  10.407   7.950
 4514POPC   C4B18262  36.712  10.442   7.650
 4515POPC   NC318263  12.116  22.986   9.450
 4515POPC   PO418264  12.073  22.937   9.150
 4515POPC   GL118265  12.069  22.930   8.850
 4515POPC   GL218266  12.025  23.048   8.850
 4515POPC   C1A18267  12.094  22.950   8.550
 4515POPC   D2A18268  12.056  22.923   8.250
 4515POPC   C3A18269  12.043  22.930   7.950
 4515POPC   C4A18270  12.033  22.966   7.650
 4515POPC   C1B18271  12.015  23.174   8.550
 4515POPC   C2B18272  12.036  23.198   8.250
 4515POPC   C3B18273  12.006  23.222   7.950
 4515POPC   C4B18274  12.048  23.217   7.650
 4516POPC   NC318275  40.750  42.304   9.450
 4516POPC   PO418276  40.800  42.317   9.150
 4516POPC   GL118277  40.811  42.340   8.850
 4516POPC   GL218278  40.844  42.435   8.850
 4516POPC   C1A18279  40.801  42.315   8.550
 4516POPC   D2A18280  40.819  42.339   8.250
 4516POPC   C3A18281  40.821  42.383   7.950
 4516POPC   C4A18282  40.792  42.377   7.650
 4516POPC   C1B18283  41.027  42.493   8.550
 4516POPC   C2B18284  41.023  42.481   8.250
 4516POPC   C3B18285  41.004  42.464   7.950
 4516POPC   C4B18286  40.988  42.490   7.650
 4517POPC   NC318287   3.535   2.032   9.450
 4517POPC   PO418288   3.570   2.015   9.150
 4517POPC   GL118289   3.579   1.943   8.850
 4517POPC   GL218290   3.642   2.050   8.850
 4517POPC   C1A18291   3.525   1.992   8.550
 4517POPC   D2A18292   3.508   1.959   8.250
 4517POPC   C3A18293   3.497   2.038   7.950
 4517POPC   C4A18294   3.591   1.990   7.650
 4517POPC   C1B18295   3.714   2.129   8.550
 4517POPC   C2B18296   3.742   2.123   8.250
 4517POPC   C3B18297   3.758   2.071   7.950
 4517POPC   C4B18298   3.804   2.089   7.650
 4518POPC   NC318299  41.604  12.072   9.450
 4518POPC   PO418300  41.592  12.029   9.150
 4518POPC   GL118301  41.545  12.085   8.850
 4518POPC   GL218302  41.530  12.213   8.850
 4518POPC   C1A18303  41.595  12.082   8.550
 4518POPC   D2A18304  41.598  12.122   8.250
 4518POPC   C3A18305  41.552  12.041   7.950
 4518POPC   C4A18306  41.533  12.053   7.650
 4518POPC   C1B18307  41.553  12.359   8.550
 4518POPC   C2B18308  41.460  12.314   8.250
 4518POPC   C3B18309  41.492  12.318   7.950
 4518POPC   C4B18310  41.531  12.316   7.650
 4519POPC   NC318311  44.656  44.616   9.450
 4519POPC   PO418312  44.711  44.634   9.150
 4519POPC   GL118313  44.640  44.678   8.850
 4519POPC   GL218314  44.519  44.712   8.850
 4519POPC   C1A18315  44.676  44.619   8.550
 4519POPC   D2A18316  44.667  44.680   8.250
 4519POPC   C3A18317  44.645  44.706   7.950
 4519POPC   C4A18318  44.692  44.663   7.650
 4519POPC   C1B18319  44.404  44.724   8.550
 4519POPC   C2B18320  44.459  44.770   8.250
 4519POPC   C3B18321  44.389  44.768   7.950
 4519POPC   C4B18322  44.422  44.742   7.650
 4520POPC   NC318323   1.979  39.987   9.450
 4520POPC   PO418324   1.958  39.971   9.150
 4520POPC   GL118325   1.954  39.998   8.850
 4520POPC   GL218326   1.889  40.028   8.850
 4520POPC   C1A18327   2.014  40.001   8.550
 4520POPC   D2A18328   2.001  39.975   8.250
 4520POPC   C3A18329   2.034  40.000   7.950
 4520POPC   C4A18330   2.033  40.013   7.650
 4520POPC   C1B18331   1.762  39.991   8.550
 4520POPC   C2B18332   1.720  39.949   8.250
 4520POPC   C3B18333   1.747  40.020   7.950
 4520POPC   C4B18334   1.727  40.010   7.650
 4521POPC   NC318335  10.475  17.520   9.450
 4521POPC   PO418336  10.560  17.506   9.150
 4521POPC   GL118337  10.507  17.489   8.850
 4521POPC   GL218338  10.526  17.384   8.850
 4521POPC   C1A18339  10.495  17.553   8.550
 4521POPC   D2A18340  10.485  17.496   8.250
 4521POPC   C3A18341  10.500  17.555   7.950
 4521POPC   C4A18342  10.561  17.511   7.650
 4521POPC   C1B18343  10.606  17.225   8.550
 4521POPC   C2B18344  10.616  17.240   8.250
 4521POPC   C3B18345  10.631  17.318   7.950
 4521POPC   C4B18346  10.580  17.290   7.650
 4522POPC   NC318347  39.994  19.866   9.450
 4522POPC   PO418348  39.984  19.814   9.150
 4522POPC   GL118349  40.052  19.879   8.850
 4522POPC   GL218350  39.926  19.886   8.850
 4522POPC   C1A18351  39.991  19.866   8.550
 4522POPC   D2A18352  40.004  19.816   8.250
 4522POPC   C3A18353  40.045  19.867   7.950
 4522POPC   C4A18354  39.999  19.816   7.650
 4522POPC   C1B18355  39.770  19.853   8.550
 4522POPC   C2B18356  39.788  19.897   8.250
 4522POPC   C3B18357  39.802  19.926   7.950
 4522POPC   C4B18358  39.746  19.852   7.650
 4523POPC   NC318359  36.913  19.831   9.450
 4523POPC   PO418360  36.912  19.847   9.150
 4523POPC   GL118361  36.907  19.865   8.850
 4523POPC   GL218362  36.974  19.948   8.850
 4523POPC   C1A18363  36.887  19.799   8.550
 4523POPC   D2A18364  36.872  19.850   8.250
 4523POPC   C3A18365  36.929  19.820   7.950
 4523POPC   C4A18366  36.922  19.818   7.650
 4523POPC   C1B18367  37.037  19.981   8.550
 4523POPC   C2B18368  37.069  19.997   8.250
 4523POPC   C3B18369  37.056  20.068   7.950
 4523POPC   C4B18370  37.073  20.035   7.650
 4524POPC   NC318371  42.300  10.524   9.450
 4524POPC   PO418372  42.364  10.556   9.150
 4524POPC   GL118373  42.293  10.532   8.850
 4524POPC   GL218374  42.287  10.643   8.850
 4524POPC   C1A18375  42.372  10.526   8.550
 4524POPC   D2A18376  42.310  10.528   8.250
 4524POPC   C3A18377  42.327  10.535   7.950
 4524POPC   C4A18378  42.334  10.522   7.650
 4524POPC   C1B18379  42.256  10.749   8.550
 4524POPC   C2B18380  42.298  10.812   8.250
 4524POPC   C3B18381  42.277  10.804   7.950
 4524POPC   C4B18382  42.229  10.756   7.650
 4525POPC   NC318383  35.306  15.935   9.450
 4525POPC   PO418384  35.355  15.995   9.150
 4525POPC   GL118385  35.382  15.906   8.850
 4525POPC   GL218386  35.370  15.882   8.850
 4525POPC   C1A18387  35.401  15.991   8.550
 4525POPC   D2A18388  35.395  15.996   8.250
 4525POPC   C3A18389  35.351  15.917   7.950
 4525POPC   C4A18390  35.330  15.909   7.650
 4525POPC   C1B18391  35.447  15.750   8.550
 4525POPC   C2B18392  35.493  15.705   8.250
 4525POPC   C3B18393  35.491  15.709   7.950
 4525POPC   C4B18394  35.479  15.765   7.650
 4526POPC   NC318395  36.859   0.409   9.450
 4526POPC   PO418396  36.881   0.412   9.150
 4526POPC   GL118397  36.862   0.403   8.850
 4526POPC   GL218398  36.768   0.451   8.850
 4526POPC   C1A18399  36.880   0.396   8.550
 4526POPC   D2A18400  36.906   0.413   8.250
 4526POPC   C3A18401  36.937   0.456   7.950
 4526POPC   C4A18402  36.880   0.461   7.650
 4526POPC   C1B18403  36.694   0.438   8.550
 4526POPC   C2B18404  36.675   0.438   8.250
 4526POPC   C3B18405  36.628   0.382   7.950
 4526POPC   C4B18406  36.665   0.446   7.650
 4527POPC   NC318407  25.302  33.779   9.450
 4527POPC   PO418408  25.222  33.844   9.150
 4527POPC   GL118409  25.308  33.759   8.850
 4527POPC   GL218410  25.126  33.894   8.850
 4527POPC   C1A18411  25.224  33.801   8.550
 4527POPC   D2A18412  25.275  33.829   8.250
 4527POPC   C3A18413  25.299  33.767   7.950
 4527POPC   C4A18414  25.233  33.760   7.650
 4527POPC   C1B18415  25.030  33.967   8.550
 4527POPC   C2B18416  25.101  33.921   8.250
 4527POPC   C3B18417  25.051  33.959   7.950
 4527POPC   C4B18418  25.061  33.920   7.650
 4528POPC   NC318419  36.937  16.748   9.450
 4528POPC   PO418420  36.881  16.736   9.150
 4528POPC   GL118421  36.880  16.775   8.850
 4528POPC   GL218422  36.987  16.793   8.850
 4528POPC   C1A18423  36.930  16.699   8.550
 4528POPC   D2A18424  36.865  16.778   8.250
 4528POPC   C3A18425  36.906  16.752   7.950
 4528POPC   C4A18426  36.900  16.776   7.650
 4528POPC   C1B18427  37.189  16.805   8.550
 4528POPC   C2B18428  37.110  16.773   8.250
 4528POPC   C3B18429  37.133  16.795   7.950
 4528POPC   C4B18430  37.147  16.752   7.650
 4529POPC   NC318431  19.035  11.329   9.450
 4529POPC   PO418432  19.010  11.254   9.150
 4529POPC   GL118433  19.066  11.286   8.850
 4529POPC   GL218434  18.944  11.307   8.850
 4529POPC   C1A18435  19.045  11.279   8.550
 4529POPC   D2A18436  19.043  11.310   8.250
 4529POPC   C3A18437  19.097  11.276   7.950
 4529POPC   C4A18438  19.038  11.337   7.650
 4529POPC   C1B18439  18.850  11.233   8.550
 4529POPC   C2B18440  18.763  11.254   8.250
 4529POPC   C3B18441  18.798  11.241   7.950
 4529POPC   C4B18442  18.831  11.309   7.650
 4530POPC   NC318443  43.876  29.948   9.450
 4530POPC   PO418444  43.924  29.879   9.150
 4530POPC   GL118445  43.840  29.939   8.850
 4530POPC   GL218446  43.747  30.013   8.850
 4530POPC   C1A18447  43.846  29.946   8.550
 4530POPC   D2A18448  43.907  29.930   8.250
 4530POPC   C3A18449  43.896  29.899   7.950
 4530POPC   C4A18450  43.928  29.939   7.650
 4530POPC   C1B18451  43.683  30.009   8.550
 4530POPC   C2B18452  43.666  30.025   8.250
 4530POPC   C3B18453  43.670  30.005   7.950
 4530POPC   C4B18454  43.690  30.080   7.650
 4531POPC   NC318455  12.077  42.302   9.450
 4531POPC   PO418456  12.064  42.313   9.150
 4531POPC   GL118457  12.119  42.363   8.850
 4531POPC   GL218458  12.165  42.327   8.850
 4531POPC   C1A18459  12.042  42.379   8.550
 4531POPC   D2A18460  12.125  42.315   8.250
 4531POPC   C3A18461  12.095  42.357   7.950
 4531POPC   C4A18462  12.124  42.331   7.650
 4531POPC   C1B18463  12.355  42.331   8.550
 4531POPC   C2B18464  12.315  42.274   8.250
 4531POPC   C3B18465  12.357  42.326   7.950
 4531POPC   C4B18466  12.325  42.261   7.650
 4532POPC   NC318467  11.312   3.578   9.450
 4532POPC   PO418468  11.302   3.577   9.150
 4532POPC   GL118469  11.320   3.498   8.850
 4532POPC   GL218470  11.224   3.683   8.850
 4532POPC   C1A18471  11.330   3.527   8.550
 4532POPC   D2A18472  11.333   3.497   8.250
 4532POPC   C3A18473  11.265   3.587   7.950
 4532POPC   C4A18474  11.314   3.585   7.650
 4532POPC   C1B18475  11.183   3.731   8.550
 4532POPC   C2B18476  11.211   3.800   8.250
 4532POPC   C3B18477  11.182   3.713   7.950
 4532POPC   C4B18478  11.154   3.789   7.650
 4533POPC   NC318479  36.143  39.181   9.450
 4533POPC   PO418480  36.173  39.247   9.150
 4533POPC   GL118481  36.141  39.238   8.850
 4533POPC   GL218482  36.035  39.332   8.850
 4533POPC   C1A18483  36.176  39.245   8.550
 4533POPC   D2A18484  36.150  39.252   8.250
 4533POPC   C3A18485  36.165  39.245   7.950
 4533POPC   C4A18486  36.118  39.229   7.650
 4533POPC   C1B18487  35.904  39.309   8.550
 4533POPC   C2B18488  35.878  39.385   8.250
 4533POPC   C3B18489  35.952  39.379   7.950
 4533POPC   C4B18490  35.879  39.346   7.650
 4534POPC   NC318491  44.678   5.913   9.450
 4534POPC   PO418492  44.634   5.861   9.150
 4534POPC   GL118493  44.697   5.918   8.850
 4534POPC   GL218494  44.745   5.791   8.850
 4534POPC   C1A18495  44.631   5.891   8.550
 4534POPC   D2A18496  44.617   5.820   8.250
 4534POPC   C3A18497  44.613   5.865   7.950
 4534POPC   C4A18498  44.672   5.864   7.650
 4534POPC   C1B18499  44.830   5.706   8.550
 4534POPC   C2B18500  44.807   5.724   8.250
 4534POPC   C3B18501  44.799   5.677   7.950
 4534POPC   C4B18502  44.840   5.706   7.650
 4535POPC   NC318503  26.021  41.544   9.450
 4535POPC   PO418504  26.023  41.554   9.150
 4535POPC   GL118505  26.055  41.545   8.850
 4535POPC   GL218506  26.025  41.703   8.850
 4535POPC   C1A18507  26.060  41.564   8.550
 4535POPC   D2A18508  26.026  41.586   8.250
 4535POPC   C3A18509  26.023  41.566   7.950
 4535POPC   C4A18510  26.030  41.561   7.650
 4535POPC   C1B18511  26.110  41.813   8.550
 4535POPC   C2B18512  26.034  41.835   8.250
 4535POPC   C3B18513  26.070  41.808   7.950
 4535POPC   C4B18514  26.042  41.793   7.650
 4536POPC   NC318515  38.416  33.838   9.450
 4536POPC   PO418516  38.430  33.812   9.150
 4536POPC   GL118517  38.426  33.846   8.850
 4536POPC   GL218518  38.357  33.884   8.850
 4536POPC   C1A18519  38.430  33.799   8.550
 4536POPC   D2A18520  38.474  33.782   8.250
 4536POPC   C3A18521  38.501  33.766   7.950
 4536POPC   C4A18522  38.451  33.758   7.650
 4536POPC   C1B18523  38.241  33.898   8.550
 4536POPC   C2B18524  38.223  33.905   8.250
 4536POPC   C3B18525  38.182  33.921   7.950
 4536POPC   C4B18526  38.194  33.912   7.650
 4537POPC   NC318527  44.691  38.476   9.450
 4537POPC   PO418528  44.632  38.439   9.150
 4537POPC   GL118529  44.660  38.411   8.850
 4537POPC   GL218530  44.605  38.427   8.850
 4537POPC   C1A18531  44.621  38.465   8.550
 4537POPC   D2A18532  44.662  38.414   8.250
 4537POPC   C3A18533  44.632  38.499   7.950
 4537POPC   C4A18534  44.646  38.467   7.650
 4537POPC   C1B18535  44.412  38.310   8.550
 4537POPC   C2B18536  44.437  38.266   8.250
 4537POPC   C3B18537  44.490  38.300   7.950
 4537POPC   C4B18538  44.452  38.339   7.650
 4538POPC   NC318539  15.141   2.784   9.450
 4538POPC   PO418540  15.152   2.811   9.150
 4538POPC   GL118541  15.165   2.728   8.850
 4538POPC   GL218542  15.099   2.749   8.850
 4538POPC   C1A18543  15.192   2.778   8.550
 4538POPC   D2A18544  15.135   2.770   8.250
 4538POPC   C3A18545  15.149   2.782   7.950
 4538POPC   C4A18546  15.185   2.765   7.650
 4538POPC   C1B18547  14.938   2.717   8.550
 4538POPC   C2B18548  14.973   2.685   8.250
 4538POPC   C3B18549  14.925   2.779   7.950
 4538POPC   C4B18550  14.967   2.718   7.650
 4539POPC   NC318551  15.216  21.393   9.450
 4539POPC   PO418552  15.194  21.342   9.150
 4539POPC   GL118553  15.214  21.392   8.850
 4539POPC   GL218554  15.327  21.307   8.850
 4539POPC   C1A18555  15.144  21.349   8.550
 4539POPC   D2A18556  15.193  21.379   8.250
 4539POPC   C3A18557  15.135  21.384   7.950
 4539POPC   C4A18558  15.161  21.341   7.650
 4539POPC   C1B18559  15.461  21.362   8.550
 4539POPC   C2B18560  15.426  21.370   8.250
 4539POPC   C3B18561  15.391  21.296   7.950
 4539POPC   C4B18562  15.456  21.283   7.650
 4540POPC   NC318563  12.042  26.013   9.450
 4540POPC   PO418564  12.096  26.085   9.150
 4540POPC   GL118565  12.112  26.031   8.850
 4540POPC   GL218566  11.994  25.960   8.850
 4540POPC   C1A18567  12.122  26.055   8.550
 4540POPC   D2A18568  12.070  26.083   8.250
 4540POPC   C3A18569  12.112  26.059   7.950
 4540POPC   C4A18570  12.057  26.057   7.650
 4540POPC   C1B18571  11.840  25.948   8.550
 4540POPC   C2B18572  11.842  25.957   8.250
 4540POPC   C3B18573  11.865  25.961   7.950
 4540POPC   C4B18574  11.807  25.914   7.650
 4541POPC   NC318575  10.558  36.111   9.450
 4541POPC   PO418576  10.528  36.149   9.150
 4541POPC   GL118577  10.475  36.177   8.850
 4541POPC   GL218578  10.598  36.140   8.850
 4541POPC   C1A18579  10.523  36.150   8.550
 4541POPC   D2A18580  10.497  36.078   8.250
 4541POPC   C3A18581  10.505  36.149   7.950
 4541POPC   C4A18582  10.547  36.123   7.650
 4541POPC   C1B18583  10.747  36.073   8.550
 4541POPC   C2B18584  10.773  36.038   8.250
 4541POPC   C3B18585  10.755  36.061   7.950
 4541POPC   C4B18586  10.759  36.045   7.650
 4542POPC   NC318587  26.022   5.834   9.450
 4542POPC   PO418588  26.073   5.891   9.150
 4542POPC   GL118589  26.002   5.905   8.850
 4542POPC   GL218590  26.060   5.760   8.850
 4542POPC   C1A18591  26.069   5.868   8.550
 4542POPC   D2A18592  26.004   5.883   8.250
 4542POPC   C3A18593  26.066   5.841   7.950
 4542POPC   C4A18594  26.020   5.914   7.650
 4542POPC   C1B18595  26.115   5.652   8.550
 4542POPC   C2B18596  26.134   5.606   8.250
 4542POPC   C3B18597  26.100   5.592   7.950
 4542POPC   C4B18598  26.194   5.617   7.650
 4543POPC   NC318599  23.727   3.535   9.450
 4543POPC   PO418600  23.731   3.529   9.150
 4543POPC   GL118601  23.710   3.585   8.850
 4543POPC   GL218602  23.754   3.428   8.850
 4543POPC   C1A18603  23.664   3.514   8.550
 4543POPC   D2A18604  23.679   3.498   8.250
 4543POPC   C3A18605  23.756   3.515   7.950
 4543POPC   C4A18606  23.736   3.548   7.650
 4543POPC   C1B18607  23.719   3.343   8.550
 4543POPC   C2B18608  23.749   3.343   8.250
 4543POPC   C3B18609  23.802   3.298   7.950
 4543POPC   C4B18610  23.709   3.290   7.650
 4544POPC   NC318611  35.386  39.968   9.450
 4544POPC   PO418612  35.367  39.970   9.150
 4544POPC   GL118613  35.344  40.051   8.850
 4544POPC   GL218614  35.207  40.104   8.850
 4544POPC   C1A18615  35.336  39.959   8.550
 4544POPC   D2A18616  35.317  39.960   8.250
 4544POPC   C3A18617  35.310  39.993   7.950
 4544POPC   C4A18618  35.370  39.984   7.650
 4544POPC   C1B18619  35.182  40.129   8.550
 4544POPC   C2B18620  35.106  40.192   8.250
 4544POPC   C3B18621  35.106  40.196   7.950
 4544POPC   C4B18622  35.140  40.170   7.650
 4545POPC   NC318623  37.725  15.950   9.450
 4545POPC   PO418624  37.704  15.951   9.150
 4545POPC   GL118625  37.635  15.913   8.850
 4545POPC   GL218626  37.653  16.067   8.850
 4545POPC   C1A18627  37.723  15.923   8.550
 4545POPC   D2A18628  37.689  15.926   8.250
 4545POPC   C3A18629  37.678  15.978   7.950
 4545POPC   C4A18630  37.673  15.967   7.650
 4545POPC   C1B18631  37.695  16.240   8.550
 4545POPC   C2B18632  37.629  16.208   8.250
 4545POPC   C3B18633  37.631  16.212   7.950
 4545POPC   C4B18634  37.646  16.191   7.650
 4546POPC   NC318635  35.401  39.264   9.450
 4546POPC   PO418636  35.358  39.243   9.150
 4546POPC   GL118637  35.393  39.258   8.850
 4546POPC   GL218638  35.292  39.161   8.850
 4546POPC   C1A18639  35.334  39.272   8.550
 4546POPC   D2A18640  35.352  39.196   8.250
 4546POPC   C3A18641  35.321  39.197   7.950
 4546POPC   C4A18642  35.385  39.250   7.650
 4546POPC   C1B18643  35.262  38.963   8.550
 4546POPC   C2B18644  35.246  38.989   8.250
 4546POPC   C3B18645  35.263  39.037   7.950
 4546POPC   C4B18646  35.261  39.038   7.650
 4547POPC   NC318647   7.422   8.150   9.450
 4547POPC   PO418648   7.426   8.196   9.150
 4547POPC   GL118649   7.418   8.220   8.850
 4547POPC   GL218650   7.501   8.141   8.850
 4547POPC   C1A18651   7.427   8.231   8.550
 4547POPC   D2A18652   7.402   8.204   8.250
 4547POPC   C3A18653   7.373   8.159   7.950
 4547POPC   C4A18654   7.404   8.167   7.650
 4547POPC   C1B18655   7.586   8.072   8.550
 4547POPC   C2B18656   7.639   8.001   8.250
 4547POPC   C3B18657   7.555   7.980   7.950
 4547POPC   C4B18658   7.633   8.049   7.650
 4548POPC   NC318659   4.305   4.349   9.450
 4548POPC   PO418660   4.299   4.339   9.150
 4548POPC   GL118661   4.272   4.325   8.850
 4548POPC   GL218662   4.227   4.224   8.850
 4548POPC   C1A18663   4.305   4.300   8.550
 4548POPC   D2A18664   4.336   4.280   8.250
 4548POPC   C3A18665   4.283   4.268   7.950
 4548POPC   C4A18666   4.274   4.361   7.650
 4548POPC   C1B18667   4.238   4.073   8.550
 4548POPC   C2B18668   4.228   4.074   8.250
 4548POPC   C3B18669   4.209   4.059   7.950
 4548POPC   C4B18670   4.218   4.055   7.650
 4549POPC   NC318671  40.045  33.843   9.450
 4549POPC   PO418672  39.999  33.803   9.150
 4549POPC   GL118673  40.005  33.844   8.850
 4549POPC   GL218674  40.076  33.667   8.850
 4549POPC   C1A18675  40.027  33.780   8.550
 4549POPC   D2A18676  39.975  33.796   8.250
 4549POPC   C3A18677  40.057  33.842   7.950
 4549POPC   C4A18678  40.049  33.838   7.650
 4549POPC   C1B18679  40.125  33.617   8.550
 4549POPC   C2B18680  40.083  33.537   8.250
 4549POPC   C3B18681  40.119  33.529   7.950
 4549POPC   C4B18682  40.139  33.527   7.650
 4550POPC   NC318683  32.983  32.295   9.450
 4550POPC   PO418684  33.022  32.291   9.150
 4550POPC   GL118685  33.002  32.284   8.850
 4550POPC   GL218686  33.049  32.119   8.850
 4550POPC   C1A18687  32.975  32.223   8.550
 4550POPC   D2A18688  33.016  32.273   8.250
 4550POPC   C3A18689  33.044  32.285   7.950
 4550POPC   C4A18690  33.067  32.238   7.650
 4550POPC   C1B18691  33.119  32.032   8.550
 4550POPC   C2B18692  33.173  32.007   8.250
 4550POPC   C3B18693  33.110  32.030   7.950
 4550POPC   C4B18694  33.192  32.025   7.650
 4551POPC   NC318695  41.583  33.011   9.450
 4551POPC   PO418696  41.527  33.024   9.150
 4551POPC   GL118697  41.588  33.029   8.850
 4551POPC   GL218698  41.491  33.128   8.850
 4551POPC   C1A18699  41.570  33.025   8.550
 4551POPC   D2A18700  41.576  33.035   8.250
 4551POPC   C3A18701  41.522  33.007   7.950
 4551POPC   C4A18702  41.554  33.060   7.650
 4551POPC   C1B18703  41.475  33.234   8.550
 4551POPC   C2B18704  41.401  33.198   8.250
 4551POPC   C3B18705  41.472  33.238   7.950
 4551POPC   C4B18706  41.409  33.284   7.650
 4552POPC   NC318707  12.029  32.986   9.450
 4552POPC   PO418708  12.032  33.039   9.150
 4552POPC   GL118709  12.026  33.051   8.850
 4552POPC   GL218710  11.936  33.089   8.850
 4552POPC   C1A18711  12.077  33.055   8.550
 4552POPC   D2A18712  12.125  33.019   8.250
 4552POPC   C3A18713  12.059  32.987   7.950
 4552POPC   C4A18714  12.033  33.055   7.650
 4552POPC   C1B18715  11.812  33.107   8.550
 4552POPC   C2B18716  11.798  33.107   8.250
 4552POPC   C3B18717  11.793  33.104   7.950
 4552POPC   C4B18718  11.835  33.059   7.650
 4553POPC   NC318719  19.787  15.159   9.450
 4553POPC   PO418720  19.786  15.189   9.150
 4553POPC   GL118721  19.862  15.192   8.850
 4553POPC   GL218722  19.803  15.326   8.850
 4553POPC   C1A18723  19.854  15.143   8.550
 4553POPC   D2A18724  19.883  15.196   8.250
 4553POPC   C3A18725  19.877  15.154   7.950
 4553POPC   C4A18726  19.807  15.211   7.650
 4553POPC   C1B18727  19.722  15.447   8.550
 4553POPC   C2B18728  19.679  15.414   8.250
 4553POPC   C3B18729  19.721  15.394   7.950
 4553POPC   C4B18730  19.685  15.433   7.650
 4554POPC   NC318731   9.787  16.745   9.450
 4554POPC   PO418732   9.757  16.698   9.150
 4554POPC   GL118733   9.718  16.738   8.850
 4554POPC   GL218734   9.643  16.696   8.850
 4554POPC   C1A18735   9.778  16.717   8.550
 4554POPC   D2A18736   9.758  16.761   8.250
 4554POPC   C3A18737   9.767  16.750   7.950
 4554POPC   C4A18738   9.721  16.723   7.650
 4554POPC   C1B18739   9.492  16.643   8.550
 4554POPC   C2B18740   9.566  16.577   8.250
 4554POPC   C3B18741   9.482  16.563   7.950
 4554POPC   C4B18742   9.491  16.637   7.650
 4555POPC   NC318743   7.381  22.148   9.450
 4555POPC   PO418744   7.392  22.135   9.150
 4555POPC   GL118745   7.442  22.157   8.850
 4555POPC   GL218746   7.569  22.128   8.850
 4555POPC   C1A18747   7.375  22.153   8.550
 4555POPC   D2A18748   7.385  22.191   8.250
 4555POPC   C3A18749   7.468  22.163   7.950
 4555POPC   C4A18750   7.406  22.203   7.650
 4555POPC   C1B18751   7.681  22.151   8.550
 4555POPC   C2B18752   7.685  22.098   8.250
 4555POPC   C3B18753   7.639  22.164   7.950
 4555POPC   C4B18754   7.634  22.101   7.650
 4556POPC   NC318755   1.217  20.574   9.450
 4556POPC   PO418756   1.236  20.643   9.150
 4556POPC   GL118757   1.255  20.621   8.850
 4556POPC   GL218758   1.308  20.733   8.850
 4556POPC   C1A18759   1.253  20.570   8.550
 4556POPC   D2A18760   1.227  20.597   8.250
 4556POPC   C3A18761   1.196  20.584   7.950
 4556POPC   C4A18762   1.222  20.648   7.650
 4556POPC   C1B18763   1.375  20.834   8.550
 4556POPC   C2B18764   1.309  20.852   8.250
 4556POPC   C3B18765   1.337  20.863   7.950
 4556POPC   C4B18766   1.356  20.881   7.650
 4557POPC   NC318767  41.518   1.992   9.450
 4557POPC   PO418768  41.538   2.026   9.150
 4557POPC   GL118769  41.553   2.016   8.850
 4557POPC   GL218770  41.644   2.103   8.850
 4557POPC   C1A18771  41.588   1.954   8.550
 4557POPC   D2A18772  41.581   2.038   8.250
 4557POPC   C3A18773  41.592   2.009   7.950
 4557POPC   C4A18774  41.541   2.026   7.650
 4557POPC   C1B18775  41.713   2.114   8.550
 4557POPC   C2B18776  41.746   2.126   8.250
 4557POPC   C3B18777  41.749   2.174   7.950
 4557POPC   C4B18778  41.748   2.155   7.650
 4558POPC   NC318779  19.856  41.554   9.450
 4558POPC   PO418780  19.839  41.540   9.150
 4558POPC   GL118781  19.812  41.535   8.850
 4558POPC   GL218782  19.752  41.716   8.850
 4558POPC   C1A18783  19.793  41.529   8.550
 4558POPC   D2A18784  19.819  41.525   8.250
 4558POPC   C3A18785  19.862  41.589   7.950
 4558POPC   C4A18786  19.880  41.598   7.650
 4558POPC   C1B18787  19.681  41.799   8.550
 4558POPC   C2B18788  19.698  41.764   8.250
 4558POPC   C3B18789  19.723  41.732   7.950
 4558POPC   C4B18790  19.689  41.736   7.650
 4559POPC   NC318791  24.493  18.261   9.450
 4559POPC   PO418792  24.489  18.327   9.150
 4559POPC   GL118793  24.446  18.327   8.850
 4559POPC   GL218794  24.460  18.381   8.850
 4559POPC   C1A18795  24.447  18.296   8.550
 4559POPC   D2A18796  24.533  18.262   8.250
 4559POPC   C3A18797  24.485  18.277   7.950
 4559POPC   C4A18798  24.522  18.261   7.650
 4559POPC   C1B18799  24.352  18.466   8.550
 4559POPC   C2B18800  24.417  18.538   8.250
 4559POPC   C3B18801  24.366  18.481   7.950
 4559POPC   C4B18802  24.373  18.488   7.650
 4560POPC   NC318803   2.037  43.095   9.450
 4560POPC   PO418804   2.028  43.159   9.150
 4560POPC   GL118805   1.952  43.125   8.850
 4560POPC   GL218806   1.891  43.011   8.850
 4560POPC   C1A18807   2.002  43.134   8.550
 4560POPC   D2A18808   1.970  43.078   8.250
 4560POPC   C3A18809   1.995  43.123   7.950
 4560POPC   C4A18810   1.943  43.102   7.650
 4560POPC   C1B18811   1.797  42.896   8.550
 4560POPC   C2B18812   1.806  42.887   8.250
 4560POPC   C3B18813   1.816  42.926   7.950
 4560POPC   C4B18814   1.826  42.924   7.650
 4561POPC   NC318815  17.509  10.536   9.450
 4561POPC   PO418816  17.459  10.552   9.150
 4561POPC   GL118817  17.542  10.495   8.850
 4561POPC   GL218818  17.420  10.446   8.850
 4561POPC   C1A18819  17.508  10.519   8.550
 4561POPC   D2A18820  17.461  10.511   8.250
 4561POPC   C3A18821  17.547  10.564   7.950
 4561POPC   C4A18822  17.479  10.516   7.650
 4561POPC   C1B18823  17.234  10.484   8.550
 4561POPC   C2B18824  17.253  10.420   8.250
 4561POPC   C3B18825  17.241  10.401   7.950
 4561POPC   C4B18826  17.303  10.413   7.650
 4562POPC   NC318827   4.321  26.078   9.450
 4562POPC   PO418828   4.278  26.081   9.150
 4562POPC   GL118829   4.276  26.049   8.850
 4562POPC   GL218830   4.449  26.021   8.850
 4562POPC   C1A18831   4.285  26.079   8.550
 4562POPC   D2A18832   4.269  26.065   8.250
 4562POPC   C3A18833   4.298  26.067   7.950
 4562POPC   C4A18834   4.277  26.040   7.650
 4562POPC   C1B18835   4.601  26.006   8.550
 4562POPC   C2B18836   4.556  25.988   8.250
 4562POPC   C3B18837   4.601  25.952   7.950
 4562POPC   C4B18838   4.529  25.950   7.650
 4563POPC   NC318839  14.435  28.348   9.450
 4563POPC   PO418840  14.434  28.354   9.150
 4563POPC   GL118841  14.368  28.392   8.850
 4563POPC   GL218842  14.525  28.312   8.850
 4563POPC   C1A18843  14.435  28.354   8.550
 4563POPC   D2A18844  14.381  28.344   8.250
 4563POPC   C3A18845  14.437  28.395   7.950
 4563POPC   C4A18846  14.395  28.335   7.650
 4563POPC   C1B18847  14.568  28.253   8.550
 4563POPC   C2B18848  14.600  28.182   8.250
 4563POPC   C3B18849  14.574  28.199   7.950
 4563POPC   C4B18850  14.562  28.214   7.650
 4564POPC   NC318851  26.048  14.374   9.450
 4564POPC   PO418852  26.046  14.355   9.150
 4564POPC   GL118853  26.043  14.393   8.850
 4564POPC   GL218854  25.933  14.366   8.850
 4564POPC   C1A18855  26.000  14.402   8.550
 4564POPC   D2A18856  26.091  14.361   8.250
 4564POPC   C3A18857  26.033  14.412   7.950
 4564POPC   C4A18858  26.027  14.433   7.650
 4564POPC   C1B18859  25.838  14.357   8.550
 4564POPC   C2B18860  25.773  14.304   8.250
 4564POPC   C3B18861  25.757  14.310   7.950
 4564POPC   C4B18862  25.776  14.323   7.650
 4565POPC   NC318863  23.695  25.288   9.450
 4565POPC   PO418864  23.724  25.228   9.150
 4565POPC   GL118865  23.722  25.231   8.850
 4565POPC   GL218866  23.796  25.219   8.850
 4565POPC   C1A18867  23.673  25.256   8.550
 4565POPC   D2A18868  23.715  25.231   8.250
 4565POPC   C3A18869  23.742  25.264   7.950
 4565POPC   C4A18870  23.757  25.285   7.650
 4565POPC   C1B18871  23.971  25.122   8.550
 4565POPC   C2B18872  23.942  25.190   8.250
 4565POPC   C3B18873  23.950  25.123   7.950
 4565POPC   C4B18874  23.908  25.111   7.650
 4566POPC   NC318875  26.065  36.923   9.450
 4566POPC   PO418876  26.074  36.864   9.150
 4566POPC   GL118877  26.079  36.863   8.850
 4566POPC   GL218878  26.021  36.825   8.850
 4566POPC   C1A18879  26.000  36.886   8.550
 4566POPC   D2A18880  26.065  36.886   8.250
 4566POPC   C3A18881  26.067  36.950   7.950
 4566POPC   C4A18882  26.013  36.885   7.650
 4566POPC   C1B18883  26.045  36.622   8.550
 4566POPC   C2B18884  26.070  36.695   8.250
 4566POPC   C3B18885  26.063  36.642   7.950
 4566POPC   C4B18886  26.107  36.680   7.650
 4567POPC   NC318887  29.959  36.106   9.450
 4567POPC   PO418888  29.872  36.161   9.150
 4567POPC   GL118889  29.898  36.095   8.850
 4567POPC   GL218890  29.930  36.051   8.850
 4567POPC   C1A18891  29.915  36.165   8.550
 4567POPC   D2A18892  29.970  36.118   8.250
 4567POPC   C3A18893  29.910  36.133   7.950
 4567POPC   C4A18894  29.966  36.082   7.650
 4567POPC   C1B18895  30.004  35.926   8.550
 4567POPC   C2B18896  29.948  35.845   8.250
 4567POPC   C3B18897  29.943  35.862   7.950
 4567POPC   C4B18898  29.982  35.845   7.650
 4568POPC   NC318899  36.893   1.256   9.450
 4568POPC   PO418900  36.903   1.184   9.150
 4568POPC   GL118901  36.922   1.254   8.850
 4568POPC   GL218902  37.049   1.141   8.850
 4568POPC   C1A18903  36.869   1.245   8.550
 4568POPC   D2A18904  36.929   1.256   8.250
 4568POPC   C3A18905  36.887   1.253   7.950
 4568POPC   C4A18906  36.912   1.181   7.650
 4568POPC   C1B18907  37.154   1.146   8.550
 4568POPC   C2B18908  37.184   1.162   8.250
 4568POPC   C3B18909  37.105   1.119   7.950
 4568POPC   C4B18910  37.143   1.118   7.650
 4569POPC   NC318911  20.616  41.544   9.450
 4569POPC   PO418912  20.626  41.571   9.150
 4569POPC   GL118913  20.632  41.511   8.850
 4569POPC   GL218914  20.702  41.556   8.850
 4569POPC   C1A18915  20.655  41.566   8.550
 4569POPC   D2A18916  20.611  41.544   8.250
 4569POPC   C3A18917  20.660  41.511   7.950
 4569POPC   C4A18918  20.621  41.535   7.650
 4569POPC   C1B18919  20.859  41.530   8.550
 4569POPC   C2B18920  20.855  41.534   8.250
 4569POPC   C3B18921  20.824  41.531   7.950
 4569POPC   C4B18922  20.817  41.495   7.650
 4570POPC   NC318923  24.486  12.814   9.450
 4570POPC   PO418924  24.485  12.875   9.150
 4570POPC   GL118925  24.529  12.865   8.850
 4570POPC   GL218926  24.389  12.952   8.850
 4570POPC   C1A18927  24.452  12.811   8.550
 4570POPC   D2A18928  24.464  12.815   8.250
 4570POPC   C3A18929  24.521  12.891   7.950
 4570POPC   C4A18930  24.530  12.807   7.650
 4570POPC   C1B18931  24.356  13.074   8.550
 4570POPC   C2B18932  24.301  13.047   8.250
 4570POPC   C3B18933  24.319  13.096   7.950
 4570POPC   C4B18934  24.318  13.074   7.650
 4571POPC   NC318935  19.020   5.891   9.450
 4571POPC   PO418936  19.018   5.855   9.150
 4571POPC   GL118937  19.063   5.859   8.850
 4571POPC   GL218938  19.020   5.714   8.850
 4571POPC   C1A18939  19.028   5.819   8.550
 4571POPC   D2A18940  19.085   5.829   8.250
 4571POPC   C3A18941  19.013   5.912   7.950
 4571POPC   C4A18942  19.061   5.900   7.650
 4571POPC   C1B18943  19.055   5.610   8.550
 4571POPC   C2B18944  19.091   5.632   8.250
 4571POPC   C3B18945  19.023   5.632   7.950
 4571POPC   C4B18946  19.082   5.596   7.650
 4572POPC   NC318947  28.346  25.225   9.450
 4572POPC   PO418948  28.369  25.248   9.150
 4572POPC   GL118949  28.370  25.228   8.850
 4572POPC   GL218950  28.345  25.392   8.850
 4572POPC   C1A18951  28.373  25.306   8.550
 4572POPC   D2A18952  28.354  25.262   8.250
 4572POPC   C3A18953  28.370  25.304   7.950
 4572POPC   C4A18954  28.401  25.303   7.650
 4572POPC   C1B18955  28.337  25.542   8.550
 4572POPC   C2B18956  28.409  25.539   8.250
 4572POPC   C3B18957  28.316  25.505   7.950
 4572POPC   C4B18958  28.377  25.564   7.650
 4573POPC   NC318959  24.463  34.584   9.450
 4573POPC   PO418960  24.465  34.561   9.150
 4573POPC   GL118961  24.487  34.592   8.850
 4573POPC   GL218962  24.385  34.599   8.850
 4573POPC   C1A18963  24.531  34.590   8.550
 4573POPC   D2A18964  24.442  34.540   8.250
 4573POPC   C3A18965  24.478  34.624   7.950
 4573POPC   C4A18966  24.520  34.615   7.650
 4573POPC   C1B18967  24.282  34.515   8.550
 4573POPC   C2B18968  24.222  34.547   8.250
 4573POPC   C3B18969  24.261  34.508   7.950
 4573POPC   C4B18970  24.220  34.536   7.650
 4574POPC   NC318971  23.758   6.621   9.450
 4574POPC   PO418972  23.726   6.613   9.150
 4574POPC   GL118973  23.734   6.607   8.850
 4574POPC   GL218974  23.826   6.566   8.850
 4574POPC   C1A18975  23.728   6.665   8.550
 4574POPC   D2A18976  23.748   6.693   8.250
 4574POPC   C3A18977  23.683   6.673   7.950
 4574POPC   C4A18978  23.667   6.669   7.650
 4574POPC   C1B18979  23.934   6.454   8.550
 4574POPC   C2B18980  23.893   6.469   8.250
 4574POPC   C3B18981  23.879   6.451   7.950
 4574POPC   C4B18982  23.918   6.505   7.650
 4575POPC   NC318983  22.954  15.910   9.450
 4575POPC   PO418984  22.906  15.942   9.150
 4575POPC   GL118985  22.953  15.937   8.850
 4575POPC   GL218986  22.814  15.936   8.850
 4575POPC   C1A18987  22.967  15.962   8.550
 4575POPC   D2A18988  22.988  15.984   8.250
 4575POPC   C3A18989  22.955  15.906   7.950
 4575POPC   C4A18990  22.967  15.934   7.650
 4575POPC   C1B18991  22.651  15.920   8.550
 4575POPC   C2B18992  22.682  15.992   8.250
 4575POPC   C3B18993  22.672  15.920   7.950
 4575POPC   C4B18994  22.723  15.935   7.650
 4576POPC   NC318995  27.601   2.751   9.450
 4576POPC   PO418996  27.617   2.759   9.150
 4576POPC   GL118997  27.643   2.779   8.850
 4576POPC   GL218998  27.649   2.825   8.850
 4576POPC   C1A18999  27.620   2.800   8.550
 4576POPC   D2A19000  27.590   2.811   8.250
 4576POPC   C3A19001  27.632   2.748   7.950
 4576POPC   C4A19002  27.603   2.787   7.650
 4576POPC   C1B19003  27.803   2.859   8.550
 4576POPC   C2B19004  27.844   2.888   8.250
 4576POPC   C3B19005  27.842   2.912   7.950
 4576POPC   C4B19006  27.836   2.883   7.650
 4577POPC   NC319007  15.148  12.106   9.450
 4577POPC   PO419008  15.173  12.084   9.150
 4577POPC   GL119009  15.202  12.114   8.850
 4577POPC   GL219010  15.265  12.078   8.850
 4577POPC   C1A19011  15.187  12.033   8.550
 4577POPC   D2A19012  15.196  12.061   8.250
 4577POPC   C3A19013  15.144  12.093   7.950
 4577POPC   C4A19014  15.150  12.078   7.650
 4577POPC   C1B19015  15.410  11.966   8.550
 4577POPC   C2B19016  15.466  11.971   8.250
 4577POPC   C3B19017  15.418  12.037   7.950
 4577POPC   C4B19018  15.445  12.008   7.650
 4578POPC   NC319019   8.151   4.319   9.450
 4578POPC   PO419020   8.150   4.271   9.150
 4578POPC   GL119021   8.238   4.352   8.850
 4578POPC   GL219022   8.280   4.315   8.850
 4578POPC   C1A19023   8.166   4.323   8.550
 4578POPC   D2A19024   8.225   4.288   8.250
 4578POPC   C3A19025   8.196   4.335   7.950
 4578POPC   C4A19026   8.197   4.335   7.650
 4578POPC   C1B19027   8.423   4.278   8.550
 4578POPC   C2B19028   8.453   4.197   8.250
 4578POPC   C3B19029   8.444   4.274   7.950
 4578POPC   C4B19030   8.482   4.283   7.650
 4579POPC   NC319031  22.191   1.989   9.450
 4579POPC   PO419032  22.145   1.980   9.150
 4579POPC   GL119033  22.204   1.979   8.850
 4579POPC   GL219034  22.176   1.896   8.850
 4579POPC   C1A19035  22.207   1.995   8.550
 4579POPC   D2A19036  22.207   1.957   8.250
 4579POPC   C3A19037  22.194   1.991   7.950
 4579POPC   C4A19038  22.197   1.941   7.650
 4579POPC   C1B19039  22.215   1.708   8.550
 4579POPC   C2B19040  22.132   1.714   8.250
 4579POPC   C3B19041  22.204   1.722   7.950
 4579POPC   C4B19042  22.156   1.735   7.650
 4580POPC   NC319043  22.170  15.915   9.450
 4580POPC   PO419044  22.198  15.971   9.150
 4580POPC   GL119045  22.121  15.919   8.850
 4580POPC   GL219046  22.001  15.973   8.850
 4580POPC   C1A19047  22.184  15.916   8.550
 4580POPC   D2A19048  22.152  15.996   8.250
 4580POPC   C3A19049  22.201  15.922   7.950
 4580POPC   C4A19050  22.132  15.931   7.650
 4580POPC   C1B19051  21.917  15.895   8.550
 4580POPC   C2B19052  21.928  15.959   8.250
 4580POPC   C3B19053  21.934  15.937   7.950
 4580POPC   C4B19054  21.899  15.917   7.650
 4581POPC   NC319055   1.962   4.289   9.450
 4581POPC   PO419056   1.979   4.311   9.150
 4581POPC   GL119057   2.011   4.350   8.850
 4581POPC   GL219058   1.919   4.253   8.850
 4581POPC   C1A19059   1.980   4.347   8.550
 4581POPC   D2A19060   2.021   4.321   8.250
 4581POPC   C3A19061   2.032   4.357   7.950
 4581POPC   C4A19062   1.968   4.356   7.650
 4581POPC   C1B19063   1.865   4.060   8.550
 4581POPC   C2B19064   1.847   4.067   8.250
 4581POPC   C3B19065   1.831   4.106   7.950
 4581POPC   C4B19066   1.911   4.071   7.650
 4582POPC   NC319067  17.468   0.398   9.450
 4582POPC   PO419068  17.554   0.394   9.150
 4582POPC   GL119069  17.464   0.445   8.850
 4582POPC   GL219070  17.341   0.448   8.850
 4582POPC   C1A19071  17.517   0.477   8.550
 4582POPC   D2A19072  17.513   0.466   8.250
 4582POPC   C3A19073  17.518   0.445   7.950
 4582POPC   C4A19074  17.509   0.452   7.650
 4582POPC   C1B19075  17.290   0.379   8.550
 4582POPC   C2B19076  17.234   0.430   8.250
 4582POPC   C3B19077  17.239   0.412   7.950
 4582POPC   C4B19078  17.275   0.387   7.650
 4583POPC   NC319079   2.723  11.259   9.450
 4583POPC   PO419080   2.738  11.255   9.150
 4583POPC   GL119081   2.737  11.333   8.850
 4583POPC   GL219082   2.659  11.276   8.850
 4583POPC   C1A19083   2.804  11.251   8.550
 4583POPC   D2A19084   2.764  11.278   8.250
 4583POPC   C3A19085   2.757  11.295   7.950
 4583POPC   C4A19086   2.769  11.308   7.650
 4583POPC   C1B19087   2.522  11.296   8.550
 4583POPC   C2B19088   2.535  11.309   8.250
 4583POPC   C3B19089   2.469  11.293   7.950
 4583POPC   C4B19090   2.489  11.279   7.650
 4584POPC   NC319091  26.834   3.554   9.450
 4584POPC   PO419092  26.787   3.521   9.150
 4584POPC   GL119093  26.784   3.579   8.850
 4584POPC   GL219094  26.845   3.389   8.850
 4584POPC   C1A19095  26.844   3.496   8.550
 4584POPC   D2A19096  26.792   3.519   8.250
 4584POPC   C3A19097  26.790   3.546   7.950
 4584POPC   C4A19098  26.792   3.532   7.650
 4584POPC   C1B19099  26.830   3.325   8.550
 4584POPC   C2B19100  26.910   3.339   8.250
 4584POPC   C3B19101  26.889   3.345   7.950
 4584POPC   C4B19102  26.890   3.317   7.650
 4585POPC   NC319103  36.907  23.754   9.450
 4585POPC   PO419104  36.918  23.668   9.150
 4585POPC   GL119105  36.877  23.714   8.850
 4585POPC   GL219106  36.824  23.624   8.850
 4585POPC   C1A19107  36.924  23.701   8.550
 4585POPC   D2A19108  36.895  23.684   8.250
 4585POPC   C3A19109  36.858  23.727   7.950
 4585POPC   C4A19110  36.869  23.726   7.650
 4585POPC   C1B19111  36.776  23.455   8.550
 4585POPC   C2B19112  36.743  23.478   8.250
 4585POPC   C3B19113  36.780  23.527   7.950
 4585POPC   C4B19114  36.727  23.545   7.650
 4586POPC   NC319115   8.948   4.304   9.450
 4586POPC   PO419116   8.955   4.313   9.150
 4586POPC   GL119117   8.958   4.359   8.850
 4586POPC   GL219118   8.889   4.250   8.850
 4586POPC   C1A19119   8.939   4.297   8.550
 4586POPC   D2A19120   9.022   4.349   8.250
 4586POPC   C3A19121   8.978   4.333   7.950
 4586POPC   C4A19122   8.940   4.312   7.650
 4586POPC   C1B19123   8.794   4.146   8.550
 4586POPC   C2B19124   8.737   4.179   8.250
 4586POPC   C3B19125   8.722   4.158   7.950
 4586POPC   C4B19126   8.802   4.202   7.650
 4587POPC   NC319127  29.914   9.769   9.450
 4587POPC   PO419128  29.953   9.718   9.150
 4587POPC   GL119129  29.873   9.705   8.850
 4587POPC   GL219130  30.061   9.781   8.850
 4587POPC   C1A19131  29.946   9.751   8.550
 4587POPC   D2A19132  29.955   9.754   8.250
 4587POPC   C3A19133  29.898   9.713   7.950
 4587POPC   C4A19134  29.872   9.793   7.650
 4587POPC   C1B19135  30.203   9.735   8.550
 4587POPC   C2B19136  30.192   9.775   8.250
 4587POPC   C3B19137  30.187   9.711   7.950
 4587POPC   C4B19138  30.197   9.713   7.650
 4588POPC   NC319139  12.046   8.974   9.450
 4588POPC   PO419140  12.109   8.982   9.150
 4588POPC   GL119141  12.072   8.972   8.850
 4588POPC   GL219142  11.919   8.990   8.850
 4588POPC   C1A19143  12.103   8.998   8.550
 4588POPC   D2A19144  12.123   8.984   8.250
 4588POPC   C3A19145  12.046   8.942   7.950
 4588POPC   C4A19146  12.061   8.938   7.650
 4588POPC   C1B19147  11.818   9.006   8.550
 4588POPC   C2B19148  11.873   9.054   8.250
 4588POPC   C3B19149  11.804   9.027   7.950
 4588POPC   C4B19150  11.837   9.001   7.650
 4589POPC   NC319151  39.276  39.272   9.450
 4589POPC   PO419152  39.267  39.204   9.150
 4589POPC   GL119153  39.225  39.232   8.850
 4589POPC   GL219154  39.145  39.388   8.850
 4589POPC   C1A19155  39.254  39.213   8.550
 4589POPC   D2A19156  39.276  39.244   8.250
 4589POPC   C3A19157  39.182  39.214   7.950
 4589POPC   C4A19158  39.233  39.216   7.650
 4589POPC   C1B19159  39.116  39.425   8.550
 4589POPC   C2B19160  39.136  39.494   8.250
 4589POPC   C3B19161  39.105  39.430   7.950
 4589POPC   C4B19162  39.134  39.476   7.650
 4590POPC   NC319163   1.180  32.978   9.450
 4590POPC   PO419164   1.258  32.994   9.150
 4590POPC   GL119165   1.189  33.012   8.850
 4590POPC   GL219166   1.324  33.000   8.850
 4590POPC   C1A19167   1.245  33.012   8.550
 4590POPC   D2A19168   1.173  32.998   8.250
 4590POPC   C3A19169   1.245  33.034   7.950
 4590POPC   C4A19170   1.206  33.023   7.650
 4590POPC   C1B19171   1.424  33.022   8.550
 4590POPC   C2B19172   1.506  32.969   8.250
 4590POPC   C3B19173   1.505  33.048   7.950
 4590POPC   C4B19174   1.484  33.041   7.650
 4591POPC   NC319175  16.727   0.460   9.450
 4591POPC   PO419176  16.698   0.469   9.150
 4591POPC   GL119177  16.743   0.420   8.850
 4591POPC   GL219178  16.616   0.412   8.850
 4591POPC   C1A19179  16.731   0.449   8.550
 4591POPC   D2A19180  16.775   0.439   8.250
 4591POPC   C3A19181  16.725   0.409   7.950
 4591POPC   C4A19182  16.701   0.425   7.650
 4591POPC   C1B19183  16.521   0.320   8.550
 4591POPC   C2B19184  16.510   0.306   8.250
 4591POPC   C3B19185  16.554   0.303   7.950
 4591POPC   C4B19186  16.562   0.315   7.650
 4592POPC   NC319187  41.512  14.382   9.450
 4592POPC   PO419188  41.569  14.383   9.150
 4592POPC   GL119189  41.593  14.389   8.850
 4592POPC   GL219190  41.672  14.276   8.850
 4592POPC   C1A19191  41.520  14.385   8.550
 4592POPC   D2A19192  41.585  14.430   8.250
 4592POPC   C3A19193  41.599  14.362   7.950
 4592POPC   C4A19194  41.569  14.440   7.650
 4592POPC   C1B19195  41.698  14.158   8.550
 4592POPC   C2B19196  41.697  14.207   8.250
 4592POPC   C3B19197  41.735  14.211   7.950
 4592POPC   C4B19198  41.697  14.167   7.650
 4593POPC   NC319199  40.823   3.544   9.450
 4593POPC   PO419200  40.740   3.526   9.150
 4593POPC   GL119201  40.744   3.545   8.850
 4593POPC   GL219202  40.801   3.702   8.850
 4593POPC   C1A19203  40.746   3.492   8.550
 4593POPC   D2A19204  40.741   3.511   8.250
 4593POPC   C3A19205  40.787   3.508   7.950
 4593POPC   C4A19206  40.791   3.506   7.650
 4593POPC   C1B19207  40.878   3.800   8.550
 4593POPC   C2B19208  40.873   3.789   8.250
 4593POPC   C3B19209  40.886   3.741   7.950
 4593POPC   C4B19210  40.869   3.767   7.650
 4594POPC   NC319211  28.415   8.948   9.450
 4594POPC   PO419212  28.391   8.923   9.150
 4594POPC   GL119213  28.379   8.979   8.850
 4594POPC   GL219214  28.429   9.060   8.850
 4594POPC   C1A19215  28.341   9.019   8.550
 4594POPC   D2A19216  28.356   8.991   8.250
 4594POPC   C3A19217  28.384   9.016   7.950
 4594POPC   C4A19218  28.335   8.994   7.650
 4594POPC   C1B19219  28.476   9.203   8.550
 4594POPC   C2B19220  28.515   9.242   8.250
 4594POPC   C3B19221  28.459   9.192   7.950
 4594POPC   C4B19222  28.466   9.224   7.650
 4595POPC   NC319223  32.998  22.164   9.450
 4595POPC   PO419224  33.045  22.153   9.150
 4595POPC   GL119225  32.985  22.149   8.850
 4595POPC   GL219226  33.173  22.152   8.850
 4595POPC   C1A19227  33.032  22.183   8.550
 4595POPC   D2A19228  33.037  22.152   8.250
 4595POPC   C3A19229  33.048  22.147   7.950
 4595POPC   C4A19230  32.993  22.119   7.650
 4595POPC   C1B19231  33.295  22.128   8.550
 4595POPC   C2B19232  33.307  22.175   8.250
 4595POPC   C3B19233  33.249  22.190   7.950
 4595POPC   C4B19234  33.268  22.193   7.650
 4596POPC   NC319235  34.567  29.891   9.450
 4596POPC   PO419236  34.559  29.874   9.150
 4596POPC   GL119237  34.574  29.947   8.850
 4596POPC   GL219238  34.661  29.987   8.850
 4596POPC   C1A19239  34.584  29.876   8.550
 4596POPC   D2A19240  34.622  29.930   8.250
 4596POPC   C3A19241  34.578  29.879   7.950
 4596POPC   C4A19242  34.541  29.920   7.650
 4596POPC   C1B19243  34.825  29.970   8.550
 4596POPC   C2B19244  34.837  29.955   8.250
 4596POPC   C3B19245  34.778  29.988   7.950
 4596POPC   C4B19246  34.854  29.949   7.650
 4597POPC   NC319247  30.689  37.674   9.450
 4597POPC   PO419248  30.739  37.726   9.150
 4597POPC   GL119249  30.663  37.647   8.850
 4597POPC   GL219250  30.601  37.674   8.850
 4597POPC   C1A19251  30.668  37.690   8.550
 4597POPC   D2A19252  30.670  37.630   8.250
 4597POPC   C3A19253  30.659  37.661   7.950
 4597POPC   C4A19254  30.648  37.702   7.650
 4597POPC   C1B19255  30.429  37.627   8.550
 4597POPC   C2B19256  30.404  37.640   8.250
 4597POPC   C3B19257  30.415  37.638   7.950
 4597POPC   C4B19258  30.404  37.707   7.650
 4598POPC   NC319259  38.456  31.475   9.450
 4598POPC   PO419260  38.481  31.434   9.150
 4598POPC   GL119261  38.450  31.497   8.850
 4598POPC   GL219262  38.371  31.429   8.850
 4598POPC   C1A19263  38.479  31.457   8.550
 4598POPC   D2A19264  38.417  31.519   8.250
 4598POPC   C3A19265  38.422  31.433   7.950
 4598POPC   C4A19266  38.430  31.521   7.650
 4598POPC   C1B19267  38.164  31.489   8.550
 4598POPC   C2B19268  38.209  31.401   8.250
 4598POPC   C3B19269  38.183  31.458   7.950
 4598POPC   C4B19270  38.164  31.486   7.650
 4599POPC   NC319271   8.228   0.399   9.450
 4599POPC   PO419272   8.207   0.426   9.150
 4599POPC   GL119273   8.237   0.407   8.850
 4599POPC   GL219274   8.079   0.346   8.850
 4599POPC   C1A19275   8.241   0.424   8.550
 4599POPC   D2A19276   8.175   0.456   8.250
 4599POPC   C3A19277   8.238   0.408   7.950
 4599POPC   C4A19278   8.242   0.405   7.650
 4599POPC   C1B19279   8.056   0.259   8.550
 4599POPC   C2B19280   8.061   0.278   8.250
 4599POPC   C3B19281   8.078   0.205   7.950
 4599POPC   C4B19282   8.041   0.266   7.650
 4600POPC   NC319283  28.394  42.348   9.450
 4600POPC   PO419284  28.326  42.306   9.150
 4600POPC   GL119285  28.338  42.317   8.850
 4600POPC   GL219286  28.452  42.281   8.850
 4600POPC   C1A19287  28.323  42.320   8.550
 4600POPC   D2A19288  28.418  42.373   8.250
 4600POPC   C3A19289  28.359  42.348   7.950
 4600POPC   C4A19290  28.334  42.334   7.650
 4600POPC   C1B19291  28.565  42.246   8.550
 4600POPC   C2B19292  28.569  42.337   8.250
 4600POPC   C3B19293  28.597  42.326   7.950
 4600POPC   C4B19294  28.650  42.261   7.650
 4601POPC   NC319295  25.225  14.423   9.450
 4601POPC   PO419296  25.265  14.377   9.150
 4601POPC   GL119297  25.271  14.381   8.850
 4601POPC   GL219298  25.255  14.567   8.850
 4601POPC   C1A19299  25.268  14.435   8.550
 4601POPC   D2A19300  25.247  14.394   8.250
 4601POPC   C3A19301  25.262  14.355   7.950
 4601POPC   C4A19302  25.303  14.438   7.650
 4601POPC   C1B19303  25.258  14.637   8.550
 4601POPC   C2B19304  25.177  14.608   8.250
 4601POPC   C3B19305  25.196  14.643   7.950
 4601POPC   C4B19306  25.179  14.622   7.650
 4602POPC   NC319307   2.732  23.684   9.450
 4602POPC   PO419308   2.733  23.692   9.150
 4602POPC   GL119309   2.723  23.753   8.850
 4602POPC   GL219310   2.705  23.543   8.850
 4602POPC   C1A19311   2.800  23.754   8.550
 4602POPC   D2A19312   2.776  23.688   8.250
 4602POPC   C3A19313   2.737  23.741   7.950
 4602POPC   C4A19314   2.718  23.693   7.650
 4602POPC   C1B19315   2.711  23.493   8.550
 4602POPC   C2B19316   2.700  23.477   8.250
 4602POPC   C3B19317   2.791  23.512   7.950
 4602POPC   C4B19318   2.710  23.466   7.650
 4603POPC   NC319319  22.919  39.239   9.450
 4603POPC   PO419320  22.890  39.212   9.150
 4603POPC   GL119321  22.946  39.220   8.850
 4603POPC   GL219322  23.024  39.173   8.850
 4603POPC   C1A19323  22.941  39.279   8.550
 4603POPC   D2A19324  22.920  39.189   8.250
 4603POPC   C3A19325  22.931  39.239   7.950
 4603POPC   C4A19326  22.983  39.274   7.650
 4603POPC   C1B19327  23.106  39.020   8.550
 4603POPC   C2B19328  23.075  39.021   8.250
 4603POPC   C3B19329  23.035  38.993   7.950
 4603POPC   C4B19330  23.081  39.005   7.650
 4604POPC   NC319331  14.415  40.014   9.450
 4604POPC   PO419332  14.377  39.964   9.150
 4604POPC   GL119333  14.438  40.056   8.850
 4604POPC   GL219334  14.286  40.111   8.850
 4604POPC   C1A19335  14.434  39.988   8.550
 4604POPC   D2A19336  14.447  39.989   8.250
 4604POPC   C3A19337  14.447  40.007   7.950
 4604POPC   C4A19338  14.389  39.964   7.650
 4604POPC   C1B19339  14.247  40.220   8.550
 4604POPC   C2B19340  14.263  40.169   8.250
 4604POPC   C3B19341  14.263  40.199   7.950
 4604POPC   C4B19342  14.267  40.150   7.650
 4605POPC   NC319343   4.362  12.043   9.450
 4605POPC   PO419344   4.353  12.108   9.150
 4605POPC   GL119345   4.321  12.088   8.850
 4605POPC   GL219346   4.424  12.049   8.850
 4605POPC   C1A19347   4.354  12.125   8.550
 4605POPC   D2A19348   4.290  12.074   8.250
 4605POPC   C3A19349   4.352  12.076   7.950
 4605POPC   C4A19350   4.314  12.108   7.650
 4605POPC   C1B19351   4.520  12.002   8.550
 4605POPC   C2B19352   4.543  12.062   8.250
 4605POPC   C3B19353   4.521  11.987   7.950
 4605POPC   C4B19354   4.561  12.039   7.650
 4606POPC   NC319355  31.470   9.780   9.450
 4606POPC   PO419356  31.437   9.734   9.150
 4606POPC   GL119357  31.468   9.783   8.850
 4606POPC   GL219358  31.340   9.707   8.850
 4606POPC   C1A19359  31.476   9.786   8.550
 4606POPC   D2A19360  31.437   9.757   8.250
 4606POPC   C3A19361  31.436   9.769   7.950
 4606POPC   C4A19362  31.469   9.711   7.650
 4606POPC   C1B19363  31.223   9.628   8.550
 4606POPC   C2B19364  31.194   9.617   8.250
 4606POPC   C3B19365  31.282   9.695   7.950
 4606POPC   C4B19366  31.221   9.626   7.650
 4607POPC   NC319367  38.481  12.854   9.450
 4607POPC   PO419368  38.416  12.832   9.150
 4607POPC   GL119369  38.435  12.804   8.850
 4607POPC   GL219370  38.373  12.763   8.850
 4607POPC   C1A19371  38.498  12.825   8.550
 4607POPC   D2A19372  38.420  12.849   8.250
 4607POPC   C3A19373  38.417  12.810   7.950
 4607POPC   C4A19374  38.436  12.816   7.650
 4607POPC   C1B19375  38.275  12.702   8.550
 4607POPC   C2B19376  38.251  12.670   8.250
 4607POPC   C3B19377  38.271  12.662   7.950
 4607POPC   C4B19378  38.277  12.633   7.650
 4608POPC   NC319379   5.886  34.549   9.450
 4608POPC   PO419380   5.856  34.582   9.150
 4608POPC   GL119381   5.823  34.554   8.850
 4608POPC   GL219382   5.771  34.667   8.850
 4608POPC   C1A19383   5.902  34.531   8.550
 4608POPC   D2A19384   5.871  34.541   8.250
 4608POPC   C3A19385   5.841  34.558   7.950
 4608POPC   C4A19386   5.827  34.579   7.650
 4608POPC   C1B19387   5.636  34.678   8.550
 4608POPC   C2B19388   5.617  34.654   8.250
 4608POPC   C3B19389   5.598  34.705   7.950
 4608POPC   C4B19390   5.645  34.705   7.650
 4609POPC   NC319391  22.900  40.763   9.450
 4609POPC   PO419392  22.929  40.775   9.150
 4609POPC   GL119393  22.945  40.768   8.850
 4609POPC   GL219394  22.868  40.902   8.850
 4609POPC   C1A19395  22.912  40.798   8.550
 4609POPC   D2A19396  22.897  40.759   8.250
 4609POPC   C3A19397  22.918  40.770   7.950
 4609POPC   C4A19398  22.955  40.777   7.650
 4609POPC   C1B19399  22.769  40.957   8.550
 4609POPC   C2B19400  22.780  40.995   8.250
 4609POPC   C3B19401  22.772  40.982   7.950
 4609POPC   C4B19402  22.754  40.932   7.650
 4610POPC   NC319403  13.591  22.210   9.450
 4610POPC   PO419404  13.590  22.115   9.150
 4610POPC   GL119405  13.644  22.135   8.850
 4610POPC   GL219406  13.539  22.197   8.850
 4610POPC   C1A19407  13.584  22.155   8.550
 4610POPC   D2A19408  13.673  22.190   8.250
 4610POPC   C3A19409  13.581  22.158   7.950
 4610POPC   C4A19410  13.590  22.168   7.650
 4610POPC   C1B19411  13.440  22.287   8.550
 4610POPC   C2B19412  13.443  22.300   8.250
 4610POPC   C3B19413  13.439  22.258   7.950
 4610POPC   C4B19414  13.432  22.246   7.650
 4611POPC   NC319415  38.457   4.315   9.450
 4611POPC   PO419416  38.445   4.334   9.150
 4611POPC   GL119417  38.445   4.286   8.850
 4611POPC   GL219418  38.390   4.426   8.850
 4611POPC   C1A19419  38.498   4.350   8.550
 4611POPC   D2A19420  38.505   4.293   8.250
 4611POPC   C3A19421  38.470   4.322   7.950
 4611POPC   C4A19422  38.488   4.313   7.650
 4611POPC   C1B19423  38.336   4.598   8.550
 4611POPC   C2B19424  38.374   4.524   8.250
 4611POPC   C3B19425  38.351   4.536   7.950
 4611POPC   C4B19426  38.361   4.574   7.650
 4612POPC   NC319427  44.695   4.354   9.450
 4612POPC   PO419428  44.616   4.315   9.150
 4612POPC   GL119429  44.675   4.279   8.850
 4612POPC   GL219430  44.536   4.308   8.850
 4612POPC   C1A19431  44.635   4.356   8.550
 4612POPC   D2A19432  44.697   4.318   8.250
 4612POPC   C3A19433  44.678   4.273   7.950
 4612POPC   C4A19434  44.647   4.281   7.650
 4612POPC   C1B19435  44.448   4.261   8.550
 4612POPC   C2B19436  44.385   4.267   8.250
 4612POPC   C3B19437  44.390   4.282   7.950
 4612POPC   C4B19438  44.431   4.278   7.650
 4613POPC   NC319439  29.191   7.428   9.450
 4613POPC   PO419440  29.150   7.401   9.150
 4613POPC   GL119441  29.144   7.445   8.850
 4613POPC   GL219442  29.029   7.322   8.850
 4613POPC   C1A19443  29.158   7.374   8.550
 4613POPC   D2A19444  29.154   7.406   8.250
 4613POPC   C3A19445  29.112   7.371   7.950
 4613POPC   C4A19446  29.098   7.465   7.650
 4613POPC   C1B19447  29.013   7.262   8.550
 4613POPC   C2B19448  29.030   7.271   8.250
 4613POPC   C3B19449  28.962   7.207   7.950
 4613POPC   C4B19450  28.956   7.179   7.650
 4614POPC   NC319451  33.792  21.340   9.450
 4614POPC   PO419452  33.813  21.403   9.150
 4614POPC   GL119453  33.780  21.383   8.850
 4614POPC   GL219454  33.696  21.540   8.850
 4614POPC   C1A19455  33.778  21.424   8.550
 4614POPC   D2A19456  33.782  21.398   8.250
 4614POPC   C3A19457  33.807  21.413   7.950
 4614POPC   C4A19458  33.844  21.358   7.650
 4614POPC   C1B19459  33.663  21.646   8.550
 4614POPC   C2B19460  33.708  21.645   8.250
 4614POPC   C3B19461  33.661  21.653   7.950
 4614POPC   C4B19462  33.640  21.590   7.650
 4615POPC   NC319463  32.218   5.063   9.450
 4615POPC   PO419464  32.244   5.063   9.150
 4615POPC   GL119465  32.206   5.046   8.850
 4615POPC   GL219466  32.359   5.188   8.850
 4615POPC   C1A19467  32.258   5.090   8.550
 4615POPC   D2A19468  32.266   5.138   8.250
 4615POPC   C3A19469  32.249   5.088   7.950
 4615POPC   C4A19470  32.243   5.110   7.650
 4615POPC   C1B19471  32.473   5.200   8.550
 4615POPC   C2B19472  32.492   5.191   8.250
 4615POPC   C3B19473  32.500   5.208   7.950
 4615POPC   C4B19474  32.433   5.185   7.650
 4616POPC   NC319475  26.789   7.389   9.450
 4616POPC   PO419476  26.825   7.443   9.150
 4616POPC   GL119477  26.823   7.417   8.850
 4616POPC   GL219478  26.842   7.316   8.850
 4616POPC   C1A19479  26.795   7.385   8.550
 4616POPC   D2A19480  26.823   7.449   8.250
 4616POPC   C3A19481  26.851   7.377   7.950
 4616POPC   C4A19482  26.842   7.423   7.650
 4616POPC   C1B19483  26.798   7.185   8.550
 4616POPC   C2B19484  26.829   7.215   8.250
 4616POPC   C3B19485  26.873   7.202   7.950
 4616POPC   C4B19486  26.776   7.134   7.650
 4617POPC   NC319487  39.995  43.901   9.450
 4617POPC   PO419488  39.975  43.929   9.150
 4617POPC   GL119489  39.981  43.852   8.850
 4617POPC   GL219490  39.982  43.760   8.850
 4617POPC   C1A19491  40.022  43.888   8.550
 4617POPC   D2A19492  40.004  43.887   8.250
 4617POPC   C3A19493  39.974  43.903   7.950
 4617POPC   C4A19494  39.968  43.915   7.650
 4617POPC   C1B19495  39.904  43.607   8.550
 4617POPC   C2B19496  39.893  43.614   8.250
 4617POPC   C3B19497  39.864  43.659   7.950
 4617POPC   C4B19498  39.912  43.700   7.650
 4618POPC   NC319499  19.056  10.560   9.450
 4618POPC   PO419500  19.010  10.541   9.150
 4618POPC   GL119501  19.050  10.529   8.850
 4618POPC   GL219502  18.948  10.453   8.850
 4618POPC   C1A19503  19.011  10.517   8.550
 4618POPC   D2A19504  19.098  10.490   8.250
 4618POPC   C3A19505  19.101  10.518   7.950
 4618POPC   C4A19506  19.104  10.529   7.650
 4618POPC   C1B19507  18.834  10.418   8.550
 4618POPC   C2B19508  18.841  10.449   8.250
 4618POPC   C3B19509  18.870  10.465   7.950
 4618POPC   C4B19510  18.861  10.431   7.650
 4619POPC   NC319511  26.049  39.245   9.450
 4619POPC   PO419512  26.043  39.256   9.150
 4619POPC   GL119513  26.038  39.203   8.850
 4619POPC   GL219514  26.086  39.401   8.850
 4619POPC   C1A19515  26.060  39.275   8.550
 4619POPC   D2A19516  26.040  39.210   8.250
 4619POPC   C3A19517  25.999  39.260   7.950
 4619POPC   C4A19518  26.065  39.254   7.650
 4619POPC   C1B19519  26.091  39.476   8.550
 4619POPC   C2B19520  26.026  39.514   8.250
 4619POPC   C3B19521  26.073  39.443   7.950
 4619POPC   C4B19522  26.078  39.529   7.650
 4620POPC   NC319523  15.168  12.852   9.450
 4620POPC   PO419524  15.186  12.880   9.150
 4620POPC   GL119525  15.157  12.854   8.850
 4620POPC   GL219526  15.240  12.961   8.850
 4620POPC   C1A19527  15.131  12.858   8.550
 4620POPC   D2A19528  15.183  12.810   8.250
 4620POPC   C3A19529  15.218  12.895   7.950
 4620POPC   C4A19530  15.210  12.886   7.650
 4620POPC   C1B19531  15.347  13.065   8.550
 4620POPC   C2B19532  15.300  13.091   8.250
 4620POPC   C3B19533  15.311  13.060   7.950
 4620POPC   C4B19534  15.326  13.060   7.650
 4621POPC   NC319535  12.885  26.088   9.450
 4621POPC   PO419536  12.886  26.064   9.150
 4621POPC   GL119537  12.812  26.069   8.850
 4621POPC   GL219538  12.744  26.036   8.850
 4621POPC   C1A19539  12.821  25.994   8.550
 4621POPC   D2A19540  12.848  26.067   8.250
 4621POPC   C3A19541  12.883  26.021   7.950
 4621POPC   C4A19542  12.829  25.994   7.650
 4621POPC   C1B19543  12.630  25.935   8.550
 4621POPC   C2B19544  12.578  25.948   8.250
 4621POPC   C3B19545  12.615  25.942   7.950
 4621POPC   C4B19546  12.576  26.016   7.650
 4622POPC   NC319547   1.982   9.004   9.450
 4622POPC   PO419548   1.988   8.963   9.150
 4622POPC   GL119549   2.021   8.978   8.850
 4622POPC   GL219550   1.953   8.890   8.850
 4622POPC   C1A19551   1.984   8.977   8.550
 4622POPC   D2A19552   1.993   9.010   8.250
 4622POPC   C3A19553   2.020   9.018   7.950
 4622POPC   C4A19554   1.976   9.003   7.650
 4622POPC   C1B19555   1.942   8.763   8.550
 4622POPC   C2B19556   1.974   8.763   8.250
 4622POPC   C3B19557   1.979   8.722   7.950
 4622POPC   C4B19558   1.954   8.774   7.650
 4623POPC   NC319559  24.464  19.100   9.450
 4623POPC   PO419560  24.528  19.018   9.150
 4623POPC   GL119561  24.540  19.017   8.850
 4623POPC   GL219562  24.555  18.923   8.850
 4623POPC   C1A19563  24.466  19.075   8.550
 4623POPC   D2A19564  24.465  19.104   8.250
 4623POPC   C3A19565  24.511  19.061   7.950
 4623POPC   C4A19566  24.498  19.013   7.650
 4623POPC   C1B19567  24.581  18.814   8.550
 4623POPC   C2B19568  24.553  18.806   8.250
 4623POPC   C3B19569  24.510  18.814   7.950
 4623POPC   C4B19570  24.554  18.827   7.650
 4624POPC   NC319571  39.975  30.670   9.450
 4624POPC   PO419572  39.970  30.666   9.150
 4624POPC   GL119573  40.038  30.742   8.850
 4624POPC   GL219574  39.984  30.601   8.850
 4624POPC   C1A19575  39.983  30.678   8.550
 4624POPC   D2A19576  40.020  30.731   8.250
 4624POPC   C3A19577  40.050  30.734   7.950
 4624POPC   C4A19578  40.052  30.718   7.650
 4624POPC   C1B19579  39.967  30.439   8.550
 4624POPC   C2B19580  39.993  30.459   8.250
 4624POPC   C3B19581  39.937  30.435   7.950
 4624POPC   C4B19582  39.954  30.415   7.650
 4625POPC   NC319583  35.304   5.111   9.450
 4625POPC   PO419584  35.311   5.082   9.150
 4625POPC   GL119585  35.302   5.106   8.850
 4625POPC   GL219586  35.439   4.983   8.850
 4625POPC   C1A19587  35.399   5.097   8.550
 4625POPC   D2A19588  35.360   5.088   8.250
 4625POPC   C3A19589  35.375   5.071   7.950
 4625POPC   C4A19590  35.342   5.106   7.650
 4625POPC   C1B19591  35.485   4.826   8.550
 4625POPC   C2B19592  35.501   4.886   8.250
 4625POPC   C3B19593  35.427   4.863   7.950
 4625POPC   C4B19594  35.422   4.841   7.650
 4626POPC   NC319595  15.946  42.293   9.450
 4626POPC   PO419596  15.998  42.367   9.150
 4626POPC   GL119597  16.002  42.297   8.850
 4626POPC   GL219598  16.054  42.334   8.850
 4626POPC   C1A19599  15.975  42.345   8.550
 4626POPC   D2A19600  15.975  42.355   8.250
 4626POPC   C3A19601  15.956  42.348   7.950
 4626POPC   C4A19602  15.971  42.366   7.650
 4626POPC   C1B19603  16.233  42.402   8.550
 4626POPC   C2B19604  16.216  42.437   8.250
 4626POPC   C3B19605  16.214  42.418   7.950
 4626POPC   C4B19606  16.160  42.374   7.650
 4627POPC   NC319607  25.284  43.907   9.450
 4627POPC   PO419608  25.314  43.883   9.150
 4627POPC   GL119609  25.312  43.879   8.850
 4627POPC   GL219610  25.436  43.943   8.850
 4627POPC   C1A19611  25.218  43.907   8.550
 4627POPC   D2A19612  25.282  43.849   8.250
 4627POPC   C3A19613  25.276  43.893   7.950
 4627POPC   C4A19614  25.247  43.901   7.650
 4627POPC   C1B19615  25.540  43.923   8.550
 4627POPC   C2B19616  25.496  43.883   8.250
 4627POPC   C3B19617  25.472  43.881   7.950
 4627POPC   C4B19618  25.515  43.902   7.650
 4628POPC   NC319619  35.364   3.537   9.450
 4628POPC   PO419620  35.329   3.573   9.150
 4628POPC   GL119621  35.389   3.564   8.850
 4628POPC   GL219622  35.251   3.557   8.850
 4628POPC   C1A19623  35.392   3.581   8.550
 4628POPC   D2A19624  35.327   3.581   8.250
 4628POPC   C3A19625  35.329   3.583   7.950
 4628POPC   C4A19626  35.311   3.571   7.650
 4628POPC   C1B19627  35.074   3.655   8.550
 4628POPC   C2B19628  35.157   3.682   8.250
 4628POPC   C3B19629  35.086   3.666   7.950
 4628POPC   C4B19630  35.138   3.625   7.650
 4629POPC   NC319631   7.471   6.629   9.450
 4629POPC   PO419632   7.386   6.646   9.150
 4629POPC   GL119633   7.390   6.667   8.850
 4629POPC   GL219634   7.321   6.761   8.850
 4629POPC   C1A19635   7.389   6.624   8.550
 4629POPC   D2A19636   7.395   6.660   8.250
 4629POPC   C3A19637   7.468   6.672   7.950
 4629POPC   C4A19638   7.450   6.682   7.650
 4629POPC   C1B19639   7.262   6.821   8.550
 4629POPC   C2B19640   7.251   6.761   8.250
 4629POPC   C3B19641   7.259   6.839   7.950
 4629POPC   C4B19642   7.259   6.763   7.650
 4630POPC   NC319643  17.550  33.751   9.450
 4630POPC   PO419644  17.512  33.755   9.150
 4630POPC   GL119645  17.510  33.756   8.850
 4630POPC   GL219646  17.352  33.737   8.850
 4630POPC   C1A19647  17.491  33.788   8.550
 4630POPC   D2A19648  17.500  33.820   8.250
 4630POPC   C3A19649  17.523  33.786   7.950
 4630POPC   C4A19650  17.510  33.781   7.650
 4630POPC   C1B19651  17.242  33.760   8.550
 4630POPC   C2B19652  17.238  33.745   8.250
 4630POPC   C3B19653  17.273  33.797   7.950
 4630POPC   C4B19654  17.266  33.756   7.650
 4631POPC   NC319655  36.856   8.220   9.450
 4631POPC   PO419656  36.866   8.201   9.150
 4631POPC   GL119657  36.932   8.179   8.850
 4631POPC   GL219658  37.025   8.124   8.850
 4631POPC   C1A19659  36.941   8.193   8.550
 4631POPC   D2A19660  36.914   8.158   8.250
 4631POPC   C3A19661  36.856   8.154   7.950
 4631POPC   C4A19662  36.917   8.152   7.650
 4631POPC   C1B19663  37.104   8.075   8.550
 4631POPC   C2B19664  37.065   8.081   8.250
 4631POPC   C3B19665  37.108   8.061   7.950
 4631POPC   C4B19666  37.124   8.080   7.650
 4632POPC   NC319667   9.718  25.263   9.450
 4632POPC   PO419668   9.725  25.296   9.150
 4632POPC   GL119669   9.764  25.241   8.850
 4632POPC   GL219670   9.587  25.300   8.850
 4632POPC   C1A19671   9.716  25.304   8.550
 4632POPC   D2A19672   9.712  25.301   8.250
 4632POPC   C3A19673   9.736  25.261   7.950
 4632POPC   C4A19674   9.760  25.253   7.650
 4632POPC   C1B19675   9.514  25.322   8.550
 4632POPC   C2B19676   9.469  25.330   8.250
 4632POPC   C3B19677   9.504  25.389   7.950
 4632POPC   C4B19678   9.532  25.373   7.650
 4633POPC   NC319679  11.314  12.838   9.450
 4633POPC   PO419680  11.328  12.842   9.150
 4633POPC   GL119681  11.274  12.866   8.850
 4633POPC   GL219682  11.323  12.964   8.850
 4633POPC   C1A19683  11.277  12.812   8.550
 4633POPC   D2A19684  11.333  12.841   8.250
 4633POPC   C3A19685  11.302  12.872   7.950
 4633POPC   C4A19686  11.327  12.843   7.650
 4633POPC   C1B19687  11.340  13.139   8.550
 4633POPC   C2B19688  11.391  13.079   8.250
 4633POPC   C3B19689  11.369  13.057   7.950
 4633POPC   C4B19690  11.367  13.073   7.650
 4634POPC   NC319691  31.439   7.432   9.450
 4634POPC   PO419692  31.460   7.373   9.150
 4634POPC   GL119693  31.462   7.398   8.850
 4634POPC   GL219694  31.628   7.460   8.850
 4634POPC   C1A19695  31.509   7.464   8.550
 4634POPC   D2A19696  31.501   7.462   8.250
 4634POPC   C3A19697  31.503   7.399   7.950
 4634POPC   C4A19698  31.464   7.427   7.650
 4634POPC   C1B19699  31.661   7.556   8.550
 4634POPC   C2B19700  31.696   7.534   8.250
 4634POPC   C3B19701  31.691   7.586   7.950
 4634POPC   C4B19702  31.683   7.492   7.650
 4635POPC   NC319703  36.952  33.763   9.450
 4635POPC   PO419704  36.940  33.780   9.150
 4635POPC   GL119705  36.901  33.759   8.850
 4635POPC   GL219706  36.768  33.722   8.850
 4635POPC   C1A19707  36.915  33.836   8.550
 4635POPC   D2A19708  36.867  33.767   8.250
 4635POPC   C3A19709  36.893  33.750   7.950
 4635POPC   C4A19710  36.871  33.793   7.650
 4635POPC   C1B19711  36.640  33.686   8.550
 4635POPC   C2B19712  36.634  33.714   8.250
 4635POPC   C3B19713  36.686  33.686   7.950
 4635POPC   C4B19714  36.705  33.763   7.650
 4636POPC   NC319715  10.520  14.402   9.450
 4636POPC   PO419716  10.485  14.372   9.150
 4636POPC   GL119717  10.569  14.383   8.850
 4636POPC   GL219718  10.672  14.438   8.850
 4636POPC   C1A19719  10.540  14.410   8.550
 4636POPC   D2A19720  10.545  14.395   8.250
 4636POPC   C3A19721  10.569  14.354   7.950
 4636POPC   C4A19722  10.556  14.382   7.650
 4636POPC   C1B19723  10.777  14.342   8.550
 4636POPC   C2B19724  10.749  14.342   8.250
 4636POPC   C3B19725  10.723  14.403   7.950
 4636POPC   C4B19726  10.734  14.370   7.650
 4637POPC   NC319727  14.412   3.533   9.450
 4637POPC   PO419728  14.356   3.590   9.150
 4637POPC   GL119729  14.407   3.532   8.850
 4637POPC   GL219730  14.497   3.465   8.850
 4637POPC   C1A19731  14.442   3.503   8.550
 4637POPC   D2A19732  14.440   3.542   8.250
 4637POPC   C3A19733  14.404   3.531   7.950
 4637POPC   C4A19734  14.436   3.534   7.650
 4637POPC   C1B19735  14.656   3.513   8.550
 4637POPC   C2B19736  14.646   3.477   8.250
 4637POPC   C3B19737  14.604   3.485   7.950
 4637POPC   C4B19738  14.671   3.460   7.650
 4638POPC   NC319739  27.569  42.337   9.450
 4638POPC   PO419740  27.635  42.343   9.150
 4638POPC   GL119741  27.613  42.354   8.850
 4638POPC   GL219742  27.468  42.375   8.850
 4638POPC   C1A19743  27.632  42.370   8.550
 4638POPC   D2A19744  27.562  42.344   8.250
 4638POPC   C3A19745  27.571  42.289   7.950
 4638POPC   C4A19746  27.631  42.339   7.650
 4638POPC   C1B19747  27.403  42.408   8.550
 4638POPC   C2B19748  27.389  42.473   8.250
 4638POPC   C3B19749  27.338  42.446   7.950
 4638POPC   C4B19750  27.387  42.410   7.650
 4639POPC   NC319751   9.773   3.525   9.450
 4639POPC   PO419752   9.711   3.551   9.150
 4639POPC   GL119753   9.733   3.552   8.850
 4639POPC   GL219754   9.656   3.423   8.850
 4639POPC   C1A19755   9.703   3.551   8.550
 4639POPC   D2A19756   9.713   3.537   8.250
 4639POPC   C3A19757   9.743   3.556   7.950
 4639POPC   C4A19758   9.730   3.550   7.650
 4639POPC   C1B19759   9.580   3.428   8.550
 4639POPC   C2B19760   9.548   3.406   8.250
 4639POPC   C3B19761   9.599   3.382   7.950
 4639POPC   C4B19762   9.502   3.351   7.650
 4640POPC   NC319763  12.033  18.300   9.450
 4640POPC   PO419764  12.029  18.313   9.150
 4640POPC   GL119765  12.055  18.261   8.850
 4640POPC   GL219766  12.121  18.154   8.850
 4640POPC   C1A19767  12.044  18.310   8.550
 4640POPC   D2A19768  12.106  18.263   8.250
 4640POPC   C3A19769  12.063  18.329   7.950
 4640POPC   C4A19770  12.117  18.329   7.650
 4640POPC   C1B19771  12.217  18.029   8.550
 4640POPC   C2B19772  12.162  18.013   8.250
 4640POPC   C3B19773  12.137  18.028   7.950
 4640POPC   C4B19774  12.176  18.061   7.650
 4641POPC   NC319775  11.344  37.689   9.450
 4641POPC   PO419776  11.326  37.656   9.150
 4641POPC   GL119777  11.306  37.707   8.850
 4641POPC   GL219778  11.386  37.714   8.850
 4641POPC   C1A19779  11.302  37.630   8.550
 4641POPC   D2A19780  11.325  37.675   8.250
 4641POPC   C3A19781  11.350  37.666   7.950
 4641POPC   C4A19782  11.285  37.647   7.650
 4641POPC   C1B19783  11.555  37.756   8.550
 4641POPC   C2B19784  11.509  37.838   8.250
 4641POPC   C3B19785  11.551  37.773   7.950
 4641POPC   C4B19786  11.511  37.803   7.650
 4642POPC   NC319787   1.940  17.530   9.450
 4642POPC   PO419788   1.985  17.544   9.150
 4642POPC   GL119789   1.986  17.505   8.850
 4642POPC   GL219790   1.872  17.585   8.850
 4642POPC   C1A19791   1.959  17.522   8.550
 4642POPC   D2A19792   1.942  17.502   8.250
 4642POPC   C3A19793   1.962  17.484   7.950
 4642POPC   C4A19794   2.010  17.530   7.650
 4642POPC   C1B19795   1.795  17.653   8.550
 4642POPC   C2B19796   1.772  17.658   8.250
 4642POPC   C3B19797   1.816  17.686   7.950
 4642POPC   C4B19798   1.768  17.686   7.650
 4643POPC   NC319799  31.495  37.685   9.450
 4643POPC   PO419800  31.510  37.672   9.150
 4643POPC   GL119801  31.506  37.687   8.850
 4643POPC   GL219802  31.587  37.741   8.850
 4643POPC   C1A19803  31.510  37.698   8.550
 4643POPC   D2A19804  31.498  37.657   8.250
 4643POPC   C3A19805  31.502  37.707   7.950
 4643POPC   C4A19806  31.448  37.707   7.650
 4643POPC   C1B19807  31.641  37.888   8.550
 4643POPC   C2B19808  31.659  37.850   8.250
 4643POPC   C3B19809  31.645  37.822   7.950
 4643POPC   C4B19810  31.640  37.852   7.650
 4644POPC   NC319811  19.036  33.048   9.450
 4644POPC   PO419812  19.011  33.030   9.150
 4644POPC   GL119813  19.077  33.010   8.850
 4644POPC   GL219814  19.152  33.131   8.850
 4644POPC   C1A19815  19.107  32.988   8.550
 4644POPC   D2A19816  19.047  33.016   8.250
 4644POPC   C3A19817  19.103  32.997   7.950
 4644POPC   C4A19818  19.101  32.988   7.650
 4644POPC   C1B19819  19.118  33.236   8.550
 4644POPC   C2B19820  19.161  33.244   8.250
 4644POPC   C3B19821  19.110  33.231   7.950
 4644POPC   C4B19822  19.129  33.250   7.650
 4645POPC   NC319823  12.817  34.588   9.450
 4645POPC   PO419824  12.860  34.617   9.150
 4645POPC   GL119825  12.811  34.536   8.850
 4645POPC   GL219826  12.761  34.604   8.850
 4645POPC   C1A19827  12.842  34.542   8.550
 4645POPC   D2A19828  12.842  34.600   8.250
 4645POPC   C3A19829  12.804  34.579   7.950
 4645POPC   C4A19830  12.876  34.543   7.650
 4645POPC   C1B19831  12.619  34.695   8.550
 4645POPC   C2B19832  12.647  34.685   8.250
 4645POPC   C3B19833  12.591  34.725   7.950
 4645POPC   C4B19834  12.604  34.667   7.650
 4646POPC   NC319835  36.088  43.874   9.450
 4646POPC   PO419836  36.175  43.906   9.150
 4646POPC   GL119837  36.113  43.851   8.850
 4646POPC   GL219838  36.252  43.784   8.850
 4646POPC   C1A19839  36.082  43.913   8.550
 4646POPC   D2A19840  36.090  43.842   8.250
 4646POPC   C3A19841  36.148  43.854   7.950
 4646POPC   C4A19842  36.176  43.848   7.650
 4646POPC   C1B19843  36.325  43.711   8.550
 4646POPC   C2B19844  36.360  43.717   8.250
 4646POPC   C3B19845  36.306  43.774   7.950
 4646POPC   C4B19846  36.282  43.716   7.650
 4647POPC   NC319847  40.021  27.553   9.450
 4647POPC   PO419848  39.983  27.564   9.150
 4647POPC   GL119849  40.046  27.576   8.850
 4647POPC   GL219850  39.887  27.743   8.850
 4647POPC   C1A19851  39.972  27.568   8.550
 4647POPC   D2A19852  39.994  27.595   8.250
 4647POPC   C3A19853  40.015  27.639   7.950
 4647POPC   C4A19854  39.965  27.563   7.650
 4647POPC   C1B19855  39.826  27.788   8.550
 4647POPC   C2B19856  39.817  27.817   8.250
 4647POPC   C3B19857  39.817  27.828   7.950
 4647POPC   C4B19858  39.894  27.760   7.650
 4648POPC   NC319859  14.430   6.654   9.450
 4648POPC   PO419860  14.384   6.663   9.150
 4648POPC   GL119861  14.364   6.678   8.850
 4648POPC   GL219862  14.253   6.701   8.850
 4648POPC   C1A19863  14.357   6.631   8.550
 4648POPC   D2A19864  14.408   6.627   8.250
 4648POPC   C3A19865  14.378   6.672   7.950
 4648POPC   C4A19866  14.434   6.680   7.650
 4648POPC   C1B19867  14.184   6.787   8.550
 4648POPC   C2B19868  14.134   6.764   8.250
 4648POPC   C3B19869  14.156   6.712   7.950
 4648POPC   C4B19870  14.190   6.756   7.650
 4649POPC   NC319871  20.566  42.341   9.450
 4649POPC   PO419872  20.593  42.349   9.150
 4649POPC   GL119873  20.603  42.320   8.850
 4649POPC   GL219874  20.682  42.381   8.850
 4649POPC   C1A19875  20.646  42.327   8.550
 4649POPC   D2A19876  20.622  42.354   8.250
 4649POPC   C3A19877  20.595  42.380   7.950
 4649POPC   C4A19878  20.562  42.302   7.650
 4649POPC   C1B19879  20.814  42.415   8.550
 4649POPC   C2B19880  20.876  42.437   8.250
 4649POPC   C3B19881  20.817  42.478   7.950
 4649POPC   C4B19882  20.850  42.441   7.650
 4650POPC   NC319883  26.025   1.966   9.450
 4650POPC   PO419884  26.067   1.972   9.150
 4650POPC   GL119885  26.020   1.950   8.850
 4650POPC   GL219886  26.141   1.951   8.850
 4650POPC   C1A19887  26.074   2.017   8.550
 4650POPC   D2A19888  26.034   2.028   8.250
 4650POPC   C3A19889  26.017   2.004   7.950
 4650POPC   C4A19890  26.066   1.959   7.650
 4650POPC   C1B19891  26.241   1.941   8.550
 4650POPC   C2B19892  26.308   1.910   8.250
 4650POPC   C3B19893  26.326   1.911   7.950
 4650POPC   C4B19894  26.263   1.922   7.650
 4651POPC   NC319895   5.117   1.262   9.450
 4651POPC   PO419896   5.090   1.203   9.150
 4651POPC   GL119897   5.113   1.227   8.850
 4651POPC   GL219898   5.027   1.281   8.850
 4651POPC   C1A19899   5.055   1.209   8.550
 4651POPC   D2A19900   5.108   1.227   8.250
 4651POPC   C3A19901   5.098   1.184   7.950
 4651POPC   C4A19902   5.072   1.182   7.650
 4651POPC   C1B19903   4.929   1.446   8.550
 4651POPC   C2B19904   4.962   1.411   8.250
 4651POPC   C3B19905   4.962   1.428   7.950
 4651POPC   C4B19906   4.925   1.418   7.650
 4652POPC   NC319907  31.502  14.428   9.450
 4652POPC   PO419908  31.508  14.424   9.150
 4652POPC   GL119909  31.507  14.437   8.850
 4652POPC   GL219910  31.319  14.415   8.850
 4652POPC   C1A19911  31.458  14.388   8.550
 4652POPC   D2A19912  31.430  14.387   8.250
 4652POPC   C3A19913  31.466  14.453   7.950
 4652POPC   C4A19914  31.465  14.363   7.650
 4652POPC   C1B19915  31.283  14.519   8.550
 4652POPC   C2B19916  31.229  14.494   8.250
 4652POPC   C3B19917  31.203  14.472   7.950
 4652POPC   C4B19918  31.265  14.503   7.650
 4653POPC   NC319919  12.898  27.584   9.450
 4653POPC   PO419920  12.895  27.558   9.150
 4653POPC   GL119921  12.832  27.569   8.850
 4653POPC   GL219922  12.720  27.624   8.850
 4653POPC   C1A19923  12.818  27.616   8.550
 4653POPC   D2A19924  12.822  27.612   8.250
 4653POPC   C3A19925  12.828  27.589   7.950
 4653POPC   C4A19926  12.886  27.592   7.650
 4653POPC   C1B19927  12.576  27.626   8.550
 4653POPC   C2B19928  12.635  27.571   8.250
 4653POPC   C3B19929  12.562  27.595   7.950
 4653POPC   C4B19930  12.590  27.645   7.650
 4654POPC   NC319931  39.196  15.984   9.450
 4654POPC   PO419932  39.263  15.961   9.150
 4654POPC   GL119933  39.216  15.934   8.850
 4654POPC   GL219934  39.389  15.892   8.850
 4654POPC   C1A19935  39.228  15.999   8.550
 4654POPC   D2A19936  39.236  16.001   8.250
 4654POPC   C3A19937  39.264  15.918   7.950
 4654POPC   C4A19938  39.220  15.920   7.650
 4654POPC   C1B19939  39.453  15.804   8.550
 4654POPC   C2B19940  39.430  15.861   8.250
 4654POPC   C3B19941  39.503  15.851   7.950
 4654POPC   C4B19942  39.440  15.863   7.650
 4655POPC   NC319943   7.380  20.561   9.450
 4655POPC   PO419944   7.376  20.580   9.150
 4655POPC   GL119945   7.455  20.587   8.850
 4655POPC   GL219946   7.574  20.657   8.850
 4655POPC   C1A19947   7.442  20.610   8.550
 4655POPC   D2A19948   7.419  20.577   8.250
 4655POPC   C3A19949   7.414  20.638   7.950
 4655POPC   C4A19950   7.410  20.599   7.650
 4655POPC   C1B19951   7.692  20.652   8.550
 4655POPC   C2B19952   7.623  20.640   8.250
 4655POPC   C3B19953   7.678  20.676   7.950
 4655POPC   C4B19954   7.699  20.632   7.650
 4656POPC   NC319955  43.913  19.870   9.450
 4656POPC   PO419956  43.919  19.805   9.150
 4656POPC   GL119957  43.862  19.880   8.850
 4656POPC   GL219958  43.744  19.768   8.850
 4656POPC   C1A19959  43.874  19.810   8.550
 4656POPC   D2A19960  43.864  19.800   8.250
 4656POPC   C3A19961  43.859  19.838   7.950
 4656POPC   C4A19962  43.894  19.854   7.650
 4656POPC   C1B19963  43.635  19.826   8.550
 4656POPC   C2B19964  43.650  19.832   8.250
 4656POPC   C3B19965  43.679  19.777   7.950
 4656POPC   C4B19966  43.606  19.762   7.650
 4657POPC   NC319967  40.042  29.933   9.450
 4657POPC   PO419968  40.012  29.908   9.150
 4657POPC   GL119969  39.995  29.965   8.850
 4657POPC   GL219970  39.922  29.920   8.850
 4657POPC   C1A19971  39.967  29.901   8.550
 4657POPC   D2A19972  40.056  29.960   8.250
 4657POPC   C3A19973  39.979  29.883   7.950
 4657POPC   C4A19974  40.005  29.937   7.650
 4657POPC   C1B19975  39.810  30.046   8.550
 4657POPC   C2B19976  39.752  29.961   8.250
 4657POPC   C3B19977  39.759  29.977   7.950
 4657POPC   C4B19978  39.778  29.973   7.650
 4658POPC   NC319979  36.130  33.817   9.450
 4658POPC   PO419980  36.128  33.799   9.150
 4658POPC   GL119981  36.160  33.807   8.850
 4658POPC   GL219982  36.197  33.707   8.850
 4658POPC   C1A19983  36.096  33.796   8.550
 4658POPC   D2A19984  36.175  33.752   8.250
 4658POPC   C3A19985  36.132  33.781   7.950
 4658POPC   C4A19986  36.103  33.838   7.650
 4658POPC   C1B19987  36.216  33.574   8.550
 4658POPC   C2B19988  36.269  33.619   8.250
 4658POPC   C3B19989  36.253  33.546   7.950
 4658POPC   C4B19990  36.288  33.532   7.650
 4659POPC   NC319991   4.294  20.581   9.450
 4659POPC   PO419992   4.356  20.643   9.150
 4659POPC   GL119993   4.365  20.658   8.850
 4659POPC   GL219994   4.410  20.552   8.850
 4659POPC   C1A19995   4.289  20.603   8.550
 4659POPC   D2A19996   4.281  20.590   8.250
 4659POPC   C3A19997   4.311  20.656   7.950
 4659POPC   C4A19998   4.342  20.593   7.650
 4659POPC   C1B19999   4.557  20.503   8.550
 4659POPC   C2B20000   4.549  20.453   8.250
 4659POPC   C3B20001   4.497  20.412   7.950
 4659POPC   C4B20002   4.465  20.461   7.650
 4660POPC   NC320003  32.985  44.628   9.450
 4660POPC   PO420004  33.034  44.705   9.150
 4660POPC   GL120005  33.044  44.652   8.850
 4660POPC   GL220006  32.855  44.650   8.850
 4660POPC   C1A20007  33.026  44.693   8.550
 4660POPC   D2A20008  33.064  44.659   8.250
 4660POPC   C3A20009  33.005  44.689   7.950
 4660POPC   C4A20010  33.064  44.630   7.650
 4660POPC   C1B20011  32.814  44.651   8.550
 4660POPC   C2B20012  32.764  44.626   8.250
 4660POPC   C3B20013  32.783  44.640   7.950
 4660POPC   C4B20014  32.777  44.649   7.650
 4661POPC   NC320015  39.267  24.447   9.450
 4661POPC   PO420016  39.199  24.456   9.150
 4661POPC   GL120017  39.238  24.460   8.850
 4661POPC   GL220018  39.298  24.416   8.850
 4661POPC   C1A20019  39.232  24.519   8.550
 4661POPC   D2A20020  39.266  24.517   8.250
 4661POPC   C3A20021  39.233  24.442   7.950
 4661POPC   C4A20022  39.242  24.443   7.650
 4661POPC   C1B20023  39.293  24.264   8.550
 4661POPC   C2B20024  39.335  24.243   8.250
 4661POPC   C3B20025  39.325  24.206   7.950
 4661POPC   C4B20026  39.280  24.209   7.650
 4662POPC   NC320027   1.182  15.913   9.450
 4662POPC   PO420028   1.165  15.965   9.150
 4662POPC   GL120029   1.169  15.990   8.850
 4662POPC   GL220030   1.161  15.824   8.850
 4662POPC   C1A20031   1.204  15.982   8.550
 4662POPC   D2A20032   1.247  15.915   8.250
 4662POPC   C3A20033   1.208  15.967   7.950
 4662POPC   C4A20034   1.230  15.942   7.650
 4662POPC   C1B20035   1.045  15.752   8.550
 4662POPC   C2B20036   1.098  15.803   8.250
 4662POPC   C3B20037   1.105  15.739   7.950
 4662POPC   C4B20038   1.086  15.753   7.650
 4663POPC   NC320039  13.675  14.396   9.450
 4663POPC   PO420040  13.655  14.375   9.150
 4663POPC   GL120041  13.657  14.453   8.850
 4663POPC   GL220042  13.677  14.553   8.850
 4663POPC   C1A20043  13.670  14.363   8.550
 4663POPC   D2A20044  13.654  14.372   8.250
 4663POPC   C3A20045  13.675  14.447   7.950
 4663POPC   C4A20046  13.609  14.358   7.650
 4663POPC   C1B20047  13.752  14.597   8.550
 4663POPC   C2B20048  13.736  14.673   8.250
 4663POPC   C3B20049  13.763  14.618   7.950
 4663POPC   C4B20050  13.766  14.662   7.650
 4664POPC   NC320051  22.152   1.179   9.450
 4664POPC   PO420052  22.202   1.234   9.150
 4664POPC   GL120053  22.155   1.202   8.850
 4664POPC   GL220054  22.312   1.225   8.850
 4664POPC   C1A20055  22.127   1.243   8.550
 4664POPC   D2A20056  22.131   1.249   8.250
 4664POPC   C3A20057  22.159   1.251   7.950
 4664POPC   C4A20058  22.157   1.230   7.650
 4664POPC   C1B20059  22.366   1.236   8.550
 4664POPC   C2B20060  22.366   1.194   8.250
 4664POPC   C3B20061  22.445   1.199   7.950
 4664POPC   C4B20062  22.396   1.153   7.650
 4665POPC   NC320063  12.098  14.411   9.450
 4665POPC   PO420064  12.071  14.376   9.150
 4665POPC   GL120065  12.076  14.406   8.850
 4665POPC   GL220066  12.140  14.501   8.850
 4665POPC   C1A20067  12.049  14.358   8.550
 4665POPC   D2A20068  12.119  14.422   8.250
 4665POPC   C3A20069  12.063  14.363   7.950
 4665POPC   C4A20070  12.027  14.387   7.650
 4665POPC   C1B20071  12.176  14.630   8.550
 4665POPC   C2B20072  12.184  14.635   8.250
 4665POPC   C3B20073  12.194  14.590   7.950
 4665POPC   C4B20074  12.238  14.642   7.650
 4666POPC   NC320075  35.309  25.260   9.450
 4666POPC   PO420076  35.399  25.252   9.150
 4666POPC   GL120077  35.304  25.271   8.850
 4666POPC   GL220078  35.248  25.219   8.850
 4666POPC   C1A20079  35.390  25.261   8.550
 4666POPC   D2A20080  35.350  25.221   8.250
 4666POPC   C3A20081  35.333  25.283   7.950
 4666POPC   C4A20082  35.355  25.309   7.650
 4666POPC   C1B20083  35.147  25.103   8.550
 4666POPC   C2B20084  35.165  25.122   8.250
 4666POPC   C3B20085  35.164  25.080   7.950
 4666POPC   C4B20086  35.170  25.050   7.650
 4667POPC   NC320087  42.372  43.112   9.450
 4667POPC   PO420088  42.378  43.097   9.150
 4667POPC   GL120089  42.360  43.142   8.850
 4667POPC   GL220090  42.465  43.060   8.850
 4667POPC   C1A20091  42.384  43.160   8.550
 4667POPC   D2A20092  42.337  43.119   8.250
 4667POPC   C3A20093  42.382  43.064   7.950
 4667POPC   C4A20094  42.345  43.138   7.650
 4667POPC   C1B20095  42.555  43.073   8.550
 4667POPC   C2B20096  42.605  43.096   8.250
 4667POPC   C3B20097  42.593  43.104   7.950
 4667POPC   C4B20098  42.624  43.027   7.650
 4668POPC   NC320099  34.574  25.244   9.450
 4668POPC   PO420100  34.622  25.247   9.150
 4668POPC   GL120101  34.570  25.297   8.850
 4668POPC   GL220102  34.489  25.321   8.850
 4668POPC   C1A20103  34.582  25.246   8.550
 4668POPC   D2A20104  34.618  25.313   8.250
 4668POPC   C3A20105  34.606  25.255   7.950
 4668POPC   C4A20106  34.584  25.277   7.650
 4668POPC   C1B20107  34.366  25.444   8.550
 4668POPC   C2B20108  34.408  25.423   8.250
 4668POPC   C3B20109  34.375  25.431   7.950
 4668POPC   C4B20110  34.397  25.396   7.650
 4669POPC   NC320111  31.516  18.320   9.450
 4669POPC   PO420112  31.433  18.250   9.150
 4669POPC   GL120113  31.489  18.311   8.850
 4669POPC   GL220114  31.608  18.229   8.850
 4669POPC   C1A20115  31.484  18.327   8.550
 4669POPC   D2A20116  31.496  18.310   8.250
 4669POPC   C3A20117  31.514  18.252   7.950
 4669POPC   C4A20118  31.433  18.266   7.650
 4669POPC   C1B20119  31.672  18.230   8.550
 4669POPC   C2B20120  31.746  18.228   8.250
 4669POPC   C3B20121  31.711  18.190   7.950
 4669POPC   C4B20122  31.723  18.174   7.650
 4670POPC   NC320123  36.908  26.785   9.450
 4670POPC   PO420124  36.926  26.778   9.150
 4670POPC   GL120125  36.891  26.771   8.850
 4670POPC   GL220126  36.947  26.872   8.850
 4670POPC   C1A20127  36.940  26.770   8.550
 4670POPC   D2A20128  36.903  26.858   8.250
 4670POPC   C3A20129  36.916  26.864   7.950
 4670POPC   C4A20130  36.906  26.857   7.650
 4670POPC   C1B20131  37.064  26.975   8.550
 4670POPC   C2B20132  37.101  26.972   8.250
 4670POPC   C3B20133  37.028  27.018   7.950
 4670POPC   C4B20134  37.033  27.048   7.650
 4671POPC   NC320135   1.229  37.686   9.450
 4671POPC   PO420136   1.202  37.662   9.150
 4671POPC   GL120137   1.192  37.721   8.850
 4671POPC   GL220138   1.131  37.750   8.850
 4671POPC   C1A20139   1.167  37.707   8.550
 4671POPC   D2A20140   1.242  37.701   8.250
 4671POPC   C3A20141   1.264  37.699   7.950
 4671POPC   C4A20142   1.244  37.658   7.650
 4671POPC   C1B20143   1.027  37.849   8.550
 4671POPC   C2B20144   1.108  37.900   8.250
 4671POPC   C3B20145   1.092  37.835   7.950
 4671POPC   C4B20146   1.029  37.839   7.650
 4672POPC   NC320147  20.599  44.694   9.450
 4672POPC   PO420148  20.643  44.648   9.150
 4672POPC   GL120149  20.562  44.710   8.850
 4672POPC   GL220150  20.679  44.816   8.850
 4672POPC   C1A20151  20.629  44.674   8.550
 4672POPC   D2A20152  20.563  44.696   8.250
 4672POPC   C3A20153  20.621  44.675   7.950
 4672POPC   C4A20154  20.658  44.641   7.650
 4672POPC   C1B20155  20.762  44.858   8.550
 4672POPC   C2B20156  20.747  44.848   8.250
 4672POPC   C3B20157  20.695  44.918   7.950
 4672POPC   C4B20158  20.687  44.899   7.650
 4673POPC   NC320159  17.519  19.831   9.450
 4673POPC   PO420160  17.462  19.801   9.150
 4673POPC   GL120161  17.492  19.865   8.850
 4673POPC   GL220162  17.561  19.790   8.850
 4673POPC   C1A20163  17.533  19.826   8.550
 4673POPC   D2A20164  17.532  19.809   8.250
 4673POPC   C3A20165  17.489  19.844   7.950
 4673POPC   C4A20166  17.499  19.855   7.650
 4673POPC   C1B20167  17.690  19.666   8.550
 4673POPC   C2B20168  17.652  19.700   8.250
 4673POPC   C3B20169  17.633  19.635   7.950
 4673POPC   C4B20170  17.663  19.628   7.650
 4674POPC   NC320171  38.423   9.014   9.450
 4674POPC   PO420172  38.505   8.985   9.150
 4674POPC   GL120173  38.487   9.014   8.850
 4674POPC   GL220174  38.582   8.958   8.850
 4674POPC   C1A20175  38.441   8.945   8.550
 4674POPC   D2A20176  38.418   9.020   8.250
 4674POPC   C3A20177  38.479   8.964   7.950
 4674POPC   C4A20178  38.461   8.993   7.650
 4674POPC   C1B20179  38.656   8.900   8.550
 4674POPC   C2B20180  38.715   8.899   8.250
 4674POPC   C3B20181  38.679   8.916   7.950
 4674POPC   C4B20182  38.717   8.896   7.650
 4675POPC   NC320183   5.907  29.121   9.450
 4675POPC   PO420184   5.823  29.152   9.150
 4675POPC   GL120185   5.849  29.097   8.850
 4675POPC   GL220186   5.985  29.240   8.850
 4675POPC   C1A20187   5.886  29.159   8.550
 4675POPC   D2A20188   5.881  29.150   8.250
 4675POPC   C3A20189   5.910  29.159   7.950
 4675POPC   C4A20190   5.855  29.099   7.650
 4675POPC   C1B20191   6.027  29.345   8.550
 4675POPC   C2B20192   6.014  29.293   8.250
 4675POPC   C3B20193   6.037  29.366   7.950
 4675POPC   C4B20194   6.053  29.293   7.650
 4676POPC   NC320195   1.181  39.972   9.450
 4676POPC   PO420196   1.221  39.985   9.150
 4676POPC   GL120197   1.204  40.002   8.850
 4676POPC   GL220198   1.320  40.035   8.850
 4676POPC   C1A20199   1.165  40.050   8.550
 4676POPC   D2A20200   1.167  40.019   8.250
 4676POPC   C3A20201   1.263  40.043   7.950
 4676POPC   C4A20202   1.226  40.005   7.650
 4676POPC   C1B20203   1.480  40.015   8.550
 4676POPC   C2B20204   1.418  39.998   8.250
 4676POPC   C3B20205   1.458  40.044   7.950
 4676POPC   C4B20206   1.512  40.037   7.650
 4677POPC   NC320207  43.913  40.056   9.450
 4677POPC   PO420208  43.865  40.046   9.150
 4677POPC   GL120209  43.859  40.014   8.850
 4677POPC   GL220210  43.853  40.125   8.850
 4677POPC   C1A20211  43.914  40.052   8.550
 4677POPC   D2A20212  43.866  40.022   8.250
 4677POPC   C3A20213  43.935  40.013   7.950
 4677POPC   C4A20214  43.866  40.031   7.650
 4677POPC   C1B20215  43.753  40.250   8.550
 4677POPC   C2B20216  43.785  40.205   8.250
 4677POPC   C3B20217  43.788  40.213   7.950
 4677POPC   C4B20218  43.711  40.191   7.650
 4678POPC   NC320219  12.884  38.471   9.450
 4678POPC   PO420220  12.863  38.489   9.150
 4678POPC   GL120221  12.828  38.441   8.850
 4678POPC   GL220222  12.916  38.350   8.850
 4678POPC   C1A20223  12.855  38.457   8.550
 4678POPC   D2A20224  12.867  38.475   8.250
 4678POPC   C3A20225  12.838  38.429   7.950
 4678POPC   C4A20226  12.842  38.473   7.650
 4678POPC   C1B20227  13.054  38.336   8.550
 4678POPC   C2B20228  13.036  38.341   8.250
 4678POPC   C3B20229  13.083  38.331   7.950
 4678POPC   C4B20230  13.044  38.260   7.650
 4679POPC   NC320231  23.700  12.824   9.450
 4679POPC   PO420232  23.696  12.881   9.150
 4679POPC   GL120233  23.683  12.829   8.850
 4679POPC   GL220234  23.843  12.796   8.850
 4679POPC   C1A20235  23.736  12.816   8.550
 4679POPC   D2A20236  23.666  12.803   8.250
 4679POPC   C3A20237  23.742  12.862   7.950
 4679POPC   C4A20238  23.746  12.886   7.650
 4679POPC   C1B20239  23.919  12.806   8.550
 4679POPC   C2B20240  23.987  12.860   8.250
 4679POPC   C3B20241  23.975  12.836   7.950
 4679POPC   C4B20242  23.987  12.818   7.650
 4680POPC   NC320243  42.315  35.357   9.450
 4680POPC   PO420244  42.328  35.318   9.150
 4680POPC   GL120245  42.318  35.360   8.850
 4680POPC   GL220246  42.284  35.450   8.850
 4680POPC   C1A20247  42.333  35.368   8.550
 4680POPC   D2A20248  42.335  35.345   8.250
 4680POPC   C3A20249  42.346  35.352   7.950
 4680POPC   C4A20250  42.298  35.355   7.650
 4680POPC   C1B20251  42.267  35.631   8.550
 4680POPC   C2B20252  42.348  35.646   8.250
 4680POPC   C3B20253  42.321  35.650   7.950
 4680POPC   C4B20254  42.328  35.640   7.650
 4681POPC   NC320255   6.629  32.294   9.450
 4681POPC   PO420256   6.612  32.295   9.150
 4681POPC   GL120257   6.597  32.245   8.850
 4681POPC   GL220258   6.677  32.318   8.850
 4681POPC   C1A20259   6.622  32.263   8.550
 4681POPC   D2A20260   6.599  32.286   8.250
 4681POPC   C3A20261   6.624  32.264   7.950
 4681POPC   C4A20262   6.683  32.260   7.650
 4681POPC   C1B20263   6.756  32.454   8.550
 4681POPC   C2B20264   6.680  32.445   8.250
 4681POPC   C3B20265   6.727  32.482   7.950
 4681POPC   C4B20266   6.738  32.460   7.650
 4682POPC   NC320267  39.181  15.194   9.450
 4682POPC   PO420268  39.185  15.140   9.150
 4682POPC   GL120269  39.189  15.198   8.850
 4682POPC   GL220270  39.380  15.157   8.850
 4682POPC   C1A20271  39.229  15.197   8.550
 4682POPC   D2A20272  39.253  15.176   8.250
 4682POPC   C3A20273  39.228  15.173   7.950
 4682POPC   C4A20274  39.218  15.226   7.650
 4682POPC   C1B20275  39.491  15.055   8.550
 4682POPC   C2B20276  39.497  15.067   8.250
 4682POPC   C3B20277  39.421  15.074   7.950
 4682POPC   C4B20278  39.409  15.093   7.650
 4683POPC   NC320279  32.983  15.933   9.450
 4683POPC   PO420280  33.048  15.919   9.150
 4683POPC   GL120281  33.042  15.941   8.850
 4683POPC   GL220282  33.124  16.008   8.850
 4683POPC   C1A20283  33.042  16.005   8.550
 4683POPC   D2A20284  33.021  15.958   8.250
 4683POPC   C3A20285  33.044  15.907   7.950
 4683POPC   C4A20286  32.990  15.923   7.650
 4683POPC   C1B20287  33.187  16.138   8.550
 4683POPC   C2B20288  33.211  16.205   8.250
 4683POPC   C3B20289  33.214  16.180   7.950
 4683POPC   C4B20290  33.149  16.135   7.650
 4684POPC   NC320291   1.966   1.983   9.450
 4684POPC   PO420292   1.960   1.966   9.150
 4684POPC   GL120293   1.957   1.942   8.850
 4684POPC   GL220294   1.889   2.030   8.850
 4684POPC   C1A20295   1.947   1.945   8.550
 4684POPC   D2A20296   1.952   1.991   8.250
 4684POPC   C3A20297   2.014   1.990   7.950
 4684POPC   C4A20298   1.950   1.996   7.650
 4684POPC   C1B20299   1.734   1.933   8.550
 4684POPC   C2B20300   1.728   1.934   8.250
 4684POPC   C3B20301   1.743   1.979   7.950
 4684POPC   C4B20302   1.788   1.937   7.650
 4685POPC   NC320303  37.706  33.036   9.450
 4685POPC   PO420304  37.690  33.026   9.150
 4685POPC   GL120305  37.653  32.983   8.850
 4685POPC   GL220306  37.804  33.072   8.850
 4685POPC   C1A20307  37.632  33.000   8.550
 4685POPC   D2A20308  37.690  32.981   8.250
 4685POPC   C3A20309  37.681  33.004   7.950
 4685POPC   C4A20310  37.650  33.022   7.650
 4685POPC   C1B20311  37.970  33.048   8.550
 4685POPC   C2B20312  37.894  33.001   8.250
 4685POPC   C3B20313  37.934  32.997   7.950
 4685POPC   C4B20314  37.924  33.076   7.650
 4686POPC   NC320315  25.258   2.809   9.450
 4686POPC   PO420316  25.298   2.794   9.150
 4686POPC   GL120317  25.248   2.762   8.850
 4686POPC   GL220318  25.121   2.826   8.850
 4686POPC   C1A20319  25.282   2.722   8.550
 4686POPC   D2A20320  25.274   2.808   8.250
 4686POPC   C3A20321  25.296   2.771   7.950
 4686POPC   C4A20322  25.254   2.759   7.650
 4686POPC   C1B20323  25.063   2.856   8.550
 4686POPC   C2B20324  25.055   2.817   8.250
 4686POPC   C3B20325  24.996   2.786   7.950
 4686POPC   C4B20326  24.984   2.832   7.650
 4687POPC   NC320327  22.965   5.919   9.450
 4687POPC   PO420328  22.889   5.821   9.150
 4687POPC   GL120329  22.957   5.827   8.850
 4687POPC   GL220330  23.061   5.832   8.850
 4687POPC   C1A20331  22.968   5.895   8.550
 4687POPC   D2A20332  22.963   5.823   8.250
 4687POPC   C3A20333  22.891   5.857   7.950
 4687POPC   C4A20334  22.942   5.868   7.650
 4687POPC   C1B20335  23.178   5.712   8.550
 4687POPC   C2B20336  23.129   5.778   8.250
 4687POPC   C3B20337  23.117   5.775   7.950
 4687POPC   C4B20338  23.120   5.751   7.650
 4688POPC   NC320339  22.165  26.024   9.450
 4688POPC   PO420340  22.162  26.051   9.150
 4688POPC   GL120341  22.124  26.089   8.850
 4688POPC   GL220342  22.009  26.040   8.850
 4688POPC   C1A20343  22.166  26.038   8.550
 4688POPC   D2A20344  22.203  26.072   8.250
 4688POPC   C3A20345  22.146  26.019   7.950
 4688POPC   C4A20346  22.144  26.041   7.650
 4688POPC   C1B20347  21.901  26.170   8.550
 4688POPC   C2B20348  21.955  26.112   8.250
 4688POPC   C3B20349  21.881  26.087   7.950
 4688POPC   C4B20350  21.952  26.116   7.650
 4689POPC   NC320351  23.732  15.146   9.450
 4689POPC   PO420352  23.684  15.140   9.150
 4689POPC   GL120353  23.731  15.200   8.850
 4689POPC   GL220354  23.800  15.150   8.850
 4689POPC   C1A20355  23.710  15.206   8.550
 4689POPC   D2A20356  23.751  15.192   8.250
 4689POPC   C3A20357  23.725  15.135   7.950
 4689POPC   C4A20358  23.725  15.211   7.650
 4689POPC   C1B20359  23.955  15.052   8.550
 4689POPC   C2B20360  23.932  15.001   8.250
 4689POPC   C3B20361  23.920  15.072   7.950
 4689POPC   C4B20362  23.884  15.012   7.650
 4690POPC   NC320363  24.496   7.396   9.450
 4690POPC   PO420364  24.521   7.385   9.150
 4690POPC   GL120365  24.500   7.399   8.850
 4690POPC   GL220366  24.422   7.290   8.850
 4690POPC   C1A20367  24.480   7.424   8.550
 4690POPC   D2A20368  24.530   7.420   8.250
 4690POPC   C3A20369  24.469   7.467   7.950
 4690POPC   C4A20370  24.481   7.412   7.650
 4690POPC   C1B20371  24.286   7.298   8.550
 4690POPC   C2B20372  24.349   7.295   8.250
 4690POPC   C3B20373  24.261   7.284   7.950
 4690POPC   C4B20374  24.297   7.279   7.650
 4691POPC   NC320375  11.309  28.326   9.450
 4691POPC   PO420376  11.309  28.414   9.150
 4691POPC   GL120377  11.347  28.380   8.850
 4691POPC   GL220378  11.269  28.488   8.850
 4691POPC   C1A20379  11.327  28.328   8.550
 4691POPC   D2A20380  11.322  28.395   8.250
 4691POPC   C3A20381  11.333  28.364   7.950
 4691POPC   C4A20382  11.277  28.381   7.650
 4691POPC   C1B20383  11.141  28.546   8.550
 4691POPC   C2B20384  11.167  28.556   8.250
 4691POPC   C3B20385  11.141  28.534   7.950
 4691POPC   C4B20386  11.199  28.563   7.650
 4692POPC   NC320387  22.119  40.778   9.450
 4692POPC   PO420388  22.207  40.761   9.150
 4692POPC   GL120389  22.192  40.738   8.850
 4692POPC   GL220390  22.288  40.711   8.850
 4692POPC   C1A20391  22.129  40.753   8.550
 4692POPC   D2A20392  22.209  40.761   8.250
 4692POPC   C3A20393  22.182  40.803   7.950
 4692POPC   C4A20394  22.169  40.788   7.650
 4692POPC   C1B20395  22.367  40.689   8.550
 4692POPC   C2B20396  22.426  40.740   8.250
 4692POPC   C3B20397  22.432  40.681   7.950
 4692POPC   C4B20398  22.431  40.694   7.650
 4693POPC   NC320399  11.301   4.319   9.450
 4693POPC   PO420400  11.282   4.295   9.150
 4693POPC   GL120401  11.283   4.328   8.850
 4693POPC   GL220402  11.182   4.339   8.850
 4693POPC   C1A20403  11.253   4.366   8.550
 4693POPC   D2A20404  11.294   4.288   8.250
 4693POPC   C3A20405  11.281   4.337   7.950
 4693POPC   C4A20406  11.295   4.306   7.650
 4693POPC   C1B20407  11.085   4.346   8.550
 4693POPC   C2B20408  11.087   4.346   8.250
 4693POPC   C3B20409  11.030   4.368   7.950
 4693POPC   C4B20410  11.070   4.345   7.650
 4694POPC   NC320411  23.705   2.815   9.450
 4694POPC   PO420412  23.681   2.742   9.150
 4694POPC   GL120413  23.673   2.807   8.850
 4694POPC   GL220414  23.610   2.677   8.850
 4694POPC   C1A20415  23.758   2.794   8.550
 4694POPC   D2A20416  23.758   2.736   8.250
 4694POPC   C3A20417  23.676   2.804   7.950
 4694POPC   C4A20418  23.679   2.756   7.650
 4694POPC   C1B20419  23.504   2.615   8.550
 4694POPC   C2B20420  23.472   2.595   8.250
 4694POPC   C3B20421  23.537   2.609   7.950
 4694POPC   C4B20422  23.498   2.647   7.650
 4695POPC   NC320423   3.546  11.334   9.450
 4695POPC   PO420424   3.564  11.308   9.150
 4695POPC   GL120425   3.581  11.268   8.850
 4695POPC   GL220426   3.462  11.328   8.850
 4695POPC   C1A20427   3.498  11.269   8.550
 4695POPC   D2A20428   3.498  11.315   8.250
 4695POPC   C3A20429   3.560  11.286   7.950
 4695POPC   C4A20430   3.568  11.347   7.650
 4695POPC   C1B20431   3.269  11.306   8.550
 4695POPC   C2B20432   3.291  11.268   8.250
 4695POPC   C3B20433   3.251  11.336   7.950
 4695POPC   C4B20434   3.284  11.310   7.650
 4696POPC   NC320435  27.606  44.652   9.450
 4696POPC   PO420436  27.547  44.619   9.150
 4696POPC   GL120437  27.620  44.648   8.850
 4696POPC   GL220438  27.720  44.741   8.850
 4696POPC   C1A20439  27.595  44.617   8.550
 4696POPC   D2A20440  27.576  44.665   8.250
 4696POPC   C3A20441  27.568  44.618   7.950
 4696POPC   C4A20442  27.620  44.680   7.650
 4696POPC   C1B20443  27.772  44.830   8.550
 4696POPC   C2B20444  27.760  44.774   8.250
 4696POPC   C3B20445  27.821  44.833   7.950
 4696POPC   C4B20446  27.811  44.836   7.650
 4697POPC   NC320447  40.036  10.481   9.450
 4697POPC   PO420448  39.994  10.487   9.150
 4697POPC   GL120449  40.013  10.551   8.850
 4697POPC   GL220450  40.117  10.427   8.850
 4697POPC   C1A20451  40.033  10.510   8.550
 4697POPC   D2A20452  39.974  10.481   8.250
 4697POPC   C3A20453  39.994  10.545   7.950
 4697POPC   C4A20454  39.985  10.477   7.650
 4697POPC   C1B20455  40.230  10.349   8.550
 4697POPC   C2B20456  40.213  10.344   8.250
 4697POPC   C3B20457  40.205  10.328   7.950
 4697POPC   C4B20458  40.214  10.318   7.650
 4698POPC   NC320459  35.392   7.406   9.450
 4698POPC   PO420460  35.324   7.410   9.150
 4698POPC   GL120461  35.366   7.426   8.850
 4698POPC   GL220462  35.377   7.363   8.850
 4698POPC   C1A20463  35.377   7.390   8.550
 4698POPC   D2A20464  35.388   7.390   8.250
 4698POPC   C3A20465  35.316   7.464   7.950
 4698POPC   C4A20466  35.354   7.436   7.650
 4698POPC   C1B20467  35.499   7.201   8.550
 4698POPC   C2B20468  35.448   7.166   8.250
 4698POPC   C3B20469  35.488   7.202   7.950
 4698POPC   C4B20470  35.497   7.239   7.650
 4699POPC   NC320471  41.533  37.641   9.450
 4699POPC   PO420472  41.551  37.649   9.150
 4699POPC   GL120473  41.576  37.703   8.850
 4699POPC   GL220474  41.453  37.749   8.850
 4699POPC   C1A20475  41.602  37.717   8.550
 4699POPC   D2A20476  41.563  37.637   8.250
 4699POPC   C3A20477  41.602  37.676   7.950
 4699POPC   C4A20478  41.590  37.661   7.650
 4699POPC   C1B20479  41.280  37.758   8.550
 4699POPC   C2B20480  41.271  37.785   8.250
 4699POPC   C3B20481  41.340  37.732   7.950
 4699POPC   C4B20482  41.339  37.799   7.650
 4700POPC   NC320483  12.879   8.960   9.450
 4700POPC   PO420484  12.815   8.970   9.150
 4700POPC   GL120485  12.833   9.001   8.850
 4700POPC   GL220486  12.800   9.048   8.850
 4700POPC   C1A20487  12.893   8.983   8.550
 4700POPC   D2A20488  12.895   8.951   8.250
 4700POPC   C3A20489  12.892   8.936   7.950
 4700POPC   C4A20490  12.869   9.009   7.650
 4700POPC   C1B20491  12.831   9.222   8.550
 4700POPC   C2B20492  12.863   9.247   8.250
 4700POPC   C3B20493  12.843   9.230   7.950
 4700POPC   C4B20494  12.871   9.228   7.650
 4701POPC   NC320495  39.247  19.022   9.450
 4701POPC   PO420496  39.220  19.083   9.150
 4701POPC   GL120497  39.275  19.049   8.850
 4701POPC   GL220498  39.107  19.056   8.850
 4701POPC   C1A20499  39.237  19.057   8.550
 4701POPC   D2A20500  39.207  19.035   8.250
 4701POPC   C3A20501  39.202  19.054   7.950
 4701POPC   C4A20502  39.221  19.098   7.650
 4701POPC   C1B20503  38.957  19.030   8.550
 4701POPC   C2B20504  38.946  18.995   8.250
 4701POPC   C3B20505  38.965  18.991   7.950
 4701POPC   C4B20506  39.027  19.077   7.650
 4702POPC   NC320507  38.453  28.357   9.450
 4702POPC   PO420508  38.475  28.369   9.150
 4702POPC   GL120509  38.435  28.403   8.850
 4702POPC   GL220510  38.355  28.266   8.850
 4702POPC   C1A20511  38.498  28.393   8.550
 4702POPC   D2A20512  38.409  28.392   8.250
 4702POPC   C3A20513  38.438  28.328   7.950
 4702POPC   C4A20514  38.497  28.390   7.650
 4702POPC   C1B20515  38.247  28.173   8.550
 4702POPC   C2B20516  38.301  28.239   8.250
 4702POPC   C3B20517  38.294  28.241   7.950
 4702POPC   C4B20518  38.222  28.168   7.650
 4703POPC   NC320519  40.016  17.458   9.450
 4703POPC   PO420520  39.998  17.479   9.150
 4703POPC   GL120521  39.980  17.528   8.850
 4703POPC   GL220522  39.945  17.400   8.850
 4703POPC   C1A20523  39.992  17.466   8.550
 4703POPC   D2A20524  39.999  17.526   8.250
 4703POPC   C3A20525  39.997  17.542   7.950
 4703POPC   C4A20526  40.044  17.473   7.650
 4703POPC   C1B20527  39.802  17.284   8.550
 4703POPC   C2B20528  39.867  17.348   8.250
 4703POPC   C3B20529  39.869  17.334   7.950
 4703POPC   C4B20530  39.882  17.359   7.650
 4704POPC   NC320531  16.710   1.186   9.450
 4704POPC   PO420532  16.715   1.263   9.150
 4704POPC   GL120533  16.707   1.219   8.850
 4704POPC   GL220534  16.779   1.162   8.850
 4704POPC   C1A20535  16.701   1.167   8.550
 4704POPC   D2A20536  16.766   1.200   8.250
 4704POPC   C3A20537  16.703   1.233   7.950
 4704POPC   C4A20538  16.722   1.180   7.650
 4704POPC   C1B20539  16.913   1.002   8.550
 4704POPC   C2B20540  16.874   1.009   8.250
 4704POPC   C3B20541  16.927   1.050   7.950
 4704POPC   C4B20542  16.936   1.049   7.650
 4705POPC   NC320543   5.845  31.459   9.450
 4705POPC   PO420544   5.880  31.475   9.150
 4705POPC   GL120545   5.883  31.508   8.850
 4705POPC   GL220546   5.972  31.329   8.850
 4705POPC   C1A20547   5.827  31.458   8.550
 4705POPC   D2A20548   5.887  31.459   8.250
 4705POPC   C3A20549   5.847  31.456   7.950
 4705POPC   C4A20550   5.889  31.517   7.650
 4705POPC   C1B20551   5.950  31.236   8.550
 4705POPC   C2B20552   5.958  31.244   8.250
 4705POPC   C3B20553   6.000  31.279   7.950
 4705POPC   C4B20554   6.003  31.202   7.650
 4706POPC   NC320555  25.236  32.283   9.450
 4706POPC   PO420556  25.227  32.213   9.150
 4706POPC   GL120557  25.237  32.209   8.850
 4706POPC   GL220558  25.193  32.177   8.850
 4706POPC   C1A20559  25.292  32.231   8.550
 4706POPC   D2A20560  25.226  32.256   8.250
 4706POPC   C3A20561  25.245  32.235   7.950
 4706POPC   C4A20562  25.269  32.257   7.650
 4706POPC   C1B20563  25.175  32.042   8.550
 4706POPC   C2B20564  25.137  31.988   8.250
 4706POPC   C3B20565  25.130  32.034   7.950
 4706POPC   C4B20566  25.154  32.059   7.650
 4707POPC   NC320567  44.697  29.133   9.450
 4707POPC   PO420568  44.700  29.102   9.150
 4707POPC   GL120569  44.661  29.194   8.850
 4707POPC   GL220570  44.814  29.083   8.850
 4707POPC   C1A20571  44.682  29.163   8.550
 4707POPC   D2A20572  44.708  29.096   8.250
 4707POPC   C3A20573  44.617  29.165   7.950
 4707POPC   C4A20574  44.615  29.123   7.650
 4707POPC   C1B20575  44.916  29.058   8.550
 4707POPC   C2B20576  44.889  29.041   8.250
 4707POPC   C3B20577  44.835  28.991   7.950
 4707POPC   C4B20578  44.892  28.979   7.650
 4708POPC   NC320579  31.465   5.114   9.450
 4708POPC   PO420580  31.457   5.118   9.150
 4708POPC   GL120581  31.509   5.103   8.850
 4708POPC   GL220582  31.355   5.107   8.850
 4708POPC   C1A20583  31.516   5.108   8.550
 4708POPC   D2A20584  31.431   5.126   8.250
 4708POPC   C3A20585  31.517   5.080   7.950
 4708POPC   C4A20586  31.476   5.121   7.650
 4708POPC   C1B20587  31.204   5.168   8.550
 4708POPC   C2B20588  31.203   5.174   8.250
 4708POPC   C3B20589  31.195   5.221   7.950
 4708POPC   C4B20590  31.192   5.205   7.650
 4709POPC   NC320591  44.627  43.899   9.450
 4709POPC   PO420592  44.647  43.842   9.150
 4709POPC   GL120593  44.622  43.873   8.850
 4709POPC   GL220594  44.647  43.733   8.850
 4709POPC   C1A20595  44.613  43.901   8.550
 4709POPC   D2A20596  44.632  43.912   8.250
 4709POPC   C3A20597  44.699  43.854   7.950
 4709POPC   C4A20598  44.639  43.849   7.650
 4709POPC   C1B20599  44.677  43.670   8.550
 4709POPC   C2B20600  44.725  43.610   8.250
 4709POPC   C3B20601  44.671  43.666   7.950
 4709POPC   C4B20602  44.700  43.654   7.650
 4710POPC   NC320603  23.727  14.366   9.450
 4710POPC   PO420604  23.683  14.424   9.150
 4710POPC   GL120605  23.711  14.380   8.850
 4710POPC   GL220606  23.608  14.284   8.850
 4710POPC   C1A20607  23.676  14.405   8.550
 4710POPC   D2A20608  23.671  14.419   8.250
 4710POPC   C3A20609  23.700  14.433   7.950
 4710POPC   C4A20610  23.752  14.434   7.650
 4710POPC   C1B20611  23.556  14.284   8.550
 4710POPC   C2B20612  23.562  14.210   8.250
 4710POPC   C3B20613  23.475  14.201   7.950
 4710POPC   C4B20614  23.515  14.295   7.650
 4711POPC   NC320615  16.778  43.146   9.450
 4711POPC   PO420616  16.754  43.068   9.150
 4711POPC   GL120617  16.754  43.141   8.850
 4711POPC   GL220618  16.792  43.041   8.850
 4711POPC   C1A20619  16.720  43.148   8.550
 4711POPC   D2A20620  16.691  43.157   8.250
 4711POPC   C3A20621  16.692  43.078   7.950
 4711POPC   C4A20622  16.703  43.130   7.650
 4711POPC   C1B20623  16.863  42.967   8.550
 4711POPC   C2B20624  16.868  42.884   8.250
 4711POPC   C3B20625  16.918  42.918   7.950
 4711POPC   C4B20626  16.876  42.901   7.650
 4712POPC   NC320627  38.439  36.944   9.450
 4712POPC   PO420628  38.462  36.931   9.150
 4712POPC   GL120629  38.423  36.860   8.850
 4712POPC   GL220630  38.400  36.976   8.850
 4712POPC   C1A20631  38.447  36.879   8.550
 4712POPC   D2A20632  38.433  36.863   8.250
 4712POPC   C3A20633  38.461  36.880   7.950
 4712POPC   C4A20634  38.496  36.950   7.650
 4712POPC   C1B20635  38.272  37.078   8.550
 4712POPC   C2B20636  38.264  37.095   8.250
 4712POPC   C3B20637  38.259  37.056   7.950
 4712POPC   C4B20638  38.250  37.116   7.650
 4713POPC   NC320639  30.717   1.187   9.450
 4713POPC   PO420640  30.668   1.218   9.150
 4713POPC   GL120641  30.712   1.207   8.850
 4713POPC   GL220642  30.805   1.246   8.850
 4713POPC   C1A20643  30.727   1.174   8.550
 4713POPC   D2A20644  30.659   1.175   8.250
 4713POPC   C3A20645  30.707   1.246   7.950
 4713POPC   C4A20646  30.668   1.248   7.650
 4713POPC   C1B20647  30.949   1.336   8.550
 4713POPC   C2B20648  30.941   1.321   8.250
 4713POPC   C3B20649  30.882   1.272   7.950
 4713POPC   C4B20650  30.945   1.361   7.650
 4714POPC   NC320651   5.134   6.596   9.450
 4714POPC   PO420652   5.067   6.663   9.150
 4714POPC   GL120653   5.118   6.686   8.850
 4714POPC   GL220654   5.195   6.605   8.850
 4714POPC   C1A20655   5.050   6.628   8.550
 4714POPC   D2A20656   5.084   6.604   8.250
 4714POPC   C3A20657   5.112   6.686   7.950
 4714POPC   C4A20658   5.065   6.653   7.650
 4714POPC   C1B20659   5.391   6.584   8.550
 4714POPC   C2B20660   5.368   6.650   8.250
 4714POPC   C3B20661   5.318   6.668   7.950
 4714POPC   C4B20662   5.348   6.617   7.650
 4715POPC   NC320663  13.650  39.188   9.450
 4715POPC   PO420664  13.606  39.250   9.150
 4715POPC   GL120665  13.643  39.254   8.850
 4715POPC   GL220666  13.558  39.106   8.850
 4715POPC   C1A20667  13.677  39.200   8.550
 4715POPC   D2A20668  13.609  39.207   8.250
 4715POPC   C3A20669  13.665  39.276   7.950
 4715POPC   C4A20670  13.585  39.228   7.650
 4715POPC   C1B20671  13.495  39.047   8.550
 4715POPC   C2B20672  13.532  39.037   8.250
 4715POPC   C3B20673  13.528  39.061   7.950
 4715POPC   C4B20674  13.512  38.992   7.650
 4716POPC   NC320675  13.648  23.731   9.450
 4716POPC   PO420676  13.670  23.743   9.150
 4716POPC   GL120677  13.646  23.718   8.850
 4716POPC   GL220678  13.577  23.635   8.850
 4716POPC   C1A20679  13.630  23.666   8.550
 4716POPC   D2A20680  13.589  23.701   8.250
 4716POPC   C3A20681  13.586  23.750   7.950
 4716POPC   C4A20682  13.626  23.670   7.650
 4716POPC   C1B20683  13.561  23.478   8.550
 4716POPC   C2B20684  13.513  23.470   8.250
 4716POPC   C3B20685  13.539  23.523   7.950
 4716POPC   C4B20686  13.498  23.443   7.650
 4717POPC   NC320687  36.177  29.962   9.450
 4717POPC   PO420688  36.171  29.923   9.150
 4717POPC   GL120689  36.137  29.872   8.850
 4717POPC   GL220690  35.971  29.843   8.850
 4717POPC   C1A20691  36.112  29.929   8.550
 4717POPC   D2A20692  36.078  29.930   8.250
 4717POPC   C3A20693  36.098  29.893   7.950
 4717POPC   C4A20694  36.162  29.890   7.650
 4717POPC   C1B20695  35.941  29.835   8.550
 4717POPC   C2B20696  35.886  29.787   8.250
 4717POPC   C3B20697  35.926  29.784   7.950
 4717POPC   C4B20698  35.863  29.872   7.650
 4718POPC   NC320699  38.490  25.217   9.450
 4718POPC   PO420700  38.414  25.284   9.150
 4718POPC   GL120701  38.459  25.308   8.850
 4718POPC   GL220702  38.508  25.417   8.850
 4718POPC   C1A20703  38.496  25.239   8.550
 4718POPC   D2A20704  38.462  25.297   8.250
 4718POPC   C3A20705  38.484  25.293   7.950
 4718POPC   C4A20706  38.497  25.284   7.650
 4718POPC   C1B20707  38.544  25.469   8.550
 4718POPC   C2B20708  38.588  25.508   8.250
 4718POPC   C3B20709  38.590  25.493   7.950
 4718POPC   C4B20710  38.593  25.515   7.650
 4719POPC   NC320711  15.187  19.047   9.450
 4719POPC   PO420712  15.145  19.024   9.150
 4719POPC   GL120713  15.218  19.064   8.850
 4719POPC   GL220714  15.121  19.147   8.850
 4719POPC   C1A20715  15.181  19.010   8.550
 4719POPC   D2A20716  15.197  19.046   8.250
 4719POPC   C3A20717  15.228  19.061   7.950
 4719POPC   C4A20718  15.131  19.104   7.650
 4719POPC   C1B20719  15.110  19.268   8.550
 4719POPC   C2B20720  15.128  19.329   8.250
 4719POPC   C3B20721  15.082  19.317   7.950
 4719POPC   C4B20722  15.079  19.255   7.650
 4720POPC   NC320723  15.936  44.652   9.450
 4720POPC   PO420724  15.997  44.619   9.150
 4720POPC   GL120725  15.911  44.655   8.850
 4720POPC   GL220726  15.849  44.675   8.850
 4720POPC   C1A20727  15.986  44.617   8.550
 4720POPC   D2A20728  15.998  44.666   8.250
 4720POPC   C3A20729  15.995  44.702   7.950
 4720POPC   C4A20730  15.920  44.707   7.650
 4720POPC   C1B20731  15.716  44.799   8.550
 4720POPC   C2B20732  15.752  44.728   8.250
 4720POPC   C3B20733  15.692  44.767   7.950
 4720POPC   C4B20734  15.729  44.715   7.650
 4721POPC   NC320735  28.415   8.202   9.450
 4721POPC   PO420736  28.342   8.229   9.150
 4721POPC   GL120737  28.375   8.215   8.850
 4721POPC   GL220738  28.369   8.284   8.850
 4721POPC   C1A20739  28.330   8.191   8.550
 4721POPC   D2A20740  28.395   8.216   8.250
 4721POPC   C3A20741  28.384   8.217   7.950
 4721POPC   C4A20742  28.418   8.216   7.650
 4721POPC   C1B20743  28.454   8.400   8.550
 4721POPC   C2B20744  28.464   8.386   8.250
 4721POPC   C3B20745  28.440   8.464   7.950
 4721POPC   C4B20746  28.453   8.449   7.650
 4722POPC   NC320747  21.415  22.191   9.450
 4722POPC   PO420748  21.350  22.209   9.150
 4722POPC   GL120749  21.384  22.181   8.850
 4722POPC   GL220750  21.532  22.059   8.850
 4722POPC   C1A20751  21.412  22.172   8.550
 4722POPC   D2A20752  21.353  22.144   8.250
 4722POPC   C3A20753  21.421  22.198   7.950
 4722POPC   C4A20754  21.397  22.138   7.650
 4722POPC   C1B20755  21.624  21.992   8.550
 4722POPC   C2B20756  21.593  22.058   8.250
 4722POPC   C3B20757  21.604  21.989   7.950
 4722POPC   C4B20758  21.612  22.073   7.650
 4723POPC   NC320759  30.731   6.658   9.450
 4723POPC   PO420760  30.739   6.668   9.150
 4723POPC   GL120761  30.680   6.616   8.850
 4723POPC   GL220762  30.715   6.531   8.850
 4723POPC   C1A20763  30.723   6.651   8.550
 4723POPC   D2A20764  30.729   6.606   8.250
 4723POPC   C3A20765  30.712   6.679   7.950
 4723POPC   C4A20766  30.681   6.639   7.650
 4723POPC   C1B20767  30.713   6.416   8.550
 4723POPC   C2B20768  30.742   6.416   8.250
 4723POPC   C3B20769  30.739   6.374   7.950
 4723POPC   C4B20770  30.742   6.358   7.650
 4724POPC   NC320771  22.911   3.523   9.450
 4724POPC   PO420772  22.890   3.585   9.150
 4724POPC   GL120773  22.957   3.501   8.850
 4724POPC   GL220774  22.875   3.370   8.850
 4724POPC   C1A20775  22.957   3.497   8.550
 4724POPC   D2A20776  22.931   3.519   8.250
 4724POPC   C3A20777  22.930   3.542   7.950
 4724POPC   C4A20778  22.888   3.563   7.650
 4724POPC   C1B20779  22.936   3.257   8.550
 4724POPC   C2B20780  22.869   3.282   8.250
 4724POPC   C3B20781  22.930   3.274   7.950
 4724POPC   C4B20782  22.917   3.306   7.650
 4725POPC   NC320783  19.844  13.668   9.450
 4725POPC   PO420784  19.809  13.603   9.150
 4725POPC   GL120785  19.842  13.656   8.850
 4725POPC   GL220786  19.861  13.699   8.850
 4725POPC   C1A20787  19.836  13.587   8.550
 4725POPC   D2A20788  19.881  13.677   8.250
 4725POPC   C3A20789  19.825  13.670   7.950
 4725POPC   C4A20790  19.806  13.642   7.650
 4725POPC   C1B20791  19.913  13.837   8.550
 4725POPC   C2B20792  19.907  13.838   8.250
 4725POPC   C3B20793  19.983  13.853   7.950
 4725POPC   C4B20794  19.988  13.811   7.650
 4726POPC   NC320795  27.579  19.105   9.450
 4726POPC   PO420796  27.627  19.084   9.150
 4726POPC   GL120797  27.638  19.083   8.850
 4726POPC   GL220798  27.607  18.916   8.850
 4726POPC   C1A20799  27.629  19.020   8.550
 4726POPC   D2A20800  27.564  19.079   8.250
 4726POPC   C3A20801  27.573  19.068   7.950
 4726POPC   C4A20802  27.574  19.032   7.650
 4726POPC   C1B20803  27.722  18.813   8.550
 4726POPC   C2B20804  27.673  18.791   8.250
 4726POPC   C3B20805  27.644  18.823   7.950
 4726POPC   C4B20806  27.680  18.849   7.650
 4727POPC   NC320807  23.684  11.336   9.450
 4727POPC   PO420808  23.714  11.323   9.150
 4727POPC   GL120809  23.693  11.299   8.850
 4727POPC   GL220810  23.708  11.170   8.850
 4727POPC   C1A20811  23.697  11.342   8.550
 4727POPC   D2A20812  23.730  11.324   8.250
 4727POPC   C3A20813  23.706  11.269   7.950
 4727POPC   C4A20814  23.734  11.259   7.650
 4727POPC   C1B20815  23.700  11.069   8.550
 4727POPC   C2B20816  23.766  11.076   8.250
 4727POPC   C3B20817  23.750  11.071   7.950
 4727POPC   C4B20818  23.737  11.083   7.650
 4728POPC   NC320819  24.467  36.941   9.450
 4728POPC   PO420820  24.502  36.894   9.150
 4728POPC   GL120821  24.517  36.914   8.850
 4728POPC   GL220822  24.486  37.017   8.850
 4728POPC   C1A20823  24.524  36.902   8.550
 4728POPC   D2A20824  24.500  36.868   8.250
 4728POPC   C3A20825  24.517  36.863   7.950
 4728POPC   C4A20826  24.499  36.922   7.650
 4728POPC   C1B20827  24.432  37.110   8.550
 4728POPC   C2B20828  24.448  37.156   8.250
 4728POPC   C3B20829  24.447  37.144   7.950
 4728POPC   C4B20830  24.489  37.103   7.650
 4729POPC   NC320831   7.373  36.895   9.450
 4729POPC   PO420832   7.394  36.919   9.150
 4729POPC   GL120833   7.434  36.854   8.850
 4729POPC   GL220834   7.520  36.787   8.850
 4729POPC   C1A20835   7.465  36.914   8.550
 4729POPC   D2A20836   7.433  36.918   8.250
 4729POPC   C3A20837   7.470  36.934   7.950
 4729POPC   C4A20838   7.375  36.857   7.650
 4729POPC   C1B20839   7.584  36.683   8.550
 4729POPC   C2B20840   7.561  36.665   8.250
 4729POPC   C3B20841   7.546  36.729   7.950
 4729POPC   C4B20842   7.591  36.722   7.650
 4730POPC   NC320843  12.071   2.019   9.450
 4730POPC   PO420844  12.038   2.002   9.150
 4730POPC   GL120845  12.092   1.968   8.850
 4730POPC   GL220846  12.220   2.060   8.850
 4730POPC   C1A20847  12.116   1.961   8.550
 4730POPC   D2A20848  12.099   1.973   8.250
 4730POPC   C3A20849  12.055   1.954   7.950
 4730POPC   C4A20850  12.035   2.031   7.650
 4730POPC   C1B20851  12.296   2.131   8.550
 4730POPC   C2B20852  12.250   2.098   8.250
 4730POPC   C3B20853  12.239   2.161   7.950
 4730POPC   C4B20854  12.329   2.086   7.650
 4731POPC   NC320855   7.376  33.755   9.450
 4731POPC   PO420856   7.444  33.781   9.150
 4731POPC   GL120857   7.442  33.752   8.850
 4731POPC   GL220858   7.281  33.901   8.850
 4731POPC   C1A20859   7.390  33.812   8.550
 4731POPC   D2A20860   7.390  33.788   8.250
 4731POPC   C3A20861   7.416  33.757   7.950
 4731POPC   C4A20862   7.450  33.785   7.650
 4731POPC   C1B20863   7.209  33.935   8.550
 4731POPC   C2B20864   7.153  33.873   8.250
 4731POPC   C3B20865   7.204  33.928   7.950
 4731POPC   C4B20866   7.221  33.867   7.650
 4732POPC   NC320867  22.953  10.544   9.450
 4732POPC   PO420868  22.983  10.502   9.150
 4732POPC   GL120869  22.898  10.545   8.850
 4732POPC   GL220870  22.888  10.453   8.850
 4732POPC   C1A20871  22.978  10.505   8.550
 4732POPC   D2A20872  22.950  10.562   8.250
 4732POPC   C3A20873  22.909  10.508   7.950
 4732POPC   C4A20874  22.889  10.515   7.650
 4732POPC   C1B20875  22.749  10.291   8.550
 4732POPC   C2B20876  22.802  10.363   8.250
 4732POPC   C3B20877  22.757  10.348   7.950
 4732POPC   C4B20878  22.779  10.310   7.650
 4733POPC   NC320879   2.771  26.071   9.450
 4733POPC   PO420880   2.771  26.071   9.150
 4733POPC   GL120881   2.795  26.007   8.850
 4733POPC   GL220882   2.652  26.030   8.850
 4733POPC   C1A20883   2.796  26.026   8.550
 4733POPC   D2A20884   2.756  26.088   8.250
 4733POPC   C3A20885   2.792  26.004   7.950
 4733POPC   C4A20886   2.770  26.068   7.650
 4733POPC   C1B20887   2.474  26.089   8.550
 4733POPC   C2B20888   2.501  26.091   8.250
 4733POPC   C3B20889   2.523  26.049   7.950
 4733POPC   C4B20890   2.499  26.071   7.650
 4734POPC   NC320891  24.453   5.046   9.450
 4734POPC   PO420892  24.492   5.133   9.150
 4734POPC   GL120893  24.495   5.045   8.850
 4734POPC   GL220894  24.436   5.170   8.850
 4734POPC   C1A20895  24.501   5.132   8.550
 4734POPC   D2A20896  24.531   5.070   8.250
 4734POPC   C3A20897  24.530   5.086   7.950
 4734POPC   C4A20898  24.474   5.076   7.650
 4734POPC   C1B20899  24.519   5.391   8.550
 4734POPC   C2B20900  24.429   5.312   8.250
 4734POPC   C3B20901  24.433   5.385   7.950
 4734POPC   C4B20902  24.470   5.332   7.650
 4735POPC   NC320903  33.071  11.322   9.450
 4735POPC   PO420904  33.070  11.289   9.150
 4735POPC   GL120905  33.052  11.339   8.850
 4735POPC   GL220906  32.894  11.235   8.850
 4735POPC   C1A20907  33.021  11.328   8.550
 4735POPC   D2A20908  33.052  11.297   8.250
 4735POPC   C3A20909  33.024  11.258   7.950
 4735POPC   C4A20910  33.004  11.288   7.650
 4735POPC   C1B20911  32.838  11.103   8.550
 4735POPC   C2B20912  32.860  11.145   8.250
 4735POPC   C3B20913  32.843  11.115   7.950
 4735POPC   C4B20914  32.879  11.113   7.650
 4736POPC   NC320915  32.277  13.661   9.450
 4736POPC   PO420916  32.250  13.630   9.150
 4736POPC   GL120917  32.293  13.593   8.850
 4736POPC   GL220918  32.285  13.483   8.850
 4736POPC   C1A20919  32.271  13.632   8.550
 4736POPC   D2A20920  32.240  13.617   8.250
 4736POPC   C3A20921  32.293  13.629   7.950
 4736POPC   C4A20922  32.228  13.659   7.650
 4736POPC   C1B20923  32.393  13.392   8.550
 4736POPC   C2B20924  32.400  13.376   8.250
 4736POPC   C3B20925  32.359  13.416   7.950
 4736POPC   C4B20926  32.371  13.380   7.650
 4737POPC   NC320927  40.046   4.271   9.450
 4737POPC   PO420928  40.042   4.350   9.150
 4737POPC   GL120929  40.037   4.303   8.850
 4737POPC   GL220930  40.165   4.292   8.850
 4737POPC   C1A20931  40.034   4.349   8.550
 4737POPC   D2A20932  40.057   4.311   8.250
 4737POPC   C3A20933  40.028   4.320   7.950
 4737POPC   C4A20934  40.004   4.339   7.650
 4737POPC   C1B20935  40.260   4.269   8.550
 4737POPC   C2B20936  40.271   4.324   8.250
 4737POPC   C3B20937  40.262   4.282   7.950
 4737POPC   C4B20938  40.267   4.282   7.650
 4738POPC   NC320939   2.788  14.406   9.450
 4738POPC   PO420940   2.805  14.410   9.150
 4738POPC   GL120941   2.785  14.421   8.850
 4738POPC   GL220942   2.701  14.322   8.850
 4738POPC   C1A20943   2.717  14.413   8.550
 4738POPC   D2A20944   2.760  14.393   8.250
 4738POPC   C3A20945   2.758  14.380   7.950
 4738POPC   C4A20946   2.749  14.356   7.650
 4738POPC   C1B20947   2.624  14.165   8.550
 4738POPC   C2B20948   2.638  14.215   8.250
 4738POPC   C3B20949   2.672  14.188   7.950
 4738POPC   C4B20950   2.676  14.212   7.650
 4739POPC   NC320951  42.354  27.548   9.450
 4739POPC   PO420952  42.329  27.631   9.150
 4739POPC   GL120953  42.337  27.547   8.850
 4739POPC   GL220954  42.467  27.554   8.850
 4739POPC   C1A20955  42.315  27.599   8.550
 4739POPC   D2A20956  42.351  27.578   8.250
 4739POPC   C3A20957  42.354  27.605   7.950
 4739POPC   C4A20958  42.357  27.560   7.650
 4739POPC   C1B20959  42.501  27.454   8.550
 4739POPC   C2B20960  42.507  27.474   8.250
 4739POPC   C3B20961  42.546  27.439   7.950
 4739POPC   C4B20962  42.497  27.468   7.650
 4740POPC   NC320963  24.496   5.882   9.450
 4740POPC   PO420964  24.477   5.898   9.150
 4740POPC   GL120965  24.478   5.819   8.850
 4740POPC   GL220966  24.483   5.750   8.850
 4740POPC   C1A20967  24.462   5.913   8.550
 4740POPC   D2A20968  24.448   5.831   8.250
 4740POPC   C3A20969  24.485   5.894   7.950
 4740POPC   C4A20970  24.500   5.825   7.650
 4740POPC   C1B20971  24.571   5.656   8.550
 4740POPC   C2B20972  24.586   5.581   8.250
 4740POPC   C3B20973  24.504   5.589   7.950
 4740POPC   C4B20974  24.587   5.660   7.650
 4741POPC   NC320975  43.848   7.441   9.450
 4741POPC   PO420976  43.889   7.427   9.150
 4741POPC   GL120977  43.908   7.455   8.850
 4741POPC   GL220978  43.914   7.340   8.850
 4741POPC   C1A20979  43.864   7.419   8.550
 4741POPC   D2A20980  43.865   7.436   8.250
 4741POPC   C3A20981  43.846   7.462   7.950
 4741POPC   C4A20982  43.867   7.452   7.650
 4741POPC   C1B20983  44.023   7.273   8.550
 4741POPC   C2B20984  44.024   7.254   8.250
 4741POPC   C3B20985  44.031   7.223   7.950
 4741POPC   C4B20986  44.074   7.263   7.650
 4742POPC   NC320987  32.229  43.119   9.450
 4742POPC   PO420988  32.260  43.128   9.150
 4742POPC   GL120989  32.216  43.087   8.850
 4742POPC   GL220990  32.147  43.171   8.850
 4742POPC   C1A20991  32.247  43.117   8.550
 4742POPC   D2A20992  32.296  43.133   8.250
 4742POPC   C3A20993  32.228  43.142   7.950
 4742POPC   C4A20994  32.294  43.104   7.650
 4742POPC   C1B20995  32.033  43.155   8.550
 4742POPC   C2B20996  31.968  43.112   8.250
 4742POPC   C3B20997  32.017  43.163   7.950
 4742POPC   C4B20998  32.028  43.158   7.650
 4743POPC   NC320999  21.392  32.266   9.450
 4743POPC   PO421000  21.365  32.216   9.150
 4743POPC   GL121001  21.366  32.259   8.850
 4743POPC   GL221002  21.322  32.104   8.850
 4743POPC   C1A21003  21.430  32.269   8.550
 4743POPC   D2A21004  21.390  32.233   8.250
 4743POPC   C3A21005  21.344  32.268   7.950
 4743POPC   C4A21006  21.411  32.293   7.650
 4743POPC   C1B21007  21.209  32.024   8.550
 4743POPC   C2B21008  21.204  32.070   8.250
 4743POPC   C3B21009  21.209  32.039   7.950
 4743POPC   C4B21010  21.269  32.078   7.650
 4744POPC   NC321011   8.968  17.553   9.450
 4744POPC   PO421012   8.980  17.549   9.150
 4744POPC   GL121013   8.936  17.477   8.850
 4744POPC   GL221014   8.832  17.482   8.850
 4744POPC   C1A21015   9.005  17.548   8.550
 4744POPC   D2A21016   8.964  17.497   8.250
 4744POPC   C3A21017   8.929  17.518   7.950
 4744POPC   C4A21018   8.985  17.515   7.650
 4744POPC   C1B21019   8.731  17.384   8.550
 4744POPC   C2B21020   8.728  17.344   8.250
 4744POPC   C3B21021   8.736  17.410   7.950
 4744POPC   C4B21022   8.765  17.318   7.650
 4745POPC   NC321023  30.647  18.244   9.450
 4745POPC   PO421024  30.723  18.253   9.150
 4745POPC   GL121025  30.690  18.328   8.850
 4745POPC   GL221026  30.605  18.208   8.850
 4745POPC   C1A21027  30.653  18.267   8.550
 4745POPC   D2A21028  30.659  18.324   8.250
 4745POPC   C3A21029  30.678  18.311   7.950
 4745POPC   C4A21030  30.652  18.260   7.650
 4745POPC   C1B21031  30.568  18.108   8.550
 4745POPC   C2B21032  30.525  18.098   8.250
 4745POPC   C3B21033  30.510  18.065   7.950
 4745POPC   C4B21034  30.553  18.068   7.650
 4746POPC   NC321035  12.040  39.280   9.450
 4746POPC   PO421036  12.060  39.195   9.150
 4746POPC   GL121037  12.076  39.207   8.850
 4746POPC   GL221038  11.999  39.180   8.850
 4746POPC   C1A21039  12.047  39.258   8.550
 4746POPC   D2A21040  12.110  39.228   8.250
 4746POPC   C3A21041  12.065  39.235   7.950
 4746POPC   C4A21042  12.106  39.242   7.650
 4746POPC   C1B21043  11.881  39.054   8.550
 4746POPC   C2B21044  11.942  39.041   8.250
 4746POPC   C3B21045  11.880  39.093   7.950
 4746POPC   C4B21046  11.903  39.100   7.650
 4747POPC   NC321047  11.347  14.396   9.450
 4747POPC   PO421048  11.269  14.408   9.150
 4747POPC   GL121049  11.254  14.437   8.850
 4747POPC   GL221050  11.317  14.505   8.850
 4747POPC   C1A21051  11.349  14.369   8.550
 4747POPC   D2A21052  11.273  14.415   8.250
 4747POPC   C3A21053  11.307  14.359   7.950
 4747POPC   C4A21054  11.287  14.420   7.650
 4747POPC   C1B21055  11.314  14.622   8.550
 4747POPC   C2B21056  11.323  14.701   8.250
 4747POPC   C3B21057  11.281  14.691   7.950
 4747POPC   C4B21058  11.301  14.646   7.650
 4748POPC   NC321059  35.363  16.711   9.450
 4748POPC   PO421060  35.367  16.764   9.150
 4748POPC   GL121061  35.363  16.721   8.850
 4748POPC   GL221062  35.441  16.791   8.850
 4748POPC   C1A21063  35.383  16.685   8.550
 4748POPC   D2A21064  35.398  16.765   8.250
 4748POPC   C3A21065  35.360  16.691   7.950
 4748POPC   C4A21066  35.302  16.697   7.650
 4748POPC   C1B21067  35.640  16.837   8.550
 4748POPC   C2B21068  35.580  16.751   8.250
 4748POPC   C3B21069  35.554  16.773   7.950
 4748POPC   C4B21070  35.567  16.786   7.650
 4749POPC   NC321071  28.329  16.735   9.450
 4749POPC   PO421072  28.325  16.766   9.150
 4749POPC   GL121073  28.393  16.772   8.850
 4749POPC   GL221074  28.285  16.846   8.850
 4749POPC   C1A21075  28.413  16.746   8.550
 4749POPC   D2A21076  28.384  16.759   8.250
 4749POPC   C3A21077  28.321  16.752   7.950
 4749POPC   C4A21078  28.348  16.743   7.650
 4749POPC   C1B21079  28.170  16.919   8.550
 4749POPC   C2B21080  28.141  16.853   8.250
 4749POPC   C3B21081  28.180  16.828   7.950
 4749POPC   C4B21082  28.182  16.881   7.650
 4750POPC   NC321083  12.845  12.070   9.450
 4750POPC   PO421084  12.896  12.037   9.150
 4750POPC   GL121085  12.874  12.054   8.850
 4750POPC   GL221086  12.791  12.110   8.850
 4750POPC   C1A21087  12.821  12.116   8.550
 4750POPC   D2A21088  12.812  12.042   8.250
 4750POPC   C3A21089  12.861  12.035   7.950
 4750POPC   C4A21090  12.891  12.068   7.650
 4750POPC   C1B21091  12.631  12.199   8.550
 4750POPC   C2B21092  12.607  12.200   8.250
 4750POPC   C3B21093  12.593  12.153   7.950
 4750POPC   C4B21094  12.603  12.241   7.650
 4751POPC   NC321095  39.280  36.881   9.450
 4751POPC   PO421096  39.233  36.922   9.150
 4751POPC   GL121097  39.265  36.890   8.850
 4751POPC   GL221098  39.352  37.010   8.850
 4751POPC   C1A21099  39.224  36.872   8.550
 4751POPC   D2A21100  39.241  36.892   8.250
 4751POPC   C3A21101  39.194  36.916   7.950
 4751POPC   C4A21102  39.186  36.877   7.650
 4751POPC   C1B21103  39.440  37.075   8.550
 4751POPC   C2B21104  39.407  37.029   8.250
 4751POPC   C3B21105  39.491  37.022   7.950
 4751POPC   C4B21106  39.436  37.051   7.650
 4752POPC   NC321107  35.315  33.755   9.450
 4752POPC   PO421108  35.339  33.831   9.150
 4752POPC   GL121109  35.388  33.771   8.850
 4752POPC   GL221110  35.438  33.820   8.850
 4752POPC   C1A21111  35.359  33.799   8.550
 4752POPC   D2A21112  35.389  33.814   8.250
 4752POPC   C3A21113  35.375  33.819   7.950
 4752POPC   C4A21114  35.327  33.811   7.650
 4752POPC   C1B21115  35.616  33.825   8.550
 4752POPC   C2B21116  35.574  33.833   8.250
 4752POPC   C3B21117  35.564  33.853   7.950
 4752POPC   C4B21118  35.574  33.860   7.650
 4753POPC   NC321119  33.019  13.592   9.450
 4753POPC   PO421120  32.991  13.646   9.150
 4753POPC   GL121121  33.026  13.646   8.850
 4753POPC   GL221122  32.876  13.685   8.850
 4753POPC   C1A21123  32.977  13.657   8.550
 4753POPC   D2A21124  33.028  13.639   8.250
 4753POPC   C3A21125  32.990  13.589   7.950
 4753POPC   C4A21126  33.059  13.617   7.650
 4753POPC   C1B21127  32.827  13.779   8.550
 4753POPC   C2B21128  32.831  13.753   8.250
 4753POPC   C3B21129  32.781  13.729   7.950
 4753POPC   C4B21130  32.770  13.759   7.650
 4754POPC   NC321131   9.723  24.515   9.450
 4754POPC   PO421132   9.731  24.528   9.150
 4754POPC   GL121133   9.788  24.448   8.850
 4754POPC   GL221134   9.619  24.517   8.850
 4754POPC   C1A21135   9.775  24.485   8.550
 4754POPC   D2A21136   9.789  24.443   8.250
 4754POPC   C3A21137   9.725  24.528   7.950
 4754POPC   C4A21138   9.797  24.460   7.650
 4754POPC   C1B21139   9.523  24.437   8.550
 4754POPC   C2B21140   9.545  24.419   8.250
 4754POPC   C3B21141   9.548  24.425   7.950
 4754POPC   C4B21142   9.474  24.497   7.650
 4755POPC   NC321143  37.711   2.032   9.450
 4755POPC   PO421144  37.698   2.018   9.150
 4755POPC   GL121145  37.716   1.962   8.850
 4755POPC   GL221146  37.644   1.885   8.850
 4755POPC   C1A21147  37.679   2.026   8.550
 4755POPC   D2A21148  37.702   1.998   8.250
 4755POPC   C3A21149  37.657   1.987   7.950
 4755POPC   C4A21150  37.698   1.976   7.650
 4755POPC   C1B21151  37.635   1.751   8.550
 4755POPC   C2B21152  37.636   1.766   8.250
 4755POPC   C3B21153  37.612   1.761   7.950
 4755POPC   C4B21154  37.687   1.731   7.650
 4756POPC   NC321155  24.513   8.964   9.450
 4756POPC   PO421156  24.505   8.974   9.150
 4756POPC   GL121157  24.447   8.962   8.850
 4756POPC   GL221158  24.490   8.809   8.850
 4756POPC   C1A21159  24.501   8.944   8.550
 4756POPC   D2A21160  24.443   8.934   8.250
 4756POPC   C3A21161  24.477   8.951   7.950
 4756POPC   C4A21162  24.520   8.988   7.650
 4756POPC   C1B21163  24.416   8.741   8.550
 4756POPC   C2B21164  24.414   8.731   8.250
 4756POPC   C3B21165  24.369   8.719   7.950
 4756POPC   C4B21166  24.416   8.705   7.650
 4757POPC   NC321167  35.388   8.181   9.450
 4757POPC   PO421168  35.361   8.241   9.150
 4757POPC   GL121169  35.340   8.172   8.850
 4757POPC   GL221170  35.249   8.048   8.850
 4757POPC   C1A21171  35.343   8.172   8.550
 4757POPC   D2A21172  35.380   8.219   8.250
 4757POPC   C3A21173  35.341   8.147   7.950
 4757POPC   C4A21174  35.392   8.233   7.650
 4757POPC   C1B21175  35.239   7.991   8.550
 4757POPC   C2B21176  35.207   8.007   8.250
 4757POPC   C3B21177  35.238   8.003   7.950
 4757POPC   C4B21178  35.250   7.948   7.650
 4758POPC   NC321179   8.236  19.062   9.450
 4758POPC   PO421180   8.245  19.050   9.150
 4758POPC   GL121181   8.207  19.042   8.850
 4758POPC   GL221182   8.368  19.101   8.850
 4758POPC   C1A21183   8.170  19.092   8.550
 4758POPC   D2A21184   8.149  19.065   8.250
 4758POPC   C3A21185   8.173  19.030   7.950
 4758POPC   C4A21186   8.181  19.056   7.650
 4758POPC   C1B21187   8.409  19.003   8.550
 4758POPC   C2B21188   8.465  19.045   8.250
 4758POPC   C3B21189   8.449  19.036   7.950
 4758POPC   C4B21190   8.485  19.051   7.650
 4759POPC   NC321191  12.896  19.794   9.450
 4759POPC   PO421192  12.891  19.785   9.150
 4759POPC   GL121193  12.864  19.812   8.850
 4759POPC   GL221194  12.889  19.730   8.850
 4759POPC   C1A21195  12.802  19.837   8.550
 4759POPC   D2A21196  12.853  19.840   8.250
 4759POPC   C3A21197  12.832  19.831   7.950
 4759POPC   C4A21198  12.821  19.816   7.650
 4759POPC   C1B21199  12.930  19.629   8.550
 4759POPC   C2B21200  12.940  19.566   8.250
 4759POPC   C3B21201  12.953  19.631   7.950
 4759POPC   C4B21202  12.924  19.583   7.650
 4760POPC   NC321203   2.759  24.474   9.450
 4760POPC   PO421204   2.716  24.484   9.150
 4760POPC   GL121205   2.733  24.492   8.850
 4760POPC   GL221206   2.729  24.651   8.850
 4760POPC   C1A21207   2.763  24.524   8.550
 4760POPC   D2A21208   2.738  24.507   8.250
 4760POPC   C3A21209   2.716  24.493   7.950
 4760POPC   C4A21210   2.814  24.528   7.650
 4760POPC   C1B21211   2.706  24.702   8.550
 4760POPC   C2B21212   2.751  24.746   8.250
 4760POPC   C3B21213   2.713  24.764   7.950
 4760POPC   C4B21214   2.695  24.742   7.650
 4761POPC   NC321215  37.664  26.077   9.450
 4761POPC   PO421216  37.710  26.027   9.150
 4761POPC   GL121217  37.672  26.046   8.850
 4761POPC   GL221218  37.801  26.083   8.850
 4761POPC   C1A21219  37.685  26.012   8.550
 4761POPC   D2A21220  37.716  26.046   8.250
 4761POPC   C3A21221  37.693  26.010   7.950
 4761POPC   C4A21222  37.703  26.019   7.650
 4761POPC   C1B21223  37.963  26.095   8.550
 4761POPC   C2B21224  37.929  26.078   8.250
 4761POPC   C3B21225  37.954  26.040   7.950
 4761POPC   C4B21226  37.970  26.070   7.650
 4762POPC   NC321227   3.543  23.754   9.450
 4762POPC   PO421228   3.530  23.722   9.150
 4762POPC   GL121229   3.586  23.671   8.850
 4762POPC   GL221230   3.656  23.683   8.850
 4762POPC   C1A21231   3.563  23.749   8.550
 4762POPC   D2A21232   3.557  23.726   8.250
 4762POPC   C3A21233   3.501  23.739   7.950
 4762POPC   C4A21234   3.543  23.691   7.650
 4762POPC   C1B21235   3.750  23.706   8.550
 4762POPC   C2B21236   3.760  23.662   8.250
 4762POPC   C3B21237   3.775  23.712   7.950
 4762POPC   C4B21238   3.807  23.739   7.650
 4763POPC   NC321239  27.564  41.516   9.450
 4763POPC   PO421240  27.607  41.569   9.150
 4763POPC   GL121241  27.613  41.512   8.850
 4763POPC   GL221242  27.698  41.497   8.850
 4763POPC   C1A21243  27.549  41.544   8.550
 4763POPC   D2A21244  27.615  41.562   8.250
 4763POPC   C3A21245  27.551  41.554   7.950
 4763POPC   C4A21246  27.597  41.544   7.650
 4763POPC   C1B21247  27.717  41.380   8.550
 4763POPC   C2B21248  27.739  41.322   8.250
 4763POPC   C3B21249  27.785  41.331   7.950
 4763POPC   C4B21250  27.755  41.326   7.650
 4764POPC   NC321251  15.211  20.637   9.450
 4764POPC   PO421252  15.141  20.623   9.150
 4764POPC   GL121253  15.222  20.587   8.850
 4764POPC   GL221254  15.281  20.674   8.850
 4764POPC   C1A21255  15.172  20.624   8.550
 4764POPC   D2A21256  15.216  20.582   8.250
 4764POPC   C3A21257  15.159  20.567   7.950
 4764POPC   C4A21258  15.130  20.591   7.650
 4764POPC   C1B21259  15.354  20.832   8.550
 4764POPC   C2B21260  15.328  20.771   8.250
 4764POPC   C3B21261  15.300  20.807   7.950
 4764POPC   C4B21262  15.355  20.781   7.650
 4765POPC   NC321263  17.512  43.088   9.450
 4765POPC   PO421264  17.490  43.126   9.150
 4765POPC   GL121265  17.467  43.160   8.850
 4765POPC   GL221266  17.597  43.036   8.850
 4765POPC   C1A21267  17.471  43.128   8.550
 4765POPC   D2A21268  17.465  43.125   8.250
 4765POPC   C3A21269  17.458  43.080   7.950
 4765POPC   C4A21270  17.483  43.122   7.650
 4765POPC   C1B21271  17.726  43.002   8.550
 4765POPC   C2B21272  17.774  42.962   8.250
 4765POPC   C3B21273  17.689  43.040   7.950
 4765POPC   C4B21274  17.770  43.017   7.650
 4766POPC   NC321275   1.207  34.572   9.450
 4766POPC   PO421276   1.262  34.610   9.150
 4766POPC   GL121277   1.189  34.568   8.850
 4766POPC   GL221278   1.243  34.678   8.850
 4766POPC   C1A21279   1.185  34.624   8.550
 4766POPC   D2A21280   1.245  34.572   8.250
 4766POPC   C3A21281   1.261  34.587   7.950
 4766POPC   C4A21282   1.221  34.564   7.650
 4766POPC   C1B21283   1.250  34.777   8.550
 4766POPC   C2B21284   1.246  34.827   8.250
 4766POPC   C3B21285   1.245  34.856   7.950
 4766POPC   C4B21286   1.261  34.795   7.650
 4767POPC   NC321287   7.414  12.065   9.450
 4767POPC   PO421288   7.419  12.099   9.150
 4767POPC   GL121289   7.379  12.045   8.850
 4767POPC   GL221290   7.246  12.040   8.850
 4767POPC   C1A21291   7.390  12.100   8.550
 4767POPC   D2A21292   7.426  12.052   8.250
 4767POPC   C3A21293   7.376  12.064   7.950
 4767POPC   C4A21294   7.408  12.039   7.650
 4767POPC   C1B21295   7.166  12.029   8.550
 4767POPC   C2B21296   7.188  12.092   8.250
 4767POPC   C3B21297   7.195  12.052   7.950
 4767POPC   C4B21298   7.125  12.107   7.650
 4768POPC   NC321299  33.032   7.413   9.450
 4768POPC   PO421300  33.014   7.426   9.150
 4768POPC   GL121301  32.976   7.468   8.850
 4768POPC   GL221302  32.856   7.402   8.850
 4768POPC   C1A21303  33.064   7.427   8.550
 4768POPC   D2A21304  33.006   7.376   8.250
 4768POPC   C3A21305  33.016   7.440   7.950
 4768POPC   C4A21306  33.044   7.443   7.650
 4768POPC   C1B21307  32.739   7.384   8.550
 4768POPC   C2B21308  32.728   7.455   8.250
 4768POPC   C3B21309  32.768   7.399   7.950
 4768POPC   C4B21310  32.795   7.423   7.650
 4769POPC   NC321311  19.829   2.734   9.450
 4769POPC   PO421312  19.845   2.795   9.150
 4769POPC   GL121313  19.847   2.764   8.850
 4769POPC   GL221314  19.962   2.819   8.850
 4769POPC   C1A21315  19.808   2.789   8.550
 4769POPC   D2A21316  19.801   2.768   8.250
 4769POPC   C3A21317  19.859   2.734   7.950
 4769POPC   C4A21318  19.849   2.800   7.650
 4769POPC   C1B21319  20.007   2.898   8.550
 4769POPC   C2B21320  20.068   2.891   8.250
 4769POPC   C3B21321  20.059   2.891   7.950
 4769POPC   C4B21322  20.057   2.914   7.650
 4770POPC   NC321323  41.533  26.768   9.450
 4770POPC   PO421324  41.531  26.855   9.150
 4770POPC   GL121325  41.546  26.856   8.850
 4770POPC   GL221326  41.472  26.950   8.850
 4770POPC   C1A21327  41.557  26.863   8.550
 4770POPC   D2A21328  41.543  26.805   8.250
 4770POPC   C3A21329  41.559  26.817   7.950
 4770POPC   C4A21330  41.535  26.771   7.650
 4770POPC   C1B21331  41.385  26.986   8.550
 4770POPC   C2B21332  41.409  27.051   8.250
 4770POPC   C3B21333  41.446  26.975   7.950
 4770POPC   C4B21334  41.449  27.060   7.650
 4771POPC   NC321335  18.305   2.750   9.450
 4771POPC   PO421336  18.271   2.787   9.150
 4771POPC   GL121337  18.293   2.717   8.850
 4771POPC   GL221338  18.254   2.656   8.850
 4771POPC   C1A21339  18.256   2.746   8.550
 4771POPC   D2A21340  18.303   2.781   8.250
 4771POPC   C3A21341  18.240   2.776   7.950
 4771POPC   C4A21342  18.324   2.740   7.650
 4771POPC   C1B21343  18.253   2.485   8.550
 4771POPC   C2B21344  18.170   2.569   8.250
 4771POPC   C3B21345  18.186   2.481   7.950
 4771POPC   C4B21346  18.181   2.542   7.650
 4772POPC   NC321347  36.081  43.121   9.450
 4772POPC   PO421348  36.090  43.132   9.150
 4772POPC   GL121349  36.092  43.089   8.850
 4772POPC   GL221350  36.249  43.181   8.850
 4772POPC   C1A21351  36.139  43.156   8.550
 4772POPC   D2A21352  36.115  43.075   8.250
 4772POPC   C3A21353  36.096  43.084   7.950
 4772POPC   C4A21354  36.088  43.101   7.650
 4772POPC   C1B21355  36.296  43.254   8.550
 4772POPC   C2B21356  36.318  43.310   8.250
 4772POPC   C3B21357  36.307  43.306   7.950
 4772POPC   C4B21358  36.341  43.256   7.650
 4773POPC   NC321359  16.699  19.081   9.450
 4773POPC   PO421360  16.768  19.108   9.150
 4773POPC   GL121361  16.721  19.084   8.850
 4773POPC   GL221362  16.645  19.170   8.850
 4773POPC   C1A21363  16.746  19.053   8.550
 4773POPC   D2A21364  16.712  19.069   8.250
 4773POPC   C3A21365  16.715  19.072   7.950
 4773POPC   C4A21366  16.732  19.014   7.650
 4773POPC   C1B21367  16.616  19.307   8.550
 4773POPC   C2B21368  16.665  19.243   8.250
 4773POPC   C3B21369  16.648  19.334   7.950
 4773POPC   C4B21370  16.613  19.302   7.650
 4774POPC   NC321371  17.461   1.221   9.450
 4774POPC   PO421372  17.484   1.222   9.150
 4774POPC   GL121373  17.479   1.219   8.850
 4774POPC   GL221374  17.553   1.139   8.850
 4774POPC   C1A21375  17.527   1.219   8.550
 4774POPC   D2A21376  17.555   1.195   8.250
 4774POPC   C3A21377  17.557   1.221   7.950
 4774POPC   C4A21378  17.529   1.204   7.650
 4774POPC   C1B21379  17.710   1.021   8.550
 4774POPC   C2B21380  17.619   0.972   8.250
 4774POPC   C3B21381  17.619   1.049   7.950
 4774POPC   C4B21382  17.664   0.980   7.650
 4775POPC   NC321383  26.035  18.233   9.450
 4775POPC   PO421384  26.039  18.243   9.150
 4775POPC   GL121385  26.060  18.286   8.850
 4775POPC   GL221386  25.933  18.340   8.850
 4775POPC   C1A21387  26.069  18.293   8.550
 4775POPC   D2A21388  26.090  18.245   8.250
 4775POPC   C3A21389  26.039  18.252   7.950
 4775POPC   C4A21390  26.050  18.327   7.650
 4775POPC   C1B21391  25.891  18.537   8.550
 4775POPC   C2B21392  25.872  18.449   8.250
 4775POPC   C3B21393  25.903  18.468   7.950
 4775POPC   C4B21394  25.912  18.521   7.650
 4776POPC   NC321395  37.689  39.959   9.450
 4776POPC   PO421396  37.704  40.024   9.150
 4776POPC   GL121397  37.652  39.966   8.850
 4776POPC   GL221398  37.808  40.056   8.850
 4776POPC   C1A21399  37.657  39.972   8.550
 4776POPC   D2A21400  37.645  39.991   8.250
 4776POPC   C3A21401  37.655  40.023   7.950
 4776POPC   C4A21402  37.647  40.036   7.650
 4776POPC   C1B21403  37.936  40.123   8.550
 4776POPC   C2B21404  37.889  40.120   8.250
 4776POPC   C3B21405  37.849  40.125   7.950
 4776POPC   C4B21406  37.905  40.114   7.650
 4777POPC   NC321407  40.025   1.975   9.450
 4777POPC   PO421408  39.957   2.035   9.150
 4777POPC   GL121409  39.974   1.986   8.850
 4777POPC   GL221410  39.904   2.102   8.850
 4777POPC   C1A21411  40.029   2.013   8.550
 4777POPC   D2A21412  40.055   2.028   8.250
 4777POPC   C3A21413  40.004   2.021   7.950
 4777POPC   C4A21414  39.976   2.017   7.650
 4777POPC   C1B21415  39.828   2.238   8.550
 4777POPC   C2B21416  39.813   2.191   8.250
 4777POPC   C3B21417  39.891   2.202   7.950
 4777POPC   C4B21418  39.889   2.146   7.650
 4778POPC   NC321419  23.761  36.871   9.450
 4778POPC   PO421420  23.697  36.877   9.150
 4778POPC   GL121421  23.742  36.951   8.850
 4778POPC   GL221422  23.787  36.777   8.850
 4778POPC   C1A21423  23.682  36.865   8.550
 4778POPC   D2A21424  23.677  36.906   8.250
 4778POPC   C3A21425  23.718  36.925   7.950
 4778POPC   C4A21426  23.710  36.926   7.650
 4778POPC   C1B21427  23.891  36.736   8.550
 4778POPC   C2B21428  23.937  36.710   8.250
 4778POPC   C3B21429  23.923  36.738   7.950
 4778POPC   C4B21430  23.930  36.764   7.650
 4779POPC   NC321431  44.659  34.584   9.450
 4779POPC   PO421432  44.646  34.568   9.150
 4779POPC   GL121433  44.663  34.593   8.850
 4779POPC   GL221434  44.809  34.552   8.850
 4779POPC   C1A21435  44.668  34.625   8.550
 4779POPC   D2A21436  44.675  34.531   8.250
 4779POPC   C3A21437  44.617  34.579   7.950
 4779POPC   C4A21438  44.649  34.606   7.650
 4779POPC   C1B21439  44.894  34.564   8.550
 4779POPC   C2B21440  44.868  34.527   8.250
 4779POPC   C3B21441  44.934  34.531   7.950
 4779POPC   C4B21442  44.861  34.561   7.650
 4780POPC   NC321443  43.126  16.730   9.450
 4780POPC   PO421444  43.159  16.710   9.150
 4780POPC   GL121445  43.153  16.730   8.850
 4780POPC   GL221446  43.023  16.874   8.850
 4780POPC   C1A21447  43.132  16.689   8.550
 4780POPC   D2A21448  43.067  16.775   8.250
 4780POPC   C3A21449  43.138  16.713   7.950
 4780POPC   C4A21450  43.067  16.764   7.650
 4780POPC   C1B21451  42.999  16.905   8.550
 4780POPC   C2B21452  43.017  16.981   8.250
 4780POPC   C3B21453  43.010  16.903   7.950
 4780POPC   C4B21454  42.955  16.916   7.650
 4781POPC   NC321455  32.999  40.014   9.450
 4781POPC   PO421456  32.983  40.041   9.150
 4781POPC   GL121457  33.010  39.963   8.850
 4781POPC   GL221458  32.926  40.134   8.850
 4781POPC   C1A21459  33.010  39.964   8.550
 4781POPC   D2A21460  33.047  39.958   8.250
 4781POPC   C3A21461  33.013  40.030   7.950
 4781POPC   C4A21462  33.053  39.967   7.650
 4781POPC   C1B21463  32.832  40.191   8.550
 4781POPC   C2B21464  32.825  40.195   8.250
 4781POPC   C3B21465  32.899  40.160   7.950
 4781POPC   C4B21466  32.893  40.160   7.650
 4782POPC   NC321467  13.615   2.750   9.450
 4782POPC   PO421468  13.642   2.791   9.150
 4782POPC   GL121469  13.663   2.803   8.850
 4782POPC   GL221470  13.640   2.666   8.850
 4782POPC   C1A21471  13.602   2.803   8.550
 4782POPC   D2A21472  13.607   2.814   8.250
 4782POPC   C3A21473  13.652   2.752   7.950
 4782POPC   C4A21474  13.638   2.749   7.650
 4782POPC   C1B21475  13.661   2.568   8.550
 4782POPC   C2B21476  13.714   2.569   8.250
 4782POPC   C3B21477  13.706   2.494   7.950
 4782POPC   C4B21478  13.676   2.503   7.650
 4783POPC   NC321479  16.690  19.879   9.450
 4783POPC   PO421480  16.724  19.870   9.150
 4783POPC   GL121481  16.754  19.813   8.850
 4783POPC   GL221482  16.646  19.912   8.850
 4783POPC   C1A21483  16.752  19.822   8.550
 4783POPC   D2A21484  16.723  19.857   8.250
 4783POPC   C3A21485  16.710  19.799   7.950
 4783POPC   C4A21486  16.749  19.838   7.650
 4783POPC   C1B21487  16.622  20.022   8.550
 4783POPC   C2B21488  16.596  20.111   8.250
 4783POPC   C3B21489  16.614  20.032   7.950
 4783POPC   C4B21490  16.597  20.086   7.650
 4784POPC   NC321491  24.489  37.673   9.450
 4784POPC   PO421492  24.523  37.669   9.150
 4784POPC   GL121493  24.531  37.684   8.850
 4784POPC   GL221494  24.571  37.696   8.850
 4784POPC   C1A21495  24.441  37.672   8.550
 4784POPC   D2A21496  24.501  37.709   8.250
 4784POPC   C3A21497  24.482  37.728   7.950
 4784POPC   C4A21498  24.484  37.688   7.650
 4784POPC   C1B21499  24.747  37.749   8.550
 4784POPC   C2B21500  24.720  37.811   8.250
 4784POPC   C3B21501  24.747  37.730   7.950
 4784POPC   C4B21502  24.736  37.804   7.650
 4785POPC   NC321503  40.046  13.674   9.450
 4785POPC   PO421504  39.978  13.621   9.150
 4785POPC   GL121505  40.037  13.654   8.850
 4785POPC   GL221506  40.141  13.589   8.850
 4785POPC   C1A21507  39.994  13.655   8.550
 4785POPC   D2A21508  40.031  13.648   8.250
 4785POPC   C3A21509  40.002  13.631   7.950
 4785POPC   C4A21510  40.039  13.609   7.650
 4785POPC   C1B21511  40.184  13.534   8.550
 4785POPC   C2B21512  40.204  13.534   8.250
 4785POPC   C3B21513  40.169  13.511   7.950
 4785POPC   C4B21514  40.175  13.491   7.650
 4786POPC   NC321515  26.091  28.347   9.450
 4786POPC   PO421516  26.009  28.325   9.150
 4786POPC   GL121517  26.041  28.405   8.850
 4786POPC   GL221518  26.011  28.474   8.850
 4786POPC   C1A21519  26.033  28.407   8.550
 4786POPC   D2A21520  26.053  28.376   8.250
 4786POPC   C3A21521  25.999  28.386   7.950
 4786POPC   C4A21522  26.054  28.388   7.650
 4786POPC   C1B21523  25.866  28.572   8.550
 4786POPC   C2B21524  25.903  28.630   8.250
 4786POPC   C3B21525  25.923  28.572   7.950
 4786POPC   C4B21526  25.888  28.623   7.650
 4787POPC   NC321527  17.495  36.104   9.450
 4787POPC   PO421528  17.471  36.138   9.150
 4787POPC   GL121529  17.533  36.168   8.850
 4787POPC   GL221530  17.352  36.036   8.850
 4787POPC   C1A21531  17.518  36.132   8.550
 4787POPC   D2A21532  17.485  36.130   8.250
 4787POPC   C3A21533  17.552  36.132   7.950
 4787POPC   C4A21534  17.554  36.099   7.650
 4787POPC   C1B21535  17.310  36.002   8.550
 4787POPC   C2B21536  17.281  36.020   8.250
 4787POPC   C3B21537  17.252  36.016   7.950
 4787POPC   C4B21538  17.313  35.987   7.650
 4788POPC   NC321539  14.424  43.851   9.450
 4788POPC   PO421540  14.446  43.839   9.150
 4788POPC   GL121541  14.412  43.841   8.850
 4788POPC   GL221542  14.241  43.978   8.850
 4788POPC   C1A21543  14.383  43.922   8.550
 4788POPC   D2A21544  14.423  43.882   8.250
 4788POPC   C3A21545  14.390  43.881   7.950
 4788POPC   C4A21546  14.391  43.887   7.650
 4788POPC   C1B21547  14.153  43.986   8.550
 4788POPC   C2B21548  14.187  43.969   8.250
 4788POPC   C3B21549  14.203  43.946   7.950
 4788POPC   C4B21550  14.188  44.019   7.650
 4789POPC   NC321551   6.647  24.524   9.450
 4789POPC   PO421552   6.611  24.513   9.150
 4789POPC   GL121553   6.606  24.487   8.850
 4789POPC   GL221554   6.779  24.502   8.850
 4789POPC   C1A21555   6.683  24.487   8.550
 4789POPC   D2A21556   6.631  24.446   8.250
 4789POPC   C3A21557   6.662  24.448   7.950
 4789POPC   C4A21558   6.649  24.470   7.650
 4789POPC   C1B21559   6.932  24.495   8.550
 4789POPC   C2B21560   6.851  24.475   8.250
 4789POPC   C3B21561   6.878  24.400   7.950
 4789POPC   C4B21562   6.866  24.434   7.650
 4790POPC   NC321563   6.665  21.350   9.450
 4790POPC   PO421564   6.610  21.344   9.150
 4790POPC   GL121565   6.628  21.403   8.850
 4790POPC   GL221566   6.666  21.510   8.850
 4790POPC   C1A21567   6.650  21.368   8.550
 4790POPC   D2A21568   6.644  21.416   8.250
 4790POPC   C3A21569   6.646  21.429   7.950
 4790POPC   C4A21570   6.639  21.429   7.650
 4790POPC   C1B21571   6.763  21.582   8.550
 4790POPC   C2B21572   6.773  21.656   8.250
 4790POPC   C3B21573   6.770  21.656   7.950
 4790POPC   C4B21574   6.730  21.581   7.650
 4791POPC   NC321575   5.075   8.961   9.450
 4791POPC   PO421576   5.114   8.956   9.150
 4791POPC   GL121577   5.059   8.996   8.850
 4791POPC   GL221578   5.176   9.056   8.850
 4791POPC   C1A21579   5.084   8.928   8.550
 4791POPC   D2A21580   5.078   8.934   8.250
 4791POPC   C3A21581   5.055   8.937   7.950
 4791POPC   C4A21582   5.097   8.981   7.650
 4791POPC   C1B21583   5.287   9.119   8.550
 4791POPC   C2B21584   5.286   9.164   8.250
 4791POPC   C3B21585   5.283   9.173   7.950
 4791POPC   C4B21586   5.257   9.140   7.650
 4792POPC   NC321587  16.687   8.963   9.450
 4792POPC   PO421588  16.707   8.941   9.150
 4792POPC   GL121589  16.771   8.991   8.850
 4792POPC   GL221590  16.623   8.940   8.850
 4792POPC   C1A21591  16.716   8.972   8.550
 4792POPC   D2A21592  16.709   8.949   8.250
 4792POPC   C3A21593  16.712   9.020   7.950
 4792POPC   C4A21594  16.765   8.963   7.650
 4792POPC   C1B21595  16.477   8.908   8.550
 4792POPC   C2B21596  16.434   8.905   8.250
 4792POPC   C3B21597  16.498   8.936   7.950
 4792POPC   C4B21598  16.507   8.999   7.650
 4793POPC   NC321599  26.063  33.035   9.450
 4793POPC   PO421600  26.050  33.063   9.150
 4793POPC   GL121601  26.014  33.072   8.850
 4793POPC   GL221602  26.072  33.101   8.850
 4793POPC   C1A21603  25.994  33.041   8.550
 4793POPC   D2A21604  26.030  32.995   8.250
 4793POPC   C3A21605  26.017  33.031   7.950
 4793POPC   C4A21606  26.028  33.021   7.650
 4793POPC   C1B21607  26.052  33.270   8.550
 4793POPC   C2B21608  26.053  33.294   8.250
 4793POPC   C3B21609  26.113  33.236   7.950
 4793POPC   C4B21610  26.066  33.289   7.650
 4794POPC   NC321611  17.471  32.273   9.450
 4794POPC   PO421612  17.484  32.276   9.150
 4794POPC   GL121613  17.457  32.236   8.850
 4794POPC   GL221614  17.661  32.181   8.850
 4794POPC   C1A21615  17.507  32.285   8.550
 4794POPC   D2A21616  17.464  32.281   8.250
 4794POPC   C3A21617  17.508  32.217   7.950
 4794POPC   C4A21618  17.470  32.224   7.650
 4794POPC   C1B21619  17.723  32.203   8.550
 4794POPC   C2B21620  17.744  32.206   8.250
 4794POPC   C3B21621  17.743  32.143   7.950
 4794POPC   C4B21622  17.759  32.188   7.650
 4795POPC   NC321623  13.653  18.242   9.450
 4795POPC   PO421624  13.644  18.273   9.150
 4795POPC   GL121625  13.653  18.234   8.850
 4795POPC   GL221626  13.565  18.173   8.850
 4795POPC   C1A21627  13.677  18.303   8.550
 4795POPC   D2A21628  13.619  18.283   8.250
 4795POPC   C3A21629  13.580  18.308   7.950
 4795POPC   C4A21630  13.675  18.284   7.650
 4795POPC   C1B21631  13.535  18.090   8.550
 4795POPC   C2B21632  13.525  18.093   8.250
 4795POPC   C3B21633  13.543  18.076   7.950
 4795POPC   C4B21634  13.541  18.042   7.650
 4796POPC   NC321635  33.034  42.355   9.450
 4796POPC   PO421636  33.046  42.302   9.150
 4796POPC   GL121637  32.992  42.345   8.850
 4796POPC   GL221638  33.099  42.312   8.850
 4796POPC   C1A21639  33.034  42.287   8.550
 4796POPC   D2A21640  32.999  42.352   8.250
 4796POPC   C3A21641  33.013  42.332   7.950
 4796POPC   C4A21642  33.073  42.317   7.650
 4796POPC   C1B21643  33.281  42.222   8.550
 4796POPC   C2B21644  33.277  42.258   8.250
 4796POPC   C3B21645  33.297  42.245   7.950
 4796POPC   C4B21646  33.305  42.265   7.650
 4797POPC   NC321647  43.094  37.631   9.450
 4797POPC   PO421648  43.087  37.688   9.150
 4797POPC   GL121649  43.150  37.694   8.850
 4797POPC   GL221650  43.251  37.730   8.850
 4797POPC   C1A21651  43.071  37.657   8.550
 4797POPC   D2A21652  43.072  37.650   8.250
 4797POPC   C3A21653  43.095  37.655   7.950
 4797POPC   C4A21654  43.149  37.716   7.650
 4797POPC   C1B21655  43.281  37.845   8.550
 4797POPC   C2B21656  43.362  37.778   8.250
 4797POPC   C3B21657  43.303  37.817   7.950
 4797POPC   C4B21658  43.310  37.865   7.650
 4798POPC   NC321659   6.687  22.895   9.450
 4798POPC   PO421660   6.661  22.959   9.150
 4798POPC   GL121661   6.618  22.950   8.850
 4798POPC   GL221662   6.705  23.076   8.850
 4798POPC   C1A21663   6.693  22.969   8.550
 4798POPC   D2A21664   6.678  22.912   8.250
 4798POPC   C3A21665   6.693  22.981   7.950
 4798POPC   C4A21666   6.597  22.958   7.650
 4798POPC   C1B21667   6.810  23.173   8.550
 4798POPC   C2B21668   6.763  23.148   8.250
 4798POPC   C3B21669   6.777  23.112   7.950
 4798POPC   C4B21670   6.789  23.141   7.650
 4799POPC   NC321671  44.678  39.247   9.450
 4799POPC   PO421672  44.646  39.201   9.150
 4799POPC   GL121673  44.680  39.209   8.850
 4799POPC   GL221674  44.613  39.067   8.850
 4799POPC   C1A21675  44.664  39.201   8.550
 4799POPC   D2A21676  44.675  39.249   8.250
 4799POPC   C3A21677  44.709  39.251   7.950
 4799POPC   C4A21678  44.616  39.263   7.650
 4799POPC   C1B21679  44.566  38.994   8.550
 4799POPC   C2B21680  44.588  38.953   8.250
 4799POPC   C3B21681  44.562  38.971   7.950
 4799POPC   C4B21682  44.567  38.998   7.650
 4800POPC   NC321683  37.676  12.095   9.450
 4800POPC   PO421684  37.699  12.092   9.150
 4800POPC   GL121685  37.694  12.056   8.850
 4800POPC   GL221686  37.637  12.211   8.850
 4800POPC   C1A21687  37.671  12.063   8.550
 4800POPC   D2A21688  37.658  12.078   8.250
 4800POPC   C3A21689  37.729  12.038   7.950
 4800POPC   C4A21690  37.728  12.102   7.650
 4800POPC   C1B21691  37.599  12.303   8.550
 4800POPC   C2B21692  37.620  12.320   8.250
 4800POPC   C3B21693  37.612  12.283   7.950
 4800POPC   C4B21694  37.631  12.363   7.650
 4801POPC   NC321695   2.017  40.805   9.450
 4801POPC   PO421696   1.975  40.809   9.150
 4801POPC   GL121697   1.942  40.760   8.850
 4801POPC   GL221698   1.863  40.696   8.850
 4801POPC   C1A21699   1.966  40.764   8.550
 4801POPC   D2A21700   1.999  40.815   8.250
 4801POPC   C3A21701   2.030  40.786   7.950
 4801POPC   C4A21702   1.981  40.787   7.650
 4801POPC   C1B21703   1.789  40.603   8.550
 4801POPC   C2B21704   1.775  40.635   8.250
 4801POPC   C3B21705   1.795  40.651   7.950
 4801POPC   C4B21706   1.825  40.560   7.650
 4802POPC   NC321707  31.471   2.813   9.450
 4802POPC   PO421708  31.490   2.776   9.150
 4802POPC   GL121709  31.506   2.726   8.850
 4802POPC   GL221710  31.322   2.732   8.850
 4802POPC   C1A21711  31.461   2.726   8.550
 4802POPC   D2A21712  31.430   2.784   8.250
 4802POPC   C3A21713  31.515   2.727   7.950
 4802POPC   C4A21714  31.468   2.793   7.650
 4802POPC   C1B21715  31.218   2.761   8.550
 4802POPC   C2B21716  31.210   2.796   8.250
 4802POPC   C3B21717  31.186   2.781   7.950
 4802POPC   C4B21718  31.253   2.816   7.650
 4803POPC   NC321719  20.569   4.340   9.450
 4803POPC   PO421720  20.572   4.280   9.150
 4803POPC   GL121721  20.635   4.309   8.850
 4803POPC   GL221722  20.567   4.273   8.850
 4803POPC   C1A21723  20.578   4.337   8.550
 4803POPC   D2A21724  20.646   4.299   8.250
 4803POPC   C3A21725  20.569   4.327   7.950
 4803POPC   C4A21726  20.566   4.321   7.650
 4803POPC   C1B21727  20.391   4.185   8.550
 4803POPC   C2B21728  20.440   4.102   8.250
 4803POPC   C3B21729  20.449   4.137   7.950
 4803POPC   C4B21730  20.438   4.090   7.650
 4804POPC   NC321731  29.925  34.620   9.450
 4804POPC   PO421732  29.898  34.603   9.150
 4804POPC   GL121733  29.873  34.553   8.850
 4804POPC   GL221734  29.816  34.629   8.850
 4804POPC   C1A21735  29.895  34.593   8.550
 4804POPC   D2A21736  29.885  34.604   8.250
 4804POPC   C3A21737  29.941  34.619   7.950
 4804POPC   C4A21738  29.906  34.626   7.650
 4804POPC   C1B21739  29.663  34.640   8.550
 4804POPC   C2B21740  29.735  34.724   8.250
 4804POPC   C3B21741  29.724  34.703   7.950
 4804POPC   C4B21742  29.697  34.677   7.650
 4805POPC   NC321743  15.136  17.485   9.450
 4805POPC   PO421744  15.207  17.544   9.150
 4805POPC   GL121745  15.164  17.499   8.850
 4805POPC   GL221746  15.243  17.569   8.850
 4805POPC   C1A21747  15.218  17.525   8.550
 4805POPC   D2A21748  15.156  17.463   8.250
 4805POPC   C3A21749  15.177  17.514   7.950
 4805POPC   C4A21750  15.143  17.475   7.650
 4805POPC   C1B21751  15.244  17.715   8.550
 4805POPC   C2B21752  15.338  17.759   8.250
 4805POPC   C3B21753  15.305  17.697   7.950
 4805POPC   C4B21754  15.309  17.762   7.650
 4806POPC   NC321755   0.409  39.280   9.450
 4806POPC   PO421756   0.459  39.245   9.150
 4806POPC   GL121757   0.417  39.250   8.850
 4806POPC   GL221758   0.553  39.156   8.850
 4806POPC   C1A21759   0.468  39.220   8.550
 4806POPC   D2A21760   0.412  39.186   8.250
 4806POPC   C3A21761   0.445  39.185   7.950
 4806POPC   C4A21762   0.403  39.275   7.650
 4806POPC   C1B21763   0.569  39.043   8.550
 4806POPC   C2B21764   0.644  39.069   8.250
 4806POPC   C3B21765   0.577  39.072   7.950
 4806POPC   C4B21766   0.556  39.075   7.650
 4807POPC   NC321767   6.665  15.984   9.450
 4807POPC   PO421768   6.674  15.937   9.150
 4807POPC   GL121769   6.614  15.991   8.850
 4807POPC   GL221770   6.574  15.865   8.850
 4807POPC   C1A21771   6.686  15.995   8.550
 4807POPC   D2A21772   6.694  15.909   8.250
 4807POPC   C3A21773   6.639  16.003   7.950
 4807POPC   C4A21774   6.693  15.955   7.650
 4807POPC   C1B21775   6.392  15.893   8.550
 4807POPC   C2B21776   6.417  15.898   8.250
 4807POPC   C3B21777   6.417  15.822   7.950
 4807POPC   C4B21778   6.407  15.851   7.650
 4808POPC   NC321779  36.124  40.053   9.450
 4808POPC   PO421780  36.083  40.020   9.150
 4808POPC   GL121781  36.106  40.002   8.850
 4808POPC   GL221782  36.059  40.055   8.850
 4808POPC   C1A21783  36.112  40.006   8.550
 4808POPC   D2A21784  36.156  40.030   8.250
 4808POPC   C3A21785  36.140  40.042   7.950
 4808POPC   C4A21786  36.173  39.987   7.650
 4808POPC   C1B21787  35.916  40.183   8.550
 4808POPC   C2B21788  35.913  40.128   8.250
 4808POPC   C3B21789  35.924  40.133   7.950
 4808POPC   C4B21790  35.907  40.168   7.650
 4809POPC   NC321791  16.733  38.461   9.450
 4809POPC   PO421792  16.738  38.494   9.150
 4809POPC   GL121793  16.769  38.451   8.850
 4809POPC   GL221794  16.813  38.399   8.850
 4809POPC   C1A21795  16.699  38.488   8.550
 4809POPC   D2A21796  16.755  38.456   8.250
 4809POPC   C3A21797  16.715  38.469   7.950
 4809POPC   C4A21798  16.706  38.469   7.650
 4809POPC   C1B21799  16.948  38.479   8.550
 4809POPC   C2B21800  16.974  38.406   8.250
 4809POPC   C3B21801  16.983  38.403   7.950
 4809POPC   C4B21802  16.955  38.395   7.650
 4810POPC   NC321803  25.309  38.483   9.450
 4810POPC   PO421804  25.228  38.430   9.150
 4810POPC   GL121805  25.308  38.482   8.850
 4810POPC   GL221806  25.130  38.532   8.850
 4810POPC   C1A21807  25.244  38.479   8.550
 4810POPC   D2A21808  25.265  38.505   8.250
 4810POPC   C3A21809  25.274  38.446   7.950
 4810POPC   C4A21810  25.299  38.462   7.650
 4810POPC   C1B21811  25.099  38.661   8.550
 4810POPC   C2B21812  25.105  38.600   8.250
 4810POPC   C3B21813  25.131  38.663   7.950
 4810POPC   C4B21814  25.096  38.617   7.650
 4811POPC   NC321815  32.224  25.286   9.450
 4811POPC   PO421816  32.206  25.276   9.150
 4811POPC   GL121817  32.284  25.265   8.850
 4811POPC   GL221818  32.382  25.299   8.850
 4811POPC   C1A21819  32.232  25.266   8.550
 4811POPC   D2A21820  32.239  25.252   8.250
 4811POPC   C3A21821  32.207  25.241   7.950
 4811POPC   C4A21822  32.232  25.264   7.650
 4811POPC   C1B21823  32.462  25.265   8.550
 4811POPC   C2B21824  32.525  25.237   8.250
 4811POPC   C3B21825  32.476  25.284   7.950
 4811POPC   C4B21826  32.542  25.213   7.650
 4812POPC   NC321827   5.881  19.090   9.450
 4812POPC   PO421828   5.850  19.077   9.150
 4812POPC   GL121829   5.853  19.088   8.850
 4812POPC   GL221830   5.898  18.925   8.850
 4812POPC   C1A21831   5.905  19.107   8.550
 4812POPC   D2A21832   5.822  19.051   8.250
 4812POPC   C3A21833   5.852  19.082   7.950
 4812POPC   C4A21834   5.836  19.103   7.650
 4812POPC   C1B21835   5.978  18.832   8.550
 4812POPC   C2B21836   5.949  18.823   8.250
 4812POPC   C3B21837   6.008  18.843   7.950
 4812POPC   C4B21838   6.029  18.805   7.650
 4813POPC   NC321839  42.347   0.449   9.450
 4813POPC   PO421840  42.334   0.442   9.150
 4813POPC   GL121841  42.331   0.485   8.850
 4813POPC   GL221842  42.225   0.400   8.850
 4813POPC   C1A21843  42.335   0.442   8.550
 4813POPC   D2A21844  42.328   0.433   8.250
 4813POPC   C3A21845  42.291   0.426   7.950
 4813POPC   C4A21846  42.384   0.467   7.650
 4813POPC   C1B21847  42.135   0.397   8.550
 4813POPC   C2B21848  42.069   0.414   8.250
 4813POPC   C3B21849  42.078   0.408   7.950
 4813POPC   C4B21850  42.059   0.409   7.650
 4814POPC   NC321851  36.854  27.565   9.450
 4814POPC   PO421852  36.866  27.620   9.150
 4814POPC   GL121853  36.872  27.544   8.850
 4814POPC   GL221854  36.824  27.571   8.850
 4814POPC   C1A21855  36.877  27.546   8.550
 4814POPC   D2A21856  36.866  27.591   8.250
 4814POPC   C3A21857  36.934  27.574   7.950
 4814POPC   C4A21858  36.926  27.553   7.650
 4814POPC   C1B21859  36.715  27.476   8.550
 4814POPC   C2B21860  36.641  27.506   8.250
 4814POPC   C3B21861  36.695  27.479   7.950
 4814POPC   C4B21862  36.705  27.516   7.650
 4815POPC   NC321863   4.340  19.045   9.450
 4815POPC   PO421864   4.311  19.063   9.150
 4815POPC   GL121865   4.289  19.095   8.850
 4815POPC   GL221866   4.432  19.124   8.850
 4815POPC   C1A21867   4.291  19.081   8.550
 4815POPC   D2A21868   4.359  19.030   8.250
 4815POPC   C3A21869   4.277  19.079   7.950
 4815POPC   C4A21870   4.272  19.057   7.650
 4815POPC   C1B21871   4.515  19.190   8.550
 4815POPC   C2B21872   4.497  19.207   8.250
 4815POPC   C3B21873   4.540  19.190   7.950
 4815POPC   C4B21874   4.499  19.252   7.650
 4816POPC   NC321875  18.268   9.759   9.450
 4816POPC   PO421876  18.250   9.797   9.150
 4816POPC   GL121877  18.249   9.762   8.850
 4816POPC   GL221878  18.224   9.842   8.850
 4816POPC   C1A21879  18.318   9.767   8.550
 4816POPC   D2A21880  18.298   9.753   8.250
 4816POPC   C3A21881  18.298   9.750   7.950
 4816POPC   C4A21882  18.300   9.795   7.650
 4816POPC   C1B21883  18.172   9.950   8.550
 4816POPC   C2B21884  18.228   9.948   8.250
 4816POPC   C3B21885  18.195   9.953   7.950
 4816POPC   C4B21886  18.180  10.028   7.650
 4817POPC   NC321887  33.798  29.167   9.450
 4817POPC   PO421888  33.759  29.178   9.150
 4817POPC   GL121889  33.817  29.191   8.850
 4817POPC   GL221890  33.864  29.228   8.850
 4817POPC   C1A21891  33.756  29.116   8.550
 4817POPC   D2A21892  33.814  29.105   8.250
 4817POPC   C3A21893  33.808  29.191   7.950
 4817POPC   C4A21894  33.772  29.151   7.650
 4817POPC   C1B21895  34.019  29.224   8.550
 4817POPC   C2B21896  33.995  29.258   8.250
 4817POPC   C3B21897  34.032  29.222   7.950
 4817POPC   C4B21898  34.000  29.315   7.650
 4818POPC   NC321899  44.666  17.466   9.450
 4818POPC   PO421900  44.615  17.539   9.150
 4818POPC   GL121901  44.691  17.548   8.850
 4818POPC   GL221902  44.604  17.395   8.850
 4818POPC   C1A21903  44.660  17.532   8.550
 4818POPC   D2A21904  44.661  17.517   8.250
 4818POPC   C3A21905  44.612  17.486   7.950
 4818POPC   C4A21906  44.616  17.523   7.650
 4818POPC   C1B21907  44.496  17.288   8.550
 4818POPC   C2B21908  44.453  17.363   8.250
 4818POPC   C3B21909  44.457  17.302   7.950
 4818POPC   C4B21910  44.483  17.369   7.650
 4819POPC   NC321911   8.985   0.413   9.450
 4819POPC   PO421912   8.943   0.403   9.150
 4819POPC   GL121913   8.993   0.465   8.850
 4819POPC   GL221914   9.041   0.362   8.850
 4819POPC   C1A21915   8.925   0.403   8.550
 4819POPC   D2A21916   8.946   0.484   8.250
 4819POPC   C3A21917   8.982   0.433   7.950
 4819POPC   C4A21918   9.004   0.481   7.650
 4819POPC   C1B21919   9.105   0.182   8.550
 4819POPC   C2B21920   9.065   0.183   8.250
 4819POPC   C3B21921   9.069   0.201   7.950
 4819POPC   C4B21922   9.051   0.239   7.650
 4820POPC   NC321923  42.343  26.048   9.450
 4820POPC   PO421924  42.305  26.090   9.150
 4820POPC   GL121925  42.351  26.007   8.850
 4820POPC   GL221926  42.349  25.893   8.850
 4820POPC   C1A21927  42.373  26.013   8.550
 4820POPC   D2A21928  42.367  26.013   8.250
 4820POPC   C3A21929  42.365  26.034   7.950
 4820POPC   C4A21930  42.320  25.993   7.650
 4820POPC   C1B21931  42.369  25.757   8.550
 4820POPC   C2B21932  42.362  25.772   8.250
 4820POPC   C3B21933  42.336  25.830   7.950
 4820POPC   C4B21934  42.342  25.750   7.650
 4821POPC   NC321935  27.597  27.624   9.450
 4821POPC   PO421936  27.636  27.613   9.150
 4821POPC   GL121937  27.621  27.631   8.850
 4821POPC   GL221938  27.558  27.504   8.850
 4821POPC   C1A21939  27.544  27.605   8.550
 4821POPC   D2A21940  27.588  27.622   8.250
 4821POPC   C3A21941  27.546  27.584   7.950
 4821POPC   C4A21942  27.638  27.592   7.650
 4821POPC   C1B21943  27.562  27.324   8.550
 4821POPC   C2B21944  27.510  27.356   8.250
 4821POPC   C3B21945  27.524  27.318   7.950
 4821POPC   C4B21946  27.526  27.341   7.650
 4822POPC   NC321947  11.296  43.902   9.450
 4822POPC   PO421948  11.299  43.870   9.150
 4822POPC   GL121949  11.303  43.908   8.850
 4822POPC   GL221950  11.417  43.983   8.850
 4822POPC   C1A21951  11.304  43.865   8.550
 4822POPC   D2A21952  11.302  43.926   8.250
 4822POPC   C3A21953  11.322  43.908   7.950
 4822POPC   C4A21954  11.329  43.930   7.650
 4822POPC   C1B21955  11.465  44.071   8.550
 4822POPC   C2B21956  11.448  44.061   8.250
 4822POPC   C3B21957  11.522  44.008   7.950
 4822POPC   C4B21958  11.485  44.042   7.650
 4823POPC   NC321959  23.715   7.409   9.450
 4823POPC   PO421960  23.681   7.373   9.150
 4823POPC   GL121961  23.753   7.399   8.850
 4823POPC   GL221962  23.812   7.299   8.850
 4823POPC   C1A21963  23.755   7.411   8.550
 4823POPC   D2A21964  23.731   7.459   8.250
 4823POPC   C3A21965  23.755   7.405   7.950
 4823POPC   C4A21966  23.700   7.425   7.650
 4823POPC   C1B21967  23.901   7.244   8.550
 4823POPC   C2B21968  23.870   7.188   8.250
 4823POPC   C3B21969  23.831   7.186   7.950
 4823POPC   C4B21970  23.849   7.207   7.650
 4824POPC   NC321971   4.319  30.656   9.450
 4824POPC   PO421972   4.304  30.679   9.150
 4824POPC   GL121973   4.277  30.738   8.850
 4824POPC   GL221974   4.422  30.693   8.850
 4824POPC   C1A21975   4.273  30.681   8.550
 4824POPC   D2A21976   4.293  30.719   8.250
 4824POPC   C3A21977   4.322  30.693   7.950
 4824POPC   C4A21978   4.346  30.713   7.650
 4824POPC   C1B21979   4.523  30.790   8.550
 4824POPC   C2B21980   4.592  30.759   8.250
 4824POPC   C3B21981   4.567  30.808   7.950
 4824POPC   C4B21982   4.599  30.799   7.650
 4825POPC   NC321983  20.660  26.771   9.450
 4825POPC   PO421984  20.586  26.785   9.150
 4825POPC   GL121985  20.639  26.832   8.850
 4825POPC   GL221986  20.545  26.766   8.850
 4825POPC   C1A21987  20.562  26.769   8.550
 4825POPC   D2A21988  20.634  26.848   8.250
 4825POPC   C3A21989  20.643  26.818   7.950
 4825POPC   C4A21990  20.579  26.777   7.650
 4825POPC   C1B21991  20.429  26.576   8.550
 4825POPC   C2B21992  20.475  26.595   8.250
 4825POPC   C3B21993  20.453  26.649   7.950
 4825POPC   C4B21994  20.420  26.589   7.650
 4826POPC   NC321995  19.031  33.788   9.450
 4826POPC   PO421996  19.018  33.836   9.150
 4826POPC   GL121997  19.046  33.812   8.850
 4826POPC   GL221998  18.916  33.737   8.850
 4826POPC   C1A21999  19.046  33.762   8.550
 4826POPC   D2A22000  19.028  33.770   8.250
 4826POPC   C3A22001  19.053  33.824   7.950
 4826POPC   C4A22002  19.082  33.765   7.650
 4826POPC   C1B22003  18.822  33.717   8.550
 4826POPC   C2B22004  18.777  33.772   8.250
 4826POPC   C3B22005  18.841  33.801   7.950
 4826POPC   C4B22006  18.850  33.758   7.650
 4827POPC   NC322007  29.164  37.688   9.450
 4827POPC   PO422008  29.138  37.681   9.150
 4827POPC   GL122009  29.149  37.684   8.850
 4827POPC   GL222010  29.018  37.719   8.850
 4827POPC   C1A22011  29.139  37.674   8.550
 4827POPC   D2A22012  29.166  37.722   8.250
 4827POPC   C3A22013  29.148  37.697   7.950
 4827POPC   C4A22014  29.131  37.723   7.650
 4827POPC   C1B22015  28.914  37.756   8.550
 4827POPC   C2B22016  28.957  37.838   8.250
 4827POPC   C3B22017  28.907  37.816   7.950
 4827POPC   C4B22018  28.926  37.833   7.650
 4828POPC   NC322019   6.634  28.330   9.450
 4828POPC   PO422020   6.609  28.351   9.150
 4828POPC   GL122021   6.662  28.328   8.850
 4828POPC   GL222022   6.754  28.401   8.850
 4828POPC   C1A22023   6.617  28.342   8.550
 4828POPC   D2A22024   6.664  28.401   8.250
 4828POPC   C3A22025   6.651  28.361   7.950
 4828POPC   C4A22026   6.604  28.326   7.650
 4828POPC   C1B22027   6.907  28.401   8.550
 4828POPC   C2B22028   6.917  28.442   8.250
 4828POPC   C3B22029   6.932  28.446   7.950
 4828POPC   C4B22030   6.928  28.377   7.650
 4829POPC   NC322031   8.994  35.314   9.450
 4829POPC   PO422032   8.933  35.354   9.150
 4829POPC   GL122033   8.956  35.355   8.850
 4829POPC   GL222034   8.847  35.261   8.850
 4829POPC   C1A22035   8.942  35.379   8.550
 4829POPC   D2A22036   8.983  35.394   8.250
 4829POPC   C3A22037   9.003  35.397   7.950
 4829POPC   C4A22038   8.945  35.323   7.650
 4829POPC   C1B22039   8.755  35.272   8.550
 4829POPC   C2B22040   8.697  35.264   8.250
 4829POPC   C3B22041   8.694  35.309   7.950
 4829POPC   C4B22042   8.777  35.291   7.650
 4830POPC   NC322043  14.380   7.419   9.450
 4830POPC   PO422044  14.416   7.374   9.150
 4830POPC   GL122045  14.417   7.433   8.850
 4830POPC   GL222046  14.392   7.258   8.850
 4830POPC   C1A22047  14.403   7.381   8.550
 4830POPC   D2A22048  14.354   7.373   8.250
 4830POPC   C3A22049  14.362   7.398   7.950
 4830POPC   C4A22050  14.358   7.455   7.650
 4830POPC   C1B22051  14.436   7.153   8.550
 4830POPC   C2B22052  14.386   7.191   8.250
 4830POPC   C3B22053  14.383   7.204   7.950
 4830POPC   C4B22054  14.388   7.149   7.650
 4831POPC   NC322055   6.596  26.019   9.450
 4831POPC   PO422056   6.630  26.039   9.150
 4831POPC   GL122057   6.611  26.043   8.850
 4831POPC   GL222058   6.527  26.036   8.850
 4831POPC   C1A22059   6.640  26.022   8.550
 4831POPC   D2A22060   6.675  26.038   8.250
 4831POPC   C3A22061   6.606  26.016   7.950
 4831POPC   C4A22062   6.669  25.998   7.650
 4831POPC   C1B22063   6.407  25.917   8.550
 4831POPC   C2B22064   6.376  25.961   8.250
 4831POPC   C3B22065   6.427  25.967   7.950
 4831POPC   C4B22066   6.398  25.979   7.650
 4832POPC   NC322067  43.123  11.342   9.450
 4832POPC   PO422068  43.125  11.257   9.150
 4832POPC   GL122069  43.120  11.319   8.850
 4832POPC   GL222070  43.028  11.355   8.850
 4832POPC   C1A22071  43.150  11.266   8.550
 4832POPC   D2A22072  43.147  11.301   8.250
 4832POPC   C3A22073  43.130  11.322   7.950
 4832POPC   C4A22074  43.075  11.321   7.650
 4832POPC   C1B22075  42.904  11.459   8.550
 4832POPC   C2B22076  42.913  11.382   8.250
 4832POPC   C3B22077  42.859  11.372   7.950
 4832POPC   C4B22078  42.861  11.439   7.650
 4833POPC   NC322079  40.805  30.666   9.450
 4833POPC   PO422080  40.777  30.705   9.150
 4833POPC   GL122081  40.815  30.725   8.850
 4833POPC   GL222082  40.677  30.727   8.850
 4833POPC   C1A22083  40.736  30.724   8.550
 4833POPC   D2A22084  40.758  30.720   8.250
 4833POPC   C3A22085  40.789  30.676   7.950
 4833POPC   C4A22086  40.798  30.665   7.650
 4833POPC   C1B22087  40.606  30.828   8.550
 4833POPC   C2B22088  40.596  30.900   8.250
 4833POPC   C3B22089  40.639  30.880   7.950
 4833POPC   C4B22090  40.565  30.873   7.650
 4834POPC   NC322091  26.048  19.080   9.450
 4834POPC   PO422092  26.060  19.043   9.150
 4834POPC   GL122093  26.033  19.056   8.850
 4834POPC   GL222094  26.080  19.199   8.850
 4834POPC   C1A22095  25.997  19.045   8.550
 4834POPC   D2A22096  26.023  19.040   8.250
 4834POPC   C3A22097  26.022  19.034   7.950
 4834POPC   C4A22098  26.071  19.031   7.650
 4834POPC   C1B22099  26.140  19.302   8.550
 4834POPC   C2B22100  26.158  19.280   8.250
 4834POPC   C3B22101  26.188  19.286   7.950
 4834POPC   C4B22102  26.207  19.272   7.650
 4835POPC   NC322103  22.904  19.806   9.450
 4835POPC   PO422104  22.969  19.823   9.150
 4835POPC   GL122105  22.916  19.844   8.850
 4835POPC   GL222106  23.047  19.901   8.850
 4835POPC   C1A22107  22.957  19.785   8.550
 4835POPC   D2A22108  22.922  19.840   8.250
 4835POPC   C3A22109  22.894  19.852   7.950
 4835POPC   C4A22110  22.987  19.846   7.650
 4835POPC   C1B22111  23.090  20.094   8.550
 4835POPC   C2B22112  23.098  20.072   8.250
 4835POPC   C3B22113  23.026  20.041   7.950
 4835POPC   C4B22114  23.037  20.043   7.650
 4836POPC   NC322115  43.863  21.396   9.450
 4836POPC   PO422116  43.878  21.365   9.150
 4836POPC   GL122117  43.895  21.367   8.850
 4836POPC   GL222118  43.747  21.348   8.850
 4836POPC   C1A22119  43.860  21.362   8.550
 4836POPC   D2A22120  43.843  21.362   8.250
 4836POPC   C3A22121  43.893  21.421   7.950
 4836POPC   C4A22122  43.865  21.359   7.650
 4836POPC   C1B22123  43.659  21.220   8.550
 4836POPC   C2B22124  43.711  21.251   8.250
 4836POPC   C3B22125  43.658  21.192   7.950
 4836POPC   C4B22126  43.736  21.240   7.650
 4837POPC   NC322127  30.722  35.318   9.450
 4837POPC   PO422128  30.707  35.356   9.150
 4837POPC   GL122129  30.733  35.345   8.850
 4837POPC   GL222130  30.643  35.449   8.850
 4837POPC   C1A22131  30.687  35.384   8.550
 4837POPC   D2A22132  30.739  35.372   8.250
 4837POPC   C3A22133  30.728  35.334   7.950
 4837POPC   C4A22134  30.669  35.311   7.650
 4837POPC   C1B22135  30.592  35.566   8.550
 4837POPC   C2B22136  30.612  35.558   8.250
 4837POPC   C3B22137  30.571  35.527   7.950
 4837POPC   C4B22138  30.606  35.601   7.650
 4838POPC   NC322139  15.944  22.147   9.450
 4838POPC   PO422140  15.912  22.133   9.150
 4838POPC   GL122141  15.923  22.182   8.850
 4838POPC   GL222142  15.966  22.086   8.850
 4838POPC   C1A22143  15.970  22.162   8.550
 4838POPC   D2A22144  15.971  22.198   8.250
 4838POPC   C3A22145  15.919  22.140   7.950
 4838POPC   C4A22146  15.942  22.164   7.650
 4838POPC   C1B22147  15.988  21.911   8.550
 4838POPC   C2B22148  16.017  21.934   8.250
 4838POPC   C3B22149  16.018  21.962   7.950
 4838POPC   C4B22150  15.968  21.918   7.650
 4839POPC   NC322151  42.334  17.547   9.450
 4839POPC   PO422152  42.339  17.508   9.150
 4839POPC   GL122153  42.374  17.538   8.850
 4839POPC   GL222154  42.243  17.428   8.850
 4839POPC   C1A22155  42.314  17.543   8.550
 4839POPC   D2A22156  42.370  17.521   8.250
 4839POPC   C3A22157  42.301  17.466   7.950
 4839POPC   C4A22158  42.354  17.556   7.650
 4839POPC   C1B22159  42.136  17.291   8.550
 4839POPC   C2B22160  42.156  17.285   8.250
 4839POPC   C3B22161  42.147  17.280   7.950
 4839POPC   C4B22162  42.155  17.320   7.650
 4840POPC   NC322163  16.001  11.332   9.450
 4840POPC   PO422164  15.932  11.257   9.150
 4840POPC   GL122165  15.968  11.346   8.850
 4840POPC   GL222166  15.900  11.440   8.850
 4840POPC   C1A22167  15.931  11.303   8.550
 4840POPC   D2A22168  15.935  11.261   8.250
 4840POPC   C3A22169  15.981  11.319   7.950
 4840POPC   C4A22170  15.980  11.279   7.650
 4840POPC   C1B22171  15.951  11.568   8.550
 4840POPC   C2B22172  15.895  11.546   8.250
 4840POPC   C3B22173  15.980  11.567   7.950
 4840POPC   C4B22174  15.971  11.537   7.650
 4841POPC   NC322175  43.864  16.763   9.450
 4841POPC   PO422176  43.847  16.756   9.150
 4841POPC   GL122177  43.850  16.703   8.850
 4841POPC   GL222178  43.852  16.856   8.850
 4841POPC   C1A22179  43.894  16.754   8.550
 4841POPC   D2A22180  43.889  16.758   8.250
 4841POPC   C3A22181  43.895  16.772   7.950
 4841POPC   C4A22182  43.886  16.764   7.650
 4841POPC   C1B22183  43.812  16.943   8.550
 4841POPC   C2B22184  43.755  16.953   8.250
 4841POPC   C3B22185  43.785  16.914   7.950
 4841POPC   C4B22186  43.788  16.964   7.650
 4842POPC   NC322187  15.940   0.439   9.450
 4842POPC   PO422188  15.952   0.456   9.150
 4842POPC   GL122189  15.908   0.412   8.850
 4842POPC   GL222190  16.078   0.420   8.850
 4842POPC   C1A22191  15.977   0.425   8.550
 4842POPC   D2A22192  15.955   0.413   8.250
 4842POPC   C3A22193  15.994   0.415   7.950
 4842POPC   C4A22194  15.995   0.416   7.650
 4842POPC   C1B22195  16.169   0.330   8.550
 4842POPC   C2B22196  16.144   0.311   8.250
 4842POPC   C3B22197  16.164   0.320   7.950
 4842POPC   C4B22198  16.221   0.358   7.650
 4843POPC   NC322199  12.072   7.458   9.450
 4843POPC   PO422200  12.076   7.380   9.150
 4843POPC   GL122201  12.074   7.447   8.850
 4843POPC   GL222202  11.941   7.456   8.850
 4843POPC   C1A22203  12.117   7.390   8.550
 4843POPC   D2A22204  12.125   7.399   8.250
 4843POPC   C3A22205  12.029   7.447   7.950
 4843POPC   C4A22206  12.050   7.460   7.650
 4843POPC   C1B22207  11.818   7.493   8.550
 4843POPC   C2B22208  11.848   7.471   8.250
 4843POPC   C3B22209  11.809   7.439   7.950
 4843POPC   C4B22210  11.850   7.450   7.650
 4844POPC   NC322211  15.167  24.440   9.450
 4844POPC   PO422212  15.182  24.453   9.150
 4844POPC   GL122213  15.203  24.533   8.850
 4844POPC   GL222214  15.031  24.497   8.850
 4844POPC   C1A22215  15.133  24.467   8.550
 4844POPC   D2A22216  15.144  24.491   8.250
 4844POPC   C3A22217  15.218  24.469   7.950
 4844POPC   C4A22218  15.156  24.496   7.650
 4844POPC   C1B22219  14.908  24.369   8.550
 4844POPC   C2B22220  14.966  24.439   8.250
 4844POPC   C3B22221  14.905  24.437   7.950
 4844POPC   C4B22222  14.921  24.414   7.650
 4845POPC   NC322223  26.032  36.177   9.450
 4845POPC   PO422224  26.013  36.087   9.150
 4845POPC   GL122225  26.075  36.095   8.850
 4845POPC   GL222226  25.935  36.051   8.850
 4845POPC   C1A22227  26.003  36.118   8.550
 4845POPC   D2A22228  26.024  36.123   8.250
 4845POPC   C3A22229  26.010  36.151   7.950
 4845POPC   C4A22230  26.034  36.113   7.650
 4845POPC   C1B22231  25.760  36.069   8.550
 4845POPC   C2B22232  25.810  36.019   8.250
 4845POPC   C3B22233  25.789  36.004   7.950
 4845POPC   C4B22234  25.852  36.032   7.650
 4846POPC   NC322235  27.567  25.282   9.450
 4846POPC   PO422236  27.612  25.232   9.150
 4846POPC   GL122237  27.552  25.302   8.850
 4846POPC   GL222238  27.451  25.201   8.850
 4846POPC   C1A22239  27.562  25.257   8.550
 4846POPC   D2A22240  27.544  25.274   8.250
 4846POPC   C3A22241  27.546  25.315   7.950
 4846POPC   C4A22242  27.643  25.269   7.650
 4846POPC   C1B22243  27.318  25.248   8.550
 4846POPC   C2B22244  27.306  25.237   8.250
 4846POPC   C3B22245  27.357  25.160   7.950
 4846POPC   C4B22246  27.356  25.216   7.650
 4847POPC   NC322247  28.361  20.586   9.450
 4847POPC   PO422248  28.336  20.618   9.150
 4847POPC   GL122249  28.413  20.628   8.850
 4847POPC   GL222250  28.317  20.493   8.850
 4847POPC   C1A22251  28.384  20.575   8.550
 4847POPC   D2A22252  28.363  20.654   8.250
 4847POPC   C3A22253  28.352  20.599   7.950
 4847POPC   C4A22254  28.338  20.608   7.650
 4847POPC   C1B22255  28.314  20.372   8.550
 4847POPC   C2B22256  28.277  20.425   8.250
 4847POPC   C3B22257  28.314  20.412   7.950
 4847POPC   C4B22258  28.279  20.357   7.650
 4848POPC   NC322259  35.380  36.142   9.450
 4848POPC   PO422260  35.345  36.156   9.150
 4848POPC   GL122261  35.314  36.162   8.850
 4848POPC   GL222262  35.473  36.210   8.850
 4848POPC   C1A22263  35.388  36.088   8.550
 4848POPC   D2A22264  35.393  36.103   8.250
 4848POPC   C3A22265  35.328  36.127   7.950
 4848POPC   C4A22266  35.398  36.122   7.650
 4848POPC   C1B22267  35.508  36.307   8.550
 4848POPC   C2B22268  35.542  36.275   8.250
 4848POPC   C3B22269  35.508  36.284   7.950
 4848POPC   C4B22270  35.570  36.333   7.650
 4849POPC   NC322271  28.330  43.899   9.450
 4849POPC   PO422272  28.331  43.934   9.150
 4849POPC   GL122273  28.371  43.911   8.850
 4849POPC   GL222274  28.515  43.924   8.850
 4849POPC   C1A22275  28.334  43.869   8.550
 4849POPC   D2A22276  28.389  43.847   8.250
 4849POPC   C3A22277  28.323  43.868   7.950
 4849POPC   C4A22278  28.353  43.877   7.650
 4849POPC   C1B22279  28.584  43.883   8.550
 4849POPC   C2B22280  28.607  43.880   8.250
 4849POPC   C3B22281  28.658  43.901   7.950
 4849POPC   C4B22282  28.660  43.942   7.650
 4850POPC   NC322283  20.639  12.825   9.450
 4850POPC   PO422284  20.639  12.828   9.150
 4850POPC   GL122285  20.644  12.860   8.850
 4850POPC   GL222286  20.696  12.858   8.850
 4850POPC   C1A22287  20.595  12.831   8.550
 4850POPC   D2A22288  20.592  12.869   8.250
 4850POPC   C3A22289  20.635  12.853   7.950
 4850POPC   C4A22290  20.601  12.811   7.650
 4850POPC   C1B22291  20.843  12.890   8.550
 4850POPC   C2B22292  20.860  12.835   8.250
 4850POPC   C3B22293  20.847  12.906   7.950
 4850POPC   C4B22294  20.831  12.812   7.650
 4851POPC   NC322295  29.878   3.584   9.450
 4851POPC   PO422296  29.957   3.522   9.150
 4851POPC   GL122297  29.967   3.578   8.850
 4851POPC   GL222298  29.965   3.600   8.850
 4851POPC   C1A22299  29.969   3.562   8.550
 4851POPC   D2A22300  29.941   3.576   8.250
 4851POPC   C3A22301  29.916   3.521   7.950
 4851POPC   C4A22302  29.898   3.501   7.650
 4851POPC   C1B22303  30.146   3.723   8.550
 4851POPC   C2B22304  30.114   3.744   8.250
 4851POPC   C3B22305  30.133   3.683   7.950
 4851POPC   C4B22306  30.095   3.698   7.650
 4852POPC   NC322307  11.284  29.150   9.450
 4852POPC   PO422308  11.277  29.153   9.150
 4852POPC   GL122309  11.310  29.167   8.850
 4852POPC   GL222310  11.302  29.055   8.850
 4852POPC   C1A22311  11.288  29.115   8.550
 4852POPC   D2A22312  11.282  29.162   8.250
 4852POPC   C3A22313  11.332  29.097   7.950
 4852POPC   C4A22314  11.273  29.114   7.650
 4852POPC   C1B22315  11.367  28.893   8.550
 4852POPC   C2B22316  11.393  28.873   8.250
 4852POPC   C3B22317  11.410  28.945   7.950
 4852POPC   C4B22318  11.435  28.926   7.650
 4853POPC   NC322319  22.925  20.579   9.450
 4853POPC   PO422320  22.954  20.570   9.150
 4853POPC   GL122321  22.896  20.565   8.850
 4853POPC   GL222322  23.048  20.508   8.850
 4853POPC   C1A22323  22.942  20.634   8.550
 4853POPC   D2A22324  22.902  20.579   8.250
 4853POPC   C3A22325  22.926  20.590   7.950
 4853POPC   C4A22326  22.988  20.582   7.650
 4853POPC   C1B22327  23.123  20.421   8.550
 4853POPC   C2B22328  23.149  20.457   8.250
 4853POPC   C3B22329  23.104  20.458   7.950
 4853POPC   C4B22330  23.095  20.390   7.650
 4854POPC   NC322331  22.893  34.620   9.450
 4854POPC   PO422332  22.934  34.553   9.150
 4854POPC   GL122333  22.891  34.618   8.850
 4854POPC   GL222334  22.868  34.506   8.850
 4854POPC   C1A22335  22.986  34.529   8.550
 4854POPC   D2A22336  22.931  34.584   8.250
 4854POPC   C3A22337  22.909  34.607   7.950
 4854POPC   C4A22338  22.933  34.569   7.650
 4854POPC   C1B22339  22.703  34.545   8.550
 4854POPC   C2B22340  22.739  34.553   8.250
 4854POPC   C3B22341  22.699  34.502   7.950
 4854POPC   C4B22342  22.652  34.501   7.650
 4855POPC   NC322343   2.769   5.829   9.450
 4855POPC   PO422344   2.777   5.909   9.150
 4855POPC   GL122345   2.794   5.842   8.850
 4855POPC   GL222346   2.704   5.712   8.850
 4855POPC   C1A22347   2.756   5.886   8.550
 4855POPC   D2A22348   2.732   5.906   8.250
 4855POPC   C3A22349   2.799   5.895   7.950
 4855POPC   C4A22350   2.802   5.861   7.650
 4855POPC   C1B22351   2.661   5.682   8.550
 4855POPC   C2B22352   2.593   5.623   8.250
 4855POPC   C3B22353   2.640   5.610   7.950
 4855POPC   C4B22354   2.647   5.688   7.650
 4856POPC   NC322355  23.749  15.980   9.450
 4856POPC   PO422356  23.701  15.930   9.150
 4856POPC   GL122357  23.740  15.928   8.850
 4856POPC   GL222358  23.703  15.853   8.850
 4856POPC   C1A22359  23.746  15.977   8.550
 4856POPC   D2A22360  23.751  15.937   8.250
 4856POPC   C3A22361  23.684  15.994   7.950
 4856POPC   C4A22362  23.729  15.979   7.650
 4856POPC   C1B22363  23.654  15.727   8.550
 4856POPC   C2B22364  23.658  15.679   8.250
 4856POPC   C3B22365  23.726  15.708   7.950
 4856POPC   C4B22366  23.674  15.744   7.650
 4857POPC   NC322367  39.196  44.695   9.450
 4857POPC   PO422368  39.226  44.664   9.150
 4857POPC   GL122369  39.277  44.617   8.850
 4857POPC   GL222370  39.204  44.747   8.850
 4857POPC   C1A22371  39.213  44.673   8.550
 4857POPC   D2A22372  39.219  44.621   8.250
 4857POPC   C3A22373  39.241  44.698   7.950
 4857POPC   C4A22374  39.233  44.650   7.650
 4857POPC   C1B22375  39.200  44.863   8.550
 4857POPC   C2B22376  39.235  44.898   8.250
 4857POPC   C3B22377  39.256  44.923   7.950
 4857POPC   C4B22378  39.244  44.958   7.650
 4858POPC   NC322379  23.693   1.941   9.450
 4858POPC   PO422380  23.746   2.025   9.150
 4858POPC   GL122381  23.752   1.950   8.850
 4858POPC   GL222382  23.640   2.078   8.850
 4858POPC   C1A22383  23.728   1.971   8.550
 4858POPC   D2A22384  23.735   2.027   8.250
 4858POPC   C3A22385  23.700   2.023   7.950
 4858POPC   C4A22386  23.664   1.951   7.650
 4858POPC   C1B22387  23.478   2.056   8.550
 4858POPC   C2B22388  23.480   2.113   8.250
 4858POPC   C3B22389  23.526   2.116   7.950
 4858POPC   C4B22390  23.473   2.050   7.650
 4859POPC   NC322391  33.842  22.889   9.450
 4859POPC   PO422392  33.846  22.978   9.150
 4859POPC   GL122393  33.772  22.939   8.850
 4859POPC   GL222394  33.667  23.008   8.850
 4859POPC   C1A22395  33.813  22.945   8.550
 4859POPC   D2A22396  33.812  22.912   8.250
 4859POPC   C3A22397  33.758  22.963   7.950
 4859POPC   C4A22398  33.847  22.928   7.650
 4859POPC   C1B22399  33.559  23.032   8.550
 4859POPC   C2B22400  33.592  22.983   8.250
 4859POPC   C3B22401  33.606  23.070   7.950
 4859POPC   C4B22402  33.568  23.039   7.650
 4860POPC   NC322403  43.148   1.197   9.450
 4860POPC   PO422404  43.123   1.257   9.150
 4860POPC   GL122405  43.158   1.180   8.850
 4860POPC   GL222406  43.109   1.344   8.850
 4860POPC   C1A22407  43.125   1.169   8.550
 4860POPC   D2A22408  43.092   1.246   8.250
 4860POPC   C3A22409  43.130   1.230   7.950
 4860POPC   C4A22410  43.094   1.229   7.650
 4860POPC   C1B22411  42.999   1.469   8.550
 4860POPC   C2B22412  43.025   1.489   8.250
 4860POPC   C3B22413  42.998   1.431   7.950
 4860POPC   C4B22414  43.058   1.468   7.650
 4861POPC   NC322415   8.188  38.440   9.450
 4861POPC   PO422416   8.220  38.489   9.150
 4861POPC   GL122417   8.208  38.416   8.850
 4861POPC   GL222418   8.306  38.419   8.850
 4861POPC   C1A22419   8.234  38.415   8.550
 4861POPC   D2A22420   8.180  38.409   8.250
 4861POPC   C3A22421   8.225  38.494   7.950
 4861POPC   C4A22422   8.173  38.470   7.650
 4861POPC   C1B22423   8.461  38.433   8.550
 4861POPC   C2B22424   8.447  38.382   8.250
 4861POPC   C3B22425   8.395  38.389   7.950
 4861POPC   C4B22426   8.452  38.344   7.650
 4862POPC   NC322427  20.640  12.096   9.450
 4862POPC   PO422428  20.606  12.087   9.150
 4862POPC   GL122429  20.592  12.104   8.850
 4862POPC   GL222430  20.478  12.064   8.850
 4862POPC   C1A22431  20.619  12.091   8.550
 4862POPC   D2A22432  20.565  12.095   8.250
 4862POPC   C3A22433  20.647  12.088   7.950
 4862POPC   C4A22434  20.644  12.060   7.650
 4862POPC   C1B22435  20.348  12.083   8.550
 4862POPC   C2B22436  20.369  12.155   8.250
 4862POPC   C3B22437  20.345  12.136   7.950
 4862POPC   C4B22438  20.376  12.172   7.650
 4863POPC   NC322439  17.464   4.323   9.450
 4863POPC   PO422440  17.463   4.359   9.150
 4863POPC   GL122441  17.534   4.348   8.850
 4863POPC   GL222442  17.569   4.259   8.850
 4863POPC   C1A22443  17.477   4.331   8.550
 4863POPC   D2A22444  17.503   4.297   8.250
 4863POPC   C3A22445  17.501   4.345   7.950
 4863POPC   C4A22446  17.491   4.350   7.650
 4863POPC   C1B22447  17.726   4.124   8.550
 4863POPC   C2B22448  17.702   4.185   8.250
 4863POPC   C3B22449  17.675   4.200   7.950
 4863POPC   C4B22450  17.709   4.155   7.650
 4864POPC   NC322451  23.725  31.448   9.450
 4864POPC   PO422452  23.716  31.472   9.150
 4864POPC   GL122453  23.709  31.515   8.850
 4864POPC   GL222454  23.810  31.510   8.850
 4864POPC   C1A22455  23.691  31.447   8.550
 4864POPC   D2A22456  23.697  31.459   8.250
 4864POPC   C3A22457  23.672  31.479   7.950
 4864POPC   C4A22458  23.749  31.476   7.650
 4864POPC   C1B22459  23.922  31.650   8.550
 4864POPC   C2B22460  23.872  31.678   8.250
 4864POPC   C3B22461  23.889  31.686   7.950
 4864POPC   C4B22462  23.911  31.604   7.650
 4865POPC   NC322463  39.211   1.946   9.450
 4865POPC   PO422464  39.222   1.972   9.150
 4865POPC   GL122465  39.203   1.970   8.850
 4865POPC   GL222466  39.102   1.956   8.850
 4865POPC   C1A22467  39.264   1.976   8.550
 4865POPC   D2A22468  39.207   1.946   8.250
 4865POPC   C3A22469  39.207   1.994   7.950
 4865POPC   C4A22470  39.228   1.949   7.650
 4865POPC   C1B22471  39.025   1.801   8.550
 4865POPC   C2B22472  39.043   1.862   8.250
 4865POPC   C3B22473  39.048   1.831   7.950
 4865POPC   C4B22474  39.049   1.821   7.650
 4866POPC   NC322475  19.011  15.954   9.450
 4866POPC   PO422476  19.032  15.915   9.150
 4866POPC   GL122477  19.014  15.941   8.850
 4866POPC   GL222478  19.057  15.835   8.850
 4866POPC   C1A22479  19.080  16.001   8.550
 4866POPC   D2A22480  19.034  15.970   8.250
 4866POPC   C3A22481  19.094  15.990   7.950
 4866POPC   C4A22482  19.090  16.001   7.650
 4866POPC   C1B22483  19.036  15.661   8.550
 4866POPC   C2B22484  18.980  15.729   8.250
 4866POPC   C3B22485  19.037  15.676   7.950
 4866POPC   C4B22486  18.963  15.717   7.650
 4867POPC   NC322487  39.248  18.319   9.450
 4867POPC   PO422488  39.186  18.250   9.150
 4867POPC   GL122489  39.240  18.247   8.850
 4867POPC   GL222490  39.284  18.442   8.850
 4867POPC   C1A22491  39.189  18.262   8.550
 4867POPC   D2A22492  39.229  18.280   8.250
 4867POPC   C3A22493  39.200  18.245   7.950
 4867POPC   C4A22494  39.236  18.259   7.650
 4867POPC   C1B22495  39.363  18.496   8.550
 4867POPC   C2B22496  39.293  18.485   8.250
 4867POPC   C3B22497  39.357  18.509   7.950
 4867POPC   C4B22498  39.328  18.498   7.650
 4868POPC   NC322499   4.323   8.960   9.450
 4868POPC   PO422500   4.285   8.942   9.150
 4868POPC   GL122501   4.350   8.989   8.850
 4868POPC   GL222502   4.409   8.936   8.850
 4868POPC   C1A22503   4.284   9.008   8.550
 4868POPC   D2A22504   4.356   9.019   8.250
 4868POPC   C3A22505   4.337   8.966   7.950
 4868POPC   C4A22506   4.325   8.934   7.650
 4868POPC   C1B22507   4.549   9.012   8.550
 4868POPC   C2B22508   4.544   8.996   8.250
 4868POPC   C3B22509   4.606   8.998   7.950
 4868POPC   C4B22510   4.538   8.944   7.650
 4869POPC   NC322511  22.891  31.472   9.450
 4869POPC   PO422512  22.964  31.493   9.150
 4869POPC   GL122513  22.939  31.445   8.850
 4869POPC   GL222514  22.893  31.338   8.850
 4869POPC   C1A22515  22.968  31.472   8.550
 4869POPC   D2A22516  22.932  31.487   8.250
 4869POPC   C3A22517  22.940  31.469   7.950
 4869POPC   C4A22518  22.955  31.515   7.650
 4869POPC   C1B22519  22.818  31.298   8.550
 4869POPC   C2B22520  22.815  31.207   8.250
 4869POPC   C3B22521  22.842  31.209   7.950
 4869POPC   C4B22522  22.860  31.279   7.650
 4870POPC   NC322523  13.639   3.521   9.450
 4870POPC   PO422524  13.597   3.564   9.150
 4870POPC   GL122525  13.654   3.496   8.850
 4870POPC   GL222526  13.705   3.451   8.850
 4870POPC   C1A22527  13.661   3.508   8.550
 4870POPC   D2A22528  13.626   3.513   8.250
 4870POPC   C3A22529  13.600   3.492   7.950
 4870POPC   C4A22530  13.635   3.563   7.650
 4870POPC   C1B22531  13.803   3.409   8.550
 4870POPC   C2B22532  13.890   3.372   8.250
 4870POPC   C3B22533  13.857   3.393   7.950
 4870POPC   C4B22534  13.888   3.419   7.650
 4871POPC   NC322535  16.687  15.150   9.450
 4871POPC   PO422536  16.781  15.202   9.150
 4871POPC   GL122537  16.760  15.196   8.850
 4871POPC   GL222538  16.892  15.160   8.850
 4871POPC   C1A22539  16.741  15.141   8.550
 4871POPC   D2A22540  16.716  15.154   8.250
 4871POPC   C3A22541  16.704  15.155   7.950
 4871POPC   C4A22542  16.692  15.221   7.650
 4871POPC   C1B22543  16.989  15.146   8.550
 4871POPC   C2B22544  16.937  15.125   8.250
 4871POPC   C3B22545  16.943  15.193   7.950
 4871POPC   C4B22546  17.009  15.150   7.650
 4872POPC   NC322547  30.724  16.751   9.450
 4872POPC   PO422548  30.743  16.757   9.150
 4872POPC   GL122549  30.677  16.703   8.850
 4872POPC   GL222550  30.559  16.719   8.850
 4872POPC   C1A22551  30.718  16.741   8.550
 4872POPC   D2A22552  30.717  16.689   8.250
 4872POPC   C3A22553  30.689  16.682   7.950
 4872POPC   C4A22554  30.690  16.751   7.650
 4872POPC   C1B22555  30.500  16.639   8.550
 4872POPC   C2B22556  30.499  16.629   8.250
 4872POPC   C3B22557  30.427  16.644   7.950
 4872POPC   C4B22558  30.467  16.659   7.650
 4873POPC   NC322559  26.005  29.159   9.450
 4873POPC   PO422560  25.998  29.100   9.150
 4873POPC   GL122561  26.044  29.179   8.850
 4873POPC   GL222562  26.142  29.236   8.850
 4873POPC   C1A22563  26.087  29.161   8.550
 4873POPC   D2A22564  26.070  29.110   8.250
 4873POPC   C3A22565  26.014  29.164   7.950
 4873POPC   C4A22566  26.048  29.170   7.650
 4873POPC   C1B22567  26.211  29.337   8.550
 4873POPC   C2B22568  26.270  29.288   8.250
 4873POPC   C3B22569  26.279  29.295   7.950
 4873POPC   C4B22570  26.182  29.319   7.650
 4874POPC   NC322571  16.733  29.935   9.450
 4874POPC   PO422572  16.684  29.947   9.150
 4874POPC   GL122573  16.688  29.960   8.850
 4874POPC   GL222574  16.841  29.903   8.850
 4874POPC   C1A22575  16.733  29.892   8.550
 4874POPC   D2A22576  16.703  29.916   8.250
 4874POPC   C3A22577  16.764  29.918   7.950
 4874POPC   C4A22578  16.723  29.955   7.650
 4874POPC   C1B22579  17.009  29.971   8.550
 4874POPC   C2B22580  16.979  30.022   8.250
 4874POPC   C3B22581  17.018  29.938   7.950
 4874POPC   C4B22582  17.006  29.949   7.650
 4875POPC   NC322583  38.435  44.666   9.450
 4875POPC   PO422584  38.435  44.695   9.150
 4875POPC   GL122585  38.502  44.661   8.850
 4875POPC   GL222586  38.561  44.664   8.850
 4875POPC   C1A22587  38.492  44.627   8.550
 4875POPC   D2A22588  38.408  44.709   8.250
 4875POPC   C3A22589  38.487  44.647   7.950
 4875POPC   C4A22590  38.445  44.666   7.650
 4875POPC   C1B22591  38.733  44.777   8.550
 4875POPC   C2B22592  38.737  44.766   8.250
 4875POPC   C3B22593  38.713  44.734   7.950
 4875POPC   C4B22594  38.679  44.735   7.650
 4876POPC   NC322595  23.734  12.112   9.450
 4876POPC   PO422596  23.755  12.075   9.150
 4876POPC   GL122597  23.688  12.035   8.850
 4876POPC   GL222598  23.726  11.969   8.850
 4876POPC   C1A22599  23.677  12.032   8.550
 4876POPC   D2A22600  23.759  12.112   8.250
 4876POPC   C3A22601  23.682  12.122   7.950
 4876POPC   C4A22602  23.686  12.076   7.650
 4876POPC   C1B22603  23.642  11.861   8.550
 4876POPC   C2B22604  23.686  11.827   8.250
 4876POPC   C3B22605  23.679  11.806   7.950
 4876POPC   C4B22606  23.698  11.829   7.650
 4877POPC   NC322607  22.892  44.631   9.450
 4877POPC   PO422608  22.949  44.635   9.150
 4877POPC   GL122609  22.924  44.706   8.850
 4877POPC   GL222610  22.988  44.589   8.850
 4877POPC   C1A22611  22.923  44.694   8.550
 4877POPC   D2A22612  22.889  44.666   8.250
 4877POPC   C3A22613  22.954  44.622   7.950
 4877POPC   C4A22614  22.916  44.654   7.650
 4877POPC   C1B22615  23.104  44.415   8.550
 4877POPC   C2B22616  23.061  44.451   8.250
 4877POPC   C3B22617  23.059  44.508   7.950
 4877POPC   C4B22618  23.084  44.450   7.650
 4878POPC   NC322619  10.561  43.096   9.450
 4878POPC   PO422620  10.546  43.118   9.150
 4878POPC   GL122621  10.482  43.096   8.850
 4878POPC   GL222622  10.441  43.229   8.850
 4878POPC   C1A22623  10.485  43.129   8.550
 4878POPC   D2A22624  10.478  43.146   8.250
 4878POPC   C3A22625  10.544  43.109   7.950
 4878POPC   C4A22626  10.562  43.132   7.650
 4878POPC   C1B22627  10.405  43.348   8.550
 4878POPC   C2B22628  10.344  43.261   8.250
 4878POPC   C3B22629  10.398  43.278   7.950
 4878POPC   C4B22630  10.356  43.293   7.650
 4879POPC   NC322631  11.278  22.157   9.450
 4879POPC   PO422632  11.271  22.162   9.150
 4879POPC   GL122633  11.301  22.195   8.850
 4879POPC   GL222634  11.249  22.244   8.850
 4879POPC   C1A22635  11.258  22.193   8.550
 4879POPC   D2A22636  11.308  22.155   8.250
 4879POPC   C3A22637  11.346  22.200   7.950
 4879POPC   C4A22638  11.259  22.199   7.650
 4879POPC   C1B22639  11.288  22.416   8.550
 4879POPC   C2B22640  11.239  22.451   8.250
 4879POPC   C3B22641  11.281  22.451   7.950
 4879POPC   C4B22642  11.288  22.454   7.650
 4880POPC   NC322643  13.660  37.711   9.450
 4880POPC   PO422644  13.631  37.661   9.150
 4880POPC   GL122645  13.632  37.632   8.850
 4880POPC   GL222646  13.507  37.730   8.850
 4880POPC   C1A22647  13.580  37.656   8.550
 4880POPC   D2A22648  13.647  37.637   8.250
 4880POPC   C3A22649  13.598  37.680   7.950
 4880POPC   C4A22650  13.594  37.717   7.650
 4880POPC   C1B22651  13.428  37.858   8.550
 4880POPC   C2B22652  13.476  37.896   8.250
 4880POPC   C3B22653  13.477  37.910   7.950
 4880POPC   C4B22654  13.468  37.836   7.650
 4881POPC   NC322655   9.758  17.476   9.450
 4881POPC   PO422656   9.789  17.530   9.150
 4881POPC   GL122657   9.715  17.521   8.850
 4881POPC   GL222658   9.838  17.370   8.850
 4881POPC   C1A22659   9.756  17.557   8.550
 4881POPC   D2A22660   9.720  17.495   8.250
 4881POPC   C3A22661   9.703  17.508   7.950
 4881POPC   C4A22662   9.699  17.477   7.650
 4881POPC   C1B22663   9.875  17.284   8.550
 4881POPC   C2B22664   9.876  17.252   8.250
 4881POPC   C3B22665   9.834  17.246   7.950
 4881POPC   C4B22666   9.842  17.224   7.650
 4882POPC   NC322667  33.816  19.835   9.450
 4882POPC   PO422668  33.762  19.811   9.150
 4882POPC   GL122669  33.835  19.799   8.850
 4882POPC   GL222670  33.742  19.683   8.850
 4882POPC   C1A22671  33.764  19.804   8.550
 4882POPC   D2A22672  33.782  19.824   8.250
 4882POPC   C3A22673  33.835  19.871   7.950
 4882POPC   C4A22674  33.768  19.872   7.650
 4882POPC   C1B22675  33.771  19.572   8.550
 4882POPC   C2B22676  33.743  19.570   8.250
 4882POPC   C3B22677  33.732  19.624   7.950
 4882POPC   C4B22678  33.754  19.541   7.650
 4883POPC   NC322679  39.190  30.724   9.450
 4883POPC   PO422680  39.205  30.690   9.150
 4883POPC   GL122681  39.214  30.692   8.850
 4883POPC   GL222682  39.269  30.587   8.850
 4883POPC   C1A22683  39.235  30.723   8.550
 4883POPC   D2A22684  39.240  30.656   8.250
 4883POPC   C3A22685  39.199  30.668   7.950
 4883POPC   C4A22686  39.254  30.721   7.650
 4883POPC   C1B22687  39.256  30.433   8.550
 4883POPC   C2B22688  39.204  30.457   8.250
 4883POPC   C3B22689  39.271  30.474   7.950
 4883POPC   C4B22690  39.194  30.405   7.650
 4884POPC   NC322691  41.533  25.307   9.450
 4884POPC   PO422692  41.536  25.279   9.150
 4884POPC   GL122693  41.580  25.261   8.850
 4884POPC   GL222694  41.498  25.377   8.850
 4884POPC   C1A22695  41.548  25.235   8.550
 4884POPC   D2A22696  41.603  25.311   8.250
 4884POPC   C3A22697  41.602  25.249   7.950
 4884POPC   C4A22698  41.514  25.257   7.650
 4884POPC   C1B22699  41.420  25.514   8.550
 4884POPC   C2B22700  41.484  25.479   8.250
 4884POPC   C3B22701  41.467  25.438   7.950
 4884POPC   C4B22702  41.406  25.439   7.650
 4885POPC   NC322703   8.241   6.631   9.450
 4885POPC   PO422704   8.220   6.612   9.150
 4885POPC   GL122705   8.185   6.668   8.850
 4885POPC   GL222706   8.221   6.490   8.850
 4885POPC   C1A22707   8.198   6.601   8.550
 4885POPC   D2A22708   8.161   6.668   8.250
 4885POPC   C3A22709   8.222   6.655   7.950
 4885POPC   C4A22710   8.161   6.650   7.650
 4885POPC   C1B22711   8.165   6.439   8.550
 4885POPC   C2B22712   8.218   6.378   8.250
 4885POPC   C3B22713   8.134   6.422   7.950
 4885POPC   C4B22714   8.136   6.395   7.650
 4886POPC   NC322715  32.261   3.527   9.450
 4886POPC   PO422716  32.281   3.588   9.150
 4886POPC   GL122717  32.218   3.501   8.850
 4886POPC   GL222718  32.373   3.545   8.850
 4886POPC   C1A22719  32.294   3.492   8.550
 4886POPC   D2A22720  32.278   3.569   8.250
 4886POPC   C3A22721  32.269   3.576   7.950
 4886POPC   C4A22722  32.290   3.556   7.650
 4886POPC   C1B22723  32.486   3.508   8.550
 4886POPC   C2B22724  32.469   3.592   8.250
 4886POPC   C3B22725  32.542   3.557   7.950
 4886POPC   C4B22726  32.501   3.571   7.650
 4887POPC   NC322727  36.163  27.574   9.450
 4887POPC   PO422728  36.151  27.612   9.150
 4887POPC   GL122729  36.078  27.566   8.850
 4887POPC   GL222730  36.024  27.556   8.850
 4887POPC   C1A22731  36.114  27.578   8.550
 4887POPC   D2A22732  36.138  27.566   8.250
 4887POPC   C3A22733  36.168  27.554   7.950
 4887POPC   C4A22734  36.175  27.591   7.650
 4887POPC   C1B22735  35.890  27.418   8.550
 4887POPC   C2B22736  35.950  27.472   8.250
 4887POPC   C3B22737  35.899  27.426   7.950
 4887POPC   C4B22738  35.908  27.441   7.650
 4888POPC   NC322739  33.827  19.063   9.450
 4888POPC   PO422740  33.782  19.094   9.150
 4888POPC   GL122741  33.791  19.010   8.850
 4888POPC   GL222742  33.822  18.906   8.850
 4888POPC   C1A22743  33.777  19.063   8.550
 4888POPC   D2A22744  33.846  19.044   8.250
 4888POPC   C3A22745  33.754  19.043   7.950
 4888POPC   C4A22746  33.813  19.044   7.650
 4888POPC   C1B22747  33.887  18.764   8.550
 4888POPC   C2B22748  33.877  18.769   8.250
 4888POPC   C3B22749  33.835  18.782   7.950
 4888POPC   C4B22750  33.887  18.827   7.650
 4889POPC   NC322751   5.052   3.505   9.450
 4889POPC   PO422752   5.124   3.501   9.150
 4889POPC   GL122753   5.121   3.588   8.850
 4889POPC   GL222754   5.192   3.665   8.850
 4889POPC   C1A22755   5.130   3.570   8.550
 4889POPC   D2A22756   5.091   3.547   8.250
 4889POPC   C3A22757   5.135   3.499   7.950
 4889POPC   C4A22758   5.068   3.545   7.650
 4889POPC   C1B22759   5.323   3.715   8.550
 4889POPC   C2B22760   5.239   3.650   8.250
 4889POPC   C3B22761   5.241   3.655   7.950
 4889POPC   C4B22762   5.336   3.729   7.650
 4890POPC   NC322763   7.453  36.101   9.450
 4890POPC   PO422764   7.394  36.086   9.150
 4890POPC   GL122765   7.431  36.142   8.850
 4890POPC   GL222766   7.528  36.190   8.850
 4890POPC   C1A22767   7.447  36.151   8.550
 4890POPC   D2A22768   7.465  36.176   8.250
 4890POPC   C3A22769   7.397  36.102   7.950
 4890POPC   C4A22770   7.417  36.164   7.650
 4890POPC   C1B22771   7.660  36.278   8.550
 4890POPC   C2B22772   7.625  36.266   8.250
 4890POPC   C3B22773   7.623  36.271   7.950
 4890POPC   C4B22774   7.624  36.188   7.650
 4891POPC   NC322775   8.946  26.809   9.450
 4891POPC   PO422776   8.968  26.829   9.150
 4891POPC   GL122777   8.987  26.798   8.850
 4891POPC   GL222778   8.861  26.843   8.850
 4891POPC   C1A22779   8.962  26.787   8.550
 4891POPC   D2A22780   8.953  26.770   8.250
 4891POPC   C3A22781   8.932  26.858   7.950
 4891POPC   C4A22782   8.995  26.834   7.650
 4891POPC   C1B22783   8.756  26.912   8.550
 4891POPC   C2B22784   8.714  26.935   8.250
 4891POPC   C3B22785   8.693  26.950   7.950
 4891POPC   C4B22786   8.783  26.900   7.650
 4892POPC   NC322787  43.901   4.300   9.450
 4892POPC   PO422788  43.915   4.332   9.150
 4892POPC   GL122789  43.852   4.342   8.850
 4892POPC   GL222790  43.794   4.221   8.850
 4892POPC   C1A22791  43.859   4.293   8.550
 4892POPC   D2A22792  43.908   4.355   8.250
 4892POPC   C3A22793  43.846   4.331   7.950
 4892POPC   C4A22794  43.886   4.312   7.650
 4892POPC   C1B22795  43.705   4.090   8.550
 4892POPC   C2B22796  43.785   4.076   8.250
 4892POPC   C3B22797  43.711   4.079   7.950
 4892POPC   C4B22798  43.690   4.078   7.650
 4893POPC   NC322799  28.366   5.826   9.450
 4893POPC   PO422800  28.396   5.827   9.150
 4893POPC   GL122801  28.326   5.874   8.850
 4893POPC   GL222802  28.197   5.835   8.850
 4893POPC   C1A22803  28.402   5.891   8.550
 4893POPC   D2A22804  28.392   5.889   8.250
 4893POPC   C3A22805  28.361   5.911   7.950
 4893POPC   C4A22806  28.349   5.907   7.650
 4893POPC   C1B22807  28.147   5.833   8.550
 4893POPC   C2B22808  28.147   5.868   8.250
 4893POPC   C3B22809  28.123   5.882   7.950
 4893POPC   C4B22810  28.079   5.841   7.650
 4894POPC   NC322811   5.093  20.589   9.450
 4894POPC   PO422812   5.046  20.629   9.150
 4894POPC   GL122813   5.131  20.611   8.850
 4894POPC   GL222814   5.037  20.690   8.850
 4894POPC   C1A22815   5.100  20.646   8.550
 4894POPC   D2A22816   5.116  20.628   8.250
 4894POPC   C3A22817   5.076  20.631   7.950
 4894POPC   C4A22818   5.123  20.602   7.650
 4894POPC   C1B22819   4.927  20.766   8.550
 4894POPC   C2B22820   4.903  20.799   8.250
 4894POPC   C3B22821   4.944  20.756   7.950
 4894POPC   C4B22822   4.952  20.797   7.650
 4895POPC   NC322823  38.416  19.028   9.450
 4895POPC   PO422824  38.482  19.060   9.150
 4895POPC   GL122825  38.418  19.092   8.850
 4895POPC   GL222826  38.302  19.120   8.850
 4895POPC   C1A22827  38.461  19.044   8.550
 4895POPC   D2A22828  38.444  19.016   8.250
 4895POPC   C3A22829  38.454  19.065   7.950
 4895POPC   C4A22830  38.428  19.018   7.650
 4895POPC   C1B22831  38.245  19.221   8.550
 4895POPC   C2B22832  38.283  19.165   8.250
 4895POPC   C3B22833  38.200  19.211   7.950
 4895POPC   C4B22834  38.196  19.180   7.650
 4896POPC   NC322835  12.815   6.654   9.450
 4896POPC   PO422836  12.812   6.684   9.150
 4896POPC   GL122837  12.870   6.685   8.850
 4896POPC   GL222838  12.966   6.702   8.850
 4896POPC   C1A22839  12.899   6.656   8.550
 4896POPC   D2A22840  12.891   6.624   8.250
 4896POPC   C3A22841  12.856   6.625   7.950
 4896POPC   C4A22842  12.814   6.624   7.650
 4896POPC   C1B22843  12.960   6.816   8.550
 4896POPC   C2B22844  13.008   6.855   8.250
 4896POPC   C3B22845  13.023   6.854   7.950
 4896POPC   C4B22846  12.959   6.837   7.650
 4897POPC   NC322847   3.492  43.906   9.450
 4897POPC   PO422848   3.501  43.883   9.150
 4897POPC   GL122849   3.539  43.920   8.850
 4897POPC   GL222850   3.501  43.970   8.850
 4897POPC   C1A22851   3.523  43.916   8.550
 4897POPC   D2A22852   3.517  43.851   8.250
 4897POPC   C3A22853   3.510  43.839   7.950
 4897POPC   C4A22854   3.529  43.859   7.650
 4897POPC   C1B22855   3.498  44.180   8.550
 4897POPC   C2B22856   3.522  44.149   8.250
 4897POPC   C3B22857   3.541  44.108   7.950
 4897POPC   C4B22858   3.535  44.124   7.650
 4898POPC   NC322859  19.029   1.210   9.450
 4898POPC   PO422860  19.027   1.202   9.150
 4898POPC   GL122861  19.082   1.180   8.850
 4898POPC   GL222862  19.048   1.119   8.850
 4898POPC   C1A22863  19.072   1.239   8.550
 4898POPC   D2A22864  19.059   1.165   8.250
 4898POPC   C3A22865  19.092   1.262   7.950
 4898POPC   C4A22866  19.045   1.264   7.650
 4898POPC   C1B22867  19.051   0.922   8.550
 4898POPC   C2B22868  19.119   0.940   8.250
 4898POPC   C3B22869  19.088   0.937   7.950
 4898POPC   C4B22870  19.094   0.943   7.650
 4899POPC   NC322871  24.471  21.407   9.450
 4899POPC   PO422872  24.534  21.402   9.150
 4899POPC   GL122873  24.465  21.418   8.850
 4899POPC   GL222874  24.524  21.330   8.850
 4899POPC   C1A22875  24.525  21.364   8.550
 4899POPC   D2A22876  24.461  21.355   8.250
 4899POPC   C3A22877  24.503  21.336   7.950
 4899POPC   C4A22878  24.514  21.425   7.650
 4899POPC   C1B22879  24.683  21.211   8.550
 4899POPC   C2B22880  24.620  21.230   8.250
 4899POPC   C3B22881  24.606  21.207   7.950
 4899POPC   C4B22882  24.695  21.180   7.650
 4900POPC   NC322883  42.303  25.232   9.450
 4900POPC   PO422884  42.311  25.315   9.150
 4900POPC   GL122885  42.376  25.223   8.850
 4900POPC   GL222886  42.357  25.420   8.850
 4900POPC   C1A22887  42.337  25.268   8.550
 4900POPC   D2A22888  42.301  25.244   8.250
 4900POPC   C3A22889  42.309  25.258   7.950
 4900POPC   C4A22890  42.372  25.279   7.650
 4900POPC   C1B22891  42.273  25.486   8.550
 4900POPC   C2B22892  42.253  25.539   8.250
 4900POPC   C3B22893  42.255  25.527   7.950
 4900POPC   C4B22894  42.311  25.463   7.650
 4901POPC   NC322895  12.086  16.755   9.450
 4901POPC   PO422896  12.071  16.748   9.150
 4901POPC   GL122897  12.112  16.697   8.850
 4901POPC   GL222898  12.113  16.609   8.850
 4901POPC   C1A22899  12.123  16.744   8.550
 4901POPC   D2A22900  12.044  16.742   8.250
 4901POPC   C3A22901  12.103  16.768   7.950
 4901POPC   C4A22902  12.097  16.701   7.650
 4901POPC   C1B22903  12.061  16.501   8.550
 4901POPC   C2B22904  12.053  16.453   8.250
 4901POPC   C3B22905  12.062  16.446   7.950
 4901POPC   C4B22906  12.048  16.483   7.650
 4902POPC   NC322907   9.007  15.915   9.450
 4902POPC   PO422908   8.925  15.976   9.150
 4902POPC   GL122909   8.934  15.995   8.850
 4902POPC   GL222910   9.099  16.003   8.850
 4902POPC   C1A22911   8.970  15.953   8.550
 4902POPC   D2A22912   8.950  15.986   8.250
 4902POPC   C3A22913   9.017  15.919   7.950
 4902POPC   C4A22914   8.988  15.928   7.650
 4902POPC   C1B22915   9.229  16.097   8.550
 4902POPC   C2B22916   9.222  16.018   8.250
 4902POPC   C3B22917   9.163  16.076   7.950
 4902POPC   C4B22918   9.228  16.017   7.650
 4903POPC   NC322919   0.406  21.397   9.450
 4903POPC   PO422920   0.477  21.395   9.150
 4903POPC   GL122921   0.400  21.345   8.850
 4903POPC   GL222922   0.467  21.249   8.850
 4903POPC   C1A22923   0.412  21.407   8.550
 4903POPC   D2A22924   0.473  21.424   8.250
 4903POPC   C3A22925   0.389  21.427   7.950
 4903POPC   C4A22926   0.439  21.353   7.650
 4903POPC   C1B22927   0.435  21.110   8.550
 4903POPC   C2B22928   0.513  21.104   8.250
 4903POPC   C3B22929   0.481  21.166   7.950
 4903POPC   C4B22930   0.460  21.162   7.650
 4904POPC   NC322931  12.810  36.929   9.450
 4904POPC   PO422932  12.864  36.903   9.150
 4904POPC   GL122933  12.887  36.864   8.850
 4904POPC   GL222934  12.911  36.843   8.850
 4904POPC   C1A22935  12.831  36.919   8.550
 4904POPC   D2A22936  12.872  36.877   8.250
 4904POPC   C3A22937  12.858  36.941   7.950
 4904POPC   C4A22938  12.851  36.882   7.650
 4904POPC   C1B22939  13.008  36.658   8.550
 4904POPC   C2B22940  12.950  36.727   8.250
 4904POPC   C3B22941  12.992  36.722   7.950
 4904POPC   C4B22942  12.997  36.717   7.650
 4905POPC   NC322943  19.881   0.434   9.450
 4905POPC   PO422944  19.785   0.394   9.150
 4905POPC   GL122945  19.861   0.457   8.850
 4905POPC   GL222946  19.840   0.515   8.850
 4905POPC   C1A22947  19.871   0.447   8.550
 4905POPC   D2A22948  19.858   0.426   8.250
 4905POPC   C3A22949  19.880   0.457   7.950
 4905POPC   C4A22950  19.862   0.468   7.650
 4905POPC   C1B22951  19.811   0.732   8.550
 4905POPC   C2B22952  19.827   0.702   8.250
 4905POPC   C3B22953  19.804   0.651   7.950
 4905POPC   C4B22954  19.840   0.737   7.650
 4906POPC   NC322955  25.300  22.920   9.450
 4906POPC   PO422956  25.314  22.962   9.150
 4906POPC   GL122957  25.295  22.902   8.850
 4906POPC   GL222958  25.329  22.821   8.850
 4906POPC   C1A22959  25.285  22.957   8.550
 4906POPC   D2A22960  25.217  22.957   8.250
 4906POPC   C3A22961  25.277  22.961   7.950
 4906POPC   C4A22962  25.264  22.901   7.650
 4906POPC   C1B22963  25.445  22.714   8.550
 4906POPC   C2B22964  25.472  22.755   8.250
 4906POPC   C3B22965  25.391  22.721   7.950
 4906POPC   C4B22966  25.422  22.714   7.650
 4907POPC   NC322967  43.866   2.797   9.450
 4907POPC   PO422968  43.863   2.760   9.150
 4907POPC   GL122969  43.919   2.759   8.850
 4907POPC   GL222970  43.971   2.893   8.850
 4907POPC   C1A22971  43.916   2.746   8.550
 4907POPC   D2A22972  43.861   2.792   8.250
 4907POPC   C3A22973  43.927   2.764   7.950
 4907POPC   C4A22974  43.925   2.809   7.650
 4907POPC   C1B22975  44.034   2.919   8.550
 4907POPC   C2B22976  44.078   2.997   8.250
 4907POPC   C3B22977  44.005   2.989   7.950
 4907POPC   C4B22978  44.041   2.959   7.650
 4908POPC   NC322979  37.663  28.344   9.450
 4908POPC   PO422980  37.719  28.324   9.150
 4908POPC   GL122981  37.642  28.399   8.850
 4908POPC   GL222982  37.723  28.208   8.850
 4908POPC   C1A22983  37.702  28.395   8.550
 4908POPC   D2A22984  37.693  28.387   8.250
 4908POPC   C3A22985  37.704  28.383   7.950
 4908POPC   C4A22986  37.681  28.411   7.650
 4908POPC   C1B22987  37.740  28.098   8.550
 4908POPC   C2B22988  37.744  28.106   8.250
 4908POPC   C3B22989  37.737  28.094   7.950
 4908POPC   C4B22990  37.755  28.101   7.650
 4909POPC   NC322991  15.978  29.097   9.450
 4909POPC   PO422992  16.003  29.105   9.150
 4909POPC   GL122993  15.927  29.161   8.850
 4909POPC   GL222994  16.057  29.204   8.850
 4909POPC   C1A22995  15.938  29.165   8.550
 4909POPC   D2A22996  15.973  29.160   8.250
 4909POPC   C3A22997  15.932  29.181   7.950
 4909POPC   C4A22998  15.918  29.187   7.650
 4909POPC   C1B22999  16.132  29.302   8.550
 4909POPC   C2B23000  16.221  29.300   8.250
 4909POPC   C3B23001  16.206  29.287   7.950
 4909POPC   C4B23002  16.139  29.306   7.650
 4910POPC   NC323003  16.004  26.058   9.450
 4910POPC   PO423004  15.941  26.047   9.150
 4910POPC   GL123005  15.947  26.057   8.850
 4910POPC   GL223006  15.966  26.131   8.850
 4910POPC   C1A23007  15.962  26.024   8.550
 4910POPC   D2A23008  15.929  25.992   8.250
 4910POPC   C3A23009  15.960  26.083   7.950
 4910POPC   C4A23010  15.982  26.079   7.650
 4910POPC   C1B23011  15.998  26.333   8.550
 4910POPC   C2B23012  15.987  26.246   8.250
 4910POPC   C3B23013  16.007  26.258   7.950
 4910POPC   C4B23014  16.033  26.243   7.650
 4911POPC   NC323015  12.027  12.885   9.450
 4911POPC   PO423016  12.108  12.847   9.150
 4911POPC   GL123017  12.074  12.823   8.850
 4911POPC   GL223018  11.949  12.920   8.850
 4911POPC   C1A23019  12.083  12.837   8.550
 4911POPC   D2A23020  12.029  12.809   8.250
 4911POPC   C3A23021  12.119  12.874   7.950
 4911POPC   C4A23022  12.055  12.853   7.650
 4911POPC   C1B23023  11.915  13.046   8.550
 4911POPC   C2B23024  11.898  13.020   8.250
 4911POPC   C3B23025  11.864  12.950   7.950
 4911POPC   C4B23026  11.869  12.988   7.650
 4912POPC   NC323027   4.321  26.824   9.450
 4912POPC   PO423028   4.323  26.781   9.150
 4912POPC   GL123029   4.324  26.865   8.850
 4912POPC   GL223030   4.407  26.898   8.850
 4912POPC   C1A23031   4.357  26.834   8.550
 4912POPC   D2A23032   4.338  26.770   8.250
 4912POPC   C3A23033   4.267  26.810   7.950
 4912POPC   C4A23034   4.275  26.781   7.650
 4912POPC   C1B23035   4.551  26.983   8.550
 4912POPC   C2B23036   4.471  26.935   8.250
 4912POPC   C3B23037   4.485  27.014   7.950
 4912POPC   C4B23038   4.558  26.948   7.650
 4913POPC   NC323039  12.047  43.093   9.450
 4913POPC   PO423040  12.105  43.143   9.150
 4913POPC   GL123041  12.056  43.107   8.850
 4913POPC   GL223042  12.069  43.222   8.850
 4913POPC   C1A23043  12.112  43.114   8.550
 4913POPC   D2A23044  12.055  43.130   8.250
 4913POPC   C3A23045  12.030  43.063   7.950
 4913POPC   C4A23046  12.114  43.089   7.650
 4913POPC   C1B23047  12.058  43.408   8.550
 4913POPC   C2B23048  12.127  43.395   8.250
 4913POPC   C3B23049  12.122  43.383   7.950
 4913POPC   C4B23050  12.042  43.400   7.650
 4914POPC   NC323051  26.831  16.768   9.450
 4914POPC   PO423052  26.800  16.755   9.150
 4914POPC   GL123053  26.808  16.730   8.850
 4914POPC   GL223054  26.921  16.746   8.850
 4914POPC   C1A23055  26.772  16.744   8.550
 4914POPC   D2A23056  26.819  16.721   8.250
 4914POPC   C3A23057  26.772  16.695   7.950
 4914POPC   C4A23058  26.812  16.693   7.650
 4914POPC   C1B23059  27.104  16.773   8.550
 4914POPC   C2B23060  27.049  16.811   8.250
 4914POPC   C3B23061  27.106  16.799   7.950
 4914POPC   C4B23062  27.029  16.766   7.650
 4915POPC   NC323063  31.470  38.435   9.450
 4915POPC   PO423064  31.465  38.493   9.150
 4915POPC   GL123065  31.462  38.485   8.850
 4915POPC   GL223066  31.536  38.315   8.850
 4915POPC   C1A23067  31.511  38.469   8.550
 4915POPC   D2A23068  31.462  38.475   8.250
 4915POPC   C3A23069  31.484  38.477   7.950
 4915POPC   C4A23070  31.500  38.432   7.650
 4915POPC   C1B23071  31.600  38.232   8.550
 4915POPC   C2B23072  31.607  38.235   8.250
 4915POPC   C3B23073  31.620  38.265   7.950
 4915POPC   C4B23074  31.616  38.270   7.650
 4916POPC   NC323075  19.059   3.572   9.450
 4916POPC   PO423076  19.093   3.562   9.150
 4916POPC   GL123077  19.050   3.589   8.850
 4916POPC   GL223078  19.173   3.547   8.850
 4916POPC   C1A23079  19.069   3.526   8.550
 4916POPC   D2A23080  19.095   3.566   8.250
 4916POPC   C3A23081  19.089   3.573   7.950
 4916POPC   C4A23082  19.069   3.538   7.650
 4916POPC   C1B23083  19.307   3.627   8.550
 4916POPC   C2B23084  19.307   3.608   8.250
 4916POPC   C3B23085  19.328   3.627   7.950
 4916POPC   C4B23086  19.286   3.663   7.650
 4917POPC   NC323087   9.716   2.782   9.450
 4917POPC   PO423088   9.718   2.781   9.150
 4917POPC   GL123089   9.724   2.762   8.850
 4917POPC   GL223090   9.666   2.727   8.850
 4917POPC   C1A23091   9.770   2.757   8.550
 4917POPC   D2A23092   9.776   2.744   8.250
 4917POPC   C3A23093   9.768   2.768   7.950
 4917POPC   C4A23094   9.787   2.735   7.650
 4917POPC   C1B23095   9.565   2.646   8.550
 4917POPC   C2B23096   9.596   2.600   8.250
 4917POPC   C3B23097   9.532   2.633   7.950
 4917POPC   C4B23098   9.583   2.565   7.650
 4918POPC   NC323099  27.584   5.082   9.450
 4918POPC   PO423100  27.564   5.083   9.150
 4918POPC   GL123101  27.596   5.130   8.850
 4918POPC   GL223102  27.560   5.223   8.850
 4918POPC   C1A23103  27.566   5.102   8.550
 4918POPC   D2A23104  27.572   5.076   8.250
 4918POPC   C3A23105  27.585   5.074   7.950
 4918POPC   C4A23106  27.574   5.077   7.650
 4918POPC   C1B23107  27.609   5.304   8.550
 4918POPC   C2B23108  27.619   5.297   8.250
 4918POPC   C3B23109  27.538   5.380   7.950
 4918POPC   C4B23110  27.534   5.354   7.650
 4919POPC   NC323111  22.956   6.659   9.450
 4919POPC   PO423112  22.949   6.596   9.150
 4919POPC   GL123113  22.950   6.649   8.850
 4919POPC   GL223114  23.073   6.690   8.850
 4919POPC   C1A23115  22.936   6.689   8.550
 4919POPC   D2A23116  22.911   6.603   8.250
 4919POPC   C3A23117  22.904   6.595   7.950
 4919POPC   C4A23118  22.951   6.615   7.650
 4919POPC   C1B23119  23.204   6.671   8.550
 4919POPC   C2B23120  23.202   6.700   8.250
 4919POPC   C3B23121  23.203   6.703   7.950
 4919POPC   C4B23122  23.180   6.654   7.650
 4920POPC   NC323123  26.005   2.790   9.450
 4920POPC   PO423124  25.993   2.764   9.150
 4920POPC   GL123125  26.032   2.724   8.850
 4920POPC   GL223126  26.009   2.692   8.850
 4920POPC   C1A23127  26.020   2.771   8.550
 4920POPC   D2A23128  26.061   2.766   8.250
 4920POPC   C3A23129  26.077   2.720   7.950
 4920POPC   C4A23130  26.055   2.805   7.650
 4920POPC   C1B23131  25.968   2.510   8.550
 4920POPC   C2B23132  25.990   2.545   8.250
 4920POPC   C3B23133  25.996   2.477   7.950
 4920POPC   C4B23134  26.011   2.547   7.650
 4921POPC   NC323135   3.508  33.845   9.450
 4921POPC   PO423136   3.576  33.759   9.150
 4921POPC   GL123137   3.557  33.787   8.850
 4921POPC   GL223138   3.606  33.925   8.850
 4921POPC   C1A23139   3.530  33.764   8.550
 4921POPC   D2A23140   3.520  33.840   8.250
 4921POPC   C3A23141   3.540  33.757   7.950
 4921POPC   C4A23142   3.591  33.780   7.650
 4921POPC   C1B23143   3.765  33.928   8.550
 4921POPC   C2B23144   3.750  33.980   8.250
 4921POPC   C3B23145   3.707  34.007   7.950
 4921POPC   C4B23146   3.763  33.955   7.650
 4922POPC   NC323147  32.235  12.118   9.450
 4922POPC   PO423148  32.204  12.080   9.150
 4922POPC   GL123149  32.236  12.114   8.850
 4922POPC   GL223150  32.137  12.213   8.850
 4922POPC   C1A23151  32.220  12.062   8.550
 4922POPC   D2A23152  32.221  12.062   8.250
 4922POPC   C3A23153  32.204  12.033   7.950
 4922POPC   C4A23154  32.205  12.028   7.650
 4922POPC   C1B23155  32.142  12.294   8.550
 4922POPC   C2B23156  32.107  12.301   8.250
 4922POPC   C3B23157  32.161  12.299   7.950
 4922POPC   C4B23158  32.143  12.337   7.650
 4923POPC   NC323159  44.619  31.504   9.450
 4923POPC   PO423160  44.670  31.500   9.150
 4923POPC   GL123161  44.675  31.493   8.850
 4923POPC   GL223162  44.566  31.385   8.850
 4923POPC   C1A23163  44.623  31.505   8.550
 4923POPC   D2A23164  44.669  31.477   8.250
 4923POPC   C3A23165  44.671  31.511   7.950
 4923POPC   C4A23166  44.669  31.451   7.650
 4923POPC   C1B23167  44.551  31.272   8.550
 4923POPC   C2B23168  44.512  31.299   8.250
 4923POPC   C3B23169  44.567  31.241   7.950
 4923POPC   C4B23170  44.573  31.213   7.650
 4924POPC   NC323171  32.292  42.345   9.450
 4924POPC   PO423172  32.261  42.321   9.150
 4924POPC   GL123173  32.245  42.285   8.850
 4924POPC   GL223174  32.105  42.391   8.850
 4924POPC   C1A23175  32.199  42.347   8.550
 4924POPC   D2A23176  32.238  42.382   8.250
 4924POPC   C3A23177  32.210  42.372   7.950
 4924POPC   C4A23178  32.218  42.376   7.650
 4924POPC   C1B23179  31.954  42.339   8.550
 4924POPC   C2B23180  31.996  42.346   8.250
 4924POPC   C3B23181  32.047  42.343   7.950
 4924POPC   C4B23182  31.961  42.327   7.650
 4925POPC   NC323183  13.597   9.007   9.450
 4925POPC   PO423184  13.673   8.939   9.150
 4925POPC   GL123185  13.595   8.980   8.850
 4925POPC   GL223186  13.579   8.873   8.850
 4925POPC   C1A23187  13.665   8.960   8.550
 4925POPC   D2A23188  13.604   9.020   8.250
 4925POPC   C3A23189  13.659   8.934   7.950
 4925POPC   C4A23190  13.606   8.925   7.650
 4925POPC   C1B23191  13.489   8.822   8.550
 4925POPC   C2B23192  13.498   8.802   8.250
 4925POPC   C3B23193  13.430   8.771   7.950
 4925POPC   C4B23194  13.431   8.842   7.650
 4926POPC   NC323195  43.078  19.074   9.450
 4926POPC   PO423196  43.113  19.037   9.150
 4926POPC   GL123197  43.086  19.101   8.850
 4926POPC   GL223198  43.002  19.051   8.850
 4926POPC   C1A23199  43.150  19.013   8.550
 4926POPC   D2A23200  43.148  19.089   8.250
 4926POPC   C3A23201  43.149  19.047   7.950
 4926POPC   C4A23202  43.142  19.011   7.650
 4926POPC   C1B23203  42.898  19.023   8.550
 4926POPC   C2B23204  42.843  19.101   8.250
 4926POPC   C3B23205  42.895  19.043   7.950
 4926POPC   C4B23206  42.842  19.053   7.650
 4927POPC   NC323207  23.670   9.788   9.450
 4927POPC   PO423208  23.739   9.744   9.150
 4927POPC   GL123209  23.729   9.744   8.850
 4927POPC   GL223210  23.691   9.829   8.850
 4927POPC   C1A23211  23.688   9.781   8.550
 4927POPC   D2A23212  23.729   9.726   8.250
 4927POPC   C3A23213  23.684   9.776   7.950
 4927POPC   C4A23214  23.758   9.750   7.650
 4927POPC   C1B23215  23.602   9.987   8.550
 4927POPC   C2B23216  23.638   9.990   8.250
 4927POPC   C3B23217  23.628   9.994   7.950
 4927POPC   C4B23218  23.633   9.967   7.650
 4928POPC   NC323219  19.035   7.373   9.450
 4928POPC   PO423220  19.097   7.450   9.150
 4928POPC   GL123221  19.095   7.378   8.850
 4928POPC   GL223222  19.165   7.473   8.850
 4928POPC   C1A23223  19.045   7.408   8.550
 4928POPC   D2A23224  19.106   7.456   8.250
 4928POPC   C3A23225  19.096   7.425   7.950
 4928POPC   C4A23226  19.102   7.398   7.650
 4928POPC   C1B23227  19.249   7.644   8.550
 4928POPC   C2B23228  19.263   7.597   8.250
 4928POPC   C3B23229  19.202   7.595   7.950
 4928POPC   C4B23230  19.279   7.614   7.650
 4929POPC   NC323231  12.826  17.539   9.450
 4929POPC   PO423232  12.845  17.518   9.150
 4929POPC   GL123233  12.810  17.458   8.850
 4929POPC   GL223234  12.766  17.433   8.850
 4929POPC   C1A23235  12.895  17.548   8.550
 4929POPC   D2A23236  12.880  17.525   8.250
 4929POPC   C3A23237  12.818  17.491   7.950
 4929POPC   C4A23238  12.803  17.487   7.650
 4929POPC   C1B23239  12.645  17.340   8.550
 4929POPC   C2B23240  12.685  17.299   8.250
 4929POPC   C3B23241  12.657  17.304   7.950
 4929POPC   C4B23242  12.677  17.342   7.650
 4930POPC   NC323243  19.022  21.341   9.450
 4930POPC   PO423244  19.022  21.393   9.150
 4930POPC   GL123245  19.051  21.402   8.850
 4930POPC   GL223246  18.935  21.405   8.850
 4930POPC   C1A23247  19.042  21.340   8.550
 4930POPC   D2A23248  19.019  21.423   8.250
 4930POPC   C3A23249  19.038  21.371   7.950
 4930POPC   C4A23250  19.079  21.363   7.650
 4930POPC   C1B23251  18.805  21.438   8.550
 4930POPC   C2B23252  18.853  21.471   8.250
 4930POPC   C3B23253  18.817  21.498   7.950
 4930POPC   C4B23254  18.770  21.494   7.650
 4931POPC   NC323255   8.223  28.360   9.450
 4931POPC   PO423256   8.230  28.404   9.150
 4931POPC   GL123257   8.152  28.333   8.850
 4931POPC   GL223258   8.138  28.233   8.850
 4931POPC   C1A23259   8.208  28.340   8.550
 4931POPC   D2A23260   8.240  28.386   8.250
 4931POPC   C3A23261   8.184  28.321   7.950
 4931POPC   C4A23262   8.176  28.341   7.650
 4931POPC   C1B23263   8.049  28.167   8.550
 4931POPC   C2B23264   7.981  28.159   8.250
 4931POPC   C3B23265   8.050  28.210   7.950
 4931POPC   C4B23266   8.071  28.162   7.650
 4932POPC   NC323267   9.001   5.111   9.450
 4932POPC   PO423268   8.999   5.088   9.150
 4932POPC   GL123269   8.926   5.087   8.850
 4932POPC   GL223270   8.886   5.193   8.850
 4932POPC   C1A23271   8.962   5.069   8.550
 4932POPC   D2A23272   8.984   5.110   8.250
 4932POPC   C3A23273   8.974   5.108   7.950
 4932POPC   C4A23274   9.005   5.090   7.650
 4932POPC   C1B23275   8.803   5.313   8.550
 4932POPC   C2B23276   8.856   5.311   8.250
 4932POPC   C3B23277   8.870   5.335   7.950
 4932POPC   C4B23278   8.791   5.310   7.650
 4933POPC   NC323279   2.778   2.772   9.450
 4933POPC   PO423280   2.814   2.815   9.150
 4933POPC   GL123281   2.763   2.749   8.850
 4933POPC   GL223282   2.664   2.818   8.850
 4933POPC   C1A23283   2.807   2.737   8.550
 4933POPC   D2A23284   2.803   2.731   8.250
 4933POPC   C3A23285   2.804   2.790   7.950
 4933POPC   C4A23286   2.750   2.731   7.650
 4933POPC   C1B23287   2.478   2.753   8.550
 4933POPC   C2B23288   2.512   2.828   8.250
 4933POPC   C3B23289   2.538   2.781   7.950
 4933POPC   C4B23290   2.526   2.766   7.650
 4934POPC   NC323291  43.876  28.411   9.450
 4934POPC   PO423292  43.914  28.398   9.150
 4934POPC   GL123293  43.908  28.355   8.850
 4934POPC   GL223294  43.849  28.456   8.850
 4934POPC   C1A23295  43.895  28.398   8.550
 4934POPC   D2A23296  43.862  28.399   8.250
 4934POPC   C3A23297  43.869  28.412   7.950
 4934POPC   C4A23298  43.931  28.337   7.650
 4934POPC   C1B23299  43.728  28.529   8.550
 4934POPC   C2B23300  43.714  28.568   8.250
 4934POPC   C3B23301  43.733  28.561   7.950
 4934POPC   C4B23302  43.763  28.529   7.650
 4935POPC   NC323303  30.707  42.363   9.450
 4935POPC   PO423304  30.670  42.372   9.150
 4935POPC   GL123305  30.737  42.335   8.850
 4935POPC   GL223306  30.540  42.347   8.850
 4935POPC   C1A23307  30.734  42.326   8.550
 4935POPC   D2A23308  30.654  42.360   8.250
 4935POPC   C3A23309  30.710  42.371   7.950
 4935POPC   C4A23310  30.663  42.362   7.650
 4935POPC   C1B23311  30.421  42.433   8.550
 4935POPC   C2B23312  30.425  42.425   8.250
 4935POPC   C3B23313  30.448  42.432   7.950
 4935POPC   C4B23314  30.455  42.352   7.650
 4936POPC   NC323315  41.548  24.496   9.450
 4936POPC   PO423316  41.518  24.443   9.150
 4936POPC   GL123317  41.560  24.444   8.850
 4936POPC   GL223318  41.451  24.553   8.850
 4936POPC   C1A23319  41.566  24.489   8.550
 4936POPC   D2A23320  41.517  24.502   8.250
 4936POPC   C3A23321  41.546  24.502   7.950
 4936POPC   C4A23322  41.547  24.462   7.650
 4936POPC   C1B23323  41.350  24.682   8.550
 4936POPC   C2B23324  41.402  24.644   8.250
 4936POPC   C3B23325  41.373  24.669   7.950
 4936POPC   C4B23326  41.346  24.705   7.650
 4937POPC   NC323327  37.697  37.665   9.450
 4937POPC   PO423328  37.716  37.673   9.150
 4937POPC   GL123329  37.639  37.661   8.850
 4937POPC   GL223330  37.680  37.557   8.850
 4937POPC   C1A23331  37.704  37.645   8.550
 4937POPC   D2A23332  37.642  37.638   8.250
 4937POPC   C3A23333  37.637  37.715   7.950
 4937POPC   C4A23334  37.664  37.691   7.650
 4937POPC   C1B23335  37.817  37.418   8.550
 4937POPC   C2B23336  37.815  37.485   8.250
 4937POPC   C3B23337  37.795  37.416   7.950
 4937POPC   C4B23338  37.787  37.498   7.650
 4938POPC   NC323339  12.884  30.680   9.450
 4938POPC   PO423340  12.848  30.728   9.150
 4938POPC   GL123341  12.825  30.722   8.850
 4938POPC   GL223342  12.814  30.596   8.850
 4938POPC   C1A23343  12.892  30.721   8.550
 4938POPC   D2A23344  12.817  30.670   8.250
 4938POPC   C3A23345  12.827  30.720   7.950
 4938POPC   C4A23346  12.888  30.681   7.650
 4938POPC   C1B23347  12.888  30.428   8.550
 4938POPC   C2B23348  12.815  30.481   8.250
 4938POPC   C3B23349  12.822  30.446   7.950
 4938POPC   C4B23350  12.844  30.410   7.650
 4939POPC   NC323351  14.380  39.199   9.450
 4939POPC   PO423352  14.424  39.224   9.150
 4939POPC   GL123353  14.387  39.253   8.850
 4939POPC   GL223354  14.270  39.343   8.850
 4939POPC   C1A23355  14.379  39.215   8.550
 4939POPC   D2A23356  14.429  39.227   8.250
 4939POPC   C3A23357  14.377  39.246   7.950
 4939POPC   C4A23358  14.403  39.279   7.650
 4939POPC   C1B23359  14.157  39.347   8.550
 4939POPC   C2B23360  14.138  39.388   8.250
 4939POPC   C3B23361  14.142  39.369   7.950
 4939POPC   C4B23362  14.222  39.389   7.650
 4940POPC   NC323363   0.478  35.350   9.450
 4940POPC   PO423364   0.430  35.370   9.150
 4940POPC   GL123365   0.411  35.376   8.850
 4940POPC   GL223366   0.358  35.465   8.850
 4940POPC   C1A23367   0.484  35.394   8.550
 4940POPC   D2A23368   0.478  35.305   8.250
 4940POPC   C3A23369   0.472  35.377   7.950
 4940POPC   C4A23370   0.420  35.345   7.650
 4940POPC   C1B23371   0.296  35.546   8.550
 4940POPC   C2B23372   0.276  35.551   8.250
 4940POPC   C3B23373   0.255  35.546   7.950
 4940POPC   C4B23374   0.306  35.604   7.650
 4941POPC   NC323375   7.403   4.346   9.450
 4941POPC   PO423376   7.453   4.299   9.150
 4941POPC   GL123377   7.385   4.293   8.850
 4941POPC   GL223378   7.517   4.444   8.850
 4941POPC   C1A23379   7.449   4.362   8.550
 4941POPC   D2A23380   7.403   4.305   8.250
 4941POPC   C3A23381   7.420   4.290   7.950
 4941POPC   C4A23382   7.415   4.352   7.650
 4941POPC   C1B23383   7.581   4.478   8.550
 4941POPC   C2B23384   7.585   4.482   8.250
 4941POPC   C3B23385   7.545   4.557   7.950
 4941POPC   C4B23386   7.514   4.566   7.650
 4942POPC   NC323387  33.015  36.876   9.450
 4942POPC   PO423388  32.999  36.953   9.150
 4942POPC   GL123389  33.012  36.862   8.850
 4942POPC   GL223390  33.025  36.743   8.850
 4942POPC   C1A23391  33.018  36.932   8.550
 4942POPC   D2A23392  33.008  36.909   8.250
 4942POPC   C3A23393  33.066  36.913   7.950
 4942POPC   C4A23394  33.024  36.891   7.650
 4942POPC   C1B23395  32.949  36.705   8.550
 4942POPC   C2B23396  32.982  36.647   8.250
 4942POPC   C3B23397  32.940  36.660   7.950
 4942POPC   C4B23398  32.968  36.616   7.650
 4943POPC   NC323399  40.746  19.036   9.450
 4943POPC   PO423400  40.771  19.028   9.150
 4943POPC   GL123401  40.828  19.087   8.850
 4943POPC   GL223402  40.691  19.105   8.850
 4943POPC   C1A23403  40.822  19.029   8.550
 4943POPC   D2A23404  40.782  19.026   8.250
 4943POPC   C3A23405  40.792  19.049   7.950
 4943POPC   C4A23406  40.797  19.068   7.650
 4943POPC   C1B23407  40.504  19.173   8.550
 4943POPC   C2B23408  40.517  19.172   8.250
 4943POPC   C3B23409  40.540  19.129   7.950
 4943POPC   C4B23410  40.523  19.134   7.650
 4944POPC   NC323411  29.106  26.792   9.450
 4944POPC   PO423412  29.195  26.786   9.150
 4944POPC   GL123413  29.121  26.838   8.850
 4944POPC   GL223414  29.058  26.712   8.850
 4944POPC   C1A23415  29.130  26.787   8.550
 4944POPC   D2A23416  29.102  26.775   8.250
 4944POPC   C3A23417  29.184  26.827   7.950
 4944POPC   C4A23418  29.193  26.855   7.650
 4944POPC   C1B23419  28.942  26.673   8.550
 4944POPC   C2B23420  28.981  26.666   8.250
 4944POPC   C3B23421  28.937  26.710   7.950
 4944POPC   C4B23422  28.972  26.640   7.650
 4945POPC   NC323423  42.384   8.234   9.450
 4945POPC   PO423424  42.352   8.211   9.150
 4945POPC   GL123425  42.384   8.163   8.850
 4945POPC   GL223426  42.184   8.159   8.850
 4945POPC   C1A23427  42.375   8.211   8.550
 4945POPC   D2A23428  42.344   8.149   8.250
 4945POPC   C3A23429  42.325   8.227   7.950
 4945POPC   C4A23430  42.314   8.192   7.650
 4945POPC   C1B23431  42.071   8.213   8.550
 4945POPC   C2B23432  42.090   8.189   8.250
 4945POPC   C3B23433  42.064   8.159   7.950
 4945POPC   C4B23434  42.094   8.183   7.650
 4946POPC   NC323435  37.647  22.138   9.450
 4946POPC   PO423436  37.725  22.166   9.150
 4946POPC   GL123437  37.671  22.141   8.850
 4946POPC   GL223438  37.671  22.083   8.850
 4946POPC   C1A23439  37.708  22.208   8.550
 4946POPC   D2A23440  37.721  22.138   8.250
 4946POPC   C3A23441  37.699  22.211   7.950
 4946POPC   C4A23442  37.715  22.185   7.650
 4946POPC   C1B23443  37.635  21.885   8.550
 4946POPC   C2B23444  37.615  21.909   8.250
 4946POPC   C3B23445  37.592  21.954   7.950
 4946POPC   C4B23446  37.637  21.931   7.650
 4947POPC   NC323447  15.155   9.759   9.450
 4947POPC   PO423448  15.143   9.726   9.150
 4947POPC   GL123449  15.167   9.793   8.850
 4947POPC   GL223450  15.248   9.632   8.850
 4947POPC   C1A23451  15.173   9.726   8.550
 4947POPC   D2A23452  15.182   9.797   8.250
 4947POPC   C3A23453  15.185   9.736   7.950
 4947POPC   C4A23454  15.199   9.780   7.650
 4947POPC   C1B23455  15.354   9.532   8.550
 4947POPC   C2B23456  15.299   9.531   8.250
 4947POPC   C3B23457  15.341   9.596   7.950
 4947POPC   C4B23458  15.362   9.598   7.650
 4948POPC   NC323459  23.680  23.761   9.450
 4948POPC   PO423460  23.706  23.685   9.150
 4948POPC   GL123461  23.729  23.740   8.850
 4948POPC   GL223462  23.772  23.839   8.850
 4948POPC   C1A23463  23.744  23.762   8.550
 4948POPC   D2A23464  23.733  23.734   8.250
 4948POPC   C3A23465  23.686  23.684   7.950
 4948POPC   C4A23466  23.739  23.704   7.650
 4948POPC   C1B23467  23.748  23.983   8.550
 4948POPC   C2B23468  23.805  23.934   8.250
 4948POPC   C3B23469  23.781  23.945   7.950
 4948POPC   C4B23470  23.756  23.930   7.650
 4949POPC   NC323471  22.117  11.316   9.450
 4949POPC   PO423472  22.135  11.279   9.150
 4949POPC   GL123473  22.140  11.282   8.850
 4949POPC   GL223474  22.196  11.423   8.850
 4949POPC   C1A23475  22.201  11.330   8.550
 4949POPC   D2A23476  22.154  11.253   8.250
 4949POPC   C3A23477  22.135  11.323   7.950
 4949POPC   C4A23478  22.202  11.258   7.650
 4949POPC   C1B23479  22.228  11.515   8.550
 4949POPC   C2B23480  22.271  11.518   8.250
 4949POPC   C3B23481  22.267  11.583   7.950
 4949POPC   C4B23482  22.268  11.583   7.650
 4950POPC   NC323483   6.672  43.856   9.450
 4950POPC   PO423484   6.672  43.882   9.150
 4950POPC   GL123485   6.611  43.849   8.850
 4950POPC   GL223486   6.540  43.931   8.850
 4950POPC   C1A23487   6.652  43.871   8.550
 4950POPC   D2A23488   6.611  43.904   8.250
 4950POPC   C3A23489   6.663  43.915   7.950
 4950POPC   C4A23490   6.691  43.935   7.650
 4950POPC   C1B23491   6.423  44.045   8.550
 4950POPC   C2B23492   6.387  44.037   8.250
 4950POPC   C3B23493   6.462  44.009   7.950
 4950POPC   C4B23494   6.454  43.993   7.650
 4951POPC   NC323495   6.596   0.463   9.450
 4951POPC   PO423496   6.647   0.423   9.150
 4951POPC   GL123497   6.619   0.465   8.850
 4951POPC   GL223498   6.738   0.439   8.850
 4951POPC   C1A23499   6.670   0.466   8.550
 4951POPC   D2A23500   6.692   0.390   8.250
 4951POPC   C3A23501   6.662   0.403   7.950
 4951POPC   C4A23502   6.630   0.419   7.650
 4951POPC   C1B23503   6.929   0.376   8.550
 4951POPC   C2B23504   6.890   0.387   8.250
 4951POPC   C3B23505   6.916   0.446   7.950
 4951POPC   C4B23506   6.864   0.454   7.650
 4952POPC   NC323507  40.775  28.393   9.450
 4952POPC   PO423508  40.793  28.326   9.150
 4952POPC   GL123509  40.749  28.367   8.850
 4952POPC   GL223510  40.952  28.392   8.850
 4952POPC   C1A23511  40.769  28.364   8.550
 4952POPC   D2A23512  40.757  28.416   8.250
 4952POPC   C3A23513  40.733  28.328   7.950
 4952POPC   C4A23514  40.827  28.361   7.650
 4952POPC   C1B23515  40.990  28.361   8.550
 4952POPC   C2B23516  41.001  28.396   8.250
 4952POPC   C3B23517  40.987  28.386   7.950
 4952POPC   C4B23518  41.002  28.378   7.650
 4953POPC   NC323519  12.890  23.706   9.450
 4953POPC   PO423520  12.831  23.685   9.150
 4953POPC   GL123521  12.830  23.749   8.850
 4953POPC   GL223522  12.796  23.793   8.850
 4953POPC   C1A23523  12.803  23.705   8.550
 4953POPC   D2A23524  12.861  23.744   8.250
 4953POPC   C3A23525  12.825  23.712   7.950
 4953POPC   C4A23526  12.817  23.737   7.650
 4953POPC   C1B23527  12.671  23.885   8.550
 4953POPC   C2B23528  12.626  23.831   8.250
 4953POPC   C3B23529  12.637  23.915   7.950
 4953POPC   C4B23530  12.636  23.864   7.650
 4954POPC   NC323531  24.480  26.856   9.450
 4954POPC   PO423532  24.446  26.791   9.150
 4954POPC   GL123533  24.459  26.840   8.850
 4954POPC   GL223534  24.403  26.723   8.850
 4954POPC   C1A23535  24.526  26.777   8.550
 4954POPC   D2A23536  24.520  26.857   8.250
 4954POPC   C3A23537  24.525  26.841   7.950
 4954POPC   C4A23538  24.474  26.836   7.650
 4954POPC   C1B23539  24.350  26.628   8.550
 4954POPC   C2B23540  24.303  26.604   8.250
 4954POPC   C3B23541  24.313  26.621   7.950
 4954POPC   C4B23542  24.379  26.561   7.650
 4955POPC   NC323543  17.542  21.347   9.450
 4955POPC   PO423544  17.473  21.399   9.150
 4955POPC   GL123545  17.525  21.414   8.850
 4955POPC   GL223546  17.585  21.487   8.850
 4955POPC   C1A23547  17.527  21.410   8.550
 4955POPC   D2A23548  17.526  21.378   8.250
 4955POPC   C3A23549  17.556  21.361   7.950
 4955POPC   C4A23550  17.516  21.361   7.650
 4955POPC   C1B23551  17.761  21.520   8.550
 4955POPC   C2B23552  17.685  21.486   8.250
 4955POPC   C3B23553  17.758  21.517   7.950
 4955POPC   C4B23554  17.685  21.524   7.650
 4956POPC   NC323555   8.977  43.900   9.450
 4956POPC   PO423556   8.987  43.873   9.150
 4956POPC   GL123557   8.939  43.861   8.850
 4956POPC   GL223558   9.023  43.714   8.850
 4956POPC   C1A23559   8.952  43.903   8.550
 4956POPC   D2A23560   8.940  43.932   8.250
 4956POPC   C3A23561   8.924  43.882   7.950
 4956POPC   C4A23562   8.923  43.893   7.650
 4956POPC   C1B23563   9.036  43.615   8.550
 4956POPC   C2B23564   9.011  43.624   8.250
 4956POPC   C3B23565   9.025  43.649   7.950
 4956POPC   C4B23566   8.990  43.623   7.650
 4957POPC   NC323567  29.902  37.703   9.450
 4957POPC   PO423568  29.905  37.678   9.150
 4957POPC   GL123569  29.879  37.717   8.850
 4957POPC   GL223570  29.840  37.629   8.850
 4957POPC   C1A23571  29.953  37.696   8.550
 4957POPC   D2A23572  29.965  37.664   8.250
 4957POPC   C3A23573  29.873  37.706   7.950
 4957POPC   C4A23574  29.928  37.707   7.650
 4957POPC   C1B23575  29.679  37.578   8.550
 4957POPC   C2B23576  29.678  37.530   8.250
 4957POPC   C3B23577  29.701  37.562   7.950
 4957POPC   C4B23578  29.723  37.545   7.650
 4958POPC   NC323579   7.398  41.546   9.450
 4958POPC   PO423580   7.394  41.552   9.150
 4958POPC   GL123581   7.422  41.607   8.850
 4958POPC   GL223582   7.317  41.704   8.850
 4958POPC   C1A23583   7.387  41.606   8.550
 4958POPC   D2A23584   7.453  41.592   8.250
 4958POPC   C3A23585   7.391  41.535   7.950
 4958POPC   C4A23586   7.403  41.530   7.650
 4958POPC   C1B23587   7.288  41.771   8.550
 4958POPC   C2B23588   7.255  41.780   8.250
 4958POPC   C3B23589   7.252  41.719   7.950
 4958POPC   C4B23590   7.236  41.716   7.650
 4959POPC   NC323591   4.309  24.461   9.450
 4959POPC   PO423592   4.351  24.452   9.150
 4959POPC   GL123593   4.284  24.513   8.850
 4959POPC   GL223594   4.332  24.341   8.850
 4959POPC   C1A23595   4.338  24.460   8.550
 4959POPC   D2A23596   4.359  24.518   8.250
 4959POPC   C3A23597   4.342  24.468   7.950
 4959POPC   C4A23598   4.347  24.505   7.650
 4959POPC   C1B23599   4.247  24.284   8.550
 4959POPC   C2B23600   4.249  24.198   8.250
 4959POPC   C3B23601   4.332  24.235   7.950
 4959POPC   C4B23602   4.266  24.246   7.650
 4960POPC   NC323603  17.536  42.289   9.450
 4960POPC   PO423604  17.473  42.376   9.150
 4960POPC   GL123605  17.496  42.373   8.850
 4960POPC   GL223606  17.605  42.380   8.850
 4960POPC   C1A23607  17.506  42.367   8.550
 4960POPC   D2A23608  17.518  42.365   8.250
 4960POPC   C3A23609  17.508  42.377   7.950
 4960POPC   C4A23610  17.528  42.289   7.650
 4960POPC   C1B23611  17.676  42.480   8.550
 4960POPC   C2B23612  17.741  42.431   8.250
 4960POPC   C3B23613  17.709  42.433   7.950
 4960POPC   C4B23614  17.719  42.478   7.650
 4961POPC   NC323615  44.649  33.004   9.450
 4961POPC   PO423616  44.679  33.041   9.150
 4961POPC   GL123617  44.693  33.040   8.850
 4961POPC   GL223618  44.799  32.968   8.850
 4961POPC   C1A23619  44.697  33.011   8.550
 4961POPC   D2A23620  44.614  32.981   8.250
 4961POPC   C3A23621  44.659  33.037   7.950
 4961POPC   C4A23622  44.638  33.057   7.650
 4961POPC   C1B23623  44.886  32.856   8.550
 4961POPC   C2B23624  44.879  32.880   8.250
 4961POPC   C3B23625  44.870  32.826   7.950
 4961POPC   C4B23626  44.827  32.826   7.650
 4962POPC   NC323627  28.385  22.907   9.450
 4962POPC   PO423628  28.340  22.969   9.150
 4962POPC   GL123629  28.323  22.903   8.850
 4962POPC   GL223630  28.403  22.812   8.850
 4962POPC   C1A23631  28.390  22.894   8.550
 4962POPC   D2A23632  28.405  22.928   8.250
 4962POPC   C3A23633  28.399  22.947   7.950
 4962POPC   C4A23634  28.335  22.982   7.650
 4962POPC   C1B23635  28.571  22.769   8.550
 4962POPC   C2B23636  28.566  22.775   8.250
 4962POPC   C3B23637  28.527  22.702   7.950
 4962POPC   C4B23638  28.562  22.779   7.650
 4963POPC   NC323639  39.202  17.511   9.450
 4963POPC   PO423640  39.187  17.484   9.150
 4963POPC   GL123641  39.192  17.520   8.850
 4963POPC   GL223642  39.274  17.663   8.850
 4963POPC   C1A23643  39.207  17.534   8.550
 4963POPC   D2A23644  39.218  17.505   8.250
 4963POPC   C3A23645  39.222  17.548   7.950
 4963POPC   C4A23646  39.238  17.499   7.650
 4963POPC   C1B23647  39.237  17.776   8.550
 4963POPC   C2B23648  39.265  17.737   8.250
 4963POPC   C3B23649  39.273  17.766   7.950
 4963POPC   C4B23650  39.260  17.765   7.650
 4964POPC   NC323651  14.379  33.801   9.450
 4964POPC   PO423652  14.412  33.839   9.150
 4964POPC   GL123653  14.354  33.847   8.850
 4964POPC   GL223654  14.489  33.718   8.850
 4964POPC   C1A23655  14.449  33.771   8.550
 4964POPC   D2A23656  14.381  33.841   8.250
 4964POPC   C3A23657  14.412  33.783   7.950
 4964POPC   C4A23658  14.370  33.759   7.650
 4964POPC   C1B23659  14.593  33.622   8.550
 4964POPC   C2B23660  14.607  33.677   8.250
 4964POPC   C3B23661  14.592  33.646   7.950
 4964POPC   C4B23662  14.638  33.670   7.650
 4965POPC   NC323663  24.454  16.709   9.450
 4965POPC   PO423664  24.496  16.743   9.150
 4965POPC   GL123665  24.470  16.718   8.850
 4965POPC   GL223666  24.596  16.810   8.850
 4965POPC   C1A23667  24.482  16.711   8.550
 4965POPC   D2A23668  24.510  16.720   8.250
 4965POPC   C3A23669  24.485  16.762   7.950
 4965POPC   C4A23670  24.475  16.701   7.650
 4965POPC   C1B23671  24.717  16.839   8.550
 4965POPC   C2B23672  24.738  16.829   8.250
 4965POPC   C3B23673  24.723  16.889   7.950
 4965POPC   C4B23674  24.675  16.858   7.650
 4966POPC   NC323675   2.769   8.204   9.450
 4966POPC   PO423676   2.748   8.161   9.150
 4966POPC   GL123677   2.790   8.199   8.850
 4966POPC   GL223678   2.753   8.290   8.850
 4966POPC   C1A23679   2.790   8.153   8.550
 4966POPC   D2A23680   2.815   8.159   8.250
 4966POPC   C3A23681   2.793   8.158   7.950
 4966POPC   C4A23682   2.771   8.168   7.650
 4966POPC   C1B23683   2.837   8.455   8.550
 4966POPC   C2B23684   2.792   8.484   8.250
 4966POPC   C3B23685   2.806   8.422   7.950
 4966POPC   C4B23686   2.821   8.455   7.650
 4967POPC   NC323687  40.017   1.241   9.450
 4967POPC   PO423688  40.030   1.263   9.150
 4967POPC   GL123689  40.038   1.196   8.850
 4967POPC   GL223690  40.015   1.348   8.850
 4967POPC   C1A23691  39.972   1.232   8.550
 4967POPC   D2A23692  39.976   1.169   8.250
 4967POPC   C3A23693  39.975   1.190   7.950
 4967POPC   C4A23694  39.964   1.232   7.650
 4967POPC   C1B23695  40.107   1.445   8.550
 4967POPC   C2B23696  40.055   1.406   8.250
 4967POPC   C3B23697  40.059   1.497   7.950
 4967POPC   C4B23698  40.045   1.496   7.650
 4968POPC   NC323699  10.502  20.648   9.450
 4968POPC   PO423700  10.557  20.626   9.150
 4968POPC   GL123701  10.572  20.622   8.850
 4968POPC   GL223702  10.503  20.664   8.850
 4968POPC   C1A23703  10.508  20.633   8.550
 4968POPC   D2A23704  10.483  20.593   8.250
 4968POPC   C3A23705  10.488  20.640   7.950
 4968POPC   C4A23706  10.507  20.640   7.650
 4968POPC   C1B23707  10.385  20.858   8.550
 4968POPC   C2B23708  10.398  20.828   8.250
 4968POPC   C3B23709  10.354  20.780   7.950
 4968POPC   C4B23710  10.336  20.819   7.650
 4969POPC   NC323711  21.337  26.821   9.450
 4969POPC   PO423712  21.428  26.849   9.150
 4969POPC   GL123713  21.372  26.783   8.850
 4969POPC   GL223714  21.309  26.887   8.850
 4969POPC   C1A23715  21.404  26.797   8.550
 4969POPC   D2A23716  21.413  26.805   8.250
 4969POPC   C3A23717  21.357  26.828   7.950
 4969POPC   C4A23718  21.388  26.864   7.650
 4969POPC   C1B23719  21.165  26.885   8.550
 4969POPC   C2B23720  21.192  26.866   8.250
 4969POPC   C3B23721  21.134  26.934   7.950
 4969POPC   C4B23722  21.147  26.856   7.650
 4970POPC   NC323723  34.601   3.536   9.450
 4970POPC   PO423724  34.555   3.512   9.150
 4970POPC   GL123725  34.538   3.568   8.850
 4970POPC   GL223726  34.476   3.588   8.850
 4970POPC   C1A23727  34.614   3.566   8.550
 4970POPC   D2A23728  34.609   3.537   8.250
 4970POPC   C3A23729  34.554   3.549   7.950
 4970POPC   C4A23730  34.582   3.579   7.650
 4970POPC   C1B23731  34.362   3.674   8.550
 4970POPC   C2B23732  34.428   3.740   8.250
 4970POPC   C3B23733  34.345   3.663   7.950
 4970POPC   C4B23734  34.371   3.686   7.650
 4971POPC   NC323735  26.028   4.305   9.450
 4971POPC   PO423736  26.047   4.348   9.150
 4971POPC   GL123737  26.066   4.354   8.850
 4971POPC   GL223738  26.076   4.409   8.850
 4971POPC   C1A23739  26.074   4.357   8.550
 4971POPC   D2A23740  26.021   4.326   8.250
 4971POPC   C3A23741  26.011   4.356   7.950
 4971POPC   C4A23742  26.044   4.305   7.650
 4971POPC   C1B23743  26.211   4.483   8.550
 4971POPC   C2B23744  26.142   4.561   8.250
 4971POPC   C3B23745  26.173   4.498   7.950
 4971POPC   C4B23746  26.206   4.526   7.650
 4972POPC   NC323747  29.140  42.340   9.450
 4972POPC   PO423748  29.132  42.364   9.150
 4972POPC   GL123749  29.176  42.296   8.850
 4972POPC   GL223750  29.054  42.375   8.850
 4972POPC   C1A23751  29.181  42.374   8.550
 4972POPC   D2A23752  29.151  42.287   8.250
 4972POPC   C3A23753  29.191  42.301   7.950
 4972POPC   C4A23754  29.161  42.360   7.650
 4972POPC   C1B23755  28.903  42.358   8.550
 4972POPC   C2B23756  28.866  42.389   8.250
 4972POPC   C3B23757  28.931  42.431   7.950
 4972POPC   C4B23758  28.907  42.436   7.650
 4973POPC   NC323759  39.190  35.325   9.450
 4973POPC   PO423760  39.248  35.371   9.150
 4973POPC   GL123761  39.237  35.319   8.850
 4973POPC   GL223762  39.356  35.413   8.850
 4973POPC   C1A23763  39.220  35.304   8.550
 4973POPC   D2A23764  39.263  35.398   8.250
 4973POPC   C3A23765  39.199  35.311   7.950
 4973POPC   C4A23766  39.242  35.336   7.650
 4973POPC   C1B23767  39.369  35.552   8.550
 4973POPC   C2B23768  39.374  35.580   8.250
 4973POPC   C3B23769  39.373  35.547   7.950
 4973POPC   C4B23770  39.373  35.486   7.650
 4974POPC   NC323771  38.430   3.528   9.450
 4974POPC   PO423772  38.444   3.552   9.150
 4974POPC   GL123773  38.485   3.512   8.850
 4974POPC   GL223774  38.383   3.612   8.850
 4974POPC   C1A23775  38.492   3.574   8.550
 4974POPC   D2A23776  38.459   3.503   8.250
 4974POPC   C3A23777  38.497   3.573   7.950
 4974POPC   C4A23778  38.472   3.550   7.650
 4974POPC   C1B23779  38.267   3.621   8.550
 4974POPC   C2B23780  38.219   3.666   8.250
 4974POPC   C3B23781  38.257   3.669   7.950
 4974POPC   C4B23782  38.189   3.641   7.650
 4975POPC   NC323783  30.675  14.382   9.450
 4975POPC   PO423784  30.665  14.362   9.150
 4975POPC   GL123785  30.705  14.382   8.850
 4975POPC   GL223786  30.610  14.342   8.850
 4975POPC   C1A23787  30.675  14.428   8.550
 4975POPC   D2A23788  30.721  14.414   8.250
 4975POPC   C3A23789  30.664  14.420   7.950
 4975POPC   C4A23790  30.692  14.359   7.650
 4975POPC   C1B23791  30.473  14.313   8.550
 4975POPC   C2B23792  30.484  14.299   8.250
 4975POPC   C3B23793  30.516  14.297   7.950
 4975POPC   C4B23794  30.515  14.263   7.650
 4976POPC   NC323795  11.270  11.253   9.450
 4976POPC   PO423796  11.346  11.312   9.150
 4976POPC   GL123797  11.320  11.336   8.850
 4976POPC   GL223798  11.350  11.215   8.850
 4976POPC   C1A23799  11.325  11.260   8.550
 4976POPC   D2A23800  11.330  11.337   8.250
 4976POPC   C3A23801  11.278  11.344   7.950
 4976POPC   C4A23802  11.260  11.275   7.650
 4976POPC   C1B23803  11.397  11.088   8.550
 4976POPC   C2B23804  11.322  11.085   8.250
 4976POPC   C3B23805  11.393  11.090   7.950
 4976POPC   C4B23806  11.373  11.050   7.650
 4977POPC   NC323807  29.902  30.717   9.450
 4977POPC   PO423808  29.896  30.678   9.150
 4977POPC   GL123809  29.926  30.735   8.850
 4977POPC   GL223810  29.886  30.607   8.850
 4977POPC   C1A23811  29.969  30.673   8.550
 4977POPC   D2A23812  29.944  30.668   8.250
 4977POPC   C3A23813  29.921  30.735   7.950
 4977POPC   C4A23814  29.885  30.662   7.650
 4977POPC   C1B23815  29.834  30.414   8.550
 4977POPC   C2B23816  29.835  30.440   8.250
 4977POPC   C3B23817  29.824  30.473   7.950
 4977POPC   C4B23818  29.849  30.508   7.650
 4978POPC   NC323819  22.909   5.137   9.450
 4978POPC   PO423820  22.935   5.117   9.150
 4978POPC   GL123821  22.975   5.058   8.850
 4978POPC   GL223822  23.068   5.111   8.850
 4978POPC   C1A23823  22.945   5.130   8.550
 4978POPC   D2A23824  22.939   5.088   8.250
 4978POPC   C3A23825  22.914   5.106   7.950
 4978POPC   C4A23826  22.929   5.117   7.650
 4978POPC   C1B23827  23.152   5.159   8.550
 4978POPC   C2B23828  23.206   5.158   8.250
 4978POPC   C3B23829  23.194   5.107   7.950
 4978POPC   C4B23830  23.208   5.190   7.650
 4979POPC   NC323831  27.640  14.422   9.450
 4979POPC   PO423832  27.601  14.418   9.150
 4979POPC   GL123833  27.641  14.389   8.850
 4979POPC   GL223834  27.607  14.469   8.850
 4979POPC   C1A23835  27.627  14.440   8.550
 4979POPC   D2A23836  27.544  14.361   8.250
 4979POPC   C3A23837  27.545  14.361   7.950
 4979POPC   C4A23838  27.640  14.437   7.650
 4979POPC   C1B23839  27.716  14.653   8.550
 4979POPC   C2B23840  27.743  14.631   8.250
 4979POPC   C3B23841  27.723  14.619   7.950
 4979POPC   C4B23842  27.711  14.662   7.650
 4980POPC   NC323843   3.497  25.287   9.450
 4980POPC   PO423844   3.563  25.275   9.150
 4980POPC   GL123845   3.588  25.312   8.850
 4980POPC   GL223846   3.484  25.193   8.850
 4980POPC   C1A23847   3.534  25.278   8.550
 4980POPC   D2A23848   3.493  25.219   8.250
 4980POPC   C3A23849   3.525  25.286   7.950
 4980POPC   C4A23850   3.518  25.315   7.650
 4980POPC   C1B23851   3.319  25.053   8.550
 4980POPC   C2B23852   3.342  25.097   8.250
 4980POPC   C3B23853   3.399  25.129   7.950
 4980POPC   C4B23854   3.347  25.051   7.650
 4981POPC   NC323855   3.545  17.474   9.450
 4981POPC   PO423856   3.548  17.500   9.150
 4981POPC   GL123857   3.569  17.473   8.850
 4981POPC   GL223858   3.447  17.452   8.850
 4981POPC   C1A23859   3.556  17.491   8.550
 4981POPC   D2A23860   3.582  17.544   8.250
 4981POPC   C3A23861   3.514  17.473   7.950
 4981POPC   C4A23862   3.507  17.550   7.650
 4981POPC   C1B23863   3.327  17.418   8.550
 4981POPC   C2B23864   3.315  17.403   8.250
 4981POPC   C3B23865   3.304  17.394   7.950
 4981POPC   C4B23866   3.315  17.352   7.650
 4982POPC   NC323867   8.196  16.715   9.450
 4982POPC   PO423868   8.195  16.713   9.150
 4982POPC   GL123869   8.156  16.701   8.850
 4982POPC   GL223870   8.071  16.594   8.850
 4982POPC   C1A23871   8.220  16.721   8.550
 4982POPC   D2A23872   8.185  16.769   8.250
 4982POPC   C3A23873   8.230  16.769   7.950
 4982POPC   C4A23874   8.181  16.738   7.650
 4982POPC   C1B23875   8.032  16.538   8.550
 4982POPC   C2B23876   7.986  16.535   8.250
 4982POPC   C3B23877   8.036  16.533   7.950
 4982POPC   C4B23878   7.990  16.512   7.650
 4983POPC   NC323879  40.821   2.809   9.450
 4983POPC   PO423880  40.777   2.755   9.150
 4983POPC   GL123881  40.741   2.766   8.850
 4983POPC   GL223882  40.883   2.767   8.850
 4983POPC   C1A23883  40.814   2.743   8.550
 4983POPC   D2A23884  40.826   2.767   8.250
 4983POPC   C3A23885  40.746   2.810   7.950
 4983POPC   C4A23886  40.809   2.804   7.650
 4983POPC   C1B23887  41.031   2.742   8.550
 4983POPC   C2B23888  40.989   2.781   8.250
 4983POPC   C3B23889  41.057   2.759   7.950
 4983POPC   C4B23890  41.013   2.779   7.650
 4984POPC   NC323891  33.038  14.398   9.450
 4984POPC   PO423892  32.989  14.438   9.150
 4984POPC   GL123893  32.996  14.399   8.850
 4984POPC   GL223894  33.117  14.371   8.850
 4984POPC   C1A23895  33.005  14.388   8.550
 4984POPC   D2A23896  33.056  14.400   8.250
 4984POPC   C3A23897  33.039  14.442   7.950
 4984POPC   C4A23898  32.988  14.443   7.650
 4984POPC   C1B23899  33.247  14.267   8.550
 4984POPC   C2B23900  33.299  14.267   8.250
 4984POPC   C3B23901  33.221  14.323   7.950
 4984POPC   C4B23902  33.210  14.317   7.650
 4985POPC   NC323903   6.610  29.955   9.450
 4985POPC   PO423904   6.632  29.904   9.150
 4985POPC   GL123905   6.612  29.931   8.850
 4985POPC   GL223906   6.597  29.842   8.850
 4985POPC   C1A23907   6.649  29.881   8.550
 4985POPC   D2A23908   6.617  29.889   8.250
 4985POPC   C3A23909   6.665  29.899   7.950
 4985POPC   C4A23910   6.675  29.933   7.650
 4985POPC   C1B23911   6.590  29.671   8.550
 4985POPC   C2B23912   6.616  29.698   8.250
 4985POPC   C3B23913   6.635  29.651   7.950
 4985POPC   C4B23914   6.572  29.675   7.650
 4986POPC   NC323915   8.165  18.249   9.450
 4986POPC   PO423916   8.188  18.298   9.150
 4986POPC   GL123917   8.241  18.321   8.850
 4986POPC   GL223918   8.231  18.119   8.850
 4986POPC   C1A23919   8.237  18.326   8.550
 4986POPC   D2A23920   8.209  18.257   8.250
 4986POPC   C3A23921   8.227  18.312   7.950
 4986POPC   C4A23922   8.192  18.256   7.650
 4986POPC   C1B23923   8.193  18.004   8.550
 4986POPC   C2B23924   8.175  17.992   8.250
 4986POPC   C3B23925   8.182  18.044   7.950
 4986POPC   C4B23926   8.235  18.052   7.650
 4987POPC   NC323927  17.554  12.069   9.450
 4987POPC   PO423928  17.489  12.059   9.150
 4987POPC   GL123929  17.511  12.051   8.850
 4987POPC   GL223930  17.444  12.182   8.850
 4987POPC   C1A23931  17.485  12.119   8.550
 4987POPC   D2A23932  17.472  12.035   8.250
 4987POPC   C3A23933  17.491  12.041   7.950
 4987POPC   C4A23934  17.555  12.092   7.650
 4987POPC   C1B23935  17.289  12.217   8.550
 4987POPC   C2B23936  17.323  12.289   8.250
 4987POPC   C3B23937  17.319  12.240   7.950
 4987POPC   C4B23938  17.291  12.295   7.650
 4988POPC   NC323939  17.538   1.950   9.450
 4988POPC   PO423940  17.496   1.949   9.150
 4988POPC   GL123941  17.514   2.001   8.850
 4988POPC   GL223942  17.498   2.151   8.850
 4988POPC   C1A23943  17.492   1.944   8.550
 4988POPC   D2A23944  17.469   2.030   8.250
 4988POPC   C3A23945  17.514   1.979   7.950
 4988POPC   C4A23946  17.500   1.997   7.650
 4988POPC   C1B23947  17.554   2.220   8.550
 4988POPC   C2B23948  17.495   2.236   8.250
 4988POPC   C3B23949  17.528   2.263   7.950
 4988POPC   C4B23950  17.570   2.251   7.650
 4989POPC   NC323951  12.877  16.698   9.450
 4989POPC   PO423952  12.817  16.744   9.150
 4989POPC   GL123953  12.804  16.716   8.850
 4989POPC   GL223954  12.864  16.817   8.850
 4989POPC   C1A23955  12.808  16.765   8.550
 4989POPC   D2A23956  12.817  16.720   8.250
 4989POPC   C3A23957  12.868  16.701   7.950
 4989POPC   C4A23958  12.807  16.706   7.650
 4989POPC   C1B23959  12.810  17.006   8.550
 4989POPC   C2B23960  12.821  16.975   8.250
 4989POPC   C3B23961  12.808  16.984   7.950
 4989POPC   C4B23962  12.837  16.992   7.650
 4990POPC   NC323963  11.279  27.602   9.450
 4990POPC   PO423964  11.263  27.614   9.150
 4990POPC   GL123965  11.305  27.573   8.850
 4990POPC   GL223966  11.179  27.504   8.850
 4990POPC   C1A23967  11.276  27.567   8.550
 4990POPC   D2A23968  11.329  27.591   8.250
 4990POPC   C3A23969  11.250  27.558   7.950
 4990POPC   C4A23970  11.273  27.629   7.650
 4990POPC   C1B23971  11.107  27.470   8.550
 4990POPC   C2B23972  11.080  27.465   8.250
 4990POPC   C3B23973  11.094  27.539   7.950
 4990POPC   C4B23974  11.075  27.485   7.650
 4991POPC   NC323975  29.944  38.430   9.450
 4991POPC   PO423976  29.969  38.496   9.150
 4991POPC   GL123977  29.951  38.463   8.850
 4991POPC   GL223978  29.847  38.532   8.850
 4991POPC   C1A23979  29.886  38.419   8.550
 4991POPC   D2A23980  29.940  38.467   8.250
 4991POPC   C3A23981  29.934  38.435   7.950
 4991POPC   C4A23982  29.941  38.472   7.650
 4991POPC   C1B23983  29.737  38.607   8.550
 4991POPC   C2B23984  29.674  38.623   8.250
 4991POPC   C3B23985  29.680  38.632   7.950
 4991POPC   C4B23986  29.677  38.566   7.650
 4992POPC   NC323987   0.436  29.126   9.450
 4992POPC   PO423988   0.466  29.179   9.150
 4992POPC   GL123989   0.426  29.152   8.850
 4992POPC   GL223990   0.549  29.117   8.850
 4992POPC   C1A23991   0.484  29.123   8.550
 4992POPC   D2A23992   0.429  29.177   8.250
 4992POPC   C3A23993   0.452  29.148   7.950
 4992POPC   C4A23994   0.432  29.133   7.650
 4992POPC   C1B23995   0.634  29.068   8.550
 4992POPC   C2B23996   0.666  29.072   8.250
 4992POPC   C3B23997   0.646  29.039   7.950
 4992POPC   C4B23998   0.676  29.044   7.650
 4993POPC   NC323999   1.204  30.677   9.450
 4993POPC   PO424000   1.171  30.728   9.150
 4993POPC   GL124001   1.239  30.724   8.850
 4993POPC   GL224002   1.352  30.621   8.850
 4993POPC   C1A24003   1.240  30.654   8.550
 4993POPC   D2A24004   1.205  30.677   8.250
 4993POPC   C3A24005   1.239  30.657   7.950
 4993POPC   C4A24006   1.261  30.696   7.650
 4993POPC   C1B24007   1.479  30.598   8.550
 4993POPC   C2B24008   1.488  30.588   8.250
 4993POPC   C3B24009   1.443  30.566   7.950
 4993POPC   C4B24010   1.411  30.643   7.650
 4994POPC   NC324011  16.761  15.982   9.450
 4994POPC   PO424012  16.713  15.961   9.150
 4994POPC   GL124013  16.737  15.939   8.850
 4994POPC   GL224014  16.782  15.857   8.850
 4994POPC   C1A24015  16.744  15.992   8.550
 4994POPC   D2A24016  16.681  15.946   8.250
 4994POPC   C3A24017  16.689  16.000   7.950
 4994POPC   C4A24018  16.697  15.921   7.650
 4994POPC   C1B24019  16.784  15.684   8.550
 4994POPC   C2B24020  16.783  15.703   8.250
 4994POPC   C3B24021  16.756  15.715   7.950
 4994POPC   C4B24022  16.798  15.669   7.650
 4995POPC   NC324023  33.041  22.942   9.450
 4995POPC   PO424024  33.056  22.888   9.150
 4995POPC   GL124025  33.028  22.899   8.850
 4995POPC   GL224026  32.940  22.998   8.850
 4995POPC   C1A24027  33.000  22.899   8.550
 4995POPC   D2A24028  33.040  22.920   8.250
 4995POPC   C3A24029  33.034  22.904   7.950
 4995POPC   C4A24030  32.989  22.892   7.650
 4995POPC   C1B24031  32.807  22.957   8.550
 4995POPC   C2B24032  32.756  22.979   8.250
 4995POPC   C3B24033  32.731  22.942   7.950
 4995POPC   C4B24034  32.738  22.968   7.650
 4996POPC   NC324035   5.086  33.029   9.450
 4996POPC   PO424036   5.134  33.018   9.150
 4996POPC   GL124037   5.051  32.991   8.850
 4996POPC   GL224038   5.089  33.104   8.850
 4996POPC   C1A24039   5.142  33.068   8.550
 4996POPC   D2A24040   5.063  32.984   8.250
 4996POPC   C3A24041   5.114  33.056   7.950
 4996POPC   C4A24042   5.066  33.068   7.650
 4996POPC   C1B24043   5.034  33.282   8.550
 4996POPC   C2B24044   4.970  33.213   8.250
 4996POPC   C3B24045   5.041  33.261   7.950
 4996POPC   C4B24046   4.978  33.300   7.650
 4997POPC   NC324047  33.816  37.711   9.450
 4997POPC   PO424048  33.774  37.664   9.150
 4997POPC   GL124049  33.847  37.653   8.850
 4997POPC   GL224050  33.939  37.730   8.850
 4997POPC   C1A24051  33.785  37.654   8.550
 4997POPC   D2A24052  33.804  37.728   8.250
 4997POPC   C3A24053  33.793  37.697   7.950
 4997POPC   C4A24054  33.757  37.704   7.650
 4997POPC   C1B24055  33.998  37.858   8.550
 4997POPC   C2B24056  33.965  37.849   8.250
 4997POPC   C3B24057  33.980  37.841   7.950
 4997POPC   C4B24058  33.939  37.832   7.650
 4998POPC   NC324059  22.922  42.314   9.450
 4998POPC   PO424060  22.956  42.319   9.150
 4998POPC   GL124061  22.928  42.354   8.850
 4998POPC   GL224062  23.110  42.401   8.850
 4998POPC   C1A24063  22.929  42.290   8.550
 4998POPC   D2A24064  22.935  42.299   8.250
 4998POPC   C3A24065  22.905  42.349   7.950
 4998POPC   C4A24066  22.943  42.287   7.650
 4998POPC   C1B24067  23.140  42.364   8.550
 4998POPC   C2B24068  23.196  42.369   8.250
 4998POPC   C3B24069  23.228  42.410   7.950
 4998POPC   C4B24070  23.234  42.330   7.650
 4999POPC   NC324071  35.316   5.875   9.450
 4999POPC   PO424072  35.326   5.819   9.150
 4999POPC   GL124073  35.347   5.889   8.850
 4999POPC   GL224074  35.495   5.943   8.850
 4999POPC   C1A24075  35.305   5.855   8.550
 4999POPC   D2A24076  35.308   5.881   8.250
 4999POPC   C3A24077  35.348   5.869   7.950
 4999POPC   C4A24078  35.326   5.835   7.650
 4999POPC   C1B24079  35.539   5.976   8.550
 4999POPC   C2B24080  35.593   6.036   8.250
 4999POPC   C3B24081  35.593   6.039   7.950
 4999POPC   C4B24082  35.515   5.980   7.650
 5000POPC   NC324083  39.996  32.283   9.450
 5000POPC   PO424084  40.005  32.212   9.150
 5000POPC   GL124085  39.991  32.263   8.850
 5000POPC   GL224086  40.058  32.172   8.850
 5000POPC   C1A24087  40.032  32.292   8.550
 5000POPC   D2A24088  40.016  32.254   8.250
 5000POPC   C3A24089  40.006  32.294   7.950
 5000POPC   C4A24090  39.966  32.256   7.650
 5000POPC   C1B24091  40.118  31.999   8.550
 5000POPC   C2B24092  40.141  32.048   8.250
 5000POPC   C3B24093  40.070  32.013   7.950
 5000POPC   C4B24094  40.111  32.000   7.650
 5001POPC   NC324095  31.437  15.913   9.450
 5001POPC   PO424096  31.521  15.965   9.150
 5001POPC   GL124097  31.432  15.984   8.850
 5001POPC   GL224098  31.505  15.823   8.850
 5001POPC   C1A24099  31.505  15.923   8.550
 5001POPC   D2A24100  31.499  15.978   8.250
 5001POPC   C3A24101  31.506  15.980   7.950
 5001POPC   C4A24102  31.454  16.004   7.650
 5001POPC   C1B24103  31.625  15.698   8.550
 5001POPC   C2B24104  31.593  15.713   8.250
 5001POPC   C3B24105  31.554  15.706   7.950
 5001POPC   C4B24106  31.556  15.744   7.650
 5002POPC   NC324107  24.461  40.026   9.450
 5002POPC   PO424108  24.447  40.043   9.150
 5002POPC   GL124109  24.481  39.991   8.850
 5002POPC   GL224110  24.535  40.172   8.850
 5002POPC   C1A24111  24.444  39.975   8.550
 5002POPC   D2A24112  24.512  40.027   8.250
 5002POPC   C3A24113  24.470  39.970   7.950
 5002POPC   C4A24114  24.462  39.985   7.650
 5002POPC   C1B24115  24.482  40.218   8.550
 5002POPC   C2B24116  24.528  40.303   8.250
 5002POPC   C3B24117  24.541  40.281   7.950
 5002POPC   C4B24118  24.479  40.299   7.650
 5003POPC   NC324119  41.516   6.672   9.450
 5003POPC   PO424120  41.591   6.608   9.150
 5003POPC   GL124121  41.579   6.608   8.850
 5003POPC   GL224122  41.395   6.631   8.850
 5003POPC   C1A24123  41.581   6.687   8.550
 5003POPC   D2A24124  41.564   6.628   8.250
 5003POPC   C3A24125  41.573   6.631   7.950
 5003POPC   C4A24126  41.530   6.691   7.650
 5003POPC   C1B24127  41.289   6.694   8.550
 5003POPC   C2B24128  41.325   6.738   8.250
 5003POPC   C3B24129  41.308   6.730   7.950
 5003POPC   C4B24130  41.279   6.759   7.650
 5004POPC   NC324131  12.075  15.158   9.450
 5004POPC   PO424132  12.100  15.130   9.150
 5004POPC   GL124133  12.068  15.200   8.850
 5004POPC   GL224134  12.222  15.089   8.850
 5004POPC   C1A24135  12.054  15.176   8.550
 5004POPC   D2A24136  12.093  15.135   8.250
 5004POPC   C3A24137  12.083  15.217   7.950
 5004POPC   C4A24138  12.038  15.186   7.650
 5004POPC   C1B24139  12.280  15.126   8.550
 5004POPC   C2B24140  12.305  15.058   8.250
 5004POPC   C3B24141  12.338  15.094   7.950
 5004POPC   C4B24142  12.314  15.045   7.650
 5005POPC   NC324143  34.617  33.021   9.450
 5005POPC   PO424144  34.598  33.014   9.150
 5005POPC   GL124145  34.613  33.030   8.850
 5005POPC   GL224146  34.666  33.015   8.850
 5005POPC   C1A24147  34.605  33.000   8.550
 5005POPC   D2A24148  34.601  33.038   8.250
 5005POPC   C3A24149  34.583  33.063   7.950
 5005POPC   C4A24150  34.554  33.013   7.650
 5005POPC   C1B24151  34.776  33.085   8.550
 5005POPC   C2B24152  34.860  33.058   8.250
 5005POPC   C3B24153  34.832  33.029   7.950
 5005POPC   C4B24154  34.861  33.044   7.650
 5006POPC   NC324155   9.753  35.316   9.450
 5006POPC   PO424156   9.787  35.332   9.150
 5006POPC   GL124157   9.744  35.307   8.850
 5006POPC   GL224158   9.918  35.383   8.850
 5006POPC   C1A24159   9.782  35.336   8.550
 5006POPC   D2A24160   9.701  35.394   8.250
 5006POPC   C3A24161   9.748  35.399   7.950
 5006POPC   C4A24162   9.707  35.376   7.650
 5006POPC   C1B24163  10.020  35.421   8.550
 5006POPC   C2B24164  10.029  35.361   8.250
 5006POPC   C3B24165  10.036  35.447   7.950
 5006POPC   C4B24166   9.949  35.379   7.650
 5007POPC   NC324167  11.261  17.506   9.450
 5007POPC   PO424168  11.299  17.501   9.150
 5007POPC   GL124169  11.271  17.502   8.850
 5007POPC   GL224170  11.408  17.534   8.850
 5007POPC   C1A24171  11.323  17.463   8.550
 5007POPC   D2A24172  11.329  17.507   8.250
 5007POPC   C3A24173  11.342  17.506   7.950
 5007POPC   C4A24174  11.299  17.491   7.650
 5007POPC   C1B24175  11.505  17.538   8.550
 5007POPC   C2B24176  11.554  17.562   8.250
 5007POPC   C3B24177  11.511  17.596   7.950
 5007POPC   C4B24178  11.495  17.543   7.650
 5008POPC   NC324179  42.312  40.008   9.450
 5008POPC   PO424180  42.317  40.016   9.150
 5008POPC   GL124181  42.331  40.056   8.850
 5008POPC   GL224182  42.185  40.050   8.850
 5008POPC   C1A24183  42.376  39.966   8.550
 5008POPC   D2A24184  42.311  39.966   8.250
 5008POPC   C3A24185  42.346  39.978   7.950
 5008POPC   C4A24186  42.330  40.053   7.650
 5008POPC   C1B24187  42.071  40.102   8.550
 5008POPC   C2B24188  42.127  40.086   8.250
 5008POPC   C3B24189  42.079  40.102   7.950
 5008POPC   C4B24190  42.152  40.085   7.650
 5009POPC   NC324191  29.097   9.709   9.450
 5009POPC   PO424192  29.175   9.788   9.150
 5009POPC   GL124193  29.174   9.710   8.850
 5009POPC   GL224194  29.278   9.820   8.850
 5009POPC   C1A24195  29.123   9.758   8.550
 5009POPC   D2A24196  29.107   9.701   8.250
 5009POPC   C3A24197  29.099   9.793   7.950
 5009POPC   C4A24198  29.131   9.795   7.650
 5009POPC   C1B24199  29.428   9.795   8.550
 5009POPC   C2B24200  29.382   9.801   8.250
 5009POPC   C3B24201  29.363   9.798   7.950
 5009POPC   C4B24202  29.400   9.837   7.650
 5010POPC   NC324203  35.336  12.073   9.450
 5010POPC   PO424204  35.387  12.113   9.150
 5010POPC   GL124205  35.356  12.069   8.850
 5010POPC   GL224206  35.415  12.206   8.850
 5010POPC   C1A24207  35.352  12.045   8.550
 5010POPC   D2A24208  35.343  12.093   8.250
 5010POPC   C3A24209  35.329  12.079   7.950
 5010POPC   C4A24210  35.351  12.098   7.650
 5010POPC   C1B24211  35.473  12.288   8.550
 5010POPC   C2B24212  35.520  12.229   8.250
 5010POPC   C3B24213  35.470  12.299   7.950
 5010POPC   C4B24214  35.463  12.320   7.650
 5011POPC   NC324215  40.733  38.483   9.450
 5011POPC   PO424216  40.816  38.431   9.150
 5011POPC   GL124217  40.813  38.489   8.850
 5011POPC   GL224218  40.695  38.589   8.850
 5011POPC   C1A24219  40.803  38.444   8.550
 5011POPC   D2A24220  40.826  38.445   8.250
 5011POPC   C3A24221  40.804  38.473   7.950
 5011POPC   C4A24222  40.745  38.451   7.650
 5011POPC   C1B24223  40.635  38.683   8.550
 5011POPC   C2B24224  40.623  38.673   8.250
 5011POPC   C3B24225  40.591  38.667   7.950
 5011POPC   C4B24226  40.616  38.591   7.650
 5012POPC   NC324227   5.880   5.135   9.450
 5012POPC   PO424228   5.836   5.050   9.150
 5012POPC   GL124229   5.889   5.091   8.850
 5012POPC   GL224230   5.781   5.236   8.850
 5012POPC   C1A24231   5.896   5.142   8.550
 5012POPC   D2A24232   5.888   5.118   8.250
 5012POPC   C3A24233   5.886   5.136   7.950
 5012POPC   C4A24234   5.854   5.130   7.650
 5012POPC   C1B24235   5.740   5.303   8.550
 5012POPC   C2B24236   5.728   5.290   8.250
 5012POPC   C3B24237   5.713   5.281   7.950
 5012POPC   C4B24238   5.709   5.264   7.650
 5013POPC   NC324239  10.565  28.348   9.450
 5013POPC   PO424240  10.528  28.357   9.150
 5013POPC   GL124241  10.530  28.343   8.850
 5013POPC   GL224242  10.620  28.399   8.850
 5013POPC   C1A24243  10.573  28.328   8.550
 5013POPC   D2A24244  10.531  28.348   8.250
 5013POPC   C3A24245  10.556  28.372   7.950
 5013POPC   C4A24246  10.479  28.398   7.650
 5013POPC   C1B24247  10.753  28.527   8.550
 5013POPC   C2B24248  10.690  28.484   8.250
 5013POPC   C3B24249  10.717  28.547   7.950
 5013POPC   C4B24250  10.750  28.551   7.650
 5014POPC   NC324251   5.895  37.655   9.450
 5014POPC   PO424252   5.847  37.689   9.150
 5014POPC   GL124253   5.899  37.675   8.850
 5014POPC   GL224254   5.734  37.612   8.850
 5014POPC   C1A24255   5.846  37.699   8.550
 5014POPC   D2A24256   5.904  37.657   8.250
 5014POPC   C3A24257   5.824  37.678   7.950
 5014POPC   C4A24258   5.857  37.652   7.650
 5014POPC   C1B24259   5.676  37.517   8.550
 5014POPC   C2B24260   5.676  37.530   8.250
 5014POPC   C3B24261   5.650  37.570   7.950
 5014POPC   C4B24262   5.651  37.607   7.650
 5015POPC   NC324263  19.086  40.781   9.450
 5015POPC   PO424264  19.026  40.800   9.150
 5015POPC   GL124265  19.029  40.817   8.850
 5015POPC   GL224266  19.212  40.864   8.850
 5015POPC   C1A24267  19.024  40.757   8.550
 5015POPC   D2A24268  19.025  40.803   8.250
 5015POPC   C3A24269  19.033  40.760   7.950
 5015POPC   C4A24270  19.055  40.736   7.650
 5015POPC   C1B24271  19.284  40.882   8.550
 5015POPC   C2B24272  19.259  40.909   8.250
 5015POPC   C3B24273  19.256  40.895   7.950
 5015POPC   C4B24274  19.268  40.881   7.650
 5016POPC   NC324275  41.574  11.346   9.450
 5016POPC   PO424276  41.597  11.304   9.150
 5016POPC   GL124277  41.522  11.254   8.850
 5016POPC   GL224278  41.385  11.294   8.850
 5016POPC   C1A24279  41.570  11.330   8.550
 5016POPC   D2A24280  41.546  11.331   8.250
 5016POPC   C3A24281  41.593  11.261   7.950
 5016POPC   C4A24282  41.564  11.337   7.650
 5016POPC   C1B24283  41.294  11.350   8.550
 5016POPC   C2B24284  41.289  11.354   8.250
 5016POPC   C3B24285  41.313  11.338   7.950
 5016POPC   C4B24286  41.277  11.310   7.650
 5017POPC   NC324287  38.406  35.310   9.450
 5017POPC   PO424288  38.459  35.304   9.150
 5017POPC   GL124289  38.448  35.315   8.850
 5017POPC   GL224290  38.378  35.433   8.850
 5017POPC   C1A24291  38.409  35.340   8.550
 5017POPC   D2A24292  38.475  35.389   8.250
 5017POPC   C3A24293  38.417  35.322   7.950
 5017POPC   C4A24294  38.432  35.330   7.650
 5017POPC   C1B24295  38.274  35.538   8.550
 5017POPC   C2B24296  38.260  35.571   8.250
 5017POPC   C3B24297  38.324  35.551   7.950
 5017POPC   C4B24298  38.290  35.495   7.650
 5018POPC   NC324299   5.072  19.091   9.450
 5018POPC   PO424300   5.138  19.029   9.150
 5018POPC   GL124301   5.119  19.039   8.850
 5018POPC   GL224302   4.980  18.929   8.850
 5018POPC   C1A24303   5.068  19.071   8.550
 5018POPC   D2A24304   5.112  19.092   8.250
 5018POPC   C3A24305   5.113  19.010   7.950
 5018POPC   C4A24306   5.095  19.106   7.650
 5018POPC   C1B24307   4.939  18.832   8.550
 5018POPC   C2B24308   4.877  18.894   8.250
 5018POPC   C3B24309   4.974  18.869   7.950
 5018POPC   C4B24310   4.885  18.827   7.650
 5019POPC   NC324311  38.428  30.705   9.450
 5019POPC   PO424312  38.489  30.716   9.150
 5019POPC   GL124313  38.408  30.667   8.850
 5019POPC   GL224314  38.548  30.832   8.850
 5019POPC   C1A24315  38.417  30.682   8.550
 5019POPC   D2A24316  38.439  30.696   8.250
 5019POPC   C3A24317  38.454  30.691   7.950
 5019POPC   C4A24318  38.421  30.654   7.650
 5019POPC   C1B24319  38.647  30.889   8.550
 5019POPC   C2B24320  38.636  30.851   8.250
 5019POPC   C3B24321  38.644  30.865   7.950
 5019POPC   C4B24322  38.638  30.860   7.650
 5020POPC   NC324323  29.950  23.704   9.450
 5020POPC   PO424324  29.907  23.669   9.150
 5020POPC   GL124325  29.880  23.719   8.850
 5020POPC   GL224326  30.037  23.709   8.850
 5020POPC   C1A24327  29.899  23.740   8.550
 5020POPC   D2A24328  29.884  23.690   8.250
 5020POPC   C3A24329  29.883  23.743   7.950
 5020POPC   C4A24330  29.918  23.763   7.650
 5020POPC   C1B24331  30.124  23.593   8.550
 5020POPC   C2B24332  30.132  23.602   8.250
 5020POPC   C3B24333  30.105  23.624   7.950
 5020POPC   C4B24334  30.131  23.623   7.650
 5021POPC   NC324335  37.674  19.876   9.450
 5021POPC   PO424336  37.712  19.843   9.150
 5021POPC   GL124337  37.666  19.803   8.850
 5021POPC   GL224338  37.679  19.910   8.850
 5021POPC   C1A24339  37.673  19.855   8.550
 5021POPC   D2A24340  37.668  19.820   8.250
 5021POPC   C3A24341  37.712  19.789   7.950
 5021POPC   C4A24342  37.673  19.836   7.650
 5021POPC   C1B24343  37.607  20.123   8.550
 5021POPC   C2B24344  37.648  20.079   8.250
 5021POPC   C3B24345  37.619  20.033   7.950
 5021POPC   C4B24346  37.647  20.105   7.650
 5022POPC   NC324347   0.415  22.189   9.450
 5022POPC   PO424348   0.482  22.122   9.150
 5022POPC   GL124349   0.431  22.116   8.850
 5022POPC   GL224350   0.283  22.062   8.850
 5022POPC   C1A24351   0.412  22.162   8.550
 5022POPC   D2A24352   0.449  22.127   8.250
 5022POPC   C3A24353   0.488  22.123   7.950
 5022POPC   C4A24354   0.458  22.204   7.650
 5022POPC   C1B24355   0.192  22.007   8.550
 5022POPC   C2B24356   0.222  22.054   8.250
 5022POPC   C3B24357   0.268  22.009   7.950
 5022POPC   C4B24358   0.201  22.047   7.650
 5023POPC   NC324359   9.732   1.996   9.450
 5023POPC   PO424360   9.755   1.949   9.150
 5023POPC   GL124361   9.771   2.017   8.850
 5023POPC   GL224362   9.718   1.835   8.850
 5023POPC   C1A24363   9.704   1.967   8.550
 5023POPC   D2A24364   9.759   1.941   8.250
 5023POPC   C3A24365   9.783   2.017   7.950
 5023POPC   C4A24366   9.737   2.009   7.650
 5023POPC   C1B24367   9.715   1.690   8.550
 5023POPC   C2B24368   9.746   1.741   8.250
 5023POPC   C3B24369   9.733   1.782   7.950
 5023POPC   C4B24370   9.733   1.723   7.650
 5024POPC   NC324371  39.184   2.747   9.450
 5024POPC   PO424372  39.250   2.735   9.150
 5024POPC   GL124373  39.271   2.765   8.850
 5024POPC   GL224374  39.148   2.753   8.850
 5024POPC   C1A24375  39.205   2.732   8.550
 5024POPC   D2A24376  39.220   2.755   8.250
 5024POPC   C3A24377  39.280   2.783   7.950
 5024POPC   C4A24378  39.186   2.750   7.650
 5024POPC   C1B24379  38.955   2.783   8.550
 5024POPC   C2B24380  38.937   2.752   8.250
 5024POPC   C3B24381  38.988   2.824   7.950
 5024POPC   C4B24382  39.014   2.842   7.650
 5025POPC   NC324383  29.962   7.462   9.450
 5025POPC   PO424384  29.893   7.434   9.150
 5025POPC   GL124385  29.959   7.461   8.850
 5025POPC   GL224386  29.790   7.440   8.850
 5025POPC   C1A24387  29.907   7.432   8.550
 5025POPC   D2A24388  29.894   7.448   8.250
 5025POPC   C3A24389  29.897   7.464   7.950
 5025POPC   C4A24390  29.884   7.401   7.650
 5025POPC   C1B24391  29.705   7.447   8.550
 5025POPC   C2B24392  29.634   7.454   8.250
 5025POPC   C3B24393  29.725   7.477   7.950
 5025POPC   C4B24394  29.674   7.504   7.650
 5026POPC   NC324395  40.805  17.489   9.450
 5026POPC   PO424396  40.769  17.482   9.150
 5026POPC   GL124397  40.817  17.515   8.850
 5026POPC   GL224398  40.881  17.502   8.850
 5026POPC   C1A24399  40.784  17.484   8.550
 5026POPC   D2A24400  40.797  17.552   8.250
 5026POPC   C3A24401  40.832  17.548   7.950
 5026POPC   C4A24402  40.825  17.482   7.650
 5026POPC   C1B24403  41.020  17.530   8.550
 5026POPC   C2B24404  41.017  17.489   8.250
 5026POPC   C3B24405  41.003  17.559   7.950
 5026POPC   C4B24406  41.014  17.480   7.650
 5027POPC   NC324407  34.596  39.996   9.450
 5027POPC   PO424408  34.550  40.006   9.150
 5027POPC   GL124409  34.623  40.042   8.850
 5027POPC   GL224410  34.680  39.877   8.850
 5027POPC   C1A24411  34.575  39.995   8.550
 5027POPC   D2A24412  34.562  39.983   8.250
 5027POPC   C3A24413  34.616  40.002   7.950
 5027POPC   C4A24414  34.588  40.026   7.650
 5027POPC   C1B24415  34.766  39.845   8.550
 5027POPC   C2B24416  34.751  39.867   8.250
 5027POPC   C3B24417  34.718  39.808   7.950
 5027POPC   C4B24418  34.777  39.834   7.650
 5028POPC   NC324419  28.404   9.753   9.450
 5028POPC   PO424420  28.364   9.761   9.150
 5028POPC   GL124421  28.347   9.708   8.850
 5028POPC   GL224422  28.473   9.832   8.850
 5028POPC   C1A24423  28.351   9.724   8.550
 5028POPC   D2A24424  28.417   9.729   8.250
 5028POPC   C3A24425  28.349   9.714   7.950
 5028POPC   C4A24426  28.320   9.754   7.650
 5028POPC   C1B24427  28.632   9.906   8.550
 5028POPC   C2B24428  28.572   9.882   8.250
 5028POPC   C3B24429  28.585   9.905   7.950
 5028POPC   C4B24430  28.638   9.889   7.650
 5029POPC   NC324431  30.686  30.695   9.450
 5029POPC   PO424432  30.730  30.705   9.150
 5029POPC   GL124433  30.659  30.698   8.850
 5029POPC   GL224434  30.599  30.721   8.850
 5029POPC   C1A24435  30.674  30.739   8.550
 5029POPC   D2A24436  30.737  30.650   8.250
 5029POPC   C3A24437  30.690  30.657   7.950
 5029POPC   C4A24438  30.744  30.664   7.650
 5029POPC   C1B24439  30.494  30.714   8.550
 5029POPC   C2B24440  30.434  30.702   8.250
 5029POPC   C3B24441  30.472  30.728   7.950
 5029POPC   C4B24442  30.417  30.719   7.650
 5030POPC   NC324443   7.382   1.188   9.450
 5030POPC   PO424444   7.463   1.174   9.150
 5030POPC   GL124445   7.434   1.255   8.850
 5030POPC   GL224446   7.498   1.299   8.850
 5030POPC   C1A24447   7.380   1.191   8.550
 5030POPC   D2A24448   7.390   1.258   8.250
 5030POPC   C3A24449   7.429   1.256   7.950
 5030POPC   C4A24450   7.408   1.168   7.650
 5030POPC   C1B24451   7.513   1.424   8.550
 5030POPC   C2B24452   7.537   1.445   8.250
 5030POPC   C3B24453   7.485   1.419   7.950
 5030POPC   C4B24454   7.578   1.465   7.650
 5031POPC   NC324455  10.552  38.432   9.450
 5031POPC   PO424456  10.489  38.448   9.150
 5031POPC   GL124457  10.514  38.419   8.850
 5031POPC   GL224458  10.379  38.360   8.850
 5031POPC   C1A24459  10.503  38.415   8.550
 5031POPC   D2A24460  10.569  38.414   8.250
 5031POPC   C3A24461  10.513  38.443   7.950
 5031POPC   C4A24462  10.540  38.456   7.650
 5031POPC   C1B24463  10.334  38.331   8.550
 5031POPC   C2B24464  10.274  38.324   8.250
 5031POPC   C3B24465  10.269  38.386   7.950
 5031POPC   C4B24466  10.326  38.325   7.650
 5032POPC   NC324467  39.190  19.854   9.450
 5032POPC   PO424468  39.260  19.814   9.150
 5032POPC   GL124469  39.248  19.867   8.850
 5032POPC   GL224470  39.237  19.717   8.850
 5032POPC   C1A24471  39.193  19.882   8.550
 5032POPC   D2A24472  39.215  19.787   8.250
 5032POPC   C3A24473  39.220  19.828   7.950
 5032POPC   C4A24474  39.233  19.790   7.650
 5032POPC   C1B24475  39.194  19.629   8.550
 5032POPC   C2B24476  39.162  19.544   8.250
 5032POPC   C3B24477  39.186  19.600   7.950
 5032POPC   C4B24478  39.183  19.603   7.650
 5033POPC   NC324479  24.449  17.472   9.450
 5033POPC   PO424480  24.498  17.499   9.150
 5033POPC   GL124481  24.534  17.459   8.850
 5033POPC   GL224482  24.343  17.496   8.850
 5033POPC   C1A24483  24.518  17.513   8.550
 5033POPC   D2A24484  24.508  17.533   8.250
 5033POPC   C3A24485  24.521  17.544   7.950
 5033POPC   C4A24486  24.491  17.511   7.650
 5033POPC   C1B24487  24.295  17.473   8.550
 5033POPC   C2B24488  24.243  17.487   8.250
 5033POPC   C3B24489  24.248  17.430   7.950
 5033POPC   C4B24490  24.254  17.471   7.650
 5034POPC   NC324491  22.900  16.746   9.450
 5034POPC   PO424492  22.918  16.693   9.150
 5034POPC   GL124493  22.971  16.689   8.850
 5034POPC   GL224494  23.018  16.679   8.850
 5034POPC   C1A24495  22.945  16.736   8.550
 5034POPC   D2A24496  22.912  16.745   8.250
 5034POPC   C3A24497  22.961  16.740   7.950
 5034POPC   C4A24498  22.968  16.734   7.650
 5034POPC   C1B24499  23.167  16.606   8.550
 5034POPC   C2B24500  23.168  16.568   8.250
 5034POPC   C3B24501  23.152  16.616   7.950
 5034POPC   C4B24502  23.079  16.593   7.650
 5035POPC   NC324503  16.005  18.283   9.450
 5035POPC   PO424504  16.003  18.249   9.150
 5035POPC   GL124505  15.984  18.235   8.850
 5035POPC   GL224506  15.831  18.323   8.850
 5035POPC   C1A24507  15.917  18.326   8.550
 5035POPC   D2A24508  15.925  18.280   8.250
 5035POPC   C3A24509  15.998  18.240   7.950
 5035POPC   C4A24510  15.919  18.270   7.650
 5035POPC   C1B24511  15.720  18.363   8.550
 5035POPC   C2B24512  15.772  18.433   8.250
 5035POPC   C3B24513  15.746  18.390   7.950
 5035POPC   C4B24514  15.696  18.439   7.650
 5036POPC   NC324515  19.103  39.208   9.450
 5036POPC   PO424516  19.012  39.230   9.150
 5036POPC   GL124517  19.105  39.227   8.850
 5036POPC   GL224518  19.104  39.293   8.850
 5036POPC   C1A24519  19.022  39.204   8.550
 5036POPC   D2A24520  19.053  39.198   8.250
 5036POPC   C3A24521  19.045  39.250   7.950
 5036POPC   C4A24522  19.093  39.249   7.650
 5036POPC   C1B24523  19.254  39.391   8.550
 5036POPC   C2B24524  19.259  39.445   8.250
 5036POPC   C3B24525  19.246  39.410   7.950
 5036POPC   C4B24526  19.227  39.382   7.650
 5037POPC   NC324527  29.152  27.583   9.450
 5037POPC   PO424528  29.113  27.639   9.150
 5037POPC   GL124529  29.182  27.599   8.850
 5037POPC   GL224530  29.133  27.480   8.850
 5037POPC   C1A24531  29.105  27.561   8.550
 5037POPC   D2A24532  29.135  27.616   8.250
 5037POPC   C3A24533  29.122  27.544   7.950
 5037POPC   C4A24534  29.144  27.552   7.650
 5037POPC   C1B24535  29.139  27.304   8.550
 5037POPC   C2B24536  29.129  27.329   8.250
 5037POPC   C3B24537  29.071  27.312   7.950
 5037POPC   C4B24538  29.065  27.337   7.650
 5038POPC   NC324539  35.380  42.369   9.450
 5038POPC   PO424540  35.344  42.341   9.150
 5038POPC   GL124541  35.355  42.323   8.850
 5038POPC   GL224542  35.266  42.449   8.850
 5038POPC   C1A24543  35.360  42.350   8.550
 5038POPC   D2A24544  35.383  42.295   8.250
 5038POPC   C3A24545  35.374  42.333   7.950
 5038POPC   C4A24546  35.393  42.380   7.650
 5038POPC   C1B24547  35.235  42.583   8.550
 5038POPC   C2B24548  35.218  42.570   8.250
 5038POPC   C3B24549  35.246  42.583   7.950
 5038POPC   C4B24550  35.259  42.561   7.650
 5039POPC   NC324551  32.256  38.451   9.450
 5039POPC   PO424552  32.254  38.484   9.150
 5039POPC   GL124553  32.209  38.427   8.850
 5039POPC   GL224554  32.266  38.300   8.850
 5039POPC   C1A24555  32.287  38.468   8.550
 5039POPC   D2A24556  32.284  38.461   8.250
 5039POPC   C3A24557  32.206  38.480   7.950
 5039POPC   C4A24558  32.268  38.407   7.650
 5039POPC   C1B24559  32.270  38.240   8.550
 5039POPC   C2B24560  32.210  38.185   8.250
 5039POPC   C3B24561  32.198  38.228   7.950
 5039POPC   C4B24562  32.262  38.165   7.650
 5040POPC   NC324563  13.610  24.453   9.450
 5040POPC   PO424564  13.649  24.510   9.150
 5040POPC   GL124565  13.639  24.517   8.850
 5040POPC   GL224566  13.640  24.402   8.850
 5040POPC   C1A24567  13.632  24.528   8.550
 5040POPC   D2A24568  13.598  24.460   8.250
 5040POPC   C3A24569  13.612  24.532   7.950
 5040POPC   C4A24570  13.669  24.448   7.650
 5040POPC   C1B24571  13.732  24.254   8.550
 5040POPC   C2B24572  13.736  24.239   8.250
 5040POPC   C3B24573  13.730  24.302   7.950
 5040POPC   C4B24574  13.749  24.317   7.650
 5041POPC   NC324575  26.793  22.152   9.450
 5041POPC   PO424576  26.772  22.172   9.150
 5041POPC   GL124577  26.829  22.206   8.850
 5041POPC   GL224578  26.845  22.064   8.850
 5041POPC   C1A24579  26.777  22.184   8.550
 5041POPC   D2A24580  26.808  22.169   8.250
 5041POPC   C3A24581  26.826  22.182   7.950
 5041POPC   C4A24582  26.822  22.204   7.650
 5041POPC   C1B24583  26.892  21.888   8.550
 5041POPC   C2B24584  26.900  21.916   8.250
 5041POPC   C3B24585  26.967  21.936   7.950
 5041POPC   C4B24586  26.907  21.917   7.650
 5042POPC   NC324587  14.436  40.765   9.450
 5042POPC   PO424588  14.403  40.753   9.150
 5042POPC   GL124589  14.450  40.805   8.850
 5042POPC   GL224590  14.365  40.667   8.850
 5042POPC   C1A24591  14.432  40.820   8.550
 5042POPC   D2A24592  14.384  40.811   8.250
 5042POPC   C3A24593  14.437  40.806   7.950
 5042POPC   C4A24594  14.396  40.741   7.650
 5042POPC   C1B24595  14.334  40.515   8.550
 5042POPC   C2B24596  14.367  40.485   8.250
 5042POPC   C3B24597  14.368  40.498   7.950
 5042POPC   C4B24598  14.382  40.537   7.650
 5043POPC   NC324599  29.883  35.381   9.450
 5043POPC   PO424600  29.959  35.389   9.150
 5043POPC   GL124601  29.937  35.340   8.850
 5043POPC   GL224602  29.894  35.434   8.850
 5043POPC   C1A24603  29.871  35.367   8.550
 5043POPC   D2A24604  29.957  35.302   8.250
 5043POPC   C3A24605  29.916  35.339   7.950
 5043POPC   C4A24606  29.905  35.319   7.650
 5043POPC   C1B24607  29.826  35.519   8.550
 5043POPC   C2B24608  29.751  35.528   8.250
 5043POPC   C3B24609  29.826  35.540   7.950
 5043POPC   C4B24610  29.801  35.514   7.650
 5044POPC   NC324611  15.917  12.117   9.450
 5044POPC   PO424612  15.949  12.088   9.150
 5044POPC   GL124613  15.983  12.054   8.850
 5044POPC   GL224614  16.034  11.949   8.850
 5044POPC   C1A24615  15.981  12.084   8.550
 5044POPC   D2A24616  15.977  12.060   8.250
 5044POPC   C3A24617  15.916  12.079   7.950
 5044POPC   C4A24618  15.970  12.035   7.650
 5044POPC   C1B24619  16.155  11.868   8.550
 5044POPC   C2B24620  16.095  11.864   8.250
 5044POPC   C3B24621  16.082  11.911   7.950
 5044POPC   C4B24622  16.133  11.914   7.650
 5045POPC   NC324623  12.117  26.784   9.450
 5045POPC   PO424624  12.110  26.828   9.150
 5045POPC   GL124625  12.062  26.828   8.850
 5045POPC   GL224626  11.944  26.883   8.850
 5045POPC   C1A24627  12.080  26.850   8.550
 5045POPC   D2A24628  12.125  26.787   8.250
 5045POPC   C3A24629  12.034  26.811   7.950
 5045POPC   C4A24630  12.078  26.768   7.650
 5045POPC   C1B24631  11.883  27.037   8.550
 5045POPC   C2B24632  11.921  26.976   8.250
 5045POPC   C3B24633  11.930  26.995   7.950
 5045POPC   C4B24634  11.884  26.959   7.650
 5046POPC   NC324635   4.271  10.522   9.450
 5046POPC   PO424636   4.270  10.527   9.150
 5046POPC   GL124637   4.336  10.514   8.850
 5046POPC   GL224638   4.403  10.571   8.850
 5046POPC   C1A24639   4.298  10.552   8.550
 5046POPC   D2A24640   4.359  10.530   8.250
 5046POPC   C3A24641   4.345  10.500   7.950
 5046POPC   C4A24642   4.355  10.491   7.650
 5046POPC   C1B24643   4.518  10.587   8.550
 5046POPC   C2B24644   4.508  10.590   8.250
 5046POPC   C3B24645   4.602  10.582   7.950
 5046POPC   C4B24646   4.569  10.591   7.650
 5047POPC   NC324647   1.245  32.287   9.450
 5047POPC   PO424648   1.170  32.267   9.150
 5047POPC   GL124649   1.210  32.291   8.850
 5047POPC   GL224650   1.326  32.312   8.850
 5047POPC   C1A24651   1.220  32.216   8.550
 5047POPC   D2A24652   1.187  32.246   8.250
 5047POPC   C3A24653   1.229  32.258   7.950
 5047POPC   C4A24654   1.213  32.217   7.650
 5047POPC   C1B24655   1.494  32.293   8.550
 5047POPC   C2B24656   1.485  32.251   8.250
 5047POPC   C3B24657   1.483  32.327   7.950
 5047POPC   C4B24658   1.488  32.281   7.650
 5048POPC   NC324659  33.800  41.543   9.450
 5048POPC   PO424660  33.837  41.554   9.150
 5048POPC   GL124661  33.812  41.566   8.850
 5048POPC   GL224662  33.750  41.664   8.850
 5048POPC   C1A24663  33.827  41.565   8.550
 5048POPC   D2A24664  33.821  41.597   8.250
 5048POPC   C3A24665  33.823  41.558   7.950
 5048POPC   C4A24666  33.803  41.520   7.650
 5048POPC   C1B24667  33.725  41.836   8.550
 5048POPC   C2B24668  33.772  41.805   8.250
 5048POPC   C3B24669  33.751  41.798   7.950
 5048POPC   C4B24670  33.765  41.811   7.650
 5049POPC   NC324671  32.226   5.873   9.450
 5049POPC   PO424672  32.220   5.892   9.150
 5049POPC   GL124673  32.292   5.885   8.850
 5049POPC   GL224674  32.363   5.964   8.850
 5049POPC   C1A24675  32.202   5.827   8.550
 5049POPC   D2A24676  32.234   5.831   8.250
 5049POPC   C3A24677  32.290   5.841   7.950
 5049POPC   C4A24678  32.268   5.853   7.650
 5049POPC   C1B24679  32.368   6.049   8.550
 5049POPC   C2B24680  32.449   6.034   8.250
 5049POPC   C3B24681  32.436   6.079   7.950
 5049POPC   C4B24682  32.433   6.046   7.650
 5050POPC   NC324683  39.197  40.767   9.450
 5050POPC   PO424684  39.263  40.776   9.150
 5050POPC   GL124685  39.188  40.805   8.850
 5050POPC   GL224686  39.101  40.842   8.850
 5050POPC   C1A24687  39.210  40.738   8.550
 5050POPC   D2A24688  39.183  40.751   8.250
 5050POPC   C3A24689  39.206  40.824   7.950
 5050POPC   C4A24690  39.271  40.807   7.650
 5050POPC   C1B24691  39.068  40.959   8.550
 5050POPC   C2B24692  39.001  40.898   8.250
 5050POPC   C3B24693  39.048  40.964   7.950
 5050POPC   C4B24694  39.006  40.917   7.650
 5051POPC   NC324695  16.715  26.783   9.450
 5051POPC   PO424696  16.708  26.788   9.150
 5051POPC   GL124697  16.770  26.799   8.850
 5051POPC   GL224698  16.610  26.932   8.850
 5051POPC   C1A24699  16.728  26.816   8.550
 5051POPC   D2A24700  16.683  26.818   8.250
 5051POPC   C3A24701  16.753  26.824   7.950
 5051POPC   C4A24702  16.687  26.856   7.650
 5051POPC   C1B24703  16.564  26.962   8.550
 5051POPC   C2B24704  16.596  26.961   8.250
 5051POPC   C3B24705  16.551  26.965   7.950
 5051POPC   C4B24706  16.517  26.973   7.650
 5052POPC   NC324707  20.643  11.297   9.450
 5052POPC   PO424708  20.641  11.257   9.150
 5052POPC   GL124709  20.643  11.301   8.850
 5052POPC   GL224710  20.688  11.280   8.850
 5052POPC   C1A24711  20.595  11.311   8.550
 5052POPC   D2A24712  20.626  11.260   8.250
 5052POPC   C3A24713  20.564  11.265   7.950
 5052POPC   C4A24714  20.642  11.331   7.650
 5052POPC   C1B24715  20.833  11.318   8.550
 5052POPC   C2B24716  20.841  11.265   8.250
 5052POPC   C3B24717  20.838  11.263   7.950
 5052POPC   C4B24718  20.894  11.318   7.650
 5053POPC   NC324719  44.710  26.073   9.450
 5053POPC   PO424720  44.653  26.037   9.150
 5053POPC   GL124721  44.708  26.085   8.850
 5053POPC   GL224722  44.618  26.105   8.850
 5053POPC   C1A24723  44.637  26.079   8.550
 5053POPC   D2A24724  44.651  26.012   8.250
 5053POPC   C3A24725  44.627  26.005   7.950
 5053POPC   C4A24726  44.648  26.062   7.650
 5053POPC   C1B24727  44.501  26.257   8.550
 5053POPC   C2B24728  44.455  26.210   8.250
 5053POPC   C3B24729  44.487  26.259   7.950
 5053POPC   C4B24730  44.459  26.212   7.650
 5054POPC   NC324731   1.948  10.512   9.450
 5054POPC   PO424732   1.973  10.508   9.150
 5054POPC   GL124733   2.037  10.520   8.850
 5054POPC   GL224734   2.027  10.417   8.850
 5054POPC   C1A24735   2.005  10.551   8.550
 5054POPC   D2A24736   1.976  10.480   8.250
 5054POPC   C3A24737   1.964  10.541   7.950
 5054POPC   C4A24738   2.019  10.534   7.650
 5054POPC   C1B24739   2.061  10.310   8.550
 5054POPC   C2B24740   1.986  10.256   8.250
 5054POPC   C3B24741   2.040  10.248   7.950
 5054POPC   C4B24742   2.014  10.297   7.650
 5055POPC   NC324743   4.282  27.637   9.450
 5055POPC   PO424744   4.274  27.581   9.150
 5055POPC   GL124745   4.312  27.568   8.850
 5055POPC   GL224746   4.385  27.473   8.850
 5055POPC   C1A24747   4.282  27.615   8.550
 5055POPC   D2A24748   4.285  27.632   8.250
 5055POPC   C3A24749   4.353  27.568   7.950
 5055POPC   C4A24750   4.278  27.634   7.650
 5055POPC   C1B24751   4.486  27.418   8.550
 5055POPC   C2B24752   4.501  27.492   8.250
 5055POPC   C3B24753   4.468  27.445   7.950
 5055POPC   C4B24754   4.537  27.463   7.650
 5056POPC   NC324755  17.489  30.747   9.450
 5056POPC   PO424756  17.547  30.741   9.150
 5056POPC   GL124757  17.537  30.660   8.850
 5056POPC   GL224758  17.538  30.798   8.850
 5056POPC   C1A24759  17.552  30.682   8.550
 5056POPC   D2A24760  17.483  30.714   8.250
 5056POPC   C3A24761  17.484  30.723   7.950
 5056POPC   C4A24762  17.532  30.733   7.650
 5056POPC   C1B24763  17.623  30.914   8.550
 5056POPC   C2B24764  17.600  30.893   8.250
 5056POPC   C3B24765  17.643  30.863   7.950
 5056POPC   C4B24766  17.663  30.919   7.650
 5057POPC   NC324767  34.613  36.096   9.450
 5057POPC   PO424768  34.574  36.086   9.150
 5057POPC   GL124769  34.550  36.171   8.850
 5057POPC   GL224770  34.657  36.170   8.850
 5057POPC   C1A24771  34.566  36.132   8.550
 5057POPC   D2A24772  34.583  36.167   8.250
 5057POPC   C3A24773  34.549  36.120   7.950
 5057POPC   C4A24774  34.600  36.097   7.650
 5057POPC   C1B24775  34.792  36.279   8.550
 5057POPC   C2B24776  34.757  36.260   8.250
 5057POPC   C3B24777  34.817  36.276   7.950
 5057POPC   C4B24778  34.788  36.259   7.650
 5058POPC   NC324779  40.824  26.009   9.450
 5058POPC   PO424780  40.767  26.047   9.150
 5058POPC   GL124781  40.777  26.086   8.850
 5058POPC   GL224782  40.725  26.130   8.850
 5058POPC   C1A24783  40.758  26.058   8.550
 5058POPC   D2A24784  40.769  26.015   8.250
 5058POPC   C3A24785  40.827  26.034   7.950
 5058POPC   C4A24786  40.800  26.027   7.650
 5058POPC   C1B24787  40.658  26.261   8.550
 5058POPC   C2B24788  40.678  26.265   8.250
 5058POPC   C3B24789  40.699  26.236   7.950
 5058POPC   C4B24790  40.682  26.256   7.650
 5059POPC   NC324791   4.302  33.824   9.450
 5059POPC   PO424792   4.276  33.806   9.150
 5059POPC   GL124793   4.332  33.845   8.850
 5059POPC   GL224794   4.322  33.949   8.850
 5059POPC   C1A24795   4.301  33.841   8.550
 5059POPC   D2A24796   4.349  33.754   8.250
 5059POPC   C3A24797   4.330  33.760   7.950
 5059POPC   C4A24798   4.334  33.787   7.650
 5059POPC   C1B24799   4.225  34.069   8.550
 5059POPC   C2B24800   4.270  34.013   8.250
 5059POPC   C3B24801   4.262  33.999   7.950
 5059POPC   C4B24802   4.233  33.995   7.650
 5060POPC   NC324803  32.988  43.085   9.450
 5060POPC   PO424804  33.052  43.104   9.150
 5060POPC   GL124805  33.038  43.096   8.850
 5060POPC   GL224806  33.140  43.157   8.850
 5060POPC   C1A24807  33.011  43.099   8.550
 5060POPC   D2A24808  33.031  43.072   8.250
 5060POPC   C3A24809  33.023  43.089   7.950
 5060POPC   C4A24810  32.994  43.119   7.650
 5060POPC   C1B24811  33.293  43.218   8.550
 5060POPC   C2B24812  33.244  43.215   8.250
 5060POPC   C3B24813  33.273  43.193   7.950
 5060POPC   C4B24814  33.298  43.224   7.650
 5061POPC   NC324815  31.451   3.499   9.450
 5061POPC   PO424816  31.464   3.503   9.150
 5061POPC   GL124817  31.477   3.510   8.850
 5061POPC   GL224818  31.629   3.507   8.850
 5061POPC   C1A24819  31.516   3.543   8.550
 5061POPC   D2A24820  31.496   3.545   8.250
 5061POPC   C3A24821  31.478   3.538   7.950
 5061POPC   C4A24822  31.472   3.512   7.650
 5061POPC   C1B24823  31.709   3.379   8.550
 5061POPC   C2B24824  31.685   3.391   8.250
 5061POPC   C3B24825  31.717   3.394   7.950
 5061POPC   C4B24826  31.722   3.411   7.650
 5062POPC   NC324827   8.223  26.814   9.450
 5062POPC   PO424828   8.193  26.787   9.150
 5062POPC   GL124829   8.232  26.854   8.850
 5062POPC   GL224830   8.178  26.734   8.850
 5062POPC   C1A24831   8.190  26.851   8.550
 5062POPC   D2A24832   8.152  26.772   8.250
 5062POPC   C3A24833   8.159  26.837   7.950
 5062POPC   C4A24834   8.155  26.800   7.650
 5062POPC   C1B24835   8.198  26.531   8.550
 5062POPC   C2B24836   8.216  26.575   8.250
 5062POPC   C3B24837   8.206  26.619   7.950
 5062POPC   C4B24838   8.215  26.606   7.650
 5063POPC   NC324839  23.759  37.694   9.450
 5063POPC   PO424840  23.712  37.653   9.150
 5063POPC   GL124841  23.752  37.668   8.850
 5063POPC   GL224842  23.848  37.690   8.850
 5063POPC   C1A24843  23.715  37.658   8.550
 5063POPC   D2A24844  23.696  37.697   8.250
 5063POPC   C3A24845  23.683  37.663   7.950
 5063POPC   C4A24846  23.755  37.691   7.650
 5063POPC   C1B24847  23.965  37.657   8.550
 5063POPC   C2B24848  23.950  37.710   8.250
 5063POPC   C3B24849  23.987  37.705   7.950
 5063POPC   C4B24850  23.922  37.650   7.650
 5064POPC   NC324851  27.636  36.173   9.450
 5064POPC   PO424852  27.550  36.118   9.150
 5064POPC   GL124853  27.616  36.135   8.850
 5064POPC   GL224854  27.630  36.030   8.850
 5064POPC   C1A24855  27.592  36.173   8.550
 5064POPC   D2A24856  27.605  36.169   8.250
 5064POPC   C3A24857  27.642  36.138   7.950
 5064POPC   C4A24858  27.634  36.080   7.650
 5064POPC   C1B24859  27.768  35.910   8.550
 5064POPC   C2B24860  27.770  35.960   8.250
 5064POPC   C3B24861  27.711  35.902   7.950
 5064POPC   C4B24862  27.741  35.939   7.650
 5065POPC   NC324863  33.063  10.513   9.450
 5065POPC   PO424864  33.006  10.495   9.150
 5065POPC   GL124865  32.988  10.550   8.850
 5065POPC   GL224866  33.060  10.358   8.850
 5065POPC   C1A24867  33.015  10.518   8.550
 5065POPC   D2A24868  33.025  10.502   8.250
 5065POPC   C3A24869  33.028  10.517   7.950
 5065POPC   C4A24870  33.053  10.566   7.650
 5065POPC   C1B24871  33.033  10.288   8.550
 5065POPC   C2B24872  33.068  10.233   8.250
 5065POPC   C3B24873  33.072  10.281   7.950
 5065POPC   C4B24874  33.023  10.258   7.650
 5066POPC   NC324875   0.397   4.315   9.450
 5066POPC   PO424876   0.416   4.270   9.150
 5066POPC   GL124877   0.435   4.272   8.850
 5066POPC   GL224878   0.383   4.455   8.850
 5066POPC   C1A24879   0.422   4.321   8.550
 5066POPC   D2A24880   0.445   4.271   8.250
 5066POPC   C3A24881   0.459   4.302   7.950
 5066POPC   C4A24882   0.393   4.356   7.650
 5066POPC   C1B24883   0.424   4.607   8.550
 5066POPC   C2B24884   0.412   4.532   8.250
 5066POPC   C3B24885   0.368   4.590   7.950
 5066POPC   C4B24886   0.365   4.593   7.650
 5067POPC   NC324887  19.857  43.122   9.450
 5067POPC   PO424888  19.875  43.105   9.150
 5067POPC   GL124889  19.858  43.104   8.850
 5067POPC   GL224890  19.788  43.221   8.850
 5067POPC   C1A24891  19.873  43.129   8.550
 5067POPC   D2A24892  19.807  43.091   8.250
 5067POPC   C3A24893  19.791  43.114   7.950
 5067POPC   C4A24894  19.816  43.092   7.650
 5067POPC   C1B24895  19.667  43.266   8.550
 5067POPC   C2B24896  19.614  43.243   8.250
 5067POPC   C3B24897  19.638  43.246   7.950
 5067POPC   C4B24898  19.652  43.278   7.650
 5068POPC   NC324899  25.220  36.876   9.450
 5068POPC   PO424900  25.308  36.918   9.150
 5068POPC   GL124901  25.287  36.930   8.850
 5068POPC   GL224902  25.381  36.927   8.850
 5068POPC   C1A24903  25.219  36.945   8.550
 5068POPC   D2A24904  25.217  36.876   8.250
 5068POPC   C3A24905  25.259  36.916   7.950
 5068POPC   C4A24906  25.296  36.913   7.650
 5068POPC   C1B24907  25.509  36.893   8.550
 5068POPC   C2B24908  25.518  36.904   8.250
 5068POPC   C3B24909  25.493  36.941   7.950
 5068POPC   C4B24910  25.542  36.951   7.650
 5069POPC   NC324911  19.855  27.574   9.450
 5069POPC   PO424912  19.793  27.561   9.150
 5069POPC   GL124913  19.845  27.625   8.850
 5069POPC   GL224914  19.806  27.447   8.850
 5069POPC   C1A24915  19.864  27.545   8.550
 5069POPC   D2A24916  19.802  27.641   8.250
 5069POPC   C3A24917  19.820  27.585   7.950
 5069POPC   C4A24918  19.864  27.597   7.650
 5069POPC   C1B24919  19.730  27.407   8.550
 5069POPC   C2B24920  19.714  27.345   8.250
 5069POPC   C3B24921  19.709  27.371   7.950
 5069POPC   C4B24922  19.740  27.377   7.650
 5070POPC   NC324923  19.060   0.391   9.450
 5070POPC   PO424924  19.069   0.449   9.150
 5070POPC   GL124925  19.099   0.456   8.850
 5070POPC   GL224926  18.910   0.396   8.850
 5070POPC   C1A24927  19.044   0.396   8.550
 5070POPC   D2A24928  19.069   0.449   8.250
 5070POPC   C3A24929  19.035   0.410   7.950
 5070POPC   C4A24930  19.025   0.402   7.650
 5070POPC   C1B24931  18.800   0.430   8.550
 5070POPC   C2B24932  18.795   0.405   8.250
 5070POPC   C3B24933  18.858   0.388   7.950
 5070POPC   C4B24934  18.853   0.418   7.650
 5071POPC   NC324935  13.644  12.837   9.450
 5071POPC   PO424936  13.649  12.867   9.150
 5071POPC   GL124937  13.583  12.836   8.850
 5071POPC   GL224938  13.556  12.771   8.850
 5071POPC   C1A24939  13.601  12.827   8.550
 5071POPC   D2A24940  13.623  12.810   8.250
 5071POPC   C3A24941  13.675  12.808   7.950
 5071POPC   C4A24942  13.615  12.810   7.650
 5071POPC   C1B24943  13.388  12.749   8.550
 5071POPC   C2B24944  13.434  12.740   8.250
 5071POPC   C3B24945  13.442  12.682   7.950
 5071POPC   C4B24946  13.447  12.725   7.650
 5072POPC   NC324947  42.331   4.324   9.450
 5072POPC   PO424948  42.288   4.336   9.150
 5072POPC   GL124949  42.372   4.316   8.850
 5072POPC   GL224950  42.455   4.339   8.850
 5072POPC   C1A24951  42.348   4.333   8.550
 5072POPC   D2A24952  42.341   4.299   8.250
 5072POPC   C3A24953  42.340   4.313   7.950
 5072POPC   C4A24954  42.323   4.320   7.650
 5072POPC   C1B24955  42.569   4.379   8.550
 5072POPC   C2B24956  42.551   4.432   8.250
 5072POPC   C3B24957  42.532   4.410   7.950
 5072POPC   C4B24958  42.528   4.377   7.650
 5073POPC   NC324959  36.898  14.450   9.450
 5073POPC   PO424960  36.891  14.370   9.150
 5073POPC   GL124961  36.874  14.380   8.850
 5073POPC   GL224962  37.057  14.363   8.850
 5073POPC   C1A24963  36.874  14.430   8.550
 5073POPC   D2A24964  36.886  14.440   8.250
 5073POPC   C3A24965  36.946  14.372   7.950
 5073POPC   C4A24966  36.857  14.426   7.650
 5073POPC   C1B24967  37.098  14.360   8.550
 5073POPC   C2B24968  37.158  14.347   8.250
 5073POPC   C3B24969  37.184  14.282   7.950
 5073POPC   C4B24970  37.154  14.283   7.650
 5074POPC   NC324971  38.407  17.552   9.450
 5074POPC   PO424972  38.503  17.467   9.150
 5074POPC   GL124973  38.453  17.494   8.850
 5074POPC   GL224974  38.613  17.573   8.850
 5074POPC   C1A24975  38.461  17.514   8.550
 5074POPC   D2A24976  38.493  17.555   8.250
 5074POPC   C3A24977  38.452  17.498   7.950
 5074POPC   C4A24978  38.496  17.511   7.650
 5074POPC   C1B24979  38.641  17.589   8.550
 5074POPC   C2B24980  38.732  17.629   8.250
 5074POPC   C3B24981  38.722  17.633   7.950
 5074POPC   C4B24982  38.662  17.619   7.650
 5075POPC   NC324983   2.000  25.223   9.450
 5075POPC   PO424984   1.972  25.234   9.150
 5075POPC   GL124985   2.012  25.281   8.850
 5075POPC   GL224986   2.055  25.391   8.850
 5075POPC   C1A24987   1.966  25.260   8.550
 5075POPC   D2A24988   2.018  25.299   8.250
 5075POPC   C3A24989   2.014  25.313   7.950
 5075POPC   C4A24990   1.943  25.256   7.650
 5075POPC   C1B24991   2.186  25.465   8.550
 5075POPC   C2B24992   2.183  25.408   8.250
 5075POPC   C3B24993   2.213  25.451   7.950
 5075POPC   C4B24994   2.229  25.371   7.650
 5076POPC   NC324995  33.803   3.531   9.450
 5076POPC   PO424996  33.817   3.568   9.150
 5076POPC   GL124997  33.847   3.546   8.850
 5076POPC   GL224998  33.690   3.495   8.850
 5076POPC   C1A24999  33.844   3.579   8.550
 5076POPC   D2A25000  33.795   3.571   8.250
 5076POPC   C3A25001  33.835   3.553   7.950
 5076POPC   C4A25002  33.771   3.561   7.650
 5076POPC   C1B25003  33.560   3.572   8.550
 5076POPC   C2B25004  33.512   3.516   8.250
 5076POPC   C3B25005  33.510   3.598   7.950
 5076POPC   C4B25006  33.563   3.529   7.650
 5077POPC   NC325007  22.974  14.439   9.450
 5077POPC   PO425008  22.953  14.365   9.150
 5077POPC   GL125009  22.920  14.424   8.850
 5077POPC   GL225010  22.784  14.431   8.850
 5077POPC   C1A25011  22.910  14.395   8.550
 5077POPC   D2A25012  22.904  14.429   8.250
 5077POPC   C3A25013  22.972  14.364   7.950
 5077POPC   C4A25014  22.893  14.442   7.650
 5077POPC   C1B25015  22.697  14.435   8.550
 5077POPC   C2B25016  22.648  14.458   8.250
 5077POPC   C3B25017  22.726  14.394   7.950
 5077POPC   C4B25018  22.643  14.456   7.650
 5078POPC   NC325019  27.599  20.628   9.450
 5078POPC   PO425020  27.628  20.634   9.150
 5078POPC   GL125021  27.571  20.572   8.850
 5078POPC   GL225022  27.465  20.633   8.850
 5078POPC   C1A25023  27.546  20.601   8.550
 5078POPC   D2A25024  27.574  20.581   8.250
 5078POPC   C3A25025  27.605  20.591   7.950
 5078POPC   C4A25026  27.611  20.621   7.650
 5078POPC   C1B25027  27.391  20.563   8.550
 5078POPC   C2B25028  27.362  20.587   8.250
 5078POPC   C3B25029  27.335  20.580   7.950
 5078POPC   C4B25030  27.336  20.560   7.650
 5079POPC   NC325031  37.662   9.738   9.450
 5079POPC   PO425032  37.651   9.779   9.150
 5079POPC   GL125033  37.670   9.739   8.850
 5079POPC   GL225034  37.661   9.879   8.850
 5079POPC   C1A25035  37.631   9.790   8.550
 5079POPC   D2A25036  37.704   9.742   8.250
 5079POPC   C3A25037  37.718   9.739   7.950
 5079POPC   C4A25038  37.720   9.754   7.650
 5079POPC   C1B25039  37.496   9.995   8.550
 5079POPC   C2B25040  37.513   9.991   8.250
 5079POPC   C3B25041  37.588   9.962   7.950
 5079POPC   C4B25042  37.590   9.993   7.650
 5080POPC   NC325043  37.700  13.585   9.450
 5080POPC   PO425044  37.721  13.601   9.150
 5080POPC   GL125045  37.692  13.578   8.850
 5080POPC   GL225046  37.724  13.745   8.850
 5080POPC   C1A25047  37.657  13.628   8.550
 5080POPC   D2A25048  37.640  13.615   8.250
 5080POPC   C3A25049  37.716  13.590   7.950
 5080POPC   C4A25050  37.678  13.581   7.650
 5080POPC   C1B25051  37.842  13.844   8.550
 5080POPC   C2B25052  37.804  13.848   8.250
 5080POPC   C3B25053  37.868  13.779   7.950
 5080POPC   C4B25054  37.794  13.868   7.650
 5081POPC   NC325055  43.130   6.605   9.450
 5081POPC   PO425056  43.087   6.688   9.150
 5081POPC   GL125057  43.133   6.636   8.850
 5081POPC   GL225058  43.191   6.801   8.850
 5081POPC   C1A25059  43.153   6.615   8.550
 5081POPC   D2A25060  43.131   6.692   8.250
 5081POPC   C3A25061  43.080   6.683   7.950
 5081POPC   C4A25062  43.123   6.625   7.650
 5081POPC   C1B25063  43.180   6.837   8.550
 5081POPC   C2B25064  43.243   6.872   8.250
 5081POPC   C3B25065  43.246   6.839   7.950
 5081POPC   C4B25066  43.253   6.832   7.650
 5082POPC   NC325067  31.460   5.907   9.450
 5082POPC   PO425068  31.425   5.874   9.150
 5082POPC   GL125069  31.503   5.873   8.850
 5082POPC   GL225070  31.579   5.768   8.850
 5082POPC   C1A25071  31.501   5.882   8.550
 5082POPC   D2A25072  31.429   5.918   8.250
 5082POPC   C3A25073  31.494   5.853   7.950
 5082POPC   C4A25074  31.449   5.889   7.650
 5082POPC   C1B25075  31.604   5.657   8.550
 5082POPC   C2B25076  31.593   5.696   8.250
 5082POPC   C3B25077  31.643   5.703   7.950
 5082POPC   C4B25078  31.600   5.634   7.650
 5083POPC   NC325079  43.104  22.169   9.450
 5083POPC   PO425080  43.109  22.155   9.150
 5083POPC   GL125081  43.098  22.175   8.850
 5083POPC   GL225082  43.049  22.289   8.850
 5083POPC   C1A25083  43.123  22.209   8.550
 5083POPC   D2A25084  43.084  22.202   8.250
 5083POPC   C3A25085  43.088  22.133   7.950
 5083POPC   C4A25086  43.120  22.127   7.650
 5083POPC   C1B25087  42.999  22.322   8.550
 5083POPC   C2B25088  43.007  22.355   8.250
 5083POPC   C3B25089  42.948  22.403   7.950
 5083POPC   C4B25090  42.999  22.350   7.650
 5084POPC   NC325091  23.673  19.078   9.450
 5084POPC   PO425092  23.710  19.075   9.150
 5084POPC   GL125093  23.708  19.058   8.850
 5084POPC   GL225094  23.612  19.147   8.850
 5084POPC   C1A25095  23.671  19.023   8.550
 5084POPC   D2A25096  23.759  19.014   8.250
 5084POPC   C3A25097  23.677  19.064   7.950
 5084POPC   C4A25098  23.669  19.062   7.650
 5084POPC   C1B25099  23.475  19.185   8.550
 5084POPC   C2B25100  23.472  19.229   8.250
 5084POPC   C3B25101  23.499  19.182   7.950
 5084POPC   C4B25102  23.477  19.160   7.650
 5085POPC   NC325103  25.999  29.967   9.450
 5085POPC   PO425104  25.992  29.923   9.150
 5085POPC   GL125105  26.026  29.907   8.850
 5085POPC   GL225106  26.007  29.820   8.850
 5085POPC   C1A25107  26.062  29.886   8.550
 5085POPC   D2A25108  26.008  29.964   8.250
 5085POPC   C3A25109  26.025  29.907   7.950
 5085POPC   C4A25110  26.043  29.950   7.650
 5085POPC   C1B25111  26.008  29.694   8.550
 5085POPC   C2B25112  26.054  29.632   8.250
 5085POPC   C3B25113  26.004  29.656   7.950
 5085POPC   C4B25114  25.994  29.708   7.650
 5086POPC   NC325115  21.351  44.643   9.450
 5086POPC   PO425116  21.371  44.683   9.150
 5086POPC   GL125117  21.403  44.682   8.850
 5086POPC   GL225118  21.253  44.740   8.850
 5086POPC   C1A25119  21.340  44.705   8.550
 5086POPC   D2A25120  21.348  44.678   8.250
 5086POPC   C3A25121  21.413  44.654   7.950
 5086POPC   C4A25122  21.397  44.705   7.650
 5086POPC   C1B25123  21.142  44.719   8.550
 5086POPC   C2B25124  21.191  44.671   8.250
 5086POPC   C3B25125  21.127  44.695   7.950
 5086POPC   C4B25126  21.110  44.764   7.650
 5087POPC   NC325127  37.708  20.637   9.450
 5087POPC   PO425128  37.690  20.643   9.150
 5087POPC   GL125129  37.646  20.578   8.850
 5087POPC   GL225130  37.789  20.619   8.850
 5087POPC   C1A25131  37.679  20.645   8.550
 5087POPC   D2A25132  37.685  20.601   8.250
 5087POPC   C3A25133  37.663  20.572   7.950
 5087POPC   C4A25134  37.670  20.648   7.650
 5087POPC   C1B25135  37.897  20.710   8.550
 5087POPC   C2B25136  37.903  20.690   8.250
 5087POPC   C3B25137  37.939  20.701   7.950
 5087POPC   C4B25138  37.948  20.692   7.650
 5088POPC   NC325139  10.524   5.103   9.450
 5088POPC   PO425140  10.559   5.045   9.150
 5088POPC   GL125141  10.571   5.084   8.850
 5088POPC   GL225142  10.380   5.142   8.850
 5088POPC   C1A25143  10.490   5.110   8.550
 5088POPC   D2A25144  10.502   5.107   8.250
 5088POPC   C3A25145  10.526   5.081   7.950
 5088POPC   C4A25146  10.528   5.061   7.650
 5088POPC   C1B25147  10.301   5.204   8.550
 5088POPC   C2B25148  10.361   5.278   8.250
 5088POPC   C3B25149  10.342   5.192   7.950
 5088POPC   C4B25150  10.328   5.231   7.650
 5089POPC   NC325151   8.204  22.163   9.450
 5089POPC   PO425152   8.154  22.205   9.150
 5089POPC   GL125153   8.194  22.170   8.850
 5089POPC   GL225154   8.111  22.187   8.850
 5089POPC   C1A25155   8.175  22.209   8.550
 5089POPC   D2A25156   8.216  22.161   8.250
 5089POPC   C3A25157   8.163  22.165   7.950
 5089POPC   C4A25158   8.196  22.148   7.650
 5089POPC   C1B25159   7.937  22.237   8.550
 5089POPC   C2B25160   7.994  22.221   8.250
 5089POPC   C3B25161   7.947  22.206   7.950
 5089POPC   C4B25162   7.961  22.253   7.650
 5090POPC   NC325163  22.952  27.630   9.450
 5090POPC   PO425164  22.937  27.613   9.150
 5090POPC   GL125165  22.930  27.569   8.850
 5090POPC   GL225166  22.891  27.458   8.850
 5090POPC   C1A25167  22.889  27.620   8.550
 5090POPC   D2A25168  22.917  27.631   8.250
 5090POPC   C3A25169  22.954  27.577   7.950
 5090POPC   C4A25170  22.897  27.625   7.650
 5090POPC   C1B25171  22.816  27.453   8.550
 5090POPC   C2B25172  22.810  27.391   8.250
 5090POPC   C3B25173  22.757  27.433   7.950
 5090POPC   C4B25174  22.796  27.399   7.650
 5091POPC   NC325175  27.599  26.827   9.450
 5091POPC   PO425176  27.591  26.777   9.150
 5091POPC   GL125177  27.543  26.863   8.850
 5091POPC   GL225178  27.451  26.938   8.850
 5091POPC   C1A25179  27.557  26.773   8.550
 5091POPC   D2A25180  27.638  26.809   8.250
 5091POPC   C3A25181  27.597  26.839   7.950
 5091POPC   C4A25182  27.589  26.822   7.650
 5091POPC   C1B25183  27.446  26.934   8.550
 5091POPC   C2B25184  27.360  26.931   8.250
 5091POPC   C3B25185  27.413  26.991   7.950
 5091POPC   C4B25186  27.387  26.996   7.650
 5092POPC   NC325187  12.072  29.123   9.450
 5092POPC   PO425188  12.087  29.195   9.150
 5092POPC   GL125189  12.096  29.120   8.850
 5092POPC   GL225190  12.149  29.242   8.850
 5092POPC   C1A25191  12.060  29.163   8.550
 5092POPC   D2A25192  12.105  29.172   8.250
 5092POPC   C3A25193  12.084  29.100   7.950
 5092POPC   C4A25194  12.026  29.184   7.650
 5092POPC   C1B25195  12.332  29.295   8.550
 5092POPC   C2B25196  12.328  29.254   8.250
 5092POPC   C3B25197  12.300  29.264   7.950
 5092POPC   C4B25198  12.257  29.224   7.650
 5093POPC   NC325199   5.098  22.156   9.450
 5093POPC   PO425200   5.105  22.173   9.150
 5093POPC   GL125201   5.061  22.186   8.850
 5093POPC   GL225202   4.956  22.051   8.850
 5093POPC   C1A25203   5.099  22.185   8.550
 5093POPC   D2A25204   5.046  22.166   8.250
 5093POPC   C3A25205   5.077  22.162   7.950
 5093POPC   C4A25206   5.095  22.141   7.650
 5093POPC   C1B25207   4.853  22.039   8.550
 5093POPC   C2B25208   4.850  22.005   8.250
 5093POPC   C3B25209   4.909  21.978   7.950
 5093POPC   C4B25210   4.920  22.031   7.650
 5094POPC   NC325211   6.609  34.560   9.450
 5094POPC   PO425212   6.644  34.589   9.150
 5094POPC   GL125213   6.673  34.531   8.850
 5094POPC   GL225214   6.758  34.528   8.850
 5094POPC   C1A25215   6.608  34.537   8.550
 5094POPC   D2A25216   6.679  34.563   8.250
 5094POPC   C3A25217   6.659  34.625   7.950
 5094POPC   C4A25218   6.613  34.615   7.650
 5094POPC   C1B25219   6.895  34.520   8.550
 5094POPC   C2B25220   6.859  34.525   8.250
 5094POPC   C3B25221   6.840  34.496   7.950
 5094POPC   C4B25222   6.839  34.509   7.650
 5095POPC   NC325223  19.041   8.994   9.450
 5095POPC   PO425224  19.048   9.003   9.150
 5095POPC   GL125225  19.010   8.928   8.850
 5095POPC   GL225226  18.947   9.033   8.850
 5095POPC   C1A25227  19.032   8.980   8.550
 5095POPC   D2A25228  19.091   8.979   8.250
 5095POPC   C3A25229  19.087   9.006   7.950
 5095POPC   C4A25230  19.035   9.013   7.650
 5095POPC   C1B25231  18.849   9.143   8.550
 5095POPC   C2B25232  18.905   9.124   8.250
 5095POPC   C3B25233  18.898   9.165   7.950
 5095POPC   C4B25234  18.893   9.188   7.650
 5096POPC   NC325235  11.335  39.981   9.450
 5096POPC   PO425236  11.346  39.974   9.150
 5096POPC   GL125237  11.343  40.019   8.850
 5096POPC   GL225238  11.247  40.092   8.850
 5096POPC   C1A25239  11.288  39.989   8.550
 5096POPC   D2A25240  11.266  39.975   8.250
 5096POPC   C3A25241  11.298  40.028   7.950
 5096POPC   C4A25242  11.277  40.016   7.650
 5096POPC   C1B25243  11.273  40.271   8.550
 5096POPC   C2B25244  11.283  40.238   8.250
 5096POPC   C3B25245  11.243  40.248   7.950
 5096POPC   C4B25246  11.262  40.213   7.650
 5097POPC   NC325247  23.677  33.809   9.450
 5097POPC   PO425248  23.699  33.789   9.150
 5097POPC   GL125249  23.705  33.818   8.850
 5097POPC   GL225250  23.705  33.684   8.850
 5097POPC   C1A25251  23.668  33.785   8.550
 5097POPC   D2A25252  23.744  33.831   8.250
 5097POPC   C3A25253  23.696  33.751   7.950
 5097POPC   C4A25254  23.701  33.837   7.650
 5097POPC   C1B25255  23.648  33.525   8.550
 5097POPC   C2B25256  23.712  33.541   8.250
 5097POPC   C3B25257  23.660  33.595   7.950
 5097POPC   C4B25258  23.694  33.553   7.650
 5098POPC   NC325259  11.345  26.786   9.450
 5098POPC   PO425260  11.346  26.830   9.150
 5098POPC   GL125261  11.303  26.797   8.850
 5098POPC   GL225262  11.331  26.657   8.850
 5098POPC   C1A25263  11.333  26.849   8.550
 5098POPC   D2A25264  11.303  26.819   8.250
 5098POPC   C3A25265  11.340  26.817   7.950
 5098POPC   C4A25266  11.310  26.777   7.650
 5098POPC   C1B25267  11.439  26.639   8.550
 5098POPC   C2B25268  11.402  26.584   8.250
 5098POPC   C3B25269  11.429  26.558   7.950
 5098POPC   C4B25270  11.449  26.584   7.650
 5099POPC   NC325271  31.508  42.345   9.450
 5099POPC   PO425272  31.481  42.309   9.150
 5099POPC   GL125273  31.509  42.290   8.850
 5099POPC   GL225274  31.584  42.201   8.850
 5099POPC   C1A25275  31.423  42.335   8.550
 5099POPC   D2A25276  31.461  42.310   8.250
 5099POPC   C3A25277  31.472  42.359   7.950
 5099POPC   C4A25278  31.468  42.379   7.650
 5099POPC   C1B25279  31.622  42.114   8.550
 5099POPC   C2B25280  31.652  42.145   8.250
 5099POPC   C3B25281  31.600  42.119   7.950
 5099POPC   C4B25282  31.629  42.159   7.650
 5100POPC   NC325283  40.032  11.286   9.450
 5100POPC   PO425284  40.032  11.282   9.150
 5100POPC   GL125285  39.968  11.267   8.850
 5100POPC   GL225286  40.115  11.266   8.850
 5100POPC   C1A25287  39.986  11.257   8.550
 5100POPC   D2A25288  39.975  11.282   8.250
 5100POPC   C3A25289  39.986  11.335   7.950
 5100POPC   C4A25290  40.033  11.311   7.650
 5100POPC   C1B25291  40.289  11.199   8.550
 5100POPC   C2B25292  40.206  11.232   8.250
 5100POPC   C3B25293  40.198  11.266   7.950
 5100POPC   C4B25294  40.265  11.229   7.650
 5101POPC   NC325295  29.137  29.154   9.450
 5101POPC   PO425296  29.155  29.096   9.150
 5101POPC   GL125297  29.175  29.173   8.850
 5101POPC   GL225298  29.072  29.067   8.850
 5101POPC   C1A25299  29.130  29.104   8.550
 5101POPC   D2A25300  29.159  29.150   8.250
 5101POPC   C3A25301  29.128  29.103   7.950
 5101POPC   C4A25302  29.188  29.098   7.650
 5101POPC   C1B25303  29.026  28.922   8.550
 5101POPC   C2B25304  28.998  28.992   8.250
 5101POPC   C3B25305  28.966  28.910   7.950
 5101POPC   C4B25306  28.979  28.982   7.650
 5102POPC   NC325307  34.554  37.724   9.450
 5102POPC   PO425308  34.588  37.637   9.150
 5102POPC   GL125309  34.616  37.719   8.850
 5102POPC   GL225310  34.714  37.689   8.850
 5102POPC   C1A25311  34.609  37.672   8.550
 5102POPC   D2A25312  34.587  37.707   8.250
 5102POPC   C3A25313  34.602  37.633   7.950
 5102POPC   C4A25314  34.560  37.693   7.650
 5102POPC   C1B25315  34.846  37.716   8.550
 5102POPC   C2B25316  34.823  37.704   8.250
 5102POPC   C3B25317  34.829  37.665   7.950
 5102POPC   C4B25318  34.846  37.727   7.650
 5103POPC   NC325319  32.208  40.828   9.450
 5103POPC   PO425320  32.226  40.735   9.150
 5103POPC   GL125321  32.267  40.793   8.850
 5103POPC   GL225322  32.396  40.800   8.850
 5103POPC   C1A25323  32.225  40.789   8.550
 5103POPC   D2A25324  32.273  40.805   8.250
 5103POPC   C3A25325  32.293  40.794   7.950
 5103POPC   C4A25326  32.226  40.750   7.650
 5103POPC   C1B25327  32.454  40.786   8.550
 5103POPC   C2B25328  32.487  40.733   8.250
 5103POPC   C3B25329  32.481  40.729   7.950
 5103POPC   C4B25330  32.489  40.727   7.650
 5104POPC   NC325331  29.966  17.536   9.450
 5104POPC   PO425332  29.913  17.484   9.150
 5104POPC   GL125333  29.940  17.546   8.850
 5104POPC   GL225334  30.015  17.363   8.850
 5104POPC   C1A25335  29.893  17.459   8.550
 5104POPC   D2A25336  29.922  17.542   8.250
 5104POPC   C3A25337  29.872  17.522   7.950
 5104POPC   C4A25338  29.960  17.541   7.650
 5104POPC   C1B25339  30.062  17.283   8.550
 5104POPC   C2B25340  30.097  17.354   8.250
 5104POPC   C3B25341  30.056  17.307   7.950
 5104POPC   C4B25342  30.021  17.351   7.650
 5105POPC   NC325343  28.406  15.932   9.450
 5105POPC   PO425344  28.336  15.939   9.150
 5105POPC   GL125345  28.333  15.982   8.850
 5105POPC   GL225346  28.292  15.961   8.850
 5105POPC   C1A25347  28.347  15.996   8.550
 5105POPC   D2A25348  28.353  15.912   8.250
 5105POPC   C3A25349  28.400  15.912   7.950
 5105POPC   C4A25350  28.381  15.946   7.650
 5105POPC   C1B25351  28.164  15.934   8.550
 5105POPC   C2B25352  28.142  15.870   8.250
 5105POPC   C3B25353  28.108  15.940   7.950
 5105POPC   C4B25354  28.148  15.900   7.650
 5106POPC   NC325355  24.510  24.503   9.450
 5106POPC   PO425356  24.474  24.444   9.150
 5106POPC   GL125357  24.538  24.453   8.850
 5106POPC   GL225358  24.407  24.478   8.850
 5106POPC   C1A25359  24.504  24.447   8.550
 5106POPC   D2A25360  24.540  24.471   8.250
 5106POPC   C3A25361  24.479  24.450   7.950
 5106POPC   C4A25362  24.497  24.532   7.650
 5106POPC   C1B25363  24.306  24.337   8.550
 5106POPC   C2B25364  24.221  24.344   8.250
 5106POPC   C3B25365  24.228  24.368   7.950
 5106POPC   C4B25366  24.270  24.361   7.650
 5107POPC   NC325367  10.544  23.723   9.450
 5107POPC   PO425368  10.507  23.716   9.150
 5107POPC   GL125369  10.523  23.717   8.850
 5107POPC   GL225370  10.490  23.546   8.850
 5107POPC   C1A25371  10.487  23.669   8.550
 5107POPC   D2A25372  10.483  23.705   8.250
 5107POPC   C3A25373  10.499  23.755   7.950
 5107POPC   C4A25374  10.497  23.666   7.650
 5107POPC   C1B25375  10.513  23.513   8.550
 5107POPC   C2B25376  10.498  23.436   8.250
 5107POPC   C3B25377  10.462  23.477   7.950
 5107POPC   C4B25378  10.537  23.464   7.650
 5108POPC   NC325379  34.541  26.817   9.450
 5108POPC   PO425380  34.541  26.861   9.150
 5108POPC   GL125381  34.573  26.865   8.850
 5108POPC   GL225382  34.643  26.651   8.850
 5108POPC   C1A25383  34.622  26.797   8.550
 5108POPC   D2A25384  34.583  26.783   8.250
 5108POPC   C3A25385  34.557  26.850   7.950
 5108POPC   C4A25386  34.545  26.769   7.650
 5108POPC   C1B25387  34.656  26.603   8.550
 5108POPC   C2B25388  34.693  26.622   8.250
 5108POPC   C3B25389  34.646  26.544   7.950
 5108POPC   C4B25390  34.613  26.620   7.650
 5109POPC   NC325391  20.637   3.493   9.450
 5109POPC   PO425392  20.579   3.520   9.150
 5109POPC   GL125393  20.613   3.523   8.850
 5109POPC   GL225394  20.519   3.506   8.850
 5109POPC   C1A25395  20.660   3.541   8.550
 5109POPC   D2A25396  20.639   3.524   8.250
 5109POPC   C3A25397  20.608   3.589   7.950
 5109POPC   C4A25398  20.647   3.501   7.650
 5109POPC   C1B25399  20.325   3.553   8.550
 5109POPC   C2B25400  20.368   3.533   8.250
 5109POPC   C3B25401  20.370   3.552   7.950
 5109POPC   C4B25402  20.351   3.543   7.650
 5110POPC   NC325403  23.718   8.231   9.450
 5110POPC   PO425404  23.675   8.199   9.150
 5110POPC   GL125405  23.697   8.217   8.850
 5110POPC   GL225406  23.691   8.349   8.850
 5110POPC   C1A25407  23.701   8.233   8.550
 5110POPC   D2A25408  23.705   8.238   8.250
 5110POPC   C3A25409  23.701   8.189   7.950
 5110POPC   C4A25410  23.714   8.188   7.650
 5110POPC   C1B25411  23.609   8.384   8.550
 5110POPC   C2B25412  23.611   8.417   8.250
 5110POPC   C3B25413  23.617   8.376   7.950
 5110POPC   C4B25414  23.584   8.420   7.650
 5111POPC   NC325415  33.802  27.638   9.450
 5111POPC   PO425416  33.758  27.620   9.150
 5111POPC   GL125417  33.793  27.582   8.850
 5111POPC   GL225418  33.775  27.483   8.850
 5111POPC   C1A25419  33.826  27.625   8.550
 5111POPC   D2A25420  33.768  27.582   8.250
 5111POPC   C3A25421  33.794  27.633   7.950
 5111POPC   C4A25422  33.779  27.620   7.650
 5111POPC   C1B25423  33.710  27.342   8.550
 5111POPC   C2B25424  33.720  27.347   8.250
 5111POPC   C3B25425  33.727  27.328   7.950
 5111POPC   C4B25426  33.768  27.335   7.650
 5112POPC   NC325427  21.379  41.587   9.450
 5112POPC   PO425428  21.406  41.552   9.150
 5112POPC   GL125429  21.378  41.557   8.850
 5112POPC   GL225430  21.407  41.444   8.850
 5112POPC   C1A25431  21.396  41.567   8.550
 5112POPC   D2A25432  21.435  41.546   8.250
 5112POPC   C3A25433  21.374  41.562   7.950
 5112POPC   C4A25434  21.429  41.533   7.650
 5112POPC   C1B25435  21.508  41.294   8.550
 5112POPC   C2B25436  21.474  41.336   8.250
 5112POPC   C3B25437  21.526  41.312   7.950
 5112POPC   C4B25438  21.497  41.329   7.650
 5113POPC   NC325439  24.505  36.094   9.450
 5113POPC   PO425440  24.537  36.158   9.150
 5113POPC   GL125441  24.509  36.171   8.850
 5113POPC   GL225442  24.392  36.055   8.850
 5113POPC   C1A25443  24.473  36.094   8.550
 5113POPC   D2A25444  24.507  36.166   8.250
 5113POPC   C3A25445  24.492  36.117   7.950
 5113POPC   C4A25446  24.486  36.155   7.650
 5113POPC   C1B25447  24.425  35.877   8.550
 5113POPC   C2B25448  24.402  35.935   8.250
 5113POPC   C3B25449  24.400  35.945   7.950
 5113POPC   C4B25450  24.418  35.884   7.650
 5114POPC   NC325451  27.611  38.452   9.450
 5114POPC   PO425452  27.579  38.419   9.150
 5114POPC   GL125453  27.607  38.478   8.850
 5114POPC   GL225454  27.669  38.562   8.850
 5114POPC   C1A25455  27.598  38.412   8.550
 5114POPC   D2A25456  27.549  38.474   8.250
 5114POPC   C3A25457  27.608  38.450   7.950
 5114POPC   C4A25458  27.618  38.477   7.650
 5114POPC   C1B25459  27.635  38.684   8.550
 5114POPC   C2B25460  27.685  38.707   8.250
 5114POPC   C3B25461  27.640  38.666   7.950
 5114POPC   C4B25462  27.611  38.697   7.650
 5115POPC   NC325463  41.511  29.124   9.450
 5115POPC   PO425464  41.566  29.121   9.150
 5115POPC   GL125465  41.562  29.114   8.850
 5115POPC   GL225466  41.560  28.981   8.850
 5115POPC   C1A25467  41.515  29.174   8.550
 5115POPC   D2A25468  41.539  29.163   8.250
 5115POPC   C3A25469  41.575  29.131   7.950
 5115POPC   C4A25470  41.582  29.182   7.650
 5115POPC   C1B25471  41.607  28.943   8.550
 5115POPC   C2B25472  41.542  28.943   8.250
 5115POPC   C3B25473  41.587  28.849   7.950
 5115POPC   C4B25474  41.588  28.890   7.650
 5116POPC   NC325475   8.932   1.234   9.450
 5116POPC   PO425476   9.010   1.210   9.150
 5116POPC   GL125477   9.017   1.212   8.850
 5116POPC   GL225478   9.029   1.319   8.850
 5116POPC   C1A25479   8.927   1.207   8.550
 5116POPC   D2A25480   9.008   1.254   8.250
 5116POPC   C3A25481   9.008   1.255   7.950
 5116POPC   C4A25482   9.008   1.196   7.650
 5116POPC   C1B25483   9.072   1.475   8.550
 5116POPC   C2B25484   9.126   1.450   8.250
 5116POPC   C3B25485   9.050   1.412   7.950
 5116POPC   C4B25486   9.049   1.456   7.650
 5117POPC   NC325487  18.299  43.124   9.450
 5117POPC   PO425488  18.292  43.124   9.150
 5117POPC   GL125489  18.267  43.127   8.850
 5117POPC   GL225490  18.420  43.207   8.850
 5117POPC   C1A25491  18.264  43.136   8.550
 5117POPC   D2A25492  18.281  43.154   8.250
 5117POPC   C3A25493  18.312  43.071   7.950
 5117POPC   C4A25494  18.282  43.068   7.650
 5117POPC   C1B25495  18.429  43.266   8.550
 5117POPC   C2B25496  18.460  43.250   8.250
 5117POPC   C3B25497  18.437  43.283   7.950
 5117POPC   C4B25498  18.443  43.299   7.650
 5118POPC   NC325499  36.166  35.374   9.450
 5118POPC   PO425500  36.094  35.384   9.150
 5118POPC   GL125501  36.165  35.339   8.850
 5118POPC   GL225502  36.217  35.436   8.850
 5118POPC   C1A25503  36.126  35.319   8.550
 5118POPC   D2A25504  36.078  35.313   8.250
 5118POPC   C3A25505  36.115  35.400   7.950
 5118POPC   C4A25506  36.084  35.344   7.650
 5118POPC   C1B25507  36.296  35.565   8.550
 5118POPC   C2B25508  36.341  35.568   8.250
 5118POPC   C3B25509  36.288  35.560   7.950
 5118POPC   C4B25510  36.294  35.477   7.650
 5119POPC   NC325511  36.140   5.879   9.450
 5119POPC   PO425512  36.096   5.884   9.150
 5119POPC   GL125513  36.109   5.894   8.850
 5119POPC   GL225514  36.008   5.937   8.850
 5119POPC   C1A25515  36.087   5.918   8.550
 5119POPC   D2A25516  36.161   5.823   8.250
 5119POPC   C3A25517  36.154   5.820   7.950
 5119POPC   C4A25518  36.132   5.916   7.650
 5119POPC   C1B25519  35.937   5.969   8.550
 5119POPC   C2B25520  35.908   6.045   8.250
 5119POPC   C3B25521  35.908   5.970   7.950
 5119POPC   C4B25522  35.940   5.985   7.650
 5120POPC   NC325523  33.833  36.856   9.450
 5120POPC   PO425524  33.821  36.944   9.150
 5120POPC   GL125525  33.844  36.907   8.850
 5120POPC   GL225526  33.735  36.813   8.850
 5120POPC   C1A25527  33.802  36.894   8.550
 5120POPC   D2A25528  33.829  36.943   8.250
 5120POPC   C3A25529  33.824  36.913   7.950
 5120POPC   C4A25530  33.754  36.856   7.650
 5120POPC   C1B25531  33.579  36.715   8.550
 5120POPC   C2B25532  33.640  36.718   8.250
 5120POPC   C3B25533  33.577  36.736   7.950
 5120POPC   C4B25534  33.625  36.713   7.650
 5121POPC   NC325535  19.870  39.971   9.450
 5121POPC   PO425536  19.876  40.030   9.150
 5121POPC   GL125537  19.879  40.021   8.850
 5121POPC   GL225538  19.919  39.932   8.850
 5121POPC   C1A25539  19.860  40.045   8.550
 5121POPC   D2A25540  19.791  40.018   8.250
 5121POPC   C3A25541  19.856  39.996   7.950
 5121POPC   C4A25542  19.822  39.967   7.650
 5121POPC   C1B25543  20.094  39.989   8.550
 5121POPC   C2B25544  20.042  39.941   8.250
 5121POPC   C3B25545  20.080  39.946   7.950
 5121POPC   C4B25546  20.111  39.962   7.650
 5122POPC   NC325547   0.474  43.904   9.450
 5122POPC   PO425548   0.425  43.888   9.150
 5122POPC   GL125549   0.436  43.856   8.850
 5122POPC   GL225550   0.547  43.948   8.850
 5122POPC   C1A25551   0.445  43.851   8.550
 5122POPC   D2A25552   0.400  43.921   8.250
 5122POPC   C3A25553   0.467  43.900   7.950
 5122POPC   C4A25554   0.430  43.875   7.650
 5122POPC   C1B25555   0.711  44.001   8.550
 5122POPC   C2B25556   0.634  43.974   8.250
 5122POPC   C3B25557   0.716  43.954   7.950
 5122POPC   C4B25558   0.712  43.959   7.650
 5123POPC   NC325559  40.793  43.894   9.450
 5123POPC   PO425560  40.805  43.868   9.150
 5123POPC   GL125561  40.820  43.878   8.850
 5123POPC   GL225562  40.936  43.968   8.850
 5123POPC   C1A25563  40.812  43.934   8.550
 5123POPC   D2A25564  40.799  43.875   8.250
 5123POPC   C3A25565  40.734  43.927   7.950
 5123POPC   C4A25566  40.820  43.870   7.650
 5123POPC   C1B25567  41.001  43.935   8.550
 5123POPC   C2B25568  41.066  43.993   8.250
 5123POPC   C3B25569  41.048  43.977   7.950
 5123POPC   C4B25570  41.072  43.976   7.650
 5124POPC   NC325571   1.221   3.492   9.450
 5124POPC   PO425572   1.260   3.549   9.150
 5124POPC   GL125573   1.182   3.541   8.850
 5124POPC   GL225574   1.361   3.513   8.850
 5124POPC   C1A25575   1.261   3.561   8.550
 5124POPC   D2A25576   1.177   3.541   8.250
 5124POPC   C3A25577   1.247   3.503   7.950
 5124POPC   C4A25578   1.228   3.573   7.650
 5124POPC   C1B25579   1.389   3.422   8.550
 5124POPC   C2B25580   1.433   3.423   8.250
 5124POPC   C3B25581   1.466   3.458   7.950
 5124POPC   C4B25582   1.433   3.454   7.650
 5125POPC   NC325583  23.698  41.595   9.450
 5125POPC   PO425584  23.717  41.586   9.150
 5125POPC   GL125585  23.734  41.533   8.850
 5125POPC   GL225586  23.860  41.565   8.850
 5125POPC   C1A25587  23.683  41.565   8.550
 5125POPC   D2A25588  23.730  41.533   8.250
 5125POPC   C3A25589  23.753  41.545   7.950
 5125POPC   C4A25590  23.684  41.533   7.650
 5125POPC   C1B25591  23.998  41.528   8.550
 5125POPC   C2B25592  23.955  41.558   8.250
 5125POPC   C3B25593  23.997  41.566   7.950
 5125POPC   C4B25594  23.955  41.605   7.650
 5126POPC   NC325595  26.054  21.376   9.450
 5126POPC   PO425596  26.008  21.366   9.150
 5126POPC   GL125597  26.090  21.411   8.850
 5126POPC   GL225598  26.168  21.470   8.850
 5126POPC   C1A25599  26.003  21.427   8.550
 5126POPC   D2A25600  26.050  21.435   8.250
 5126POPC   C3A25601  25.999  21.357   7.950
 5126POPC   C4A25602  26.055  21.382   7.650
 5126POPC   C1B25603  26.170  21.580   8.550
 5126POPC   C2B25604  26.229  21.611   8.250
 5126POPC   C3B25605  26.190  21.592   7.950
 5126POPC   C4B25606  26.207  21.583   7.650
 5127POPC   NC325607  43.108  34.609   9.450
 5127POPC   PO425608  43.073  34.590   9.150
 5127POPC   GL125609  43.116  34.540   8.850
 5127POPC   GL225610  43.157  34.471   8.850
 5127POPC   C1A25611  43.149  34.588   8.550
 5127POPC   D2A25612  43.136  34.577   8.250
 5127POPC   C3A25613  43.093  34.615   7.950
 5127POPC   C4A25614  43.148  34.531   7.650
 5127POPC   C1B25615  43.246  34.340   8.550
 5127POPC   C2B25616  43.215  34.363   8.250
 5127POPC   C3B25617  43.222  34.356   7.950
 5127POPC   C4B25618  43.270  34.353   7.650
 5128POPC   NC325619  19.077  42.328   9.450
 5128POPC   PO425620  19.095  42.327   9.150
 5128POPC   GL125621  19.043  42.329   8.850
 5128POPC   GL225622  19.179  42.304   8.850
 5128POPC   C1A25623  19.061  42.359   8.550
 5128POPC   D2A25624  19.010  42.306   8.250
 5128POPC   C3A25625  19.097  42.319   7.950
 5128POPC   C4A25626  19.037  42.373   7.650
 5128POPC   C1B25627  19.216  42.222   8.550
 5128POPC   C2B25628  19.203  42.176   8.250
 5128POPC   C3B25629  19.293  42.185   7.950
 5128POPC   C4B25630  19.218  42.164   7.650
 5129POPC   NC325631  43.103  40.757   9.450
 5129POPC   PO425632  43.129  40.789   9.150
 5129POPC   GL125633  43.142  40.811   8.850
 5129POPC   GL225634  43.024  40.776   8.850
 5129POPC   C1A25635  43.062  40.821   8.550
 5129POPC   D2A25636  43.092  40.818   8.250
 5129POPC   C3A25637  43.061  40.804   7.950
 5129POPC   C4A25638  43.084  40.787   7.650
 5129POPC   C1B25639  42.839  40.736   8.550
 5129POPC   C2B25640  42.859  40.644   8.250
 5129POPC   C3B25641  42.900  40.667   7.950
 5129POPC   C4B25642  42.852  40.700   7.650
 5130POPC   NC325643  13.648  28.415   9.450
 5130POPC   PO425644  13.590  28.322   9.150
 5130POPC   GL125645  13.663  28.368   8.850
 5130POPC   GL225646  13.491  28.282   8.850
 5130POPC   C1A25647  13.594  28.339   8.550
 5130POPC   D2A25648  13.665  28.387   8.250
 5130POPC   C3A25649  13.616  28.379   7.950
 5130POPC   C4A25650  13.634  28.389   7.650
 5130POPC   C1B25651  13.420  28.294   8.550
 5130POPC   C2B25652  13.438  28.254   8.250
 5130POPC   C3B25653  13.402  28.299   7.950
 5130POPC   C4B25654  13.354  28.307   7.650
 5131POPC   NC325655  26.021  22.910   9.450
 5131POPC   PO425656  26.085  22.926   9.150
 5131POPC   GL125657  26.072  22.974   8.850
 5131POPC   GL225658  26.036  22.770   8.850
 5131POPC   C1A25659  25.995  22.905   8.550
 5131POPC   D2A25660  26.057  22.894   8.250
 5131POPC   C3A25661  26.017  22.941   7.950
 5131POPC   C4A25662  26.080  22.977   7.650
 5131POPC   C1B25663  26.067  22.733   8.550
 5131POPC   C2B25664  26.092  22.682   8.250
 5131POPC   C3B25665  26.133  22.692   7.950
 5131POPC   C4B25666  26.145  22.705   7.650
 5132POPC   NC325667  22.892  41.554   9.450
 5132POPC   PO425668  22.935  41.538   9.150
 5132POPC   GL125669  22.957  41.565   8.850
 5132POPC   GL225670  23.063  41.444   8.850
 5132POPC   C1A25671  22.904  41.576   8.550
 5132POPC   D2A25672  22.942  41.587   8.250
 5132POPC   C3A25673  22.984  41.513   7.950
 5132POPC   C4A25674  22.972  41.561   7.650
 5132POPC   C1B25675  23.121  41.392   8.550
 5132POPC   C2B25676  23.112  41.362   8.250
 5132POPC   C3B25677  23.104  41.357   7.950
 5132POPC   C4B25678  23.080  41.371   7.650
 5133POPC   NC325679  12.840  36.158   9.450
 5133POPC   PO425680  12.832  36.113   9.150
 5133POPC   GL125681  12.838  36.103   8.850
 5133POPC   GL225682  12.902  36.283   8.850
 5133POPC   C1A25683  12.891  36.133   8.550
 5133POPC   D2A25684  12.896  36.111   8.250
 5133POPC   C3A25685  12.895  36.163   7.950
 5133POPC   C4A25686  12.899  36.093   7.650
 5133POPC   C1B25687  12.959  36.332   8.550
 5133POPC   C2B25688  12.969  36.310   8.250
 5133POPC   C3B25689  13.024  36.347   7.950
 5133POPC   C4B25690  12.942  36.315   7.650
 5134POPC   NC325691  21.427   5.879   9.450
 5134POPC   PO425692  21.391   5.894   9.150
 5134POPC   GL125693  21.354   5.832   8.850
 5134POPC   GL225694  21.527   5.830   8.850
 5134POPC   C1A25695  21.338   5.887   8.550
 5134POPC   D2A25696  21.353   5.850   8.250
 5134POPC   C3A25697  21.374   5.852   7.950
 5134POPC   C4A25698  21.354   5.863   7.650
 5134POPC   C1B25699  21.585   5.848   8.550
 5134POPC   C2B25700  21.601   5.783   8.250
 5134POPC   C3B25701  21.610   5.823   7.950
 5134POPC   C4B25702  21.627   5.849   7.650
 5135POPC   NC325703  28.397   7.386   9.450
 5135POPC   PO425704  28.419   7.408   9.150
 5135POPC   GL125705  28.367   7.451   8.850
 5135POPC   GL225706  28.514   7.370   8.850
 5135POPC   C1A25707  28.328   7.427   8.550
 5135POPC   D2A25708  28.336   7.441   8.250
 5135POPC   C3A25709  28.327   7.383   7.950
 5135POPC   C4A25710  28.328   7.434   7.650
 5135POPC   C1B25711  28.548   7.281   8.550
 5135POPC   C2B25712  28.587   7.339   8.250
 5135POPC   C3B25713  28.535   7.284   7.950
 5135POPC   C4B25714  28.595   7.273   7.650
 5136POPC   NC325715  33.060  37.726   9.450
 5136POPC   PO425716  33.028  37.643   9.150
 5136POPC   GL125717  33.072  37.725   8.850
 5136POPC   GL225718  33.150  37.573   8.850
 5136POPC   C1A25719  33.015  37.727   8.550
 5136POPC   D2A25720  33.072  37.727   8.250
 5136POPC   C3A25721  32.987  37.635   7.950
 5136POPC   C4A25722  33.065  37.686   7.650
 5136POPC   C1B25723  33.173  37.517   8.550
 5136POPC   C2B25724  33.174  37.483   8.250
 5136POPC   C3B25725  33.224  37.559   7.950
 5136POPC   C4B25726  33.229  37.472   7.650
 5137POPC   NC325727   3.514   6.648   9.450
 5137POPC   PO425728   3.580   6.603   9.150
 5137POPC   GL125729   3.577   6.608   8.850
 5137POPC   GL225730   3.401   6.667   8.850
 5137POPC   C1A25731   3.505   6.634   8.550
 5137POPC   D2A25732   3.554   6.661   8.250
 5137POPC   C3A25733   3.566   6.624   7.950
 5137POPC   C4A25734   3.591   6.669   7.650
 5137POPC   C1B25735   3.296   6.803   8.550
 5137POPC   C2B25736   3.360   6.775   8.250
 5137POPC   C3B25737   3.373   6.798   7.950
 5137POPC   C4B25738   3.347   6.743   7.650
 5138POPC   NC325739  12.039   5.069   9.450
 5138POPC   PO425740  12.112   5.048   9.150
 5138POPC   GL125741  12.078   5.092   8.850
 5138POPC   GL225742  12.081   4.934   8.850
 5138POPC   C1A25743  12.071   5.117   8.550
 5138POPC   D2A25744  12.090   5.117   8.250
 5138POPC   C3A25745  12.065   5.138   7.950
 5138POPC   C4A25746  12.124   5.070   7.650
 5138POPC   C1B25747  12.078   4.884   8.550
 5138POPC   C2B25748  12.056   4.801   8.250
 5138POPC   C3B25749  12.072   4.861   7.950
 5138POPC   C4B25750  12.051   4.809   7.650
 5139POPC   NC325751  33.024  35.319   9.450
 5139POPC   PO425752  32.983  35.320   9.150
 5139POPC   GL125753  33.011  35.353   8.850
 5139POPC   GL225754  33.110  35.309   8.850
 5139POPC   C1A25755  33.033  35.365   8.550
 5139POPC   D2A25756  33.035  35.400   8.250
 5139POPC   C3A25757  32.981  35.322   7.950
 5139POPC   C4A25758  33.039  35.351   7.650
 5139POPC   C1B25759  33.221  35.204   8.550
 5139POPC   C2B25760  33.202  35.226   8.250
 5139POPC   C3B25761  33.263  35.155   7.950
 5139POPC   C4B25762  33.188  35.191   7.650
 5140POPC   NC325763   6.598  16.701   9.450
 5140POPC   PO425764   6.685  16.759   9.150
 5140POPC   GL125765   6.599  16.780   8.850
 5140POPC   GL225766   6.474  16.711   8.850
 5140POPC   C1A25767   6.630  16.743   8.550
 5140POPC   D2A25768   6.693  16.743   8.250
 5140POPC   C3A25769   6.642  16.734   7.950
 5140POPC   C4A25770   6.653  16.731   7.650
 5140POPC   C1B25771   6.379  16.760   8.550
 5140POPC   C2B25772   6.350  16.732   8.250
 5140POPC   C3B25773   6.421  16.669   7.950
 5140POPC   C4B25774   6.401  16.675   7.650
 5141POPC   NC325775   7.438  43.902   9.450
 5141POPC   PO425776   7.457  43.936   9.150
 5141POPC   GL125777   7.451  43.876   8.850
 5141POPC   GL225778   7.595  43.894   8.850
 5141POPC   C1A25779   7.445  43.930   8.550
 5141POPC   D2A25780   7.457  43.928   8.250
 5141POPC   C3A25781   7.371  43.860   7.950
 5141POPC   C4A25782   7.451  43.861   7.650
 5141POPC   C1B25783   7.633  43.908   8.550
 5141POPC   C2B25784   7.656  43.935   8.250
 5141POPC   C3B25785   7.644  43.938   7.950
 5141POPC   C4B25786   7.647  43.949   7.650
 5142POPC   NC325787   0.454  27.583   9.450
 5142POPC   PO425788   0.404  27.574   9.150
 5142POPC   GL125789   0.451  27.597   8.850
 5142POPC   GL225790   0.425  27.676   8.850
 5142POPC   C1A25791   0.401  27.628   8.550
 5142POPC   D2A25792   0.484  27.575   8.250
 5142POPC   C3A25793   0.397  27.609   7.950
 5142POPC   C4A25794   0.427  27.618   7.650
 5142POPC   C1B25795   0.351  27.872   8.550
 5142POPC   C2B25796   0.313  27.856   8.250
 5142POPC   C3B25797   0.367  27.826   7.950
 5142POPC   C4B25798   0.365  27.815   7.650
 5143POPC   NC325799  26.034  34.575   9.450
 5143POPC   PO425800  25.995  34.600   9.150
 5143POPC   GL125801  26.090  34.542   8.850
 5143POPC   GL225802  26.028  34.422   8.850
 5143POPC   C1A25803  26.014  34.542   8.550
 5143POPC   D2A25804  26.033  34.546   8.250
 5143POPC   C3A25805  26.011  34.560   7.950
 5143POPC   C4A25806  26.030  34.578   7.650
 5143POPC   C1B25807  26.037  34.373   8.550
 5143POPC   C2B25808  26.021  34.317   8.250
 5143POPC   C3B25809  26.042  34.327   7.950
 5143POPC   C4B25810  26.028  34.365   7.650
 5144POPC   NC325811  31.493   8.166   9.450
 5144POPC   PO425812  31.520   8.230   9.150
 5144POPC   GL125813  31.468   8.152   8.850
 5144POPC   GL225814  31.574   8.179   8.850
 5144POPC   C1A25815  31.473   8.243   8.550
 5144POPC   D2A25816  31.446   8.205   8.250
 5144POPC   C3A25817  31.500   8.225   7.950
 5144POPC   C4A25818  31.441   8.204   7.650
 5144POPC   C1B25819  31.674   8.195   8.550
 5144POPC   C2B25820  31.752   8.224   8.250
 5144POPC   C3B25821  31.695   8.158   7.950
 5144POPC   C4B25822  31.759   8.160   7.650
 5145POPC   NC325823   2.783   6.604   9.450
 5145POPC   PO425824   2.724   6.596   9.150
 5145POPC   GL125825   2.763   6.629   8.850
 5145POPC   GL225826   2.698   6.719   8.850
 5145POPC   C1A25827   2.763   6.677   8.550
 5145POPC   D2A25828   2.785   6.648   8.250
 5145POPC   C3A25829   2.728   6.608   7.950
 5145POPC   C4A25830   2.770   6.677   7.650
 5145POPC   C1B25831   2.540   6.760   8.550
 5145POPC   C2B25832   2.595   6.834   8.250
 5145POPC   C3B25833   2.603   6.828   7.950
 5145POPC   C4B25834   2.565   6.802   7.650
 5146POPC   NC325835   8.222  43.144   9.450
 5146POPC   PO425836   8.227  43.147   9.150
 5146POPC   GL125837   8.203  43.061   8.850
 5146POPC   GL225838   8.216  43.283   8.850
 5146POPC   C1A25839   8.206  43.145   8.550
 5146POPC   D2A25840   8.164  43.130   8.250
 5146POPC   C3A25841   8.167  43.062   7.950
 5146POPC   C4A25842   8.168  43.119   7.650
 5146POPC   C1B25843   8.109  43.306   8.550
 5146POPC   C2B25844   8.154  43.387   8.250
 5146POPC   C3B25845   8.124  43.364   7.950
 5146POPC   C4B25846   8.156  43.331   7.650
 5147POPC   NC325847  32.266  27.629   9.450
 5147POPC   PO425848  32.218  27.602   9.150
 5147POPC   GL125849  32.250  27.616   8.850
 5147POPC   GL225850  32.360  27.473   8.850
 5147POPC   C1A25851  32.262  27.577   8.550
 5147POPC   D2A25852  32.290  27.592   8.250
 5147POPC   C3A25853  32.209  27.564   7.950
 5147POPC   C4A25854  32.268  27.547   7.650
 5147POPC   C1B25855  32.481  27.429   8.550
 5147POPC   C2B25856  32.422  27.422   8.250
 5147POPC   C3B25857  32.455  27.482   7.950
 5147POPC   C4B25858  32.416  27.410   7.650
 5148POPC   NC325859  34.546   5.111   9.450
 5148POPC   PO425860  34.586   5.083   9.150
 5148POPC   GL125861  34.546   5.125   8.850
 5148POPC   GL225862  34.507   5.013   8.850
 5148POPC   C1A25863  34.613   5.132   8.550
 5148POPC   D2A25864  34.590   5.131   8.250
 5148POPC   C3A25865  34.569   5.099   7.950
 5148POPC   C4A25866  34.624   5.080   7.650
 5148POPC   C1B25867  34.440   4.884   8.550
 5148POPC   C2B25868  34.425   4.868   8.250
 5148POPC   C3B25869  34.392   4.904   7.950
 5148POPC   C4B25870  34.450   4.863   7.650
 5149POPC   NC325871   5.830  43.912   9.450
 5149POPC   PO425872   5.853  43.837   9.150
 5149POPC   GL125873   5.889  43.893   8.850
 5149POPC   GL225874   5.762  43.929   8.850
 5149POPC   C1A25875   5.839  43.862   8.550
 5149POPC   D2A25876   5.911  43.906   8.250
 5149POPC   C3A25877   5.863  43.877   7.950
 5149POPC   C4A25878   5.868  43.856   7.650
 5149POPC   C1B25879   5.673  44.065   8.550
 5149POPC   C2B25880   5.629  44.033   8.250
 5149POPC   C3B25881   5.686  44.073   7.950
 5149POPC   C4B25882   5.703  43.987   7.650
 5150POPC   NC325883   8.972  25.263   9.450
 5150POPC   PO425884   8.935  25.312   9.150
 5150POPC   GL125885   9.001  25.314   8.850
 5150POPC   GL225886   8.805  25.245   8.850
 5150POPC   C1A25887   8.949  25.307   8.550
 5150POPC   D2A25888   8.999  25.226   8.250
 5150POPC   C3A25889   8.982  25.291   7.950
 5150POPC   C4A25890   8.975  25.248   7.650
 5150POPC   C1B25891   8.765  25.191   8.550
 5150POPC   C2B25892   8.742  25.218   8.250
 5150POPC   C3B25893   8.748  25.237   7.950
 5150POPC   C4B25894   8.715  25.205   7.650
 5151POPC   NC325895  13.641  44.643   9.450
 5151POPC   PO425896  13.612  44.621   9.150
 5151POPC   GL125897  13.627  44.639   8.850
 5151POPC   GL225898  13.705  44.603   8.850
 5151POPC   C1A25899  13.600  44.621   8.550
 5151POPC   D2A25900  13.624  44.688   8.250
 5151POPC   C3A25901  13.658  44.684   7.950
 5151POPC   C4A25902  13.642  44.666   7.650
 5151POPC   C1B25903  13.908  44.649   8.550
 5151POPC   C2B25904  13.848  44.668   8.250
 5151POPC   C3B25905  13.859  44.660   7.950
 5151POPC   C4B25906  13.880  44.632   7.650
 5152POPC   NC325907  29.932  39.991   9.450
 5152POPC   PO425908  29.918  39.996   9.150
 5152POPC   GL125909  29.933  39.989   8.850
 5152POPC   GL225910  29.787  40.070   8.850
 5152POPC   C1A25911  29.965  40.055   8.550
 5152POPC   D2A25912  29.893  40.002   8.250
 5152POPC   C3A25913  29.899  40.019   7.950
 5152POPC   C4A25914  29.921  40.003   7.650
 5152POPC   C1B25915  29.654  40.072   8.550
 5152POPC   C2B25916  29.639  40.051   8.250
 5152POPC   C3B25917  29.646  40.072   7.950
 5152POPC   C4B25918  29.649  40.054   7.650
 5153POPC   NC325919  10.499   0.402   9.450
 5153POPC   PO425920  10.532   0.479   9.150
 5153POPC   GL125921  10.519   0.468   8.850
 5153POPC   GL225922  10.486   0.537   8.850
 5153POPC   C1A25923  10.489   0.399   8.550
 5153POPC   D2A25924  10.554   0.416   8.250
 5153POPC   C3A25925  10.511   0.413   7.950
 5153POPC   C4A25926  10.477   0.479   7.650
 5153POPC   C1B25927  10.416   0.617   8.550
 5153POPC   C2B25928  10.385   0.615   8.250
 5153POPC   C3B25929  10.398   0.645   7.950
 5153POPC   C4B25930  10.413   0.648   7.650
 5154POPC   NC325931  26.055  37.678   9.450
 5154POPC   PO425932  26.062  37.716   9.150
 5154POPC   GL125933  26.073  37.631   8.850
 5154POPC   GL225934  25.895  37.722   8.850
 5154POPC   C1A25935  26.061  37.663   8.550
 5154POPC   D2A25936  26.002  37.695   8.250
 5154POPC   C3A25937  26.070  37.638   7.950
 5154POPC   C4A25938  26.046  37.649   7.650
 5154POPC   C1B25939  25.807  37.780   8.550
 5154POPC   C2B25940  25.778  37.701   8.250
 5154POPC   C3B25941  25.816  37.717   7.950
 5154POPC   C4B25942  25.768  37.762   7.650
 5155POPC   NC325943  25.263   5.881   9.450
 5155POPC   PO425944  25.278   5.832   9.150
 5155POPC   GL125945  25.311   5.886   8.850
 5155POPC   GL225946  25.155   5.900   8.850
 5155POPC   C1A25947  25.301   5.834   8.550
 5155POPC   D2A25948  25.263   5.842   8.250
 5155POPC   C3A25949  25.222   5.879   7.950
 5155POPC   C4A25950  25.231   5.849   7.650
 5155POPC   C1B25951  25.031   5.982   8.550
 5155POPC   C2B25952  24.984   5.911   8.250
 5155POPC   C3B25953  24.993   5.947   7.950
 5155POPC   C4B25954  25.018   5.973   7.650
 5156POPC   NC325955   9.786  22.134   9.450
 5156POPC   PO425956   9.706  22.167   9.150
 5156POPC   GL125957   9.763  22.188   8.850
 5156POPC   GL225958   9.823  22.056   8.850
 5156POPC   C1A25959   9.752  22.186   8.550
 5156POPC   D2A25960   9.753  22.148   8.250
 5156POPC   C3A25961   9.755  22.136   7.950
 5156POPC   C4A25962   9.706  22.143   7.650
 5156POPC   C1B25963   9.960  22.035   8.550
 5156POPC   C2B25964   9.959  22.063   8.250
 5156POPC   C3B25965   9.957  22.012   7.950
 5156POPC   C4B25966   9.922  22.035   7.650
 5157POPC   NC325967   9.712  29.965   9.450
 5157POPC   PO425968   9.791  29.960   9.150
 5157POPC   GL125969   9.699  29.925   8.850
 5157POPC   GL225970   9.691  29.825   8.850
 5157POPC   C1A25971   9.719  29.896   8.550
 5157POPC   D2A25972   9.760  29.943   8.250
 5157POPC   C3A25973   9.737  29.871   7.950
 5157POPC   C4A25974   9.792  29.903   7.650
 5157POPC   C1B25975   9.645  29.657   8.550
 5157POPC   C2B25976   9.658  29.689   8.250
 5157POPC   C3B25977   9.608  29.749   7.950
 5157POPC   C4B25978   9.676  29.675   7.650
 5158POPC   NC325979  29.102  23.733   9.450
 5158POPC   PO425980  29.116  23.688   9.150
 5158POPC   GL125981  29.170  23.763   8.850
 5158POPC   GL225982  29.044  23.744   8.850
 5158POPC   C1A25983  29.101  23.679   8.550
 5158POPC   D2A25984  29.137  23.734   8.250
 5158POPC   C3A25985  29.134  23.716   7.950
 5158POPC   C4A25986  29.157  23.719   7.650
 5158POPC   C1B25987  28.858  23.665   8.550
 5158POPC   C2B25988  28.926  23.715   8.250
 5158POPC   C3B25989  28.897  23.680   7.950
 5158POPC   C4B25990  28.858  23.712   7.650
 5159POPC   NC325991  26.799  27.573   9.450
 5159POPC   PO425992  26.818  27.544   9.150
 5159POPC   GL125993  26.860  27.623   8.850
 5159POPC   GL225994  26.797  27.751   8.850
 5159POPC   C1A25995  26.781  27.596   8.550
 5159POPC   D2A25996  26.843  27.624   8.250
 5159POPC   C3A25997  26.796  27.583   7.950
 5159POPC   C4A25998  26.865  27.638   7.650
 5159POPC   C1B25999  26.727  27.820   8.550
 5159POPC   C2B26000  26.712  27.804   8.250
 5159POPC   C3B26001  26.669  27.854   7.950
 5159POPC   C4B26002  26.723  27.768   7.650
 5160POPC   NC326003  23.745   1.174   9.450
 5160POPC   PO426004  23.732   1.257   9.150
 5160POPC   GL126005  23.728   1.175   8.850
 5160POPC   GL226006  23.635   1.105   8.850
 5160POPC   C1A26007  23.699   1.205   8.550
 5160POPC   D2A26008  23.707   1.255   8.250
 5160POPC   C3A26009  23.676   1.263   7.950
 5160POPC   C4A26010  23.712   1.253   7.650
 5160POPC   C1B26011  23.548   1.022   8.550
 5160POPC   C2B26012  23.538   1.034   8.250
 5160POPC   C3B26013  23.506   1.079   7.950
 5160POPC   C4B26014  23.519   1.084   7.650
 5161POPC   NC326015  26.865  25.238   9.450
 5161POPC   PO426016  26.768  25.231   9.150
 5161POPC   GL126017  26.851  25.308   8.850
 5161POPC   GL226018  26.943  25.314   8.850
 5161POPC   C1A26019  26.773  25.252   8.550
 5161POPC   D2A26020  26.802  25.302   8.250
 5161POPC   C3A26021  26.816  25.250   7.950
 5161POPC   C4A26022  26.840  25.268   7.650
 5161POPC   C1B26023  27.020  25.412   8.550
 5161POPC   C2B26024  26.978  25.415   8.250
 5161POPC   C3B26025  26.976  25.457   7.950
 5161POPC   C4B26026  26.938  25.453   7.650
 5162POPC   NC326027  16.695  40.029   9.450
 5162POPC   PO426028  16.775  40.013   9.150
 5162POPC   GL126029  16.719  40.010   8.850
 5162POPC   GL226030  16.832  40.131   8.850
 5162POPC   C1A26031  16.775  40.056   8.550
 5162POPC   D2A26032  16.776  40.047   8.250
 5162POPC   C3A26033  16.739  39.979   7.950
 5162POPC   C4A26034  16.750  40.050   7.650
 5162POPC   C1B26035  16.912  40.245   8.550
 5162POPC   C2B26036  16.887  40.197   8.250
 5162POPC   C3B26037  16.842  40.232   7.950
 5162POPC   C4B26038  16.829  40.214   7.650
 5163POPC   NC326039  15.939  29.929   9.450
 5163POPC   PO426040  15.970  29.947   9.150
 5163POPC   GL126041  15.933  29.886   8.850
 5163POPC   GL226042  15.906  29.840   8.850
 5163POPC   C1A26043  15.953  29.919   8.550
 5163POPC   D2A26044  15.972  29.879   8.250
 5163POPC   C3A26045  15.976  29.892   7.950
 5163POPC   C4A26046  15.983  29.906   7.650
 5163POPC   C1B26047  15.770  29.763   8.550
 5163POPC   C2B26048  15.819  29.720   8.250
 5163POPC   C3B26049  15.791  29.694   7.950
 5163POPC   C4B26050  15.801  29.778   7.650
 5164POPC   NC326051  42.325  12.835   9.450
 5164POPC   PO426052  42.313  12.834   9.150
 5164POPC   GL126053  42.358  12.886   8.850
 5164POPC   GL226054  42.211  12.916   8.850
 5164POPC   C1A26055  42.365  12.853   8.550
 5164POPC   D2A26056  42.316  12.803   8.250
 5164POPC   C3A26057  42.384  12.842   7.950
 5164POPC   C4A26058  42.375  12.887   7.650
 5164POPC   C1B26059  42.117  12.910   8.550
 5164POPC   C2B26060  42.074  12.982   8.250
 5164POPC   C3B26061  42.090  12.929   7.950
 5164POPC   C4B26062  42.141  12.969   7.650
 5165POPC   NC326063  26.857   0.415   9.450
 5165POPC   PO426064  26.815   0.406   9.150
 5165POPC   GL126065  26.818   0.406   8.850
 5165POPC   GL226066  26.880   0.333   8.850
 5165POPC   C1A26067  26.855   0.444   8.550
 5165POPC   D2A26068  26.848   0.395   8.250
 5165POPC   C3A26069  26.840   0.478   7.950
 5165POPC   C4A26070  26.822   0.457   7.650
 5165POPC   C1B26071  27.014   0.273   8.550
 5165POPC   C2B26072  27.029   0.338   8.250
 5165POPC   C3B26073  26.996   0.286   7.950
 5165POPC   C4B26074  27.037   0.321   7.650
 5166POPC   NC326075  34.598   0.487   9.450
 5166POPC   PO426076  34.579   0.409   9.150
 5166POPC   GL126077  34.583   0.408   8.850
 5166POPC   GL226078  34.710   0.441   8.850
 5166POPC   C1A26079  34.534   0.460   8.550
 5166POPC   D2A26080  34.562   0.416   8.250
 5166POPC   C3A26081  34.597   0.401   7.950
 5166POPC   C4A26082  34.595   0.477   7.650
 5166POPC   C1B26083  34.828   0.438   8.550
 5166POPC   C2B26084  34.823   0.457   8.250
 5166POPC   C3B26085  34.794   0.453   7.950
 5166POPC   C4B26086  34.793   0.382   7.650
 5167POPC   NC326087  24.512   6.606   9.450
 5167POPC   PO426088  24.502   6.635   9.150
 5167POPC   GL126089  24.464   6.604   8.850
 5167POPC   GL226090  24.558   6.761   8.850
 5167POPC   C1A26091  24.507   6.603   8.550
 5167POPC   D2A26092  24.507   6.664   8.250
 5167POPC   C3A26093  24.485   6.614   7.950
 5167POPC   C4A26094  24.503   6.612   7.650
 5167POPC   C1B26095  24.598   6.860   8.550
 5167POPC   C2B26096  24.632   6.837   8.250
 5167POPC   C3B26097  24.602   6.850   7.950
 5167POPC   C4B26098  24.609   6.824   7.650
 5168POPC   NC326099   3.549  42.340   9.450
 5168POPC   PO426100   3.535  42.353   9.150
 5168POPC   GL126101   3.582  42.309   8.850
 5168POPC   GL226102   3.401  42.291   8.850
 5168POPC   C1A26103   3.522  42.370   8.550
 5168POPC   D2A26104   3.508  42.370   8.250
 5168POPC   C3A26105   3.583  42.296   7.950
 5168POPC   C4A26106   3.520  42.338   7.650
 5168POPC   C1B26107   3.332  42.328   8.550
 5168POPC   C2B26108   3.316  42.306   8.250
 5168POPC   C3B26109   3.270  42.298   7.950
 5168POPC   C4B26110   3.330  42.262   7.650
 5169POPC   NC326111  37.683  19.091   9.450
 5169POPC   PO426112  37.721  19.051   9.150
 5169POPC   GL126113  37.681  19.087   8.850
 5169POPC   GL226114  37.564  19.067   8.850
 5169POPC   C1A26115  37.662  19.106   8.550
 5169POPC   D2A26116  37.718  19.013   8.250
 5169POPC   C3A26117  37.699  19.016   7.950
 5169POPC   C4A26118  37.687  19.040   7.650
 5169POPC   C1B26119  37.460  19.118   8.550
 5169POPC   C2B26120  37.484  19.108   8.250
 5169POPC   C3B26121  37.452  19.135   7.950
 5169POPC   C4B26122  37.482  19.170   7.650
 5170POPC   NC326123  40.801  18.324   9.450
 5170POPC   PO426124  40.788  18.290   9.150
 5170POPC   GL126125  40.806  18.319   8.850
 5170POPC   GL226126  40.888  18.171   8.850
 5170POPC   C1A26127  40.771  18.281   8.550
 5170POPC   D2A26128  40.752  18.286   8.250
 5170POPC   C3A26129  40.738  18.319   7.950
 5170POPC   C4A26130  40.801  18.298   7.650
 5170POPC   C1B26131  40.879  18.078   8.550
 5170POPC   C2B26132  40.864  18.094   8.250
 5170POPC   C3B26133  40.898  18.049   7.950
 5170POPC   C4B26134  40.941  18.017   7.650
 5171POPC   NC326135   0.451  36.127   9.450
 5171POPC   PO426136   0.443  36.147   9.150
 5171POPC   GL126137   0.430  36.174   8.850
 5171POPC   GL226138   0.595  36.075   8.850
 5171POPC   C1A26139   0.388  36.121   8.550
 5171POPC   D2A26140   0.487  36.096   8.250
 5171POPC   C3A26141   0.438  36.100   7.950
 5171POPC   C4A26142   0.447  36.177   7.650
 5171POPC   C1B26143   0.667  36.093   8.550
 5171POPC   C2B26144   0.630  36.099   8.250
 5171POPC   C3B26145   0.724  36.073   7.950
 5171POPC   C4B26146   0.730  36.076   7.650
 5172POPC   NC326147   5.834  26.034   9.450
 5172POPC   PO426148   5.899  26.017   9.150
 5172POPC   GL126149   5.904  26.062   8.850
 5172POPC   GL226150   5.940  26.084   8.850
 5172POPC   C1A26151   5.866  26.072   8.550
 5172POPC   D2A26152   5.872  26.004   8.250
 5172POPC   C3A26153   5.872  26.017   7.950
 5172POPC   C4A26154   5.845  26.061   7.650
 5172POPC   C1B26155   6.116  26.188   8.550
 5172POPC   C2B26156   6.078  26.147   8.250
 5172POPC   C3B26157   6.104  26.134   7.950
 5172POPC   C4B26158   6.062  26.205   7.650
 5173POPC   NC326159   3.568  15.906   9.450
 5173POPC   PO426160   3.523  15.994   9.150
 5173POPC   GL126161   3.500  15.946   8.850
 5173POPC   GL226162   3.585  15.870   8.850
 5173POPC   C1A26163   3.586  15.924   8.550
 5173POPC   D2A26164   3.497  15.993   8.250
 5173POPC   C3A26165   3.552  15.969   7.950
 5173POPC   C4A26166   3.558  15.928   7.650
 5173POPC   C1B26167   3.677  15.703   8.550
 5173POPC   C2B26168   3.660  15.698   8.250
 5173POPC   C3B26169   3.625  15.722   7.950
 5173POPC   C4B26170   3.626  15.762   7.650
 5174POPC   NC326171   8.974  11.320   9.450
 5174POPC   PO426172   8.991  11.338   9.150
 5174POPC   GL126173   8.929  11.303   8.850
 5174POPC   GL226174   8.848  11.270   8.850
 5174POPC   C1A26175   8.982  11.324   8.550
 5174POPC   D2A26176   8.970  11.320   8.250
 5174POPC   C3A26177   8.924  11.330   7.950
 5174POPC   C4A26178   8.927  11.264   7.650
 5174POPC   C1B26179   8.736  11.306   8.550
 5174POPC   C2B26180   8.715  11.308   8.250
 5174POPC   C3B26181   8.718  11.283   7.950
 5174POPC   C4B26182   8.738  11.270   7.650
 5175POPC   NC326183   2.752  32.263   9.450
 5175POPC   PO426184   2.754  32.263   9.150
 5175POPC   GL126185   2.770  32.270   8.850
 5175POPC   GL226186   2.806  32.331   8.850
 5175POPC   C1A26187   2.809  32.257   8.550
 5175POPC   D2A26188   2.733  32.220   8.250
 5175POPC   C3A26189   2.759  32.222   7.950
 5175POPC   C4A26190   2.737  32.252   7.650
 5175POPC   C1B26191   2.878  32.480   8.550
 5175POPC   C2B26192   2.876  32.480   8.250
 5175POPC   C3B26193   2.797  32.515   7.950
 5175POPC   C4B26194   2.840  32.481   7.650
 5176POPC   NC326195   4.363   9.787   9.450
 5176POPC   PO426196   4.298   9.706   9.150
 5176POPC   GL126197   4.285   9.755   8.850
 5176POPC   GL226198   4.423   9.708   8.850
 5176POPC   C1A26199   4.298   9.783   8.550
 5176POPC   D2A26200   4.360   9.747   8.250
 5176POPC   C3A26201   4.331   9.783   7.950
 5176POPC   C4A26202   4.308   9.717   7.650
 5176POPC   C1B26203   4.565   9.759   8.550
 5176POPC   C2B26204   4.536   9.762   8.250
 5176POPC   C3B26205   4.523   9.742   7.950
 5176POPC   C4B26206   4.593   9.769   7.650
 5177POPC   NC326207   8.244  43.866   9.450
 5177POPC   PO426208   8.221  43.894   9.150
 5177POPC   GL126209   8.184  43.908   8.850
 5177POPC   GL226210   8.154  43.805   8.850
 5177POPC   C1A26211   8.174  43.901   8.550
 5177POPC   D2A26212   8.159  43.899   8.250
 5177POPC   C3A26213   8.245  43.881   7.950
 5177POPC   C4A26214   8.229  43.904   7.650
 5177POPC   C1B26215   8.066  43.630   8.550
 5177POPC   C2B26216   8.100  43.658   8.250
 5177POPC   C3B26217   8.133  43.644   7.950
 5177POPC   C4B26218   8.117  43.695   7.650
 5178POPC   NC326219  36.921  36.149   9.450
 5178POPC   PO426220  36.920  36.088   9.150
 5178POPC   GL126221  36.860  36.089   8.850
 5178POPC   GL226222  36.800  36.060   8.850
 5178POPC   C1A26223  36.914  36.151   8.550
 5178POPC   D2A26224  36.873  36.084   8.250
 5178POPC   C3A26225  36.872  36.171   7.950
 5178POPC   C4A26226  36.892  36.132   7.650
 5178POPC   C1B26227  36.696  35.982   8.550
 5178POPC   C2B26228  36.650  35.973   8.250
 5178POPC   C3B26229  36.721  35.947   7.950
 5178POPC   C4B26230  36.662  36.031   7.650
 5179POPC   NC326231   4.327  34.561   9.450
 5179POPC   PO426232   4.340  34.585   9.150
 5179POPC   GL126233   4.351  34.584   8.850
 5179POPC   GL226234   4.195  34.488   8.850
 5179POPC   C1A26235   4.343  34.561   8.550
 5179POPC   D2A26236   4.312  34.612   8.250
 5179POPC   C3A26237   4.281  34.540   7.950
 5179POPC   C4A26238   4.326  34.600   7.650
 5179POPC   C1B26239   4.177  34.410   8.550
 5179POPC   C2B26240   4.145  34.409   8.250
 5179POPC   C3B26241   4.205  34.410   7.950
 5179POPC   C4B26242   4.123  34.397   7.650
 5180POPC   NC326243  29.939  14.410   9.450
 5180POPC   PO426244  29.878  14.382   9.150
 5180POPC   GL126245  29.927  14.380   8.850
 5180POPC   GL226246  29.959  14.480   8.850
 5180POPC   C1A26247  29.961  14.409   8.550
 5180POPC   D2A26248  29.957  14.444   8.250
 5180POPC   C3A26249  29.879  14.435   7.950
 5180POPC   C4A26250  29.936  14.374   7.650
 5180POPC   C1B26251  29.926  14.618   8.550
 5180POPC   C2B26252  29.949  14.614   8.250
 5180POPC   C3B26253  29.882  14.694   7.950
 5180POPC   C4B26254  29.976  14.688   7.650
 5181POPC   NC326255  43.062   1.957   9.450
 5181POPC   PO426256  43.081   1.982   9.150
 5181POPC   GL126257  43.120   1.958   8.850
 5181POPC   GL226258  43.004   2.075   8.850
 5181POPC   C1A26259  43.063   2.001   8.550
 5181POPC   D2A26260  43.128   2.008   8.250
 5181POPC   C3A26261  43.136   1.951   7.950
 5181POPC   C4A26262  43.157   2.002   7.650
 5181POPC   C1B26263  42.920   2.166   8.550
 5181POPC   C2B26264  42.967   2.185   8.250
 5181POPC   C3B26265  42.975   2.157   7.950
 5181POPC   C4B26266  42.987   2.179   7.650
 5182POPC   NC326267   7.395  37.716   9.450
 5182POPC   PO426268   7.390  37.633   9.150
 5182POPC   GL126269   7.413  37.632   8.850
 5182POPC   GL226270   7.511  37.615   8.850
 5182POPC   C1A26271   7.463  37.673   8.550
 5182POPC   D2A26272   7.420  37.716   8.250
 5182POPC   C3A26273   7.384  37.723   7.950
 5182POPC   C4A26274   7.420  37.729   7.650
 5182POPC   C1B26275   7.593  37.546   8.550
 5182POPC   C2B26276   7.563  37.510   8.250
 5182POPC   C3B26277   7.636  37.547   7.950
 5182POPC   C4B26278   7.575  37.512   7.650
 5183POPC   NC326279   9.711  43.149   9.450
 5183POPC   PO426280   9.787  43.071   9.150
 5183POPC   GL126281   9.748  43.136   8.850
 5183POPC   GL226282   9.623  43.190   8.850
 5183POPC   C1A26283   9.791  43.119   8.550
 5183POPC   D2A26284   9.702  43.095   8.250
 5183POPC   C3A26285   9.713  43.068   7.950
 5183POPC   C4A26286   9.714  43.097   7.650
 5183POPC   C1B26287   9.615  43.323   8.550
 5183POPC   C2B26288   9.565  43.258   8.250
 5183POPC   C3B26289   9.559  43.333   7.950
 5183POPC   C4B26290   9.539  43.312   7.650
 5184POPC   NC326291   5.132  38.487   9.450
 5184POPC   PO426292   5.065  38.465   9.150
 5184POPC   GL126293   5.085  38.477   8.850
 5184POPC   GL226294   5.151  38.294   8.850
 5184POPC   C1A26295   5.068  38.482   8.550
 5184POPC   D2A26296   5.119  38.461   8.250
 5184POPC   C3A26297   5.104  38.479   7.950
 5184POPC   C4A26298   5.063  38.422   7.650
 5184POPC   C1B26299   5.104  38.225   8.550
 5184POPC   C2B26300   5.169  38.237   8.250
 5184POPC   C3B26301   5.121  38.254   7.950
 5184POPC   C4B26302   5.162  38.198   7.650
 5185POPC   NC326303  44.666  19.842   9.450
 5185POPC   PO426304  44.707  19.851   9.150
 5185POPC   GL126305  44.650  19.794   8.850
 5185POPC   GL226306  44.736  19.812   8.850
 5185POPC   C1A26307  44.677  19.843   8.550
 5185POPC   D2A26308  44.616  19.803   8.250
 5185POPC   C3A26309  44.670  19.841   7.950
 5185POPC   C4A26310  44.647  19.872   7.650
 5185POPC   C1B26311  44.890  19.775   8.550
 5185POPC   C2B26312  44.859  19.777   8.250
 5185POPC   C3B26313  44.881  19.727   7.950
 5185POPC   C4B26314  44.883  19.701   7.650
 5186POPC   NC326315  44.619  36.168   9.450
 5186POPC   PO426316  44.666  36.116   9.150
 5186POPC   GL126317  44.681  36.104   8.850
 5186POPC   GL226318  44.726  36.217   8.850
 5186POPC   C1A26319  44.681  36.128   8.550
 5186POPC   D2A26320  44.621  36.153   8.250
 5186POPC   C3A26321  44.626  36.171   7.950
 5186POPC   C4A26322  44.640  36.162   7.650
 5186POPC   C1B26323  44.687  36.338   8.550
 5186POPC   C2B26324  44.665  36.332   8.250
 5186POPC   C3B26325  44.708  36.387   7.950
 5186POPC   C4B26326  44.660  36.340   7.650
 5187POPC   NC326327  26.825  26.063   9.450
 5187POPC   PO426328  26.780  26.006   9.150
 5187POPC   GL126329  26.837  26.020   8.850
 5187POPC   GL226330  26.909  26.066   8.850
 5187POPC   C1A26331  26.859  26.077   8.550
 5187POPC   D2A26332  26.851  26.060   8.250
 5187POPC   C3A26333  26.789  26.022   7.950
 5187POPC   C4A26334  26.835  26.026   7.650
 5187POPC   C1B26335  27.061  26.114   8.550
 5187POPC   C2B26336  27.056  26.045   8.250
 5187POPC   C3B26337  27.030  26.100   7.950
 5187POPC   C4B26338  27.043  26.132   7.650
 5188POPC   NC326339  40.776   9.738   9.450
 5188POPC   PO426340  40.747   9.752   9.150
 5188POPC   GL126341  40.780   9.783   8.850
 5188POPC   GL226342  40.892   9.841   8.850
 5188POPC   C1A26343  40.818   9.720   8.550
 5188POPC   D2A26344  40.805   9.731   8.250
 5188POPC   C3A26345  40.830   9.784   7.950
 5188POPC   C4A26346  40.810   9.788   7.650
 5188POPC   C1B26347  40.946   9.975   8.550
 5188POPC   C2B26348  40.974   9.940   8.250
 5188POPC   C3B26349  40.909   9.891   7.950
 5188POPC   C4B26350  40.914   9.884   7.650
 5189POPC   NC326351  41.603  22.123   9.450
 5189POPC   PO426352  41.596  22.150   9.150
 5189POPC   GL126353  41.601  22.183   8.850
 5189POPC   GL226354  41.466  22.275   8.850
 5189POPC   C1A26355  41.541  22.180   8.550
 5189POPC   D2A26356  41.595  22.123   8.250
 5189POPC   C3A26357  41.559  22.125   7.950
 5189POPC   C4A26358  41.514  22.127   7.650
 5189POPC   C1B26359  41.485  22.396   8.550
 5189POPC   C2B26360  41.495  22.408   8.250
 5189POPC   C3B26361  41.488  22.415   7.950
 5189POPC   C4B26362  41.448  22.377   7.650
 5190POPC   NC326363   3.494  14.432   9.450
 5190POPC   PO426364   3.497  14.430   9.150
 5190POPC   GL126365   3.544  14.378   8.850
 5190POPC   GL226366   3.620  14.472   8.850
 5190POPC   C1A26367   3.563  14.397   8.550
 5190POPC   D2A26368   3.564  14.419   8.250
 5190POPC   C3A26369   3.513  14.445   7.950
 5190POPC   C4A26370   3.507  14.419   7.650
 5190POPC   C1B26371   3.645  14.607   8.550
 5190POPC   C2B26372   3.624  14.630   8.250
 5190POPC   C3B26373   3.621  14.583   7.950
 5190POPC   C4B26374   3.692  14.580   7.650
 5191POPC   NC326375  43.117  33.063   9.450
 5191POPC   PO426376  43.119  32.979   9.150
 5191POPC   GL126377  43.070  33.042   8.850
 5191POPC   GL226378  43.202  32.962   8.850
 5191POPC   C1A26379  43.075  33.031   8.550
 5191POPC   D2A26380  43.103  33.043   8.250
 5191POPC   C3A26381  43.082  33.049   7.950
 5191POPC   C4A26382  43.156  33.051   7.650
 5191POPC   C1B26383  43.222  32.814   8.550
 5191POPC   C2B26384  43.275  32.831   8.250
 5191POPC   C3B26385  43.202  32.760   7.950
 5191POPC   C4B26386  43.279  32.800   7.650
 5192POPC   NC326387  36.139  33.031   9.450
 5192POPC   PO426388  36.088  33.064   9.150
 5192POPC   GL126389  36.138  32.995   8.850
 5192POPC   GL226390  36.056  32.917   8.850
 5192POPC   C1A26391  36.108  33.037   8.550
 5192POPC   D2A26392  36.164  33.068   8.250
 5192POPC   C3A26393  36.085  33.028   7.950
 5192POPC   C4A26394  36.168  33.042   7.650
 5192POPC   C1B26395  35.921  32.874   8.550
 5192POPC   C2B26396  35.965  32.858   8.250
 5192POPC   C3B26397  35.919  32.874   7.950
 5192POPC   C4B26398  35.947  32.873   7.650
 5193POPC   NC326399  13.611  13.597   9.450
 5193POPC   PO426400  13.662  13.651   9.150
 5193POPC   GL126401  13.648  13.624   8.850
 5193POPC   GL226402  13.729  13.708   8.850
 5193POPC   C1A26403  13.665  13.666   8.550
 5193POPC   D2A26404  13.622  13.644   8.250
 5193POPC   C3A26405  13.619  13.631   7.950
 5193POPC   C4A26406  13.669  13.636   7.650
 5193POPC   C1B26407  13.714  13.874   8.550
 5193POPC   C2B26408  13.761  13.892   8.250
 5193POPC   C3B26409  13.769  13.866   7.950
 5193POPC   C4B26410  13.731  13.872   7.650
 5194POPC   NC326411  14.370  15.214   9.450
 5194POPC   PO426412  14.408  15.229   9.150
 5194POPC   GL126413  14.429  15.155   8.850
 5194POPC   GL226414  14.382  15.026   8.850
 5194POPC   C1A26415  14.411  15.220   8.550
 5194POPC   D2A26416  14.416  15.131   8.250
 5194POPC   C3A26417  14.435  15.177   7.950
 5194POPC   C4A26418  14.359  15.144   7.650
 5194POPC   C1B26419  14.401  14.918   8.550
 5194POPC   C2B26420  14.395  14.938   8.250
 5194POPC   C3B26421  14.355  14.888   7.950
 5194POPC   C4B26422  14.449  14.958   7.650
 5195POPC   NC326423   9.724   7.465   9.450
 5195POPC   PO426424   9.707   7.428   9.150
 5195POPC   GL126425   9.711   7.410   8.850
 5195POPC   GL226426   9.814   7.512   8.850
 5195POPC   C1A26427   9.741   7.466   8.550
 5195POPC   D2A26428   9.707   7.394   8.250
 5195POPC   C3A26429   9.769   7.451   7.950
 5195POPC   C4A26430   9.752   7.459   7.650
 5195POPC   C1B26431   9.952   7.572   8.550
 5195POPC   C2B26432   9.926   7.590   8.250
 5195POPC   C3B26433   9.920   7.660   7.950
 5195POPC   C4B26434   9.866   7.595   7.650
 5196POPC   NC326435  17.472   8.157   9.450
 5196POPC   PO426436  17.515   8.168   9.150
 5196POPC   GL126437  17.497   8.190   8.850
 5196POPC   GL226438  17.481   8.340   8.850
 5196POPC   C1A26439  17.473   8.229   8.550
 5196POPC   D2A26440  17.519   8.175   8.250
 5196POPC   C3A26441  17.499   8.177   7.950
 5196POPC   C4A26442  17.520   8.235   7.650
 5196POPC   C1B26443  17.495   8.469   8.550
 5196POPC   C2B26444  17.544   8.454   8.250
 5196POPC   C3B26445  17.518   8.449   7.950
 5196POPC   C4B26446  17.511   8.491   7.650
 5197POPC   NC326447   5.915  39.210   9.450
 5197POPC   PO426448   5.870  39.278   9.150
 5197POPC   GL126449   5.873  39.270   8.850
 5197POPC   GL226450   5.860  39.317   8.850
 5197POPC   C1A26451   5.905  39.262   8.550
 5197POPC   D2A26452   5.858  39.237   8.250
 5197POPC   C3A26453   5.868  39.202   7.950
 5197POPC   C4A26454   5.862  39.225   7.650
 5197POPC   C1B26455   5.948  39.526   8.550
 5197POPC   C2B26456   5.891  39.511   8.250
 5197POPC   C3B26457   5.875  39.447   7.950
 5197POPC   C4B26458   5.913  39.522   7.650
 5198POPC   NC326459  20.611  13.658   9.450
 5198POPC   PO426460  20.637  13.676   9.150
 5198POPC   GL126461  20.634  13.662   8.850
 5198POPC   GL226462  20.693  13.729   8.850
 5198POPC   C1A26463  20.647  13.583   8.550
 5198POPC   D2A26464  20.589  13.660   8.250
 5198POPC   C3A26465  20.613  13.627   7.950
 5198POPC   C4A26466  20.569  13.627   7.650
 5198POPC   C1B26467  20.722  13.797   8.550
 5198POPC   C2B26468  20.736  13.790   8.250
 5198POPC   C3B26469  20.740  13.796   7.950
 5198POPC   C4B26470  20.747  13.861   7.650
 5199POPC   NC326471  27.622   8.228   9.450
 5199POPC   PO426472  27.594   8.197   9.150
 5199POPC   GL126473  27.587   8.165   8.850
 5199POPC   GL226474  27.543   8.320   8.850
 5199POPC   C1A26475  27.633   8.164   8.550
 5199POPC   D2A26476  27.626   8.198   8.250
 5199POPC   C3A26477  27.571   8.208   7.950
 5199POPC   C4A26478  27.582   8.174   7.650
 5199POPC   C1B26479  27.395   8.348   8.550
 5199POPC   C2B26480  27.425   8.410   8.250
 5199POPC   C3B26481  27.429   8.355   7.950
 5199POPC   C4B26482  27.360   8.335   7.650
 5200POPC   NC326483  30.716  44.706   9.450
 5200POPC   PO426484  30.700  44.686   9.150
 5200POPC   GL126485  30.657  44.710   8.850
 5200POPC   GL226486  30.570  44.643   8.850
 5200POPC   C1A26487  30.740  44.697   8.550
 5200POPC   D2A26488  30.686  44.689   8.250
 5200POPC   C3A26489  30.723  44.656   7.950
 5200POPC   C4A26490  30.683  44.676   7.650
 5200POPC   C1B26491  30.417  44.593   8.550
 5200POPC   C2B26492  30.462  44.548   8.250
 5200POPC   C3B26493  30.450  44.635   7.950
 5200POPC   C4B26494  30.431  44.630   7.650
 5201POPC   NC326495  36.943   5.068   9.450
 5201POPC   PO426496  36.929   5.052   9.150
 5201POPC   GL126497  36.919   5.129   8.850
 5201POPC   GL226498  36.840   5.144   8.850
 5201POPC   C1A26499  36.888   5.119   8.550
 5201POPC   D2A26500  36.879   5.123   8.250
 5201POPC   C3A26501  36.891   5.120   7.950
 5201POPC   C4A26502  36.902   5.057   7.650
 5201POPC   C1B26503  36.738   5.251   8.550
 5201POPC   C2B26504  36.704   5.270   8.250
 5201POPC   C3B26505  36.722   5.227   7.950
 5201POPC   C4B26506  36.749   5.317   7.650
 5202POPC   NC326507  32.223  23.695   9.450
 5202POPC   PO426508  32.214  23.727   9.150
 5202POPC   GL126509  32.268  23.685   8.850
 5202POPC   GL226510  32.180  23.572   8.850
 5202POPC   C1A26511  32.199  23.676   8.550
 5202POPC   D2A26512  32.199  23.729   8.250
 5202POPC   C3A26513  32.252  23.707   7.950
 5202POPC   C4A26514  32.207  23.681   7.650
 5202POPC   C1B26515  32.182  23.436   8.550
 5202POPC   C2B26516  32.148  23.499   8.250
 5202POPC   C3B26517  32.165  23.463   7.950
 5202POPC   C4B26518  32.146  23.508   7.650
 5203POPC   NC326519  25.997  43.851   9.450
 5203POPC   PO426520  25.998  43.858   9.150
 5203POPC   GL126521  26.061  43.888   8.850
 5203POPC   GL226522  26.167  43.764   8.850
 5203POPC   C1A26523  25.992  43.848   8.550
 5203POPC   D2A26524  25.993  43.890   8.250
 5203POPC   C3A26525  26.051  43.881   7.950
 5203POPC   C4A26526  26.044  43.872   7.650
 5203POPC   C1B26527  26.175  43.689   8.550
 5203POPC   C2B26528  26.243  43.700   8.250
 5203POPC   C3B26529  26.252  43.666   7.950
 5203POPC   C4B26530  26.233  43.720   7.650
 5204POPC   NC326531   7.467   5.067   9.450
 5204POPC   PO426532   7.442   5.117   9.150
 5204POPC   GL126533   7.387   5.059   8.850
 5204POPC   GL226534   7.525   5.117   8.850
 5204POPC   C1A26535   7.376   5.110   8.550
 5204POPC   D2A26536   7.447   5.083   8.250
 5204POPC   C3A26537   7.420   5.112   7.950
 5204POPC   C4A26538   7.457   5.075   7.650
 5204POPC   C1B26539   7.672   5.128   8.550
 5204POPC   C2B26540   7.651   5.122   8.250
 5204POPC   C3B26541   7.653   5.181   7.950
 5204POPC   C4B26542   7.669   5.144   7.650
 5205POPC   NC326543   2.001  32.265   9.450
 5205POPC   PO426544   1.981  32.231   9.150
 5205POPC   GL126545   2.017  32.207   8.850
 5205POPC   GL226546   2.063  32.307   8.850
 5205POPC   C1A26547   1.990  32.228   8.550
 5205POPC   D2A26548   1.969  32.252   8.250
 5205POPC   C3A26549   1.944  32.292   7.950
 5205POPC   C4A26550   1.992  32.218   7.650
 5205POPC   C1B26551   2.180  32.326   8.550
 5205POPC   C2B26552   2.209  32.360   8.250
 5205POPC   C3B26553   2.243  32.380   7.950
 5205POPC   C4B26554   2.220  32.319   7.650
 5206POPC   NC326555   8.214   1.194   9.450
 5206POPC   PO426556   8.150   1.214   9.150
 5206POPC   GL126557   8.235   1.189   8.850
 5206POPC   GL226558   8.161   1.312   8.850
 5206POPC   C1A26559   8.181   1.179   8.550
 5206POPC   D2A26560   8.166   1.200   8.250
 5206POPC   C3A26561   8.156   1.178   7.950
 5206POPC   C4A26562   8.153   1.222   7.650
 5206POPC   C1B26563   8.158   1.420   8.550
 5206POPC   C2B26564   8.134   1.428   8.250
 5206POPC   C3B26565   8.171   1.488   7.950
 5206POPC   C4B26566   8.085   1.483   7.650
 5207POPC   NC326567  12.850  32.237   9.450
 5207POPC   PO426568  12.827  32.214   9.150
 5207POPC   GL126569  12.847  32.269   8.850
 5207POPC   GL226570  12.881  32.351   8.850
 5207POPC   C1A26571  12.845  32.270   8.550
 5207POPC   D2A26572  12.815  32.209   8.250
 5207POPC   C3A26573  12.826  32.263   7.950
 5207POPC   C4A26574  12.871  32.282   7.650
 5207POPC   C1B26575  12.867  32.500   8.550
 5207POPC   C2B26576  12.815  32.512   8.250
 5207POPC   C3B26577  12.827  32.508   7.950
 5207POPC   C4B26578  12.781  32.460   7.650
 5208POPC   NC326579  15.184  42.383   9.450
 5208POPC   PO426580  15.177  42.384   9.150
 5208POPC   GL126581  15.214  42.363   8.850
 5208POPC   GL226582  15.327  42.294   8.850
 5208POPC   C1A26583  15.185  42.367   8.550
 5208POPC   D2A26584  15.186  42.346   8.250
 5208POPC   C3A26585  15.220  42.340   7.950
 5208POPC   C4A26586  15.141  42.345   7.650
 5208POPC   C1B26587  15.452  42.273   8.550
 5208POPC   C2B26588  15.444  42.270   8.250
 5208POPC   C3B26589  15.445  42.288   7.950
 5208POPC   C4B26590  15.450  42.283   7.650
 5209POPC   NC326591  32.247   4.293   9.450
 5209POPC   PO426592  32.292   4.278   9.150
 5209POPC   GL126593  32.234   4.272   8.850
 5209POPC   GL226594  32.165   4.398   8.850
 5209POPC   C1A26595  32.265   4.351   8.550
 5209POPC   D2A26596  32.261   4.306   8.250
 5209POPC   C3A26597  32.205   4.365   7.950
 5209POPC   C4A26598  32.272   4.366   7.650
 5209POPC   C1B26599  32.136   4.513   8.550
 5209POPC   C2B26600  32.104   4.512   8.250
 5209POPC   C3B26601  32.115   4.538   7.950
 5209POPC   C4B26602  32.118   4.543   7.650
 5210POPC   NC326603  36.134  40.796   9.450
 5210POPC   PO426604  36.125  40.793   9.150
 5210POPC   GL126605  36.170  40.770   8.850
 5210POPC   GL226606  36.033  40.928   8.850
 5210POPC   C1A26607  36.171  40.743   8.550
 5210POPC   D2A26608  36.090  40.815   8.250
 5210POPC   C3A26609  36.167  40.818   7.950
 5210POPC   C4A26610  36.135  40.817   7.650
 5210POPC   C1B26611  35.993  41.038   8.550
 5210POPC   C2B26612  35.977  41.050   8.250
 5210POPC   C3B26613  35.971  41.009   7.950
 5210POPC   C4B26614  36.050  40.986   7.650
 5211POPC   NC326615  44.681  32.208   9.450
 5211POPC   PO426616  44.709  32.220   9.150
 5211POPC   GL126617  44.612  32.234   8.850
 5211POPC   GL226618  44.561  32.364   8.850
 5211POPC   C1A26619  44.703  32.210   8.550
 5211POPC   D2A26620  44.711  32.251   8.250
 5211POPC   C3A26621  44.673  32.222   7.950
 5211POPC   C4A26622  44.661  32.232   7.650
 5211POPC   C1B26623  44.502  32.446   8.550
 5211POPC   C2B26624  44.537  32.421   8.250
 5211POPC   C3B26625  44.521  32.425   7.950
 5211POPC   C4B26626  44.514  32.434   7.650
 5212POPC   NC326627  43.148  29.900   9.450
 5212POPC   PO426628  43.136  29.903   9.150
 5212POPC   GL126629  43.095  29.947   8.850
 5212POPC   GL226630  43.018  30.023   8.850
 5212POPC   C1A26631  43.062  29.872   8.550
 5212POPC   D2A26632  43.079  29.915   8.250
 5212POPC   C3A26633  43.097  29.936   7.950
 5212POPC   C4A26634  43.111  29.911   7.650
 5212POPC   C1B26635  43.054  30.169   8.550
 5212POPC   C2B26636  43.034  30.156   8.250
 5212POPC   C3B26637  43.030  30.142   7.950
 5212POPC   C4B26638  43.017  30.142   7.650
 5213POPC   NC326639   1.214  35.384   9.450
 5213POPC   PO426640   1.245  35.348   9.150
 5213POPC   GL126641   1.226  35.381   8.850
 5213POPC   GL226642   1.126  35.398   8.850
 5213POPC   C1A26643   1.249  35.401   8.550
 5213POPC   D2A26644   1.245  35.346   8.250
 5213POPC   C3A26645   1.226  35.337   7.950
 5213POPC   C4A26646   1.169  35.330   7.650
 5213POPC   C1B26647   0.964  35.471   8.550
 5213POPC   C2B26648   0.958  35.397   8.250
 5213POPC   C3B26649   0.952  35.409   7.950
 5213POPC   C4B26650   1.003  35.423   7.650
 5214POPC   NC326651  36.161  13.623   9.450
 5214POPC   PO426652  36.083  13.656   9.150
 5214POPC   GL126653  36.135  13.669   8.850
 5214POPC   GL226654  36.221  13.694   8.850
 5214POPC   C1A26655  36.141  13.615   8.550
 5214POPC   D2A26656  36.118  13.658   8.250
 5214POPC   C3A26657  36.167  13.677   7.950
 5214POPC   C4A26658  36.129  13.658   7.650
 5214POPC   C1B26659  36.237  13.853   8.550
 5214POPC   C2B26660  36.249  13.800   8.250
 5214POPC   C3B26661  36.287  13.811   7.950
 5214POPC   C4B26662  36.281  13.808   7.650
 5215POPC   NC326663  15.968  15.187   9.450
 5215POPC   PO426664  15.920  15.177   9.150
 5215POPC   GL126665  15.968  15.163   8.850
 5215POPC   GL226666  15.893  15.107   8.850
 5215POPC   C1A26667  15.915  15.152   8.550
 5215POPC   D2A26668  15.946  15.216   8.250
 5215POPC   C3A26669  15.960  15.212   7.950
 5215POPC   C4A26670  15.953  15.209   7.650
 5215POPC   C1B26671  15.883  14.898   8.550
 5215POPC   C2B26672  15.908  14.938   8.250
 5215POPC   C3B26673  15.883  14.983   7.950
 5215POPC   C4B26674  15.882  14.937   7.650
 5216POPC   NC326675   2.769   1.187   9.450
 5216POPC   PO426676   2.759   1.221   9.150
 5216POPC   GL126677   2.790   1.173   8.850
 5216POPC   GL226678   2.885   1.158   8.850
 5216POPC   C1A26679   2.792   1.204   8.550
 5216POPC   D2A26680   2.770   1.165   8.250
 5216POPC   C3A26681   2.741   1.165   7.950
 5216POPC   C4A26682   2.746   1.180   7.650
 5216POPC   C1B26683   2.979   1.085   8.550
 5216POPC   C2B26684   2.979   1.147   8.250
 5216POPC   C3B26685   2.961   1.114   7.950
 5216POPC   C4B26686   3.026   1.120   7.650
 5217POPC   NC326687  38.479  16.002   9.450
 5217POPC   PO426688  38.409  15.994   9.150
 5217POPC   GL126689  38.478  15.985   8.850
 5217POPC   GL226690  38.543  16.072   8.850
 5217POPC   C1A26691  38.426  15.964   8.550
 5217POPC   D2A26692  38.442  15.967   8.250
 5217POPC   C3A26693  38.443  16.003   7.950
 5217POPC   C4A26694  38.408  15.976   7.650
 5217POPC   C1B26695  38.565  16.165   8.550
 5217POPC   C2B26696  38.552  16.218   8.250
 5217POPC   C3B26697  38.566  16.209   7.950
 5217POPC   C4B26698  38.510  16.197   7.650
 5218POPC   NC326699  19.791  21.362   9.450
 5218POPC   PO426700  19.790  21.383   9.150
 5218POPC   GL126701  19.849  21.388   8.850
 5218POPC   GL226702  19.765  21.290   8.850
 5218POPC   C1A26703  19.884  21.372   8.550
 5218POPC   D2A26704  19.881  21.344   8.250
 5218POPC   C3A26705  19.834  21.365   7.950
 5218POPC   C4A26706  19.844  21.347   7.650
 5218POPC   C1B26707  19.652  21.248   8.550
 5218POPC   C2B26708  19.617  21.303   8.250
 5218POPC   C3B26709  19.649  21.263   7.950
 5218POPC   C4B26710  19.600  21.289   7.650
 5219POPC   NC326711  31.517  13.655   9.450
 5219POPC   PO426712  31.510  13.676   9.150
 5219POPC   GL126713  31.504  13.601   8.850
 5219POPC   GL226714  31.400  13.568   8.850
 5219POPC   C1A26715  31.459  13.595   8.550
 5219POPC   D2A26716  31.510  13.587   8.250
 5219POPC   C3A26717  31.513  13.622   7.950
 5219POPC   C4A26718  31.518  13.612   7.650
 5219POPC   C1B26719  31.311  13.434   8.550
 5219POPC   C2B26720  31.336  13.485   8.250
 5219POPC   C3B26721  31.266  13.430   7.950
 5219POPC   C4B26722  31.320  13.460   7.650
 5220POPC   NC326723   4.365   7.451   9.450
 5220POPC   PO426724   4.282   7.391   9.150
 5220POPC   GL126725   4.330   7.438   8.850
 5220POPC   GL226726   4.422   7.423   8.850
 5220POPC   C1A26727   4.334   7.374   8.550
 5220POPC   D2A26728   4.317   7.409   8.250
 5220POPC   C3A26729   4.298   7.394   7.950
 5220POPC   C4A26730   4.332   7.460   7.650
 5220POPC   C1B26731   4.566   7.332   8.550
 5220POPC   C2B26732   4.545   7.334   8.250
 5220POPC   C3B26733   4.514   7.352   7.950
 5220POPC   C4B26734   4.598   7.366   7.650
 5221POPC   NC326735   8.155  33.057   9.450
 5221POPC   PO426736   8.169  33.046   9.150
 5221POPC   GL126737   8.242  32.987   8.850
 5221POPC   GL226738   8.279  33.007   8.850
 5221POPC   C1A26739   8.159  33.069   8.550
 5221POPC   D2A26740   8.204  33.006   8.250
 5221POPC   C3A26741   8.181  33.010   7.950
 5221POPC   C4A26742   8.212  33.006   7.650
 5221POPC   C1B26743   8.411  33.025   8.550
 5221POPC   C2B26744   8.405  32.988   8.250
 5221POPC   C3B26745   8.398  32.982   7.950
 5221POPC   C4B26746   8.450  33.069   7.650
 5222POPC   NC326747  39.182  27.580   9.450
 5222POPC   PO426748  39.236  27.597   9.150
 5222POPC   GL126749  39.202  27.561   8.850
 5222POPC   GL226750  39.332  27.656   8.850
 5222POPC   C1A26751  39.235  27.569   8.550
 5222POPC   D2A26752  39.213  27.603   8.250
 5222POPC   C3A26753  39.248  27.623   7.950
 5222POPC   C4A26754  39.215  27.580   7.650
 5222POPC   C1B26755  39.437  27.613   8.550
 5222POPC   C2B26756  39.470  27.668   8.250
 5222POPC   C3B26757  39.455  27.688   7.950
 5222POPC   C4B26758  39.430  27.603   7.650
 5223POPC   NC326759  39.225  26.032   9.450
 5223POPC   PO426760  39.256  26.035   9.150
 5223POPC   GL126761  39.207  26.014   8.850
 5223POPC   GL226762  39.380  26.133   8.850
 5223POPC   C1A26763  39.205  26.001   8.550
 5223POPC   D2A26764  39.257  26.058   8.250
 5223POPC   C3A26765  39.182  26.007   7.950
 5223POPC   C4A26766  39.244  26.088   7.650
 5223POPC   C1B26767  39.496  26.154   8.550
 5223POPC   C2B26768  39.461  26.174   8.250
 5223POPC   C3B26769  39.459  26.174   7.950
 5223POPC   C4B26770  39.457  26.144   7.650
 5224POPC   NC326771  35.397  17.498   9.450
 5224POPC   PO426772  35.325  17.484   9.150
 5224POPC   GL126773  35.355  17.553   8.850
 5224POPC   GL226774  35.215  17.547   8.850
 5224POPC   C1A26775  35.353  17.545   8.550
 5224POPC   D2A26776  35.368  17.554   8.250
 5224POPC   C3A26777  35.306  17.538   7.950
 5224POPC   C4A26778  35.340  17.513   7.650
 5224POPC   C1B26779  35.120  17.531   8.550
 5224POPC   C2B26780  35.074  17.507   8.250
 5224POPC   C3B26781  35.114  17.525   7.950
 5224POPC   C4B26782  35.121  17.529   7.650
 5225POPC   NC326783   1.951  15.130   9.450
 5225POPC   PO426784   2.034  15.229   9.150
 5225POPC   GL126785   1.976  15.210   8.850
 5225POPC   GL226786   1.989  15.075   8.850
 5225POPC   C1A26787   2.017  15.154   8.550
 5225POPC   D2A26788   1.980  15.152   8.250
 5225POPC   C3A26789   2.008  15.190   7.950
 5225POPC   C4A26790   2.031  15.162   7.650
 5225POPC   C1B26791   2.044  14.960   8.550
 5225POPC   C2B26792   2.000  14.970   8.250
 5225POPC   C3B26793   2.044  14.937   7.950
 5225POPC   C4B26794   2.052  14.953   7.650
 5226POPC   NC326795  42.357  26.820   9.450
 5226POPC   PO426796  42.312  26.825   9.150
 5226POPC   GL126797  42.312  26.774   8.850
 5226POPC   GL226798  42.183  26.797   8.850
 5226POPC   C1A26799  42.329  26.797   8.550
 5226POPC   D2A26800  42.369  26.793   8.250
 5226POPC   C3A26801  42.356  26.803   7.950
 5226POPC   C4A26802  42.294  26.798   7.650
 5226POPC   C1B26803  42.096  26.770   8.550
 5226POPC   C2B26804  42.138  26.745   8.250
 5226POPC   C3B26805  42.143  26.726   7.950
 5226POPC   C4B26806  42.048  26.778   7.650
 5227POPC   NC326807  39.964  36.869   9.450
 5227POPC   PO426808  40.031  36.872   9.150
 5227POPC   GL126809  40.050  36.932   8.850
 5227POPC   GL226810  39.949  36.993   8.850
 5227POPC   C1A26811  39.970  36.876   8.550
 5227POPC   D2A26812  39.995  36.950   8.250
 5227POPC   C3A26813  39.964  36.942   7.950
 5227POPC   C4A26814  40.001  36.866   7.650
 5227POPC   C1B26815  39.899  37.152   8.550
 5227POPC   C2B26816  39.938  37.166   8.250
 5227POPC   C3B26817  39.934  37.168   7.950
 5227POPC   C4B26818  39.910  37.108   7.650
 5228POPC   NC326819  39.220  43.924   9.450
 5228POPC   PO426820  39.267  43.843   9.150
 5228POPC   GL126821  39.247  43.910   8.850
 5228POPC   GL226822  39.122  43.775   8.850
 5228POPC   C1A26823  39.273  43.902   8.550
 5228POPC   D2A26824  39.236  43.880   8.250
 5228POPC   C3A26825  39.217  43.893   7.950
 5228POPC   C4A26826  39.209  43.907   7.650
 5228POPC   C1B26827  39.086  43.668   8.550
 5228POPC   C2B26828  39.091  43.710   8.250
 5228POPC   C3B26829  39.026  43.679   7.950
 5228POPC   C4B26830  39.106  43.697   7.650
 5229POPC   NC326831  25.219   0.408   9.450
 5229POPC   PO426832  25.289   0.408   9.150
 5229POPC   GL126833  25.276   0.448   8.850
 5229POPC   GL226834  25.330   0.470   8.850
 5229POPC   C1A26835  25.242   0.465   8.550
 5229POPC   D2A26836  25.225   0.455   8.250
 5229POPC   C3A26837  25.216   0.399   7.950
 5229POPC   C4A26838  25.273   0.407   7.650
 5229POPC   C1B26839  25.481   0.579   8.550
 5229POPC   C2B26840  25.470   0.629   8.250
 5229POPC   C3B26841  25.455   0.630   7.950
 5229POPC   C4B26842  25.484   0.603   7.650
 5230POPC   NC326843   1.235  33.814   9.450
 5230POPC   PO426844   1.250  33.804   9.150
 5230POPC   GL126845   1.248  33.812   8.850
 5230POPC   GL226846   1.169  33.929   8.850
 5230POPC   C1A26847   1.245  33.789   8.550
 5230POPC   D2A26848   1.199  33.771   8.250
 5230POPC   C3A26849   1.212  33.834   7.950
 5230POPC   C4A26850   1.258  33.789   7.650
 5230POPC   C1B26851   1.078  33.940   8.550
 5230POPC   C2B26852   0.989  34.005   8.250
 5230POPC   C3B26853   1.056  34.004   7.950
 5230POPC   C4B26854   0.983  33.971   7.650
 5231POPC   NC326855   3.574   3.546   9.450
 5231POPC   PO426856   3.495   3.503   9.150
 5231POPC   GL126857   3.495   3.518   8.850
 5231POPC   GL226858   3.521   3.468   8.850
 5231POPC   C1A26859   3.529   3.591   8.550
 5231POPC   D2A26860   3.524   3.538   8.250
 5231POPC   C3A26861   3.589   3.533   7.950
 5231POPC   C4A26862   3.536   3.568   7.650
 5231POPC   C1B26863   3.433   3.304   8.550
 5231POPC   C2B26864   3.468   3.256   8.250
 5231POPC   C3B26865   3.470   3.279   7.950
 5231POPC   C4B26866   3.463   3.296   7.650
 5232POPC   NC326867  42.290  11.314   9.450
 5232POPC   PO426868  42.384  11.282   9.150
 5232POPC   GL126869  42.357  11.315   8.850
 5232POPC   GL226870  42.304  11.129   8.850
 5232POPC   C1A26871  42.371  11.275   8.550
 5232POPC   D2A26872  42.314  11.270   8.250
 5232POPC   C3A26873  42.368  11.339   7.950
 5232POPC   C4A26874  42.302  11.317   7.650
 5232POPC   C1B26875  42.347  11.025   8.550
 5232POPC   C2B26876  42.354  11.012   8.250
 5232POPC   C3B26877  42.362  11.036   7.950
 5232POPC   C4B26878  42.331  11.063   7.650
 5233POPC   NC326879   7.460  15.978   9.450
 5233POPC   PO426880   7.461  15.939   9.150
 5233POPC   GL126881   7.425  15.931   8.850
 5233POPC   GL226882   7.330  16.104   8.850
 5233POPC   C1A26883   7.400  15.959   8.550
 5233POPC   D2A26884   7.411  15.945   8.250
 5233POPC   C3A26885   7.434  15.953   7.950
 5233POPC   C4A26886   7.429  15.998   7.650
 5233POPC   C1B26887   7.323  16.204   8.550
 5233POPC   C2B26888   7.311  16.179   8.250
 5233POPC   C3B26889   7.269  16.139   7.950
 5233POPC   C4B26890   7.291  16.127   7.650
 5234POPC   NC326891  34.611  22.897   9.450
 5234POPC   PO426892  34.591  22.955   9.150
 5234POPC   GL126893  34.537  22.927   8.850
 5234POPC   GL226894  34.584  22.860   8.850
 5234POPC   C1A26895  34.531  22.934   8.550
 5234POPC   D2A26896  34.623  22.890   8.250
 5234POPC   C3A26897  34.610  22.977   7.950
 5234POPC   C4A26898  34.610  22.926   7.650
 5234POPC   C1B26899  34.623  22.671   8.550
 5234POPC   C2B26900  34.694  22.665   8.250
 5234POPC   C3B26901  34.686  22.697   7.950
 5234POPC   C4B26902  34.678  22.695   7.650
 5235POPC   NC326903  26.000  40.746   9.450
 5235POPC   PO426904  26.085  40.749   9.150
 5235POPC   GL126905  26.035  40.767   8.850
 5235POPC   GL226906  25.987  40.639   8.850
 5235POPC   C1A26907  26.088  40.771   8.550
 5235POPC   D2A26908  26.001  40.807   8.250
 5235POPC   C3A26909  26.004  40.799   7.950
 5235POPC   C4A26910  26.079  40.751   7.650
 5235POPC   C1B26911  26.022  40.485   8.550
 5235POPC   C2B26912  25.967  40.533   8.250
 5235POPC   C3B26913  26.030  40.523   7.950
 5235POPC   C4B26914  26.016  40.496   7.650
 5236POPC   NC326915  32.289  11.255   9.450
 5236POPC   PO426916  32.235  11.257   9.150
 5236POPC   GL126917  32.284  11.284   8.850
 5236POPC   GL226918  32.345  11.250   8.850
 5236POPC   C1A26919  32.212  11.258   8.550
 5236POPC   D2A26920  32.254  11.337   8.250
 5236POPC   C3A26921  32.206  11.324   7.950
 5236POPC   C4A26922  32.280  11.304   7.650
 5236POPC   C1B26923  32.486  11.183   8.550
 5236POPC   C2B26924  32.441  11.186   8.250
 5236POPC   C3B26925  32.437  11.171   7.950
 5236POPC   C4B26926  32.443  11.197   7.650
 5237POPC   NC326927  11.285  21.360   9.450
 5237POPC   PO426928  11.289  21.360   9.150
 5237POPC   GL126929  11.307  21.341   8.850
 5237POPC   GL226930  11.181  21.397   8.850
 5237POPC   C1A26931  11.322  21.414   8.550
 5237POPC   D2A26932  11.274  21.399   8.250
 5237POPC   C3A26933  11.312  21.348   7.950
 5237POPC   C4A26934  11.350  21.434   7.650
 5237POPC   C1B26935  11.023  21.399   8.550
 5237POPC   C2B26936  11.049  21.407   8.250
 5237POPC   C3B26937  11.078  21.468   7.950
 5237POPC   C4B26938  11.055  21.460   7.650
 5238POPC   NC326939  30.723  40.034   9.450
 5238POPC   PO426940  30.721  40.028   9.150
 5238POPC   GL126941  30.653  40.011   8.850
 5238POPC   GL226942  30.656  40.114   8.850
 5238POPC   C1A26943  30.721  40.030   8.550
 5238POPC   D2A26944  30.696  39.959   8.250
 5238POPC   C3A26945  30.682  40.053   7.950
 5238POPC   C4A26946  30.733  39.964   7.650
 5238POPC   C1B26947  30.656  40.223   8.550
 5238POPC   C2B26948  30.614  40.297   8.250
 5238POPC   C3B26949  30.620  40.287   7.950
 5238POPC   C4B26950  30.679  40.251   7.650
 5239POPC   NC326951  30.666  34.611   9.450
 5239POPC   PO426952  30.687  34.622   9.150
 5239POPC   GL126953  30.721  34.601   8.850
 5239POPC   GL226954  30.718  34.738   8.850
 5239POPC   C1A26955  30.647  34.531   8.550
 5239POPC   D2A26956  30.710  34.614   8.250
 5239POPC   C3A26957  30.690  34.541   7.950
 5239POPC   C4A26958  30.742  34.558   7.650
 5239POPC   C1B26959  30.641  34.794   8.550
 5239POPC   C2B26960  30.669  34.838   8.250
 5239POPC   C3B26961  30.686  34.852   7.950
 5239POPC   C4B26962  30.688  34.862   7.650
 5240POPC   NC326963   9.755  20.571   9.450
 5240POPC   PO426964   9.730  20.609   9.150
 5240POPC   GL126965   9.790  20.629   8.850
 5240POPC   GL226966   9.714  20.452   8.850
 5240POPC   C1A26967   9.753  20.633   8.550
 5240POPC   D2A26968   9.787  20.567   8.250
 5240POPC   C3A26969   9.796  20.595   7.950
 5240POPC   C4A26970   9.739  20.589   7.650
 5240POPC   C1B26971   9.668  20.401   8.550
 5240POPC   C2B26972   9.641  20.354   8.250
 5240POPC   C3B26973   9.648  20.411   7.950
 5240POPC   C4B26974   9.642  20.423   7.650
 5241POPC   NC326975  12.096   6.648   9.450
 5241POPC   PO426976  12.060   6.617   9.150
 5241POPC   GL126977  12.058   6.688   8.850
 5241POPC   GL226978  11.991   6.701   8.850
 5241POPC   C1A26979  12.102   6.681   8.550
 5241POPC   D2A26980  12.050   6.659   8.250
 5241POPC   C3A26981  12.070   6.656   7.950
 5241POPC   C4A26982  12.048   6.668   7.650
 5241POPC   C1B26983  11.919   6.872   8.550
 5241POPC   C2B26984  11.976   6.854   8.250
 5241POPC   C3B26985  11.954   6.840   7.950
 5241POPC   C4B26986  11.947   6.819   7.650
 5242POPC   NC326987  15.200   8.930   9.450
 5242POPC   PO426988  15.169   8.982   9.150
 5242POPC   GL126989  15.149   9.010   8.850
 5242POPC   GL226990  15.032   8.977   8.850
 5242POPC   C1A26991  15.172   9.010   8.550
 5242POPC   D2A26992  15.219   8.947   8.250
 5242POPC   C3A26993  15.169   8.995   7.950
 5242POPC   C4A26994  15.173   9.014   7.650
 5242POPC   C1B26995  14.939   8.922   8.550
 5242POPC   C2B26996  14.912   8.893   8.250
 5242POPC   C3B26997  14.888   8.934   7.950
 5242POPC   C4B26998  14.893   8.894   7.650
 5243POPC   NC326999  15.203  40.007   9.450
 5243POPC   PO427000  15.216  40.030   9.150
 5243POPC   GL127001  15.207  39.973   8.850
 5243POPC   GL227002  15.248  39.842   8.850
 5243POPC   C1A27003  15.154  39.994   8.550
 5243POPC   D2A27004  15.137  40.056   8.250
 5243POPC   C3A27005  15.190  40.053   7.950
 5243POPC   C4A27006  15.211  39.959   7.650
 5243POPC   C1B27007  15.278  39.806   8.550
 5243POPC   C2B27008  15.259  39.765   8.250
 5243POPC   C3B27009  15.265  39.732   7.950
 5243POPC   C4B27010  15.267  39.767   7.650
 5244POPC   NC327011  11.268   5.059   9.450
 5244POPC   PO427012  11.350   5.140   9.150
 5244POPC   GL127013  11.255   5.064   8.850
 5244POPC   GL227014  11.403   5.200   8.850
 5244POPC   C1A27015  11.263   5.129   8.550
 5244POPC   D2A27016  11.289   5.132   8.250
 5244POPC   C3A27017  11.310   5.099   7.950
 5244POPC   C4A27018  11.307   5.123   7.650
 5244POPC   C1B27019  11.479   5.283   8.550
 5244POPC   C2B27020  11.487   5.198   8.250
 5244POPC   C3B27021  11.538   5.232   7.950
 5244POPC   C4B27022  11.517   5.230   7.650
 5245POPC   NC327023   4.320   3.494   9.450
 5245POPC   PO427024   4.354   3.530   9.150
 5245POPC   GL127025   4.269   3.557   8.850
 5245POPC   GL227026   4.392   3.565   8.850
 5245POPC   C1A27027   4.300   3.536   8.550
 5245POPC   D2A27028   4.332   3.520   8.250
 5245POPC   C3A27029   4.353   3.587   7.950
 5245POPC   C4A27030   4.365   3.542   7.650
 5245POPC   C1B27031   4.526   3.468   8.550
 5245POPC   C2B27032   4.567   3.440   8.250
 5245POPC   C3B27033   4.586   3.450   7.950
 5245POPC   C4B27034   4.573   3.444   7.650
 5246POPC   NC327035  15.910  40.050   9.450
 5246POPC   PO427036  15.943  39.962   9.150
 5246POPC   GL127037  15.953  40.008   8.850
 5246POPC   GL227038  15.821  40.025   8.850
 5246POPC   C1A27039  15.970  39.959   8.550
 5246POPC   D2A27040  15.907  40.011   8.250
 5246POPC   C3A27041  15.955  40.008   7.950
 5246POPC   C4A27042  15.979  39.987   7.650
 5246POPC   C1B27043  15.687  40.033   8.550
 5246POPC   C2B27044  15.700  40.096   8.250
 5246POPC   C3B27045  15.740  40.079   7.950
 5246POPC   C4B27046  15.713  40.075   7.650
 5247POPC   NC327047   9.792  41.595   9.450
 5247POPC   PO427048   9.761  41.519   9.150
 5247POPC   GL127049   9.705  41.591   8.850
 5247POPC   GL227050   9.789  41.720   8.850
 5247POPC   C1A27051   9.703  41.550   8.550
 5247POPC   D2A27052   9.772  41.605   8.250
 5247POPC   C3A27053   9.778  41.597   7.950
 5247POPC   C4A27054   9.708  41.546   7.650
 5247POPC   C1B27055   9.748  41.801   8.550
 5247POPC   C2B27056   9.819  41.790   8.250
 5247POPC   C3B27057   9.776  41.850   7.950
 5247POPC   C4B27058   9.790  41.779   7.650
 5248POPC   NC327059  43.075  23.710   9.450
 5248POPC   PO427060  43.091  23.718   9.150
 5248POPC   GL127061  43.097  23.753   8.850
 5248POPC   GL227062  43.119  23.796   8.850
 5248POPC   C1A27063  43.121  23.679   8.550
 5248POPC   D2A27064  43.135  23.668   8.250
 5248POPC   C3A27065  43.114  23.759   7.950
 5248POPC   C4A27066  43.132  23.721   7.650
 5248POPC   C1B27067  43.065  23.956   8.550
 5248POPC   C2B27068  43.043  23.967   8.250
 5248POPC   C3B27069  43.051  23.962   7.950
 5248POPC   C4B27070  43.098  23.927   7.650
 5249POPC   NC327071  37.662   8.981   9.450
 5249POPC   PO427072  37.697   8.973   9.150
 5249POPC   GL127073  37.719   8.996   8.850
 5249POPC   GL227074  37.767   9.014   8.850
 5249POPC   C1A27075  37.702   9.006   8.550
 5249POPC   D2A27076  37.686   8.925   8.250
 5249POPC   C3A27077  37.701   9.020   7.950
 5249POPC   C4A27078  37.649   8.975   7.650
 5249POPC   C1B27079  37.917   9.127   8.550
 5249POPC   C2B27080  37.923   9.117   8.250
 5249POPC   C3B27081  37.863   9.073   7.950
 5249POPC   C4B27082  37.838   9.079   7.650
 5250POPC   NC327083   1.218  40.786   9.450
 5250POPC   PO427084   1.244  40.791   9.150
 5250POPC   GL127085   1.179  40.745   8.850
 5250POPC   GL227086   1.162  40.914   8.850
 5250POPC   C1A27087   1.164  40.765   8.550
 5250POPC   D2A27088   1.223  40.743   8.250
 5250POPC   C3A27089   1.234  40.798   7.950
 5250POPC   C4A27090   1.202  40.829   7.650
 5250POPC   C1B27091   1.092  41.051   8.550
 5250POPC   C2B27092   1.088  40.973   8.250
 5250POPC   C3B27093   1.130  41.046   7.950
 5250POPC   C4B27094   1.119  40.989   7.650
 5251POPC   NC327095  22.142  35.386   9.450
 5251POPC   PO427096  22.158  35.399   9.150
 5251POPC   GL127097  22.203  35.362   8.850
 5251POPC   GL227098  22.007  35.319   8.850
 5251POPC   C1A27099  22.115  35.320   8.550
 5251POPC   D2A27100  22.200  35.303   8.250
 5251POPC   C3A27101  22.206  35.399   7.950
 5251POPC   C4A27102  22.181  35.326   7.650
 5251POPC   C1B27103  21.937  35.277   8.550
 5251POPC   C2B27104  21.952  35.195   8.250
 5251POPC   C3B27105  21.897  35.268   7.950
 5251POPC   C4B27106  21.944  35.199   7.650
 5252POPC   NC327107   5.852  22.188   9.450
 5252POPC   PO427108   5.899  22.157   9.150
 5252POPC   GL127109   5.845  22.206   8.850
 5252POPC   GL227110   5.735  22.195   8.850
 5252POPC   C1A27111   5.845  22.189   8.550
 5252POPC   D2A27112   5.908  22.126   8.250
 5252POPC   C3A27113   5.885  22.134   7.950
 5252POPC   C4A27114   5.899  22.168   7.650
 5252POPC   C1B27115   5.668  22.111   8.550
 5252POPC   C2B27116   5.615  22.133   8.250
 5252POPC   C3B27117   5.630  22.145   7.950
 5252POPC   C4B27118   5.616  22.108   7.650
 5253POPC   NC327119  25.286  22.116   9.450
 5253POPC   PO427120  25.218  22.178   9.150
 5253POPC   GL127121  25.225  22.177   8.850
 5253POPC   GL227122  25.439  22.173   8.850
 5253POPC   C1A27123  25.248  22.169   8.550
 5253POPC   D2A27124  25.229  22.174   8.250
 5253POPC   C3A27125  25.223  22.172   7.950
 5253POPC   C4A27126  25.267  22.136   7.650
 5253POPC   C1B27127  25.538  22.198   8.550
 5253POPC   C2B27128  25.512  22.130   8.250
 5253POPC   C3B27129  25.486  22.200   7.950
 5253POPC   C4B27130  25.489  22.171   7.650
 5254POPC   NC327131  40.739  39.257   9.450
 5254POPC   PO427132  40.746  39.241   9.150
 5254POPC   GL127133  40.792  39.200   8.850
 5254POPC   GL227134  40.802  39.314   8.850
 5254POPC   C1A27135  40.741  39.205   8.550
 5254POPC   D2A27136  40.734  39.222   8.250
 5254POPC   C3A27137  40.751  39.269   7.950
 5254POPC   C4A27138  40.822  39.272   7.650
 5254POPC   C1B27139  40.781  39.458   8.550
 5254POPC   C2B27140  40.872  39.510   8.250
 5254POPC   C3B27141  40.793  39.505   7.950
 5254POPC   C4B27142  40.784  39.522   7.650
 5255POPC   NC327143  17.538  31.461   9.450
 5255POPC   PO427144  17.549  31.448   9.150
 5255POPC   GL127145  17.483  31.514   8.850
 5255POPC   GL227146  17.396  31.478   8.850
 5255POPC   C1A27147  17.488  31.497   8.550
 5255POPC   D2A27148  17.509  31.512   8.250
 5255POPC   C3A27149  17.538  31.517   7.950
 5255POPC   C4A27150  17.526  31.468   7.650
 5255POPC   C1B27151  17.274  31.450   8.550
 5255POPC   C2B27152  17.288  31.479   8.250
 5255POPC   C3B27153  17.255  31.492   7.950
 5255POPC   C4B27154  17.242  31.487   7.650
 5256POPC   NC327155  42.384   2.755   9.450
 5256POPC   PO427156  42.299   2.732   9.150
 5256POPC   GL127157  42.303   2.736   8.850
 5256POPC   GL227158  42.324   2.605   8.850
 5256POPC   C1A27159  42.332   2.786   8.550
 5256POPC   D2A27160  42.383   2.723   8.250
 5256POPC   C3A27161  42.383   2.794   7.950
 5256POPC   C4A27162  42.312   2.746   7.650
 5256POPC   C1B27163  42.229   2.494   8.550
 5256POPC   C2B27164  42.235   2.572   8.250
 5256POPC   C3B27165  42.250   2.488   7.950
 5256POPC   C4B27166  42.213   2.549   7.650
 5257POPC   NC327167  19.102   8.154   9.450
 5257POPC   PO427168  19.093   8.188   9.150
 5257POPC   GL127169  19.010   8.188   8.850
 5257POPC   GL227170  18.948   8.124   8.850
 5257POPC   C1A27171  19.045   8.204   8.550
 5257POPC   D2A27172  19.072   8.149   8.250
 5257POPC   C3A27173  19.069   8.219   7.950
 5257POPC   C4A27174  19.045   8.155   7.650
 5257POPC   C1B27175  18.860   7.982   8.550
 5257POPC   C2B27176  18.900   8.065   8.250
 5257POPC   C3B27177  18.876   8.027   7.950
 5257POPC   C4B27178  18.895   8.021   7.650
 5258POPC   NC327179  36.927  28.361   9.450
 5258POPC   PO427180  36.876  28.344   9.150
 5258POPC   GL127181  36.877  28.346   8.850
 5258POPC   GL227182  36.805  28.237   8.850
 5258POPC   C1A27183  36.895  28.386   8.550
 5258POPC   D2A27184  36.872  28.412   8.250
 5258POPC   C3A27185  36.857  28.343   7.950
 5258POPC   C4A27186  36.889  28.396   7.650
 5258POPC   C1B27187  36.762  28.210   8.550
 5258POPC   C2B27188  36.689  28.208   8.250
 5258POPC   C3B27189  36.671  28.189   7.950
 5258POPC   C4B27190  36.745  28.231   7.650
 5259POPC   NC327191   5.044   4.292   9.450
 5259POPC   PO427192   5.052   4.288   9.150
 5259POPC   GL127193   5.094   4.360   8.850
 5259POPC   GL227194   5.049   4.203   8.850
 5259POPC   C1A27195   5.072   4.349   8.550
 5259POPC   D2A27196   5.065   4.346   8.250
 5259POPC   C3A27197   5.077   4.299   7.950
 5259POPC   C4A27198   5.055   4.281   7.650
 5259POPC   C1B27199   5.114   4.029   8.550
 5259POPC   C2B27200   5.064   4.078   8.250
 5259POPC   C3B27201   5.122   4.085   7.950
 5259POPC   C4B27202   5.054   4.092   7.650
 5260POPC   NC327203  10.544  34.564   9.450
 5260POPC   PO427204  10.557  34.574   9.150
 5260POPC   GL127205  10.499  34.554   8.850
 5260POPC   GL227206  10.609  34.466   8.850
 5260POPC   C1A27207  10.521  34.550   8.550
 5260POPC   D2A27208  10.493  34.535   8.250
 5260POPC   C3A27209  10.536  34.604   7.950
 5260POPC   C4A27210  10.505  34.534   7.650
 5260POPC   C1B27211  10.672  34.331   8.550
 5260POPC   C2B27212  10.703  34.414   8.250
 5260POPC   C3B27213  10.669  34.381   7.950
 5260POPC   C4B27214  10.658  34.328   7.650
 5261POPC   NC327215  14.412  18.318   9.450
 5261POPC   PO427216  14.382  18.259   9.150
 5261POPC   GL127217  14.368  18.331   8.850
 5261POPC   GL227218  14.561  18.237   8.850
 5261POPC   C1A27219  14.404  18.252   8.550
 5261POPC   D2A27220  14.401  18.294   8.250
 5261POPC   C3A27221  14.380  18.287   7.950
 5261POPC   C4A27222  14.392  18.247   7.650
 5261POPC   C1B27223  14.662  18.153   8.550
 5261POPC   C2B27224  14.634  18.195   8.250
 5261POPC   C3B27225  14.609  18.177   7.950
 5261POPC   C4B27226  14.596  18.237   7.650
 5262POPC   NC327227   7.457  32.259   9.450
 5262POPC   PO427228   7.459  32.250   9.150
 5262POPC   GL127229   7.426  32.223   8.850
 5262POPC   GL227230   7.585  32.200   8.850
 5262POPC   C1A27231   7.455  32.203   8.550
 5262POPC   D2A27232   7.384  32.232   8.250
 5262POPC   C3A27233   7.456  32.221   7.950
 5262POPC   C4A27234   7.371  32.249   7.650
 5262POPC   C1B27235   7.676  32.181   8.550
 5262POPC   C2B27236   7.674  32.173   8.250
 5262POPC   C3B27237   7.639  32.216   7.950
 5262POPC   C4B27238   7.674  32.245   7.650
 5263POPC   NC327239  14.384  41.558   9.450
 5263POPC   PO427240  14.401  41.597   9.150
 5263POPC   GL127241  14.449  41.509   8.850
 5263POPC   GL227242  14.329  41.703   8.850
 5263POPC   C1A27243  14.449  41.561   8.550
 5263POPC   D2A27244  14.387  41.536   8.250
 5263POPC   C3A27245  14.440  41.563   7.950
 5263POPC   C4A27246  14.373  41.551   7.650
 5263POPC   C1B27247  14.320  41.782   8.550
 5263POPC   C2B27248  14.250  41.804   8.250
 5263POPC   C3B27249  14.328  41.819   7.950
 5263POPC   C4B27250  14.319  41.754   7.650
 5264POPC   NC327251  35.398  38.470   9.450
 5264POPC   PO427252  35.353  38.449   9.150
 5264POPC   GL127253  35.349  38.442   8.850
 5264POPC   GL227254  35.439  38.391   8.850
 5264POPC   C1A27255  35.399  38.502   8.550
 5264POPC   D2A27256  35.399  38.440   8.250
 5264POPC   C3A27257  35.324  38.496   7.950
 5264POPC   C4A27258  35.366  38.476   7.650
 5264POPC   C1B27259  35.531  38.325   8.550
 5264POPC   C2B27260  35.617  38.370   8.250
 5264POPC   C3B27261  35.600  38.363   7.950
 5264POPC   C4B27262  35.546  38.329   7.650
 5265POPC   NC327263   4.283  43.063   9.450
 5265POPC   PO427264   4.291  43.083   9.150
 5265POPC   GL127265   4.283  43.116   8.850
 5265POPC   GL227266   4.213  42.986   8.850
 5265POPC   C1A27267   4.331  43.085   8.550
 5265POPC   D2A27268   4.308  43.150   8.250
 5265POPC   C3A27269   4.309  43.122   7.950
 5265POPC   C4A27270   4.308  43.146   7.650
 5265POPC   C1B27271   4.204  42.913   8.550
 5265POPC   C2B27272   4.229  42.875   8.250
 5265POPC   C3B27273   4.166  42.905   7.950
 5265POPC   C4B27274   4.192  42.890   7.650
 5266POPC   NC327275  33.780  42.353   9.450
 5266POPC   PO427276  33.761  42.290   9.150
 5266POPC   GL127277  33.846  42.343   8.850
 5266POPC   GL227278  33.921  42.418   8.850
 5266POPC   C1A27279  33.830  42.323   8.550
 5266POPC   D2A27280  33.839  42.351   8.250
 5266POPC   C3A27281  33.771  42.310   7.950
 5266POPC   C4A27282  33.848  42.333   7.650
 5266POPC   C1B27283  33.996  42.481   8.550
 5266POPC   C2B27284  33.931  42.507   8.250
 5266POPC   C3B27285  33.953  42.506   7.950
 5266POPC   C4B27286  33.960  42.484   7.650
 5267POPC   NC327287   3.581  26.788   9.450
 5267POPC   PO427288   3.541  26.786   9.150
 5267POPC   GL127289   3.569  26.836   8.850
 5267POPC   GL227290   3.709  26.818   8.850
 5267POPC   C1A27291   3.520  26.799   8.550
 5267POPC   D2A27292   3.580  26.854   8.250
 5267POPC   C3A27293   3.520  26.768   7.950
 5267POPC   C4A27294   3.506  26.835   7.650
 5267POPC   C1B27295   3.753  26.848   8.550
 5267POPC   C2B27296   3.820  26.885   8.250
 5267POPC   C3B27297   3.833  26.888   7.950
 5267POPC   C4B27298   3.760  26.871   7.650
 5268POPC   NC327299   5.055   7.431   9.450
 5268POPC   PO427300   5.138   7.440   9.150
 5268POPC   GL127301   5.051   7.430   8.850
 5268POPC   GL227302   5.003   7.501   8.850
 5268POPC   C1A27303   5.102   7.466   8.550
 5268POPC   D2A27304   5.091   7.448   8.250
 5268POPC   C3A27305   5.078   7.378   7.950
 5268POPC   C4A27306   5.132   7.382   7.650
 5268POPC   C1B27307   4.895   7.570   8.550
 5268POPC   C2B27308   4.894   7.517   8.250
 5268POPC   C3B27309   4.880   7.483   7.950
 5268POPC   C4B27310   4.824   7.537   7.650
 5269POPC   NC327311  29.153  36.163   9.450
 5269POPC   PO427312  29.142  36.153   9.150
 5269POPC   GL127313  29.097  36.111   8.850
 5269POPC   GL227314  29.142  36.018   8.850
 5269POPC   C1A27315  29.157  36.099   8.550
 5269POPC   D2A27316  29.183  36.128   8.250
 5269POPC   C3A27317  29.116  36.173   7.950
 5269POPC   C4A27318  29.190  36.141   7.650
 5269POPC   C1B27319  29.093  35.857   8.550
 5269POPC   C2B27320  29.107  35.869   8.250
 5269POPC   C3B27321  29.090  35.885   7.950
 5269POPC   C4B27322  29.110  35.839   7.650
 5270POPC   NC327323   3.523  30.671   9.450
 5270POPC   PO427324   3.527  30.732   9.150
 5270POPC   GL127325   3.527  30.717   8.850
 5270POPC   GL227326   3.484  30.816   8.850
 5270POPC   C1A27327   3.571  30.693   8.550
 5270POPC   D2A27328   3.540  30.660   8.250
 5270POPC   C3A27329   3.588  30.739   7.950
 5270POPC   C4A27330   3.551  30.721   7.650
 5270POPC   C1B27331   3.392  30.879   8.550
 5270POPC   C2B27332   3.484  30.889   8.250
 5270POPC   C3B27333   3.448  30.963   7.950
 5270POPC   C4B27334   3.488  30.953   7.650
 5271POPC   NC327335   5.845  43.113   9.450
 5271POPC   PO427336   5.865  43.108   9.150
 5271POPC   GL127337   5.835  43.095   8.850
 5271POPC   GL227338   5.856  42.966   8.850
 5271POPC   C1A27339   5.843  43.100   8.550
 5271POPC   D2A27340   5.834  43.066   8.250
 5271POPC   C3A27341   5.887  43.142   7.950
 5271POPC   C4A27342   5.867  43.123   7.650
 5271POPC   C1B27343   5.793  42.849   8.550
 5271POPC   C2B27344   5.782  42.859   8.250
 5271POPC   C3B27345   5.779  42.856   7.950
 5271POPC   C4B27346   5.783  42.859   7.650
 5272POPC   NC327347  16.744   3.508   9.450
 5272POPC   PO427348  16.777   3.540   9.150
 5272POPC   GL127349  16.716   3.571   8.850
 5272POPC   GL227350  16.823   3.480   8.850
 5272POPC   C1A27351  16.718   3.510   8.550
 5272POPC   D2A27352  16.746   3.509   8.250
 5272POPC   C3A27353  16.731   3.532   7.950
 5272POPC   C4A27354  16.738   3.513   7.650
 5272POPC   C1B27355  16.939   3.399   8.550
 5272POPC   C2B27356  16.918   3.366   8.250
 5272POPC   C3B27357  16.886   3.363   7.950
 5272POPC   C4B27358  16.962   3.356   7.650
 5273POPC   NC327359  16.759   4.364   9.450
 5273POPC   PO427360  16.713   4.345   9.150
 5273POPC   GL127361  16.725   4.351   8.850
 5273POPC   GL227362  16.659   4.185   8.850
 5273POPC   C1A27363  16.742   4.302   8.550
 5273POPC   D2A27364  16.685   4.292   8.250
 5273POPC   C3A27365  16.728   4.303   7.950
 5273POPC   C4A27366  16.736   4.336   7.650
 5273POPC   C1B27367  16.641   4.106   8.550
 5273POPC   C2B27368  16.657   4.101   8.250
 5273POPC   C3B27369  16.644   4.098   7.950
 5273POPC   C4B27370  16.633   4.026   7.650
 5274POPC   NC327371  21.421   0.448   9.450
 5274POPC   PO427372  21.361   0.407   9.150
 5274POPC   GL127373  21.346   0.431   8.850
 5274POPC   GL227374  21.490   0.387   8.850
 5274POPC   C1A27375  21.431   0.424   8.550
 5274POPC   D2A27376  21.354   0.443   8.250
 5274POPC   C3A27377  21.397   0.473   7.950
 5274POPC   C4A27378  21.431   0.445   7.650
 5274POPC   C1B27379  21.646   0.370   8.550
 5274POPC   C2B27380  21.680   0.362   8.250
 5274POPC   C3B27381  21.635   0.382   7.950
 5274POPC   C4B27382  21.658   0.344   7.650
 5275POPC   NC327383  24.444  16.000   9.450
 5275POPC   PO427384  24.539  15.912   9.150
 5275POPC   GL127385  24.516  15.951   8.850
 5275POPC   GL227386  24.384  16.073   8.850
 5275POPC   C1A27387  24.501  15.922   8.550
 5275POPC   D2A27388  24.536  15.930   8.250
 5275POPC   C3A27389  24.530  15.944   7.950
 5275POPC   C4A27390  24.474  15.946   7.650
 5275POPC   C1B27391  24.250  16.132   8.550
 5275POPC   C2B27392  24.307  16.115   8.250
 5275POPC   C3B27393  24.253  16.102   7.950
 5275POPC   C4B27394  24.285  16.127   7.650
 5276POPC   NC327395  20.640  23.673   9.450
 5276POPC   PO427396  20.637  23.738   9.150
 5276POPC   GL127397  20.656  23.753   8.850
 5276POPC   GL227398  20.556  23.786   8.850
 5276POPC   C1A27399  20.585  23.743   8.550
 5276POPC   D2A27400  20.585  23.684   8.250
 5276POPC   C3A27401  20.652  23.761   7.950
 5276POPC   C4A27402  20.617  23.703   7.650
 5276POPC   C1B27403  20.488  23.920   8.550
 5276POPC   C2B27404  20.499  23.963   8.250
 5276POPC   C3B27405  20.469  23.969   7.950
 5276POPC   C4B27406  20.432  23.925   7.650
 5277POPC   NC327407  31.487  39.964   9.450
 5277POPC   PO427408  31.510  39.974   9.150
 5277POPC   GL127409  31.486  39.993   8.850
 5277POPC   GL227410  31.475  39.836   8.850
 5277POPC   C1A27411  31.483  40.042   8.550
 5277POPC   D2A27412  31.483  40.004   8.250
 5277POPC   C3A27413  31.514  40.038   7.950
 5277POPC   C4A27414  31.480  39.994   7.650
 5277POPC   C1B27415  31.537  39.708   8.550
 5277POPC   C2B27416  31.447  39.805   8.250
 5277POPC   C3B27417  31.487  39.758   7.950
 5277POPC   C4B27418  31.514  39.786   7.650
 5278POPC   NC327419   2.765  44.631   9.450
 5278POPC   PO427420   2.779  44.679   9.150
 5278POPC   GL127421   2.769  44.674   8.850
 5278POPC   GL227422   2.805  44.719   8.850
 5278POPC   C1A27423   2.755  44.632   8.550
 5278POPC   D2A27424   2.798  44.675   8.250
 5278POPC   C3A27425   2.728  44.710   7.950
 5278POPC   C4A27426   2.731  44.660   7.650
 5278POPC   C1B27427   2.857  44.863   8.550
 5278POPC   C2B27428   2.899  44.909   8.250
 5278POPC   C3B27429   2.895  44.861   7.950
 5278POPC   C4B27430   2.879  44.900   7.650
 5279POPC   NC327431  21.351  21.381   9.450
 5279POPC   PO427432  21.425  21.430   9.150
 5279POPC   GL127433  21.409  21.386   8.850
 5279POPC   GL227434  21.527  21.274   8.850
 5279POPC   C1A27435  21.390  21.397   8.550
 5279POPC   D2A27436  21.352  21.400   8.250
 5279POPC   C3A27437  21.347  21.404   7.950
 5279POPC   C4A27438  21.433  21.417   7.650
 5279POPC   C1B27439  21.549  21.263   8.550
 5279POPC   C2B27440  21.562  21.276   8.250
 5279POPC   C3B27441  21.614  21.268   7.950
 5279POPC   C4B27442  21.530  21.262   7.650
 5280POPC   NC327443  38.461  20.628   9.450
 5280POPC   PO427444  38.437  20.574   9.150
 5280POPC   GL127445  38.442  20.614   8.850
 5280POPC   GL227446  38.328  20.526   8.850
 5280POPC   C1A27447  38.482  20.630   8.550
 5280POPC   D2A27448  38.479  20.604   8.250
 5280POPC   C3A27449  38.447  20.609   7.950
 5280POPC   C4A27450  38.472  20.585   7.650
 5280POPC   C1B27451  38.223  20.489   8.550
 5280POPC   C2B27452  38.218  20.466   8.250
 5280POPC   C3B27453  38.272  20.437   7.950
 5280POPC   C4B27454  38.304  20.455   7.650
 5281POPC   NC327455  28.323  40.801   9.450
 5281POPC   PO427456  28.380  40.778   9.150
 5281POPC   GL127457  28.325  40.734   8.850
 5281POPC   GL227458  28.436  40.860   8.850
 5281POPC   C1A27459  28.365  40.824   8.550
 5281POPC   D2A27460  28.381  40.777   8.250
 5281POPC   C3A27461  28.374  40.772   7.950
 5281POPC   C4A27462  28.335  40.760   7.650
 5281POPC   C1B27463  28.551  40.914   8.550
 5281POPC   C2B27464  28.609  40.877   8.250
 5281POPC   C3B27465  28.619  40.875   7.950
 5281POPC   C4B27466  28.607  40.924   7.650
 5282POPC   NC327467  32.282  14.436   9.450
 5282POPC   PO427468  32.297  14.448   9.150
 5282POPC   GL127469  32.250  14.359   8.850
 5282POPC   GL227470  32.116  14.420   8.850
 5282POPC   C1A27471  32.236  14.384   8.550
 5282POPC   D2A27472  32.219  14.413   8.250
 5282POPC   C3A27473  32.273  14.447   7.950
 5282POPC   C4A27474  32.222  14.406   7.650
 5282POPC   C1B27475  31.982  14.434   8.550
 5282POPC   C2B27476  31.983  14.452   8.250
 5282POPC   C3B27477  31.978  14.479   7.950
 5282POPC   C4B27478  31.977  14.445   7.650
 5283POPC   NC327479  28.347  44.689   9.450
 5283POPC   PO427480  28.385  44.628   9.150
 5283POPC   GL127481  28.352  44.633   8.850
 5283POPC   GL227482  28.392  44.565   8.850
 5283POPC   C1A27483  28.356  44.678   8.550
 5283POPC   D2A27484  28.416  44.702   8.250
 5283POPC   C3A27485  28.409  44.627   7.950
 5283POPC   C4A27486  28.418  44.700   7.650
 5283POPC   C1B27487  28.373  44.409   8.550
 5283POPC   C2B27488  28.397  44.374   8.250
 5283POPC   C3B27489  28.381  44.399   7.950
 5283POPC   C4B27490  28.365  44.364   7.650
 5284POPC   NC327491  10.537  35.368   9.450
 5284POPC   PO427492  10.507  35.394   9.150
 5284POPC   GL127493  10.491  35.351   8.850
 5284POPC   GL227494  10.666  35.433   8.850
 5284POPC   C1A27495  10.499  35.330   8.550
 5284POPC   D2A27496  10.538  35.353   8.250
 5284POPC   C3A27497  10.548  35.341   7.950
 5284POPC   C4A27498  10.483  35.304   7.650
 5284POPC   C1B27499  10.690  35.452   8.550
 5284POPC   C2B27500  10.689  35.462   8.250
 5284POPC   C3B27501  10.756  35.490   7.950
 5284POPC   C4B27502  10.760  35.459   7.650
 5285POPC   NC327503  34.571  19.821   9.450
 5285POPC   PO427504  34.535  19.864   9.150
 5285POPC   GL127505  34.613  19.824   8.850
 5285POPC   GL227506  34.434  19.841   8.850
 5285POPC   C1A27507  34.576  19.830   8.550
 5285POPC   D2A27508  34.619  19.823   8.250
 5285POPC   C3A27509  34.620  19.848   7.950
 5285POPC   C4A27510  34.616  19.849   7.650
 5285POPC   C1B27511  34.368  19.925   8.550
 5285POPC   C2B27512  34.349  19.864   8.250
 5285POPC   C3B27513  34.359  19.913   7.950
 5285POPC   C4B27514  34.351  19.912   7.650
 5286POPC   NC327515  10.475   6.607   9.450
 5286POPC   PO427516  10.572   6.676   9.150
 5286POPC   GL127517  10.509   6.642   8.850
 5286POPC   GL227518  10.662   6.680   8.850
 5286POPC   C1A27519  10.553   6.610   8.550
 5286POPC   D2A27520  10.558   6.613   8.250
 5286POPC   C3A27521  10.566   6.656   7.950
 5286POPC   C4A27522  10.510   6.637   7.650
 5286POPC   C1B27523  10.726   6.625   8.550
 5286POPC   C2B27524  10.748   6.653   8.250
 5286POPC   C3B27525  10.725   6.644   7.950
 5286POPC   C4B27526  10.792   6.689   7.650
 5287POPC   NC327527   0.474   3.529   9.450
 5287POPC   PO427528   0.419   3.578   9.150
 5287POPC   GL127529   0.470   3.541   8.850
 5287POPC   GL227530   0.306   3.576   8.850
 5287POPC   C1A27531   0.486   3.585   8.550
 5287POPC   D2A27532   0.427   3.579   8.250
 5287POPC   C3A27533   0.449   3.494   7.950
 5287POPC   C4A27534   0.401   3.515   7.650
 5287POPC   C1B27535   0.154   3.605   8.550
 5287POPC   C2B27536   0.193   3.592   8.250
 5287POPC   C3B27537   0.206   3.551   7.950
 5287POPC   C4B27538   0.141   3.614   7.650
 5288POPC   NC327539  15.970  27.580   9.450
 5288POPC   PO427540  15.987  27.582   9.150
 5288POPC   GL127541  15.914  27.590   8.850
 5288POPC   GL227542  15.970  27.424   8.850
 5288POPC   C1A27543  15.917  27.562   8.550
 5288POPC   D2A27544  15.979  27.595   8.250
 5288POPC   C3A27545  15.916  27.619   7.950
 5288POPC   C4A27546  15.964  27.609   7.650
 5288POPC   C1B27547  15.961  27.340   8.550
 5288POPC   C2B27548  15.934  27.294   8.250
 5288POPC   C3B27549  16.019  27.359   7.950
 5288POPC   C4B27550  15.986  27.383   7.650
 5289POPC   NC327551  31.463  29.175   9.450
 5289POPC   PO427552  31.446  29.166   9.150
 5289POPC   GL127553  31.470  29.163   8.850
 5289POPC   GL227554  31.558  29.012   8.850
 5289POPC   C1A27555  31.439  29.165   8.550
 5289POPC   D2A27556  31.472  29.127   8.250
 5289POPC   C3A27557  31.423  29.115   7.950
 5289POPC   C4A27558  31.440  29.129   7.650
 5289POPC   C1B27559  31.704  28.963   8.550
 5289POPC   C2B27560  31.655  28.973   8.250
 5289POPC   C3B27561  31.640  28.991   7.950
 5289POPC   C4B27562  31.633  28.952   7.650
 5290POPC   NC327563  30.662  43.126   9.450
 5290POPC   PO427564  30.657  43.144   9.150
 5290POPC   GL127565  30.721  43.075   8.850
 5290POPC   GL227566  30.621  43.111   8.850
 5290POPC   C1A27567  30.687  43.154   8.550
 5290POPC   D2A27568  30.694  43.108   8.250
 5290POPC   C3A27569  30.713  43.061   7.950
 5290POPC   C4A27570  30.734  43.110   7.650
 5290POPC   C1B27571  30.458  43.085   8.550
 5290POPC   C2B27572  30.418  43.049   8.250
 5290POPC   C3B27573  30.411  43.086   7.950
 5290POPC   C4B27574  30.491  43.039   7.650
 5291POPC   NC327575  11.271   6.683   9.450
 5291POPC   PO427576  11.254   6.610   9.150
 5291POPC   GL127577  11.306   6.605   8.850
 5291POPC   GL227578  11.389   6.718   8.850
 5291POPC   C1A27579  11.286   6.689   8.550
 5291POPC   D2A27580  11.323   6.623   8.250
 5291POPC   C3A27581  11.276   6.616   7.950
 5291POPC   C4A27582  11.257   6.602   7.650
 5291POPC   C1B27583  11.461   6.871   8.550
 5291POPC   C2B27584  11.500   6.836   8.250
 5291POPC   C3B27585  11.519   6.788   7.950
 5291POPC   C4B27586  11.460   6.833   7.650
 5292POPC   NC327587  43.076  36.110   9.450
 5292POPC   PO427588  43.133  36.103   9.150
 5292POPC   GL127589  43.120  36.132   8.850
 5292POPC   GL227590  42.990  36.157   8.850
 5292POPC   C1A27591  43.106  36.107   8.550
 5292POPC   D2A27592  43.141  36.163   8.250
 5292POPC   C3A27593  43.099  36.133   7.950
 5292POPC   C4A27594  43.152  36.144   7.650
 5292POPC   C1B27595  42.865  36.315   8.550
 5292POPC   C2B27596  42.928  36.248   8.250
 5292POPC   C3B27597  42.921  36.271   7.950
 5292POPC   C4B27598  42.901  36.268   7.650
 5293POPC   NC327599  25.234  24.453   9.450
 5293POPC   PO427600  25.292  24.513   9.150
 5293POPC   GL127601  25.278  24.481   8.850
 5293POPC   GL227602  25.204  24.533   8.850
 5293POPC   C1A27603  25.297  24.519   8.550
 5293POPC   D2A27604  25.241  24.501   8.250
 5293POPC   C3A27605  25.271  24.490   7.950
 5293POPC   C4A27606  25.256  24.524   7.650
 5293POPC   C1B27607  25.029  24.582   8.550
 5293POPC   C2B27608  25.088  24.602   8.250
 5293POPC   C3B27609  25.038  24.638   7.950
 5293POPC   C4B27610  25.002  24.615   7.650
 5294POPC   NC327611  43.934  36.890   9.450
 5294POPC   PO427612  43.895  36.887   9.150
 5294POPC   GL127613  43.917  36.879   8.850
 5294POPC   GL227614  43.756  36.877   8.850
 5294POPC   C1A27615  43.854  36.900   8.550
 5294POPC   D2A27616  43.853  36.887   8.250
 5294POPC   C3A27617  43.932  36.932   7.950
 5294POPC   C4A27618  43.876  36.937   7.650
 5294POPC   C1B27619  43.669  36.799   8.550
 5294POPC   C2B27620  43.736  36.710   8.250
 5294POPC   C3B27621  43.655  36.733   7.950
 5294POPC   C4B27622  43.723  36.704   7.650
 5295POPC   NC327623  15.210  14.364   9.450
 5295POPC   PO427624  15.149  14.446   9.150
 5295POPC   GL127625  15.199  14.447   8.850
 5295POPC   GL227626  15.239  14.301   8.850
 5295POPC   C1A27627  15.133  14.360   8.550
 5295POPC   D2A27628  15.212  14.405   8.250
 5295POPC   C3A27629  15.186  14.399   7.950
 5295POPC   C4A27630  15.195  14.418   7.650
 5295POPC   C1B27631  15.293  14.230   8.550
 5295POPC   C2B27632  15.287  14.178   8.250
 5295POPC   C3B27633  15.335  14.140   7.950
 5295POPC   C4B27634  15.268  14.223   7.650
 5296POPC   NC327635  36.943  39.212   9.450
 5296POPC   PO427636  36.933  39.264   9.150
 5296POPC   GL127637  36.927  39.209   8.850
 5296POPC   GL227638  37.016  39.277   8.850
 5296POPC   C1A27639  36.875  39.194   8.550
 5296POPC   D2A27640  36.927  39.226   8.250
 5296POPC   C3A27641  36.913  39.204   7.950
 5296POPC   C4A27642  36.943  39.200   7.650
 5296POPC   C1B27643  37.088  39.312   8.550
 5296POPC   C2B27644  37.100  39.353   8.250
 5296POPC   C3B27645  37.126  39.351   7.950
 5296POPC   C4B27646  37.164  39.323   7.650
 5297POPC   NC327647   7.382   8.987   9.450
 5297POPC   PO427648   7.408   8.990   9.150
 5297POPC   GL127649   7.466   8.953   8.850
 5297POPC   GL227650   7.329   8.919   8.850
 5297POPC   C1A27651   7.463   9.017   8.550
 5297POPC   D2A27652   7.434   8.931   8.250
 5297POPC   C3A27653   7.382   8.952   7.950
 5297POPC   C4A27654   7.410   9.010   7.650
 5297POPC   C1B27655   7.147   8.927   8.550
 5297POPC   C2B27656   7.189   8.975   8.250
 5297POPC   C3B27657   7.182   8.940   7.950
 5297POPC   C4B27658   7.151   8.953   7.650
 5298POPC   NC327659   9.004  13.600   9.450
 5298POPC   PO427660   9.009  13.621   9.150
 5298POPC   GL127661   8.974  13.671   8.850
 5298POPC   GL227662   8.867  13.591   8.850
 5298POPC   C1A27663   9.011  13.670   8.550
 5298POPC   D2A27664   8.929  13.595   8.250
 5298POPC   C3A27665   8.949  13.613   7.950
 5298POPC   C4A27666   8.928  13.667   7.650
 5298POPC   C1B27667   8.740  13.670   8.550
 5298POPC   C2B27668   8.676  13.668   8.250
 5298POPC   C3B27669   8.708  13.665   7.950
 5298POPC   C4B27670   8.747  13.666   7.650
 5299POPC   NC327671  28.391   1.241   9.450
 5299POPC   PO427672  28.334   1.210   9.150
 5299POPC   GL127673  28.399   1.197   8.850
 5299POPC   GL227674  28.288   1.208   8.850
 5299POPC   C1A27675  28.326   1.194   8.550
 5299POPC   D2A27676  28.329   1.167   8.250
 5299POPC   C3A27677  28.393   1.229   7.950
 5299POPC   C4A27678  28.367   1.185   7.650
 5299POPC   C1B27679  28.167   1.228   8.550
 5299POPC   C2B27680  28.165   1.166   8.250
 5299POPC   C3B27681  28.081   1.217   7.950
 5299POPC   C4B27682  28.154   1.163   7.650
 5300POPC   NC327683  15.212  15.960   9.450
 5300POPC   PO427684  15.180  15.980   9.150
 5300POPC   GL127685  15.185  15.916   8.850
 5300POPC   GL227686  15.135  15.837   8.850
 5300POPC   C1A27687  15.154  15.926   8.550
 5300POPC   D2A27688  15.131  15.941   8.250
 5300POPC   C3A27689  15.168  15.946   7.950
 5300POPC   C4A27690  15.212  15.921   7.650
 5300POPC   C1B27691  15.093  15.684   8.550
 5300POPC   C2B27692  15.110  15.765   8.250
 5300POPC   C3B27693  15.097  15.741   7.950
 5300POPC   C4B27694  15.057  15.719   7.650
 5301POPC   NC327695  33.806  17.490   9.450
 5301POPC   PO427696  33.816  17.497   9.150
 5301POPC   GL127697  33.779  17.501   8.850
 5301POPC   GL227698  33.846  17.666   8.850
 5301POPC   C1A27699  33.761  17.515   8.550
 5301POPC   D2A27700  33.785  17.496   8.250
 5301POPC   C3A27701  33.829  17.557   7.950
 5301POPC   C4A27702  33.820  17.465   7.650
 5301POPC   C1B27703  33.874  17.692   8.550
 5301POPC   C2B27704  33.929  17.716   8.250
 5301POPC   C3B27705  33.918  17.734   7.950
 5301POPC   C4B27706  33.902  17.739   7.650
 5302POPC   NC327707  29.136   0.488   9.450
 5302POPC   PO427708  29.107   0.389   9.150
 5302POPC   GL127709  29.164   0.466   8.850
 5302POPC   GL227710  29.235   0.335   8.850
 5302POPC   C1A27711  29.131   0.397   8.550
 5302POPC   D2A27712  29.183   0.432   8.250
 5302POPC   C3A27713  29.144   0.482   7.950
 5302POPC   C4A27714  29.145   0.403   7.650
 5302POPC   C1B27715  29.329   0.321   8.550
 5302POPC   C2B27716  29.414   0.303   8.250
 5302POPC   C3B27717  29.346   0.287   7.950
 5302POPC   C4B27718  29.363   0.369   7.650
 5303POPC   NC327719  29.919  16.752   9.450
 5303POPC   PO427720  29.915  16.712   9.150
 5303POPC   GL127721  29.966  16.697   8.850
 5303POPC   GL227722  29.839  16.653   8.850
 5303POPC   C1A27723  29.912  16.729   8.550
 5303POPC   D2A27724  29.966  16.699   8.250
 5303POPC   C3A27725  29.960  16.743   7.950
 5303POPC   C4A27726  29.918  16.752   7.650
 5303POPC   C1B27727  29.811  16.491   8.550
 5303POPC   C2B27728  29.809  16.547   8.250
 5303POPC   C3B27729  29.721  16.581   7.950
 5303POPC   C4B27730  29.716  16.553   7.650
 5304POPC   NC327731  39.269   1.165   9.450
 5304POPC   PO427732  39.234   1.192   9.150
 5304POPC   GL127733  39.207   1.175   8.850
 5304POPC   GL227734  39.101   1.162   8.850
 5304POPC   C1A27735  39.214   1.181   8.550
 5304POPC   D2A27736  39.246   1.251   8.250
 5304POPC   C3A27737  39.188   1.254   7.950
 5304POPC   C4A27738  39.194   1.226   7.650
 5304POPC   C1B27739  39.018   1.003   8.550
 5304POPC   C2B27740  39.036   1.028   8.250
 5304POPC   C3B27741  39.080   1.073   7.950
 5304POPC   C4B27742  39.110   0.998   7.650
 5305POPC   NC327743  22.974  25.219   9.450
 5305POPC   PO427744  22.927  25.267   9.150
 5305POPC   GL127745  22.978  25.242   8.850
 5305POPC   GL227746  23.066  25.372   8.850
 5305POPC   C1A27747  22.908  25.251   8.550
 5305POPC   D2A27748  22.919  25.277   8.250
 5305POPC   C3A27749  22.898  25.217   7.950
 5305POPC   C4A27750  22.915  25.236   7.650
 5305POPC   C1B27751  23.113  25.458   8.550
 5305POPC   C2B27752  23.116  25.433   8.250
 5305POPC   C3B27753  23.117  25.467   7.950
 5305POPC   C4B27754  23.065  25.462   7.650
 5306POPC   NC327755  10.523   5.851   9.450
 5306POPC   PO427756  10.559   5.865   9.150
 5306POPC   GL127757  10.567   5.856   8.850
 5306POPC   GL227758  10.586   5.959   8.850
 5306POPC   C1A27759  10.555   5.858   8.550
 5306POPC   D2A27760  10.569   5.882   8.250
 5306POPC   C3A27761  10.507   5.841   7.950
 5306POPC   C4A27762  10.510   5.874   7.650
 5306POPC   C1B27763  10.672   6.010   8.550
 5306POPC   C2B27764  10.682   6.092   8.250
 5306POPC   C3B27765  10.716   6.064   7.950
 5306POPC   C4B27766  10.666   6.037   7.650
 5307POPC   NC327767  37.712   0.435   9.450
 5307POPC   PO427768  37.718   0.435   9.150
 5307POPC   GL127769  37.727   0.409   8.850
 5307POPC   GL227770  37.632   0.296   8.850
 5307POPC   C1A27771  37.680   0.446   8.550
 5307POPC   D2A27772  37.714   0.406   8.250
 5307POPC   C3A27773  37.644   0.418   7.950
 5307POPC   C4A27774  37.722   0.395   7.650
 5307POPC   C1B27775  37.551   0.232   8.550
 5307POPC   C2B27776  37.613   0.226   8.250
 5307POPC   C3B27777  37.574   0.254   7.950
 5307POPC   C4B27778  37.596   0.208   7.650
 5308POPC   NC327779  29.192  43.099   9.450
 5308POPC   PO427780  29.131  43.132   9.150
 5308POPC   GL127781  29.102  43.111   8.850
 5308POPC   GL227782  29.098  43.148   8.850
 5308POPC   C1A27783  29.178  43.122   8.550
 5308POPC   D2A27784  29.141  43.158   8.250
 5308POPC   C3A27785  29.180  43.072   7.950
 5308POPC   C4A27786  29.192  43.111   7.650
 5308POPC   C1B27787  28.958  43.266   8.550
 5308POPC   C2B27788  28.939  43.275   8.250
 5308POPC   C3B27789  28.980  43.315   7.950
 5308POPC   C4B27790  28.976  43.245   7.650
 5309POPC   NC327791  37.663  35.331   9.450
 5309POPC   PO427792  37.650  35.367   9.150
 5309POPC   GL127793  37.703  35.324   8.850
 5309POPC   GL227794  37.616  35.431   8.850
 5309POPC   C1A27795  37.644  35.399   8.550
 5309POPC   D2A27796  37.639  35.313   8.250
 5309POPC   C3A27797  37.666  35.310   7.950
 5309POPC   C4A27798  37.663  35.394   7.650
 5309POPC   C1B27799  37.462  35.482   8.550
 5309POPC   C2B27800  37.503  35.527   8.250
 5309POPC   C3B27801  37.512  35.537   7.950
 5309POPC   C4B27802  37.491  35.470   7.650
 5310POPC   NC327803   9.737  37.726   9.450
 5310POPC   PO427804   9.761  37.667   9.150
 5310POPC   GL127805   9.777  37.631   8.850
 5310POPC   GL227806   9.643  37.654   8.850
 5310POPC   C1A27807   9.737  37.727   8.550
 5310POPC   D2A27808   9.721  37.671   8.250
 5310POPC   C3A27809   9.722  37.636   7.950
 5310POPC   C4A27810   9.791  37.686   7.650
 5310POPC   C1B27811   9.496  37.591   8.550
 5310POPC   C2B27812   9.487  37.561   8.250
 5310POPC   C3B27813   9.570  37.538   7.950
 5310POPC   C4B27814   9.563  37.595   7.650
 5311POPC   NC327815  39.223  36.101   9.450
 5311POPC   PO427816  39.274  36.083   9.150
 5311POPC   GL127817  39.181  36.091   8.850
 5311POPC   GL227818  39.121  36.161   8.850
 5311POPC   C1A27819  39.197  36.123   8.550
 5311POPC   D2A27820  39.221  36.105   8.250
 5311POPC   C3A27821  39.271  36.177   7.950
 5311POPC   C4A27822  39.247  36.108   7.650
 5311POPC   C1B27823  39.025  36.111   8.550
 5311POPC   C2B27824  39.006  36.165   8.250
 5311POPC   C3B27825  38.988  36.100   7.950
 5311POPC   C4B27826  38.950  36.151   7.650
 5312POPC   NC327827  41.535  10.482   9.450
 5312POPC   PO427828  41.604  10.565   9.150
 5312POPC   GL127829  41.583  10.542   8.850
 5312POPC   GL227830  41.492  10.621   8.850
 5312POPC   C1A27831  41.546  10.497   8.550
 5312POPC   D2A27832  41.601  10.524   8.250
 5312POPC   C3A27833  41.551  10.569   7.950
 5312POPC   C4A27834  41.535  10.520   7.650
 5312POPC   C1B27835  41.322  10.582   8.550
 5312POPC   C2B27836  41.360  10.600   8.250
 5312POPC   C3B27837  41.366  10.585   7.950
 5312POPC   C4B27838  41.359  10.589   7.650
 5313POPC   NC327839   6.623   5.914   9.450
 5313POPC   PO427840   6.666   5.901   9.150
 5313POPC   GL127841   6.615   5.856   8.850
 5313POPC   GL227842   6.592   5.759   8.850
 5313POPC   C1A27843   6.639   5.881   8.550
 5313POPC   D2A27844   6.613   5.867   8.250
 5313POPC   C3A27845   6.632   5.849   7.950
 5313POPC   C4A27846   6.602   5.907   7.650
 5313POPC   C1B27847   6.610   5.639   8.550
 5313POPC   C2B27848   6.658   5.665   8.250
 5313POPC   C3B27849   6.576   5.586   7.950
 5313POPC   C4B27850   6.646   5.649   7.650
 5314POPC   NC327851   0.425  15.994   9.450
 5314POPC   PO427852   0.437  16.003   9.150
 5314POPC   GL127853   0.393  15.956   8.850
 5314POPC   GL227854   0.573  15.928   8.850
 5314POPC   C1A27855   0.395  15.979   8.550
 5314POPC   D2A27856   0.445  15.984   8.250
 5314POPC   C3A27857   0.487  15.997   7.950
 5314POPC   C4A27858   0.485  15.985   7.650
 5314POPC   C1B27859   0.678  15.946   8.550
 5314POPC   C2B27860   0.695  15.874   8.250
 5314POPC   C3B27861   0.651  15.918   7.950
 5314POPC   C4B27862   0.689  15.856   7.650
 5315POPC   NC327863  24.477  19.810   9.450
 5315POPC   PO427864  24.483  19.818   9.150
 5315POPC   GL127865  24.456  19.795   8.850
 5315POPC   GL227866  24.502  19.748   8.850
 5315POPC   C1A27867  24.452  19.862   8.550
 5315POPC   D2A27868  24.474  19.836   8.250
 5315POPC   C3A27869  24.470  19.843   7.950
 5315POPC   C4A27870  24.498  19.876   7.650
 5315POPC   C1B27871  24.545  19.635   8.550
 5315POPC   C2B27872  24.513  19.554   8.250
 5315POPC   C3B27873  24.571  19.621   7.950
 5315POPC   C4B27874  24.531  19.545   7.650
 5316POPC   NC327875  29.138  22.128   9.450
 5316POPC   PO427876  29.174  22.150   9.150
 5316POPC   GL127877  29.181  22.137   8.850
 5316POPC   GL227878  29.169  22.032   8.850
 5316POPC   C1A27879  29.184  22.172   8.550
 5316POPC   D2A27880  29.112  22.174   8.250
 5316POPC   C3A27881  29.171  22.123   7.950
 5316POPC   C4A27882  29.164  22.160   7.650
 5316POPC   C1B27883  29.279  21.961   8.550
 5316POPC   C2B27884  29.197  21.935   8.250
 5316POPC   C3B27885  29.285  21.977   7.950
 5316POPC   C4B27886  29.261  21.922   7.650
 5317POPC   NC327887  29.135  35.359   9.450
 5317POPC   PO427888  29.101  35.336   9.150
 5317POPC   GL127889  29.144  35.344   8.850
 5317POPC   GL227890  29.239  35.383   8.850
 5317POPC   C1A27891  29.176  35.348   8.550
 5317POPC   D2A27892  29.128  35.386   8.250
 5317POPC   C3A27893  29.193  35.319   7.950
 5317POPC   C4A27894  29.171  35.325   7.650
 5317POPC   C1B27895  29.301  35.523   8.550
 5317POPC   C2B27896  29.345  35.522   8.250
 5317POPC   C3B27897  29.297  35.541   7.950
 5317POPC   C4B27898  29.371  35.523   7.650
 5318POPC   NC327899  35.336  26.784   9.450
 5318POPC   PO427900  35.392  26.794   9.150
 5318POPC   GL127901  35.371  26.854   8.850
 5318POPC   GL227902  35.295  26.943   8.850
 5318POPC   C1A27903  35.351  26.864   8.550
 5318POPC   D2A27904  35.379  26.810   8.250
 5318POPC   C3A27905  35.391  26.835   7.950
 5318POPC   C4A27906  35.317  26.836   7.650
 5318POPC   C1B27907  35.281  27.025   8.550
 5318POPC   C2B27908  35.253  27.086   8.250
 5318POPC   C3B27909  35.208  27.051   7.950
 5318POPC   C4B27910  35.248  27.059   7.650
 5319POPC   NC327911  15.969  38.493   9.450
 5319POPC   PO427912  15.946  38.456   9.150
 5319POPC   GL127913  15.992  38.484   8.850
 5319POPC   GL227914  15.874  38.366   8.850
 5319POPC   C1A27915  15.998  38.421   8.550
 5319POPC   D2A27916  15.930  38.454   8.250
 5319POPC   C3A27917  15.993  38.484   7.950
 5319POPC   C4A27918  15.913  38.491   7.650
 5319POPC   C1B27919  15.725  38.351   8.550
 5319POPC   C2B27920  15.757  38.280   8.250
 5319POPC   C3B27921  15.746  38.259   7.950
 5319POPC   C4B27922  15.723  38.300   7.650
 5320POPC   NC327923  15.936  19.806   9.450
 5320POPC   PO427924  15.974  19.789   9.150
 5320POPC   GL127925  15.956  19.863   8.850
 5320POPC   GL227926  15.919  19.943   8.850
 5320POPC   C1A27927  16.003  19.878   8.550
 5320POPC   D2A27928  15.956  19.848   8.250
 5320POPC   C3A27929  15.944  19.879   7.950
 5320POPC   C4A27930  15.980  19.832   7.650
 5320POPC   C1B27931  15.834  20.047   8.550
 5320POPC   C2B27932  15.813  20.080   8.250
 5320POPC   C3B27933  15.844  20.049   7.950
 5320POPC   C4B27934  15.887  20.084   7.650
 5321POPC   NC327935  31.436  10.484   9.450
 5321POPC   PO427936  31.500  10.481   9.150
 5321POPC   GL127937  31.522  10.554   8.850
 5321POPC   GL227938  31.595  10.518   8.850
 5321POPC   C1A27939  31.497  10.523   8.550
 5321POPC   D2A27940  31.427  10.502   8.250
 5321POPC   C3A27941  31.469  10.517   7.950
 5321POPC   C4A27942  31.469  10.511   7.650
 5321POPC   C1B27943  31.673  10.643   8.550
 5321POPC   C2B27944  31.732  10.561   8.250
 5321POPC   C3B27945  31.713  10.645   7.950
 5321POPC   C4B27946  31.741  10.585   7.650
 5322POPC   NC327947   5.108  42.320   9.450
 5322POPC   PO427948   5.050  42.378   9.150
 5322POPC   GL127949   5.094  42.316   8.850
 5322POPC   GL227950   4.978  42.344   8.850
 5322POPC   C1A27951   5.128  42.372   8.550
 5322POPC   D2A27952   5.066  42.346   8.250
 5322POPC   C3A27953   5.044  42.350   7.950
 5322POPC   C4A27954   5.115  42.341   7.650
 5322POPC   C1B27955   4.841  42.245   8.550
 5322POPC   C2B27956   4.809  42.241   8.250
 5322POPC   C3B27957   4.809  42.256   7.950
 5322POPC   C4B27958   4.856  42.219   7.650
 5323POPC   NC327959  19.838  43.908   9.450
 5323POPC   PO427960  19.857  43.842   9.150
 5323POPC   GL127961  19.787  43.909   8.850
 5323POPC   GL227962  19.777  43.767   8.850
 5323POPC   C1A27963  19.812  43.840   8.550
 5323POPC   D2A27964  19.859  43.931   8.250
 5323POPC   C3A27965  19.802  43.876   7.950
 5323POPC   C4A27966  19.884  43.907   7.650
 5323POPC   C1B27967  19.680  43.700   8.550
 5323POPC   C2B27968  19.682  43.679   8.250
 5323POPC   C3B27969  19.625  43.738   7.950
 5323POPC   C4B27970  19.716  43.687   7.650
 5324POPC   NC327971   1.953   8.228   9.450
 5324POPC   PO427972   1.940   8.148   9.150
 5324POPC   GL127973   1.967   8.190   8.850
 5324POPC   GL227974   1.943   8.094   8.850
 5324POPC   C1A27975   2.022   8.203   8.550
 5324POPC   D2A27976   2.011   8.156   8.250
 5324POPC   C3A27977   1.976   8.240   7.950
 5324POPC   C4A27978   2.012   8.202   7.650
 5324POPC   C1B27979   1.971   7.928   8.550
 5324POPC   C2B27980   1.994   7.986   8.250
 5324POPC   C3B27981   2.005   7.961   7.950
 5324POPC   C4B27982   1.977   7.959   7.650
 5325POPC   NC327983  12.879   5.053   9.450
 5325POPC   PO427984  12.811   5.131   9.150
 5325POPC   GL127985  12.901   5.138   8.850
 5325POPC   GL227986  12.947   5.185   8.850
 5325POPC   C1A27987  12.826   5.129   8.550
 5325POPC   D2A27988  12.892   5.052   8.250
 5325POPC   C3A27989  12.812   5.106   7.950
 5325POPC   C4A27990  12.820   5.107   7.650
 5325POPC   C1B27991  12.912   5.352   8.550
 5325POPC   C2B27992  12.923   5.318   8.250
 5325POPC   C3B27993  12.935   5.349   7.950
 5325POPC   C4B27994  13.006   5.360   7.650
 5326POPC   NC327995  22.153  36.874   9.450
 5326POPC   PO427996  22.132  36.854   9.150
 5326POPC   GL127997  22.116  36.915   8.850
 5326POPC   GL227998  22.220  36.852   8.850
 5326POPC   C1A27999  22.173  36.858   8.550
 5326POPC   D2A28000  22.156  36.912   8.250
 5326POPC   C3A28001  22.154  36.924   7.950
 5326POPC   C4A28002  22.152  36.946   7.650
 5326POPC   C1B28003  22.319  36.740   8.550
 5326POPC   C2B28004  22.378  36.699   8.250
 5326POPC   C3B28005  22.352  36.688   7.950
 5326POPC   C4B28006  22.339  36.754   7.650
 5327POPC   NC328007   2.760  43.893   9.450
 5327POPC   PO428008   2.724  43.867   9.150
 5327POPC   GL128009   2.800  43.873   8.850
 5327POPC   GL228010   2.626  43.841   8.850
 5327POPC   C1A28011   2.757  43.890   8.550
 5327POPC   D2A28012   2.721  43.857   8.250
 5327POPC   C3A28013   2.813  43.912   7.950
 5327POPC   C4A28014   2.716  43.842   7.650
 5327POPC   C1B28015   2.564  43.889   8.550
 5327POPC   C2B28016   2.485  43.878   8.250
 5327POPC   C3B28017   2.540  43.860   7.950
 5327POPC   C4B28018   2.478  43.844   7.650
 5328POPC   NC328019  33.824  11.259   9.450
 5328POPC   PO428020  33.843  11.267   9.150
 5328POPC   GL128021  33.785  11.315   8.850
 5328POPC   GL228022  33.766  11.239   8.850
 5328POPC   C1A28023  33.759  11.349   8.550
 5328POPC   D2A28024  33.774  11.320   8.250
 5328POPC   C3A28025  33.763  11.311   7.950
 5328POPC   C4A28026  33.772  11.314   7.650
 5328POPC   C1B28027  33.711  11.046   8.550
 5328POPC   C2B28028  33.650  11.114   8.250
 5328POPC   C3B28029  33.620  11.089   7.950
 5328POPC   C4B28030  33.628  11.080   7.650
 5329POPC   NC328031  14.379   1.251   9.450
 5329POPC   PO428032  14.411   1.251   9.150
 5329POPC   GL128033  14.426   1.237   8.850
 5329POPC   GL228034  14.463   1.337   8.850
 5329POPC   C1A28035  14.449   1.237   8.550
 5329POPC   D2A28036  14.393   1.237   8.250
 5329POPC   C3A28037  14.409   1.241   7.950
 5329POPC   C4A28038  14.356   1.224   7.650
 5329POPC   C1B28039  14.456   1.463   8.550
 5329POPC   C2B28040  14.455   1.483   8.250
 5329POPC   C3B28041  14.469   1.427   7.950
 5329POPC   C4B28042  14.503   1.458   7.650
 5330POPC   NC328043  34.616  12.812   9.450
 5330POPC   PO428044  34.602  12.871   9.150
 5330POPC   GL128045  34.602  12.808   8.850
 5330POPC   GL228046  34.677  12.820   8.850
 5330POPC   C1A28047  34.619  12.869   8.550
 5330POPC   D2A28048  34.576  12.836   8.250
 5330POPC   C3A28049  34.573  12.826   7.950
 5330POPC   C4A28050  34.597  12.818   7.650
 5330POPC   C1B28051  34.864  12.877   8.550
 5330POPC   C2B28052  34.808  12.823   8.250
 5330POPC   C3B28053  34.835  12.835   7.950
 5330POPC   C4B28054  34.845  12.886   7.650
 5331POPC   NC328055   5.879   3.559   9.450
 5331POPC   PO428056   5.839   3.555   9.150
 5331POPC   GL128057   5.867   3.536   8.850
 5331POPC   GL228058   5.913   3.639   8.850
 5331POPC   C1A28059   5.825   3.589   8.550
 5331POPC   D2A28060   5.901   3.514   8.250
 5331POPC   C3A28061   5.856   3.560   7.950
 5331POPC   C4A28062   5.821   3.583   7.650
 5331POPC   C1B28063   6.032   3.713   8.550
 5331POPC   C2B28064   6.024   3.794   8.250
 5331POPC   C3B28065   5.958   3.768   7.950
 5331POPC   C4B28066   6.038   3.788   7.650
 5332POPC   NC328067  11.345  33.797   9.450
 5332POPC   PO428068  11.320  33.807   9.150
 5332POPC   GL128069  11.258  33.760   8.850
 5332POPC   GL228070  11.366  33.746   8.850
 5332POPC   C1A28071  11.323  33.846   8.550
 5332POPC   D2A28072  11.312  33.833   8.250
 5332POPC   C3A28073  11.271  33.830   7.950
 5332POPC   C4A28074  11.269  33.758   7.650
 5332POPC   C1B28075  11.425  33.595   8.550
 5332POPC   C2B28076  11.432  33.548   8.250
 5332POPC   C3B28077  11.426  33.625   7.950
 5332POPC   C4B28078  11.469  33.589   7.650
 5333POPC   NC328079   1.254  22.136   9.450
 5333POPC   PO428080   1.168  22.116   9.150
 5333POPC   GL128081   1.226  22.156   8.850
 5333POPC   GL228082   1.306  22.046   8.850
 5333POPC   C1A28083   1.205  22.188   8.550
 5333POPC   D2A28084   1.223  22.165   8.250
 5333POPC   C3A28085   1.173  22.143   7.950
 5333POPC   C4A28086   1.229  22.198   7.650
 5333POPC   C1B28087   1.403  22.003   8.550
 5333POPC   C2B28088   1.412  21.984   8.250
 5333POPC   C3B28089   1.425  21.984   7.950
 5333POPC   C4B28090   1.389  21.987   7.650
 5334POPC   NC328091  33.012  28.368   9.450
 5334POPC   PO428092  33.037  28.412   9.150
 5334POPC   GL128093  32.996  28.418   8.850
 5334POPC   GL228094  32.946  28.257   8.850
 5334POPC   C1A28095  33.008  28.371   8.550
 5334POPC   D2A28096  32.989  28.416   8.250
 5334POPC   C3A28097  33.023  28.324   7.950
 5334POPC   C4A28098  32.976  28.399   7.650
 5334POPC   C1B28099  32.837  28.150   8.550
 5334POPC   C2B28100  32.869  28.189   8.250
 5334POPC   C3B28101  32.907  28.200   7.950
 5334POPC   C4B28102  32.905  28.213   7.650
 5335POPC   NC328103  12.072   5.830   9.450
 5335POPC   PO428104  12.079   5.829   9.150
 5335POPC   GL128105  12.122   5.854   8.850
 5335POPC   GL228106  11.911   5.930   8.850
 5335POPC   C1A28107  12.070   5.828   8.550
 5335POPC   D2A28108  12.074   5.893   8.250
 5335POPC   C3A28109  12.039   5.862   7.950
 5335POPC   C4A28110  12.118   5.913   7.650
 5335POPC   C1B28111  11.814   5.894   8.550
 5335POPC   C2B28112  11.808   5.876   8.250
 5335POPC   C3B28113  11.827   5.931   7.950
 5335POPC   C4B28114  11.829   5.898   7.650
 5336POPC   NC328115  42.298  22.158   9.450
 5336POPC   PO428116  42.360  22.157   9.150
 5336POPC   GL128117  42.322  22.117   8.850
 5336POPC   GL228118  42.482  22.066   8.850
 5336POPC   C1A28119  42.376  22.158   8.550
 5336POPC   D2A28120  42.299  22.152   8.250
 5336POPC   C3A28121  42.360  22.180   7.950
 5336POPC   C4A28122  42.331  22.202   7.650
 5336POPC   C1B28123  42.609  22.083   8.550
 5336POPC   C2B28124  42.580  22.037   8.250
 5336POPC   C3B28125  42.564  22.062   7.950
 5336POPC   C4B28126  42.598  22.082   7.650
 5337POPC   NC328127  29.928  25.233   9.450
 5337POPC   PO428128  29.913  25.270   9.150
 5337POPC   GL128129  29.893  25.247   8.850
 5337POPC   GL228130  29.967  25.422   8.850
 5337POPC   C1A28131  29.911  25.309   8.550
 5337POPC   D2A28132  29.874  25.310   8.250
 5337POPC   C3A28133  29.885  25.249   7.950
 5337POPC   C4A28134  29.875  25.304   7.650
 5337POPC   C1B28135  29.994  25.444   8.550
 5337POPC   C2B28136  30.024  25.491   8.250
 5337POPC   C3B28137  30.076  25.529   7.950
 5337POPC   C4B28138  30.028  25.496   7.650
 5338POPC   NC328139  36.917  37.636   9.450
 5338POPC   PO428140  36.892  37.693   9.150
 5338POPC   GL128141  36.949  37.703   8.850
 5338POPC   GL228142  37.032  37.697   8.850
 5338POPC   C1A28143  36.931  37.671   8.550
 5338POPC   D2A28144  36.856  37.656   8.250
 5338POPC   C3A28145  36.947  37.697   7.950
 5338POPC   C4A28146  36.855  37.632   7.650
 5338POPC   C1B28147  37.111  37.808   8.550
 5338POPC   C2B28148  37.093  37.797   8.250
 5338POPC   C3B28149  37.145  37.777   7.950
 5338POPC   C4B28150  37.089  37.847   7.650
 5339POPC   NC328151  13.579  32.263   9.450
 5339POPC   PO428152  13.659  32.222   9.150
 5339POPC   GL128153  13.667  32.230   8.850
 5339POPC   GL228154  13.776  32.275   8.850
 5339POPC   C1A28155  13.644  32.223   8.550
 5339POPC   D2A28156  13.636  32.228   8.250
 5339POPC   C3A28157  13.646  32.284   7.950
 5339POPC   C4A28158  13.667  32.276   7.650
 5339POPC   C1B28159  13.916  32.207   8.550
 5339POPC   C2B28160  13.907  32.277   8.250
 5339POPC   C3B28161  13.842  32.281   7.950
 5339POPC   C4B28162  13.844  32.245   7.650
 5340POPC   NC328163  22.940   4.359   9.450
 5340POPC   PO428164  22.890   4.268   9.150
 5340POPC   GL128165  22.983   4.298   8.850
 5340POPC   GL228166  22.828   4.320   8.850
 5340POPC   C1A28167  22.983   4.287   8.550
 5340POPC   D2A28168  22.893   4.340   8.250
 5340POPC   C3A28169  22.944   4.287   7.950
 5340POPC   C4A28170  22.947   4.346   7.650
 5340POPC   C1B28171  22.720   4.420   8.550
 5340POPC   C2B28172  22.681   4.390   8.250
 5340POPC   C3B28173  22.690   4.420   7.950
 5340POPC   C4B28174  22.703   4.371   7.650
 5341POPC   NC328175   7.437  13.633   9.450
 5341POPC   PO428176   7.471  13.595   9.150
 5341POPC   GL128177   7.375  13.668   8.850
 5341POPC   GL228178   7.529  13.536   8.850
 5341POPC   C1A28179   7.412  13.640   8.550
 5341POPC   D2A28180   7.411  13.658   8.250
 5341POPC   C3A28181   7.430  13.624   7.950
 5341POPC   C4A28182   7.418  13.611   7.650
 5341POPC   C1B28183   7.590  13.429   8.550
 5341POPC   C2B28184   7.522  13.461   8.250
 5341POPC   C3B28185   7.533  13.389   7.950
 5341POPC   C4B28186   7.597  13.386   7.650
 5342POPC   NC328187  33.803  22.164   9.450
 5342POPC   PO428188  33.797  22.182   9.150
 5342POPC   GL128189  33.843  22.117   8.850
 5342POPC   GL228190  33.901  22.216   8.850
 5342POPC   C1A28191  33.781  22.123   8.550
 5342POPC   D2A28192  33.844  22.184   8.250
 5342POPC   C3A28193  33.774  22.206   7.950
 5342POPC   C4A28194  33.801  22.176   7.650
 5342POPC   C1B28195  33.987  22.377   8.550
 5342POPC   C2B28196  34.010  22.353   8.250
 5342POPC   C3B28197  34.002  22.385   7.950
 5342POPC   C4B28198  33.955  22.293   7.650
 5343POPC   NC328199  41.528  18.311   9.450
 5343POPC   PO428200  41.530  18.264   9.150
 5343POPC   GL128201  41.511  18.331   8.850
 5343POPC   GL228202  41.580  18.216   8.850
 5343POPC   C1A28203  41.601  18.264   8.550
 5343POPC   D2A28204  41.608  18.284   8.250
 5343POPC   C3A28205  41.518  18.276   7.950
 5343POPC   C4A28206  41.554  18.324   7.650
 5343POPC   C1B28207  41.660  18.025   8.550
 5343POPC   C2B28208  41.663  18.050   8.250
 5343POPC   C3B28209  41.727  18.065   7.950
 5343POPC   C4B28210  41.717  18.100   7.650
 5344POPC   NC328211  37.723   4.342   9.450
 5344POPC   PO428212  37.725   4.309   9.150
 5344POPC   GL128213  37.708   4.297   8.850
 5344POPC   GL228214  37.833   4.326   8.850
 5344POPC   C1A28215  37.659   4.364   8.550
 5344POPC   D2A28216  37.636   4.319   8.250
 5344POPC   C3A28217  37.670   4.338   7.950
 5344POPC   C4A28218  37.663   4.298   7.650
 5344POPC   C1B28219  37.936   4.293   8.550
 5344POPC   C2B28220  37.898   4.286   8.250
 5344POPC   C3B28221  37.904   4.347   7.950
 5344POPC   C4B28222  37.880   4.307   7.650
 5345POPC   NC328223  22.201  22.981   9.450
 5345POPC   PO428224  22.198  22.913   9.150
 5345POPC   GL128225  22.160  22.972   8.850
 5345POPC   GL228226  22.053  23.000   8.850
 5345POPC   C1A28227  22.139  22.957   8.550
 5345POPC   D2A28228  22.209  22.924   8.250
 5345POPC   C3A28229  22.142  22.906   7.950
 5345POPC   C4A28230  22.133  22.904   7.650
 5345POPC   C1B28231  22.011  23.193   8.550
 5345POPC   C2B28232  22.019  23.202   8.250
 5345POPC   C3B28233  22.036  23.126   7.950
 5345POPC   C4B28234  21.995  23.111   7.650
 5346POPC   NC328235  15.143  43.074   9.450
 5346POPC   PO428236  15.163  43.119   9.150
 5346POPC   GL128237  15.169  43.130   8.850
 5346POPC   GL228238  15.153  42.950   8.850
 5346POPC   C1A28239  15.217  43.152   8.550
 5346POPC   D2A28240  15.167  43.115   8.250
 5346POPC   C3A28241  15.170  43.133   7.950
 5346POPC   C4A28242  15.139  43.140   7.650
 5346POPC   C1B28243  15.130  42.864   8.550
 5346POPC   C2B28244  15.070  42.871   8.250
 5346POPC   C3B28245  15.138  42.892   7.950
 5346POPC   C4B28246  15.148  42.851   7.650
 5347POPC   NC328247  16.732  29.152   9.450
 5347POPC   PO428248  16.781  29.159   9.150
 5347POPC   GL128249  16.736  29.154   8.850
 5347POPC   GL228250  16.611  29.200   8.850
 5347POPC   C1A28251  16.759  29.187   8.550
 5347POPC   D2A28252  16.720  29.167   8.250
 5347POPC   C3A28253  16.697  29.134   7.950
 5347POPC   C4A28254  16.686  29.185   7.650
 5347POPC   C1B28255  16.465  29.114   8.550
 5347POPC   C2B28256  16.450  29.117   8.250
 5347POPC   C3B28257  16.516  29.171   7.950
 5347POPC   C4B28258  16.461  29.163   7.650
 5348POPC   NC328259   5.876  17.523   9.450
 5348POPC   PO428260   5.886  17.470   9.150
 5348POPC   GL128261   5.865  17.494   8.850
 5348POPC   GL228262   5.997  17.486   8.850
 5348POPC   C1A28263   5.848  17.481   8.550
 5348POPC   D2A28264   5.878  17.475   8.250
 5348POPC   C3A28265   5.884  17.526   7.950
 5348POPC   C4A28266   5.827  17.465   7.650
 5348POPC   C1B28267   6.052  17.371   8.550
 5348POPC   C2B28268   6.119  17.423   8.250
 5348POPC   C3B28269   6.121  17.409   7.950
 5348POPC   C4B28270   6.074  17.384   7.650
 5349POPC   NC328271  36.158   9.744   9.450
 5349POPC   PO428272  36.135   9.747   9.150
 5349POPC   GL128273  36.140   9.745   8.850
 5349POPC   GL228274  36.067   9.818   8.850
 5349POPC   C1A28275  36.108   9.770   8.550
 5349POPC   D2A28276  36.165   9.738   8.250
 5349POPC   C3A28277  36.086   9.719   7.950
 5349POPC   C4A28278  36.078   9.740   7.650
 5349POPC   C1B28279  35.997   9.889   8.550
 5349POPC   C2B28280  35.961   9.918   8.250
 5349POPC   C3B28281  35.905   9.929   7.950
 5349POPC   C4B28282  35.935   9.961   7.650
 5350POPC   NC328283   4.304   6.637   9.450
 5350POPC   PO428284   4.337   6.638   9.150
 5350POPC   GL128285   4.283   6.634   8.850
 5350POPC   GL228286   4.419   6.703   8.850
 5350POPC   C1A28287   4.351   6.611   8.550
 5350POPC   D2A28288   4.276   6.674   8.250
 5350POPC   C3A28289   4.302   6.655   7.950
 5350POPC   C4A28290   4.297   6.661   7.650
 5350POPC   C1B28291   4.510   6.800   8.550
 5350POPC   C2B28292   4.540   6.760   8.250
 5350POPC   C3B28293   4.563   6.839   7.950
 5350POPC   C4B28294   4.493   6.753   7.650
 5351POPC   NC328295  13.609  38.458   9.450
 5351POPC   PO428296  13.622  38.419   9.150
 5351POPC   GL128297  13.651  38.429   8.850
 5351POPC   GL228298  13.590  38.553   8.850
 5351POPC   C1A28299  13.677  38.407   8.550
 5351POPC   D2A28300  13.600  38.461   8.250
 5351POPC   C3A28301  13.621  38.486   7.950
 5351POPC   C4A28302  13.607  38.497   7.650
 5351POPC   C1B28303  13.636  38.688   8.550
 5351POPC   C2B28304  13.629  38.745   8.250
 5351POPC   C3B28305  13.612  38.751   7.950
 5351POPC   C4B28306  13.611  38.722   7.650
 5352POPC   NC328307  40.761  40.740   9.450
 5352POPC   PO428308  40.772  40.793   9.150
 5352POPC   GL128309  40.763  40.799   8.850
 5352POPC   GL228310  40.754  40.700   8.850
 5352POPC   C1A28311  40.831  40.817   8.550
 5352POPC   D2A28312  40.740  40.734   8.250
 5352POPC   C3A28313  40.754  40.784   7.950
 5352POPC   C4A28314  40.737  40.755   7.650
 5352POPC   C1B28315  40.723  40.540   8.550
 5352POPC   C2B28316  40.732  40.562   8.250
 5352POPC   C3B28317  40.736  40.551   7.950
 5352POPC   C4B28318  40.776  40.553   7.650
 5353POPC   NC328319  40.811   1.217   9.450
 5353POPC   PO428320  40.828   1.212   9.150
 5353POPC   GL128321  40.823   1.221   8.850
 5353POPC   GL228322  40.720   1.074   8.850
 5353POPC   C1A28323  40.807   1.171   8.550
 5353POPC   D2A28324  40.749   1.170   8.250
 5353POPC   C3A28325  40.824   1.259   7.950
 5353POPC   C4A28326  40.747   1.174   7.650
 5353POPC   C1B28327  40.723   0.951   8.550
 5353POPC   C2B28328  40.744   0.981   8.250
 5353POPC   C3B28329  40.712   0.964   7.950
 5353POPC   C4B28330  40.762   1.001   7.650
 5354POPC   NC328331  12.848   1.948   9.450
 5354POPC   PO428332  12.879   1.970   9.150
 5354POPC   GL128333  12.856   1.982   8.850
 5354POPC   GL228334  12.999   2.017   8.850
 5354POPC   C1A28335  12.838   1.963   8.550
 5354POPC   D2A28336  12.854   2.003   8.250
 5354POPC   C3A28337  12.865   2.020   7.950
 5354POPC   C4A28338  12.858   2.034   7.650
 5354POPC   C1B28339  13.115   2.153   8.550
 5354POPC   C2B28340  13.032   2.089   8.250
 5354POPC   C3B28341  13.023   2.110   7.950
 5354POPC   C4B28342  13.069   2.059   7.650
 5355POPC   NC328343  11.270   9.743   9.450
 5355POPC   PO428344  11.292   9.768   9.150
 5355POPC   GL128345  11.302   9.782   8.850
 5355POPC   GL228346  11.446   9.780   8.850
 5355POPC   C1A28347  11.287   9.710   8.550
 5355POPC   D2A28348  11.319   9.763   8.250
 5355POPC   C3A28349  11.329   9.750   7.950
 5355POPC   C4A28350  11.309   9.794   7.650
 5355POPC   C1B28351  11.479   9.900   8.550
 5355POPC   C2B28352  11.457   9.871   8.250
 5355POPC   C3B28353  11.543   9.896   7.950
 5355POPC   C4B28354  11.462   9.938   7.650
 5356POPC   NC328355  44.635   8.214   9.450
 5356POPC   PO428356  44.636   8.210   9.150
 5356POPC   GL128357  44.708   8.202   8.850
 5356POPC   GL228358  44.524   8.126   8.850
 5356POPC   C1A28359  44.661   8.189   8.550
 5356POPC   D2A28360  44.629   8.176   8.250
 5356POPC   C3A28361  44.631   8.154   7.950
 5356POPC   C4A28362  44.624   8.201   7.650
 5356POPC   C1B28363  44.437   8.130   8.550
 5356POPC   C2B28364  44.385   8.112   8.250
 5356POPC   C3B28365  44.406   8.063   7.950
 5356POPC   C4B28366  44.400   8.139   7.650
 5357POPC   NC328367  10.568   2.791   9.450
 5357POPC   PO428368  10.483   2.747   9.150
 5357POPC   GL128369  10.567   2.795   8.850
 5357POPC   GL228370  10.540   2.654   8.850
 5357POPC   C1A28371  10.567   2.745   8.550
 5357POPC   D2A28372  10.520   2.766   8.250
 5357POPC   C3A28373  10.507   2.729   7.950
 5357POPC   C4A28374  10.560   2.716   7.650
 5357POPC   C1B28375  10.521   2.486   8.550
 5357POPC   C2B28376  10.586   2.504   8.250
 5357POPC   C3B28377  10.554   2.476   7.950
 5357POPC   C4B28378  10.552   2.517   7.650
 5358POPC   NC328379  10.504  42.334   9.450
 5358POPC   PO428380  10.551  42.328   9.150
 5358POPC   GL128381  10.494  42.299   8.850
 5358POPC   GL228382  10.553  42.466   8.850
 5358POPC   C1A28383  10.494  42.379   8.550
 5358POPC   D2A28384  10.504  42.319   8.250
 5358POPC   C3A28385  10.540  42.297   7.950
 5358POPC   C4A28386  10.568  42.319   7.650
 5358POPC   C1B28387  10.556  42.605   8.550
 5358POPC   C2B28388  10.533  42.533   8.250
 5358POPC   C3B28389  10.617  42.551   7.950
 5358POPC   C4B28390  10.539  42.622   7.650
 5359POPC   NC328391  33.781  23.740   9.450
 5359POPC   PO428392  33.757  23.739   9.150
 5359POPC   GL128393  33.842  23.762   8.850
 5359POPC   GL228394  33.855  23.597   8.850
 5359POPC   C1A28395  33.751  23.758   8.550
 5359POPC   D2A28396  33.779  23.706   8.250
 5359POPC   C3A28397  33.781  23.689   7.950
 5359POPC   C4A28398  33.844  23.708   7.650
 5359POPC   C1B28399  33.930  23.480   8.550
 5359POPC   C2B28400  33.930  23.499   8.250
 5359POPC   C3B28401  33.930  23.504   7.950
 5359POPC   C4B28402  33.951  23.472   7.650
 5360POPC   NC328403  36.881  21.352   9.450
 5360POPC   PO428404  36.909  21.389   9.150
 5360POPC   GL128405  36.915  21.392   8.850
 5360POPC   GL228406  36.987  21.356   8.850
 5360POPC   C1A28407  36.910  21.420   8.550
 5360POPC   D2A28408  36.877  21.384   8.250
 5360POPC   C3A28409  36.854  21.347   7.950
 5360POPC   C4A28410  36.890  21.363   7.650
 5360POPC   C1B28411  37.154  21.357   8.550
 5360POPC   C2B28412  37.115  21.358   8.250
 5360POPC   C3B28413  37.150  21.360   7.950
 5360POPC   C4B28414  37.151  21.284   7.650
 5361POPC   NC328415  33.840  16.760   9.450
 5361POPC   PO428416  33.768  16.746   9.150
 5361POPC   GL128417  33.846  16.684   8.850
 5361POPC   GL228418  33.818  16.592   8.850
 5361POPC   C1A28419  33.793  16.771   8.550
 5361POPC   D2A28420  33.845  16.711   8.250
 5361POPC   C3A28421  33.823  16.684   7.950
 5361POPC   C4A28422  33.795  16.761   7.650
 5361POPC   C1B28423  33.964  16.553   8.550
 5361POPC   C2B28424  33.971  16.483   8.250
 5361POPC   C3B28425  33.964  16.517   7.950
 5361POPC   C4B28426  33.971  16.524   7.650
 5362POPC   NC328427  40.831  22.135   9.450
 5362POPC   PO428428  40.795  22.124   9.150
 5362POPC   GL128429  40.797  22.179   8.850
 5362POPC   GL228430  40.823  22.057   8.850
 5362POPC   C1A28431  40.787  22.155   8.550
 5362POPC   D2A28432  40.776  22.149   8.250
 5362POPC   C3A28433  40.761  22.145   7.950
 5362POPC   C4A28434  40.827  22.112   7.650
 5362POPC   C1B28435  40.929  21.964   8.550
 5362POPC   C2B28436  40.996  21.969   8.250
 5362POPC   C3B28437  40.916  22.007   7.950
 5362POPC   C4B28438  40.989  22.031   7.650
 5363POPC   NC328439  17.491  38.433   9.450
 5363POPC   PO428440  17.459  38.475   9.150
 5363POPC   GL128441  17.537  38.412   8.850
 5363POPC   GL228442  17.512  38.610   8.850
 5363POPC   C1A28443  17.497  38.499   8.550
 5363POPC   D2A28444  17.471  38.497   8.250
 5363POPC   C3A28445  17.474  38.428   7.950
 5363POPC   C4A28446  17.493  38.473   7.650
 5363POPC   C1B28447  17.477  38.736   8.550
 5363POPC   C2B28448  17.427  38.689   8.250
 5363POPC   C3B28449  17.448  38.654   7.950
 5363POPC   C4B28450  17.465  38.722   7.650
 5364POPC   NC328451  23.761  44.682   9.450
 5364POPC   PO428452  23.758  44.694   9.150
 5364POPC   GL128453  23.667  44.645   8.850
 5364POPC   GL228454  23.637  44.687   8.850
 5364POPC   C1A28455  23.686  44.640   8.550
 5364POPC   D2A28456  23.704  44.663   8.250
 5364POPC   C3A28457  23.711  44.629   7.950
 5364POPC   C4A28458  23.692  44.689   7.650
 5364POPC   C1B28459  23.462  44.743   8.550
 5364POPC   C2B28460  23.495  44.726   8.250
 5364POPC   C3B28461  23.478  44.699   7.950
 5364POPC   C4B28462  23.498  44.734   7.650
 5365POPC   NC328463  25.242   5.094   9.450
 5365POPC   PO428464  25.300   5.130   9.150
 5365POPC   GL128465  25.225   5.106   8.850
 5365POPC   GL228466  25.201   5.202   8.850
 5365POPC   C1A28467  25.216   5.121   8.550
 5365POPC   D2A28468  25.292   5.057   8.250
 5365POPC   C3A28469  25.251   5.048   7.950
 5365POPC   C4A28470  25.262   5.124   7.650
 5365POPC   C1B28471  25.227   5.330   8.550
 5365POPC   C2B28472  25.165   5.357   8.250
 5365POPC   C3B28473  25.197   5.352   7.950
 5365POPC   C4B28474  25.203   5.300   7.650
 5366POPC   NC328475  33.028  26.845   9.450
 5366POPC   PO428476  32.981  26.835   9.150
 5366POPC   GL128477  33.054  26.801   8.850
 5366POPC   GL228478  33.152  26.787   8.850
 5366POPC   C1A28479  33.034  26.824   8.550
 5366POPC   D2A28480  33.070  26.819   8.250
 5366POPC   C3A28481  33.018  26.798   7.950
 5366POPC   C4A28482  33.064  26.774   7.650
 5366POPC   C1B28483  33.211  26.722   8.550
 5366POPC   C2B28484  33.232  26.698   8.250
 5366POPC   C3B28485  33.264  26.648   7.950
 5366POPC   C4B28486  33.222  26.662   7.650
 5367POPC   NC328487   2.038   5.115   9.450
 5367POPC   PO428488   2.001   5.115   9.150
 5367POPC   GL128489   1.982   5.059   8.850
 5367POPC   GL228490   2.088   5.060   8.850
 5367POPC   C1A28491   2.030   5.123   8.550
 5367POPC   D2A28492   1.954   5.047   8.250
 5367POPC   C3A28493   2.021   5.134   7.950
 5367POPC   C4A28494   2.018   5.050   7.650
 5367POPC   C1B28495   2.262   4.991   8.550
 5367POPC   C2B28496   2.208   5.051   8.250
 5367POPC   C3B28497   2.183   5.047   7.950
 5367POPC   C4B28498   2.245   5.003   7.650
 5368POPC   NC328499  22.204  12.854   9.450
 5368POPC   PO428500  22.165  12.876   9.150
 5368POPC   GL128501  22.143  12.831   8.850
 5368POPC   GL228502  22.112  12.965   8.850
 5368POPC   C1A28503  22.207  12.855   8.550
 5368POPC   D2A28504  22.155  12.829   8.250
 5368POPC   C3A28505  22.206  12.885   7.950
 5368POPC   C4A28506  22.138  12.869   7.650
 5368POPC   C1B28507  22.110  13.060   8.550
 5368POPC   C2B28508  22.123  13.128   8.250
 5368POPC   C3B28509  22.077  13.074   7.950
 5368POPC   C4B28510  22.054  13.117   7.650
 5369POPC   NC328511  30.719  36.885   9.450
 5369POPC   PO428512  30.709  36.881   9.150
 5369POPC   GL128513  30.661  36.868   8.850
 5369POPC   GL228514  30.617  36.977   8.850
 5369POPC   C1A28515  30.744  36.925   8.550
 5369POPC   D2A28516  30.661  36.902   8.250
 5369POPC   C3A28517  30.691  36.947   7.950
 5369POPC   C4A28518  30.742  36.873   7.650
 5369POPC   C1B28519  30.475  37.026   8.550
 5369POPC   C2B28520  30.472  37.079   8.250
 5369POPC   C3B28521  30.520  37.061   7.950
 5369POPC   C4B28522  30.471  37.093   7.650
 5370POPC   NC328523  33.766   2.798   9.450
 5370POPC   PO428524  33.792   2.767   9.150
 5370POPC   GL128525  33.775   2.767   8.850
 5370POPC   GL228526  33.663   2.707   8.850
 5370POPC   C1A28527  33.781   2.805   8.550
 5370POPC   D2A28528  33.815   2.803   8.250
 5370POPC   C3A28529  33.780   2.795   7.950
 5370POPC   C4A28530  33.758   2.776   7.650
 5370POPC   C1B28531  33.518   2.710   8.550
 5370POPC   C2B28532  33.600   2.687   8.250
 5370POPC   C3B28533  33.520   2.738   7.950
 5370POPC   C4B28534  33.569   2.723   7.650
 5371POPC   NC328535  19.829  22.906   9.450
 5371POPC   PO428536  19.844  22.893   9.150
 5371POPC   GL128537  19.846  22.957   8.850
 5371POPC   GL228538  19.753  22.960   8.850
 5371POPC   C1A28539  19.849  22.921   8.550
 5371POPC   D2A28540  19.880  22.961   8.250
 5371POPC   C3A28541  19.816  22.922   7.950
 5371POPC   C4A28542  19.842  22.935   7.650
 5371POPC   C1B28543  19.575  23.070   8.550
 5371POPC   C2B28544  19.646  23.087   8.250
 5371POPC   C3B28545  19.589  23.049   7.950
 5371POPC   C4B28546  19.605  23.030   7.650
 5372POPC   NC328547   0.477  42.384   9.450
 5372POPC   PO428548   0.450  42.379   9.150
 5372POPC   GL128549   0.413  42.383   8.850
 5372POPC   GL228550   0.327  42.386   8.850
 5372POPC   C1A28551   0.412  42.306   8.550
 5372POPC   D2A28552   0.470  42.293   8.250
 5372POPC   C3A28553   0.478  42.332   7.950
 5372POPC   C4A28554   0.404  42.338   7.650
 5372POPC   C1B28555   0.285  42.489   8.550
 5372POPC   C2B28556   0.238  42.461   8.250
 5372POPC   C3B28557   0.214  42.511   7.950
 5372POPC   C4B28558   0.257  42.528   7.650
 5373POPC   NC328559  36.127  29.162   9.450
 5373POPC   PO428560  36.105  29.165   9.150
 5373POPC   GL128561  36.094  29.194   8.850
 5373POPC   GL228562  36.240  29.231   8.850
 5373POPC   C1A28563  36.160  29.186   8.550
 5373POPC   D2A28564  36.123  29.155   8.250
 5373POPC   C3A28565  36.101  29.184   7.950
 5373POPC   C4A28566  36.173  29.170   7.650
 5373POPC   C1B28567  36.377  29.228   8.550
 5373POPC   C2B28568  36.337  29.223   8.250
 5373POPC   C3B28569  36.310  29.249   7.950
 5373POPC   C4B28570  36.312  29.288   7.650
 5374POPC   NC328571  29.877   6.686   9.450
 5374POPC   PO428572  29.914   6.671   9.150
 5374POPC   GL128573  29.907   6.677   8.850
 5374POPC   GL228574  30.020   6.617   8.850
 5374POPC   C1A28575  29.962   6.639   8.550
 5374POPC   D2A28576  29.929   6.602   8.250
 5374POPC   C3A28577  29.932   6.688   7.950
 5374POPC   C4A28578  29.917   6.689   7.650
 5374POPC   C1B28579  30.191   6.664   8.550
 5374POPC   C2B28580  30.190   6.614   8.250
 5374POPC   C3B28581  30.188   6.585   7.950
 5374POPC   C4B28582  30.203   6.623   7.650
 5375POPC   NC328583   6.604  13.630   9.450
 5375POPC   PO428584   6.626  13.645   9.150
 5375POPC   GL128585   6.605  13.629   8.850
 5375POPC   GL228586   6.692  13.760   8.850
 5375POPC   C1A28587   6.653  13.599   8.550
 5375POPC   D2A28588   6.625  13.592   8.250
 5375POPC   C3A28589   6.612  13.677   7.950
 5375POPC   C4A28590   6.660  13.648   7.650
 5375POPC   C1B28591   6.799  13.843   8.550
 5375POPC   C2B28592   6.853  13.797   8.250
 5375POPC   C3B28593   6.788  13.797   7.950
 5375POPC   C4B28594   6.850  13.789   7.650
 5376POPC   NC328595  12.029   1.164   9.450
 5376POPC   PO428596  12.044   1.263   9.150
 5376POPC   GL128597  12.115   1.231   8.850
 5376POPC   GL228598  12.067   1.076   8.850
 5376POPC   C1A28599  12.028   1.235   8.550
 5376POPC   D2A28600  12.117   1.227   8.250
 5376POPC   C3A28601  12.028   1.202   7.950
 5376POPC   C4A28602  12.060   1.254   7.650
 5376POPC   C1B28603  12.006   0.993   8.550
 5376POPC   C2B28604  12.055   0.943   8.250
 5376POPC   C3B28605  12.039   0.920   7.950
 5376POPC   C4B28606  12.037   0.975   7.650
 5377POPC   NC328607  37.707   2.754   9.450
 5377POPC   PO428608  37.678   2.813   9.150
 5377POPC   GL128609  37.694   2.805   8.850
 5377POPC   GL228610  37.688   2.678   8.850
 5377POPC   C1A28611  37.648   2.798   8.550
 5377POPC   D2A28612  37.712   2.810   8.250
 5377POPC   C3A28613  37.704   2.760   7.950
 5377POPC   C4A28614  37.700   2.750   7.650
 5377POPC   C1B28615  37.629   2.539   8.550
 5377POPC   C2B28616  37.662   2.486   8.250
 5377POPC   C3B28617  37.653   2.492   7.950
 5377POPC   C4B28618  37.622   2.541   7.650
 5378POPC   NC328619  16.763  42.319   9.450
 5378POPC   PO428620  16.684  42.331   9.150
 5378POPC   GL128621  16.727  42.328   8.850
 5378POPC   GL228622  16.783  42.448   8.850
 5378POPC   C1A28623  16.779  42.329   8.550
 5378POPC   D2A28624  16.746  42.329   8.250
 5378POPC   C3A28625  16.774  42.345   7.950
 5378POPC   C4A28626  16.748  42.371   7.650
 5378POPC   C1B28627  16.793  42.590   8.550
 5378POPC   C2B28628  16.829  42.569   8.250
 5378POPC   C3B28629  16.761  42.574   7.950
 5378POPC   C4B28630  16.767  42.552   7.650
 5379POPC   NC328631  23.751  43.846   9.450
 5379POPC   PO428632  23.750  43.860   9.150
 5379POPC   GL128633  23.704  43.910   8.850
 5379POPC   GL228634  23.813  43.737   8.850
 5379POPC   C1A28635  23.720  43.846   8.550
 5379POPC   D2A28636  23.736  43.909   8.250
 5379POPC   C3A28637  23.705  43.901   7.950
 5379POPC   C4A28638  23.744  43.856   7.650
 5379POPC   C1B28639  23.826  43.692   8.550
 5379POPC   C2B28640  23.833  43.652   8.250
 5379POPC   C3B28641  23.810  43.631   7.950
 5379POPC   C4B28642  23.900  43.674   7.650
 5380POPC   NC328643   2.038  28.332   9.450
 5380POPC   PO428644   1.940  28.419   9.150
 5380POPC   GL128645   2.038  28.365   8.850
 5380POPC   GL228646   2.129  28.312   8.850
 5380POPC   C1A28647   2.025  28.326   8.550
 5380POPC   D2A28648   1.945  28.348   8.250
 5380POPC   C3A28649   1.968  28.415   7.950
 5380POPC   C4A28650   1.959  28.343   7.650
 5380POPC   C1B28651   2.253  28.239   8.550
 5380POPC   C2B28652   2.201  28.248   8.250
 5380POPC   C3B28653   2.257  28.297   7.950
 5380POPC   C4B28654   2.197  28.288   7.650
 5381POPC   NC328655  32.217  29.887   9.450
 5381POPC   PO428656  32.212  29.881   9.150
 5381POPC   GL128657  32.199  29.935   8.850
 5381POPC   GL228658  32.318  29.874   8.850
 5381POPC   C1A28659  32.198  29.884   8.550
 5381POPC   D2A28660  32.250  29.879   8.250
 5381POPC   C3A28661  32.227  29.900   7.950
 5381POPC   C4A28662  32.268  29.943   7.650
 5381POPC   C1B28663  32.418  29.741   8.550
 5381POPC   C2B28664  32.367  29.738   8.250
 5381POPC   C3B28665  32.456  29.713   7.950
 5381POPC   C4B28666  32.431  29.694   7.650
 5382POPC   NC328667  43.105   7.372   9.450
 5382POPC   PO428668  43.103   7.431   9.150
 5382POPC   GL128669  43.118   7.378   8.850
 5382POPC   GL228670  43.163   7.547   8.850
 5382POPC   C1A28671  43.159   7.454   8.550
 5382POPC   D2A28672  43.096   7.385   8.250
 5382POPC   C3A28673  43.116   7.422   7.950
 5382POPC   C4A28674  43.084   7.459   7.650
 5382POPC   C1B28675  43.224   7.611   8.550
 5382POPC   C2B28676  43.233   7.654   8.250
 5382POPC   C3B28677  43.241   7.678   7.950
 5382POPC   C4B28678  43.254   7.697   7.650
 5383POPC   NC328679  36.953  30.705   9.450
 5383POPC   PO428680  36.929  30.699   9.150
 5383POPC   GL128681  36.866  30.691   8.850
 5383POPC   GL228682  37.030  30.760   8.850
 5383POPC   C1A28683  36.883  30.694   8.550
 5383POPC   D2A28684  36.950  30.723   8.250
 5383POPC   C3A28685  36.949  30.746   7.950
 5383POPC   C4A28686  36.906  30.704   7.650
 5383POPC   C1B28687  37.129  30.788   8.550
 5383POPC   C2B28688  37.098  30.779   8.250
 5383POPC   C3B28689  37.126  30.780   7.950
 5383POPC   C4B28690  37.160  30.846   7.650
 5384POPC   NC328691  19.067  38.439   9.450
 5384POPC   PO428692  19.026  38.425   9.150
 5384POPC   GL128693  19.065  38.414   8.850
 5384POPC   GL228694  18.968  38.401   8.850
 5384POPC   C1A28695  19.063  38.477   8.550
 5384POPC   D2A28696  19.032  38.483   8.250
 5384POPC   C3A28697  19.107  38.431   7.950
 5384POPC   C4A28698  19.029  38.504   7.650
 5384POPC   C1B28699  18.931  38.236   8.550
 5384POPC   C2B28700  18.874  38.278   8.250
 5384POPC   C3B28701  18.878  38.235   7.950
 5384POPC   C4B28702  18.906  38.244   7.650
 5385POPC   NC328703   5.864   6.623   9.450
 5385POPC   PO428704   5.890   6.666   9.150
 5385POPC   GL128705   5.841   6.654   8.850
 5385POPC   GL228706   5.947   6.572   8.850
 5385POPC   C1A28707   5.821   6.618   8.550
 5385POPC   D2A28708   5.889   6.695   8.250
 5385POPC   C3A28709   5.898   6.619   7.950
 5385POPC   C4A28710   5.913   6.665   7.650
 5385POPC   C1B28711   6.064   6.485   8.550
 5385POPC   C2B28712   6.106   6.514   8.250
 5385POPC   C3B28713   6.037   6.542   7.950
 5385POPC   C4B28714   6.055   6.497   7.650
 5386POPC   NC328715  14.453  31.457   9.450
 5386POPC   PO428716  14.449  31.426   9.150
 5386POPC   GL128717  14.423  31.451   8.850
 5386POPC   GL228718  14.253  31.479   8.850
 5386POPC   C1A28719  14.414  31.440   8.550
 5386POPC   D2A28720  14.372  31.458   8.250
 5386POPC   C3A28721  14.372  31.510   7.950
 5386POPC   C4A28722  14.420  31.464   7.650
 5386POPC   C1B28723  14.185  31.559   8.550
 5386POPC   C2B28724  14.183  31.573   8.250
 5386POPC   C3B28725  14.186  31.580   7.950
 5386POPC   C4B28726  14.206  31.527   7.650
 5387POPC   NC328727  38.456  12.096   9.450
 5387POPC   PO428728  38.441  12.115   9.150
 5387POPC   GL128729  38.442  12.067   8.850
 5387POPC   GL228730  38.533  12.116   8.850
 5387POPC   C1A28731  38.475  12.037   8.550
 5387POPC   D2A28732  38.406  12.049   8.250
 5387POPC   C3A28733  38.466  12.085   7.950
 5387POPC   C4A28734  38.410  12.105   7.650
 5387POPC   C1B28735  38.700  12.159   8.550
 5387POPC   C2B28736  38.711  12.117   8.250
 5387POPC   C3B28737  38.738  12.161   7.950
 5387POPC   C4B28738  38.700  12.113   7.650
 5388POPC   NC328739  39.984  40.737   9.450
 5388POPC   PO428740  39.993  40.824   9.150
 5388POPC   GL128741  40.003  40.822   8.850
 5388POPC   GL228742  40.004  40.618   8.850
 5388POPC   C1A28743  39.989  40.806   8.550
 5388POPC   D2A28744  39.998  40.787   8.250
 5388POPC   C3A28745  39.976  40.743   7.950
 5388POPC   C4A28746  40.025  40.779   7.650
 5388POPC   C1B28747  40.104  40.557   8.550
 5388POPC   C2B28748  40.117  40.588   8.250
 5388POPC   C3B28749  40.066  40.578   7.950
 5388POPC   C4B28750  40.135  40.538   7.650
 5389POPC   NC328751   2.012  15.957   9.450
 5389POPC   PO428752   1.980  15.947   9.150
 5389POPC   GL128753   1.979  15.936   8.850
 5389POPC   GL228754   2.083  16.009   8.850
 5389POPC   C1A28755   1.992  15.928   8.550
 5389POPC   D2A28756   1.990  15.983   8.250
 5389POPC   C3A28757   1.989  15.927   7.950
 5389POPC   C4A28758   2.034  15.948   7.650
 5389POPC   C1B28759   2.148  16.119   8.550
 5389POPC   C2B28760   2.117  16.178   8.250
 5389POPC   C3B28761   2.112  16.123   7.950
 5389POPC   C4B28762   2.171  16.126   7.650
 5390POPC   NC328763  33.753  31.430   9.450
 5390POPC   PO428764  33.846  31.494   9.150
 5390POPC   GL128765  33.822  31.481   8.850
 5390POPC   GL228766  33.928  31.434   8.850
 5390POPC   C1A28767  33.810  31.432   8.550
 5390POPC   D2A28768  33.779  31.468   8.250
 5390POPC   C3A28769  33.834  31.426   7.950
 5390POPC   C4A28770  33.847  31.467   7.650
 5390POPC   C1B28771  34.091  31.398   8.550
 5390POPC   C2B28772  34.040  31.451   8.250
 5390POPC   C3B28773  34.035  31.409   7.950
 5390POPC   C4B28774  34.050  31.455   7.650
 5391POPC   NC328775   8.188  26.021   9.450
 5391POPC   PO428776   8.179  26.026   9.150
 5391POPC   GL128777   8.198  26.059   8.850
 5391POPC   GL228778   8.236  25.888   8.850
 5391POPC   C1A28779   8.171  26.024   8.550
 5391POPC   D2A28780   8.238  26.055   8.250
 5391POPC   C3A28781   8.161  26.071   7.950
 5391POPC   C4A28782   8.180  26.039   7.650
 5391POPC   C1B28783   8.268  25.829   8.550
 5391POPC   C2B28784   8.307  25.844   8.250
 5391POPC   C3B28785   8.285  25.845   7.950
 5391POPC   C4B28786   8.260  25.786   7.650
 5392POPC   NC328787  18.251  42.379   9.450
 5392POPC   PO428788  18.312  42.380   9.150
 5392POPC   GL128789  18.264  42.319   8.850
 5392POPC   GL228790  18.224  42.485   8.850
 5392POPC   C1A28791  18.324  42.296   8.550
 5392POPC   D2A28792  18.249  42.302   8.250
 5392POPC   C3A28793  18.263  42.295   7.950
 5392POPC   C4A28794  18.315  42.380   7.650
 5392POPC   C1B28795  18.184  42.568   8.550
 5392POPC   C2B28796  18.222  42.547   8.250
 5392POPC   C3B28797  18.173  42.557   7.950
 5392POPC   C4B28798  18.240  42.541   7.650
 5393POPC   NC328799  40.757  10.508   9.450
 5393POPC   PO428800  40.762  10.486   9.150
 5393POPC   GL128801  40.795  10.558   8.850
 5393POPC   GL228802  40.642  10.597   8.850
 5393POPC   C1A28803  40.738  10.535   8.550
 5393POPC   D2A28804  40.794  10.502   8.250
 5393POPC   C3A28805  40.801  10.532   7.950
 5393POPC   C4A28806  40.753  10.538   7.650
 5393POPC   C1B28807  40.570  10.674   8.550
 5393POPC   C2B28808  40.544  10.634   8.250
 5393POPC   C3B28809  40.588  10.682   7.950
 5393POPC   C4B28810  40.581  10.589   7.650
 5394POPC   NC328811  19.849  40.793   9.450
 5394POPC   PO428812  19.858  40.782   9.150
 5394POPC   GL128813  19.864  40.811   8.850
 5394POPC   GL228814  19.775  40.879   8.850
 5394POPC   C1A28815  19.785  40.737   8.550
 5394POPC   D2A28816  19.846  40.748   8.250
 5394POPC   C3A28817  19.829  40.822   7.950
 5394POPC   C4A28818  19.857  40.823   7.650
 5394POPC   C1B28819  19.727  41.043   8.550
 5394POPC   C2B28820  19.708  41.020   8.250
 5394POPC   C3B28821  19.756  41.015   7.950
 5394POPC   C4B28822  19.799  40.980   7.650
 5395POPC   NC328823  22.142  43.159   9.450
 5395POPC   PO428824  22.150  43.062   9.150
 5395POPC   GL128825  22.135  43.089   8.850
 5395POPC   GL228826  22.319  43.113   8.850
 5395POPC   C1A28827  22.198  43.138   8.550
 5395POPC   D2A28828  22.118  43.077   8.250
 5395POPC   C3A28829  22.126  43.085   7.950
 5395POPC   C4A28830  22.174  43.091   7.650
 5395POPC   C1B28831  22.379  43.054   8.550
 5395POPC   C2B28832  22.394  43.070   8.250
 5395POPC   C3B28833  22.365  43.069   7.950
 5395POPC   C4B28834  22.431  42.985   7.650
 5396POPC   NC328835  40.811  41.599   9.450
 5396POPC   PO428836  40.793  41.546   9.150
 5396POPC   GL128837  40.814  41.509   8.850
 5396POPC   GL228838  40.921  41.658   8.850
 5396POPC   C1A28839  40.770  41.584   8.550
 5396POPC   D2A28840  40.807  41.559   8.250
 5396POPC   C3A28841  40.772  41.546   7.950
 5396POPC   C4A28842  40.812  41.514   7.650
 5396POPC   C1B28843  40.959  41.741   8.550
 5396POPC   C2B28844  41.005  41.660   8.250
 5396POPC   C3B28845  40.974  41.667   7.950
 5396POPC   C4B28846  41.001  41.742   7.650
 5397POPC   NC328847  29.183  44.707   9.450
 5397POPC   PO428848  29.164  44.613   9.150
 5397POPC   GL128849  29.132  44.667   8.850
 5397POPC   GL228850  29.072  44.812   8.850
 5397POPC   C1A28851  29.171  44.612   8.550
 5397POPC   D2A28852  29.155  44.702   8.250
 5397POPC   C3A28853  29.168  44.653   7.950
 5397POPC   C4A28854  29.139  44.660   7.650
 5397POPC   C1B28855  29.071  44.851   8.550
 5397POPC   C2B28856  29.057  44.873   8.250
 5397POPC   C3B28857  29.066  44.894   7.950
 5397POPC   C4B28858  29.057  44.871   7.650
 5398POPC   NC328859  27.544  21.341   9.450
 5398POPC   PO428860  27.607  21.410   9.150
 5398POPC   GL128861  27.620  21.342   8.850
 5398POPC   GL228862  27.564  21.298   8.850
 5398POPC   C1A28863  27.591  21.425   8.550
 5398POPC   D2A28864  27.624  21.386   8.250
 5398POPC   C3A28865  27.551  21.350   7.950
 5398POPC   C4A28866  27.551  21.344   7.650
 5398POPC   C1B28867  27.485  21.173   8.550
 5398POPC   C2B28868  27.466  21.213   8.250
 5398POPC   C3B28869  27.458  21.202   7.950
 5398POPC   C4B28870  27.486  21.164   7.650
 5399POPC   NC328871  19.084  39.978   9.450
 5399POPC   PO428872  19.057  39.963   9.150
 5399POPC   GL128873  19.099  39.958   8.850
 5399POPC   GL228874  19.116  39.850   8.850
 5399POPC   C1A28875  19.037  39.968   8.550
 5399POPC   D2A28876  19.023  40.029   8.250
 5399POPC   C3A28877  19.043  39.996   7.950
 5399POPC   C4A28878  19.081  40.044   7.650
 5399POPC   C1B28879  19.125  39.755   8.550
 5399POPC   C2B28880  19.147  39.768   8.250
 5399POPC   C3B28881  19.103  39.721   7.950
 5399POPC   C4B28882  19.166  39.811   7.650
 5400POPC   NC328883  36.160  11.320   9.450
 5400POPC   PO428884  36.090  11.313   9.150
 5400POPC   GL128885  36.175  11.313   8.850
 5400POPC   GL228886  36.055  11.225   8.850
 5400POPC   C1A28887  36.100  11.289   8.550
 5400POPC   D2A28888  36.154  11.275   8.250
 5400POPC   C3A28889  36.149  11.313   7.950
 5400POPC   C4A28890  36.129  11.257   7.650
 5400POPC   C1B28891  35.872  11.243   8.550
 5400POPC   C2B28892  35.932  11.212   8.250
 5400POPC   C3B28893  35.931  11.258   7.950
 5400POPC   C4B28894  35.858  11.199   7.650
 5401POPC   NC328895  26.860   5.088   9.450
 5401POPC   PO428896  26.816   5.122   9.150
 5401POPC   GL128897  26.777   5.127   8.850
 5401POPC   GL228898  26.802   5.009   8.850
 5401POPC   C1A28899  26.818   5.138   8.550
 5401POPC   D2A28900  26.835   5.070   8.250
 5401POPC   C3A28901  26.808   5.131   7.950
 5401POPC   C4A28902  26.819   5.073   7.650
 5401POPC   C1B28903  26.721   4.853   8.550
 5401POPC   C2B28904  26.680   4.836   8.250
 5401POPC   C3B28905  26.747   4.852   7.950
 5401POPC   C4B28906  26.759   4.901   7.650
 5402POPC   NC328907   5.909  38.470   9.450
 5402POPC   PO428908   5.850  38.423   9.150
 5402POPC   GL128909   5.854  38.456   8.850
 5402POPC   GL228910   6.005  38.453   8.850
 5402POPC   C1A28911   5.824  38.451   8.550
 5402POPC   D2A28912   5.868  38.483   8.250
 5402POPC   C3A28913   5.848  38.429   7.950
 5402POPC   C4A28914   5.878  38.448   7.650
 5402POPC   C1B28915   6.153  38.369   8.550
 5402POPC   C2B28916   6.150  38.403   8.250
 5402POPC   C3B28917   6.087  38.341   7.950
 5402POPC   C4B28918   6.093  38.385   7.650
 5403POPC   NC328919   5.875  32.264   9.450
 5403POPC   PO428920   5.891  32.260   9.150
 5403POPC   GL128921   5.857  32.239   8.850
 5403POPC   GL228922   5.756  32.228   8.850
 5403POPC   C1A28923   5.915  32.225   8.550
 5403POPC   D2A28924   5.864  32.266   8.250
 5403POPC   C3A28925   5.842  32.290   7.950
 5403POPC   C4A28926   5.840  32.214   7.650
 5403POPC   C1B28927   5.657  32.112   8.550
 5403POPC   C2B28928   5.615  32.144   8.250
 5403POPC   C3B28929   5.639  32.102   7.950
 5403POPC   C4B28930   5.680  32.140   7.650
 5404POPC   NC328931   2.742  40.820   9.450
 5404POPC   PO428932   2.728  40.806   9.150
 5404POPC   GL128933   2.750  40.786   8.850
 5404POPC   GL228934   2.813  40.658   8.850
 5404POPC   C1A28935   2.780  40.764   8.550
 5404POPC   D2A28936   2.800  40.764   8.250
 5404POPC   C3A28937   2.771  40.778   7.950
 5404POPC   C4A28938   2.788  40.762   7.650
 5404POPC   C1B28939   2.949  40.566   8.550
 5404POPC   C2B28940   2.979  40.627   8.250
 5404POPC   C3B28941   2.971  40.634   7.950
 5404POPC   C4B28942   2.937  40.583   7.650
 5405POPC   NC328943  24.481  27.562   9.450
 5405POPC   PO428944  24.535  27.558   9.150
 5405POPC   GL128945  24.525  27.620   8.850
 5405POPC   GL228946  24.524  27.420   8.850
 5405POPC   C1A28947  24.503  27.611   8.550
 5405POPC   D2A28948  24.459  27.607   8.250
 5405POPC   C3A28949  24.459  27.596   7.950
 5405POPC   C4A28950  24.471  27.638   7.650
 5405POPC   C1B28951  24.440  27.330   8.550
 5405POPC   C2B28952  24.507  27.318   8.250
 5405POPC   C3B28953  24.484  27.312   7.950
 5405POPC   C4B28954  24.454  27.384   7.650
 5406POPC   NC328955  40.801  29.150   9.450
 5406POPC   PO428956  40.741  29.112   9.150
 5406POPC   GL128957  40.733  29.161   8.850
 5406POPC   GL228958  40.818  29.085   8.850
 5406POPC   C1A28959  40.832  29.112   8.550
 5406POPC   D2A28960  40.821  29.119   8.250
 5406POPC   C3A28961  40.792  29.195   7.950
 5406POPC   C4A28962  40.737  29.180   7.650
 5406POPC   C1B28963  40.926  28.926   8.550
 5406POPC   C2B28964  40.906  28.897   8.250
 5406POPC   C3B28965  40.877  28.892   7.950
 5406POPC   C4B28966  40.972  28.984   7.650
 5407POPC   NC328967  28.410  39.963   9.450
 5407POPC   PO428968  28.385  40.055   9.150
 5407POPC   GL128969  28.367  40.041   8.850
 5407POPC   GL228970  28.530  40.053   8.850
 5407POPC   C1A28971  28.418  39.988   8.550
 5407POPC   D2A28972  28.342  40.041   8.250
 5407POPC   C3A28973  28.378  40.024   7.950
 5407POPC   C4A28974  28.369  40.005   7.650
 5407POPC   C1B28975  28.625  40.038   8.550
 5407POPC   C2B28976  28.621  40.011   8.250
 5407POPC   C3B28977  28.653  40.067   7.950
 5407POPC   C4B28978  28.667  40.082   7.650
 5408POPC   NC328979   1.261  15.166   9.450
 5408POPC   PO428980   1.260  15.211   9.150
 5408POPC   GL128981   1.164  15.216   8.850
 5408POPC   GL228982   1.253  15.058   8.850
 5408POPC   C1A28983   1.206  15.216   8.550
 5408POPC   D2A28984   1.192  15.208   8.250
 5408POPC   C3A28985   1.177  15.146   7.950
 5408POPC   C4A28986   1.251  15.177   7.650
 5408POPC   C1B28987   1.378  14.970   8.550
 5408POPC   C2B28988   1.337  14.973   8.250
 5408POPC   C3B28989   1.372  14.943   7.950
 5408POPC   C4B28990   1.387  14.942   7.650
 5409POPC   NC328991   0.462  26.774   9.450
 5409POPC   PO428992   0.440  26.866   9.150
 5409POPC   GL128993   0.420  26.768   8.850
 5409POPC   GL228994   0.542  26.884   8.850
 5409POPC   C1A28995   0.409  26.826   8.550
 5409POPC   D2A28996   0.466  26.852   8.250
 5409POPC   C3A28997   0.472  26.843   7.950
 5409POPC   C4A28998   0.445  26.866   7.650
 5409POPC   C1B28999   0.662  26.918   8.550
 5409POPC   C2B29000   0.672  26.955   8.250
 5409POPC   C3B29001   0.669  26.912   7.950
 5409POPC   C4B29002   0.622  26.960   7.650
 5410POPC   NC329003   4.351  28.412   9.450
 5410POPC   PO429004   4.324  28.323   9.150
 5410POPC   GL129005   4.337  28.419   8.850
 5410POPC   GL229006   4.394  28.359   8.850
 5410POPC   C1A29007   4.362  28.418   8.550
 5410POPC   D2A29008   4.343  28.350   8.250
 5410POPC   C3A29009   4.279  28.354   7.950
 5410POPC   C4A29010   4.326  28.331   7.650
 5410POPC   C1B29011   4.536  28.248   8.550
 5410POPC   C2B29012   4.518  28.256   8.250
 5410POPC   C3B29013   4.543  28.242   7.950
 5410POPC   C4B29014   4.557  28.259   7.650
 5411POPC   NC329015  26.085  19.825   9.450
 5411POPC   PO429016  26.087  19.832   9.150
 5411POPC   GL129017  26.062  19.870   8.850
 5411POPC   GL229018  26.003  19.988   8.850
 5411POPC   C1A29019  26.063  19.785   8.550
 5411POPC   D2A29020  26.027  19.869   8.250
 5411POPC   C3A29021  26.056  19.867   7.950
 5411POPC   C4A29022  26.022  19.843   7.650
 5411POPC   C1B29023  25.949  20.092   8.550
 5411POPC   C2B29024  26.017  20.043   8.250
 5411POPC   C3B29025  25.961  20.030   7.950
 5411POPC   C4B29026  25.955  20.097   7.650
 5412POPC   NC329027   5.135  12.832   9.450
 5412POPC   PO429028   5.044  12.821   9.150
 5412POPC   GL129029   5.108  12.881   8.850
 5412POPC   GL229030   5.177  12.797   8.850
 5412POPC   C1A29031   5.104  12.827   8.550
 5412POPC   D2A29032   5.141  12.895   8.250
 5412POPC   C3A29033   5.046  12.894   7.950
 5412POPC   C4A29034   5.096  12.897   7.650
 5412POPC   C1B29035   5.320  12.757   8.550
 5412POPC   C2B29036   5.324  12.727   8.250
 5412POPC   C3B29037   5.366  12.794   7.950
 5412POPC   C4B29038   5.323  12.735   7.650
 5413POPC   NC329039  11.328  23.684   9.450
 5413POPC   PO429040  11.346  23.701   9.150
 5413POPC   GL129041  11.290  23.679   8.850
 5413POPC   GL229042  11.371  23.715   8.850
 5413POPC   C1A29043  11.328  23.721   8.550
 5413POPC   D2A29044  11.328  23.755   8.250
 5413POPC   C3A29045  11.297  23.678   7.950
 5413POPC   C4A29046  11.254  23.762   7.650
 5413POPC   C1B29047  11.577  23.645   8.550
 5413POPC   C2B29048  11.534  23.614   8.250
 5413POPC   C3B29049  11.512  23.635   7.950
 5413POPC   C4B29050  11.554  23.643   7.650
 5414POPC   NC329051   5.854  18.329   9.450
 5414POPC   PO429052   5.879  18.303   9.150
 5414POPC   GL129053   5.888  18.279   8.850
 5414POPC   GL229054   5.933  18.396   8.850
 5414POPC   C1A29055   5.895  18.276   8.550
 5414POPC   D2A29056   5.887  18.288   8.250
 5414POPC   C3A29057   5.836  18.287   7.950
 5414POPC   C4A29058   5.873  18.306   7.650
 5414POPC   C1B29059   6.071  18.439   8.550
 5414POPC   C2B29060   6.120  18.398   8.250
 5414POPC   C3B29061   6.089  18.411   7.950
 5414POPC   C4B29062   6.100  18.383   7.650
 5415POPC   NC329063  36.087   2.729   9.450
 5415POPC   PO429064  36.128   2.768   9.150
 5415POPC   GL129065  36.164   2.730   8.850
 5415POPC   GL229066  36.174   2.693   8.850
 5415POPC   C1A29067  36.082   2.809   8.550
 5415POPC   D2A29068  36.098   2.742   8.250
 5415POPC   C3A29069  36.152   2.800   7.950
 5415POPC   C4A29070  36.140   2.778   7.650
 5415POPC   C1B29071  36.283   2.526   8.550
 5415POPC   C2B29072  36.235   2.588   8.250
 5415POPC   C3B29073  36.220   2.554   7.950
 5415POPC   C4B29074  36.233   2.567   7.650
 5416POPC   NC329075  42.285  44.653   9.450
 5416POPC   PO429076  42.302  44.635   9.150
 5416POPC   GL129077  42.286  44.672   8.850
 5416POPC   GL229078  42.371  44.564   8.850
 5416POPC   C1A29079  42.290  44.689   8.550
 5416POPC   D2A29080  42.329  44.667   8.250
 5416POPC   C3A29081  42.295  44.707   7.950
 5416POPC   C4A29082  42.378  44.623   7.650
 5416POPC   C1B29083  42.484  44.498   8.550
 5416POPC   C2B29084  42.510  44.505   8.250
 5416POPC   C3B29085  42.456  44.456   7.950
 5416POPC   C4B29086  42.536  44.516   7.650
 5417POPC   NC329087   8.192  29.927   9.450
 5417POPC   PO429088   8.175  29.969   9.150
 5417POPC   GL129089   8.212  29.942   8.850
 5417POPC   GL229090   8.114  30.066   8.850
 5417POPC   C1A29091   8.177  29.874   8.550
 5417POPC   D2A29092   8.217  29.890   8.250
 5417POPC   C3A29093   8.191  29.941   7.950
 5417POPC   C4A29094   8.201  29.944   7.650
 5417POPC   C1B29095   8.092  30.175   8.550
 5417POPC   C2B29096   8.123  30.122   8.250
 5417POPC   C3B29097   8.107  30.160   7.950
 5417POPC   C4B29098   8.126  30.160   7.650
 5418POPC   NC329099  15.227  19.793   9.450
 5418POPC   PO429100  15.216  19.792   9.150
 5418POPC   GL129101  15.182  19.817   8.850
 5418POPC   GL229102  15.034  19.870   8.850
 5418POPC   C1A29103  15.182  19.791   8.550
 5418POPC   D2A29104  15.199  19.878   8.250
 5418POPC   C3A29105  15.179  19.840   7.950
 5418POPC   C4A29106  15.180  19.841   7.650
 5418POPC   C1B29107  14.974  19.870   8.550
 5418POPC   C2B29108  14.933  19.853   8.250
 5418POPC   C3B29109  14.936  19.879   7.950
 5418POPC   C4B29110  14.914  19.836   7.650
 5419POPC   NC329111  27.548  29.161   9.450
 5419POPC   PO429112  27.591  29.151   9.150
 5419POPC   GL129113  27.642  29.124   8.850
 5419POPC   GL229114  27.571  29.051   8.850
 5419POPC   C1A29115  27.625  29.118   8.550
 5419POPC   D2A29116  27.550  29.105   8.250
 5419POPC   C3A29117  27.560  29.193   7.950
 5419POPC   C4A29118  27.602  29.148   7.650
 5419POPC   C1B29119  27.462  28.940   8.550
 5419POPC   C2B29120  27.507  28.897   8.250
 5419POPC   C3B29121  27.465  28.924   7.950
 5419POPC   C4B29122  27.508  28.955   7.650
 5420POPC   NC329123  39.229  29.952   9.450
 5420POPC   PO429124  39.204  29.934   9.150
 5420POPC   GL129125  39.257  29.936   8.850
 5420POPC   GL229126  39.199  29.980   8.850
 5420POPC   C1A29127  39.281  29.877   8.550
 5420POPC   D2A29128  39.252  29.924   8.250
 5420POPC   C3A29129  39.230  29.954   7.950
 5420POPC   C4A29130  39.211  29.929   7.650
 5420POPC   C1B29131  39.114  30.117   8.550
 5420POPC   C2B29132  39.113  30.138   8.250
 5420POPC   C3B29133  39.099  30.150   7.950
 5420POPC   C4B29134  39.098  30.093   7.650
 5421POPC   NC329135  30.726  33.780   9.450
 5421POPC   PO429136  30.685  33.844   9.150
 5421POPC   GL129137  30.661  33.811   8.850
 5421POPC   GL229138  30.851  33.860   8.850
 5421POPC   C1A29139  30.647  33.802   8.550
 5421POPC   D2A29140  30.708  33.817   8.250
 5421POPC   C3A29141  30.724  33.799   7.950
 5421POPC   C4A29142  30.670  33.802   7.650
 5421POPC   C1B29143  30.914  33.843   8.550
 5421POPC   C2B29144  30.923  33.849   8.250
 5421POPC   C3B29145  30.913  33.859   7.950
 5421POPC   C4B29146  30.905  33.896   7.650
 5422POPC   NC329147   1.168   8.189   9.450
 5422POPC   PO429148   1.182   8.165   9.150
 5422POPC   GL129149   1.247   8.149   8.850
 5422POPC   GL229150   1.208   8.058   8.850
 5422POPC   C1A29151   1.183   8.174   8.550
 5422POPC   D2A29152   1.258   8.207   8.250
 5422POPC   C3A29153   1.212   8.157   7.950
 5422POPC   C4A29154   1.220   8.225   7.650
 5422POPC   C1B29155   1.140   7.982   8.550
 5422POPC   C2B29156   1.140   7.938   8.250
 5422POPC   C3B29157   1.127   7.983   7.950
 5422POPC   C4B29158   1.117   7.909   7.650
 5423POPC   NC329159  40.820  36.926   9.450
 5423POPC   PO429160  40.795  36.881   9.150
 5423POPC   GL129161  40.776  36.953   8.850
 5423POPC   GL229162  40.730  36.776   8.850
 5423POPC   C1A29163  40.818  36.930   8.550
 5423POPC   D2A29164  40.829  36.902   8.250
 5423POPC   C3A29165  40.746  36.868   7.950
 5423POPC   C4A29166  40.804  36.900   7.650
 5423POPC   C1B29167  40.798  36.664   8.550
 5423POPC   C2B29168  40.739  36.681   8.250
 5423POPC   C3B29169  40.750  36.680   7.950
 5423POPC   C4B29170  40.798  36.701   7.650
 5424POPC   NC329171  37.681  43.865   9.450
 5424POPC   PO429172  37.702  43.852   9.150
 5424POPC   GL129173  37.678  43.935   8.850
 5424POPC   GL229174  37.759  43.901   8.850
 5424POPC   C1A29175  37.646  43.861   8.550
 5424POPC   D2A29176  37.655  43.900   8.250
 5424POPC   C3A29177  37.725  43.838   7.950
 5424POPC   C4A29178  37.629  43.901   7.650
 5424POPC   C1B29179  37.915  43.887   8.550
 5424POPC   C2B29180  37.942  43.913   8.250
 5424POPC   C3B29181  37.917  43.947   7.950
 5424POPC   C4B29182  37.912  43.940   7.650
 5425POPC   NC329183  30.701   0.419   9.450
 5425POPC   PO429184  30.656   0.435   9.150
 5425POPC   GL129185  30.676   0.425   8.850
 5425POPC   GL229186  30.683   0.529   8.850
 5425POPC   C1A29187  30.670   0.418   8.550
 5425POPC   D2A29188  30.651   0.401   8.250
 5425POPC   C3A29189  30.708   0.392   7.950
 5425POPC   C4A29190  30.716   0.394   7.650
 5425POPC   C1B29191  30.601   0.677   8.550
 5425POPC   C2B29192  30.618   0.656   8.250
 5425POPC   C3B29193  30.637   0.665   7.950
 5425POPC   C4B29194  30.649   0.700   7.650
 5426POPC   NC329195  29.121   8.184   9.450
 5426POPC   PO429196  29.173   8.224   9.150
 5426POPC   GL129197  29.176   8.192   8.850
 5426POPC   GL229198  29.167   8.366   8.850
 5426POPC   C1A29199  29.106   8.233   8.550
 5426POPC   D2A29200  29.111   8.163   8.250
 5426POPC   C3A29201  29.141   8.155   7.950
 5426POPC   C4A29202  29.154   8.170   7.650
 5426POPC   C1B29203  29.091   8.420   8.550
 5426POPC   C2B29204  29.095   8.489   8.250
 5426POPC   C3B29205  29.147   8.437   7.950
 5426POPC   C4B29206  29.074   8.408   7.650
 5427POPC   NC329207  11.262  31.456   9.450
 5427POPC   PO429208  11.277  31.492   9.150
 5427POPC   GL129209  11.324  31.434   8.850
 5427POPC   GL229210  11.411  31.375   8.850
 5427POPC   C1A29211  11.345  31.426   8.550
 5427POPC   D2A29212  11.289  31.519   8.250
 5427POPC   C3A29213  11.297  31.482   7.950
 5427POPC   C4A29214  11.342  31.491   7.650
 5427POPC   C1B29215  11.478  31.412   8.550
 5427POPC   C2B29216  11.537  31.330   8.250
 5427POPC   C3B29217  11.483  31.416   7.950
 5427POPC   C4B29218  11.520  31.333   7.650
 5428POPC   NC329219  24.507  43.878   9.450
 5428POPC   PO429220  24.511  43.908   9.150
 5428POPC   GL129221  24.471  43.854   8.850
 5428POPC   GL229222  24.622  44.004   8.850
 5428POPC   C1A29223  24.531  43.859   8.550
 5428POPC   D2A29224  24.473  43.930   8.250
 5428POPC   C3A29225  24.475  43.926   7.950
 5428POPC   C4A29226  24.443  43.907   7.650
 5428POPC   C1B29227  24.664  44.086   8.550
 5428POPC   C2B29228  24.679  43.996   8.250
 5428POPC   C3B29229  24.661  44.062   7.950
 5428POPC   C4B29230  24.643  44.090   7.650
 5429POPC   NC329231  12.075   8.198   9.450
 5429POPC   PO429232  12.114   8.239   9.150
 5429POPC   GL129233  12.074   8.205   8.850
 5429POPC   GL229234  12.139   8.317   8.850
 5429POPC   C1A29235  12.097   8.184   8.550
 5429POPC   D2A29236  12.113   8.184   8.250
 5429POPC   C3A29237  12.028   8.194   7.950
 5429POPC   C4A29238  12.097   8.147   7.650
 5429POPC   C1B29239  12.244   8.359   8.550
 5429POPC   C2B29240  12.277   8.339   8.250
 5429POPC   C3B29241  12.312   8.326   7.950
 5429POPC   C4B29242  12.263   8.329   7.650
 5430POPC   NC329243   6.647  19.021   9.450
 5430POPC   PO429244   6.663  19.022   9.150
 5430POPC   GL129245   6.664  19.051   8.850
 5430POPC   GL229246   6.721  19.087   8.850
 5430POPC   C1A29247   6.649  19.034   8.550
 5430POPC   D2A29248   6.645  19.102   8.250
 5430POPC   C3A29249   6.624  19.079   7.950
 5430POPC   C4A29250   6.619  19.064   7.650
 5430POPC   C1B29251   6.891  19.071   8.550
 5430POPC   C2B29252   6.868  19.000   8.250
 5430POPC   C3B29253   6.890  18.999   7.950
 5430POPC   C4B29254   6.858  19.005   7.650
 5431POPC   NC329255  12.051  28.349   9.450
 5431POPC   PO429256  12.100  28.369   9.150
 5431POPC   GL129257  12.091  28.368   8.850
 5431POPC   GL229258  11.947  28.352   8.850
 5431POPC   C1A29259  12.063  28.347   8.550
 5431POPC   D2A29260  12.076  28.321   8.250
 5431POPC   C3A29261  12.050  28.415   7.950
 5431POPC   C4A29262  12.086  28.408   7.650
 5431POPC   C1B29263  11.879  28.226   8.550
 5431POPC   C2B29264  11.814  28.241   8.250
 5431POPC   C3B29265  11.866  28.265   7.950
 5431POPC   C4B29266  11.812  28.267   7.650
 5432POPC   NC329267   7.440   7.395   9.450
 5432POPC   PO429268   7.405   7.408   9.150
 5432POPC   GL129269   7.449   7.453   8.850
 5432POPC   GL229270   7.273   7.454   8.850
 5432POPC   C1A29271   7.436   7.397   8.550
 5432POPC   D2A29272   7.373   7.387   8.250
 5432POPC   C3A29273   7.421   7.425   7.950
 5432POPC   C4A29274   7.400   7.393   7.650
 5432POPC   C1B29275   7.145   7.491   8.550
 5432POPC   C2B29276   7.162   7.435   8.250
 5432POPC   C3B29277   7.218   7.435   7.950
 5432POPC   C4B29278   7.189   7.487   7.650
 5433POPC   NC329279  42.365  37.633   9.450
 5433POPC   PO429280  42.348  37.725   9.150
 5433POPC   GL129281  42.302  37.658   8.850
 5433POPC   GL229282  42.388  37.600   8.850
 5433POPC   C1A29283  42.286  37.654   8.550
 5433POPC   D2A29284  42.311  37.726   8.250
 5433POPC   C3A29285  42.378  37.656   7.950
 5433POPC   C4A29286  42.320  37.636   7.650
 5433POPC   C1B29287  42.567  37.565   8.550
 5433POPC   C2B29288  42.532  37.504   8.250
 5433POPC   C3B29289  42.536  37.547   7.950
 5433POPC   C4B29290  42.526  37.552   7.650
 5434POPC   NC329291  13.655  16.723   9.450
 5434POPC   PO429292  13.647  16.703   9.150
 5434POPC   GL129293  13.675  16.694   8.850
 5434POPC   GL229294  13.632  16.623   8.850
 5434POPC   C1A29295  13.612  16.735   8.550
 5434POPC   D2A29296  13.631  16.700   8.250
 5434POPC   C3A29297  13.643  16.754   7.950
 5434POPC   C4A29298  13.601  16.736   7.650
 5434POPC   C1B29299  13.675  16.512   8.550
 5434POPC   C2B29300  13.660  16.530   8.250
 5434POPC   C3B29301  13.703  16.495   7.950
 5434POPC   C4B29302  13.673  16.512   7.650
 5435POPC   NC329303   1.236  14.450   9.450
 5435POPC   PO429304   1.196  14.389   9.150
 5435POPC   GL129305   1.251  14.376   8.850
 5435POPC   GL229306   1.080  14.400   8.850
 5435POPC   C1A29307   1.181  14.421   8.550
 5435POPC   D2A29308   1.259  14.411   8.250
 5435POPC   C3A29309   1.196  14.450   7.950
 5435POPC   C4A29310   1.221  14.453   7.650
 5435POPC   C1B29311   1.000  14.404   8.550
 5435POPC   C2B29312   0.926  14.381   8.250
 5435POPC   C3B29313   0.916  14.347   7.950
 5435POPC   C4B29314   0.997  14.342   7.650
 5436POPC   NC329315  30.656  32.997   9.450
 5436POPC   PO429316  30.675  33.015   9.150
 5436POPC   GL129317  30.703  33.069   8.850
 5436POPC   GL229318  30.630  33.154   8.850
 5436POPC   C1A29319  30.741  33.044   8.550
 5436POPC   D2A29320  30.650  32.975   8.250
 5436POPC   C3A29321  30.684  33.051   7.950
 5436POPC   C4A29322  30.713  33.038   7.650
 5436POPC   C1B29323  30.515  33.187   8.550
 5436POPC   C2B29324  30.515  33.186   8.250
 5436POPC   C3B29325  30.504  33.250   7.950
 5436POPC   C4B29326  30.546  33.224   7.650
 5437POPC   NC329327  26.005   7.371   9.450
 5437POPC   PO429328  26.054   7.378   9.150
 5437POPC   GL129329  26.003   7.395   8.850
 5437POPC   GL229330  26.023   7.306   8.850
 5437POPC   C1A29331  26.015   7.468   8.550
 5437POPC   D2A29332  26.024   7.456   8.250
 5437POPC   C3A29333  26.029   7.464   7.950
 5437POPC   C4A29334  26.069   7.442   7.650
 5437POPC   C1B29335  26.070   7.214   8.550
 5437POPC   C2B29336  26.083   7.212   8.250
 5437POPC   C3B29337  26.103   7.212   7.950
 5437POPC   C4B29338  26.046   7.204   7.650
 5438POPC   NC329339  28.354  23.686   9.450
 5438POPC   PO429340  28.402  23.719   9.150
 5438POPC   GL129341  28.350  23.669   8.850
 5438POPC   GL229342  28.301  23.876   8.850
 5438POPC   C1A29343  28.410  23.717   8.550
 5438POPC   D2A29344  28.378  23.710   8.250
 5438POPC   C3A29345  28.389  23.672   7.950
 5438POPC   C4A29346  28.390  23.677   7.650
 5438POPC   C1B29347  28.326  23.926   8.550
 5438POPC   C2B29348  28.328  23.950   8.250
 5438POPC   C3B29349  28.284  23.961   7.950
 5438POPC   C4B29350  28.289  23.973   7.650
 5439POPC   NC329351   5.905  23.695   9.450
 5439POPC   PO429352   5.892  23.759   9.150
 5439POPC   GL129353   5.896  23.674   8.850
 5439POPC   GL229354   5.894  23.857   8.850
 5439POPC   C1A29355   5.843  23.679   8.550
 5439POPC   D2A29356   5.903  23.756   8.250
 5439POPC   C3A29357   5.823  23.726   7.950
 5439POPC   C4A29358   5.901  23.730   7.650
 5439POPC   C1B29359   5.991  23.987   8.550
 5439POPC   C2B29360   5.940  23.900   8.250
 5439POPC   C3B29361   5.986  23.972   7.950
 5439POPC   C4B29362   5.913  23.943   7.650
 5440POPC   NC329363   5.893  15.999   9.450
 5440POPC   PO429364   5.894  15.976   9.150
 5440POPC   GL129365   5.873  15.957   8.850
 5440POPC   GL229366   5.722  15.932   8.850
 5440POPC   C1A29367   5.858  15.994   8.550
 5440POPC   D2A29368   5.879  15.929   8.250
 5440POPC   C3A29369   5.908  15.970   7.950
 5440POPC   C4A29370   5.919  15.962   7.650
 5440POPC   C1B29371   5.582  16.032   8.550
 5440POPC   C2B29372   5.589  16.030   8.250
 5440POPC   C3B29373   5.656  15.970   7.950
 5440POPC   C4B29374   5.663  16.037   7.650
 5441POPC   NC329375  25.250   1.262   9.450
 5441POPC   PO429376  25.228   1.241   9.150
 5441POPC   GL129377  25.280   1.168   8.850
 5441POPC   GL229378  25.399   1.199   8.850
 5441POPC   C1A29379  25.285   1.168   8.550
 5441POPC   D2A29380  25.237   1.172   8.250
 5441POPC   C3A29381  25.283   1.174   7.950
 5441POPC   C4A29382  25.255   1.200   7.650
 5441POPC   C1B29383  25.510   1.158   8.550
 5441POPC   C2B29384  25.453   1.123   8.250
 5441POPC   C3B29385  25.538   1.115   7.950
 5441POPC   C4B29386  25.510   1.073   7.650
 5442POPC   NC329387  32.222  36.132   9.450
 5442POPC   PO429388  32.254  36.173   9.150
 5442POPC   GL129389  32.202  36.088   8.850
 5442POPC   GL229390  32.099  36.132   8.850
 5442POPC   C1A29391  32.271  36.122   8.550
 5442POPC   D2A29392  32.252  36.094   8.250
 5442POPC   C3A29393  32.245  36.170   7.950
 5442POPC   C4A29394  32.278  36.108   7.650
 5442POPC   C1B29395  32.012  36.094   8.550
 5442POPC   C2B29396  31.969  36.052   8.250
 5442POPC   C3B29397  32.030  36.070   7.950
 5442POPC   C4B29398  31.983  36.024   7.650
 5443POPC   NC329399  37.632  29.131   9.450
 5443POPC   PO429400  37.678  29.127   9.150
 5443POPC   GL129401  37.649  29.132   8.850
 5443POPC   GL229402  37.676  29.022   8.850
 5443POPC   C1A29403  37.652  29.189   8.550
 5443POPC   D2A29404  37.652  29.181   8.250
 5443POPC   C3A29405  37.667  29.152   7.950
 5443POPC   C4A29406  37.658  29.137   7.650
 5443POPC   C1B29407  37.718  28.888   8.550
 5443POPC   C2B29408  37.739  28.860   8.250
 5443POPC   C3B29409  37.712  28.884   7.950
 5443POPC   C4B29410  37.739  28.889   7.650
 5444POPC   NC329411  16.749  33.827   9.450
 5444POPC   PO429412  16.770  33.823   9.150
 5444POPC   GL129413  16.717  33.807   8.850
 5444POPC   GL229414  16.616  33.939   8.850
 5444POPC   C1A29415  16.701  33.826   8.550
 5444POPC   D2A29416  16.738  33.788   8.250
 5444POPC   C3A29417  16.704  33.823   7.950
 5444POPC   C4A29418  16.696  33.802   7.650
 5444POPC   C1B29419  16.614  34.043   8.550
 5444POPC   C2B29420  16.582  33.963   8.250
 5444POPC   C3B29421  16.567  33.963   7.950
 5444POPC   C4B29422  16.622  34.054   7.650
 5445POPC   NC329423  23.668  33.047   9.450
 5445POPC   PO429424  23.678  32.989   9.150
 5445POPC   GL129425  23.729  32.983   8.850
 5445POPC   GL229426  23.613  32.935   8.850
 5445POPC   C1A29427  23.743  32.983   8.550
 5445POPC   D2A29428  23.703  33.061   8.250
 5445POPC   C3A29429  23.737  33.016   7.950
 5445POPC   C4A29430  23.695  33.004   7.650
 5445POPC   C1B29431  23.511  32.819   8.550
 5445POPC   C2B29432  23.516  32.822   8.250
 5445POPC   C3B29433  23.506  32.842   7.950
 5445POPC   C4B29434  23.568  32.842   7.650
 5446POPC   NC329435  35.378  21.383   9.450
 5446POPC   PO429436  35.350  21.340   9.150
 5446POPC   GL129437  35.397  21.376   8.850
 5446POPC   GL229438  35.443  21.420   8.850
 5446POPC   C1A29439  35.390  21.398   8.550
 5446POPC   D2A29440  35.333  21.345   8.250
 5446POPC   C3A29441  35.314  21.366   7.950
 5446POPC   C4A29442  35.375  21.389   7.650
 5446POPC   C1B29443  35.643  21.382   8.550
 5446POPC   C2B29444  35.640  21.447   8.250
 5446POPC   C3B29445  35.639  21.393   7.950
 5446POPC   C4B29446  35.571  21.383   7.650
 5447POPC   NC329447   3.507  13.604   9.450
 5447POPC   PO429448   3.549  13.620   9.150
 5447POPC   GL129449   3.517  13.610   8.850
 5447POPC   GL229450   3.663  13.599   8.850
 5447POPC   C1A29451   3.526  13.633   8.550
 5447POPC   D2A29452   3.590  13.657   8.250
 5447POPC   C3A29453   3.514  13.613   7.950
 5447POPC   C4A29454   3.556  13.659   7.650
 5447POPC   C1B29455   3.785  13.465   8.550
 5447POPC   C2B29456   3.757  13.558   8.250
 5447POPC   C3B29457   3.805  13.548   7.950
 5447POPC   C4B29458   3.805  13.506   7.650
 5448POPC   NC329459  39.993  21.352   9.450
 5448POPC   PO429460  39.972  21.381   9.150
 5448POPC   GL129461  39.974  21.417   8.850
 5448POPC   GL229462  39.959  21.477   8.850
 5448POPC   C1A29463  40.033  21.354   8.550
 5448POPC   D2A29464  39.959  21.345   8.250
 5448POPC   C3A29465  40.036  21.390   7.950
 5448POPC   C4A29466  39.960  21.420   7.650
 5448POPC   C1B29467  39.780  21.584   8.550
 5448POPC   C2B29468  39.808  21.529   8.250
 5448POPC   C3B29469  39.792  21.563   7.950
 5448POPC   C4B29470  39.860  21.496   7.650
 5449POPC   NC329471  12.866  25.273   9.450
 5449POPC   PO429472  12.858  25.237   9.150
 5449POPC   GL129473  12.849  25.233   8.850
 5449POPC   GL229474  12.930  25.364   8.850
 5449POPC   C1A29475  12.844  25.298   8.550
 5449POPC   D2A29476  12.804  25.288   8.250
 5449POPC   C3A29477  12.871  25.260   7.950
 5449POPC   C4A29478  12.893  25.256   7.650
 5449POPC   C1B29479  12.978  25.491   8.550
 5449POPC   C2B29480  12.926  25.508   8.250
 5449POPC   C3B29481  12.954  25.488   7.950
 5449POPC   C4B29482  12.994  25.543   7.650
 5450POPC   NC329483  43.105  30.728   9.450
 5450POPC   PO429484  43.135  30.702   9.150
 5450POPC   GL129485  43.069  30.652   8.850
 5450POPC   GL229486  43.073  30.634   8.850
 5450POPC   C1A29487  43.155  30.664   8.550
 5450POPC   D2A29488  43.145  30.660   8.250
 5450POPC   C3A29489  43.135  30.717   7.950
 5450POPC   C4A29490  43.100  30.656   7.650
 5450POPC   C1B29491  42.959  30.503   8.550
 5450POPC   C2B29492  42.944  30.488   8.250
 5450POPC   C3B29493  42.999  30.499   7.950
 5450POPC   C4B29494  42.962  30.462   7.650
 5451POPC   NC329495   5.046  11.294   9.450
 5451POPC   PO429496   5.054  11.277   9.150
 5451POPC   GL129497   5.097  11.280   8.850
 5451POPC   GL229498   5.043  11.182   8.850
 5451POPC   C1A29499   5.099  11.305   8.550
 5451POPC   D2A29500   5.105  11.291   8.250
 5451POPC   C3A29501   5.061  11.291   7.950
 5451POPC   C4A29502   5.056  11.306   7.650
 5451POPC   C1B29503   4.927  11.099   8.550
 5451POPC   C2B29504   4.896  11.168   8.250
 5451POPC   C3B29505   4.906  11.127   7.950
 5451POPC   C4B29506   4.871  11.123   7.650
 5452POPC   NC329507  39.215  32.982   9.450
 5452POPC   PO429508  39.222  32.997   9.150
 5452POPC   GL129509  39.224  33.018   8.850
 5452POPC   GL229510  39.121  32.987   8.850
 5452POPC   C1A29511  39.238  33.038   8.550
 5452POPC   D2A29512  39.197  32.984   8.250
 5452POPC   C3A29513  39.227  33.066   7.950
 5452POPC   C4A29514  39.280  33.052   7.650
 5452POPC   C1B29515  39.077  32.803   8.550
 5452POPC   C2B29516  39.073  32.894   8.250
 5452POPC   C3B29517  39.032  32.816   7.950
 5452POPC   C4B29518  39.072  32.819   7.650
 5453POPC   NC329519  34.594  19.024   9.450
 5453POPC   PO429520  34.573  19.066   9.150
 5453POPC   GL129521  34.555  19.036   8.850
 5453POPC   GL229522  34.695  19.000   8.850
 5453POPC   C1A29523  34.604  19.106   8.550
 5453POPC   D2A29524  34.626  19.055   8.250
 5453POPC   C3A29525  34.573  19.041   7.950
 5453POPC   C4A29526  34.566  19.012   7.650
 5453POPC   C1B29527  34.786  18.937   8.550
 5453POPC   C2B29528  34.799  19.008   8.250
 5453POPC   C3B29529  34.775  19.009   7.950
 5453POPC   C4B29530  34.777  18.988   7.650
 5454POPC   NC329531   9.750  38.445   9.450
 5454POPC   PO429532   9.767  38.432   9.150
 5454POPC   GL129533   9.756  38.500   8.850
 5454POPC   GL229534   9.686  38.344   8.850
 5454POPC   C1A29535   9.782  38.441   8.550
 5454POPC   D2A29536   9.754  38.453   8.250
 5454POPC   C3A29537   9.772  38.503   7.950
 5454POPC   C4A29538   9.789  38.502   7.650
 5454POPC   C1B29539   9.565  38.236   8.550
 5454POPC   C2B29540   9.588  38.259   8.250
 5454POPC   C3B29541   9.577  38.239   7.950
 5454POPC   C4B29542   9.600  38.324   7.650
 5455POPC   NC329543   1.997  24.491   9.450
 5455POPC   PO429544   1.959  24.499   9.150
 5455POPC   GL129545   2.025  24.508   8.850
 5455POPC   GL229546   1.889  24.486   8.850
 5455POPC   C1A29547   2.033  24.481   8.550
 5455POPC   D2A29548   1.955  24.519   8.250
 5455POPC   C3A29549   1.956  24.476   7.950
 5455POPC   C4A29550   1.998  24.466   7.650
 5455POPC   C1B29551   1.743  24.514   8.550
 5455POPC   C2B29552   1.706  24.488   8.250
 5455POPC   C3B29553   1.755  24.573   7.950
 5455POPC   C4B29554   1.766  24.558   7.650
 5456POPC   NC329555   8.957  10.567   9.450
 5456POPC   PO429556   9.009  10.568   9.150
 5456POPC   GL129557   8.963  10.508   8.850
 5456POPC   GL229558   8.956  10.396   8.850
 5456POPC   C1A29559   9.020  10.555   8.550
 5456POPC   D2A29560   9.005  10.544   8.250
 5456POPC   C3A29561   8.939  10.478   7.950
 5456POPC   C4A29562   9.017  10.542   7.650
 5456POPC   C1B29563   8.839  10.325   8.550
 5456POPC   C2B29564   8.867  10.263   8.250
 5456POPC   C3B29565   8.884  10.271   7.950
 5456POPC   C4B29566   8.893  10.349   7.650
 5457POPC   NC329567   9.796  29.177   9.450
 5457POPC   PO429568   9.728  29.170   9.150
 5457POPC   GL129569   9.777  29.164   8.850
 5457POPC   GL229570   9.641  29.159   8.850
 5457POPC   C1A29571   9.757  29.104   8.550
 5457POPC   D2A29572   9.700  29.146   8.250
 5457POPC   C3A29573   9.758  29.108   7.950
 5457POPC   C4A29574   9.723  29.172   7.650
 5457POPC   C1B29575   9.550  29.233   8.550
 5457POPC   C2B29576   9.520  29.223   8.250
 5457POPC   C3B29577   9.558  29.232   7.950
 5457POPC   C4B29578   9.541  29.235   7.650
 5458POPC   NC329579  33.011  26.079   9.450
 5458POPC   PO429580  33.048  26.058   9.150
 5458POPC   GL129581  33.032  26.039   8.850
 5458POPC   GL229582  33.049  26.174   8.850
 5458POPC   C1A29583  33.034  26.026   8.550
 5458POPC   D2A29584  33.016  25.997   8.250
 5458POPC   C3A29585  33.038  26.024   7.950
 5458POPC   C4A29586  33.019  26.060   7.650
 5458POPC   C1B29587  33.000  26.297   8.550
 5458POPC   C2B29588  33.072  26.282   8.250
 5458POPC   C3B29589  33.000  26.287   7.950
 5458POPC   C4B29590  33.043  26.246   7.650
 5459POPC   NC329591  15.931  39.229   9.450
 5459POPC   PO429592  15.911  39.224   9.150
 5459POPC   GL129593  15.926  39.185   8.850
 5459POPC   GL229594  15.822  39.154   8.850
 5459POPC   C1A29595  15.970  39.193   8.550
 5459POPC   D2A29596  15.937  39.237   8.250
 5459POPC   C3A29597  15.984  39.260   7.950
 5459POPC   C4A29598  15.949  39.225   7.650
 5459POPC   C1B29599  15.822  39.012   8.550
 5459POPC   C2B29600  15.757  39.020   8.250
 5459POPC   C3B29601  15.820  39.049   7.950
 5459POPC   C4B29602  15.772  39.066   7.650
 5460POPC   NC329603  31.482  27.621   9.450
 5460POPC   PO429604  31.431  27.564   9.150
 5460POPC   GL129605  31.520  27.623   8.850
 5460POPC   GL229606  31.609  27.674   8.850
 5460POPC   C1A29607  31.487  27.596   8.550
 5460POPC   D2A29608  31.515  27.615   8.250
 5460POPC   C3A29609  31.444  27.619   7.950
 5460POPC   C4A29610  31.522  27.568   7.650
 5460POPC   C1B29611  31.672  27.773   8.550
 5460POPC   C2B29612  31.686  27.776   8.250
 5460POPC   C3B29613  31.645  27.731   7.950
 5460POPC   C4B29614  31.691  27.709   7.650
 5461POPC   NC329615  18.248  14.392   9.450
 5461POPC   PO429616  18.273  14.367   9.150
 5461POPC   GL129617  18.242  14.402   8.850
 5461POPC   GL229618  18.230  14.306   8.850
 5461POPC   C1A29619  18.308  14.377   8.550
 5461POPC   D2A29620  18.279  14.451   8.250
 5461POPC   C3A29621  18.293  14.453   7.950
 5461POPC   C4A29622  18.295  14.401   7.650
 5461POPC   C1B29623  18.190  14.243   8.550
 5461POPC   C2B29624  18.120  14.198   8.250
 5461POPC   C3B29625  18.173  14.230   7.950
 5461POPC   C4B29626  18.193  14.156   7.650
 5462POPC   NC329627  27.561   1.210   9.450
 5462POPC   PO429628  27.634   1.192   9.150
 5462POPC   GL129629  27.631   1.193   8.850
 5462POPC   GL229630  27.708   1.201   8.850
 5462POPC   C1A29631  27.637   1.191   8.550
 5462POPC   D2A29632  27.602   1.242   8.250
 5462POPC   C3A29633  27.547   1.199   7.950
 5462POPC   C4A29634  27.579   1.244   7.650
 5462POPC   C1B29635  27.869   1.244   8.550
 5462POPC   C2B29636  27.811   1.236   8.250
 5462POPC   C3B29637  27.814   1.276   7.950
 5462POPC   C4B29638  27.801   1.284   7.650
 5463POPC   NC329639  43.891  26.795   9.450
 5463POPC   PO429640  43.926  26.795   9.150
 5463POPC   GL129641  43.866  26.846   8.850
 5463POPC   GL229642  43.779  26.793   8.850
 5463POPC   C1A29643  43.878  26.822   8.550
 5463POPC   D2A29644  43.889  26.836   8.250
 5463POPC   C3A29645  43.906  26.796   7.950
 5463POPC   C4A29646  43.837  26.823   7.650
 5463POPC   C1B29647  43.654  26.796   8.550
 5463POPC   C2B29648  43.618  26.758   8.250
 5463POPC   C3B29649  43.694  26.789   7.950
 5463POPC   C4B29650  43.613  26.702   7.650
 5464POPC   NC329651  15.963   5.828   9.450
 5464POPC   PO429652  15.911   5.912   9.150
 5464POPC   GL129653  15.998   5.855   8.850
 5464POPC   GL229654  15.824   5.781   8.850
 5464POPC   C1A29655  15.994   5.867   8.550
 5464POPC   D2A29656  15.994   5.900   8.250
 5464POPC   C3A29657  15.924   5.903   7.950
 5464POPC   C4A29658  15.907   5.875   7.650
 5464POPC   C1B29659  15.741   5.800   8.550
 5464POPC   C2B29660  15.721   5.813   8.250
 5464POPC   C3B29661  15.743   5.729   7.950
 5464POPC   C4B29662  15.705   5.736   7.650
 5465POPC   NC329663  34.533  34.597   9.450
 5465POPC   PO429664  34.551  34.603   9.150
 5465POPC   GL129665  34.567  34.550   8.850
 5465POPC   GL229666  34.738  34.644   8.850
 5465POPC   C1A29667  34.585  34.578   8.550
 5465POPC   D2A29668  34.596  34.575   8.250
 5465POPC   C3A29669  34.603  34.541   7.950
 5465POPC   C4A29670  34.576  34.595   7.650
 5465POPC   C1B29671  34.844  34.619   8.550
 5465POPC   C2B29672  34.862  34.659   8.250
 5465POPC   C3B29673  34.800  34.577   7.950
 5465POPC   C4B29674  34.792  34.576   7.650
 5466POPC   NC329675   8.925   1.946   9.450
 5466POPC   PO429676   9.014   1.985   9.150
 5466POPC   GL129677   8.935   1.941   8.850
 5466POPC   GL229678   8.898   1.966   8.850
 5466POPC   C1A29679   9.017   1.988   8.550
 5466POPC   D2A29680   8.947   1.959   8.250
 5466POPC   C3A29681   9.022   1.948   7.950
 5466POPC   C4A29682   8.999   2.023   7.650
 5466POPC   C1B29683   8.726   1.865   8.550
 5466POPC   C2B29684   8.791   1.851   8.250
 5466POPC   C3B29685   8.744   1.866   7.950
 5466POPC   C4B29686   8.778   1.897   7.650
 5467POPC   NC329687  36.151  22.898   9.450
 5467POPC   PO429688  36.118  22.942   9.150
 5467POPC   GL129689  36.103  22.948   8.850
 5467POPC   GL229690  36.056  22.899   8.850
 5467POPC   C1A29691  36.098  22.937   8.550
 5467POPC   D2A29692  36.174  22.976   8.250
 5467POPC   C3A29693  36.157  22.917   7.950
 5467POPC   C4A29694  36.165  22.936   7.650
 5467POPC   C1B29695  35.908  22.752   8.550
 5467POPC   C2B29696  35.965  22.777   8.250
 5467POPC   C3B29697  35.979  22.736   7.950
 5467POPC   C4B29698  35.909  22.792   7.650
 5468POPC   NC329699  40.808  12.030   9.450
 5468POPC   PO429700  40.798  12.109   9.150
 5468POPC   GL129701  40.795  12.063   8.850
 5468POPC   GL229702  40.754  12.237   8.850
 5468POPC   C1A29703  40.801  12.033   8.550
 5468POPC   D2A29704  40.763  12.105   8.250
 5468POPC   C3A29705  40.748  12.101   7.950
 5468POPC   C4A29706  40.823  12.071   7.650
 5468POPC   C1B29707  40.724  12.349   8.550
 5468POPC   C2B29708  40.729  12.356   8.250
 5468POPC   C3B29709  40.694  12.351   7.950
 5468POPC   C4B29710  40.673  12.362   7.650
 5469POPC   NC329711   9.017  19.055   9.450
 5469POPC   PO429712   8.979  19.021   9.150
 5469POPC   GL129713   9.000  19.089   8.850
 5469POPC   GL229714   8.970  18.983   8.850
 5469POPC   C1A29715   8.981  19.055   8.550
 5469POPC   D2A29716   9.021  19.083   8.250
 5469POPC   C3A29717   8.998  19.105   7.950
 5469POPC   C4A29718   9.019  19.105   7.650
 5469POPC   C1B29719   8.871  18.782   8.550
 5469POPC   C2B29720   8.855  18.820   8.250
 5469POPC   C3B29721   8.853  18.808   7.950
 5469POPC   C4B29722   8.933  18.826   7.650
 5470POPC   NC329723   0.468  33.040   9.450
 5470POPC   PO429724   0.469  33.072   9.150
 5470POPC   GL129725   0.426  33.004   8.850
 5470POPC   GL229726   0.318  33.112   8.850
 5470POPC   C1A29727   0.477  33.009   8.550
 5470POPC   D2A29728   0.444  33.023   8.250
 5470POPC   C3A29729   0.432  33.002   7.950
 5470POPC   C4A29730   0.443  33.012   7.650
 5470POPC   C1B29731   0.209  33.149   8.550
 5470POPC   C2B29732   0.263  33.153   8.250
 5470POPC   C3B29733   0.183  33.126   7.950
 5470POPC   C4B29734   0.236  33.158   7.650
 5471POPC   NC329735  21.374  33.825   9.450
 5471POPC   PO429736  21.355  33.822   9.150
 5471POPC   GL129737  21.350  33.814   8.850
 5471POPC   GL229738  21.471  33.714   8.850
 5471POPC   C1A29739  21.367  33.818   8.550
 5471POPC   D2A29740  21.354  33.846   8.250
 5471POPC   C3A29741  21.435  33.783   7.950
 5471POPC   C4A29742  21.405  33.761   7.650
 5471POPC   C1B29743  21.475  33.554   8.550
 5471POPC   C2B29744  21.500  33.551   8.250
 5471POPC   C3B29745  21.498  33.554   7.950
 5471POPC   C4B29746  21.541  33.546   7.650
 5472POPC   NC329747  24.533   0.396   9.450
 5472POPC   PO429748  24.492   0.472   9.150
 5472POPC   GL129749  24.539   0.461   8.850
 5472POPC   GL229750  24.615   0.459   8.850
 5472POPC   C1A29751  24.521   0.453   8.550
 5472POPC   D2A29752  24.538   0.409   8.250
 5472POPC   C3A29753  24.492   0.462   7.950
 5472POPC   C4A29754  24.473   0.416   7.650
 5472POPC   C1B29755  24.688   0.457   8.550
 5472POPC   C2B29756  24.694   0.465   8.250
 5472POPC   C3B29757  24.693   0.515   7.950
 5472POPC   C4B29758  24.766   0.495   7.650
 5473POPC   NC329759  43.903  38.452   9.450
 5473POPC   PO429760  43.915  38.435   9.150
 5473POPC   GL129761  43.844  38.495   8.850
 5473POPC   GL229762  43.950  38.508   8.850
 5473POPC   C1A29763  43.930  38.487   8.550
 5473POPC   D2A29764  43.878  38.448   8.250
 5473POPC   C3A29765  43.879  38.407   7.950
 5473POPC   C4A29766  43.853  38.480   7.650
 5473POPC   C1B29767  44.039  38.691   8.550
 5473POPC   C2B29768  44.013  38.608   8.250
 5473POPC   C3B29769  44.038  38.611   7.950
 5473POPC   C4B29770  44.006  38.629   7.650
 5474POPC   NC329771  10.524   1.213   9.450
 5474POPC   PO429772  10.520   1.254   9.150
 5474POPC   GL129773  10.531   1.164   8.850
 5474POPC   GL229774  10.442   1.172   8.850
 5474POPC   C1A29775  10.570   1.220   8.550
 5474POPC   D2A29776  10.475   1.225   8.250
 5474POPC   C3A29777  10.476   1.190   7.950
 5474POPC   C4A29778  10.480   1.209   7.650
 5474POPC   C1B29779  10.303   1.151   8.550
 5474POPC   C2B29780  10.330   1.106   8.250
 5474POPC   C3B29781  10.271   1.180   7.950
 5474POPC   C4B29782  10.238   1.120   7.650
 5475POPC   NC329783   3.590   7.437   9.450
 5475POPC   PO429784   3.586   7.402   9.150
 5475POPC   GL129785   3.545   7.425   8.850
 5475POPC   GL229786   3.418   7.439   8.850
 5475POPC   C1A29787   3.516   7.447   8.550
 5475POPC   D2A29788   3.580   7.435   8.250
 5475POPC   C3A29789   3.512   7.458   7.950
 5475POPC   C4A29790   3.526   7.376   7.650
 5475POPC   C1B29791   3.294   7.453   8.550
 5475POPC   C2B29792   3.338   7.380   8.250
 5475POPC   C3B29793   3.332   7.450   7.950
 5475POPC   C4B29794   3.316   7.382   7.650
 5476POPC   NC329795  22.187  12.037   9.450
 5476POPC   PO429796  22.191  12.065   9.150
 5476POPC   GL129797  22.205  12.060   8.850
 5476POPC   GL229798  22.229  12.120   8.850
 5476POPC   C1A29799  22.140  12.060   8.550
 5476POPC   D2A29800  22.210  12.089   8.250
 5476POPC   C3A29801  22.173  12.035   7.950
 5476POPC   C4A29802  22.147  12.048   7.650
 5476POPC   C1B29803  22.353  12.288   8.550
 5476POPC   C2B29804  22.339  12.240   8.250
 5476POPC   C3B29805  22.381  12.275   7.950
 5476POPC   C4B29806  22.340  12.230   7.650
 5477POPC   NC329807   6.647  12.885   9.450
 5477POPC   PO429808   6.646  12.885   9.150
 5477POPC   GL129809   6.692  12.877   8.850
 5477POPC   GL229810   6.586  12.714   8.850
 5477POPC   C1A29811   6.648  12.849   8.550
 5477POPC   D2A29812   6.648  12.889   8.250
 5477POPC   C3A29813   6.601  12.891   7.950
 5477POPC   C4A29814   6.639  12.894   7.650
 5477POPC   C1B29815   6.586  12.648   8.550
 5477POPC   C2B29816   6.512  12.643   8.250
 5477POPC   C3B29817   6.570  12.670   7.950
 5477POPC   C4B29818   6.524  12.625   7.650
 5478POPC   NC329819  40.007  37.706   9.450
 5478POPC   PO429820  39.975  37.639   9.150
 5478POPC   GL129821  40.001  37.641   8.850
 5478POPC   GL229822  40.122  37.793   8.850
 5478POPC   C1A29823  39.988  37.664   8.550
 5478POPC   D2A29824  40.037  37.712   8.250
 5478POPC   C3A29825  40.046  37.654   7.950
 5478POPC   C4A29826  39.959  37.712   7.650
 5478POPC   C1B29827  40.177  37.889   8.550
 5478POPC   C2B29828  40.135  37.885   8.250
 5478POPC   C3B29829  40.186  37.865   7.950
 5478POPC   C4B29830  40.165  37.848   7.650
 5479POPC   NC329831  39.971  16.702   9.450
 5479POPC   PO429832  39.963  16.769   9.150
 5479POPC   GL129833  39.986  16.706   8.850
 5479POPC   GL229834  40.119  16.690   8.850
 5479POPC   C1A29835  39.977  16.702   8.550
 5479POPC   D2A29836  40.021  16.772   8.250
 5479POPC   C3A29837  40.049  16.767   7.950
 5479POPC   C4A29838  40.035  16.713   7.650
 5479POPC   C1B29839  40.226  16.645   8.550
 5479POPC   C2B29840  40.241  16.635   8.250
 5479POPC   C3B29841  40.282  16.651   7.950
 5479POPC   C4B29842  40.279  16.631   7.650
 5480POPC   NC329843  33.070  16.741   9.450
 5480POPC   PO429844  33.044  16.758   9.150
 5480POPC   GL129845  33.055  16.740   8.850
 5480POPC   GL229846  32.981  16.893   8.850
 5480POPC   C1A29847  32.996  16.682   8.550
 5480POPC   D2A29848  33.045  16.762   8.250
 5480POPC   C3A29849  33.026  16.719   7.950
 5480POPC   C4A29850  33.021  16.749   7.650
 5480POPC   C1B29851  33.040  16.932   8.550
 5480POPC   C2B29852  32.984  17.001   8.250
 5480POPC   C3B29853  33.018  17.001   7.950
 5480POPC   C4B29854  32.994  17.025   7.650
 5481POPC   NC329855  34.590  30.661   9.450
 5481POPC   PO429856  34.583  30.676   9.150
 5481POPC   GL129857  34.588  30.726   8.850
 5481POPC   GL229858  34.606  30.544   8.850
 5481POPC   C1A29859  34.574  30.723   8.550
 5481POPC   D2A29860  34.589  30.656   8.250
 5481POPC   C3A29861  34.609  30.691   7.950
 5481POPC   C4A29862  34.617  30.672   7.650
 5481POPC   C1B29863  34.620  30.485   8.550
 5481POPC   C2B29864  34.622  30.503   8.250
 5481POPC   C3B29865  34.666  30.447   7.950
 5481POPC   C4B29866  34.661  30.510   7.650
 5482POPC   NC329867  38.440  37.711   9.450
 5482POPC   PO429868  38.451  37.712   9.150
 5482POPC   GL129869  38.474  37.719   8.850
 5482POPC   GL229870  38.341  37.701   8.850
 5482POPC   C1A29871  38.481  37.655   8.550
 5482POPC   D2A29872  38.502  37.668   8.250
 5482POPC   C3A29873  38.426  37.661   7.950
 5482POPC   C4A29874  38.470  37.682   7.650
 5482POPC   C1B29875  38.236  37.734   8.550
 5482POPC   C2B29876  38.238  37.699   8.250
 5482POPC   C3B29877  38.247  37.747   7.950
 5482POPC   C4B29878  38.225  37.717   7.650
 5483POPC   NC329879  38.480   0.392   9.450
 5483POPC   PO429880  38.476   0.470   9.150
 5483POPC   GL129881  38.473   0.390   8.850
 5483POPC   GL229882  38.465   0.592   8.850
 5483POPC   C1A29883  38.407   0.422   8.550
 5483POPC   D2A29884  38.424   0.399   8.250
 5483POPC   C3A29885  38.476   0.392   7.950
 5483POPC   C4A29886  38.465   0.416   7.650
 5483POPC   C1B29887  38.419   0.657   8.550
 5483POPC   C2B29888  38.420   0.695   8.250
 5483POPC   C3B29889  38.398   0.692   7.950
 5483POPC   C4B29890  38.422   0.680   7.650
 5484POPC   NC329891   1.257  27.587   9.450
 5484POPC   PO429892   1.180  27.609   9.150
 5484POPC   GL129893   1.241  27.640   8.850
 5484POPC   GL229894   1.296  27.598   8.850
 5484POPC   C1A29895   1.169  27.554   8.550
 5484POPC   D2A29896   1.175  27.576   8.250
 5484POPC   C3A29897   1.187  27.631   7.950
 5484POPC   C4A29898   1.233  27.574   7.650
 5484POPC   C1B29899   1.429  27.662   8.550
 5484POPC   C2B29900   1.409  27.687   8.250
 5484POPC   C3B29901   1.455  27.662   7.950
 5484POPC   C4B29902   1.471  27.628   7.650
 5485POPC   NC329903  14.405   8.187   9.450
 5485POPC   PO429904  14.439   8.228   9.150
 5485POPC   GL129905  14.381   8.197   8.850
 5485POPC   GL229906  14.477   8.225   8.850
 5485POPC   C1A29907  14.359   8.244   8.550
 5485POPC   D2A29908  14.422   8.196   8.250
 5485POPC   C3A29909  14.372   8.172   7.950
 5485POPC   C4A29910  14.395   8.236   7.650
 5485POPC   C1B29911  14.678   8.264   8.550
 5485POPC   C2B29912  14.656   8.253   8.250
 5485POPC   C3B29913  14.611   8.238   7.950
 5485POPC   C4B29914  14.613   8.234   7.650
 5486POPC   NC329915  31.473  43.098   9.450
 5486POPC   PO429916  31.449  43.065   9.150
 5486POPC   GL129917  31.515  43.135   8.850
 5486POPC   GL229918  31.504  43.001   8.850
 5486POPC   C1A29919  31.478  43.145   8.550
 5486POPC   D2A29920  31.475  43.085   8.250
 5486POPC   C3A29921  31.520  43.136   7.950
 5486POPC   C4A29922  31.494  43.094   7.650
 5486POPC   C1B29923  31.555  42.846   8.550
 5486POPC   C2B29924  31.555  42.854   8.250
 5486POPC   C3B29925  31.488  42.898   7.950
 5486POPC   C4B29926  31.477  42.901   7.650
 5487POPC   NC329927   1.245  19.812   9.450
 5487POPC   PO429928   1.171  19.809   9.150
 5487POPC   GL129929   1.197  19.851   8.850
 5487POPC   GL229930   1.222  19.970   8.850
 5487POPC   C1A29931   1.179  19.848   8.550
 5487POPC   D2A29932   1.211  19.839   8.250
 5487POPC   C3A29933   1.195  19.806   7.950
 5487POPC   C4A29934   1.207  19.855   7.650
 5487POPC   C1B29935   1.344  20.062   8.550
 5487POPC   C2B29936   1.361  20.041   8.250
 5487POPC   C3B29937   1.313  20.037   7.950
 5487POPC   C4B29938   1.336  20.105   7.650
 5488POPC   NC329939  13.649  26.867   9.450
 5488POPC   PO429940  13.650  26.828   9.150
 5488POPC   GL129941  13.664  26.804   8.850
 5488POPC   GL229942  13.549  26.911   8.850
 5488POPC   C1A29943  13.659  26.820   8.550
 5488POPC   D2A29944  13.621  26.818   8.250
 5488POPC   C3A29945  13.609  26.767   7.950
 5488POPC   C4A29946  13.656  26.821   7.650
 5488POPC   C1B29947  13.480  27.016   8.550
 5488POPC   C2B29948  13.455  27.006   8.250
 5488POPC   C3B29949  13.486  26.983   7.950
 5488POPC   C4B29950  13.432  27.001   7.650
 5489POPC   NC329951  24.468   2.751   9.450
 5489POPC   PO429952  24.465   2.750   9.150
 5489POPC   GL129953  24.500   2.794   8.850
 5489POPC   GL229954  24.352   2.708   8.850
 5489POPC   C1A29955  24.486   2.782   8.550
 5489POPC   D2A29956  24.469   2.738   8.250
 5489POPC   C3A29957  24.503   2.803   7.950
 5489POPC   C4A29958  24.492   2.735   7.650
 5489POPC   C1B29959  24.283   2.728   8.550
 5489POPC   C2B29960  24.288   2.671   8.250
 5489POPC   C3B29961  24.208   2.643   7.950
 5489POPC   C4B29962  24.240   2.685   7.650
 5490POPC   NC329963  35.335   2.742   9.450
 5490POPC   PO429964  35.316   2.786   9.150
 5490POPC   GL129965  35.323   2.758   8.850
 5490POPC   GL229966  35.457   2.695   8.850
 5490POPC   C1A29967  35.314   2.804   8.550
 5490POPC   D2A29968  35.340   2.742   8.250
 5490POPC   C3A29969  35.340   2.782   7.950
 5490POPC   C4A29970  35.335   2.728   7.650
 5490POPC   C1B29971  35.574   2.656   8.550
 5490POPC   C2B29972  35.580   2.659   8.250
 5490POPC   C3B29973  35.593   2.619   7.950
 5490POPC   C4B29974  35.591   2.680   7.650
 5491POPC   NC329975  36.152  44.622   9.450
 5491POPC   PO429976  36.145  44.657   9.150
 5491POPC   GL129977  36.120  44.618   8.850
 5491POPC   GL229978  36.176  44.738   8.850
 5491POPC   C1A29979  36.089  44.658   8.550
 5491POPC   D2A29980  36.082  44.643   8.250
 5491POPC   C3A29981  36.090  44.660   7.950
 5491POPC   C4A29982  36.105  44.657   7.650
 5491POPC   C1B29983  36.132  44.916   8.550
 5491POPC   C2B29984  36.177  44.958   8.250
 5491POPC   C3B29985  36.218  44.891   7.950
 5491POPC   C4B29986  36.126  44.940   7.650
 5492POPC   NC329987  34.571  21.348   9.450
 5492POPC   PO429988  34.560  21.402   9.150
 5492POPC   GL129989  34.620  21.417   8.850
 5492POPC   GL229990  34.682  21.487   8.850
 5492POPC   C1A29991  34.623  21.384   8.550
 5492POPC   D2A29992  34.621  21.411   8.250
 5492POPC   C3A29993  34.604  21.414   7.950
 5492POPC   C4A29994  34.618  21.369   7.650
 5492POPC   C1B29995  34.717  21.520   8.550
 5492POPC   C2B29996  34.783  21.585   8.250
 5492POPC   C3B29997  34.802  21.523   7.950
 5492POPC   C4B29998  34.777  21.580   7.650
 5493POPC   NC329999   9.003  42.339   9.450
 5493POPC   PO430000   8.927  42.323   9.150
 5493POPC   GL130001   9.000  42.317   8.850
 5493POPC   GL230002   9.122  42.427   8.850
 5493POPC   C1A30003   9.012  42.287   8.550
 5493POPC   D2A30004   8.981  42.330   8.250
 5493POPC   C3A30005   8.932  42.314   7.950
 5493POPC   C4A30006   8.954  42.339   7.650
 5493POPC   C1B30007   9.192  42.514   8.550
 5493POPC   C2B30008   9.224  42.467   8.250
 5493POPC   C3B30009   9.140  42.432   7.950
 5493POPC   C4B30010   9.166  42.499   7.650
 5494POPC   NC330011   1.986  26.842   9.450
 5494POPC   PO430012   2.011  26.843   9.150
 5494POPC   GL130013   2.020  26.853   8.850
 5494POPC   GL230014   1.938  26.760   8.850
 5494POPC   C1A30015   2.008  26.804   8.550
 5494POPC   D2A30016   2.032  26.799   8.250
 5494POPC   C3A30017   2.002  26.859   7.950
 5494POPC   C4A30018   1.999  26.856   7.650
 5494POPC   C1B30019   1.811  26.662   8.550
 5494POPC   C2B30020   1.792  26.604   8.250
 5494POPC   C3B30021   1.849  26.656   7.950
 5494POPC   C4B30022   1.789  26.655   7.650
 5495POPC   NC330023  13.598  11.275   9.450
 5495POPC   PO430024  13.675  11.294   9.150
 5495POPC   GL130025  13.635  11.262   8.850
 5495POPC   GL230026  13.644  11.184   8.850
 5495POPC   C1A30027  13.653  11.277   8.550
 5495POPC   D2A30028  13.655  11.296   8.250
 5495POPC   C3A30029  13.617  11.302   7.950
 5495POPC   C4A30030  13.594  11.254   7.650
 5495POPC   C1B30031  13.616  11.064   8.550
 5495POPC   C2B30032  13.583  11.087   8.250
 5495POPC   C3B30033  13.615  11.019   7.950
 5495POPC   C4B30034  13.592  11.039   7.650
 5496POPC   NC330035   3.577  20.600   9.450
 5496POPC   PO430036   3.541  20.657   9.150
 5496POPC   GL130037   3.513  20.610   8.850
 5496POPC   GL230038   3.429  20.651   8.850
 5496POPC   C1A30039   3.528  20.657   8.550
 5496POPC   D2A30040   3.574  20.602   8.250
 5496POPC   C3A30041   3.536  20.585   7.950
 5496POPC   C4A30042   3.542  20.596   7.650
 5496POPC   C1B30043   3.308  20.657   8.550
 5496POPC   C2B30044   3.312  20.624   8.250
 5496POPC   C3B30045   3.324  20.616   7.950
 5496POPC   C4B30046   3.299  20.625   7.650
 5497POPC   NC330047  28.417  17.485   9.450
 5497POPC   PO430048  28.328  17.472   9.150
 5497POPC   GL130049  28.402  17.494   8.850
 5497POPC   GL230050  28.288  17.527   8.850
 5497POPC   C1A30051  28.412  17.513   8.550
 5497POPC   D2A30052  28.362  17.507   8.250
 5497POPC   C3A30053  28.339  17.553   7.950
 5497POPC   C4A30054  28.354  17.525   7.650
 5497POPC   C1B30055  28.164  17.580   8.550
 5497POPC   C2B30056  28.166  17.585   8.250
 5497POPC   C3B30057  28.173  17.571   7.950
 5497POPC   C4B30058  28.130  17.585   7.650
 5498POPC   NC330059  36.889  15.914   9.450
 5498POPC   PO430060  36.918  15.945   9.150
 5498POPC   GL130061  36.867  15.921   8.850
 5498POPC   GL230062  36.873  16.072   8.850
 5498POPC   C1A30063  36.936  16.000   8.550
 5498POPC   D2A30064  36.859  15.905   8.250
 5498POPC   C3A30065  36.887  15.959   7.950
 5498POPC   C4A30066  36.873  15.986   7.650
 5498POPC   C1B30067  36.914  16.210   8.550
 5498POPC   C2B30068  36.839  16.217   8.250
 5498POPC   C3B30069  36.822  16.210   7.950
 5498POPC   C4B30070  36.899  16.237   7.650
 5499POPC   NC330071  33.071   4.353   9.450
 5499POPC   PO430072  33.015   4.345   9.150
 5499POPC   GL130073  33.041   4.341   8.850
 5499POPC   GL230074  33.107   4.423   8.850
 5499POPC   C1A30075  33.064   4.336   8.550
 5499POPC   D2A30076  33.065   4.280   8.250
 5499POPC   C3A30077  33.019   4.333   7.950
 5499POPC   C4A30078  33.009   4.365   7.650
 5499POPC   C1B30079  33.159   4.501   8.550
 5499POPC   C2B30080  33.115   4.534   8.250
 5499POPC   C3B30081  33.118   4.571   7.950
 5499POPC   C4B30082  33.141   4.544   7.650
 5500POPC   NC330083  19.050  31.502   9.450
 5500POPC   PO430084  19.094  31.512   9.150
 5500POPC   GL130085  19.092  31.491   8.850
 5500POPC   GL230086  19.006  31.318   8.850
 5500POPC   C1A30087  19.089  31.436   8.550
 5500POPC   D2A30088  19.088  31.453   8.250
 5500POPC   C3A30089  19.042  31.481   7.950
 5500POPC   C4A30090  19.032  31.496   7.650
 5500POPC   C1B30091  19.056  31.227   8.550
 5500POPC   C2B30092  19.025  31.270   8.250
 5500POPC   C3B30093  19.039  31.251   7.950
 5500POPC   C4B30094  19.076  31.269   7.650
 5501POPC   NC330095  39.202  26.816   9.450
 5501POPC   PO430096  39.195  26.812   9.150
 5501POPC   GL130097  39.208  26.861   8.850
 5501POPC   GL230098  39.096  26.828   8.850
 5501POPC   C1A30099  39.206  26.792   8.550
 5501POPC   D2A30100  39.208  26.867   8.250
 5501POPC   C3A30101  39.194  26.806   7.950
 5501POPC   C4A30102  39.212  26.801   7.650
 5501POPC   C1B30103  38.990  26.895   8.550
 5501POPC   C2B30104  38.969  26.870   8.250
 5501POPC   C3B30105  39.015  26.831   7.950
 5501POPC   C4B30106  38.992  26.877   7.650
 5502POPC   NC330107   4.344  40.799   9.450
 5502POPC   PO430108   4.282  40.757   9.150
 5502POPC   GL130109   4.316  40.780   8.850
 5502POPC   GL230110   4.289  40.675   8.850
 5502POPC   C1A30111   4.318  40.797   8.550
 5502POPC   D2A30112   4.319  40.751   8.250
 5502POPC   C3A30113   4.288  40.750   7.950
 5502POPC   C4A30114   4.366  40.757   7.650
 5502POPC   C1B30115   4.213  40.538   8.550
 5502POPC   C2B30116   4.187  40.545   8.250
 5502POPC   C3B30117   4.152  40.582   7.950
 5502POPC   C4B30118   4.148  40.554   7.650
 5503POPC   NC330119   6.626   5.056   9.450
 5503POPC   PO430120   6.618   5.111   9.150
 5503POPC   GL130121   6.625   5.087   8.850
 5503POPC   GL230122   6.587   5.127   8.850
 5503POPC   C1A30123   6.676   5.100   8.550
 5503POPC   D2A30124   6.638   5.140   8.250
 5503POPC   C3A30125   6.602   5.080   7.950
 5503POPC   C4A30126   6.675   5.074   7.650
 5503POPC   C1B30127   6.477   5.250   8.550
 5503POPC   C2B30128   6.417   5.270   8.250
 5503POPC   C3B30129   6.438   5.193   7.950
 5503POPC   C4B30130   6.405   5.204   7.650
 5504POPC   NC330131   8.957  30.655   9.450
 5504POPC   PO430132   8.933  30.723   9.150
 5504POPC   GL130133   9.006  30.735   8.850
 5504POPC   GL230134   8.928  30.609   8.850
 5504POPC   C1A30135   8.934  30.738   8.550
 5504POPC   D2A30136   9.012  30.693   8.250
 5504POPC   C3A30137   9.010  30.715   7.950
 5504POPC   C4A30138   8.967  30.727   7.650
 5504POPC   C1B30139   8.821  30.482   8.550
 5504POPC   C2B30140   8.837  30.478   8.250
 5504POPC   C3B30141   8.856  30.526   7.950
 5504POPC   C4B30142   8.860  30.457   7.650
 5505POPC   NC330143  24.501  25.303   9.450
 5505POPC   PO430144  24.538  25.236   9.150
 5505POPC   GL130145  24.501  25.312   8.850
 5505POPC   GL230146  24.584  25.195   8.850
 5505POPC   C1A30147  24.527  25.222   8.550
 5505POPC   D2A30148  24.466  25.275   8.250
 5505POPC   C3A30149  24.453  25.236   7.950
 5505POPC   C4A30150  24.520  25.287   7.650
 5505POPC   C1B30151  24.652  25.130   8.550
 5505POPC   C2B30152  24.719  25.091   8.250
 5505POPC   C3B30153  24.682  25.146   7.950
 5505POPC   C4B30154  24.698  25.110   7.650
 5506POPC   NC330155  44.658  43.155   9.450
 5506POPC   PO430156  44.698  43.120   9.150
 5506POPC   GL130157  44.708  43.126   8.850
 5506POPC   GL230158  44.567  43.168   8.850
 5506POPC   C1A30159  44.702  43.118   8.550
 5506POPC   D2A30160  44.703  43.150   8.250
 5506POPC   C3A30161  44.629  43.130   7.950
 5506POPC   C4A30162  44.702  43.159   7.650
 5506POPC   C1B30163  44.530  43.244   8.550
 5506POPC   C2B30164  44.532  43.301   8.250
 5506POPC   C3B30165  44.527  43.315   7.950
 5506POPC   C4B30166  44.456  43.290   7.650
 5507POPC   NC330167  20.659  22.121   9.450
 5507POPC   PO430168  20.575  22.204   9.150
 5507POPC   GL130169  20.657  22.169   8.850
 5507POPC   GL230170  20.561  22.036   8.850
 5507POPC   C1A30171  20.657  22.143   8.550
 5507POPC   D2A30172  20.615  22.147   8.250
 5507POPC   C3A30173  20.608  22.201   7.950
 5507POPC   C4A30174  20.581  22.209   7.650
 5507POPC   C1B30175  20.508  21.963   8.550
 5507POPC   C2B30176  20.540  21.926   8.250
 5507POPC   C3B30177  20.521  21.956   7.950
 5507POPC   C4B30178  20.464  21.964   7.650
 5508POPC   NC330179   3.569  41.596   9.450
 5508POPC   PO430180   3.582  41.554   9.150
 5508POPC   GL130181   3.527  41.549   8.850
 5508POPC   GL230182   3.652  41.665   8.850
 5508POPC   C1A30183   3.508  41.511   8.550
 5508POPC   D2A30184   3.516  41.544   8.250
 5508POPC   C3A30185   3.542  41.604   7.950
 5508POPC   C4A30186   3.583  41.600   7.650
 5508POPC   C1B30187   3.760  41.720   8.550
 5508POPC   C2B30188   3.720  41.658   8.250
 5508POPC   C3B30189   3.713  41.704   7.950
 5508POPC   C4B30190   3.711  41.660   7.650
 5509POPC   NC330191   8.158  32.243   9.450
 5509POPC   PO430192   8.234  32.211   9.150
 5509POPC   GL130193   8.176  32.225   8.850
 5509POPC   GL230194   8.105  32.207   8.850
 5509POPC   C1A30195   8.173  32.275   8.550
 5509POPC   D2A30196   8.162  32.278   8.250
 5509POPC   C3A30197   8.239  32.264   7.950
 5509POPC   C4A30198   8.229  32.228   7.650
 5509POPC   C1B30199   7.985  32.158   8.550
 5509POPC   C2B30200   7.970  32.210   8.250
 5509POPC   C3B30201   7.964  32.173   7.950
 5509POPC   C4B30202   7.944  32.164   7.650
 5510POPC   NC330203  16.723  31.450   9.450
 5510POPC   PO430204  16.706  31.505   9.150
 5510POPC   GL130205  16.762  31.437   8.850
 5510POPC   GL230206  16.819  31.317   8.850
 5510POPC   C1A30207  16.777  31.453   8.550
 5510POPC   D2A30208  16.759  31.466   8.250
 5510POPC   C3A30209  16.707  31.445   7.950
 5510POPC   C4A30210  16.700  31.519   7.650
 5510POPC   C1B30211  16.845  31.272   8.550
 5510POPC   C2B30212  16.839  31.238   8.250
 5510POPC   C3B30213  16.884  31.272   7.950
 5510POPC   C4B30214  16.868  31.266   7.650
 5511POPC   NC330215   5.915   5.884   9.450
 5511POPC   PO430216   5.836   5.896   9.150
 5511POPC   GL130217   5.845   5.909   8.850
 5511POPC   GL230218   5.803   5.771   8.850
 5511POPC   C1A30219   5.825   5.832   8.550
 5511POPC   D2A30220   5.914   5.825   8.250
 5511POPC   C3A30221   5.888   5.880   7.950
 5511POPC   C4A30222   5.850   5.860   7.650
 5511POPC   C1B30223   5.788   5.634   8.550
 5511POPC   C2B30224   5.781   5.617   8.250
 5511POPC   C3B30225   5.765   5.580   7.950
 5511POPC   C4B30226   5.789   5.601   7.650
 5512POPC   NC330227  19.077  43.904   9.450
 5512POPC   PO430228  19.024  43.849   9.150
 5512POPC   GL130229  19.105  43.856   8.850
 5512POPC   GL230230  19.063  43.783   8.850
 5512POPC   C1A30231  19.031  43.930   8.550
 5512POPC   D2A30232  19.009  43.887   8.250
 5512POPC   C3A30233  19.038  43.886   7.950
 5512POPC   C4A30234  19.079  43.886   7.650
 5512POPC   C1B30235  19.064  43.599   8.550
 5512POPC   C2B30236  18.981  43.638   8.250
 5512POPC   C3B30237  18.993  43.615   7.950
 5512POPC   C4B30238  18.995  43.641   7.650
 5513POPC   NC330239   8.969  29.131   9.450
 5513POPC   PO430240   8.959  29.131   9.150
 5513POPC   GL130241   8.995  29.159   8.850
 5513POPC   GL230242   8.894  29.119   8.850
 5513POPC   C1A30243   8.979  29.156   8.550
 5513POPC   D2A30244   8.928  29.176   8.250
 5513POPC   C3A30245   8.943  29.112   7.950
 5513POPC   C4A30246   8.994  29.138   7.650
 5513POPC   C1B30247   8.684  29.187   8.550
 5513POPC   C2B30248   8.749  29.114   8.250
 5513POPC   C3B30249   8.703  29.184   7.950
 5513POPC   C4B30250   8.771  29.168   7.650
 5514POPC   NC330251  32.272  17.539   9.450
 5514POPC   PO430252  32.245  17.516   9.150
 5514POPC   GL130253  32.218  17.493   8.850
 5514POPC   GL230254  32.163  17.640   8.850
 5514POPC   C1A30255  32.202  17.460   8.550
 5514POPC   D2A30256  32.261  17.520   8.250
 5514POPC   C3A30257  32.223  17.534   7.950
 5514POPC   C4A30258  32.204  17.505   7.650
 5514POPC   C1B30259  32.100  17.641   8.550
 5514POPC   C2B30260  32.059  17.709   8.250
 5514POPC   C3B30261  32.088  17.644   7.950
 5514POPC   C4B30262  32.038  17.698   7.650
 5515POPC   NC330263   5.898  12.084   9.450
 5515POPC   PO430264   5.824  12.035   9.150
 5515POPC   GL130265   5.824  12.046   8.850
 5515POPC   GL230266   5.873  12.175   8.850
 5515POPC   C1A30267   5.879  12.035   8.550
 5515POPC   D2A30268   5.828  12.090   8.250
 5515POPC   C3A30269   5.884  12.065   7.950
 5515POPC   C4A30270   5.851  12.048   7.650
 5515POPC   C1B30271   5.865  12.281   8.550
 5515POPC   C2B30272   5.812  12.298   8.250
 5515POPC   C3B30273   5.862  12.330   7.950
 5515POPC   C4B30274   5.816  12.364   7.650
 5516POPC   NC330275   6.658  11.294   9.450
 5516POPC   PO430276   6.692  11.295   9.150
 5516POPC   GL130277   6.650  11.305   8.850
 5516POPC   GL230278   6.746  11.239   8.850
 5516POPC   C1A30279   6.692  11.268   8.550
 5516POPC   D2A30280   6.637  11.349   8.250
 5516POPC   C3A30281   6.604  11.324   7.950
 5516POPC   C4A30282   6.617  11.254   7.650
 5516POPC   C1B30283   6.777  11.068   8.550
 5516POPC   C2B30284   6.767  11.129   8.250
 5516POPC   C3B30285   6.840  11.136   7.950
 5516POPC   C4B30286   6.845  11.129   7.650
 5517POPC   NC330287  15.920  43.128   9.450
 5517POPC   PO430288  15.999  43.129   9.150
 5517POPC   GL130289  15.942  43.062   8.850
 5517POPC   GL230290  16.007  43.263   8.850
 5517POPC   C1A30291  15.937  43.144   8.550
 5517POPC   D2A30292  15.968  43.069   8.250
 5517POPC   C3A30293  15.999  43.141   7.950
 5517POPC   C4A30294  15.959  43.073   7.650
 5517POPC   C1B30295  16.017  43.387   8.550
 5517POPC   C2B30296  16.043  43.351   8.250
 5517POPC   C3B30297  15.998  43.302   7.950
 5517POPC   C4B30298  16.006  43.335   7.650
 5518POPC   NC330299  30.741   5.917   9.450
 5518POPC   PO430300  30.717   5.881   9.150
 5518POPC   GL130301  30.711   5.827   8.850
 5518POPC   GL230302  30.583   5.859   8.850
 5518POPC   C1A30303  30.709   5.856   8.550
 5518POPC   D2A30304  30.722   5.822   8.250
 5518POPC   C3A30305  30.697   5.821   7.950
 5518POPC   C4A30306  30.656   5.841   7.650
 5518POPC   C1B30307  30.442   5.881   8.550
 5518POPC   C2B30308  30.421   5.818   8.250
 5518POPC   C3B30309  30.422   5.797   7.950
 5518POPC   C4B30310  30.460   5.802   7.650
 5519POPC   NC330311  43.870   8.149   9.450
 5519POPC   PO430312  43.909   8.190   9.150
 5519POPC   GL130313  43.908   8.201   8.850
 5519POPC   GL230314  43.745   8.268   8.850
 5519POPC   C1A30315  43.910   8.218   8.550
 5519POPC   D2A30316  43.869   8.239   8.250
 5519POPC   C3A30317  43.878   8.217   7.950
 5519POPC   C4A30318  43.858   8.209   7.650
 5519POPC   C1B30319  43.620   8.325   8.550
 5519POPC   C2B30320  43.655   8.332   8.250
 5519POPC   C3B30321  43.631   8.293   7.950
 5519POPC   C4B30322  43.620   8.268   7.650
 5520POPC   NC330323  26.826  23.688   9.450
 5520POPC   PO430324  26.832  23.745   9.150
 5520POPC   GL130325  26.850  23.720   8.850
 5520POPC   GL230326  26.987  23.723   8.850
 5520POPC   C1A30327  26.863  23.692   8.550
 5520POPC   D2A30328  26.846  23.674   8.250
 5520POPC   C3A30329  26.805  23.669   7.950
 5520POPC   C4A30330  26.798  23.668   7.650
 5520POPC   C1B30331  27.063  23.754   8.550
 5520POPC   C2B30332  27.054  23.765   8.250
 5520POPC   C3B30333  27.109  23.815   7.950
 5520POPC   C4B30334  27.048  23.790   7.650
 5521POPC   NC330335  12.820  33.011   9.450
 5521POPC   PO430336  12.831  33.046   9.150
 5521POPC   GL130337  12.876  33.057   8.850
 5521POPC   GL230338  12.924  33.018   8.850
 5521POPC   C1A30339  12.835  33.020   8.550
 5521POPC   D2A30340  12.865  32.983   8.250
 5521POPC   C3A30341  12.885  33.013   7.950
 5521POPC   C4A30342  12.873  33.022   7.650
 5521POPC   C1B30343  13.048  33.103   8.550
 5521POPC   C2B30344  13.041  33.083   8.250
 5521POPC   C3B30345  13.126  33.133   7.950
 5521POPC   C4B30346  13.135  33.049   7.650
 5522POPC   NC330347  37.694  38.412   9.450
 5522POPC   PO430348  37.717  38.500   9.150
 5522POPC   GL130349  37.646  38.434   8.850
 5522POPC   GL230350  37.604  38.531   8.850
 5522POPC   C1A30351  37.664  38.415   8.550
 5522POPC   D2A30352  37.699  38.409   8.250
 5522POPC   C3A30353  37.715  38.486   7.950
 5522POPC   C4A30354  37.665  38.413   7.650
 5522POPC   C1B30355  37.595  38.723   8.550
 5522POPC   C2B30356  37.606  38.664   8.250
 5522POPC   C3B30357  37.671  38.709   7.950
 5522POPC   C4B30358  37.649  38.715   7.650
 5523POPC   NC330359  23.701  26.803   9.450
 5523POPC   PO430360  23.709  26.845   9.150
 5523POPC   GL130361  23.682  26.864   8.850
 5523POPC   GL230362  23.792  26.910   8.850
 5523POPC   C1A30363  23.743  26.835   8.550
 5523POPC   D2A30364  23.717  26.824   8.250
 5523POPC   C3A30365  23.699  26.777   7.950
 5523POPC   C4A30366  23.748  26.819   7.650
 5523POPC   C1B30367  23.782  27.037   8.550
 5523POPC   C2B30368  23.816  27.019   8.250
 5523POPC   C3B30369  23.817  27.019   7.950
 5523POPC   C4B30370  23.861  27.056   7.650
 5524POPC   NC330371  44.620  33.824   9.450
 5524POPC   PO430372  44.621  33.778   9.150
 5524POPC   GL130373  44.625  33.816   8.850
 5524POPC   GL230374  44.518  33.717   8.850
 5524POPC   C1A30375  44.697  33.834   8.550
 5524POPC   D2A30376  44.708  33.783   8.250
 5524POPC   C3A30377  44.695  33.792   7.950
 5524POPC   C4A30378  44.614  33.793   7.650
 5524POPC   C1B30379  44.441  33.711   8.550
 5524POPC   C2B30380  44.404  33.692   8.250
 5524POPC   C3B30381  44.379  33.735   7.950
 5524POPC   C4B30382  44.434  33.732   7.650
 5525POPC   NC330383  15.933  16.729   9.450
 5525POPC   PO430384  15.965  16.691   9.150
 5525POPC   GL130385  15.914  16.759   8.850
 5525POPC   GL230386  16.054  16.744   8.850
 5525POPC   C1A30387  15.914  16.733   8.550
 5525POPC   D2A30388  15.933  16.760   8.250
 5525POPC   C3A30389  15.909  16.781   7.950
 5525POPC   C4A30390  15.909  16.771   7.650
 5525POPC   C1B30391  16.216  16.718   8.550
 5525POPC   C2B30392  16.228  16.722   8.250
 5525POPC   C3B30393  16.170  16.717   7.950
 5525POPC   C4B30394  16.188  16.711   7.650
 5526POPC   NC330395   1.979  18.238   9.450
 5526POPC   PO430396   2.036  18.263   9.150
 5526POPC   GL130397   2.018  18.315   8.850
 5526POPC   GL230398   2.087  18.347   8.850
 5526POPC   C1A30399   1.972  18.257   8.550
 5526POPC   D2A30400   2.011  18.279   8.250
 5526POPC   C3A30401   1.997  18.270   7.950
 5526POPC   C4A30402   2.025  18.308   7.650
 5526POPC   C1B30403   2.183  18.446   8.550
 5526POPC   C2B30404   2.139  18.451   8.250
 5526POPC   C3B30405   2.163  18.455   7.950
 5526POPC   C4B30406   2.125  18.498   7.650
 5527POPC   NC330407  21.394   4.306   9.450
 5527POPC   PO430408  21.341   4.283   9.150
 5527POPC   GL130409  21.352   4.295   8.850
 5527POPC   GL230410  21.451   4.266   8.850
 5527POPC   C1A30411  21.399   4.325   8.550
 5527POPC   D2A30412  21.404   4.271   8.250
 5527POPC   C3A30413  21.343   4.339   7.950
 5527POPC   C4A30414  21.341   4.319   7.650
 5527POPC   C1B30415  21.613   4.180   8.550
 5527POPC   C2B30416  21.608   4.168   8.250
 5527POPC   C3B30417  21.616   4.214   7.950
 5527POPC   C4B30418  21.592   4.133   7.650
 5528POPC   NC330419  17.550  13.620   9.450
 5528POPC   PO430420  17.517  13.621   9.150
 5528POPC   GL130421  17.495  13.589   8.850
 5528POPC   GL230422  17.575  13.704   8.850
 5528POPC   C1A30423  17.459  13.626   8.550
 5528POPC   D2A30424  17.485  13.651   8.250
 5528POPC   C3A30425  17.539  13.647   7.950
 5528POPC   C4A30426  17.550  13.599   7.650
 5528POPC   C1B30427  17.765  13.704   8.550
 5528POPC   C2B30428  17.734  13.743   8.250
 5528POPC   C3B30429  17.776  13.759   7.950
 5528POPC   C4B30430  17.701  13.706   7.650
 5529POPC   NC330431  11.265  24.440   9.450
 5529POPC   PO430432  11.292  24.488   9.150
 5529POPC   GL130433  11.283  24.526   8.850
 5529POPC   GL230434  11.266  24.404   8.850
 5529POPC   C1A30435  11.333  24.466   8.550
 5529POPC   D2A30436  11.307  24.504   8.250
 5529POPC   C3A30437  11.286  24.482   7.950
 5529POPC   C4A30438  11.342  24.520   7.650
 5529POPC   C1B30439  11.222  24.260   8.550
 5529POPC   C2B30440  11.165  24.212   8.250
 5529POPC   C3B30441  11.230  24.269   7.950
 5529POPC   C4B30442  11.204  24.286   7.650
 5530POPC   NC330443  24.494  43.098   9.450
 5530POPC   PO430444  24.537  43.095   9.150
 5530POPC   GL130445  24.478  43.096   8.850
 5530POPC   GL230446  24.640  43.093   8.850
 5530POPC   C1A30447  24.513  43.112   8.550
 5530POPC   D2A30448  24.523  43.159   8.250
 5530POPC   C3A30449  24.466  43.158   7.950
 5530POPC   C4A30450  24.488  43.069   7.650
 5530POPC   C1B30451  24.693  43.141   8.550
 5530POPC   C2B30452  24.779  43.097   8.250
 5530POPC   C3B30453  24.710  43.074   7.950
 5530POPC   C4B30454  24.716  43.107   7.650
 5531POPC   NC330455  44.619  40.017   9.450
 5531POPC   PO430456  44.624  39.962   9.150
 5531POPC   GL130457  44.695  40.033   8.850
 5531POPC   GL230458  44.552  39.988   8.850
 5531POPC   C1A30459  44.711  39.966   8.550
 5531POPC   D2A30460  44.657  39.978   8.250
 5531POPC   C3A30461  44.633  40.014   7.950
 5531POPC   C4A30462  44.674  40.027   7.650
 5531POPC   C1B30463  44.471  39.947   8.550
 5531POPC   C2B30464  44.408  39.953   8.250
 5531POPC   C3B30465  44.400  39.943   7.950
 5531POPC   C4B30466  44.393  39.952   7.650
 5532POPC   NC330467  29.917  43.894   9.450
 5532POPC   PO430468  29.915  43.855   9.150
 5532POPC   GL130469  29.873  43.879   8.850
 5532POPC   GL230470  29.993  43.778   8.850
 5532POPC   C1A30471  29.871  43.837   8.550
 5532POPC   D2A30472  29.942  43.866   8.250
 5532POPC   C3A30473  29.874  43.885   7.950
 5532POPC   C4A30474  29.905  43.891   7.650
 5532POPC   C1B30475  30.007  43.640   8.550
 5532POPC   C2B30476  29.950  43.650   8.250
 5532POPC   C3B30477  29.994  43.616   7.950
 5532POPC   C4B30478  29.991  43.664   7.650
 5533POPC   NC330479  33.021  19.029   9.450
 5533POPC   PO430480  33.055  19.030   9.150
 5533POPC   GL130481  33.071  19.100   8.850
 5533POPC   GL230482  32.882  18.996   8.850
 5533POPC   C1A30483  32.993  19.031   8.550
 5533POPC   D2A30484  33.038  19.068   8.250
 5533POPC   C3A30485  33.074  19.095   7.950
 5533POPC   C4A30486  32.982  19.087   7.650
 5533POPC   C1B30487  32.820  18.947   8.550
 5533POPC   C2B30488  32.769  18.926   8.250
 5533POPC   C3B30489  32.811  18.926   7.950
 5533POPC   C4B30490  32.858  18.891   7.650
 5534POPC   NC330491   7.465  26.081   9.450
 5534POPC   PO430492   7.426  25.993   9.150
 5534POPC   GL130493   7.378  26.080   8.850
 5534POPC   GL230494   7.408  26.126   8.850
 5534POPC   C1A30495   7.422  25.994   8.550
 5534POPC   D2A30496   7.422  26.086   8.250
 5534POPC   C3A30497   7.431  25.999   7.950
 5534POPC   C4A30498   7.373  25.992   7.650
 5534POPC   C1B30499   7.455  26.327   8.550
 5534POPC   C2B30500   7.427  26.289   8.250
 5534POPC   C3B30501   7.473  26.288   7.950
 5534POPC   C4B30502   7.517  26.334   7.650
 5535POPC   NC330503   8.950  12.874   9.450
 5535POPC   PO430504   8.987  12.819   9.150
 5535POPC   GL130505   8.933  12.851   8.850
 5535POPC   GL230506   9.125  12.830   8.850
 5535POPC   C1A30507   8.990  12.887   8.550
 5535POPC   D2A30508   8.953  12.889   8.250
 5535POPC   C3A30509   8.938  12.819   7.950
 5535POPC   C4A30510   8.981  12.893   7.650
 5535POPC   C1B30511   9.170  12.736   8.550
 5535POPC   C2B30512   9.234  12.803   8.250
 5535POPC   C3B30513   9.246  12.746   7.950
 5535POPC   C4B30514   9.224  12.822   7.650
 5536POPC   NC330515  15.161  22.175   9.450
 5536POPC   PO430516  15.153  22.195   9.150
 5536POPC   GL130517  15.200  22.185   8.850
 5536POPC   GL230518  15.059  22.236   8.850
 5536POPC   C1A30519  15.229  22.193   8.550
 5536POPC   D2A30520  15.130  22.203   8.250
 5536POPC   C3A30521  15.218  22.206   7.950
 5536POPC   C4A30522  15.221  22.138   7.650
 5536POPC   C1B30523  14.980  22.301   8.550
 5536POPC   C2B30524  14.936  22.276   8.250
 5536POPC   C3B30525  14.922  22.258   7.950
 5536POPC   C4B30526  14.904  22.223   7.650
 5537POPC   NC330527  28.412  15.152   9.450
 5537POPC   PO430528  28.359  15.178   9.150
 5537POPC   GL130529  28.376  15.225   8.850
 5537POPC   GL230530  28.400  15.021   8.850
 5537POPC   C1A30531  28.321  15.175   8.550
 5537POPC   D2A30532  28.396  15.224   8.250
 5537POPC   C3A30533  28.323  15.215   7.950
 5537POPC   C4A30534  28.400  15.134   7.650
 5537POPC   C1B30535  28.370  14.943   8.550
 5537POPC   C2B30536  28.372  14.962   8.250
 5537POPC   C3B30537  28.393  14.885   7.950
 5537POPC   C4B30538  28.386  14.884   7.650
 5538POPC   NC330539  31.428  34.543   9.450
 5538POPC   PO430540  31.475  34.584   9.150
 5538POPC   GL130541  31.460  34.566   8.850
 5538POPC   GL230542  31.331  34.555   8.850
 5538POPC   C1A30543  31.434  34.605   8.550
 5538POPC   D2A30544  31.450  34.598   8.250
 5538POPC   C3A30545  31.443  34.544   7.950
 5538POPC   C4A30546  31.498  34.617   7.650
 5538POPC   C1B30547  31.245  34.416   8.550
 5538POPC   C2B30548  31.204  34.496   8.250
 5538POPC   C3B30549  31.261  34.425   7.950
 5538POPC   C4B30550  31.242  34.445   7.650
 5539POPC   NC330551  22.892  13.622   9.450
 5539POPC   PO430552  22.896  13.628   9.150
 5539POPC   GL130553  22.909  13.645   8.850
 5539POPC   GL230554  23.042  13.573   8.850
 5539POPC   C1A30555  22.937  13.658   8.550
 5539POPC   D2A30556  22.976  13.659   8.250
 5539POPC   C3A30557  22.938  13.625   7.950
 5539POPC   C4A30558  22.916  13.628   7.650
 5539POPC   C1B30559  23.158  13.622   8.550
 5539POPC   C2B30560  23.206  13.645   8.250
 5539POPC   C3B30561  23.226  13.597   7.950
 5539POPC   C4B30562  23.217  13.609   7.650
 5540POPC   NC330563   2.007  30.706   9.450
 5540POPC   PO430564   2.020  30.649   9.150
 5540POPC   GL130565   2.004  30.678   8.850
 5540POPC   GL230566   2.000  30.602   8.850
 5540POPC   C1A30567   1.986  30.655   8.550
 5540POPC   D2A30568   2.023  30.654   8.250
 5540POPC   C3A30569   1.984  30.711   7.950
 5540POPC   C4A30570   1.993  30.691   7.650
 5540POPC   C1B30571   1.931  30.481   8.550
 5540POPC   C2B30572   1.942  30.481   8.250
 5540POPC   C3B30573   2.006  30.461   7.950
 5540POPC   C4B30574   1.932  30.406   7.650
 5541POPC   NC330575  32.212  22.888   9.450
 5541POPC   PO430576  32.220  22.940   9.150
 5541POPC   GL130577  32.224  22.897   8.850
 5541POPC   GL230578  32.377  23.044   8.850
 5541POPC   C1A30579  32.286  22.906   8.550
 5541POPC   D2A30580  32.249  22.958   8.250
 5541POPC   C3A30581  32.208  22.940   7.950
 5541POPC   C4A30582  32.253  22.899   7.650
 5541POPC   C1B30583  32.465  23.152   8.550
 5541POPC   C2B30584  32.434  23.094   8.250
 5541POPC   C3B30585  32.438  23.093   7.950
 5541POPC   C4B30586  32.428  23.079   7.650
 5542POPC   NC330587   2.031  22.903   9.450
 5542POPC   PO430588   1.957  22.960   9.150
 5542POPC   GL130589   1.947  22.963   8.850
 5542POPC   GL230590   1.878  22.846   8.850
 5542POPC   C1A30591   1.959  22.919   8.550
 5542POPC   D2A30592   1.996  22.895   8.250
 5542POPC   C3A30593   1.941  22.977   7.950
 5542POPC   C4A30594   2.010  22.931   7.650
 5542POPC   C1B30595   1.797  22.720   8.550
 5542POPC   C2B30596   1.820  22.754   8.250
 5542POPC   C3B30597   1.855  22.742   7.950
 5542POPC   C4B30598   1.832  22.715   7.650
 5543POPC   NC330599  16.776  18.271   9.450
 5543POPC   PO430600  16.687  18.317   9.150
 5543POPC   GL130601  16.707  18.290   8.850
 5543POPC   GL230602  16.630  18.262   8.850
 5543POPC   C1A30603  16.714  18.274   8.550
 5543POPC   D2A30604  16.749  18.270   8.250
 5543POPC   C3A30605  16.692  18.266   7.950
 5543POPC   C4A30606  16.713  18.317   7.650
 5543POPC   C1B30607  16.553  18.109   8.550
 5543POPC   C2B30608  16.509  18.153   8.250
 5543POPC   C3B30609  16.520  18.140   7.950
 5543POPC   C4B30610  16.480  18.111   7.650
 5544POPC   NC330611  33.059  43.889   9.450
 5544POPC   PO430612  33.071  43.926   9.150
 5544POPC   GL130613  33.010  43.863   8.850
 5544POPC   GL230614  33.122  43.846   8.850
 5544POPC   C1A30615  33.055  43.933   8.550
 5544POPC   D2A30616  33.064  43.852   8.250
 5544POPC   C3A30617  33.027  43.868   7.950
 5544POPC   C4A30618  32.975  43.850   7.650
 5544POPC   C1B30619  33.227  43.802   8.550
 5544POPC   C2B30620  33.246  43.741   8.250
 5544POPC   C3B30621  33.264  43.731   7.950
 5544POPC   C4B30622  33.208  43.789   7.650
 5545POPC   NC330623  16.777   7.432   9.450
 5545POPC   PO430624  16.712   7.444   9.150
 5545POPC   GL130625  16.757   7.458   8.850
 5545POPC   GL230626  16.803   7.339   8.850
 5545POPC   C1A30627  16.769   7.459   8.550
 5545POPC   D2A30628  16.751   7.456   8.250
 5545POPC   C3A30629  16.776   7.422   7.950
 5545POPC   C4A30630  16.762   7.428   7.650
 5545POPC   C1B30631  16.934   7.339   8.550
 5545POPC   C2B30632  16.956   7.340   8.250
 5545POPC   C3B30633  16.935   7.284   7.950
 5545POPC   C4B30634  16.975   7.257   7.650
 5546POPC   NC330635  18.310  34.535   9.450
 5546POPC   PO430636  18.306  34.575   9.150
 5546POPC   GL130637  18.277  34.615   8.850
 5546POPC   GL230638  18.374  34.537   8.850
 5546POPC   C1A30639  18.241  34.580   8.550
 5546POPC   D2A30640  18.254  34.539   8.250
 5546POPC   C3A30641  18.304  34.550   7.950
 5546POPC   C4A30642  18.274  34.579   7.650
 5546POPC   C1B30643  18.534  34.506   8.550
 5546POPC   C2B30644  18.458  34.509   8.250
 5546POPC   C3B30645  18.505  34.428   7.950
 5546POPC   C4B30646  18.531  34.421   7.650
 5547POPC   NC330647  42.352   8.982   9.450
 5547POPC   PO430648  42.362   8.979   9.150
 5547POPC   GL130649  42.294   8.993   8.850
 5547POPC   GL230650  42.435   8.957   8.850
 5547POPC   C1A30651  42.305   9.011   8.550
 5547POPC   D2A30652  42.381   9.005   8.250
 5547POPC   C3A30653  42.367   8.962   7.950
 5547POPC   C4A30654  42.323   8.932   7.650
 5547POPC   C1B30655  42.534   9.027   8.550
 5547POPC   C2B30656  42.595   9.035   8.250
 5547POPC   C3B30657  42.548   9.012   7.950
 5547POPC   C4B30658  42.622   9.008   7.650
 5548POPC   NC330659   0.451  22.899   9.450
 5548POPC   PO430660   0.396  22.959   9.150
 5548POPC   GL130661   0.464  22.960   8.850
 5548POPC   GL230662   0.451  23.066   8.850
 5548POPC   C1A30663   0.419  22.906   8.550
 5548POPC   D2A30664   0.454  22.897   8.250
 5548POPC   C3A30665   0.397  22.933   7.950
 5548POPC   C4A30666   0.417  22.974   7.650
 5548POPC   C1B30667   0.546  23.187   8.550
 5548POPC   C2B30668   0.515  23.195   8.250
 5548POPC   C3B30669   0.520  23.196   7.950
 5548POPC   C4B30670   0.538  23.132   7.650
 5549POPC   NC330671  42.344  36.167   9.450
 5549POPC   PO430672  42.364  36.164   9.150
 5549POPC   GL130673  42.367  36.142   8.850
 5549POPC   GL230674  42.296  36.224   8.850
 5549POPC   C1A30675  42.310  36.137   8.550
 5549POPC   D2A30676  42.306  36.114   8.250
 5549POPC   C3A30677  42.320  36.173   7.950
 5549POPC   C4A30678  42.313  36.127   7.650
 5549POPC   C1B30679  42.132  36.337   8.550
 5549POPC   C2B30680  42.132  36.302   8.250
 5549POPC   C3B30681  42.115  36.340   7.950
 5549POPC   C4B30682  42.178  36.275   7.650
 5550POPC   NC330683  32.240   8.980   9.450
 5550POPC   PO430684  32.263   8.938   9.150
 5550POPC   GL130685  32.263   8.981   8.850
 5550POPC   GL230686  32.391   8.932   8.850
 5550POPC   C1A30687  32.273   8.968   8.550
 5550POPC   D2A30688  32.236   8.962   8.250
 5550POPC   C3A30689  32.233   8.979   7.950
 5550POPC   C4A30690  32.286   8.950   7.650
 5550POPC   C1B30691  32.473   8.952   8.550
 5550POPC   C2B30692  32.536   8.933   8.250
 5550POPC   C3B30693  32.503   8.933   7.950
 5550POPC   C4B30694  32.521   9.003   7.650
 5551POPC   NC330695  40.820  31.483   9.450
 5551POPC   PO430696  40.757  31.507   9.150
 5551POPC   GL130697  40.792  31.437   8.850
 5551POPC   GL230698  40.675  31.429   8.850
 5551POPC   C1A30699  40.807  31.478   8.550
 5551POPC   D2A30700  40.738  31.505   8.250
 5551POPC   C3A30701  40.811  31.423   7.950
 5551POPC   C4A30702  40.785  31.502   7.650
 5551POPC   C1B30703  40.605  31.356   8.550
 5551POPC   C2B30704  40.593  31.367   8.250
 5551POPC   C3B30705  40.579  31.290   7.950
 5551POPC   C4B30706  40.591  31.387   7.650
 5552POPC   NC330707  24.453   4.326   9.450
 5552POPC   PO430708  24.504   4.329   9.150
 5552POPC   GL130709  24.535   4.357   8.850
 5552POPC   GL230710  24.610   4.381   8.850
 5552POPC   C1A30711  24.494   4.339   8.550
 5552POPC   D2A30712  24.488   4.274   8.250
 5552POPC   C3A30713  24.507   4.312   7.950
 5552POPC   C4A30714  24.528   4.295   7.650
 5552POPC   C1B30715  24.720   4.452   8.550
 5552POPC   C2B30716  24.730   4.486   8.250
 5552POPC   C3B30717  24.713   4.466   7.950
 5552POPC   C4B30718  24.692   4.466   7.650
 5553POPC   NC330719  16.781   6.602   9.450
 5553POPC   PO430720  16.730   6.599   9.150
 5553POPC   GL130721  16.755   6.635   8.850
 5553POPC   GL230722  16.594   6.662   8.850
 5553POPC   C1A30723  16.739   6.633   8.550
 5553POPC   D2A30724  16.720   6.636   8.250
 5553POPC   C3A30725  16.745   6.657   7.950
 5553POPC   C4A30726  16.720   6.603   7.650
 5553POPC   C1B30727  16.478   6.755   8.550
 5553POPC   C2B30728  16.527   6.712   8.250
 5553POPC   C3B30729  16.504   6.731   7.950
 5553POPC   C4B30730  16.476   6.706   7.650
 5554POPC   NC330731   1.953   0.484   9.450
 5554POPC   PO430732   1.956   0.464   9.150
 5554POPC   GL130733   1.974   0.416   8.850
 5554POPC   GL230734   1.886   0.332   8.850
 5554POPC   C1A30735   1.991   0.442   8.550
 5554POPC   D2A30736   1.990   0.401   8.250
 5554POPC   C3A30737   2.023   0.451   7.950
 5554POPC   C4A30738   1.955   0.477   7.650
 5554POPC   C1B30739   1.781   0.252   8.550
 5554POPC   C2B30740   1.801   0.343   8.250
 5554POPC   C3B30741   1.805   0.284   7.950
 5554POPC   C4B30742   1.798   0.296   7.650
 5555POPC   NC330743  37.669  32.238   9.450
 5555POPC   PO430744  37.642  32.286   9.150
 5555POPC   GL130745  37.704  32.250   8.850
 5555POPC   GL230746  37.752  32.146   8.850
 5555POPC   C1A30747  37.708  32.231   8.550
 5555POPC   D2A30748  37.648  32.211   8.250
 5555POPC   C3A30749  37.703  32.243   7.950
 5555POPC   C4A30750  37.717  32.242   7.650
 5555POPC   C1B30751  37.819  32.085   8.550
 5555POPC   C2B30752  37.868  32.005   8.250
 5555POPC   C3B30753  37.833  32.062   7.950
 5555POPC   C4B30754  37.872  32.052   7.650
 5556POPC   NC330755  37.665  24.500   9.450
 5556POPC   PO430756  37.722  24.517   9.150
 5556POPC   GL130757  37.633  24.450   8.850
 5556POPC   GL230758  37.835  24.478   8.850
 5556POPC   C1A30759  37.678  24.471   8.550
 5556POPC   D2A30760  37.674  24.534   8.250
 5556POPC   C3A30761  37.677  24.478   7.950
 5556POPC   C4A30762  37.717  24.521   7.650
 5556POPC   C1B30763  37.936  24.426   8.550
 5556POPC   C2B30764  37.910  24.433   8.250
 5556POPC   C3B30765  37.969  24.392   7.950
 5556POPC   C4B30766  37.877  24.452   7.650
 5557POPC   NC330767   1.210  16.770   9.450
 5557POPC   PO430768   1.259  16.691   9.150
 5557POPC   GL130769   1.206  16.746   8.850
 5557POPC   GL230770   1.135  16.630   8.850
 5557POPC   C1A30771   1.168  16.692   8.550
 5557POPC   D2A30772   1.192  16.770   8.250
 5557POPC   C3A30773   1.195  16.732   7.950
 5557POPC   C4A30774   1.259  16.707   7.650
 5557POPC   C1B30775   1.148  16.475   8.550
 5557POPC   C2B30776   1.108  16.525   8.250
 5557POPC   C3B30777   1.087  16.484   7.950
 5557POPC   C4B30778   1.164  16.520   7.650
 5558POPC   NC330779   8.148  14.401   9.450
 5558POPC   PO430780   8.232  14.381   9.150
 5558POPC   GL130781   8.216  14.427   8.850
 5558POPC   GL230782   8.318  14.405   8.850
 5558POPC   C1A30783   8.233  14.389   8.550
 5558POPC   D2A30784   8.218  14.366   8.250
 5558POPC   C3A30785   8.242  14.363   7.950
 5558POPC   C4A30786   8.219  14.432   7.650
 5558POPC   C1B30787   8.420  14.358   8.550
 5558POPC   C2B30788   8.407  14.334   8.250
 5558POPC   C3B30789   8.419  14.327   7.950
 5558POPC   C4B30790   8.394  14.359   7.650
 5559POPC   NC330791  22.907  19.088   9.450
 5559POPC   PO430792  22.909  19.060   9.150
 5559POPC   GL130793  22.910  19.054   8.850
 5559POPC   GL230794  22.777  19.137   8.850
 5559POPC   C1A30795  22.904  19.032   8.550
 5559POPC   D2A30796  22.978  19.035   8.250
 5559POPC   C3A30797  22.946  19.021   7.950
 5559POPC   C4A30798  22.930  19.019   7.650
 5559POPC   C1B30799  22.659  19.118   8.550
 5559POPC   C2B30800  22.719  19.145   8.250
 5559POPC   C3B30801  22.670  19.165   7.950
 5559POPC   C4B30802  22.680  19.152   7.650
 5560POPC   NC330803  36.884  43.117   9.450
 5560POPC   PO430804  36.884  43.155   9.150
 5560POPC   GL130805  36.880  43.083   8.850
 5560POPC   GL230806  36.790  43.060   8.850
 5560POPC   C1A30807  36.924  43.066   8.550
 5560POPC   D2A30808  36.929  43.110   8.250
 5560POPC   C3A30809  36.894  43.092   7.950
 5560POPC   C4A30810  36.890  43.107   7.650
 5560POPC   C1B30811  36.635  43.013   8.550
 5560POPC   C2B30812  36.658  42.999   8.250
 5560POPC   C3B30813  36.636  43.021   7.950
 5560POPC   C4B30814  36.676  43.071   7.650
 5561POPC   NC330815   1.989  33.040   9.450
 5561POPC   PO430816   1.991  33.011   9.150
 5561POPC   GL130817   1.979  33.032   8.850
 5561POPC   GL230818   1.853  32.947   8.850
 5561POPC   C1A30819   1.957  33.054   8.550
 5561POPC   D2A30820   2.002  33.028   8.250
 5561POPC   C3A30821   1.980  33.036   7.950
 5561POPC   C4A30822   1.969  33.016   7.650
 5561POPC   C1B30823   1.758  32.909   8.550
 5561POPC   C2B30824   1.762  32.905   8.250
 5561POPC   C3B30825   1.788  32.928   7.950
 5561POPC   C4B30826   1.734  32.945   7.650
 5562POPC   NC330827   7.386  19.825   9.450
 5562POPC   PO430828   7.414  19.817   9.150
 5562POPC   GL130829   7.372  19.834   8.850
 5562POPC   GL230830   7.492  19.874   8.850
 5562POPC   C1A30831   7.470  19.794   8.550
 5562POPC   D2A30832   7.373  19.787   8.250
 5562POPC   C3A30833   7.430  19.849   7.950
 5562POPC   C4A30834   7.379  19.863   7.650
 5562POPC   C1B30835   7.606  19.965   8.550
 5562POPC   C2B30836   7.678  19.963   8.250
 5562POPC   C3B30837   7.671  20.015   7.950
 5562POPC   C4B30838   7.584  19.999   7.650
 5563POPC   NC330839  23.683  26.087   9.450
 5563POPC   PO430840  23.679  26.069   9.150
 5563POPC   GL130841  23.687  26.027   8.850
 5563POPC   GL230842  23.612  25.996   8.850
 5563POPC   C1A30843  23.718  25.993   8.550
 5563POPC   D2A30844  23.690  26.065   8.250
 5563POPC   C3A30845  23.733  26.088   7.950
 5563POPC   C4A30846  23.678  26.059   7.650
 5563POPC   C1B30847  23.482  25.842   8.550
 5563POPC   C2B30848  23.575  25.890   8.250
 5563POPC   C3B30849  23.579  25.900   7.950
 5563POPC   C4B30850  23.557  25.843   7.650
 5564POPC   NC330851  43.108  19.830   9.450
 5564POPC   PO430852  43.152  19.860   9.150
 5564POPC   GL130853  43.151  19.810   8.850
 5564POPC   GL230854  43.002  19.899   8.850
 5564POPC   C1A30855  43.150  19.848   8.550
 5564POPC   D2A30856  43.109  19.835   8.250
 5564POPC   C3A30857  43.121  19.884   7.950
 5564POPC   C4A30858  43.112  19.856   7.650
 5564POPC   C1B30859  42.945  20.029   8.550
 5564POPC   C2B30860  42.968  20.023   8.250
 5564POPC   C3B30861  42.963  20.025   7.950
 5564POPC   C4B30862  42.884  19.996   7.650
 5565POPC   NC330863  34.609  18.252   9.450
 5565POPC   PO430864  34.562  18.242   9.150
 5565POPC   GL130865  34.619  18.270   8.850
 5565POPC   GL230866  34.544  18.409   8.850
 5565POPC   C1A30867  34.558  18.279   8.550
 5565POPC   D2A30868  34.625  18.235   8.250
 5565POPC   C3A30869  34.535  18.307   7.950
 5565POPC   C4A30870  34.543  18.293   7.650
 5565POPC   C1B30871  34.524  18.531   8.550
 5565POPC   C2B30872  34.580  18.537   8.250
 5565POPC   C3B30873  34.500  18.546   7.950
 5565POPC   C4B30874  34.528  18.576   7.650
 5566POPC   NC330875  10.501   9.730   9.450
 5566POPC   PO430876  10.534   9.777   9.150
 5566POPC   GL130877  10.561   9.776   8.850
 5566POPC   GL230878  10.499   9.654   8.850
 5566POPC   C1A30879  10.510   9.772   8.550
 5566POPC   D2A30880  10.556   9.702   8.250
 5566POPC   C3A30881  10.572   9.719   7.950
 5566POPC   C4A30882  10.477   9.742   7.650
 5566POPC   C1B30883  10.608   9.473   8.550
 5566POPC   C2B30884  10.546   9.483   8.250
 5566POPC   C3B30885  10.572   9.465   7.950
 5566POPC   C4B30886  10.537   9.472   7.650
 5567POPC   NC330887  35.309  12.818   9.450
 5567POPC   PO430888  35.399  12.809   9.150
 5567POPC   GL130889  35.361  12.826   8.850
 5567POPC   GL230890  35.338  12.737   8.850
 5567POPC   C1A30891  35.358  12.862   8.550
 5567POPC   D2A30892  35.303  12.894   8.250
 5567POPC   C3A30893  35.342  12.865   7.950
 5567POPC   C4A30894  35.315  12.872   7.650
 5567POPC   C1B30895  35.336  12.580   8.550
 5567POPC   C2B30896  35.347  12.600   8.250
 5567POPC   C3B30897  35.318  12.594   7.950
 5567POPC   C4B30898  35.280  12.600   7.650
 5568POPC   NC330899  41.546  34.619   9.450
 5568POPC   PO430900  41.607  34.554   9.150
 5568POPC   GL130901  41.533  34.599   8.850
 5568POPC   GL230902  41.681  34.555   8.850
 5568POPC   C1A30903  41.538  34.591   8.550
 5568POPC   D2A30904  41.602  34.533   8.250
 5568POPC   C3A30905  41.583  34.611   7.950
 5568POPC   C4A30906  41.575  34.608   7.650
 5568POPC   C1B30907  41.776  34.547   8.550
 5568POPC   C2B30908  41.783  34.585   8.250
 5568POPC   C3B30909  41.809  34.543   7.950
 5568POPC   C4B30910  41.852  34.626   7.650
 5569POPC   NC330911  42.357  32.287   9.450
 5569POPC   PO430912  42.336  32.265   9.150
 5569POPC   GL130913  42.356  32.232   8.850
 5569POPC   GL230914  42.434  32.201   8.850
 5569POPC   C1A30915  42.324  32.271   8.550
 5569POPC   D2A30916  42.369  32.247   8.250
 5569POPC   C3A30917  42.298  32.236   7.950
 5569POPC   C4A30918  42.296  32.270   7.650
 5569POPC   C1B30919  42.557  32.217   8.550
 5569POPC   C2B30920  42.567  32.191   8.250
 5569POPC   C3B30921  42.543  32.240   7.950
 5569POPC   C4B30922  42.542  32.183   7.650
 5570POPC   NC330923  19.833   3.569   9.450
 5570POPC   PO430924  19.875   3.588   9.150
 5570POPC   GL130925  19.812   3.588   8.850
 5570POPC   GL230926  19.871   3.455   8.850
 5570POPC   C1A30927  19.849   3.583   8.550
 5570POPC   D2A30928  19.857   3.547   8.250
 5570POPC   C3A30929  19.815   3.530   7.950
 5570POPC   C4A30930  19.857   3.495   7.650
 5570POPC   C1B30931  19.884   3.253   8.550
 5570POPC   C2B30932  19.889   3.243   8.250
 5570POPC   C3B30933  19.849   3.258   7.950
 5570POPC   C4B30934  19.826   3.313   7.650
 5571POPC   NC330935  41.570  39.967   9.450
 5571POPC   PO430936  41.528  40.055   9.150
 5571POPC   GL130937  41.601  39.995   8.850
 5571POPC   GL230938  41.464  39.967   8.850
 5571POPC   C1A30939  41.514  40.006   8.550
 5571POPC   D2A30940  41.587  40.033   8.250
 5571POPC   C3A30941  41.514  40.013   7.950
 5571POPC   C4A30942  41.589  39.970   7.650
 5571POPC   C1B30943  41.341  39.952   8.550
 5571POPC   C2B30944  41.303  39.886   8.250
 5571POPC   C3B30945  41.374  39.910   7.950
 5571POPC   C4B30946  41.290  39.883   7.650
 5572POPC   NC330947  35.319  18.240   9.450
 5572POPC   PO430948  35.343  18.320   9.150
 5572POPC   GL130949  35.374  18.236   8.850
 5572POPC   GL230950  35.437  18.376   8.850
 5572POPC   C1A30951  35.374  18.288   8.550
 5572POPC   D2A30952  35.311  18.282   8.250
 5572POPC   C3A30953  35.392  18.292   7.950
 5572POPC   C4A30954  35.396  18.311   7.650
 5572POPC   C1B30955  35.575  18.454   8.550
 5572POPC   C2B30956  35.578  18.404   8.250
 5572POPC   C3B30957  35.578  18.426   7.950
 5572POPC   C4B30958  35.562  18.372   7.650
 5573POPC   NC330959  24.500   1.244   9.450
 5573POPC   PO430960  24.514   1.216   9.150
 5573POPC   GL130961  24.505   1.261   8.850
 5573POPC   GL230962  24.374   1.114   8.850
 5573POPC   C1A30963  24.488   1.258   8.550
 5573POPC   D2A30964  24.496   1.253   8.250
 5573POPC   C3A30965  24.447   1.250   7.950
 5573POPC   C4A30966  24.484   1.189   7.650
 5573POPC   C1B30967  24.348   0.978   8.550
 5573POPC   C2B30968  24.314   1.008   8.250
 5573POPC   C3B30969  24.303   1.003   7.950
 5573POPC   C4B30970  24.352   1.062   7.650
 5574POPC   NC330971  40.006  19.106   9.450
 5574POPC   PO430972  39.966  19.013   9.150
 5574POPC   GL130973  40.029  19.101   8.850
 5574POPC   GL230974  39.909  19.042   8.850
 5574POPC   C1A30975  39.995  19.055   8.550
 5574POPC   D2A30976  40.048  19.045   8.250
 5574POPC   C3A30977  39.960  19.095   7.950
 5574POPC   C4A30978  39.987  19.014   7.650
 5574POPC   C1B30979  39.786  19.137   8.550
 5574POPC   C2B30980  39.804  19.095   8.250
 5574POPC   C3B30981  39.730  19.078   7.950
 5574POPC   C4B30982  39.807  19.114   7.650
 5575POPC   NC330983  38.442  43.067   9.450
 5575POPC   PO430984  38.425  43.137   9.150
 5575POPC   GL130985  38.478  43.073   8.850
 5575POPC   GL230986  38.344  43.152   8.850
 5575POPC   C1A30987  38.432  43.112   8.550
 5575POPC   D2A30988  38.445  43.114   8.250
 5575POPC   C3A30989  38.413  43.069   7.950
 5575POPC   C4A30990  38.408  43.088   7.650
 5575POPC   C1B30991  38.245  43.180   8.550
 5575POPC   C2B30992  38.199  43.201   8.250
 5575POPC   C3B30993  38.242  43.256   7.950
 5575POPC   C4B30994  38.253  43.247   7.650
 5576POPC   NC330995   2.770   8.931   9.450
 5576POPC   PO430996   2.760   8.956   9.150
 5576POPC   GL130997   2.754   8.977   8.850
 5576POPC   GL230998   2.721   9.063   8.850
 5576POPC   C1A30999   2.806   9.020   8.550
 5576POPC   D2A31000   2.724   8.940   8.250
 5576POPC   C3A31001   2.762   8.972   7.950
 5576POPC   C4A31002   2.756   8.968   7.650
 5576POPC   C1B31003   2.689   9.245   8.550
 5576POPC   C2B31004   2.686   9.180   8.250
 5576POPC   C3B31005   2.736   9.192   7.950
 5576POPC   C4B31006   2.654   9.199   7.650
 5577POPC   NC331007  15.167  28.354   9.450
 5577POPC   PO431008  15.131  28.350   9.150
 5577POPC   GL131009  15.172  28.400   8.850
 5577POPC   GL231010  15.303  28.249   8.850
 5577POPC   C1A31011  15.172  28.414   8.550
 5577POPC   D2A31012  15.208  28.391   8.250
 5577POPC   C3A31013  15.184  28.373   7.950
 5577POPC   C4A31014  15.175  28.325   7.650
 5577POPC   C1B31015  15.288  28.180   8.550
 5577POPC   C2B31016  15.301  28.126   8.250
 5577POPC   C3B31017  15.349  28.138   7.950
 5577POPC   C4B31018  15.365  28.206   7.650
 5578POPC   NC331019  29.873  27.622   9.450
 5578POPC   PO431020  29.872  27.626   9.150
 5578POPC   GL131021  29.928  27.597   8.850
 5578POPC   GL231022  30.007  27.560   8.850
 5578POPC   C1A31023  29.894  27.590   8.550
 5578POPC   D2A31024  29.967  27.627   8.250
 5578POPC   C3A31025  29.956  27.639   7.950
 5578POPC   C4A31026  29.942  27.565   7.650
 5578POPC   C1B31027  30.121  27.604   8.550
 5578POPC   C2B31028  30.123  27.562   8.250
 5578POPC   C3B31029  30.155  27.545   7.950
 5578POPC   C4B31030  30.188  27.557   7.650
 5579POPC   NC331031  22.166  32.238   9.450
 5579POPC   PO431032  22.159  32.252   9.150
 5579POPC   GL131033  22.184  32.257   8.850
 5579POPC   GL231034  22.118  32.102   8.850
 5579POPC   C1A31035  22.141  32.231   8.550
 5579POPC   D2A31036  22.144  32.219   8.250
 5579POPC   C3A31037  22.185  32.291   7.950
 5579POPC   C4A31038  22.145  32.216   7.650
 5579POPC   C1B31039  22.024  32.050   8.550
 5579POPC   C2B31040  21.982  31.990   8.250
 5579POPC   C3B31041  22.047  32.065   7.950
 5579POPC   C4B31042  22.058  32.064   7.650
 5580POPC   NC331043  33.036  12.089   9.450
 5580POPC   PO431044  33.010  12.068   9.150
 5580POPC   GL131045  33.012  12.119   8.850
 5580POPC   GL231046  33.043  12.191   8.850
 5580POPC   C1A31047  33.049  12.047   8.550
 5580POPC   D2A31048  32.997  12.121   8.250
 5580POPC   C3A31049  33.010  12.078   7.950
 5580POPC   C4A31050  33.050  12.040   7.650
 5580POPC   C1B31051  32.992  12.366   8.550
 5580POPC   C2B31052  32.990  12.328   8.250
 5580POPC   C3B31053  32.962  12.345   7.950
 5580POPC   C4B31054  33.009  12.350   7.650
 5581POPC   NC331055  28.348  36.133   9.450
 5581POPC   PO431056  28.337  36.143   9.150
 5581POPC   GL131057  28.351  36.087   8.850
 5581POPC   GL231058  28.201  36.118   8.850
 5581POPC   C1A31059  28.371  36.124   8.550
 5581POPC   D2A31060  28.340  36.105   8.250
 5581POPC   C3A31061  28.337  36.172   7.950
 5581POPC   C4A31062  28.342  36.173   7.650
 5581POPC   C1B31063  28.145  36.053   8.550
 5581POPC   C2B31064  28.141  36.033   8.250
 5581POPC   C3B31065  28.170  36.106   7.950
 5581POPC   C4B31066  28.097  36.128   7.650
 5582POPC   NC331067  40.770   8.959   9.450
 5582POPC   PO431068  40.782   8.969   9.150
 5582POPC   GL131069  40.760   8.933   8.850
 5582POPC   GL231070  40.640   8.911   8.850
 5582POPC   C1A31071  40.762   8.973   8.550
 5582POPC   D2A31072  40.779   8.976   8.250
 5582POPC   C3A31073  40.738   8.961   7.950
 5582POPC   C4A31074  40.754   8.937   7.650
 5582POPC   C1B31075  40.557   8.912   8.550
 5582POPC   C2B31076  40.592   8.888   8.250
 5582POPC   C3B31077  40.531   8.890   7.950
 5582POPC   C4B31078  40.592   8.865   7.650
 5583POPC   NC331079   7.439  30.657   9.450
 5583POPC   PO431080   7.461  30.706   9.150
 5583POPC   GL131081   7.454  30.658   8.850
 5583POPC   GL231082   7.569  30.691   8.850
 5583POPC   C1A31083   7.449  30.730   8.550
 5583POPC   D2A31084   7.461  30.732   8.250
 5583POPC   C3A31085   7.374  30.706   7.950
 5583POPC   C4A31086   7.403  30.664   7.650
 5583POPC   C1B31087   7.692  30.680   8.550
 5583POPC   C2B31088   7.663  30.651   8.250
 5583POPC   C3B31089   7.720  30.654   7.950
 5583POPC   C4B31090   7.694  30.734   7.650
 5584POPC   NC331091  19.876  12.829   9.450
 5584POPC   PO431092  19.799  12.849   9.150
 5584POPC   GL131093  19.881  12.874   8.850
 5584POPC   GL231094  19.800  12.776   8.850
 5584POPC   C1A31095  19.865  12.850   8.550
 5584POPC   D2A31096  19.824  12.857   8.250
 5584POPC   C3A31097  19.875  12.808   7.950
 5584POPC   C4A31098  19.829  12.857   7.650
 5584POPC   C1B31099  19.752  12.606   8.550
 5584POPC   C2B31100  19.712  12.581   8.250
 5584POPC   C3B31101  19.724  12.624   7.950
 5584POPC   C4B31102  19.743  12.604   7.650
 5585POPC   NC331103  15.954  21.428   9.450
 5585POPC   PO431104  15.942  21.418   9.150
 5585POPC   GL131105  15.993  21.436   8.850
 5585POPC   GL231106  16.030  21.496   8.850
 5585POPC   C1A31107  15.999  21.426   8.550
 5585POPC   D2A31108  15.962  21.384   8.250
 5585POPC   C3A31109  16.001  21.386   7.950
 5585POPC   C4A31110  16.002  21.346   7.650
 5585POPC   C1B31111  16.021  21.630   8.550
 5585POPC   C2B31112  15.999  21.651   8.250
 5585POPC   C3B31113  15.956  21.614   7.950
 5585POPC   C4B31114  16.048  21.650   7.650
 5586POPC   NC331115  19.040  27.553   9.450
 5586POPC   PO431116  19.037  27.634   9.150
 5586POPC   GL131117  19.061  27.581   8.850
 5586POPC   GL231118  19.191  27.672   8.850
 5586POPC   C1A31119  19.048  27.550   8.550
 5586POPC   D2A31120  19.057  27.621   8.250
 5586POPC   C3A31121  19.031  27.633   7.950
 5586POPC   C4A31122  19.060  27.573   7.650
 5586POPC   C1B31123  19.251  27.668   8.550
 5586POPC   C2B31124  19.286  27.703   8.250
 5586POPC   C3B31125  19.322  27.720   7.950
 5586POPC   C4B31126  19.272  27.660   7.650
 5587POPC   NC331127  31.522  39.249   9.450
 5587POPC   PO431128  31.507  39.238   9.150
 5587POPC   GL131129  31.504  39.232   8.850
 5587POPC   GL231130  31.583  39.221   8.850
 5587POPC   C1A31131  31.426  39.264   8.550
 5587POPC   D2A31132  31.508  39.266   8.250
 5587POPC   C3A31133  31.462  39.274   7.950
 5587POPC   C4A31134  31.486  39.193   7.650
 5587POPC   C1B31135  31.741  39.252   8.550
 5587POPC   C2B31136  31.744  39.283   8.250
 5587POPC   C3B31137  31.706  39.258   7.950
 5587POPC   C4B31138  31.746  39.300   7.650
 5588POPC   NC331139  26.815  16.005   9.450
 5588POPC   PO431140  26.812  15.916   9.150
 5588POPC   GL131141  26.808  15.937   8.850
 5588POPC   GL231142  26.745  15.852   8.850
 5588POPC   C1A31143  26.810  15.940   8.550
 5588POPC   D2A31144  26.817  15.984   8.250
 5588POPC   C3A31145  26.817  15.954   7.950
 5588POPC   C4A31146  26.768  15.978   7.650
 5588POPC   C1B31147  26.635  15.786   8.550
 5588POPC   C2B31148  26.605  15.769   8.250
 5588POPC   C3B31149  26.667  15.753   7.950
 5588POPC   C4B31150  26.598  15.848   7.650
 5589POPC   NC331151  20.636  39.959   9.450
 5589POPC   PO431152  20.591  40.040   9.150
 5589POPC   GL131153  20.618  40.045   8.850
 5589POPC   GL231154  20.656  39.850   8.850
 5589POPC   C1A31155  20.655  40.002   8.550
 5589POPC   D2A31156  20.604  39.995   8.250
 5589POPC   C3A31157  20.659  40.051   7.950
 5589POPC   C4A31158  20.566  40.044   7.650
 5589POPC   C1B31159  20.706  39.754   8.550
 5589POPC   C2B31160  20.740  39.820   8.250
 5589POPC   C3B31161  20.726  39.752   7.950
 5589POPC   C4B31162  20.716  39.748   7.650
 5590POPC   NC331163  11.308  39.247   9.450
 5590POPC   PO431164  11.300  39.239   9.150
 5590POPC   GL131165  11.324  39.254   8.850
 5590POPC   GL231166  11.315  39.080   8.850
 5590POPC   C1A31167  11.287  39.276   8.550
 5590POPC   D2A31168  11.294  39.258   8.250
 5590POPC   C3A31169  11.268  39.188   7.950
 5590POPC   C4A31170  11.342  39.257   7.650
 5590POPC   C1B31171  11.400  39.041   8.550
 5590POPC   C2B31172  11.381  38.975   8.250
 5590POPC   C3B31173  11.425  39.022   7.950
 5590POPC   C4B31174  11.369  38.960   7.650
 5591POPC   NC331175  42.376  36.923   9.450
 5591POPC   PO431176  42.304  36.883   9.150
 5591POPC   GL131177  42.338  36.942   8.850
 5591POPC   GL231178  42.288  36.769   8.850
 5591POPC   C1A31179  42.330  36.900   8.550
 5591POPC   D2A31180  42.285  36.874   8.250
 5591POPC   C3A31181  42.335  36.868   7.950
 5591POPC   C4A31182  42.337  36.913   7.650
 5591POPC   C1B31183  42.216  36.679   8.550
 5591POPC   C2B31184  42.216  36.751   8.250
 5591POPC   C3B31185  42.125  36.729   7.950
 5591POPC   C4B31186  42.130  36.731   7.650
 5592POPC   NC331187   8.994  22.923   9.450
 5592POPC   PO431188   8.945  22.978   9.150
 5592POPC   GL131189   8.984  22.976   8.850
 5592POPC   GL231190   8.979  22.769   8.850
 5592POPC   C1A31191   8.988  22.934   8.550
 5592POPC   D2A31192   8.948  22.952   8.250
 5592POPC   C3A31193   8.970  22.944   7.950
 5592POPC   C4A31194   8.935  22.942   7.650
 5592POPC   C1B31195   8.913  22.744   8.550
 5592POPC   C2B31196   8.952  22.665   8.250
 5592POPC   C3B31197   8.896  22.671   7.950
 5592POPC   C4B31198   8.938  22.668   7.650
 5593POPC   NC331199  30.740  11.342   9.450
 5593POPC   PO431200  30.747  11.310   9.150
 5593POPC   GL131201  30.668  11.337   8.850
 5593POPC   GL231202  30.798  11.183   8.850
 5593POPC   C1A31203  30.672  11.308   8.550
 5593POPC   D2A31204  30.699  11.277   8.250
 5593POPC   C3A31205  30.717  11.269   7.950
 5593POPC   C4A31206  30.665  11.323   7.650
 5593POPC   C1B31207  30.878  11.194   8.550
 5593POPC   C2B31208  30.909  11.136   8.250
 5593POPC   C3B31209  30.904  11.194   7.950
 5593POPC   C4B31210  30.852  11.169   7.650
 5594POPC   NC331211   9.756  33.780   9.450
 5594POPC   PO431212   9.724  33.825   9.150
 5594POPC   GL131213   9.795  33.774   8.850
 5594POPC   GL231214   9.723  33.633   8.850
 5594POPC   C1A31215   9.777  33.778   8.550
 5594POPC   D2A31216   9.711  33.830   8.250
 5594POPC   C3A31217   9.750  33.796   7.950
 5594POPC   C4A31218   9.742  33.835   7.650
 5594POPC   C1B31219   9.725  33.559   8.550
 5594POPC   C2B31220   9.698  33.509   8.250
 5594POPC   C3B31221   9.712  33.580   7.950
 5594POPC   C4B31222   9.709  33.523   7.650
 5595POPC   NC331223  17.489  11.255   9.450
 5595POPC   PO431224  17.552  11.279   9.150
 5595POPC   GL131225  17.479  11.332   8.850
 5595POPC   GL231226  17.586  11.142   8.850
 5595POPC   C1A31227  17.552  11.310   8.550
 5595POPC   D2A31228  17.475  11.345   8.250
 5595POPC   C3A31229  17.552  11.287   7.950
 5595POPC   C4A31230  17.542  11.257   7.650
 5595POPC   C1B31231  17.558  11.073   8.550
 5595POPC   C2B31232  17.585  11.044   8.250
 5595POPC   C3B31233  17.618  11.093   7.950
 5595POPC   C4B31234  17.608  11.065   7.650
 5596POPC   NC331235  33.809  15.179   9.450
 5596POPC   PO431236  33.829  15.208   9.150
 5596POPC   GL131237  33.849  15.219   8.850
 5596POPC   GL231238  33.895  15.147   8.850
 5596POPC   C1A31239  33.806  15.229   8.550
 5596POPC   D2A31240  33.841  15.173   8.250
 5596POPC   C3A31241  33.842  15.186   7.950
 5596POPC   C4A31242  33.779  15.150   7.650
 5596POPC   C1B31243  34.012  14.993   8.550
 5596POPC   C2B31244  34.033  15.051   8.250
 5596POPC   C3B31245  34.011  15.061   7.950
 5596POPC   C4B31246  33.975  14.996   7.650
 5597POPC   NC331247  23.744  32.274   9.450
 5597POPC   PO431248  23.674  32.218   9.150
 5597POPC   GL131249  23.733  32.227   8.850
 5597POPC   GL231250  23.741  32.374   8.850
 5597POPC   C1A31251  23.695  32.219   8.550
 5597POPC   D2A31252  23.733  32.203   8.250
 5597POPC   C3A31253  23.752  32.207   7.950
 5597POPC   C4A31254  23.750  32.276   7.650
 5597POPC   C1B31255  23.819  32.449   8.550
 5597POPC   C2B31256  23.828  32.509   8.250
 5597POPC   C3B31257  23.804  32.498   7.950
 5597POPC   C4B31258  23.811  32.487   7.650
 5598POPC   NC331259  40.765  40.029   9.450
 5598POPC   PO431260  40.817  40.020   9.150
 5598POPC   GL131261  40.798  40.014   8.850
 5598POPC   GL231262  40.917  40.051   8.850
 5598POPC   C1A31263  40.735  40.025   8.550
 5598POPC   D2A31264  40.832  39.988   8.250
 5598POPC   C3A31265  40.740  39.975   7.950
 5598POPC   C4A31266  40.735  39.966   7.650
 5598POPC   C1B31267  41.053  40.062   8.550
 5598POPC   C2B31268  41.079  40.033   8.250
 5598POPC   C3B31269  41.053  40.049   7.950
 5598POPC   C4B31270  41.051  39.987   7.650
 5599POPC   NC331271  34.582  29.096   9.450
 5599POPC   PO431272  34.559  29.131   9.150
 5599POPC   GL131273  34.621  29.144   8.850
 5599POPC   GL231274  34.430  29.035   8.850
 5599POPC   C1A31275  34.563  29.161   8.550
 5599POPC   D2A31276  34.604  29.127   8.250
 5599POPC   C3A31277  34.597  29.146   7.950
 5599POPC   C4A31278  34.532  29.119   7.650
 5599POPC   C1B31279  34.394  28.967   8.550
 5599POPC   C2B31280  34.364  28.966   8.250
 5599POPC   C3B31281  34.383  29.039   7.950
 5599POPC   C4B31282  34.414  29.054   7.650
 5600POPC   NC331283  34.585   8.223   9.450
 5600POPC   PO431284  34.557   8.192   9.150
 5600POPC   GL131285  34.554   8.201   8.850
 5600POPC   GL231286  34.551   8.097   8.850
 5600POPC   C1A31287  34.540   8.220   8.550
 5600POPC   D2A31288  34.583   8.205   8.250
 5600POPC   C3A31289  34.594   8.168   7.950
 5600POPC   C4A31290  34.598   8.197   7.650
 5600POPC   C1B31291  34.504   7.979   8.550
 5600POPC   C2B31292  34.458   7.947   8.250
 5600POPC   C3B31293  34.498   7.935   7.950
 5600POPC   C4B31294  34.518   7.940   7.650
 5601POPC   NC331295  11.293  36.113   9.450
 5601POPC   PO431296  11.327  36.146   9.150
 5601POPC   GL131297  11.312  36.160   8.850
 5601POPC   GL231298  11.392  36.176   8.850
 5601POPC   C1A31299  11.327  36.096   8.550
 5601POPC   D2A31300  11.277  36.090   8.250
 5601POPC   C3A31301  11.300  36.078   7.950
 5601POPC   C4A31302  11.256  36.091   7.650
 5601POPC   C1B31303  11.553  36.128   8.550
 5601POPC   C2B31304  11.584  36.206   8.250
 5601POPC   C3B31305  11.591  36.198   7.950
 5601POPC   C4B31306  11.544  36.187   7.650
 5602POPC   NC331307  35.363  24.485   9.450
 5602POPC   PO431308  35.366  24.524   9.150
 5602POPC   GL131309  35.379  24.471   8.850
 5602POPC   GL231310  35.451  24.525   8.850
 5602POPC   C1A31311  35.317  24.508   8.550
 5602POPC   D2A31312  35.364  24.511   8.250
 5602POPC   C3A31313  35.390  24.534   7.950
 5602POPC   C4A31314  35.343  24.480   7.650
 5602POPC   C1B31315  35.519  24.694   8.550
 5602POPC   C2B31316  35.517  24.678   8.250
 5602POPC   C3B31317  35.492  24.631   7.950
 5602POPC   C4B31318  35.548  24.695   7.650
 5603POPC   NC331319   4.328  11.337   9.450
 5603POPC   PO431320   4.289  11.324   9.150
 5603POPC   GL131321   4.338  11.329   8.850
 5603POPC   GL231322   4.483  11.343   8.850
 5603POPC   C1A31323   4.337  11.276   8.550
 5603POPC   D2A31324   4.363  11.282   8.250
 5603POPC   C3A31325   4.357  11.329   7.950
 5603POPC   C4A31326   4.303  11.286   7.650
 5603POPC   C1B31327   4.573  11.330   8.550
 5603POPC   C2B31328   4.526  11.327   8.250
 5603POPC   C3B31329   4.582  11.396   7.950
 5603POPC   C4B31330   4.563  11.367   7.650
 5604POPC   NC331331  32.277  32.219   9.450
 5604POPC   PO431332  32.266  32.295   9.150
 5604POPC   GL131333  32.280  32.281   8.850
 5604POPC   GL231334  32.125  32.238   8.850
 5604POPC   C1A31335  32.291  32.227   8.550
 5604POPC   D2A31336  32.225  32.208   8.250
 5604POPC   C3A31337  32.232  32.221   7.950
 5604POPC   C4A31338  32.286  32.233   7.650
 5604POPC   C1B31339  31.953  32.181   8.550
 5604POPC   C2B31340  32.019  32.175   8.250
 5604POPC   C3B31341  32.012  32.268   7.950
 5604POPC   C4B31342  32.027  32.230   7.650
 5605POPC   NC331343   2.730  28.396   9.450
 5605POPC   PO431344   2.787  28.329   9.150
 5605POPC   GL131345   2.745  28.333   8.850
 5605POPC   GL231346   2.833  28.258   8.850
 5605POPC   C1A31347   2.780  28.386   8.550
 5605POPC   D2A31348   2.726  28.364   8.250
 5605POPC   C3A31349   2.737  28.382   7.950
 5605POPC   C4A31350   2.737  28.359   7.650
 5605POPC   C1B31351   3.015  28.282   8.550
 5605POPC   C2B31352   2.947  28.270   8.250
 5605POPC   C3B31353   2.952  28.287   7.950
 5605POPC   C4B31354   3.028  28.260   7.650
 5606POPC   NC331355  27.596  43.081   9.450
 5606POPC   PO431356  27.622  43.110   9.150
 5606POPC   GL131357  27.586  43.091   8.850
 5606POPC   GL231358  27.567  43.043   8.850
 5606POPC   C1A31359  27.559  43.147   8.550
 5606POPC   D2A31360  27.604  43.098   8.250
 5606POPC   C3A31361  27.565  43.140   7.950
 5606POPC   C4A31362  27.549  43.088   7.650
 5606POPC   C1B31363  27.460  42.881   8.550
 5606POPC   C2B31364  27.443  42.884   8.250
 5606POPC   C3B31365  27.455  42.858   7.950
 5606POPC   C4B31366  27.437  42.930   7.650
 5607POPC   NC331367  16.683  27.603   9.450
 5607POPC   PO431368  16.708  27.639   9.150
 5607POPC   GL131369  16.767  27.579   8.850
 5607POPC   GL231370  16.660  27.474   8.850
 5607POPC   C1A31371  16.766  27.544   8.550
 5607POPC   D2A31372  16.758  27.594   8.250
 5607POPC   C3A31373  16.778  27.610   7.950
 5607POPC   C4A31374  16.697  27.615   7.650
 5607POPC   C1B31375  16.507  27.419   8.550
 5607POPC   C2B31376  16.533  27.447   8.250
 5607POPC   C3B31377  16.540  27.482   7.950
 5607POPC   C4B31378  16.496  27.500   7.650
 5608POPC   NC331379  13.579   8.193   9.450
 5608POPC   PO431380  13.641   8.246   9.150
 5608POPC   GL131381  13.605   8.181   8.850
 5608POPC   GL231382  13.629   8.330   8.850
 5608POPC   C1A31383  13.601   8.176   8.550
 5608POPC   D2A31384  13.578   8.220   8.250
 5608POPC   C3A31385  13.637   8.171   7.950
 5608POPC   C4A31386  13.657   8.202   7.650
 5608POPC   C1B31387  13.660   8.460   8.550
 5608POPC   C2B31388  13.579   8.408   8.250
 5608POPC   C3B31389  13.643   8.448   7.950
 5608POPC   C4B31390  13.651   8.442   7.650
 5609POPC   NC331391  33.063  33.778   9.450
 5609POPC   PO431392  33.011  33.835   9.150
 5609POPC   GL131393  32.990  33.829   8.850
 5609POPC   GL231394  33.108  33.887   8.850
 5609POPC   C1A31395  33.002  33.794   8.550
 5609POPC   D2A31396  33.025  33.817   8.250
 5609POPC   C3A31397  33.056  33.816   7.950
 5609POPC   C4A31398  32.981  33.800   7.650
 5609POPC   C1B31399  33.262  33.875   8.550
 5609POPC   C2B31400  33.216  33.941   8.250
 5609POPC   C3B31401  33.266  33.919   7.950
 5609POPC   C4B31402  33.201  33.950   7.650
 5610POPC   NC331403   8.227   7.418   9.450
 5610POPC   PO431404   8.189   7.458   9.150
 5610POPC   GL131405   8.228   7.410   8.850
 5610POPC   GL231406   8.126   7.290   8.850
 5610POPC   C1A31407   8.230   7.378   8.550
 5610POPC   D2A31408   8.177   7.385   8.250
 5610POPC   C3A31409   8.230   7.377   7.950
 5610POPC   C4A31410   8.151   7.382   7.650
 5610POPC   C1B31411   8.126   7.175   8.550
 5610POPC   C2B31412   8.117   7.220   8.250
 5610POPC   C3B31413   8.185   7.133   7.950
 5610POPC   C4B31414   8.135   7.148   7.650
 5611POPC   NC331415   4.316  17.515   9.450
 5611POPC   PO431416   4.346  17.523   9.150
 5611POPC   GL131417   4.330  17.538   8.850
 5611POPC   GL231418   4.370  17.632   8.850
 5611POPC   C1A31419   4.345  17.523   8.550
 5611POPC   D2A31420   4.350  17.553   8.250
 5611POPC   C3A31421   4.298  17.468   7.950
 5611POPC   C4A31422   4.329  17.520   7.650
 5611POPC   C1B31423   4.460  17.739   8.550
 5611POPC   C2B31424   4.443  17.728   8.250
 5611POPC   C3B31425   4.478  17.668   7.950
 5611POPC   C4B31426   4.470  17.647   7.650
 5612POPC   NC331427  23.754  24.448   9.450
 5612POPC   PO431428  23.705  24.534   9.150
 5612POPC   GL131429  23.728  24.465   8.850
 5612POPC   GL231430  23.574  24.544   8.850
 5612POPC   C1A31431  23.745  24.468   8.550
 5612POPC   D2A31432  23.757  24.447   8.250
 5612POPC   C3A31433  23.664  24.457   7.950
 5612POPC   C4A31434  23.702  24.443   7.650
 5612POPC   C1B31435  23.487  24.594   8.550
 5612POPC   C2B31436  23.500  24.604   8.250
 5612POPC   C3B31437  23.485  24.584   7.950
 5612POPC   C4B31438  23.479  24.537   7.650
 5613POPC   NC331439  29.164   8.998   9.450
 5613POPC   PO431440  29.189   8.943   9.150
 5613POPC   GL131441  29.140   8.946   8.850
 5613POPC   GL231442  29.244   9.005   8.850
 5613POPC   C1A31443  29.138   8.964   8.550
 5613POPC   D2A31444  29.128   8.971   8.250
 5613POPC   C3A31445  29.137   8.962   7.950
 5613POPC   C4A31446  29.161   9.002   7.650
 5613POPC   C1B31447  29.368   9.083   8.550
 5613POPC   C2B31448  29.322   9.109   8.250
 5613POPC   C3B31449  29.298   9.174   7.950
 5613POPC   C4B31450  29.361   9.097   7.650
 5614POPC   NC331451  40.025   2.730   9.450
 5614POPC   PO431452  39.982   2.784   9.150
 5614POPC   GL131453  39.982   2.790   8.850
 5614POPC   GL231454  40.121   2.915   8.850
 5614POPC   C1A31455  39.964   2.762   8.550
 5614POPC   D2A31456  39.977   2.780   8.250
 5614POPC   C3A31457  40.010   2.809   7.950
 5614POPC   C4A31458  39.997   2.740   7.650
 5614POPC   C1B31459  40.191   2.987   8.550
 5614POPC   C2B31460  40.173   2.942   8.250
 5614POPC   C3B31461  40.122   2.985   7.950
 5614POPC   C4B31462  40.143   2.945   7.650
 5615POPC   NC331463   9.737  43.865   9.450
 5615POPC   PO431464   9.767  43.842   9.150
 5615POPC   GL131465   9.734  43.866   8.850
 5615POPC   GL231466   9.619  43.877   8.850
 5615POPC   C1A31467   9.772  43.883   8.550
 5615POPC   D2A31468   9.795  43.843   8.250
 5615POPC   C3A31469   9.732  43.861   7.950
 5615POPC   C4A31470   9.772  43.860   7.650
 5615POPC   C1B31471   9.548  43.786   8.550
 5615POPC   C2B31472   9.515  43.784   8.250
 5615POPC   C3B31473   9.481  43.765   7.950
 5615POPC   C4B31474   9.485  43.758   7.650
 5616POPC   NC331475  13.674  20.659   9.450
 5616POPC   PO431476  13.589  20.578   9.150
 5616POPC   GL131477  13.651  20.599   8.850
 5616POPC   GL231478  13.671  20.650   8.850
 5616POPC   C1A31479  13.642  20.613   8.550
 5616POPC   D2A31480  13.654  20.604   8.250
 5616POPC   C3A31481  13.638  20.576   7.950
 5616POPC   C4A31482  13.597  20.561   7.650
 5616POPC   C1B31483  13.853  20.788   8.550
 5616POPC   C2B31484  13.813  20.762   8.250
 5616POPC   C3B31485  13.819  20.741   7.950
 5616POPC   C4B31486  13.857  20.739   7.650
 5617POPC   NC331487  32.201  35.329   9.450
 5617POPC   PO431488  32.222  35.392   9.150
 5617POPC   GL131489  32.285  35.342   8.850
 5617POPC   GL231490  32.404  35.324   8.850
 5617POPC   C1A31491  32.230  35.312   8.550
 5617POPC   D2A31492  32.217  35.373   8.250
 5617POPC   C3A31493  32.263  35.390   7.950
 5617POPC   C4A31494  32.278  35.308   7.650
 5617POPC   C1B31495  32.497  35.382   8.550
 5617POPC   C2B31496  32.535  35.405   8.250
 5617POPC   C3B31497  32.501  35.351   7.950
 5617POPC   C4B31498  32.497  35.316   7.650
 5618POPC   NC331499  30.689  40.800   9.450
 5618POPC   PO431500  30.708  40.747   9.150
 5618POPC   GL131501  30.690  40.804   8.850
 5618POPC   GL231502  30.609  40.862   8.850
 5618POPC   C1A31503  30.663  40.739   8.550
 5618POPC   D2A31504  30.679  40.740   8.250
 5618POPC   C3A31505  30.651  40.780   7.950
 5618POPC   C4A31506  30.651  40.770   7.650
 5618POPC   C1B31507  30.572  40.972   8.550
 5618POPC   C2B31508  30.512  40.928   8.250
 5618POPC   C3B31509  30.508  40.958   7.950
 5618POPC   C4B31510  30.531  40.998   7.650
 5619POPC   NC331511  24.488  35.315   9.450
 5619POPC   PO431512  24.516  35.360   9.150
 5619POPC   GL131513  24.468  35.350   8.850
 5619POPC   GL231514  24.530  35.180   8.850
 5619POPC   C1A31515  24.523  35.396   8.550
 5619POPC   D2A31516  24.449  35.402   8.250
 5619POPC   C3A31517  24.481  35.303   7.950
 5619POPC   C4A31518  24.484  35.347   7.650
 5619POPC   C1B31519  24.497  35.077   8.550
 5619POPC   C2B31520  24.526  35.127   8.250
 5619POPC   C3B31521  24.496  35.065   7.950
 5619POPC   C4B31522  24.527  35.124   7.650
 5620POPC   NC331523  33.073   5.875   9.450
 5620POPC   PO431524  32.995   5.888   9.150
 5620POPC   GL131525  33.067   5.857   8.850
 5620POPC   GL231526  32.905   5.896   8.850
 5620POPC   C1A31527  33.020   5.916   8.550
 5620POPC   D2A31528  33.011   5.860   8.250
 5620POPC   C3A31529  33.020   5.838   7.950
 5620POPC   C4A31530  33.006   5.878   7.650
 5620POPC   C1B31531  32.728   5.874   8.550
 5620POPC   C2B31532  32.792   5.914   8.250
 5620POPC   C3B31533  32.802   5.868   7.950
 5620POPC   C4B31534  32.788   5.863   7.650
 5621POPC   NC331535  43.868  29.095   9.450
 5621POPC   PO431536  43.897  29.184   9.150
 5621POPC   GL131537  43.857  29.135   8.850
 5621POPC   GL231538  43.769  29.221   8.850
 5621POPC   C1A31539  43.890  29.126   8.550
 5621POPC   D2A31540  43.899  29.114   8.250
 5621POPC   C3A31541  43.931  29.110   7.950
 5621POPC   C4A31542  43.875  29.156   7.650
 5621POPC   C1B31543  43.681  29.257   8.550
 5621POPC   C2B31544  43.692  29.191   8.250
 5621POPC   C3B31545  43.614  29.200   7.950
 5621POPC   C4B31546  43.666  29.227   7.650
 5622POPC   NC331547  31.509  17.485   9.450
 5622POPC   PO431548  31.455  17.516   9.150
 5622POPC   GL131549  31.512  17.514   8.850
 5622POPC   GL231550  31.564  17.640   8.850
 5622POPC   C1A31551  31.424  17.504   8.550
 5622POPC   D2A31552  31.479  17.491   8.250
 5622POPC   C3A31553  31.493  17.500   7.950
 5622POPC   C4A31554  31.494  17.520   7.650
 5622POPC   C1B31555  31.586  17.768   8.550
 5622POPC   C2B31556  31.619  17.764   8.250
 5622POPC   C3B31557  31.637  17.753   7.950
 5622POPC   C4B31558  31.605  17.706   7.650
 5623POPC   NC331559   8.175   9.732   9.450
 5623POPC   PO431560   8.234   9.793   9.150
 5623POPC   GL131561   8.243   9.722   8.850
 5623POPC   GL231562   8.288   9.750   8.850
 5623POPC   C1A31563   8.190   9.711   8.550
 5623POPC   D2A31564   8.241   9.771   8.250
 5623POPC   C3A31565   8.183   9.776   7.950
 5623POPC   C4A31566   8.172   9.756   7.650
 5623POPC   C1B31567   8.461   9.863   8.550
 5623POPC   C2B31568   8.470   9.828   8.250
 5623POPC   C3B31569   8.398   9.874   7.950
 5623POPC   C4B31570   8.424   9.858   7.650
 5624POPC   NC331571  12.880   2.802   9.450
 5624POPC   PO431572  12.854   2.782   9.150
 5624POPC   GL131573  12.814   2.736   8.850
 5624POPC   GL231574  12.837   2.904   8.850
 5624POPC   C1A31575  12.892   2.737   8.550
 5624POPC   D2A31576  12.851   2.754   8.250
 5624POPC   C3A31577  12.859   2.775   7.950
 5624POPC   C4A31578  12.882   2.789   7.650
 5624POPC   C1B31579  12.686   2.974   8.550
 5624POPC   C2B31580  12.733   3.030   8.250
 5624POPC   C3B31581  12.702   3.029   7.950
 5624POPC   C4B31582  12.761   3.029   7.650
 5625POPC   NC331583   5.084  18.257   9.450
 5625POPC   PO431584   5.108  18.310   9.150
 5625POPC   GL131585   5.118  18.293   8.850
 5625POPC   GL231586   5.157  18.375   8.850
 5625POPC   C1A31587   5.078  18.293   8.550
 5625POPC   D2A31588   5.115  18.270   8.250
 5625POPC   C3A31589   5.096  18.311   7.950
 5625POPC   C4A31590   5.078  18.326   7.650
 5625POPC   C1B31591   5.219  18.513   8.550
 5625POPC   C2B31592   5.198  18.529   8.250
 5625POPC   C3B31593   5.187  18.529   7.950
 5625POPC   C4B31594   5.235  18.506   7.650
 5626POPC   NC331595  34.586   4.355   9.450
 5626POPC   PO431596  34.577   4.357   9.150
 5626POPC   GL131597  34.623   4.310   8.850
 5626POPC   GL231598  34.706   4.357   8.850
 5626POPC   C1A31599  34.617   4.312   8.550
 5626POPC   D2A31600  34.554   4.352   8.250
 5626POPC   C3A31601  34.549   4.353   7.950
 5626POPC   C4A31602  34.576   4.290   7.650
 5626POPC   C1B31603  34.826   4.364   8.550
 5626POPC   C2B31604  34.787   4.337   8.250
 5626POPC   C3B31605  34.802   4.382   7.950
 5626POPC   C4B31606  34.784   4.339   7.650
 5627POPC   NC331607  28.338  22.176   9.450
 5627POPC   PO431608  28.335  22.179   9.150
 5627POPC   GL131609  28.379  22.179   8.850
 5627POPC   GL231610  28.268  22.022   8.850
 5627POPC   C1A31611  28.337  22.184   8.550
 5627POPC   D2A31612  28.382  22.189   8.250
 5627POPC   C3A31613  28.392  22.153   7.950
 5627POPC   C4A31614  28.405  22.160   7.650
 5627POPC   C1B31615  28.252  22.013   8.550
 5627POPC   C2B31616  28.194  21.961   8.250
 5627POPC   C3B31617  28.171  21.962   7.950
 5627POPC   C4B31618  28.162  21.980   7.650
 5628POPC   NC331619  44.676  16.697   9.450
 5628POPC   PO431620  44.704  16.762   9.150
 5628POPC   GL131621  44.697  16.709   8.850
 5628POPC   GL231622  44.531  16.788   8.850
 5628POPC   C1A31623  44.642  16.747   8.550
 5628POPC   D2A31624  44.665  16.772   8.250
 5628POPC   C3A31625  44.678  16.759   7.950
 5628POPC   C4A31626  44.696  16.768   7.650
 5628POPC   C1B31627  44.392  16.814   8.550
 5628POPC   C2B31628  44.474  16.853   8.250
 5628POPC   C3B31629  44.473  16.857   7.950
 5628POPC   C4B31630  44.409  16.862   7.650
 5629POPC   NC331631  26.073  27.589   9.450
 5629POPC   PO431632  25.999  27.620   9.150
 5629POPC   GL131633  26.065  27.627   8.850
 5629POPC   GL231634  25.947  27.703   8.850
 5629POPC   C1A31635  26.086  27.547   8.550
 5629POPC   D2A31636  26.026  27.593   8.250
 5629POPC   C3A31637  26.025  27.552   7.950
 5629POPC   C4A31638  26.066  27.621   7.650
 5629POPC   C1B31639  25.826  27.733   8.550
 5629POPC   C2B31640  25.868  27.732   8.250
 5629POPC   C3B31641  25.812  27.768   7.950
 5629POPC   C4B31642  25.833  27.751   7.650
 5630POPC   NC331643  29.136   4.302   9.450
 5630POPC   PO431644  29.099   4.355   9.150
 5630POPC   GL131645  29.182   4.300   8.850
 5630POPC   GL231646  29.202   4.418   8.850
 5630POPC   C1A31647  29.100   4.324   8.550
 5630POPC   D2A31648  29.096   4.287   8.250
 5630POPC   C3A31649  29.116   4.348   7.950
 5630POPC   C4A31650  29.181   4.278   7.650
 5630POPC   C1B31651  29.188   4.604   8.550
 5630POPC   C2B31652  29.223   4.517   8.250
 5630POPC   C3B31653  29.144   4.579   7.950
 5630POPC   C4B31654  29.163   4.604   7.650
 5631POPC   NC331655  43.862  14.389   9.450
 5631POPC   PO431656  43.932  14.433   9.150
 5631POPC   GL131657  43.891  14.382   8.850
 5631POPC   GL231658  44.037  14.335   8.850
 5631POPC   C1A31659  43.923  14.452   8.550
 5631POPC   D2A31660  43.915  14.424   8.250
 5631POPC   C3A31661  43.919  14.450   7.950
 5631POPC   C4A31662  43.911  14.378   7.650
 5631POPC   C1B31663  44.119  14.269   8.550
 5631POPC   C2B31664  44.077  14.253   8.250
 5631POPC   C3B31665  44.058  14.294   7.950
 5631POPC   C4B31666  44.104  14.235   7.650
 5632POPC   NC331667   4.319   2.796   9.450
 5632POPC   PO431668   4.340   2.733   9.150
 5632POPC   GL131669   4.315   2.750   8.850
 5632POPC   GL231670   4.258   2.838   8.850
 5632POPC   C1A31671   4.343   2.803   8.550
 5632POPC   D2A31672   4.348   2.794   8.250
 5632POPC   C3A31673   4.303   2.737   7.950
 5632POPC   C4A31674   4.341   2.755   7.650
 5632POPC   C1B31675   4.205   2.977   8.550
 5632POPC   C2B31676   4.279   3.024   8.250
 5632POPC   C3B31677   4.286   2.989   7.950
 5632POPC   C4B31678   4.213   2.991   7.650
 5633POPC   NC331679  43.109   5.870   9.450
 5633POPC   PO431680  43.134   5.850   9.150
 5633POPC   GL131681  43.076   5.853   8.850
 5633POPC   GL231682  43.002   5.806   8.850
 5633POPC   C1A31683  43.148   5.866   8.550
 5633POPC   D2A31684  43.132   5.834   8.250
 5633POPC   C3A31685  43.099   5.835   7.950
 5633POPC   C4A31686  43.105   5.837   7.650
 5633POPC   C1B31687  42.980   5.643   8.550
 5633POPC   C2B31688  42.951   5.696   8.250
 5633POPC   C3B31689  42.925   5.711   7.950
 5633POPC   C4B31690  42.986   5.708   7.650
 5634POPC   NC331691   7.441  39.990   9.450
 5634POPC   PO431692   7.392  40.013   9.150
 5634POPC   GL131693   7.398  40.026   8.850
 5634POPC   GL231694   7.577  39.942   8.850
 5634POPC   C1A31695   7.465  40.037   8.550
 5634POPC   D2A31696   7.456  39.965   8.250
 5634POPC   C3A31697   7.451  39.962   7.950
 5634POPC   C4A31698   7.377  39.998   7.650
 5634POPC   C1B31699   7.634  39.925   8.550
 5634POPC   C2B31700   7.616  39.838   8.250
 5634POPC   C3B31701   7.651  39.928   7.950
 5634POPC   C4B31702   7.689  39.848   7.650
 5635POPC   NC331703  10.478  12.101   9.450
 5635POPC   PO431704  10.485  12.111   9.150
 5635POPC   GL131705  10.553  12.046   8.850
 5635POPC   GL231706  10.557  12.200   8.850
 5635POPC   C1A31707  10.573  12.086   8.550
 5635POPC   D2A31708  10.506  12.041   8.250
 5635POPC   C3A31709  10.528  12.110   7.950
 5635POPC   C4A31710  10.531  12.115   7.650
 5635POPC   C1B31711  10.659  12.267   8.550
 5635POPC   C2B31712  10.678  12.327   8.250
 5635POPC   C3B31713  10.629  12.275   7.950
 5635POPC   C4B31714  10.639  12.291   7.650
 5636POPC   NC331715  32.224   8.244   9.450
 5636POPC   PO431716  32.251   8.223   9.150
 5636POPC   GL131717  32.279   8.168   8.850
 5636POPC   GL231718  32.145   8.309   8.850
 5636POPC   C1A31719  32.238   8.217   8.550
 5636POPC   D2A31720  32.289   8.166   8.250
 5636POPC   C3A31721  32.218   8.200   7.950
 5636POPC   C4A31722  32.214   8.160   7.650
 5636POPC   C1B31723  32.055   8.323   8.550
 5636POPC   C2B31724  32.055   8.311   8.250
 5636POPC   C3B31725  32.057   8.313   7.950
 5636POPC   C4B31726  32.034   8.318   7.650
 5637POPC   NC331727  44.637  25.270   9.450
 5637POPC   PO431728  44.633  25.271   9.150
 5637POPC   GL131729  44.705  25.301   8.850
 5637POPC   GL231730  44.592  25.195   8.850
 5637POPC   C1A31731  44.707  25.290   8.550
 5637POPC   D2A31732  44.638  25.250   8.250
 5637POPC   C3A31733  44.649  25.252   7.950
 5637POPC   C4A31734  44.675  25.237   7.650
 5637POPC   C1B31735  44.528  25.028   8.550
 5637POPC   C2B31736  44.534  25.113   8.250
 5637POPC   C3B31737  44.526  25.077   7.950
 5637POPC   C4B31738  44.466  25.094   7.650
 5638POPC   NC331739   7.391   1.940   9.450
 5638POPC   PO431740   7.444   1.999   9.150
 5638POPC   GL131741   7.448   1.976   8.850
 5638POPC   GL231742   7.494   2.005   8.850
 5638POPC   C1A31743   7.434   1.996   8.550
 5638POPC   D2A31744   7.466   1.985   8.250
 5638POPC   C3A31745   7.469   1.999   7.950
 5638POPC   C4A31746   7.406   1.940   7.650
 5638POPC   C1B31747   7.700   2.056   8.550
 5638POPC   C2B31748   7.689   2.111   8.250
 5638POPC   C3B31749   7.656   2.125   7.950
 5638POPC   C4B31750   7.665   2.112   7.650
 5639POPC   NC331751  13.582  41.602   9.450
 5639POPC   PO431752  13.675  41.582   9.150
 5639POPC   GL131753  13.639  41.561   8.850
 5639POPC   GL231754  13.605  41.422   8.850
 5639POPC   C1A31755  13.582  41.581   8.550
 5639POPC   D2A31756  13.611  41.538   8.250
 5639POPC   C3A31757  13.674  41.591   7.950
 5639POPC   C4A31758  13.608  41.529   7.650
 5639POPC   C1B31759  13.707  41.315   8.550
 5639POPC   C2B31760  13.671  41.292   8.250
 5639POPC   C3B31761  13.686  41.334   7.950
 5639POPC   C4B31762  13.702  41.269   7.650
 5640POPC   NC331763   1.951  33.757   9.450
 5640POPC   PO431764   2.035  33.829   9.150
 5640POPC   GL131765   1.976  33.791   8.850
 5640POPC   GL231766   2.074  33.677   8.850
 5640POPC   C1A31767   1.995  33.844   8.550
 5640POPC   D2A31768   1.974  33.822   8.250
 5640POPC   C3A31769   1.991  33.839   7.950
 5640POPC   C4A31770   1.957  33.754   7.650
 5640POPC   C1B31771   2.141  33.613   8.550
 5640POPC   C2B31772   2.161  33.536   8.250
 5640POPC   C3B31773   2.127  33.596   7.950
 5640POPC   C4B31774   2.131  33.534   7.650
 5641POPC   NC331775  33.762  43.872   9.450
 5641POPC   PO431776  33.785  43.866   9.150
 5641POPC   GL131777  33.847  43.904   8.850
 5641POPC   GL231778  33.809  43.797   8.850
 5641POPC   C1A31779  33.754  43.888   8.550
 5641POPC   D2A31780  33.783  43.866   8.250
 5641POPC   C3A31781  33.770  43.904   7.950
 5641POPC   C4A31782  33.756  43.909   7.650
 5641POPC   C1B31783  33.731  43.679   8.550
 5641POPC   C2B31784  33.738  43.645   8.250
 5641POPC   C3B31785  33.768  43.622   7.950
 5641POPC   C4B31786  33.722  43.654   7.650
 5642POPC   NC331787  15.999   8.976   9.450
 5642POPC   PO431788  15.951   8.978   9.150
 5642POPC   GL131789  15.977   8.984   8.850
 5642POPC   GL231790  15.821   9.005   8.850
 5642POPC   C1A31791  15.950   8.938   8.550
 5642POPC   D2A31792  15.951   8.999   8.250
 5642POPC   C3A31793  15.985   8.954   7.950
 5642POPC   C4A31794  15.998   8.977   7.650
 5642POPC   C1B31795  15.728   9.053   8.550
 5642POPC   C2B31796  15.721   9.024   8.250
 5642POPC   C3B31797  15.725   9.062   7.950
 5642POPC   C4B31798  15.726   9.032   7.650
 5643POPC   NC331799   1.166  31.477   9.450
 5643POPC   PO431800   1.230  31.497   9.150
 5643POPC   GL131801   1.261  31.482   8.850
 5643POPC   GL231802   1.122  31.351   8.850
 5643POPC   C1A31803   1.172  31.519   8.550
 5643POPC   D2A31804   1.194  31.477   8.250
 5643POPC   C3A31805   1.228  31.432   7.950
 5643POPC   C4A31806   1.218  31.430   7.650
 5643POPC   C1B31807   1.084  31.274   8.550
 5643POPC   C2B31808   1.142  31.253   8.250
 5643POPC   C3B31809   1.077  31.252   7.950
 5643POPC   C4B31810   1.075  31.199   7.650
 5644POPC   NC331811  15.993   4.320   9.450
 5644POPC   PO431812  15.991   4.366   9.150
 5644POPC   GL131813  15.936   4.272   8.850
 5644POPC   GL231814  15.924   4.243   8.850
 5644POPC   C1A31815  16.004   4.349   8.550
 5644POPC   D2A31816  16.004   4.301   8.250
 5644POPC   C3A31817  15.942   4.300   7.950
 5644POPC   C4A31818  15.938   4.296   7.650
 5644POPC   C1B31819  15.885   4.068   8.550
 5644POPC   C2B31820  15.945   4.064   8.250
 5644POPC   C3B31821  15.866   4.072   7.950
 5644POPC   C4B31822  15.958   4.074   7.650
 5645POPC   NC331823  28.353  43.091   9.450
 5645POPC   PO431824  28.376  43.154   9.150
 5645POPC   GL131825  28.387  43.100   8.850
 5645POPC   GL231826  28.406  42.995   8.850
 5645POPC   C1A31827  28.354  43.076   8.550
 5645POPC   D2A31828  28.418  43.107   8.250
 5645POPC   C3A31829  28.397  43.135   7.950
 5645POPC   C4A31830  28.386  43.089   7.650
 5645POPC   C1B31831  28.522  42.894   8.550
 5645POPC   C2B31832  28.451  42.884   8.250
 5645POPC   C3B31833  28.490  42.875   7.950
 5645POPC   C4B31834  28.455  42.851   7.650
 5646POPC   NC331835  38.415  40.018   9.450
 5646POPC   PO431836  38.419  39.987   9.150
 5646POPC   GL131837  38.494  40.036   8.850
 5646POPC   GL231838  38.447  39.906   8.850
 5646POPC   C1A31839  38.451  39.957   8.550
 5646POPC   D2A31840  38.467  39.998   8.250
 5646POPC   C3A31841  38.490  40.043   7.950
 5646POPC   C4A31842  38.477  40.032   7.650
 5646POPC   C1B31843  38.407  39.745   8.550
 5646POPC   C2B31844  38.455  39.754   8.250
 5646POPC   C3B31845  38.395  39.804   7.950
 5646POPC   C4B31846  38.433  39.721   7.650
 5647POPC   NC331847   8.948  27.603   9.450
 5647POPC   PO431848   8.953  27.549   9.150
 5647POPC   GL131849   8.992  27.543   8.850
 5647POPC   GL231850   9.016  27.754   8.850
 5647POPC   C1A31851   8.985  27.595   8.550
 5647POPC   D2A31852   8.926  27.642   8.250
 5647POPC   C3A31853   8.930  27.545   7.950
 5647POPC   C4A31854   8.964  27.609   7.650
 5647POPC   C1B31855   9.073  27.817   8.550
 5647POPC   C2B31856   9.108  27.815   8.250
 5647POPC   C3B31857   9.072  27.854   7.950
 5647POPC   C4B31858   9.057  27.843   7.650
 5648POPC   NC331859   5.872  42.302   9.450
 5648POPC   PO431860   5.900  42.326   9.150
 5648POPC   GL131861   5.829  42.352   8.850
 5648POPC   GL231862   5.973  42.423   8.850
 5648POPC   C1A31863   5.911  42.376   8.550
 5648POPC   D2A31864   5.875  42.308   8.250
 5648POPC   C3A31865   5.912  42.344   7.950
 5648POPC   C4A31866   5.890  42.317   7.650
 5648POPC   C1B31867   6.116  42.367   8.550
 5648POPC   C2B31868   6.096  42.431   8.250
 5648POPC   C3B31869   6.100  42.400   7.950
 5648POPC   C4B31870   6.129  42.369   7.650
 5649POPC   NC331871  36.105  31.502   9.450
 5649POPC   PO431872  36.146  31.510   9.150
 5649POPC   GL131873  36.090  31.476   8.850
 5649POPC   GL231874  36.114  31.328   8.850
 5649POPC   C1A31875  36.139  31.518   8.550
 5649POPC   D2A31876  36.120  31.454   8.250
 5649POPC   C3A31877  36.105  31.517   7.950
 5649POPC   C4A31878  36.109  31.490   7.650
 5649POPC   C1B31879  36.121  31.209   8.550
 5649POPC   C2B31880  36.050  31.206   8.250
 5649POPC   C3B31881  36.101  31.229   7.950
 5649POPC   C4B31882  36.137  31.179   7.650
 5650POPC   NC331883  21.368  36.908   9.450
 5650POPC   PO431884  21.419  36.947   9.150
 5650POPC   GL131885  21.406  36.866   8.850
 5650POPC   GL231886  21.316  36.800   8.850
 5650POPC   C1A31887  21.358  36.874   8.550
 5650POPC   D2A31888  21.359  36.859   8.250
 5650POPC   C3A31889  21.354  36.929   7.950
 5650POPC   C4A31890  21.422  36.883   7.650
 5650POPC   C1B31891  21.147  36.779   8.550
 5650POPC   C2B31892  21.218  36.790   8.250
 5650POPC   C3B31893  21.182  36.693   7.950
 5650POPC   C4B31894  21.201  36.702   7.650
 5651POPC   NC331895  41.567  35.355   9.450
 5651POPC   PO431896  41.539  35.371   9.150
 5651POPC   GL131897  41.531  35.333   8.850
 5651POPC   GL231898  41.510  35.442   8.850
 5651POPC   C1A31899  41.557  35.373   8.550
 5651POPC   D2A31900  41.512  35.305   8.250
 5651POPC   C3A31901  41.608  35.349   7.950
 5651POPC   C4A31902  41.598  35.308   7.650
 5651POPC   C1B31903  41.516  35.583   8.550
 5651POPC   C2B31904  41.476  35.635   8.250
 5651POPC   C3B31905  41.451  35.588   7.950
 5651POPC   C4B31906  41.518  35.586   7.650
 5652POPC   NC331907   9.020  29.954   9.450
 5652POPC   PO431908   8.999  29.945   9.150
 5652POPC   GL131909   8.943  29.939   8.850
 5652POPC   GL231910   8.931  30.002   8.850
 5652POPC   C1A31911   9.014  29.879   8.550
 5652POPC   D2A31912   8.993  29.918   8.250
 5652POPC   C3A31913   8.924  29.911   7.950
 5652POPC   C4A31914   8.993  29.888   7.650
 5652POPC   C1B31915   8.983  30.166   8.550
 5652POPC   C2B31916   8.981  30.195   8.250
 5652POPC   C3B31917   8.909  30.206   7.950
 5652POPC   C4B31918   8.928  30.170   7.650
 5653POPC   NC331919  14.391   5.048   9.450
 5653POPC   PO431920  14.453   5.099   9.150
 5653POPC   GL131921  14.388   5.107   8.850
 5653POPC   GL231922  14.294   5.100   8.850
 5653POPC   C1A31923  14.427   5.142   8.550
 5653POPC   D2A31924  14.444   5.091   8.250
 5653POPC   C3A31925  14.405   5.091   7.950
 5653POPC   C4A31926  14.433   5.099   7.650
 5653POPC   C1B31927  14.129   5.240   8.550
 5653POPC   C2B31928  14.175   5.195   8.250
 5653POPC   C3B31929  14.143   5.162   7.950
 5653POPC   C4B31930  14.201   5.221   7.650
 5654POPC   NC331931  27.602  12.878   9.450
 5654POPC   PO431932  27.577  12.874   9.150
 5654POPC   GL131933  27.572  12.861   8.850
 5654POPC   GL231934  27.492  12.869   8.850
 5654POPC   C1A31935  27.631  12.889   8.550
 5654POPC   D2A31936  27.621  12.844   8.250
 5654POPC   C3A31937  27.634  12.855   7.950
 5654POPC   C4A31938  27.617  12.837   7.650
 5654POPC   C1B31939  27.309  12.788   8.550
 5654POPC   C2B31940  27.321  12.751   8.250
 5654POPC   C3B31941  27.353  12.788   7.950
 5654POPC   C4B31942  27.365  12.791   7.650
 5655POPC   NC331943  11.255   2.803   9.450
 5655POPC   PO431944  11.306   2.743   9.150
 5655POPC   GL131945  11.324   2.773   8.850
 5655POPC   GL231946  11.208   2.835   8.850
 5655POPC   C1A31947  11.266   2.801   8.550
 5655POPC   D2A31948  11.327   2.802   8.250
 5655POPC   C3A31949  11.326   2.740   7.950
 5655POPC   C4A31950  11.270   2.750   7.650
 5655POPC   C1B31951  11.197   3.022   8.550
 5655POPC   C2B31952  11.115   3.018   8.250
 5655POPC   C3B31953  11.178   2.980   7.950
 5655POPC   C4B31954  11.188   2.952   7.650
 5656POPC   NC331955   9.000   6.610   9.450
 5656POPC   PO431956   8.939   6.658   9.150
 5656POPC   GL131957   8.966   6.640   8.850
 5656POPC   GL231958   8.989   6.553   8.850
 5656POPC   C1A31959   8.995   6.664   8.550
 5656POPC   D2A31960   9.022   6.602   8.250
 5656POPC   C3A31961   8.966   6.602   7.950
 5656POPC   C4A31962   8.945   6.674   7.650
 5656POPC   C1B31963   9.063   6.431   8.550
 5656POPC   C2B31964   9.128   6.387   8.250
 5656POPC   C3B31965   9.076   6.387   7.950
 5656POPC   C4B31966   9.085   6.461   7.650
 5657POPC   NC331967  10.480   4.308   9.450
 5657POPC   PO431968  10.527   4.320   9.150
 5657POPC   GL131969  10.476   4.301   8.850
 5657POPC   GL231970  10.531   4.210   8.850
 5657POPC   C1A31971  10.514   4.309   8.550
 5657POPC   D2A31972  10.499   4.294   8.250
 5657POPC   C3A31973  10.548   4.334   7.950
 5657POPC   C4A31974  10.542   4.288   7.650
 5657POPC   C1B31975  10.590   4.040   8.550
 5657POPC   C2B31976  10.606   4.085   8.250
 5657POPC   C3B31977  10.624   4.091   7.950
 5657POPC   C4B31978  10.628   4.054   7.650
 5658POPC   NC331979  24.470  32.227   9.450
 5658POPC   PO431980  24.442  32.208   9.150
 5658POPC   GL131981  24.493  32.265   8.850
 5658POPC   GL231982  24.457  32.150   8.850
 5658POPC   C1A31983  24.494  32.242   8.550
 5658POPC   D2A31984  24.466  32.200   8.250
 5658POPC   C3A31985  24.446  32.240   7.950
 5658POPC   C4A31986  24.459  32.268   7.650
 5658POPC   C1B31987  24.498  32.032   8.550
 5658POPC   C2B31988  24.526  32.027   8.250
 5658POPC   C3B31989  24.523  31.997   7.950
 5658POPC   C4B31990  24.475  32.042   7.650
 5659POPC   NC331991  15.936  43.893   9.450
 5659POPC   PO431992  15.908  43.917   9.150
 5659POPC   GL131993  15.943  43.846   8.850
 5659POPC   GL231994  15.918  43.970   8.850
 5659POPC   C1A31995  16.001  43.863   8.550
 5659POPC   D2A31996  15.936  43.894   8.250
 5659POPC   C3A31997  15.975  43.840   7.950
 5659POPC   C4A31998  15.988  43.923   7.650
 5659POPC   C1B31999  16.020  44.099   8.550
 5659POPC   C2B32000  16.004  44.160   8.250
 5659POPC   C3B32001  16.010  44.098   7.950
 5659POPC   C4B32002  15.936  44.105   7.650
 5660POPC   NC332003   0.453  17.545   9.450
 5660POPC   PO432004   0.436  17.482   9.150
 5660POPC   GL132005   0.428  17.496   8.850
 5660POPC   GL232006   0.554  17.529   8.850
 5660POPC   C1A32007   0.409  17.553   8.550
 5660POPC   D2A32008   0.457  17.533   8.250
 5660POPC   C3A32009   0.397  17.537   7.950
 5660POPC   C4A32010   0.394  17.481   7.650
 5660POPC   C1B32011   0.727  17.597   8.550
 5660POPC   C2B32012   0.643  17.528   8.250
 5660POPC   C3B32013   0.637  17.535   7.950
 5660POPC   C4B32014   0.709  17.601   7.650
 5661POPC   NC332015   9.783  26.816   9.450
 5661POPC   PO432016   9.748  26.864   9.150
 5661POPC   GL132017   9.774  26.830   8.850
 5661POPC   GL232018   9.624  26.723   8.850
 5661POPC   C1A32019   9.764  26.826   8.550
 5661POPC   D2A32020   9.714  26.801   8.250
 5661POPC   C3A32021   9.783  26.772   7.950
 5661POPC   C4A32022   9.758  26.800   7.650
 5661POPC   C1B32023   9.493  26.718   8.550
 5661POPC   C2B32024   9.511  26.713   8.250
 5661POPC   C3B32025   9.547  26.672   7.950
 5661POPC   C4B32026   9.483  26.730   7.650
 5662POPC   NC332027  29.175  17.507   9.450
 5662POPC   PO432028  29.166  17.464   9.150
 5662POPC   GL132029  29.145  17.549   8.850
 5662POPC   GL232030  29.206  17.603   8.850
 5662POPC   C1A32031  29.186  17.526   8.550
 5662POPC   D2A32032  29.143  17.526   8.250
 5662POPC   C3A32033  29.095  17.551   7.950
 5662POPC   C4A32034  29.109  17.468   7.650
 5662POPC   C1B32035  29.283  17.720   8.550
 5662POPC   C2B32036  29.229  17.771   8.250
 5662POPC   C3B32037  29.232  17.675   7.950
 5662POPC   C4B32038  29.228  17.678   7.650
 5663POPC   NC332039  12.115  40.045   9.450
 5663POPC   PO432040  12.115  40.039   9.150
 5663POPC   GL132041  12.076  40.011   8.850
 5663POPC   GL232042  12.096  39.882   8.850
 5663POPC   C1A32043  12.085  40.046   8.550
 5663POPC   D2A32044  12.084  40.015   8.250
 5663POPC   C3A32045  12.089  39.985   7.950
 5663POPC   C4A32046  12.110  40.014   7.650
 5663POPC   C1B32047  12.168  39.759   8.550
 5663POPC   C2B32048  12.130  39.731   8.250
 5663POPC   C3B32049  12.143  39.809   7.950
 5663POPC   C4B32050  12.130  39.789   7.650
 5664POPC   NC332051   8.190  13.580   9.450
 5664POPC   PO432052   8.208  13.652   9.150
 5664POPC   GL132053   8.186  13.583   8.850
 5664POPC   GL232054   8.133  13.703   8.850
 5664POPC   C1A32055   8.171  13.677   8.550
 5664POPC   D2A32056   8.212  13.670   8.250
 5664POPC   C3A32057   8.195  13.608   7.950
 5664POPC   C4A32058   8.168  13.586   7.650
 5664POPC   C1B32059   7.934  13.682   8.550
 5664POPC   C2B32060   8.004  13.698   8.250
 5664POPC   C3B32061   7.954  13.751   7.950
 5664POPC   C4B32062   7.978  13.775   7.650
 5665POPC   NC332063   5.893  24.474   9.450
 5665POPC   PO432064   5.877  24.494   9.150
 5665POPC   GL132065   5.850  24.481   8.850
 5665POPC   GL232066   5.839  24.579   8.850
 5665POPC   C1A32067   5.831  24.512   8.550
 5665POPC   D2A32068   5.851  24.468   8.250
 5665POPC   C3A32069   5.879  24.501   7.950
 5665POPC   C4A32070   5.913  24.467   7.650
 5665POPC   C1B32071   5.854  24.713   8.550
 5665POPC   C2B32072   5.883  24.723   8.250
 5665POPC   C3B32073   5.809  24.780   7.950
 5665POPC   C4B32074   5.811  24.748   7.650
 5666POPC   NC332075  32.271   7.396   9.450
 5666POPC   PO432076  32.199   7.376   9.150
 5666POPC   GL132077  32.201   7.451   8.850
 5666POPC   GL232078  32.379   7.406   8.850
 5666POPC   C1A32079  32.233   7.466   8.550
 5666POPC   D2A32080  32.294   7.423   8.250
 5666POPC   C3A32081  32.282   7.374   7.950
 5666POPC   C4A32082  32.211   7.395   7.650
 5666POPC   C1B32083  32.454   7.488   8.550
 5666POPC   C2B32084  32.515   7.447   8.250
 5666POPC   C3B32085  32.464   7.482   7.950
 5666POPC   C4B32086  32.511   7.480   7.650
 5667POPC   NC332087  23.704   5.824   9.450
 5667POPC   PO432088  23.682   5.829   9.150
 5667POPC   GL132089  23.753   5.893   8.850
 5667POPC   GL232090  23.769   5.732   8.850
 5667POPC   C1A32091  23.746   5.843   8.550
 5667POPC   D2A32092  23.754   5.889   8.250
 5667POPC   C3A32093  23.707   5.902   7.950
 5667POPC   C4A32094  23.738   5.887   7.650
 5667POPC   C1B32095  23.730   5.616   8.550
 5667POPC   C2B32096  23.760   5.607   8.250
 5667POPC   C3B32097  23.705   5.665   7.950
 5667POPC   C4B32098  23.791   5.662   7.650
 5668POPC   NC332099  19.053  15.141   9.450
 5668POPC   PO432100  19.031  15.220   9.150
 5668POPC   GL132101  19.084  15.226   8.850
 5668POPC   GL232102  19.047  15.113   8.850
 5668POPC   C1A32103  19.064  15.136   8.550
 5668POPC   D2A32104  19.063  15.147   8.250
 5668POPC   C3A32105  19.051  15.132   7.950
 5668POPC   C4A32106  19.090  15.143   7.650
 5668POPC   C1B32107  18.993  14.916   8.550
 5668POPC   C2B32108  18.934  14.978   8.250
 5668POPC   C3B32109  18.983  14.991   7.950
 5668POPC   C4B32110  18.973  14.902   7.650
 5669POPC   NC332111  18.312  32.257   9.450
 5669POPC   PO432112  18.270  32.278   9.150
 5669POPC   GL132113  18.261  32.199   8.850
 5669POPC   GL232114  18.351  32.387   8.850
 5669POPC   C1A32115  18.278  32.272   8.550
 5669POPC   D2A32116  18.242  32.270   8.250
 5669POPC   C3A32117  18.285  32.237   7.950
 5669POPC   C4A32118  18.332  32.251   7.650
 5669POPC   C1B32119  18.319  32.461   8.550
 5669POPC   C2B32120  18.376  32.483   8.250
 5669POPC   C3B32121  18.317  32.481   7.950
 5669POPC   C4B32122  18.353  32.504   7.650
 5670POPC   NC332123  14.441  32.211   9.450
 5670POPC   PO432124  14.421  32.234   9.150
 5670POPC   GL132125  14.445  32.277   8.850
 5670POPC   GL232126  14.326  32.383   8.850
 5670POPC   C1A32127  14.425  32.212   8.550
 5670POPC   D2A32128  14.448  32.245   8.250
 5670POPC   C3A32129  14.395  32.281   7.950
 5670POPC   C4A32130  14.410  32.286   7.650
 5670POPC   C1B32131  14.359  32.450   8.550
 5670POPC   C2B32132  14.326  32.527   8.250
 5670POPC   C3B32133  14.295  32.513   7.950
 5670POPC   C4B32134  14.365  32.526   7.650
 5671POPC   NC332135  19.049  16.682   9.450
 5671POPC   PO432136  19.105  16.775   9.150
 5671POPC   GL132137  19.095  16.695   8.850
 5671POPC   GL232138  19.042  16.848   8.850
 5671POPC   C1A32139  19.076  16.719   8.550
 5671POPC   D2A32140  19.021  16.734   8.250
 5671POPC   C3A32141  19.090  16.708   7.950
 5671POPC   C4A32142  19.093  16.713   7.650
 5671POPC   C1B32143  19.059  16.972   8.550
 5671POPC   C2B32144  19.027  16.935   8.250
 5671POPC   C3B32145  19.057  17.003   7.950
 5671POPC   C4B32146  19.017  17.021   7.650
 5672POPC   NC332147   0.486  29.969   9.450
 5672POPC   PO432148   0.473  29.929   9.150
 5672POPC   GL132149   0.413  29.922   8.850
 5672POPC   GL232150   0.481  29.792   8.850
 5672POPC   C1A32151   0.434  29.966   8.550
 5672POPC   D2A32152   0.409  29.942   8.250
 5672POPC   C3A32153   0.391  29.874   7.950
 5672POPC   C4A32154   0.462  29.922   7.650
 5672POPC   C1B32155   0.585  29.731   8.550
 5672POPC   C2B32156   0.574  29.693   8.250
 5672POPC   C3B32157   0.551  29.685   7.950
 5672POPC   C4B32158   0.582  29.704   7.650
 5673POPC   NC332159  29.154  29.968   9.450
 5673POPC   PO432160  29.112  29.899   9.150
 5673POPC   GL132161  29.154  29.949   8.850
 5673POPC   GL232162  29.119  29.811   8.850
 5673POPC   C1A32163  29.118  29.961   8.550
 5673POPC   D2A32164  29.118  29.901   8.250
 5673POPC   C3A32165  29.193  29.938   7.950
 5673POPC   C4A32166  29.181  29.875   7.650
 5673POPC   C1B32167  29.025  29.722   8.550
 5673POPC   C2B32168  29.038  29.731   8.250
 5673POPC   C3B32169  29.056  29.714   7.950
 5673POPC   C4B32170  28.994  29.677   7.650
 5674POPC   NC332171  30.677  38.405   9.450
 5674POPC   PO432172  30.726  38.447   9.150
 5674POPC   GL132173  30.717  38.411   8.850
 5674POPC   GL232174  30.724  38.565   8.850
 5674POPC   C1A32175  30.678  38.501   8.550
 5674POPC   D2A32176  30.648  38.495   8.250
 5674POPC   C3A32177  30.662  38.481   7.950
 5674POPC   C4A32178  30.714  38.466   7.650
 5674POPC   C1B32179  30.865  38.645   8.550
 5674POPC   C2B32180  30.867  38.665   8.250
 5674POPC   C3B32181  30.797  38.668   7.950
 5674POPC   C4B32182  30.877  38.683   7.650
 5675POPC   NC332183  40.756  25.284   9.450
 5675POPC   PO432184  40.765  25.236   9.150
 5675POPC   GL132185  40.790  25.300   8.850
 5675POPC   GL232186  40.643  25.272   8.850
 5675POPC   C1A32187  40.813  25.303   8.550
 5675POPC   D2A32188  40.751  25.226   8.250
 5675POPC   C3A32189  40.768  25.298   7.950
 5675POPC   C4A32190  40.810  25.302   7.650
 5675POPC   C1B32191  40.586  25.283   8.550
 5675POPC   C2B32192  40.500  25.278   8.250
 5675POPC   C3B32193  40.491  25.292   7.950
 5675POPC   C4B32194  40.505  25.319   7.650
 5676POPC   NC332195   2.729   0.467   9.450
 5676POPC   PO432196   2.815   0.466   9.150
 5676POPC   GL132197   2.764   0.446   8.850
 5676POPC   GL232198   2.678   0.396   8.850
 5676POPC   C1A32199   2.730   0.477   8.550
 5676POPC   D2A32200   2.804   0.451   8.250
 5676POPC   C3A32201   2.741   0.429   7.950
 5676POPC   C4A32202   2.767   0.412   7.650
 5676POPC   C1B32203   2.497   0.400   8.550
 5676POPC   C2B32204   2.513   0.347   8.250
 5676POPC   C3B32205   2.512   0.374   7.950
 5676POPC   C4B32206   2.500   0.391   7.650
 5677POPC   NC332207  27.575   6.628   9.450
 5677POPC   PO432208  27.551   6.617   9.150
 5677POPC   GL132209  27.581   6.684   8.850
 5677POPC   GL232210  27.557   6.525   8.850
 5677POPC   C1A32211  27.609   6.643   8.550
 5677POPC   D2A32212  27.599   6.675   8.250
 5677POPC   C3A32213  27.575   6.672   7.950
 5677POPC   C4A32214  27.586   6.622   7.650
 5677POPC   C1B32215  27.548   6.370   8.550
 5677POPC   C2B32216  27.591   6.396   8.250
 5677POPC   C3B32217  27.561   6.351   7.950
 5677POPC   C4B32218  27.566   6.410   7.650
 5678POPC   NC332219   9.730  22.960   9.450
 5678POPC   PO432220   9.771  22.896   9.150
 5678POPC   GL132221   9.699  22.897   8.850
 5678POPC   GL232222   9.858  22.952   8.850
 5678POPC   C1A32223   9.772  22.969   8.550
 5678POPC   D2A32224   9.708  22.897   8.250
 5678POPC   C3A32225   9.726  22.891   7.950
 5678POPC   C4A32226   9.707  22.979   7.650
 5678POPC   C1B32227   9.996  22.949   8.550
 5678POPC   C2B32228  10.008  22.969   8.250
 5678POPC   C3B32229   9.977  22.881   7.950
 5678POPC   C4B32230  10.022  22.968   7.650
 5679POPC   NC332231  32.984   2.759   9.450
 5679POPC   PO432232  33.062   2.787   9.150
 5679POPC   GL132233  33.020   2.766   8.850
 5679POPC   GL232234  33.069   2.609   8.850
 5679POPC   C1A32235  33.056   2.772   8.550
 5679POPC   D2A32236  33.015   2.761   8.250
 5679POPC   C3A32237  33.022   2.738   7.950
 5679POPC   C4A32238  32.993   2.810   7.650
 5679POPC   C1B32239  33.130   2.524   8.550
 5679POPC   C2B32240  33.095   2.481   8.250
 5679POPC   C3B32241  33.066   2.476   7.950
 5679POPC   C4B32242  33.039   2.551   7.650
 5680POPC   NC332243  28.358  41.551   9.450
 5680POPC   PO432244  28.352  41.606   9.150
 5680POPC   GL132245  28.415  41.523   8.850
 5680POPC   GL232246  28.408  41.483   8.850
 5680POPC   C1A32247  28.380  41.511   8.550
 5680POPC   D2A32248  28.320  41.589   8.250
 5680POPC   C3A32249  28.355  41.526   7.950
 5680POPC   C4A32250  28.376  41.514   7.650
 5680POPC   C1B32251  28.517  41.373   8.550
 5680POPC   C2B32252  28.493  41.292   8.250
 5680POPC   C3B32253  28.455  41.304   7.950
 5680POPC   C4B32254  28.458  41.305   7.650
 5681POPC   NC332255  35.397  34.618   9.450
 5681POPC   PO432256  35.400  34.617   9.150
 5681POPC   GL132257  35.341  34.549   8.850
 5681POPC   GL232258  35.502  34.574   8.850
 5681POPC   C1A32259  35.373  34.555   8.550
 5681POPC   D2A32260  35.373  34.564   8.250
 5681POPC   C3A32261  35.307  34.600   7.950
 5681POPC   C4A32262  35.339  34.531   7.650
 5681POPC   C1B32263  35.563  34.610   8.550
 5681POPC   C2B32264  35.597  34.595   8.250
 5681POPC   C3B32265  35.594  34.605   7.950
 5681POPC   C4B32266  35.604  34.571   7.650
 5682POPC   NC332267  42.310  39.211   9.450
 5682POPC   PO432268  42.309  39.233   9.150
 5682POPC   GL132269  42.371  39.219   8.850
 5682POPC   GL232270  42.346  39.098   8.850
 5682POPC   C1A32271  42.364  39.233   8.550
 5682POPC   D2A32272  42.289  39.252   8.250
 5682POPC   C3A32273  42.294  39.255   7.950
 5682POPC   C4A32274  42.335  39.203   7.650
 5682POPC   C1B32275  42.439  39.002   8.550
 5682POPC   C2B32276  42.469  39.047   8.250
 5682POPC   C3B32277  42.417  39.013   7.950
 5682POPC   C4B32278  42.443  38.968   7.650
 5683POPC   NC332279  44.653  26.807   9.450
 5683POPC   PO432280  44.636  26.855   9.150
 5683POPC   GL132281  44.629  26.817   8.850
 5683POPC   GL232282  44.600  26.735   8.850
 5683POPC   C1A32283  44.656  26.815   8.550
 5683POPC   D2A32284  44.661  26.803   8.250
 5683POPC   C3A32285  44.679  26.813   7.950
 5683POPC   C4A32286  44.616  26.773   7.650
 5683POPC   C1B32287  44.565  26.591   8.550
 5683POPC   C2B32288  44.522  26.602   8.250
 5683POPC   C3B32289  44.552  26.615   7.950
 5683POPC   C4B32290  44.467  26.575   7.650
 5684POPC   NC332291   4.305  29.959   9.450
 5684POPC   PO432292   4.277  29.906   9.150
 5684POPC   GL132293   4.278  29.907   8.850
 5684POPC   GL232294   4.171  29.832   8.850
 5684POPC   C1A32295   4.287  29.935   8.550
 5684POPC   D2A32296   4.314  29.966   8.250
 5684POPC   C3A32297   4.281  29.901   7.950
 5684POPC   C4A32298   4.309  29.875   7.650
 5684POPC   C1B32299   4.107  29.874   8.550
 5684POPC   C2B32300   4.111  29.844   8.250
 5684POPC   C3B32301   4.097  29.796   7.950
 5684POPC   C4B32302   4.078  29.869   7.650
 5685POPC   NC332303  38.498  15.145   9.450
 5685POPC   PO432304  38.455  15.196   9.150
 5685POPC   GL132305  38.474  15.224   8.850
 5685POPC   GL232306  38.537  15.118   8.850
 5685POPC   C1A32307  38.502  15.160   8.550
 5685POPC   D2A32308  38.421  15.194   8.250
 5685POPC   C3A32309  38.502  15.205   7.950
 5685POPC   C4A32310  38.490  15.189   7.650
 5685POPC   C1B32311  38.563  15.022   8.550
 5685POPC   C2B32312  38.552  14.944   8.250
 5685POPC   C3B32313  38.644  14.990   7.950
 5685POPC   C4B32314  38.559  14.990   7.650
 5686POPC   NC332315   5.075  13.657   9.450
 5686POPC   PO432316   5.117  13.633   9.150
 5686POPC   GL132317   5.104  13.664   8.850
 5686POPC   GL232318   4.984  13.528   8.850
 5686POPC   C1A32319   5.093  13.617   8.550
 5686POPC   D2A32320   5.096  13.631   8.250
 5686POPC   C3A32321   5.097  13.646   7.950
 5686POPC   C4A32322   5.132  13.584   7.650
 5686POPC   C1B32323   4.883  13.526   8.550
 5686POPC   C2B32324   4.899  13.490   8.250
 5686POPC   C3B32325   4.851  13.552   7.950
 5686POPC   C4B32326   4.857  13.537   7.650
 5687POPC   NC332327  44.660   0.487   9.450
 5687POPC   PO432328  44.683   0.412   9.150
 5687POPC   GL132329  44.615   0.481   8.850
 5687POPC   GL232330  44.742   0.497   8.850
 5687POPC   C1A32331  44.624   0.464   8.550
 5687POPC   D2A32332  44.645   0.445   8.250
 5687POPC   C3A32333  44.692   0.467   7.950
 5687POPC   C4A32334  44.618   0.440   7.650
 5687POPC   C1B32335  44.862   0.479   8.550
 5687POPC   C2B32336  44.874   0.419   8.250
 5687POPC   C3B32337  44.874   0.498   7.950
 5687POPC   C4B32338  44.886   0.452   7.650
 5688POPC   NC332339  25.259  42.370   9.450
 5688POPC   PO432340  25.288  42.301   9.150
 5688POPC   GL132341  25.297  42.315   8.850
 5688POPC   GL232342  25.149  42.460   8.850
 5688POPC   C1A32343  25.231  42.292   8.550
 5688POPC   D2A32344  25.253  42.296   8.250
 5688POPC   C3A32345  25.226  42.327   7.950
 5688POPC   C4A32346  25.253  42.334   7.650
 5688POPC   C1B32347  25.125  42.478   8.550
 5688POPC   C2B32348  25.054  42.502   8.250
 5688POPC   C3B32349  25.054  42.546   7.950
 5688POPC   C4B32350  25.137  42.560   7.650
 5689POPC   NC332351  17.475  29.921   9.450
 5689POPC   PO432352  17.481  29.891   9.150
 5689POPC   GL132353  17.461  29.913   8.850
 5689POPC   GL232354  17.571  30.058   8.850
 5689POPC   C1A32355  17.512  29.884   8.550
 5689POPC   D2A32356  17.544  29.960   8.250
 5689POPC   C3A32357  17.556  29.872   7.950
 5689POPC   C4A32358  17.457  29.915   7.650
 5689POPC   C1B32359  17.600  30.109   8.550
 5689POPC   C2B32360  17.612  30.125   8.250
 5689POPC   C3B32361  17.643  30.184   7.950
 5689POPC   C4B32362  17.621  30.168   7.650
 5690POPC   NC332363  30.699  36.104   9.450
 5690POPC   PO432364  30.704  36.086   9.150
 5690POPC   GL132365  30.704  36.125   8.850
 5690POPC   GL232366  30.592  36.062   8.850
 5690POPC   C1A32367  30.720  36.145   8.550
 5690POPC   D2A32368  30.659  36.139   8.250
 5690POPC   C3A32369  30.676  36.150   7.950
 5690POPC   C4A32370  30.724  36.131   7.650
 5690POPC   C1B32371  30.499  35.923   8.550
 5690POPC   C2B32372  30.482  35.972   8.250
 5690POPC   C3B32373  30.478  35.979   7.950
 5690POPC   C4B32374  30.530  35.971   7.650
 5691POPC   NC332375  25.269  26.071   9.450
 5691POPC   PO432376  25.284  26.018   9.150
 5691POPC   GL132377  25.285  26.017   8.850
 5691POPC   GL232378  25.300  25.880   8.850
 5691POPC   C1A32379  25.286  26.067   8.550
 5691POPC   D2A32380  25.222  26.016   8.250
 5691POPC   C3A32381  25.220  26.060   7.950
 5691POPC   C4A32382  25.256  26.057   7.650
 5691POPC   C1B32383  25.352  25.774   8.550
 5691POPC   C2B32384  25.301  25.794   8.250
 5691POPC   C3B32385  25.343  25.828   7.950
 5691POPC   C4B32386  25.308  25.787   7.650
 5692POPC   NC332387  34.582  41.518   9.450
 5692POPC   PO432388  34.546  41.555   9.150
 5692POPC   GL132389  34.575  41.537   8.850
 5692POPC   GL232390  34.466  41.507   8.850
 5692POPC   C1A32391  34.575  41.527   8.550
 5692POPC   D2A32392  34.621  41.553   8.250
 5692POPC   C3A32393  34.572  41.575   7.950
 5692POPC   C4A32394  34.596  41.602   7.650
 5692POPC   C1B32395  34.395  41.420   8.550
 5692POPC   C2B32396  34.391  41.457   8.250
 5692POPC   C3B32397  34.370  41.377   7.950
 5692POPC   C4B32398  34.332  41.378   7.650
 5693POPC   NC332399  20.643  33.042   9.450
 5693POPC   PO432400  20.628  33.002   9.150
 5693POPC   GL132401  20.566  32.975   8.850
 5693POPC   GL232402  20.466  33.066   8.850
 5693POPC   C1A32403  20.642  33.046   8.550
 5693POPC   D2A32404  20.592  33.043   8.250
 5693POPC   C3A32405  20.657  33.049   7.950
 5693POPC   C4A32406  20.600  33.005   7.650
 5693POPC   C1B32407  20.432  33.178   8.550
 5693POPC   C2B32408  20.367  33.182   8.250
 5693POPC   C3B32409  20.383  33.149   7.950
 5693POPC   C4B32410  20.382  33.177   7.650
 5694POPC   NC332411   5.063  43.138   9.450
 5694POPC   PO432412   5.075  43.117   9.150
 5694POPC   GL132413   5.054  43.143   8.850
 5694POPC   GL232414   5.043  43.180   8.850
 5694POPC   C1A32415   5.054  43.083   8.550
 5694POPC   D2A32416   5.081  43.098   8.250
 5694POPC   C3A32417   5.075  43.153   7.950
 5694POPC   C4A32418   5.056  43.156   7.650
 5694POPC   C1B32419   4.933  43.353   8.550
 5694POPC   C2B32420   4.965  43.335   8.250
 5694POPC   C3B32421   4.949  43.343   7.950
 5694POPC   C4B32422   5.032  43.297   7.650
 5695POPC   NC332423  30.661  24.505   9.450
 5695POPC   PO432424  30.673  24.472   9.150
 5695POPC   GL132425  30.746  24.495   8.850
 5695POPC   GL232426  30.685  24.364   8.850
 5695POPC   C1A32427  30.730  24.477   8.550
 5695POPC   D2A32428  30.693  24.491   8.250
 5695POPC   C3A32429  30.729  24.447   7.950
 5695POPC   C4A32430  30.741  24.491   7.650
 5695POPC   C1B32431  30.589  24.255   8.550
 5695POPC   C2B32432  30.529  24.252   8.250
 5695POPC   C3B32433  30.540  24.233   7.950
 5695POPC   C4B32434  30.559  24.306   7.650
 5696POPC   NC332435  23.723  29.125   9.450
 5696POPC   PO432436  23.684  29.132   9.150
 5696POPC   GL132437  23.747  29.179   8.850
 5696POPC   GL232438  23.834  29.175   8.850
 5696POPC   C1A32439  23.733  29.101   8.550
 5696POPC   D2A32440  23.705  29.194   8.250
 5696POPC   C3A32441  23.727  29.142   7.950
 5696POPC   C4A32442  23.739  29.118   7.650
 5696POPC   C1B32443  23.995  29.115   8.550
 5696POPC   C2B32444  23.961  29.117   8.250
 5696POPC   C3B32445  23.935  29.078   7.950
 5696POPC   C4B32446  24.001  29.132   7.650
 5697POPC   NC332447  26.056  30.730   9.450
 5697POPC   PO432448  26.049  30.703   9.150
 5697POPC   GL132449  26.076  30.653   8.850
 5697POPC   GL232450  26.002  30.836   8.850
 5697POPC   C1A32451  26.040  30.678   8.550
 5697POPC   D2A32452  26.056  30.706   8.250
 5697POPC   C3A32453  25.999  30.667   7.950
 5697POPC   C4A32454  26.079  30.712   7.650
 5697POPC   C1B32455  26.053  30.986   8.550
 5697POPC   C2B32456  26.022  30.961   8.250
 5697POPC   C3B32457  26.052  30.994   7.950
 5697POPC   C4B32458  26.088  30.902   7.650
 5698POPC   NC332459  40.819  24.515   9.450
 5698POPC   PO432460  40.780  24.533   9.150
 5698POPC   GL132461  40.814  24.499   8.850
 5698POPC   GL232462  40.812  24.375   8.850
 5698POPC   C1A32463  40.765  24.459   8.550
 5698POPC   D2A32464  40.734  24.519   8.250
 5698POPC   C3A32465  40.755  24.466   7.950
 5698POPC   C4A32466  40.760  24.483   7.650
 5698POPC   C1B32467  40.841  24.247   8.550
 5698POPC   C2B32468  40.821  24.266   8.250
 5698POPC   C3B32469  40.823  24.242   7.950
 5698POPC   C4B32470  40.798  24.275   7.650
 5699POPC   NC332471  36.155  36.900   9.450
 5699POPC   PO432472  36.081  36.935   9.150
 5699POPC   GL132473  36.149  36.888   8.850
 5699POPC   GL232474  36.166  36.984   8.850
 5699POPC   C1A32475  36.099  36.901   8.550
 5699POPC   D2A32476  36.161  36.865   8.250
 5699POPC   C3A32477  36.150  36.927   7.950
 5699POPC   C4A32478  36.129  36.880   7.650
 5699POPC   C1B32479  36.183  37.198   8.550
 5699POPC   C2B32480  36.104  37.111   8.250
 5699POPC   C3B32481  36.128  37.123   7.950
 5699POPC   C4B32482  36.093  37.133   7.650
 5700POPC   NC332483  32.292  41.557   9.450
 5700POPC   PO432484  32.241  41.524   9.150
 5700POPC   GL132485  32.243  41.530   8.850
 5700POPC   GL232486  32.103  41.564   8.850
 5700POPC   C1A32487  32.252  41.518   8.550
 5700POPC   D2A32488  32.271  41.530   8.250
 5700POPC   C3A32489  32.255  41.528   7.950
 5700POPC   C4A32490  32.256  41.533   7.650
 5700POPC   C1B32491  32.038  41.511   8.550
 5700POPC   C2B32492  32.028  41.533   8.250
 5700POPC   C3B32493  31.961  41.512   7.950
 5700POPC   C4B32494  32.026  41.504   7.650
 5701POPC   NC332495  15.179  41.558   9.450
 5701POPC   PO432496  15.197  41.555   9.150
 5701POPC   GL132497  15.147  41.526   8.850
 5701POPC   GL232498  15.250  41.394   8.850
 5701POPC   C1A32499  15.199  41.568   8.550
 5701POPC   D2A32500  15.158  41.602   8.250
 5701POPC   C3A32501  15.181  41.569   7.950
 5701POPC   C4A32502  15.225  41.607   7.650
 5701POPC   C1B32503  15.288  41.307   8.550
 5701POPC   C2B32504  15.245  41.345   8.250
 5701POPC   C3B32505  15.236  41.368   7.950
 5701POPC   C4B32506  15.299  41.318   7.650
 5702POPC   NC332507  34.609  20.588   9.450
 5702POPC   PO432508  34.589  20.572   9.150
 5702POPC   GL132509  34.597  20.627   8.850
 5702POPC   GL232510  34.547  20.695   8.850
 5702POPC   C1A32511  34.533  20.593   8.550
 5702POPC   D2A32512  34.592  20.644   8.250
 5702POPC   C3A32513  34.534  20.572   7.950
 5702POPC   C4A32514  34.570  20.606   7.650
 5702POPC   C1B32515  34.553  20.841   8.550
 5702POPC   C2B32516  34.517  20.837   8.250
 5702POPC   C3B32517  34.493  20.810   7.950
 5702POPC   C4B32518  34.551  20.843   7.650
 5703POPC   NC332519  20.567   5.115   9.450
 5703POPC   PO432520  20.616   5.077   9.150
 5703POPC   GL132521  20.575   5.124   8.850
 5703POPC   GL232522  20.696   4.987   8.850
 5703POPC   C1A32523  20.657   5.068   8.550
 5703POPC   D2A32524  20.577   5.143   8.250
 5703POPC   C3A32525  20.633   5.126   7.950
 5703POPC   C4A32526  20.594   5.126   7.650
 5703POPC   C1B32527  20.765   4.927   8.550
 5703POPC   C2B32528  20.736   4.901   8.250
 5703POPC   C3B32529  20.823   4.945   7.950
 5703POPC   C4B32530  20.779   4.893   7.650
 5704POPC   NC332531  30.694  25.254   9.450
 5704POPC   PO432532  30.697  25.240   9.150
 5704POPC   GL132533  30.723  25.296   8.850
 5704POPC   GL232534  30.649  25.101   8.850
 5704POPC   C1A32535  30.728  25.285   8.550
 5704POPC   D2A32536  30.731  25.230   8.250
 5704POPC   C3A32537  30.676  25.246   7.950
 5704POPC   C4A32538  30.726  25.309   7.650
 5704POPC   C1B32539  30.598  25.034   8.550
 5704POPC   C2B32540  30.581  25.052   8.250
 5704POPC   C3B32541  30.631  25.040   7.950
 5704POPC   C4B32542  30.611  25.003   7.650
 5705POPC   NC332543  30.713  26.768   9.450
 5705POPC   PO432544  30.654  26.768   9.150
 5705POPC   GL132545  30.718  26.862   8.850
 5705POPC   GL232546  30.823  26.783   8.850
 5705POPC   C1A32547  30.685  26.854   8.550
 5705POPC   D2A32548  30.703  26.813   8.250
 5705POPC   C3A32549  30.685  26.786   7.950
 5705POPC   C4A32550  30.665  26.863   7.650
 5705POPC   C1B32551  30.911  26.810   8.550
 5705POPC   C2B32552  30.956  26.735   8.250
 5705POPC   C3B32553  30.920  26.763   7.950
 5705POPC   C4B32554  30.987  26.795   7.650
 5706POPC   NC332555   1.207  43.860   9.450
 5706POPC   PO432556   1.232  43.893   9.150
 5706POPC   GL132557   1.241  43.899   8.850
 5706POPC   GL232558   1.124  43.869   8.850
 5706POPC   C1A32559   1.193  43.922   8.550
 5706POPC   D2A32560   1.239  43.840   8.250
 5706POPC   C3A32561   1.232  43.850   7.950
 5706POPC   C4A32562   1.210  43.935   7.650
 5706POPC   C1B32563   0.955  43.859   8.550
 5706POPC   C2B32564   0.970  43.830   8.250
 5706POPC   C3B32565   0.929  43.918   7.950
 5706POPC   C4B32566   0.989  43.885   7.650
 5707POPC   NC332567   5.107   8.235   9.450
 5707POPC   PO432568   5.100   8.197   9.150
 5707POPC   GL132569   5.124   8.207   8.850
 5707POPC   GL232570   4.946   8.302   8.850
 5707POPC   C1A32571   5.077   8.213   8.550
 5707POPC   D2A32572   5.045   8.239   8.250
 5707POPC   C3A32573   5.098   8.162   7.950
 5707POPC   C4A32574   5.121   8.228   7.650
 5707POPC   C1B32575   4.922   8.312   8.550
 5707POPC   C2B32576   4.838   8.286   8.250
 5707POPC   C3B32577   4.920   8.327   7.950
 5707POPC   C4B32578   4.877   8.304   7.650
 5708POPC   NC332579   5.834  41.544   9.450
 5708POPC   PO432580   5.890  41.589   9.150
 5708POPC   GL132581   5.851  41.556   8.850
 5708POPC   GL232582   5.764  41.702   8.850
 5708POPC   C1A32583   5.914  41.510   8.550
 5708POPC   D2A32584   5.876  41.557   8.250
 5708POPC   C3A32585   5.830  41.541   7.950
 5708POPC   C4A32586   5.863  41.578   7.650
 5708POPC   C1B32587   5.730  41.734   8.550
 5708POPC   C2B32588   5.719  41.764   8.250
 5708POPC   C3B32589   5.695  41.710   7.950
 5708POPC   C4B32590   5.670  41.764   7.650
 5709POPC   NC332591  20.575   2.765   9.450
 5709POPC   PO432592  20.576   2.731   9.150
 5709POPC   GL132593  20.642   2.746   8.850
 5709POPC   GL232594  20.714   2.781   8.850
 5709POPC   C1A32595  20.602   2.734   8.550
 5709POPC   D2A32596  20.583   2.746   8.250
 5709POPC   C3A32597  20.635   2.749   7.950
 5709POPC   C4A32598  20.630   2.725   7.650
 5709POPC   C1B32599  20.848   2.725   8.550
 5709POPC   C2B32600  20.828   2.782   8.250
 5709POPC   C3B32601  20.865   2.712   7.950
 5709POPC   C4B32602  20.810   2.721   7.650
 5710POPC   NC332603  22.192  33.052   9.450
 5710POPC   PO432604  22.158  33.018   9.150
 5710POPC   GL132605  22.150  33.069   8.850
 5710POPC   GL232606  22.101  33.116   8.850
 5710POPC   C1A32607  22.114  32.983   8.550
 5710POPC   D2A32608  22.179  33.064   8.250
 5710POPC   C3A32609  22.132  33.004   7.950
 5710POPC   C4A32610  22.187  32.995   7.650
 5710POPC   C1B32611  21.994  33.209   8.550
 5710POPC   C2B32612  21.954  33.174   8.250
 5710POPC   C3B32613  22.044  33.229   7.950
 5710POPC   C4B32614  22.042  33.184   7.650
 5711POPC   NC332615  12.100  41.525   9.450
 5711POPC   PO432616  12.118  41.517   9.150
 5711POPC   GL132617  12.067  41.560   8.850
 5711POPC   GL232618  12.006  41.646   8.850
 5711POPC   C1A32619  12.106  41.598   8.550
 5711POPC   D2A32620  12.117  41.575   8.250
 5711POPC   C3A32621  12.037  41.584   7.950
 5711POPC   C4A32622  12.069  41.523   7.650
 5711POPC   C1B32623  11.866  41.742   8.550
 5711POPC   C2B32624  11.922  41.683   8.250
 5711POPC   C3B32625  11.920  41.755   7.950
 5711POPC   C4B32626  11.885  41.699   7.650
 5712POPC   NC332627  43.097  15.191   9.450
 5712POPC   PO432628  43.123  15.221   9.150
 5712POPC   GL132629  43.138  15.139   8.850
 5712POPC   GL232630  43.226  15.232   8.850
 5712POPC   C1A32631  43.097  15.155   8.550
 5712POPC   D2A32632  43.116  15.194   8.250
 5712POPC   C3A32633  43.091  15.188   7.950
 5712POPC   C4A32634  43.144  15.147   7.650
 5712POPC   C1B32635  43.345  15.240   8.550
 5712POPC   C2B32636  43.346  15.239   8.250
 5712POPC   C3B32637  43.348  15.283   7.950
 5712POPC   C4B32638  43.376  15.287   7.650
 5713POPC   NC332639  44.679  19.045   9.450
 5713POPC   PO432640  44.655  19.079   9.150
 5713POPC   GL132641  44.647  19.056   8.850
 5713POPC   GL232642  44.556  19.050   8.850
 5713POPC   C1A32643  44.696  19.077   8.550
 5713POPC   D2A32644  44.657  19.044   8.250
 5713POPC   C3A32645  44.665  19.057   7.950
 5713POPC   C4A32646  44.669  19.074   7.650
 5713POPC   C1B32647  44.430  19.100   8.550
 5713POPC   C2B32648  44.458  19.091   8.250
 5713POPC   C3B32649  44.401  19.179   7.950
 5713POPC   C4B32650  44.377  19.098   7.650
 5714POPC   NC332651  30.717   2.802   9.450
 5714POPC   PO432652  30.661   2.731   9.150
 5714POPC   GL132653  30.686   2.782   8.850
 5714POPC   GL232654  30.598   2.635   8.850
 5714POPC   C1A32655  30.734   2.807   8.550
 5714POPC   D2A32656  30.729   2.785   8.250
 5714POPC   C3A32657  30.727   2.752   7.950
 5714POPC   C4A32658  30.730   2.724   7.650
 5714POPC   C1B32659  30.575   2.574   8.550
 5714POPC   C2B32660  30.605   2.526   8.250
 5714POPC   C3B32661  30.549   2.562   7.950
 5714POPC   C4B32662  30.620   2.568   7.650
 5715POPC   NC332663  22.177  34.532   9.450
 5715POPC   PO432664  22.147  34.550   9.150
 5715POPC   GL132665  22.147  34.589   8.850
 5715POPC   GL232666  22.142  34.438   8.850
 5715POPC   C1A32667  22.168  34.559   8.550
 5715POPC   D2A32668  22.182  34.597   8.250
 5715POPC   C3A32669  22.115  34.581   7.950
 5715POPC   C4A32670  22.164  34.533   7.650
 5715POPC   C1B32671  22.197  34.327   8.550
 5715POPC   C2B32672  22.149  34.328   8.250
 5715POPC   C3B32673  22.147  34.361   7.950
 5715POPC   C4B32674  22.156  34.357   7.650
 5716POPC   NC332675   5.085   1.989   9.450
 5716POPC   PO432676   5.071   1.970   9.150
 5716POPC   GL132677   5.143   2.013   8.850
 5716POPC   GL232678   5.151   1.837   8.850
 5716POPC   C1A32679   5.119   2.024   8.550
 5716POPC   D2A32680   5.087   2.034   8.250
 5716POPC   C3A32681   5.077   2.003   7.950
 5716POPC   C4A32682   5.120   1.990   7.650
 5716POPC   C1B32683   5.103   1.744   8.550
 5716POPC   C2B32684   5.138   1.787   8.250
 5716POPC   C3B32685   5.137   1.764   7.950
 5716POPC   C4B32686   5.099   1.767   7.650
 5717POPC   NC332687   4.342   1.247   9.450
 5717POPC   PO432688   4.342   1.190   9.150
 5717POPC   GL132689   4.341   1.237   8.850
 5717POPC   GL232690   4.373   1.261   8.850
 5717POPC   C1A32691   4.347   1.214   8.550
 5717POPC   D2A32692   4.295   1.264   8.250
 5717POPC   C3A32693   4.360   1.203   7.950
 5717POPC   C4A32694   4.313   1.241   7.650
 5717POPC   C1B32695   4.534   1.350   8.550
 5717POPC   C2B32696   4.493   1.439   8.250
 5717POPC   C3B32697   4.540   1.377   7.950
 5717POPC   C4B32698   4.474   1.398   7.650
 5718POPC   NC332699  36.908  20.637   9.450
 5718POPC   PO432700  36.940  20.643   9.150
 5718POPC   GL132701  36.924  20.650   8.850
 5718POPC   GL232702  36.976  20.702   8.850
 5718POPC   C1A32703  36.947  20.647   8.550
 5718POPC   D2A32704  36.888  20.644   8.250
 5718POPC   C3A32705  36.899  20.614   7.950
 5718POPC   C4A32706  36.854  20.575   7.650
 5718POPC   C1B32707  36.942  20.804   8.550
 5718POPC   C2B32708  36.919  20.845   8.250
 5718POPC   C3B32709  37.016  20.828   7.950
 5718POPC   C4B32710  36.967  20.804   7.650
 5719POPC   NC332711   4.318   5.106   9.450
 5719POPC   PO432712   4.282   5.138   9.150
 5719POPC   GL132713   4.280   5.057   8.850
 5719POPC   GL232714   4.415   5.191   8.850
 5719POPC   C1A32715   4.335   5.060   8.550
 5719POPC   D2A32716   4.351   5.129   8.250
 5719POPC   C3A32717   4.313   5.111   7.950
 5719POPC   C4A32718   4.344   5.063   7.650
 5719POPC   C1B32719   4.499   5.298   8.550
 5719POPC   C2B32720   4.515   5.300   8.250
 5719POPC   C3B32721   4.420   5.333   7.950
 5719POPC   C4B32722   4.464   5.285   7.650
 5720POPC   NC332723   8.175   5.909   9.450
 5720POPC   PO432724   8.222   5.838   9.150
 5720POPC   GL132725   8.149   5.864   8.850
 5720POPC   GL232726   8.229   5.977   8.850
 5720POPC   C1A32727   8.170   5.900   8.550
 5720POPC   D2A32728   8.199   5.829   8.250
 5720POPC   C3A32729   8.228   5.871   7.950
 5720POPC   C4A32730   8.227   5.866   7.650
 5720POPC   C1B32731   8.180   6.164   8.550
 5720POPC   C2B32732   8.203   6.092   8.250
 5720POPC   C3B32733   8.205   6.106   7.950
 5720POPC   C4B32734   8.135   6.069   7.650
 5721POPC   NC332735   3.580  16.770   9.450
 5721POPC   PO432736   3.536  16.732   9.150
 5721POPC   GL132737   3.524  16.731   8.850
 5721POPC   GL232738   3.472  16.839   8.850
 5721POPC   C1A32739   3.521  16.729   8.550
 5721POPC   D2A32740   3.538  16.765   8.250
 5721POPC   C3A32741   3.571  16.755   7.950
 5721POPC   C4A32742   3.524  16.771   7.650
 5721POPC   C1B32743   3.367  16.819   8.550
 5721POPC   C2B32744   3.357  16.892   8.250
 5721POPC   C3B32745   3.360  16.859   7.950
 5721POPC   C4B32746   3.300  16.826   7.650
 5722POPC   NC332747   0.414  12.101   9.450
 5722POPC   PO432748   0.424  12.064   9.150
 5722POPC   GL132749   0.456  12.040   8.850
 5722POPC   GL232750   0.362  12.028   8.850
 5722POPC   C1A32751   0.469  12.097   8.550
 5722POPC   D2A32752   0.461  12.094   8.250
 5722POPC   C3A32753   0.418  12.046   7.950
 5722POPC   C4A32754   0.437  12.074   7.650
 5722POPC   C1B32755   0.225  11.972   8.550
 5722POPC   C2B32756   0.228  11.954   8.250
 5722POPC   C3B32757   0.244  11.946   7.950
 5722POPC   C4B32758   0.217  11.982   7.650
 5723POPC   NC332759   8.213  10.500   9.450
 5723POPC   PO432760   8.231  10.540   9.150
 5723POPC   GL132761   8.228  10.528   8.850
 5723POPC   GL232762   8.138  10.691   8.850
 5723POPC   C1A32763   8.194  10.564   8.550
 5723POPC   D2A32764   8.207  10.482   8.250
 5723POPC   C3A32765   8.159  10.571   7.950
 5723POPC   C4A32766   8.156  10.502   7.650
 5723POPC   C1B32767   8.124  10.735   8.550
 5723POPC   C2B32768   8.160  10.741   8.250
 5723POPC   C3B32769   8.104  10.751   7.950
 5723POPC   C4B32770   8.063  10.732   7.650
 5724POPC   NC332771   8.930  36.081   9.450
 5724POPC   PO432772   8.933  36.166   9.150
 5724POPC   GL132773   9.002  36.116   8.850
 5724POPC   GL232774   8.849  36.175   8.850
 5724POPC   C1A32775   8.944  36.154   8.550
 5724POPC   D2A32776   8.950  36.138   8.250
 5724POPC   C3A32777   9.019  36.118   7.950
 5724POPC   C4A32778   9.011  36.099   7.650
 5724POPC   C1B32779   8.851  36.327   8.550
 5724POPC   C2B32780   8.790  36.285   8.250
 5724POPC   C3B32781   8.820  36.324   7.950
 5724POPC   C4B32782   8.797  36.272   7.650
 5725POPC   NC332783   6.618  36.109   9.450
 5725POPC   PO432784   6.623  36.133   9.150
 5725POPC   GL132785   6.671  36.097   8.850
 5725POPC   GL232786   6.714  36.029   8.850
 5725POPC   C1A32787   6.621  36.114   8.550
 5725POPC   D2A32788   6.665  36.107   8.250
 5725POPC   C3A32789   6.624  36.177   7.950
 5725POPC   C4A32790   6.682  36.129   7.650
 5725POPC   C1B32791   6.788  35.974   8.550
 5725POPC   C2B32792   6.803  35.910   8.250
 5725POPC   C3B32793   6.765  35.986   7.950
 5725POPC   C4B32794   6.838  35.919   7.650
 5726POPC   NC332795  29.133  24.471   9.450
 5726POPC   PO432796  29.126  24.473   9.150
 5726POPC   GL132797  29.107  24.475   8.850
 5726POPC   GL232798  29.263  24.468   8.850
 5726POPC   C1A32799  29.121  24.479   8.550
 5726POPC   D2A32800  29.127  24.454   8.250
 5726POPC   C3A32801  29.136  24.483   7.950
 5726POPC   C4A32802  29.130  24.508   7.650
 5726POPC   C1B32803  29.349  24.345   8.550
 5726POPC   C2B32804  29.361  24.390   8.250
 5726POPC   C3B32805  29.394  24.404   7.950
 5726POPC   C4B32806  29.349  24.322   7.650
 5727POPC   NC332807  42.374  12.053   9.450
 5727POPC   PO432808  42.358  12.102   9.150
 5727POPC   GL132809  42.306  12.080   8.850
 5727POPC   GL232810  42.419  11.957   8.850
 5727POPC   C1A32811  42.292  12.067   8.550
 5727POPC   D2A32812  42.324  12.123   8.250
 5727POPC   C3A32813  42.347  12.065   7.950
 5727POPC   C4A32814  42.328  12.113   7.650
 5727POPC   C1B32815  42.466  11.894   8.550
 5727POPC   C2B32816  42.394  11.851   8.250
 5727POPC   C3B32817  42.451  11.885   7.950
 5727POPC   C4B32818  42.420  11.848   7.650
 5728POPC   NC332819   7.419  22.962   9.450
 5728POPC   PO432820   7.436  22.929   9.150
 5728POPC   GL132821   7.445  22.957   8.850
 5728POPC   GL232822   7.460  23.011   8.850
 5728POPC   C1A32823   7.418  22.911   8.550
 5728POPC   D2A32824   7.445  22.932   8.250
 5728POPC   C3A32825   7.397  22.948   7.950
 5728POPC   C4A32826   7.391  22.938   7.650
 5728POPC   C1B32827   7.514  23.135   8.550
 5728POPC   C2B32828   7.559  23.180   8.250
 5728POPC   C3B32829   7.501  23.170   7.950
 5728POPC   C4B32830   7.595  23.149   7.650
 5729POPC   NC332831   9.792   4.333   9.450
 5729POPC   PO432832   9.786   4.331   9.150
 5729POPC   GL132833   9.749   4.281   8.850
 5729POPC   GL232834   9.778   4.461   8.850
 5729POPC   C1A32835   9.796   4.361   8.550
 5729POPC   D2A32836   9.784   4.297   8.250
 5729POPC   C3A32837   9.704   4.350   7.950
 5729POPC   C4A32838   9.701   4.339   7.650
 5729POPC   C1B32839   9.742   4.606   8.550
 5729POPC   C2B32840   9.817   4.590   8.250
 5729POPC   C3B32841   9.740   4.587   7.950
 5729POPC   C4B32842   9.735   4.550   7.650
 5730POPC   NC332843  28.390  18.279   9.450
 5730POPC   PO432844  28.348  18.267   9.150
 5730POPC   GL132845  28.417  18.275   8.850
 5730POPC   GL232846  28.362  18.446   8.850
 5730POPC   C1A32847  28.388  18.251   8.550
 5730POPC   D2A32848  28.392  18.266   8.250
 5730POPC   C3A32849  28.336  18.266   7.950
 5730POPC   C4A32850  28.388  18.253   7.650
 5730POPC   C1B32851  28.399  18.522   8.550
 5730POPC   C2B32852  28.386  18.530   8.250
 5730POPC   C3B32853  28.383  18.501   7.950
 5730POPC   C4B32854  28.377  18.579   7.650
 5731POPC   NC332855  33.046  40.825   9.450
 5731POPC   PO432856  33.061  40.774   9.150
 5731POPC   GL132857  32.991  40.758   8.850
 5731POPC   GL232858  32.950  40.895   8.850
 5731POPC   C1A32859  33.007  40.761   8.550
 5731POPC   D2A32860  33.074  40.797   8.250
 5731POPC   C3A32861  33.063  40.797   7.950
 5731POPC   C4A32862  33.013  40.794   7.650
 5731POPC   C1B32863  32.798  40.972   8.550
 5731POPC   C2B32864  32.852  40.969   8.250
 5731POPC   C3B32865  32.776  40.915   7.950
 5731POPC   C4B32866  32.804  40.921   7.650
 5732POPC   NC332867  17.463  28.354   9.450
 5732POPC   PO432868  17.514  28.353   9.150
 5732POPC   GL132869  17.556  28.398   8.850
 5732POPC   GL232870  17.676  28.324   8.850
 5732POPC   C1A32871  17.539  28.343   8.550
 5732POPC   D2A32872  17.549  28.329   8.250
 5732POPC   C3A32873  17.482  28.323   7.950
 5732POPC   C4A32874  17.511  28.359   7.650
 5732POPC   C1B32875  17.768  28.301   8.550
 5732POPC   C2B32876  17.744  28.344   8.250
 5732POPC   C3B32877  17.759  28.388   7.950
 5732POPC   C4B32878  17.753  28.296   7.650
 5733POPC   NC332879  20.593  37.705   9.450
 5733POPC   PO432880  20.572  37.652   9.150
 5733POPC   GL132881  20.627  37.670   8.850
 5733POPC   GL232882  20.535  37.576   8.850
 5733POPC   C1A32883  20.614  37.646   8.550
 5733POPC   D2A32884  20.605  37.683   8.250
 5733POPC   C3A32885  20.602  37.643   7.950
 5733POPC   C4A32886  20.581  37.683   7.650
 5733POPC   C1B32887  20.455  37.537   8.550
 5733POPC   C2B32888  20.458  37.563   8.250
 5733POPC   C3B32889  20.425  37.523   7.950
 5733POPC   C4B32890  20.459  37.552   7.650
 5734POPC   NC332891   2.735  15.949   9.450
 5734POPC   PO432892   2.799  15.989   9.150
 5734POPC   GL132893   2.722  15.999   8.850
 5734POPC   GL232894   2.841  15.863   8.850
 5734POPC   C1A32895   2.782  15.962   8.550
 5734POPC   D2A32896   2.790  15.918   8.250
 5734POPC   C3A32897   2.726  15.932   7.950
 5734POPC   C4A32898   2.756  15.914   7.650
 5734POPC   C1B32899   2.984  15.875   8.550
 5734POPC   C2B32900   2.952  15.874   8.250
 5734POPC   C3B32901   2.996  15.801   7.950
 5734POPC   C4B32902   3.036  15.841   7.650
 5735POPC   NC332903  19.876   5.072   9.450
 5735POPC   PO432904  19.814   5.123   9.150
 5735POPC   GL132905  19.806   5.059   8.850
 5735POPC   GL232906  19.832   5.164   8.850
 5735POPC   C1A32907  19.809   5.078   8.550
 5735POPC   D2A32908  19.846   5.044   8.250
 5735POPC   C3A32909  19.848   5.108   7.950
 5735POPC   C4A32910  19.786   5.064   7.650
 5735POPC   C1B32911  19.777   5.331   8.550
 5735POPC   C2B32912  19.727   5.337   8.250
 5735POPC   C3B32913  19.770   5.363   7.950
 5735POPC   C4B32914  19.756   5.294   7.650
 5736POPC   NC332915  15.925   1.229   9.450
 5736POPC   PO432916  15.907   1.198   9.150
 5736POPC   GL132917  15.931   1.234   8.850
 5736POPC   GL232918  16.009   1.088   8.850
 5736POPC   C1A32919  15.966   1.176   8.550
 5736POPC   D2A32920  15.998   1.204   8.250
 5736POPC   C3A32921  15.990   1.177   7.950
 5736POPC   C4A32922  15.926   1.241   7.650
 5736POPC   C1B32923  16.118   0.955   8.550
 5736POPC   C2B32924  16.115   1.029   8.250
 5736POPC   C3B32925  16.090   0.969   7.950
 5736POPC   C4B32926  16.049   1.019   7.650
 5737POPC   NC332927  16.743  12.812   9.450
 5737POPC   PO432928  16.737  12.896   9.150
 5737POPC   GL132929  16.742  12.868   8.850
 5737POPC   GL232930  16.869  12.802   8.850
 5737POPC   C1A32931  16.724  12.879   8.550
 5737POPC   D2A32932  16.774  12.864   8.250
 5737POPC   C3A32933  16.683  12.861   7.950
 5737POPC   C4A32934  16.697  12.886   7.650
 5737POPC   C1B32935  17.001  12.748   8.550
 5737POPC   C2B32936  16.963  12.716   8.250
 5737POPC   C3B32937  16.960  12.731   7.950
 5737POPC   C4B32938  16.940  12.786   7.650
 5738POPC   NC332939  14.446   4.332   9.450
 5738POPC   PO432940  14.386   4.341   9.150
 5738POPC   GL132941  14.428   4.303   8.850
 5738POPC   GL232942  14.351   4.242   8.850
 5738POPC   C1A32943  14.438   4.350   8.550
 5738POPC   D2A32944  14.417   4.320   8.250
 5738POPC   C3A32945  14.439   4.354   7.950
 5738POPC   C4A32946  14.382   4.351   7.650
 5738POPC   C1B32947  14.389   4.096   8.550
 5738POPC   C2B32948  14.312   4.092   8.250
 5738POPC   C3B32949  14.384   4.094   7.950
 5738POPC   C4B32950  14.309   4.083   7.650
 5739POPC   NC332951  25.284  32.981   9.450
 5739POPC   PO432952  25.286  33.013   9.150
 5739POPC   GL132953  25.237  32.984   8.850
 5739POPC   GL232954  25.246  33.139   8.850
 5739POPC   C1A32955  25.274  32.999   8.550
 5739POPC   D2A32956  25.221  33.007   8.250
 5739POPC   C3A32957  25.270  33.008   7.950
 5739POPC   C4A32958  25.223  33.023   7.650
 5739POPC   C1B32959  25.251  33.234   8.550
 5739POPC   C2B32960  25.307  33.288   8.250
 5739POPC   C3B32961  25.326  33.270   7.950
 5739POPC   C4B32962  25.329  33.241   7.650
 5740POPC   NC332963  19.807   6.667   9.450
 5740POPC   PO432964  19.870   6.690   9.150
 5740POPC   GL132965  19.806   6.638   8.850
 5740POPC   GL232966  19.940   6.514   8.850
 5740POPC   C1A32967  19.822   6.659   8.550
 5740POPC   D2A32968  19.863   6.642   8.250
 5740POPC   C3A32969  19.835   6.615   7.950
 5740POPC   C4A32970  19.810   6.648   7.650
 5740POPC   C1B32971  19.953   6.420   8.550
 5740POPC   C2B32972  19.999   6.462   8.250
 5740POPC   C3B32973  19.943   6.429   7.950
 5740POPC   C4B32974  20.018   6.419   7.650
 5741POPC   NC332975  30.698  28.389   9.450
 5741POPC   PO432976  30.650  28.371   9.150
 5741POPC   GL132977  30.718  28.400   8.850
 5741POPC   GL232978  30.609  28.427   8.850
 5741POPC   C1A32979  30.746  28.357   8.550
 5741POPC   D2A32980  30.727  28.394   8.250
 5741POPC   C3A32981  30.685  28.341   7.950
 5741POPC   C4A32982  30.662  28.389   7.650
 5741POPC   C1B32983  30.529  28.521   8.550
 5741POPC   C2B32984  30.488  28.528   8.250
 5741POPC   C3B32985  30.539  28.560   7.950
 5741POPC   C4B32986  30.452  28.521   7.650
 5742POPC   NC332987   9.003  39.241   9.450
 5742POPC   PO432988   8.981  39.258   9.150
 5742POPC   GL132989   9.018  39.206   8.850
 5742POPC   GL232990   8.846  39.271   8.850
 5742POPC   C1A32991   9.006  39.182   8.550
 5742POPC   D2A32992   8.996  39.274   8.250
 5742POPC   C3A32993   8.998  39.252   7.950
 5742POPC   C4A32994   9.006  39.254   7.650
 5742POPC   C1B32995   8.788  39.384   8.550
 5742POPC   C2B32996   8.739  39.405   8.250
 5742POPC   C3B32997   8.776  39.347   7.950
 5742POPC   C4B32998   8.817  39.353   7.650
 5743POPC   NC332999  39.227  34.601   9.450
 5743POPC   PO433000  39.249  34.625   9.150
 5743POPC   GL133001  39.242  34.576   8.850
 5743POPC   GL233002  39.350  34.446   8.850
 5743POPC   C1A33003  39.231  34.570   8.550
 5743POPC   D2A33004  39.271  34.586   8.250
 5743POPC   C3A33005  39.186  34.561   7.950
 5743POPC   C4A33006  39.269  34.551   7.650
 5743POPC   C1B33007  39.377  34.363   8.550
 5743POPC   C2B33008  39.425  34.341   8.250
 5743POPC   C3B33009  39.387  34.385   7.950
 5743POPC   C4B33010  39.429  34.418   7.650
 5744POPC   NC333011  15.168  15.198   9.450
 5744POPC   PO433012  15.175  15.192   9.150
 5744POPC   GL133013  15.225  15.182   8.850
 5744POPC   GL233014  15.173  15.013   8.850
 5744POPC   C1A33015  15.148  15.145   8.550
 5744POPC   D2A33016  15.194  15.171   8.250
 5744POPC   C3A33017  15.173  15.187   7.950
 5744POPC   C4A33018  15.173  15.184   7.650
 5744POPC   C1B33019  15.132  14.969   8.550
 5744POPC   C2B33020  15.101  14.885   8.250
 5744POPC   C3B33021  15.165  14.909   7.950
 5744POPC   C4B33022  15.101  14.891   7.650
 5745POPC   NC333023  41.580  43.840   9.450
 5745POPC   PO433024  41.535  43.848   9.150
 5745POPC   GL133025  41.541  43.934   8.850
 5745POPC   GL233026  41.467  43.886   8.850
 5745POPC   C1A33027  41.549  43.921   8.550
 5745POPC   D2A33028  41.531  43.898   8.250
 5745POPC   C3A33029  41.549  43.932   7.950
 5745POPC   C4A33030  41.590  43.837   7.650
 5745POPC   C1B33031  41.339  43.846   8.550
 5745POPC   C2B33032  41.336  43.824   8.250
 5745POPC   C3B33033  41.336  43.831   7.950
 5745POPC   C4B33034  41.322  43.842   7.650
 5746POPC   NC333035   3.558  19.856   9.450
 5746POPC   PO433036   3.500  19.788   9.150
 5746POPC   GL133037   3.527  19.879   8.850
 5746POPC   GL233038   3.641  19.747   8.850
 5746POPC   C1A33039   3.498  19.788   8.550
 5746POPC   D2A33040   3.587  19.877   8.250
 5746POPC   C3A33041   3.518  19.836   7.950
 5746POPC   C4A33042   3.568  19.787   7.650
 5746POPC   C1B33043   3.754  19.735   8.550
 5746POPC   C2B33044   3.770  19.687   8.250
 5746POPC   C3B33045   3.761  19.660   7.950
 5746POPC   C4B33046   3.775  19.701   7.650
 5747POPC   NC333047  33.833  15.930   9.450
 5747POPC   PO433048  33.793  15.989   9.150
 5747POPC   GL133049  33.798  15.950   8.850
 5747POPC   GL233050  33.776  15.835   8.850
 5747POPC   C1A33051  33.797  15.993   8.550
 5747POPC   D2A33052  33.828  15.933   8.250
 5747POPC   C3A33053  33.812  15.995   7.950
 5747POPC   C4A33054  33.758  15.994   7.650
 5747POPC   C1B33055  33.633  15.759   8.550
 5747POPC   C2B33056  33.665  15.760   8.250
 5747POPC   C3B33057  33.685  15.756   7.950
 5747POPC   C4B33058  33.670  15.710   7.650
 5748POPC   NC333059  35.344  11.325   9.450
 5748POPC   PO433060  35.341  11.321   9.150
 5748POPC   GL133061  35.335  11.264   8.850
 5748POPC   GL233062  35.489  11.266   8.850
 5748POPC   C1A33063  35.321  11.305   8.550
 5748POPC   D2A33064  35.388  11.279   8.250
 5748POPC   C3A33065  35.309  11.262   7.950
 5748POPC   C4A33066  35.357  11.254   7.650
 5748POPC   C1B33067  35.580  11.199   8.550
 5748POPC   C2B33068  35.594  11.263   8.250
 5748POPC   C3B33069  35.605  11.175   7.950
 5748POPC   C4B33070  35.550  11.208   7.650
 5749POPC   NC333071   8.925   9.726   9.450
 5749POPC   PO433072   8.986   9.759   9.150
 5749POPC   GL133073   8.940   9.707   8.850
 5749POPC   GL233074   9.012   9.671   8.850
 5749POPC   C1A33075   9.000   9.704   8.550
 5749POPC   D2A33076   8.983   9.768   8.250
 5749POPC   C3A33077   8.980   9.751   7.950
 5749POPC   C4A33078   8.971   9.734   7.650
 5749POPC   C1B33079   9.060   9.510   8.550
 5749POPC   C2B33080   9.105   9.538   8.250
 5749POPC   C3B33081   9.070   9.490   7.950
 5749POPC   C4B33082   9.069   9.537   7.650
 5750POPC   NC333083  31.452   8.924   9.450
 5750POPC   PO433084  31.452   9.015   9.150
 5750POPC   GL133085  31.451   8.974   8.850
 5750POPC   GL233086  31.333   9.032   8.850
 5750POPC   C1A33087  31.520   8.946   8.550
 5750POPC   D2A33088  31.481   8.933   8.250
 5750POPC   C3A33089  31.494   8.934   7.950
 5750POPC   C4A33090  31.450   8.972   7.650
 5750POPC   C1B33091  31.238   9.103   8.550
 5750POPC   C2B33092  31.231   9.128   8.250
 5750POPC   C3B33093  31.326   9.153   7.950
 5750POPC   C4B33094  31.288   9.156   7.650
 5751POPC   NC333095  10.501  30.737   9.450
 5751POPC   PO433096  10.494  30.705   9.150
 5751POPC   GL133097  10.480  30.740   8.850
 5751POPC   GL233098  10.476  30.557   8.850
 5751POPC   C1A33099  10.569  30.648   8.550
 5751POPC   D2A33100  10.491  30.720   8.250
 5751POPC   C3A33101  10.535  30.710   7.950
 5751POPC   C4A33102  10.559  30.734   7.650
 5751POPC   C1B33103  10.415  30.494   8.550
 5751POPC   C2B33104  10.426  30.515   8.250
 5751POPC   C3B33105  10.420  30.522   7.950
 5751POPC   C4B33106  10.370  30.460   7.650
 5752POPC   NC333107  12.039  15.916   9.450
 5752POPC   PO433108  12.065  15.952   9.150
 5752POPC   GL133109  12.076  15.909   8.850
 5752POPC   GL233110  11.936  15.927   8.850
 5752POPC   C1A33111  12.038  15.937   8.550
 5752POPC   D2A33112  12.114  15.916   8.250
 5752POPC   C3A33113  12.083  15.912   7.950
 5752POPC   C4A33114  12.103  15.929   7.650
 5752POPC   C1B33115  11.780  15.950   8.550
 5752POPC   C2B33116  11.827  15.976   8.250
 5752POPC   C3B33117  11.781  15.971   7.950
 5752POPC   C4B33118  11.844  16.021   7.650
 5753POPC   NC333119  10.484  39.188   9.450
 5753POPC   PO433120  10.562  39.253   9.150
 5753POPC   GL133121  10.509  39.270   8.850
 5753POPC   GL233122  10.367  39.294   8.850
 5753POPC   C1A33123  10.563  39.246   8.550
 5753POPC   D2A33124  10.507  39.218   8.250
 5753POPC   C3A33125  10.564  39.195   7.950
 5753POPC   C4A33126  10.475  39.240   7.650
 5753POPC   C1B33127  10.284  39.305   8.550
 5753POPC   C2B33128  10.275  39.370   8.250
 5753POPC   C3B33129  10.324  39.330   7.950
 5753POPC   C4B33130  10.318  39.300   7.650
 5754POPC   NC333131  38.426  21.436   9.450
 5754POPC   PO433132  38.488  21.431   9.150
 5754POPC   GL133133  38.452  21.371   8.850
 5754POPC   GL233134  38.529  21.278   8.850
 5754POPC   C1A33135  38.442  21.356   8.550
 5754POPC   D2A33136  38.463  21.345   8.250
 5754POPC   C3A33137  38.444  21.386   7.950
 5754POPC   C4A33138  38.505  21.339   7.650
 5754POPC   C1B33139  38.638  21.187   8.550
 5754POPC   C2B33140  38.638  21.268   8.250
 5754POPC   C3B33141  38.684  21.257   7.950
 5754POPC   C4B33142  38.662  21.255   7.650
 5755POPC   NC333143  14.390  17.510   9.450
 5755POPC   PO433144  14.438  17.515   9.150
 5755POPC   GL133145  14.382  17.496   8.850
 5755POPC   GL233146  14.448  17.657   8.850
 5755POPC   C1A33147  14.405  17.474   8.550
 5755POPC   D2A33148  14.438  17.528   8.250
 5755POPC   C3A33149  14.373  17.503   7.950
 5755POPC   C4A33150  14.428  17.514   7.650
 5755POPC   C1B33151  14.559  17.664   8.550
 5755POPC   C2B33152  14.579  17.733   8.250
 5755POPC   C3B33153  14.515  17.752   7.950
 5755POPC   C4B33154  14.528  17.710   7.650
 5756POPC   NC333155  43.119  31.507   9.450
 5756POPC   PO433156  43.064  31.433   9.150
 5756POPC   GL133157  43.122  31.505   8.850
 5756POPC   GL233158  43.105  31.570   8.850
 5756POPC   C1A33159  43.120  31.474   8.550
 5756POPC   D2A33160  43.095  31.482   8.250
 5756POPC   C3A33161  43.084  31.469   7.950
 5756POPC   C4A33162  43.121  31.433   7.650
 5756POPC   C1B33163  43.108  31.728   8.550
 5756POPC   C2B33164  43.090  31.683   8.250
 5756POPC   C3B33165  43.155  31.706   7.950
 5756POPC   C4B33166  43.117  31.736   7.650
 5757POPC   NC333167  36.125   6.632   9.450
 5757POPC   PO433168  36.109   6.690   9.150
 5757POPC   GL133169  36.091   6.694   8.850
 5757POPC   GL233170  36.099   6.797   8.850
 5757POPC   C1A33171  36.119   6.668   8.550
 5757POPC   D2A33172  36.171   6.607   8.250
 5757POPC   C3A33173  36.157   6.642   7.950
 5757POPC   C4A33174  36.084   6.693   7.650
 5757POPC   C1B33175  36.141   6.865   8.550
 5757POPC   C2B33176  36.129   6.888   8.250
 5757POPC   C3B33177  36.148   6.846   7.950
 5757POPC   C4B33178  36.076   6.850   7.650
 5758POPC   NC333179  22.983  11.290   9.450
 5758POPC   PO433180  22.904  11.293   9.150
 5758POPC   GL133181  22.964  11.252   8.850
 5758POPC   GL233182  22.838  11.186   8.850
 5758POPC   C1A33183  22.895  11.342   8.550
 5758POPC   D2A33184  22.923  11.251   8.250
 5758POPC   C3A33185  22.956  11.319   7.950
 5758POPC   C4A33186  22.947  11.309   7.650
 5758POPC   C1B33187  22.821  11.042   8.550
 5758POPC   C2B33188  22.779  11.071   8.250
 5758POPC   C3B33189  22.771  11.113   7.950
 5758POPC   C4B33190  22.769  11.132   7.650
 5759POPC   NC333191  36.139  25.276   9.450
 5759POPC   PO433192  36.166  25.291   9.150
 5759POPC   GL133193  36.084  25.267   8.850
 5759POPC   GL233194  35.972  25.328   8.850
 5759POPC   C1A33195  36.155  25.267   8.550
 5759POPC   D2A33196  36.083  25.301   8.250
 5759POPC   C3A33197  36.145  25.288   7.950
 5759POPC   C4A33198  36.125  25.275   7.650
 5759POPC   C1B33199  35.912  25.386   8.550
 5759POPC   C2B33200  35.929  25.399   8.250
 5759POPC   C3B33201  35.937  25.379   7.950
 5759POPC   C4B33202  35.909  25.439   7.650
 5760POPC   NC333203   8.930  34.537   9.450
 5760POPC   PO433204   9.000  34.585   9.150
 5760POPC   GL133205   8.942  34.567   8.850
 5760POPC   GL233206   8.932  34.425   8.850
 5760POPC   C1A33207   8.955  34.530   8.550
 5760POPC   D2A33208   8.930  34.589   8.250
 5760POPC   C3A33209   8.956  34.555   7.950
 5760POPC   C4A33210   8.990  34.573   7.650
 5760POPC   C1B33211   8.877  34.300   8.550
 5760POPC   C2B33212   8.890  34.338   8.250
 5760POPC   C3B33213   8.893  34.305   7.950
 5760POPC   C4B33214   8.852  34.360   7.650
 5761POPC   NC333215   1.188  41.585   9.450
 5761POPC   PO433216   1.178  41.523   9.150
 5761POPC   GL133217   1.208  41.581   8.850
 5761POPC   GL233218   1.250  41.397   8.850
 5761POPC   C1A33219   1.239  41.564   8.550
 5761POPC   D2A33220   1.203  41.528   8.250
 5761POPC   C3A33221   1.189  41.543   7.950
 5761POPC   C4A33222   1.197  41.512   7.650
 5761POPC   C1B33223   1.279  41.277   8.550
 5761POPC   C2B33224   1.241  41.353   8.250
 5761POPC   C3B33225   1.222  41.271   7.950
 5761POPC   C4B33226   1.288  41.340   7.650
 5762POPC   NC333227  16.750  32.213   9.450
 5762POPC   PO433228  16.746  32.264   9.150
 5762POPC   GL133229  16.687  32.211   8.850
 5762POPC   GL233230  16.770  32.327   8.850
 5762POPC   C1A33231  16.740  32.233   8.550
 5762POPC   D2A33232  16.693  32.208   8.250
 5762POPC   C3A33233  16.698  32.286   7.950
 5762POPC   C4A33234  16.759  32.265   7.650
 5762POPC   C1B33235  16.714  32.475   8.550
 5762POPC   C2B33236  16.798  32.459   8.250
 5762POPC   C3B33237  16.801  32.455   7.950
 5762POPC   C4B33238  16.708  32.469   7.650
 5763POPC   NC333239   7.444  40.761   9.450
 5763POPC   PO433240   7.409  40.824   9.150
 5763POPC   GL133241   7.418  40.739   8.850
 5763POPC   GL233242   7.496  40.708   8.850
 5763POPC   C1A33243   7.406  40.787   8.550
 5763POPC   D2A33244   7.459  40.801   8.250
 5763POPC   C3A33245   7.376  40.737   7.950
 5763POPC   C4A33246   7.423  40.762   7.650
 5763POPC   C1B33247   7.688  40.627   8.550
 5763POPC   C2B33248   7.671  40.685   8.250
 5763POPC   C3B33249   7.629  40.653   7.950
 5763POPC   C4B33250   7.643  40.683   7.650
 5764POPC   NC333251  15.156   2.003   9.450
 5764POPC   PO433252  15.225   1.986   9.150
 5764POPC   GL133253  15.136   1.997   8.850
 5764POPC   GL233254  15.111   2.059   8.850
 5764POPC   C1A33255  15.224   2.018   8.550
 5764POPC   D2A33256  15.151   1.947   8.250
 5764POPC   C3A33257  15.179   1.959   7.950
 5764POPC   C4A33258  15.211   1.998   7.650
 5764POPC   C1B33259  15.002   2.134   8.550
 5764POPC   C2B33260  15.001   2.124   8.250
 5764POPC   C3B33261  15.022   2.124   7.950
 5764POPC   C4B33262  14.946   2.172   7.650
 5765POPC   NC333263   5.899  16.729   9.450
 5765POPC   PO433264   5.844  16.709   9.150
 5765POPC   GL133265   5.830  16.764   8.850
 5765POPC   GL233266   6.035  16.709   8.850
 5765POPC   C1A33267   5.892  16.755   8.550
 5765POPC   D2A33268   5.848  16.751   8.250
 5765POPC   C3A33269   5.834  16.737   7.950
 5765POPC   C4A33270   5.862  16.711   7.650
 5765POPC   C1B33271   6.156  16.715   8.550
 5765POPC   C2B33272   6.130  16.693   8.250
 5765POPC   C3B33273   6.153  16.685   7.950
 5765POPC   C4B33274   6.157  16.733   7.650
 5766POPC   NC333275  30.650  27.624   9.450
 5766POPC   PO433276  30.741  27.549   9.150
 5766POPC   GL133277  30.698  27.594   8.850
 5766POPC   GL233278  30.561  27.523   8.850
 5766POPC   C1A33279  30.721  27.602   8.550
 5766POPC   D2A33280  30.680  27.549   8.250
 5766POPC   C3A33281  30.731  27.547   7.950
 5766POPC   C4A33282  30.664  27.605   7.650
 5766POPC   C1B33283  30.421  27.539   8.550
 5766POPC   C2B33284  30.406  27.581   8.250
 5766POPC   C3B33285  30.448  27.549   7.950
 5766POPC   C4B33286  30.448  27.511   7.650
 5767POPC   NC333287  33.809  26.058   9.450
 5767POPC   PO433288  33.772  26.026   9.150
 5767POPC   GL133289  33.832  26.061   8.850
 5767POPC   GL233290  33.843  25.908   8.850
 5767POPC   C1A33291  33.750  26.057   8.550
 5767POPC   D2A33292  33.763  26.060   8.250
 5767POPC   C3A33293  33.837  26.013   7.950
 5767POPC   C4A33294  33.832  26.012   7.650
 5767POPC   C1B33295  33.878  25.827   8.550
 5767POPC   C2B33296  33.944  25.786   8.250
 5767POPC   C3B33297  33.916  25.830   7.950
 5767POPC   C4B33298  33.907  25.793   7.650
 5768POPC   NC333299  12.079  36.081   9.450
 5768POPC   PO433300  12.114  36.132   9.150
 5768POPC   GL133301  12.075  36.162   8.850
 5768POPC   GL233302  11.947  36.236   8.850
 5768POPC   C1A33303  12.072  36.134   8.550
 5768POPC   D2A33304  12.091  36.153   8.250
 5768POPC   C3A33305  12.052  36.172   7.950
 5768POPC   C4A33306  12.125  36.088   7.650
 5768POPC   C1B33307  11.861  36.283   8.550
 5768POPC   C2B33308  11.847  36.270   8.250
 5768POPC   C3B33309  11.904  36.331   7.950
 5768POPC   C4B33310  11.859  36.268   7.650
 5769POPC   NC333311  29.920   4.314   9.450
 5769POPC   PO433312  29.951   4.283   9.150
 5769POPC   GL133313  29.888   4.362   8.850
 5769POPC   GL233314  29.956   4.188   8.850
 5769POPC   C1A33315  29.969   4.365   8.550
 5769POPC   D2A33316  29.872   4.324   8.250
 5769POPC   C3A33317  29.887   4.312   7.950
 5769POPC   C4A33318  29.930   4.321   7.650
 5769POPC   C1B33319  30.119   4.120   8.550
 5769POPC   C2B33320  30.114   4.086   8.250
 5769POPC   C3B33321  30.077   4.117   7.950
 5769POPC   C4B33322  30.081   4.092   7.650
 5770POPC   NC333323  41.601   9.762   9.450
 5770POPC   PO433324  41.557   9.708   9.150
 5770POPC   GL133325  41.529   9.791   8.850
 5770POPC   GL233326  41.439   9.689   8.850
 5770POPC   C1A33327  41.573   9.736   8.550
 5770POPC   D2A33328  41.598   9.756   8.250
 5770POPC   C3A33329  41.584   9.758   7.950
 5770POPC   C4A33330  41.588   9.725   7.650
 5770POPC   C1B33331  41.269   9.638   8.550
 5770POPC   C2B33332  41.301   9.629   8.250
 5770POPC   C3B33333  41.331   9.654   7.950
 5770POPC   C4B33334  41.275   9.644   7.650
 5771POPC   NC333335  39.212  14.412   9.450
 5771POPC   PO433336  39.213  14.364   9.150
 5771POPC   GL133337  39.207  14.429   8.850
 5771POPC   GL233338  39.135  14.362   8.850
 5771POPC   C1A33339  39.267  14.433   8.550
 5771POPC   D2A33340  39.184  14.385   8.250
 5771POPC   C3A33341  39.268  14.357   7.950
 5771POPC   C4A33342  39.235  14.397   7.650
 5771POPC   C1B33343  38.988  14.380   8.550
 5771POPC   C2B33344  39.029  14.339   8.250
 5771POPC   C3B33345  38.953  14.367   7.950
 5771POPC   C4B33346  38.940  14.385   7.650
 5772POPC   NC333347  22.933  43.062   9.450
 5772POPC   PO433348  22.952  43.131   9.150
 5772POPC   GL133349  22.914  43.160   8.850
 5772POPC   GL233350  22.921  43.255   8.850
 5772POPC   C1A33351  22.890  43.070   8.550
 5772POPC   D2A33352  22.907  43.154   8.250
 5772POPC   C3A33353  22.970  43.123   7.950
 5772POPC   C4A33354  22.937  43.124   7.650
 5772POPC   C1B33355  22.870  43.366   8.550
 5772POPC   C2B33356  22.915  43.361   8.250
 5772POPC   C3B33357  22.886  43.341   7.950
 5772POPC   C4B33358  22.818  43.309   7.650
 5773POPC   NC333359  12.838  29.920   9.450
 5773POPC   PO433360  12.812  29.915   9.150
 5773POPC   GL133361  12.836  29.944   8.850
 5773POPC   GL233362  12.723  29.825   8.850
 5773POPC   C1A33363  12.833  29.920   8.550
 5773POPC   D2A33364  12.843  29.969   8.250
 5773POPC   C3A33365  12.844  29.895   7.950
 5773POPC   C4A33366  12.876  29.934   7.650
 5773POPC   C1B33367  12.640  29.840   8.550
 5773POPC   C2B33368  12.625  29.810   8.250
 5773POPC   C3B33369  12.579  29.862   7.950
 5773POPC   C4B33370  12.614  29.842   7.650
 5774POPC   NC333371  21.394  40.799   9.450
 5774POPC   PO433372  21.380  40.751   9.150
 5774POPC   GL133373  21.385  40.754   8.850
 5774POPC   GL233374  21.254  40.666   8.850
 5774POPC   C1A33375  21.424  40.762   8.550
 5774POPC   D2A33376  21.394  40.745   8.250
 5774POPC   C3A33377  21.388  40.772   7.950
 5774POPC   C4A33378  21.431  40.763   7.650
 5774POPC   C1B33379  21.253  40.635   8.550
 5774POPC   C2B33380  21.237  40.625   8.250
 5774POPC   C3B33381  21.246  40.640   7.950
 5774POPC   C4B33382  21.244  40.618   7.650
 5775POPC   NC333383  33.072   8.196   9.450
 5775POPC   PO433384  33.023   8.168   9.150
 5775POPC   GL133385  33.035   8.163   8.850
 5775POPC   GL233386  33.135   8.309   8.850
 5775POPC   C1A33387  33.032   8.164   8.550
 5775POPC   D2A33388  33.017   8.190   8.250
 5775POPC   C3A33389  33.016   8.188   7.950
 5775POPC   C4A33390  32.975   8.205   7.650
 5775POPC   C1B33391  33.229   8.344   8.550
 5775POPC   C2B33392  33.151   8.416   8.250
 5775POPC   C3B33393  33.191   8.382   7.950
 5775POPC   C4B33394  33.172   8.400   7.650
 5776POPC   NC333395   8.217  37.697   9.450
 5776POPC   PO433396   8.168  37.663   9.150
 5776POPC   GL133397   8.172  37.673   8.850
 5776POPC   GL233398   8.204  37.793   8.850
 5776POPC   C1A33399   8.174  37.643   8.550
 5776POPC   D2A33400   8.239  37.692   8.250
 5776POPC   C3A33401   8.191  37.714   7.950
 5776POPC   C4A33402   8.244  37.632   7.650
 5776POPC   C1B33403   8.268  37.937   8.550
 5776POPC   C2B33404   8.250  37.948   8.250
 5776POPC   C3B33405   8.297  37.945   7.950
 5776POPC   C4B33406   8.288  37.925   7.650
 5777POPC   NC333407  32.266  28.356   9.450
 5777POPC   PO433408  32.202  28.387   9.150
 5777POPC   GL133409  32.218  28.323   8.850
 5777POPC   GL233410  32.343  28.382   8.850
 5777POPC   C1A33411  32.235  28.334   8.550
 5777POPC   D2A33412  32.214  28.344   8.250
 5777POPC   C3A33413  32.244  28.371   7.950
 5777POPC   C4A33414  32.215  28.398   7.650
 5777POPC   C1B33415  32.498  28.495   8.550
 5777POPC   C2B33416  32.470  28.493   8.250
 5777POPC   C3B33417  32.471  28.418   7.950
 5777POPC   C4B33418  32.465  28.504   7.650
 5778POPC   NC333419  43.841  31.457   9.450
 5778POPC   PO433420  43.922  31.442   9.150
 5778POPC   GL133421  43.913  31.452   8.850
 5778POPC   GL233422  44.043  31.515   8.850
 5778POPC   C1A33423  43.843  31.506   8.550
 5778POPC   D2A33424  43.886  31.455   8.250
 5778POPC   C3A33425  43.858  31.435   7.950
 5778POPC   C4A33426  43.887  31.482   7.650
 5778POPC   C1B33427  44.084  31.532   8.550
 5778POPC   C2B33428  44.128  31.541   8.250
 5778POPC   C3B33429  44.103  31.547   7.950
 5778POPC   C4B33430  44.127  31.530   7.650
 5779POPC   NC333431  39.982  35.366   9.450
 5779POPC   PO433432  39.975  35.350   9.150
 5779POPC   GL133433  40.024  35.386   8.850
 5779POPC   GL233434  39.863  35.445   8.850
 5779POPC   C1A33435  40.021  35.327   8.550
 5779POPC   D2A33436  40.015  35.308   8.250
 5779POPC   C3A33437  39.981  35.343   7.950
 5779POPC   C4A33438  40.000  35.394   7.650
 5779POPC   C1B33439  39.775  35.505   8.550
 5779POPC   C2B33440  39.785  35.450   8.250
 5779POPC   C3B33441  39.811  35.526   7.950
 5779POPC   C4B33442  39.822  35.537   7.650
 5780POPC   NC333443  12.038  17.485   9.450
 5780POPC   PO433444  12.112  17.514   9.150
 5780POPC   GL133445  12.060  17.551   8.850
 5780POPC   GL233446  12.084  17.630   8.850
 5780POPC   C1A33447  12.028  17.471   8.550
 5780POPC   D2A33448  12.098  17.493   8.250
 5780POPC   C3A33449  12.121  17.539   7.950
 5780POPC   C4A33450  12.087  17.474   7.650
 5780POPC   C1B33451  12.049  17.706   8.550
 5780POPC   C2B33452  11.982  17.799   8.250
 5780POPC   C3B33453  11.973  17.714   7.950
 5780POPC   C4B33454  11.997  17.778   7.650
 5781POPC   NC333455  33.052   0.420   9.450
 5781POPC   PO433456  33.070   0.448   9.150
 5781POPC   GL133457  33.043   0.441   8.850
 5781POPC   GL233458  33.038   0.576   8.850
 5781POPC   C1A33459  33.023   0.449   8.550
 5781POPC   D2A33460  32.980   0.468   8.250
 5781POPC   C3A33461  33.068   0.481   7.950
 5781POPC   C4A33462  33.070   0.412   7.650
 5781POPC   C1B33463  33.073   0.685   8.550
 5781POPC   C2B33464  33.112   0.678   8.250
 5781POPC   C3B33465  33.054   0.672   7.950
 5781POPC   C4B33466  33.123   0.707   7.650
 5782POPC   NC333467  36.856  29.938   9.450
 5782POPC   PO433468  36.889  29.955   9.150
 5782POPC   GL133469  36.877  29.964   8.850
 5782POPC   GL233470  36.935  30.085   8.850
 5782POPC   C1A33471  36.855  29.952   8.550
 5782POPC   D2A33472  36.860  29.917   8.250
 5782POPC   C3A33473  36.886  29.931   7.950
 5782POPC   C4A33474  36.906  29.960   7.650
 5782POPC   C1B33475  37.032  30.184   8.550
 5782POPC   C2B33476  36.942  30.197   8.250
 5782POPC   C3B33477  37.020  30.194   7.950
 5782POPC   C4B33478  37.022  30.184   7.650
 5783POPC   NC333479  35.390  40.814   9.450
 5783POPC   PO433480  35.379  40.734   9.150
 5783POPC   GL133481  35.355  40.832   8.850
 5783POPC   GL233482  35.307  40.917   8.850
 5783POPC   C1A33483  35.331  40.804   8.550
 5783POPC   D2A33484  35.393  40.830   8.250
 5783POPC   C3A33485  35.345  40.772   7.950
 5783POPC   C4A33486  35.388  40.752   7.650
 5783POPC   C1B33487  35.392  41.058   8.550
 5783POPC   C2B33488  35.356  41.078   8.250
 5783POPC   C3B33489  35.354  41.028   7.950
 5783POPC   C4B33490  35.349  41.052   7.650
 5784POPC   NC333491  29.874  11.332   9.450
 5784POPC   PO433492  29.879  11.252   9.150
 5784POPC   GL133493  29.950  11.285   8.850
 5784POPC   GL233494  29.896  11.371   8.850
 5784POPC   C1A33495  29.878  11.254   8.550
 5784POPC   D2A33496  29.907  11.284   8.250
 5784POPC   C3A33497  29.894  11.348   7.950
 5784POPC   C4A33498  29.908  11.314   7.650
 5784POPC   C1B33499  29.842  11.489   8.550
 5784POPC   C2B33500  29.823  11.489   8.250
 5784POPC   C3B33501  29.871  11.524   7.950
 5784POPC   C4B33502  29.888  11.507   7.650
 5785POPC   NC333503  33.775  30.702   9.450
 5785POPC   PO433504  33.845  30.688   9.150
 5785POPC   GL133505  33.800  30.652   8.850
 5785POPC   GL233506  33.670  30.653   8.850
 5785POPC   C1A33507  33.819  30.659   8.550
 5785POPC   D2A33508  33.849  30.694   8.250
 5785POPC   C3A33509  33.785  30.691   7.950
 5785POPC   C4A33510  33.824  30.746   7.650
 5785POPC   C1B33511  33.613  30.548   8.550
 5785POPC   C2B33512  33.561  30.619   8.250
 5785POPC   C3B33513  33.597  30.609   7.950
 5785POPC   C4B33514  33.549  30.571   7.650
 5786POPC   NC333515  22.115  15.209   9.450
 5786POPC   PO433516  22.145  15.152   9.150
 5786POPC   GL133517  22.200  15.207   8.850
 5786POPC   GL233518  22.121  15.118   8.850
 5786POPC   C1A33519  22.135  15.145   8.550
 5786POPC   D2A33520  22.126  15.170   8.250
 5786POPC   C3A33521  22.114  15.195   7.950
 5786POPC   C4A33522  22.175  15.142   7.650
 5786POPC   C1B33523  22.054  14.926   8.550
 5786POPC   C2B33524  22.005  14.933   8.250
 5786POPC   C3B33525  22.080  14.943   7.950
 5786POPC   C4B33526  22.016  14.996   7.650
 5787POPC   NC333527  43.066  36.902   9.450
 5787POPC   PO433528  43.109  36.916   9.150
 5787POPC   GL133529  43.074  36.855   8.850
 5787POPC   GL233530  43.269  36.978   8.850
 5787POPC   C1A33531  43.135  36.936   8.550
 5787POPC   D2A33532  43.096  36.883   8.250
 5787POPC   C3A33533  43.137  36.918   7.950
 5787POPC   C4A33534  43.092  36.925   7.650
 5787POPC   C1B33535  43.319  36.992   8.550
 5787POPC   C2B33536  43.385  36.934   8.250
 5787POPC   C3B33537  43.395  36.968   7.950
 5787POPC   C4B33538  43.341  37.006   7.650
 5788POPC   NC333539  13.645   0.418   9.450
 5788POPC   PO433540  13.670   0.452   9.150
 5788POPC   GL133541  13.671   0.462   8.850
 5788POPC   GL233542  13.784   0.336   8.850
 5788POPC   C1A33543  13.584   0.433   8.550
 5788POPC   D2A33544  13.609   0.483   8.250
 5788POPC   C3A33545  13.667   0.486   7.950
 5788POPC   C4A33546  13.611   0.474   7.650
 5788POPC   C1B33547  13.815   0.342   8.550
 5788POPC   C2B33548  13.895   0.378   8.250
 5788POPC   C3B33549  13.866   0.293   7.950
 5788POPC   C4B33550  13.845   0.289   7.650
 5789POPC   NC333551  36.953  15.186   9.450
 5789POPC   PO433552  36.894  15.210   9.150
 5789POPC   GL133553  36.900  15.195   8.850
 5789POPC   GL233554  37.022  15.227   8.850
 5789POPC   C1A33555  36.913  15.146   8.550
 5789POPC   D2A33556  36.950  15.185   8.250
 5789POPC   C3A33557  36.912  15.133   7.950
 5789POPC   C4A33558  36.881  15.135   7.650
 5789POPC   C1B33559  37.098  15.317   8.550
 5789POPC   C2B33560  37.099  15.371   8.250
 5789POPC   C3B33561  37.073  15.405   7.950
 5789POPC   C4B33562  37.054  15.363   7.650
 5790POPC   NC333563   9.712  31.487   9.450
 5790POPC   PO433564   9.791  31.433   9.150
 5790POPC   GL133565   9.778  31.522   8.850
 5790POPC   GL233566   9.731  31.337   8.850
 5790POPC   C1A33567   9.781  31.426   8.550
 5790POPC   D2A33568   9.798  31.478   8.250
 5790POPC   C3A33569   9.779  31.432   7.950
 5790POPC   C4A33570   9.738  31.513   7.650
 5790POPC   C1B33571   9.791  31.248   8.550
 5790POPC   C2B33572   9.743  31.226   8.250
 5790POPC   C3B33573   9.760  31.185   7.950
 5790POPC   C4B33574   9.808  31.182   7.650
 5791POPC   NC333575  21.417  25.303   9.450
 5791POPC   PO433576  21.417  25.228   9.150
 5791POPC   GL133577  21.419  25.247   8.850
 5791POPC   GL233578  21.460  25.198   8.850
 5791POPC   C1A33579  21.354  25.306   8.550
 5791POPC   D2A33580  21.388  25.290   8.250
 5791POPC   C3A33581  21.435  25.242   7.950
 5791POPC   C4A33582  21.348  25.238   7.650
 5791POPC   C1B33583  21.583  25.054   8.550
 5791POPC   C2B33584  21.502  25.110   8.250
 5791POPC   C3B33585  21.582  25.084   7.950
 5791POPC   C4B33586  21.539  25.126   7.650
 5792POPC   NC333587  33.829   5.862   9.450
 5792POPC   PO433588  33.835   5.900   9.150
 5792POPC   GL133589  33.805   5.835   8.850
 5792POPC   GL233590  33.909   5.950   8.850
 5792POPC   C1A33591  33.792   5.902   8.550
 5792POPC   D2A33592  33.846   5.819   8.250
 5792POPC   C3A33593  33.841   5.839   7.950
 5792POPC   C4A33594  33.834   5.897   7.650
 5792POPC   C1B33595  34.033   5.922   8.550
 5792POPC   C2B33596  34.059   5.927   8.250
 5792POPC   C3B33597  34.009   5.983   7.950
 5792POPC   C4B33598  34.032   5.909   7.650
 5793POPC   NC333599  31.426  44.649   9.450
 5793POPC   PO433600  31.436  44.644   9.150
 5793POPC   GL133601  31.446  44.649   8.850
 5793POPC   GL233602  31.541  44.563   8.850
 5793POPC   C1A33603  31.502  44.709   8.550
 5793POPC   D2A33604  31.504  44.618   8.250
 5793POPC   C3A33605  31.430  44.624   7.950
 5793POPC   C4A33606  31.511  44.617   7.650
 5793POPC   C1B33607  31.551  44.463   8.550
 5793POPC   C2B33608  31.528  44.381   8.250
 5793POPC   C3B33609  31.548  44.444   7.950
 5793POPC   C4B33610  31.587  44.388   7.650
 5794POPC   NC333611  23.753  39.269   9.450
 5794POPC   PO433612  23.685  39.280   9.150
 5794POPC   GL133613  23.712  39.256   8.850
 5794POPC   GL233614  23.693  39.064   8.850
 5794POPC   C1A33615  23.728  39.215   8.550
 5794POPC   D2A33616  23.728  39.266   8.250
 5794POPC   C3A33617  23.667  39.237   7.950
 5794POPC   C4A33618  23.757  39.248   7.650
 5794POPC   C1B33619  23.663  38.961   8.550
 5794POPC   C2B33620  23.643  39.018   8.250
 5794POPC   C3B33621  23.707  38.936   7.950
 5794POPC   C4B33622  23.723  39.023   7.650
 5795POPC   NC333623  29.181  15.990   9.450
 5795POPC   PO433624  29.157  15.926   9.150
 5795POPC   GL133625  29.103  15.988   8.850
 5795POPC   GL233626  29.185  15.828   8.850
 5795POPC   C1A33627  29.145  15.976   8.550
 5795POPC   D2A33628  29.130  15.968   8.250
 5795POPC   C3A33629  29.144  15.953   7.950
 5795POPC   C4A33630  29.166  15.964   7.650
 5795POPC   C1B33631  29.305  15.725   8.550
 5795POPC   C2B33632  29.223  15.759   8.250
 5795POPC   C3B33633  29.239  15.756   7.950
 5795POPC   C4B33634  29.251  15.697   7.650
 5796POPC   NC333635  10.485  18.251   9.450
 5796POPC   PO433636  10.542  18.302   9.150
 5796POPC   GL133637  10.523  18.277   8.850
 5796POPC   GL233638  10.565  18.426   8.850
 5796POPC   C1A33639  10.541  18.268   8.550
 5796POPC   D2A33640  10.553  18.320   8.250
 5796POPC   C3A33641  10.509  18.234   7.950
 5796POPC   C4A33642  10.511  18.302   7.650
 5796POPC   C1B33643  10.654  18.439   8.550
 5796POPC   C2B33644  10.632  18.489   8.250
 5796POPC   C3B33645  10.634  18.500   7.950
 5796POPC   C4B33646  10.678  18.496   7.650
 5797POPC   NC333647  35.374  43.885   9.450
 5797POPC   PO433648  35.344  43.926   9.150
 5797POPC   GL133649  35.326  43.850   8.850
 5797POPC   GL233650  35.440  43.783   8.850
 5797POPC   C1A33651  35.309  43.905   8.550
 5797POPC   D2A33652  35.400  43.897   8.250
 5797POPC   C3A33653  35.363  43.903   7.950
 5797POPC   C4A33654  35.339  43.842   7.650
 5797POPC   C1B33655  35.459  43.660   8.550
 5797POPC   C2B33656  35.494  43.626   8.250
 5797POPC   C3B33657  35.487  43.650   7.950
 5797POPC   C4B33658  35.432  43.707   7.650
 5798POPC   NC333659  22.177   0.426   9.450
 5798POPC   PO433660  22.183   0.453   9.150
 5798POPC   GL133661  22.143   0.413   8.850
 5798POPC   GL233662  22.159   0.571   8.850
 5798POPC   C1A33663  22.206   0.456   8.550
 5798POPC   D2A33664  22.178   0.428   8.250
 5798POPC   C3A33665  22.175   0.399   7.950
 5798POPC   C4A33666  22.205   0.416   7.650
 5798POPC   C1B33667  22.217   0.671   8.550
 5798POPC   C2B33668  22.214   0.719   8.250
 5798POPC   C3B33669  22.189   0.693   7.950
 5798POPC   C4B33670  22.178   0.667   7.650
 5799POPC   NC333671  13.640   4.342   9.450
 5799POPC   PO433672  13.626   4.274   9.150
 5799POPC   GL133673  13.641   4.337   8.850
 5799POPC   GL233674  13.488   4.396   8.850
 5799POPC   C1A33675  13.617   4.323   8.550
 5799POPC   D2A33676  13.582   4.276   8.250
 5799POPC   C3A33677  13.658   4.301   7.950
 5799POPC   C4A33678  13.667   4.313   7.650
 5799POPC   C1B33679  13.409   4.440   8.550
 5799POPC   C2B33680  13.446   4.466   8.250
 5799POPC   C3B33681  13.413   4.479   7.950
 5799POPC   C4B33682  13.412   4.471   7.650
 5800POPC   NC333683  36.907  39.960   9.450
 5800POPC   PO433684  36.868  39.974   9.150
 5800POPC   GL133685  36.912  40.020   8.850
 5800POPC   GL233686  37.067  39.985   8.850
 5800POPC   C1A33687  36.873  40.018   8.550
 5800POPC   D2A33688  36.895  40.049   8.250
 5800POPC   C3A33689  36.864  39.964   7.950
 5800POPC   C4A33690  36.893  40.040   7.650
 5800POPC   C1B33691  37.157  40.036   8.550
 5800POPC   C2B33692  37.134  40.033   8.250
 5800POPC   C3B33693  37.125  39.999   7.950
 5800POPC   C4B33694  37.187  40.023   7.650
 5801POPC   NC333695  28.364  29.956   9.450
 5801POPC   PO433696  28.325  29.914   9.150
 5801POPC   GL133697  28.350  29.890   8.850
 5801POPC   GL233698  28.372  30.009   8.850
 5801POPC   C1A33699  28.356  29.954   8.550
 5801POPC   D2A33700  28.398  29.883   8.250
 5801POPC   C3A33701  28.319  29.908   7.950
 5801POPC   C4A33702  28.321  29.953   7.650
 5801POPC   C1B33703  28.370  30.163   8.550
 5801POPC   C2B33704  28.419  30.167   8.250
 5801POPC   C3B33705  28.450  30.191   7.950
 5801POPC   C4B33706  28.424  30.165   7.650
 5802POPC   NC333707  31.425  40.776   9.450
 5802POPC   PO433708  31.511  40.768   9.150
 5802POPC   GL133709  31.464  40.733   8.850
 5802POPC   GL233710  31.539  40.880   8.850
 5802POPC   C1A33711  31.493  40.789   8.550
 5802POPC   D2A33712  31.457  40.750   8.250
 5802POPC   C3A33713  31.436  40.815   7.950
 5802POPC   C4A33714  31.469  40.820   7.650
 5802POPC   C1B33715  31.527  41.055   8.550
 5802POPC   C2B33716  31.549  41.013   8.250
 5802POPC   C3B33717  31.513  41.001   7.950
 5802POPC   C4B33718  31.494  41.040   7.650
 5803POPC   NC333719  28.337  19.108   9.450
 5803POPC   PO433720  28.357  19.018   9.150
 5803POPC   GL133721  28.349  19.095   8.850
 5803POPC   GL233722  28.304  19.131   8.850
 5803POPC   C1A33723  28.404  19.051   8.550
 5803POPC   D2A33724  28.391  19.040   8.250
 5803POPC   C3A33725  28.335  19.079   7.950
 5803POPC   C4A33726  28.321  19.093   7.650
 5803POPC   C1B33727  28.114  19.209   8.550
 5803POPC   C2B33728  28.198  19.195   8.250
 5803POPC   C3B33729  28.191  19.178   7.950
 5803POPC   C4B33730  28.174  19.170   7.650
 5804POPC   NC333731  43.880  43.912   9.450
 5804POPC   PO433732  43.920  43.854   9.150
 5804POPC   GL133733  43.874  43.909   8.850
 5804POPC   GL233734  43.854  43.970   8.850
 5804POPC   C1A33735  43.917  43.857   8.550
 5804POPC   D2A33736  43.906  43.923   8.250
 5804POPC   C3A33737  43.903  43.868   7.950
 5804POPC   C4A33738  43.909  43.934   7.650
 5804POPC   C1B33739  43.897  44.136   8.550
 5804POPC   C2B33740  43.959  44.165   8.250
 5804POPC   C3B33741  43.956  44.085   7.950
 5804POPC   C4B33742  43.902  44.115   7.650
 5805POPC   NC333743  41.583   5.133   9.450
 5805POPC   PO433744  41.538   5.087   9.150
 5805POPC   GL133745  41.584   5.137   8.850
 5805POPC   GL233746  41.646   5.142   8.850
 5805POPC   C1A33747  41.568   5.102   8.550
 5805POPC   D2A33748  41.605   5.071   8.250
 5805POPC   C3A33749  41.589   5.060   7.950
 5805POPC   C4A33750  41.597   5.094   7.650
 5805POPC   C1B33751  41.762   5.120   8.550
 5805POPC   C2B33752  41.760   5.167   8.250
 5805POPC   C3B33753  41.805   5.101   7.950
 5805POPC   C4B33754  41.826   5.167   7.650
 5806POPC   NC333755  43.086  15.924   9.450
 5806POPC   PO433756  43.087  15.926   9.150
 5806POPC   GL133757  43.120  16.000   8.850
 5806POPC   GL233758  42.985  15.843   8.850
 5806POPC   C1A33759  43.100  15.966   8.550
 5806POPC   D2A33760  43.129  15.908   8.250
 5806POPC   C3A33761  43.127  15.939   7.950
 5806POPC   C4A33762  43.131  15.999   7.650
 5806POPC   C1B33763  42.916  15.766   8.550
 5806POPC   C2B33764  42.916  15.809   8.250
 5806POPC   C3B33765  42.955  15.801   7.950
 5806POPC   C4B33766  42.889  15.828   7.650
 5807POPC   NC333767  14.395  19.831   9.450
 5807POPC   PO433768  14.388  19.823   9.150
 5807POPC   GL133769  14.354  19.823   8.850
 5807POPC   GL233770  14.344  19.718   8.850
 5807POPC   C1A33771  14.415  19.841   8.550
 5807POPC   D2A33772  14.368  19.809   8.250
 5807POPC   C3A33773  14.417  19.883   7.950
 5807POPC   C4A33774  14.417  19.789   7.650
 5807POPC   C1B33775  14.212  19.697   8.550
 5807POPC   C2B33776  14.200  19.688   8.250
 5807POPC   C3B33777  14.195  19.677   7.950
 5807POPC   C4B33778  14.236  19.621   7.650
 5808POPC   NC333779  12.861  19.092   9.450
 5808POPC   PO433780  12.860  19.031   9.150
 5808POPC   GL133781  12.888  19.092   8.850
 5808POPC   GL233782  12.795  19.195   8.850
 5808POPC   C1A33783  12.809  19.103   8.550
 5808POPC   D2A33784  12.891  19.036   8.250
 5808POPC   C3A33785  12.887  19.091   7.950
 5808POPC   C4A33786  12.852  19.014   7.650
 5808POPC   C1B33787  12.734  19.301   8.550
 5808POPC   C2B33788  12.757  19.337   8.250
 5808POPC   C3B33789  12.755  19.298   7.950
 5808POPC   C4B33790  12.795  19.266   7.650
 5809POPC   NC333791   8.221  40.027   9.450
 5809POPC   PO433792   8.231  39.967   9.150
 5809POPC   GL133793   8.205  40.024   8.850
 5809POPC   GL233794   8.291  39.907   8.850
 5809POPC   C1A33795   8.188  39.980   8.550
 5809POPC   D2A33796   8.184  40.025   8.250
 5809POPC   C3A33797   8.211  39.986   7.950
 5809POPC   C4A33798   8.150  39.991   7.650
 5809POPC   C1B33799   8.325  39.821   8.550
 5809POPC   C2B33800   8.320  39.793   8.250
 5809POPC   C3B33801   8.299  39.798   7.950
 5809POPC   C4B33802   8.297  39.758   7.650
 5810POPC   NC333803  36.882  19.036   9.450
 5810POPC   PO433804  36.935  19.093   9.150
 5810POPC   GL133805  36.893  19.090   8.850
 5810POPC   GL233806  36.865  19.170   8.850
 5810POPC   C1A33807  36.897  19.032   8.550
 5810POPC   D2A33808  36.936  19.012   8.250
 5810POPC   C3A33809  36.949  19.074   7.950
 5810POPC   C4A33810  36.931  19.064   7.650
 5810POPC   C1B33811  36.739  19.253   8.550
 5810POPC   C2B33812  36.749  19.277   8.250
 5810POPC   C3B33813  36.686  19.280   7.950
 5810POPC   C4B33814  36.764  19.209   7.650
 5811POPC   NC333815  26.861  19.862   9.450
 5811POPC   PO433816  26.772  19.786   9.150
 5811POPC   GL133817  26.846  19.873   8.850
 5811POPC   GL233818  26.653  19.819   8.850
 5811POPC   C1A33819  26.819  19.806   8.550
 5811POPC   D2A33820  26.831  19.797   8.250
 5811POPC   C3A33821  26.771  19.874   7.950
 5811POPC   C4A33822  26.817  19.829   7.650
 5811POPC   C1B33823  26.569  19.788   8.550
 5811POPC   C2B33824  26.610  19.702   8.250
 5811POPC   C3B33825  26.560  19.730   7.950
 5811POPC   C4B33826  26.561  19.707   7.650
 5812POPC   NC333827   1.191  19.069   9.450
 5812POPC   PO433828   1.183  19.084   9.150
 5812POPC   GL133829   1.225  19.096   8.850
 5812POPC   GL233830   1.064  19.059   8.850
 5812POPC   C1A33831   1.227  19.092   8.550
 5812POPC   D2A33832   1.220  19.089   8.250
 5812POPC   C3A33833   1.195  19.040   7.950
 5812POPC   C4A33834   1.201  19.108   7.650
 5812POPC   C1B33835   0.999  19.053   8.550
 5812POPC   C2B33836   0.960  19.025   8.250
 5812POPC   C3B33837   1.010  19.009   7.950
 5812POPC   C4B33838   0.981  19.019   7.650
 5813POPC   NC333839  35.384  22.156   9.450
 5813POPC   PO433840  35.332  22.154   9.150
 5813POPC   GL133841  35.397  22.129   8.850
 5813POPC   GL233842  35.436  22.247   8.850
 5813POPC   C1A33843  35.348  22.135   8.550
 5813POPC   D2A33844  35.316  22.185   8.250
 5813POPC   C3A33845  35.310  22.198   7.950
 5813POPC   C4A33846  35.303  22.130   7.650
 5813POPC   C1B33847  35.608  22.225   8.550
 5813POPC   C2B33848  35.550  22.233   8.250
 5813POPC   C3B33849  35.604  22.207   7.950
 5813POPC   C4B33850  35.559  22.284   7.650
 5814POPC   NC333851  13.606  36.173   9.450
 5814POPC   PO433852  13.627  36.110   9.150
 5814POPC   GL133853  13.675  36.101   8.850
 5814POPC   GL233854  13.557  36.248   8.850
 5814POPC   C1A33855  13.591  36.146   8.550
 5814POPC   D2A33856  13.660  36.162   8.250
 5814POPC   C3A33857  13.668  36.139   7.950
 5814POPC   C4A33858  13.647  36.174   7.650
 5814POPC   C1B33859  13.522  36.380   8.550
 5814POPC   C2B33860  13.595  36.356   8.250
 5814POPC   C3B33861  13.542  36.327   7.950
 5814POPC   C4B33862  13.560  36.394   7.650
 5815POPC   NC333863  40.740  16.690   9.450
 5815POPC   PO433864  40.805  16.744   9.150
 5815POPC   GL133865  40.788  16.737   8.850
 5815POPC   GL233866  40.783  16.582   8.850
 5815POPC   C1A33867  40.802  16.700   8.550
 5815POPC   D2A33868  40.762  16.770   8.250
 5815POPC   C3A33869  40.771  16.763   7.950
 5815POPC   C4A33870  40.803  16.684   7.650
 5815POPC   C1B33871  40.724  16.475   8.550
 5815POPC   C2B33872  40.706  16.445   8.250
 5815POPC   C3B33873  40.703  16.451   7.950
 5815POPC   C4B33874  40.721  16.496   7.650
 5816POPC   NC333875  22.166   4.334   9.450
 5816POPC   PO433876  22.207   4.353   9.150
 5816POPC   GL133877  22.145   4.345   8.850
 5816POPC   GL233878  22.228   4.239   8.850
 5816POPC   C1A33879  22.197   4.355   8.550
 5816POPC   D2A33880  22.191   4.344   8.250
 5816POPC   C3A33881  22.198   4.339   7.950
 5816POPC   C4A33882  22.137   4.321   7.650
 5816POPC   C1B33883  22.267   4.078   8.550
 5816POPC   C2B33884  22.343   4.070   8.250
 5816POPC   C3B33885  22.289   4.121   7.950
 5816POPC   C4B33886  22.344   4.063   7.650
 5817POPC   NC333887  18.270  29.883   9.450
 5817POPC   PO433888  18.250  29.883   9.150
 5817POPC   GL133889  18.305  29.936   8.850
 5817POPC   GL233890  18.242  29.861   8.850
 5817POPC   C1A33891  18.317  29.946   8.550
 5817POPC   D2A33892  18.327  29.907   8.250
 5817POPC   C3A33893  18.298  29.909   7.950
 5817POPC   C4A33894  18.276  29.947   7.650
 5817POPC   C1B33895  18.131  29.720   8.550
 5817POPC   C2B33896  18.193  29.746   8.250
 5817POPC   C3B33897  18.178  29.707   7.950
 5817POPC   C4B33898  18.127  29.716   7.650
 5818POPC   NC333899  31.484  33.051   9.450
 5818POPC   PO433900  31.507  33.027   9.150
 5818POPC   GL133901  31.479  33.039   8.850
 5818POPC   GL233902  31.410  32.930   8.850
 5818POPC   C1A33903  31.485  32.976   8.550
 5818POPC   D2A33904  31.435  32.994   8.250
 5818POPC   C3A33905  31.428  32.992   7.950
 5818POPC   C4A33906  31.503  32.990   7.650
 5818POPC   C1B33907  31.306  32.787   8.550
 5818POPC   C2B33908  31.335  32.849   8.250
 5818POPC   C3B33909  31.296  32.827   7.950
 5818POPC   C4B33910  31.341  32.846   7.650
 5819POPC   NC333911  19.824  31.463   9.450
 5819POPC   PO433912  19.832  31.490   9.150
 5819POPC   GL133913  19.835  31.491   8.850
 5819POPC   GL233914  19.930  31.491   8.850
 5819POPC   C1A33915  19.845  31.471   8.550
 5819POPC   D2A33916  19.861  31.508   8.250
 5819POPC   C3A33917  19.788  31.515   7.950
 5819POPC   C4A33918  19.826  31.499   7.650
 5819POPC   C1B33919  20.050  31.568   8.550
 5819POPC   C2B33920  20.070  31.542   8.250
 5819POPC   C3B33921  20.100  31.599   7.950
 5819POPC   C4B33922  20.078  31.592   7.650
 5820POPC   NC333923  22.980  15.204   9.450
 5820POPC   PO433924  22.901  15.213   9.150
 5820POPC   GL133925  22.959  15.198   8.850
 5820POPC   GL233926  22.768  15.220   8.850
 5820POPC   C1A33927  22.901  15.173   8.550
 5820POPC   D2A33928  22.930  15.220   8.250
 5820POPC   C3A33929  22.973  15.217   7.950
 5820POPC   C4A33930  22.919  15.201   7.650
 5820POPC   C1B33931  22.685  15.214   8.550
 5820POPC   C2B33932  22.687  15.218   8.250
 5820POPC   C3B33933  22.721  15.282   7.950
 5820POPC   C4B33934  22.736  15.196   7.650
 5821POPC   NC333935  36.131  12.108   9.450
 5821POPC   PO433936  36.138  12.118   9.150
 5821POPC   GL133937  36.130  12.108   8.850
 5821POPC   GL233938  36.063  12.154   8.850
 5821POPC   C1A33939  36.176  12.027   8.550
 5821POPC   D2A33940  36.156  12.064   8.250
 5821POPC   C3A33941  36.155  12.064   7.950
 5821POPC   C4A33942  36.146  12.050   7.650
 5821POPC   C1B33943  35.857  12.134   8.550
 5821POPC   C2B33944  35.909  12.176   8.250
 5821POPC   C3B33945  35.908  12.227   7.950
 5821POPC   C4B33946  35.896  12.203   7.650
 5822POPC   NC333947  30.693  29.104   9.450
 5822POPC   PO433948  30.718  29.145   9.150
 5822POPC   GL133949  30.716  29.154   8.850
 5822POPC   GL233950  30.678  29.038   8.850
 5822POPC   C1A33951  30.719  29.109   8.550
 5822POPC   D2A33952  30.677  29.171   8.250
 5822POPC   C3A33953  30.739  29.179   7.950
 5822POPC   C4A33954  30.679  29.146   7.650
 5822POPC   C1B33955  30.663  28.920   8.550
 5822POPC   C2B33956  30.606  28.862   8.250
 5822POPC   C3B33957  30.660  28.912   7.950
 5822POPC   C4B33958  30.648  28.888   7.650
 5823POPC   NC333959   9.798  36.164   9.450
 5823POPC   PO433960   9.712  36.141   9.150
 5823POPC   GL133961   9.698  36.096   8.850
 5823POPC   GL233962   9.751  35.999   8.850
 5823POPC   C1A33963   9.773  36.143   8.550
 5823POPC   D2A33964   9.789  36.080   8.250
 5823POPC   C3A33965   9.786  36.151   7.950
 5823POPC   C4A33966   9.792  36.139   7.650
 5823POPC   C1B33967   9.787  35.916   8.550
 5823POPC   C2B33968   9.812  35.940   8.250
 5823POPC   C3B33969   9.862  35.918   7.950
 5823POPC   C4B33970   9.810  35.847   7.650
 5824POPC   NC333971  17.467  12.841   9.450
 5824POPC   PO433972  17.491  12.854   9.150
 5824POPC   GL133973  17.463  12.802   8.850
 5824POPC   GL233974  17.626  12.783   8.850
 5824POPC   C1A33975  17.513  12.854   8.550
 5824POPC   D2A33976  17.549  12.829   8.250
 5824POPC   C3A33977  17.477  12.882   7.950
 5824POPC   C4A33978  17.458  12.859   7.650
 5824POPC   C1B33979  17.716  12.777   8.550
 5824POPC   C2B33980  17.767  12.841   8.250
 5824POPC   C3B33981  17.798  12.788   7.950
 5824POPC   C4B33982  17.752  12.747   7.650
 5825POPC   NC333983   0.413  11.250   9.450
 5825POPC   PO433984   0.478  11.298   9.150
 5825POPC   GL133985   0.397  11.307   8.850
 5825POPC   GL233986   0.368  11.379   8.850
 5825POPC   C1A33987   0.468  11.267   8.550
 5825POPC   D2A33988   0.482  11.350   8.250
 5825POPC   C3A33989   0.409  11.268   7.950
 5825POPC   C4A33990   0.419  11.330   7.650
 5825POPC   C1B33991   0.339  11.495   8.550
 5825POPC   C2B33992   0.403  11.527   8.250
 5825POPC   C3B33993   0.396  11.569   7.950
 5825POPC   C4B33994   0.348  11.514   7.650
 5826POPC   NC333995  42.377  34.548   9.450
 5826POPC   PO433996  42.310  34.529   9.150
 5826POPC   GL133997  42.285  34.605   8.850
 5826POPC   GL233998  42.199  34.514   8.850
 5826POPC   C1A33999  42.371  34.582   8.550
 5826POPC   D2A34000  42.336  34.531   8.250
 5826POPC   C3A34001  42.361  34.622   7.950
 5826POPC   C4A34002  42.289  34.534   7.650
 5826POPC   C1B34003  42.128  34.535   8.550
 5826POPC   C2B34004  42.080  34.455   8.250
 5826POPC   C3B34005  42.124  34.511   7.950
 5826POPC   C4B34006  42.089  34.504   7.650
 5827POPC   NC334007  18.316  15.183   9.450
 5827POPC   PO434008  18.325  15.227   9.150
 5827POPC   GL134009  18.291  15.176   8.850
 5827POPC   GL234010  18.282  15.325   8.850
 5827POPC   C1A34011  18.277  15.210   8.550
 5827POPC   D2A34012  18.307  15.176   8.250
 5827POPC   C3A34013  18.279  15.228   7.950
 5827POPC   C4A34014  18.245  15.192   7.650
 5827POPC   C1B34015  18.169  15.364   8.550
 5827POPC   C2B34016  18.159  15.381   8.250
 5827POPC   C3B34017  18.191  15.397   7.950
 5827POPC   C4B34018  18.217  15.363   7.650
 5828POPC   NC334019  21.417  37.707   9.450
 5828POPC   PO434020  21.382  37.699   9.150
 5828POPC   GL134021  21.385  37.656   8.850
 5828POPC   GL234022  21.324  37.592   8.850
 5828POPC   C1A34023  21.363  37.644   8.550
 5828POPC   D2A34024  21.404  37.638   8.250
 5828POPC   C3A34025  21.427  37.682   7.950
 5828POPC   C4A34026  21.362  37.693   7.650
 5828POPC   C1B34027  21.238  37.425   8.550
 5828POPC   C2B34028  21.309  37.437   8.250
 5828POPC   C3B34029  21.220  37.444   7.950
 5828POPC   C4B34030  21.263  37.501   7.650
 5829POPC   NC334031   5.077  15.219   9.450
 5829POPC   PO434032   5.063  15.159   9.150
 5829POPC   GL134033   5.117  15.219   8.850
 5829POPC   GL234034   5.147  15.065   8.850
 5829POPC   C1A34035   5.114  15.229   8.550
 5829POPC   D2A34036   5.056  15.142   8.250
 5829POPC   C3A34037   5.071  15.189   7.950
 5829POPC   C4A34038   5.088  15.162   7.650
 5829POPC   C1B34039   5.076  14.882   8.550
 5829POPC   C2B34040   5.071  14.944   8.250
 5829POPC   C3B34041   5.127  14.896   7.950
 5829POPC   C4B34042   5.073  14.917   7.650
 5830POPC   NC334043  42.302  33.047   9.450
 5830POPC   PO434044  42.302  33.047   9.150
 5830POPC   GL134045  42.358  33.071   8.850
 5830POPC   GL234046  42.434  32.989   8.850
 5830POPC   C1A34047  42.361  33.017   8.550
 5830POPC   D2A34048  42.382  33.045   8.250
 5830POPC   C3A34049  42.294  33.070   7.950
 5830POPC   C4A34050  42.335  33.005   7.650
 5830POPC   C1B34051  42.518  32.837   8.550
 5830POPC   C2B34052  42.518  32.857   8.250
 5830POPC   C3B34053  42.488  32.886   7.950
 5830POPC   C4B34054  42.486  32.884   7.650
 5831POPC   NC334055  33.013  32.980   9.450
 5831POPC   PO434056  33.061  33.033   9.150
 5831POPC   GL134057  33.015  33.021   8.850
 5831POPC   GL234058  33.086  33.120   8.850
 5831POPC   C1A34059  32.977  32.990   8.550
 5831POPC   D2A34060  33.019  32.994   8.250
 5831POPC   C3A34061  33.068  33.026   7.950
 5831POPC   C4A34062  32.989  33.017   7.650
 5831POPC   C1B34063  33.047  33.297   8.550
 5831POPC   C2B34064  33.060  33.313   8.250
 5831POPC   C3B34065  33.087  33.318   7.950
 5831POPC   C4B34066  33.067  33.288   7.650
 5832POPC   NC334067  30.733  12.887   9.450
 5832POPC   PO434068  30.746  12.811   9.150
 5832POPC   GL134069  30.743  12.869   8.850
 5832POPC   GL234070  30.671  12.952   8.850
 5832POPC   C1A34071  30.719  12.806   8.550
 5832POPC   D2A34072  30.653  12.846   8.250
 5832POPC   C3A34073  30.652  12.823   7.950
 5832POPC   C4A34074  30.715  12.831   7.650
 5832POPC   C1B34075  30.595  13.113   8.550
 5832POPC   C2B34076  30.692  13.092   8.250
 5832POPC   C3B34077  30.619  13.134   7.950
 5832POPC   C4B34078  30.667  13.093   7.650
 5833POPC   NC334079  40.801  15.163   9.450
 5833POPC   PO434080  40.808  15.197   9.150
 5833POPC   GL134081  40.743  15.152   8.850
 5833POPC   GL234082  40.739  15.220   8.850
 5833POPC   C1A34083  40.749  15.159   8.550
 5833POPC   D2A34084  40.734  15.209   8.250
 5833POPC   C3A34085  40.796  15.147   7.950
 5833POPC   C4A34086  40.775  15.145   7.650
 5833POPC   C1B34087  40.612  15.321   8.550
 5833POPC   C2B34088  40.590  15.307   8.250
 5833POPC   C3B34089  40.581  15.307   7.950
 5833POPC   C4B34090  40.579  15.348   7.650
 5834POPC   NC334091   1.184  25.271   9.450
 5834POPC   PO434092   1.197  25.285   9.150
 5834POPC   GL134093   1.168  25.293   8.850
 5834POPC   GL234094   1.168  25.097   8.850
 5834POPC   C1A34095   1.183  25.308   8.550
 5834POPC   D2A34096   1.217  25.272   8.250
 5834POPC   C3A34097   1.239  25.268   7.950
 5834POPC   C4A34098   1.220  25.255   7.650
 5834POPC   C1B34099   1.205  25.064   8.550
 5834POPC   C2B34100   1.176  25.061   8.250
 5834POPC   C3B34101   1.155  25.048   7.950
 5834POPC   C4B34102   1.160  24.976   7.650
 5835POPC   NC334103   3.581  40.052   9.450
 5835POPC   PO434104   3.513  40.041   9.150
 5835POPC   GL134105   3.571  40.035   8.850
 5835POPC   GL234106   3.620  40.022   8.850
 5835POPC   C1A34107   3.508  39.980   8.550
 5835POPC   D2A34108   3.506  40.005   8.250
 5835POPC   C3A34109   3.532  40.053   7.950
 5835POPC   C4A34110   3.534  39.962   7.650
 5835POPC   C1B34111   3.803  39.890   8.550
 5835POPC   C2B34112   3.757  39.964   8.250
 5835POPC   C3B34113   3.789  39.978   7.950
 5835POPC   C4B34114   3.756  39.973   7.650
 5836POPC   NC334115  12.073   4.307   9.450
 5836POPC   PO434116  12.086   4.360   9.150
 5836POPC   GL134117  12.027   4.314   8.850
 5836POPC   GL234118  12.079   4.153   8.850
 5836POPC   C1A34119  12.100   4.293   8.550
 5836POPC   D2A34120  12.087   4.332   8.250
 5836POPC   C3A34121  12.091   4.333   7.950
 5836POPC   C4A34122  12.051   4.336   7.650
 5836POPC   C1B34123  12.078   4.112   8.550
 5836POPC   C2B34124  12.019   4.059   8.250
 5836POPC   C3B34125  12.109   4.031   7.950
 5836POPC   C4B34126  12.016   4.040   7.650
 5837POPC   NC334127   5.095  24.450   9.450
 5837POPC   PO434128   5.083  24.450   9.150
 5837POPC   GL134129   5.127  24.494   8.850
 5837POPC   GL234130   4.940  24.520   8.850
 5837POPC   C1A34131   5.084  24.525   8.550
 5837POPC   D2A34132   5.114  24.537   8.250
 5837POPC   C3A34133   5.110  24.493   7.950
 5837POPC   C4A34134   5.076  24.502   7.650
 5837POPC   C1B34135   4.892  24.437   8.550
 5837POPC   C2B34136   4.853  24.518   8.250
 5837POPC   C3B34137   4.830  24.484   7.950
 5837POPC   C4B34138   4.828  24.427   7.650
 5838POPC   NC334139  19.846  36.874   9.450
 5838POPC   PO434140  19.872  36.875   9.150
 5838POPC   GL134141  19.856  36.947   8.850
 5838POPC   GL234142  19.922  36.859   8.850
 5838POPC   C1A34143  19.868  36.918   8.550
 5838POPC   D2A34144  19.865  36.864   8.250
 5838POPC   C3A34145  19.843  36.942   7.950
 5838POPC   C4A34146  19.807  36.863   7.650
 5838POPC   C1B34147  20.068  36.825   8.550
 5838POPC   C2B34148  20.090  36.877   8.250
 5838POPC   C3B34149  20.067  36.807   7.950
 5838POPC   C4B34150  20.057  36.801   7.650
 5839POPC   NC334151  32.273   6.626   9.450
 5839POPC   PO434152  32.234   6.648   9.150
 5839POPC   GL134153  32.248   6.619   8.850
 5839POPC   GL234154  32.156   6.726   8.850
 5839POPC   C1A34155  32.207   6.651   8.550
 5839POPC   D2A34156  32.201   6.673   8.250
 5839POPC   C3A34157  32.285   6.632   7.950
 5839POPC   C4A34158  32.256   6.628   7.650
 5839POPC   C1B34159  32.177   6.894   8.550
 5839POPC   C2B34160  32.155   6.899   8.250
 5839POPC   C3B34161  32.188   6.867   7.950
 5839POPC   C4B34162  32.206   6.881   7.650
 5840POPC   NC334163  18.242  21.416   9.450
 5840POPC   PO434164  18.319  21.386   9.150
 5840POPC   GL134165  18.247  21.418   8.850
 5840POPC   GL234166  18.333  21.521   8.850
 5840POPC   C1A34167  18.245  21.374   8.550
 5840POPC   D2A34168  18.248  21.351   8.250
 5840POPC   C3A34169  18.327  21.358   7.950
 5840POPC   C4A34170  18.237  21.358   7.650
 5840POPC   C1B34171  18.345  21.623   8.550
 5840POPC   C2B34172  18.392  21.585   8.250
 5840POPC   C3B34173  18.342  21.674   7.950
 5840POPC   C4B34174  18.344  21.604   7.650
 5841POPC   NC334175   1.229   6.601   9.450
 5841POPC   PO434176   1.209   6.670   9.150
 5841POPC   GL134177   1.211   6.644   8.850
 5841POPC   GL234178   1.093   6.747   8.850
 5841POPC   C1A34179   1.165   6.632   8.550
 5841POPC   D2A34180   1.227   6.644   8.250
 5841POPC   C3A34181   1.243   6.605   7.950
 5841POPC   C4A34182   1.197   6.690   7.650
 5841POPC   C1B34183   1.057   6.751   8.550
 5841POPC   C2B34184   1.045   6.848   8.250
 5841POPC   C3B34185   1.055   6.798   7.950
 5841POPC   C4B34186   1.017   6.790   7.650
 5842POPC   NC334187  43.865  11.301   9.450
 5842POPC   PO434188  43.918  11.326   9.150
 5842POPC   GL134189  43.903  11.314   8.850
 5842POPC   GL234190  43.788  11.311   8.850
 5842POPC   C1A34191  43.837  11.319   8.550
 5842POPC   D2A34192  43.864  11.259   8.250
 5842POPC   C3A34193  43.932  11.344   7.950
 5842POPC   C4A34194  43.858  11.261   7.650
 5842POPC   C1B34195  43.651  11.382   8.550
 5842POPC   C2B34196  43.630  11.360   8.250
 5842POPC   C3B34197  43.601  11.395   7.950
 5842POPC   C4B34198  43.668  11.347   7.650
 5843POPC   NC334199  24.470  30.739   9.450
 5843POPC   PO434200  24.497  30.654   9.150
 5843POPC   GL134201  24.455  30.658   8.850
 5843POPC   GL234202  24.473  30.824   8.850
 5843POPC   C1A34203  24.522  30.681   8.550
 5843POPC   D2A34204  24.453  30.700   8.250
 5843POPC   C3A34205  24.539  30.656   7.950
 5843POPC   C4A34206  24.488  30.742   7.650
 5843POPC   C1B34207  24.547  30.902   8.550
 5843POPC   C2B34208  24.597  30.932   8.250
 5843POPC   C3B34209  24.553  30.923   7.950
 5843POPC   C4B34210  24.577  30.923   7.650
 5844POPC   NC334211  28.386  35.326   9.450
 5844POPC   PO434212  28.404  35.380   9.150
 5844POPC   GL134213  28.375  35.399   8.850
 5844POPC   GL234214  28.378  35.256   8.850
 5844POPC   C1A34215  28.359  35.358   8.550
 5844POPC   D2A34216  28.346  35.310   8.250
 5844POPC   C3A34217  28.376  35.319   7.950
 5844POPC   C4A34218  28.375  35.347   7.650
 5844POPC   C1B34219  28.348  35.074   8.550
 5844POPC   C2B34220  28.329  35.069   8.250
 5844POPC   C3B34221  28.364  35.143   7.950
 5844POPC   C4B34222  28.404  35.078   7.650
 5845POPC   NC334223  36.120  16.727   9.450
 5845POPC   PO434224  36.113  16.771   9.150
 5845POPC   GL134225  36.152  16.696   8.850
 5845POPC   GL234226  36.076  16.608   8.850
 5845POPC   C1A34227  36.125  16.747   8.550
 5845POPC   D2A34228  36.117  16.763   8.250
 5845POPC   C3A34229  36.161  16.718   7.950
 5845POPC   C4A34230  36.165  16.732   7.650
 5845POPC   C1B34231  36.096  16.457   8.550
 5845POPC   C2B34232  36.122  16.508   8.250
 5845POPC   C3B34233  36.050  16.477   7.950
 5845POPC   C4B34234  36.056  16.438   7.650
 5846POPC   NC334235  32.224  36.949   9.450
 5846POPC   PO434236  32.250  36.906   9.150
 5846POPC   GL134237  32.272  36.858   8.850
 5846POPC   GL234238  32.365  36.930   8.850
 5846POPC   C1A34239  32.221  36.881   8.550
 5846POPC   D2A34240  32.224  36.928   8.250
 5846POPC   C3A34241  32.293  36.890   7.950
 5846POPC   C4A34242  32.263  36.943   7.650
 5846POPC   C1B34243  32.529  36.981   8.550
 5846POPC   C2B34244  32.531  36.926   8.250
 5846POPC   C3B34245  32.453  37.002   7.950
 5846POPC   C4B34246  32.525  36.941   7.650
 5847POPC   NC334247  12.895  20.566   9.450
 5847POPC   PO434248  12.871  20.575   9.150
 5847POPC   GL134249  12.865  20.625   8.850
 5847POPC   GL234250  12.901  20.482   8.850
 5847POPC   C1A34251  12.830  20.577   8.550
 5847POPC   D2A34252  12.902  20.574   8.250
 5847POPC   C3A34253  12.854  20.640   7.950
 5847POPC   C4A34254  12.892  20.651   7.650
 5847POPC   C1B34255  12.977  20.388   8.550
 5847POPC   C2B34256  12.969  20.376   8.250
 5847POPC   C3B34257  12.989  20.356   7.950
 5847POPC   C4B34258  12.954  20.424   7.650
 5848POPC   NC334259  12.822  43.107   9.450
 5848POPC   PO434260  12.807  43.109   9.150
 5848POPC   GL134261  12.841  43.102   8.850
 5848POPC   GL234262  12.782  43.053   8.850
 5848POPC   C1A34263  12.805  43.152   8.550
 5848POPC   D2A34264  12.862  43.098   8.250
 5848POPC   C3A34265  12.843  43.071   7.950
 5848POPC   C4A34266  12.812  43.079   7.650
 5848POPC   C1B34267  12.672  42.949   8.550
 5848POPC   C2B34268  12.667  42.972   8.250
 5848POPC   C3B34269  12.659  42.966   7.950
 5848POPC   C4B34270  12.663  42.957   7.650
 5849POPC   NC334271  41.570   0.405   9.450
 5849POPC   PO434272  41.558   0.465   9.150
 5849POPC   GL134273  41.517   0.476   8.850
 5849POPC   GL234274  41.627   0.519   8.850
 5849POPC   C1A34275  41.547   0.479   8.550
 5849POPC   D2A34276  41.554   0.420   8.250
 5849POPC   C3A34277  41.602   0.415   7.950
 5849POPC   C4A34278  41.548   0.389   7.650
 5849POPC   C1B34279  41.837   0.535   8.550
 5849POPC   C2B34280  41.792   0.525   8.250
 5849POPC   C3B34281  41.844   0.532   7.950
 5849POPC   C4B34282  41.755   0.532   7.650
 5850POPC   NC334283  19.068  19.871   9.450
 5850POPC   PO434284  19.013  19.795   9.150
 5850POPC   GL134285  19.025  19.879   8.850
 5850POPC   GL234286  19.121  19.906   8.850
 5850POPC   C1A34287  19.024  19.829   8.550
 5850POPC   D2A34288  19.051  19.882   8.250
 5850POPC   C3A34289  19.058  19.853   7.950
 5850POPC   C4A34290  19.108  19.832   7.650
 5850POPC   C1B34291  19.284  19.929   8.550
 5850POPC   C2B34292  19.288  19.937   8.250
 5850POPC   C3B34293  19.256  19.953   7.950
 5850POPC   C4B34294  19.251  19.950   7.650
 5851POPC   NC334295  36.951   6.648   9.450
 5851POPC   PO434296  36.892   6.690   9.150
 5851POPC   GL134297  36.909   6.608   8.850
 5851POPC   GL234298  36.881   6.812   8.850
 5851POPC   C1A34299  36.901   6.605   8.550
 5851POPC   D2A34300  36.905   6.603   8.250
 5851POPC   C3A34301  36.905   6.628   7.950
 5851POPC   C4A34302  36.910   6.600   7.650
 5851POPC   C1B34303  36.955   6.859   8.550
 5851POPC   C2B34304  36.897   6.855   8.250
 5851POPC   C3B34305  36.911   6.920   7.950
 5851POPC   C4B34306  36.888   6.846   7.650
 5852POPC   NC334307   6.614  10.543   9.450
 5852POPC   PO434308   6.692  10.572   9.150
 5852POPC   GL134309   6.612  10.552   8.850
 5852POPC   GL234310   6.787  10.418   8.850
 5852POPC   C1A34311   6.667  10.545   8.550
 5852POPC   D2A34312   6.645  10.546   8.250
 5852POPC   C3A34313   6.626  10.521   7.950
 5852POPC   C4A34314   6.612  10.495   7.650
 5852POPC   C1B34315   6.879  10.429   8.550
 5852POPC   C2B34316   6.852  10.455   8.250
 5852POPC   C3B34317   6.905  10.434   7.950
 5852POPC   C4B34318   6.908  10.366   7.650
 5853POPC   NC334319  19.067  36.878   9.450
 5853POPC   PO434320  19.081  36.932   9.150
 5853POPC   GL134321  19.057  36.935   8.850
 5853POPC   GL234322  19.112  36.995   8.850
 5853POPC   C1A34323  19.049  36.928   8.550
 5853POPC   D2A34324  19.105  36.892   8.250
 5853POPC   C3A34325  19.090  36.875   7.950
 5853POPC   C4A34326  19.090  36.873   7.650
 5853POPC   C1B34327  19.125  37.182   8.550
 5853POPC   C2B34328  19.122  37.169   8.250
 5853POPC   C3B34329  19.090  37.169   7.950
 5853POPC   C4B34330  19.087  37.178   7.650
 5854POPC   NC334331   3.545  43.135   9.450
 5854POPC   PO434332   3.524  43.157   9.150
 5854POPC   GL134333   3.540  43.103   8.850
 5854POPC   GL234334   3.557  43.205   8.850
 5854POPC   C1A34335   3.547  43.139   8.550
 5854POPC   D2A34336   3.589  43.108   8.250
 5854POPC   C3A34337   3.541  43.124   7.950
 5854POPC   C4A34338   3.546  43.157   7.650
 5854POPC   C1B34339   3.623  43.335   8.550
 5854POPC   C2B34340   3.664  43.365   8.250
 5854POPC   C3B34341   3.661  43.348   7.950
 5854POPC   C4B34342   3.684  43.329   7.650
 5855POPC   NC334343  41.530  25.992   9.450
 5855POPC   PO434344  41.528  26.015   9.150
 5855POPC   GL134345  41.514  26.082   8.850
 5855POPC   GL234346  41.570  25.877   8.850
 5855POPC   C1A34347  41.589  26.066   8.550
 5855POPC   D2A34348  41.531  26.040   8.250
 5855POPC   C3A34349  41.585  26.027   7.950
 5855POPC   C4A34350  41.533  26.041   7.650
 5855POPC   C1B34351  41.652  25.778   8.550
 5855POPC   C2B34352  41.658  25.810   8.250
 5855POPC   C3B34353  41.571  25.802   7.950
 5855POPC   C4B34354  41.624  25.755   7.650
 5856POPC   NC334355  26.787  44.672   9.450
 5856POPC   PO434356  26.783  44.648   9.150
 5856POPC   GL134357  26.794  44.660   8.850
 5856POPC   GL234358  26.891  44.795   8.850
 5856POPC   C1A34359  26.853  44.621   8.550
 5856POPC   D2A34360  26.850  44.659   8.250
 5856POPC   C3A34361  26.802  44.646   7.950
 5856POPC   C4A34362  26.829  44.705   7.650
 5856POPC   C1B34363  26.953  44.904   8.550
 5856POPC   C2B34364  26.898  44.856   8.250
 5856POPC   C3B34365  26.916  44.905   7.950
 5856POPC   C4B34366  26.932  44.858   7.650
 5857POPC   NC334367  32.232  30.722   9.450
 5857POPC   PO434368  32.216  30.674   9.150
 5857POPC   GL134369  32.248  30.736   8.850
 5857POPC   GL234370  32.349  30.705   8.850
 5857POPC   C1A34371  32.234  30.672   8.550
 5857POPC   D2A34372  32.216  30.647   8.250
 5857POPC   C3A34373  32.276  30.651   7.950
 5857POPC   C4A34374  32.233  30.722   7.650
 5857POPC   C1B34375  32.460  30.721   8.550
 5857POPC   C2B34376  32.449  30.772   8.250
 5857POPC   C3B34377  32.469  30.749   7.950
 5857POPC   C4B34378  32.463  30.747   7.650
 5858POPC   NC334379  43.159  24.530   9.450
 5858POPC   PO434380  43.131  24.456   9.150
 5858POPC   GL134381  43.127  24.503   8.850
 5858POPC   GL234382  43.091  24.363   8.850
 5858POPC   C1A34383  43.154  24.518   8.550
 5858POPC   D2A34384  43.138  24.473   8.250
 5858POPC   C3A34385  43.070  24.475   7.950
 5858POPC   C4A34386  43.072  24.443   7.650
 5858POPC   C1B34387  43.176  24.245   8.550
 5858POPC   C2B34388  43.173  24.209   8.250
 5858POPC   C3B34389  43.180  24.205   7.950
 5858POPC   C4B34390  43.098  24.212   7.650
 5859POPC   NC334391  11.347  26.026   9.450
 5859POPC   PO434392  11.309  26.066   9.150
 5859POPC   GL134393  11.297  26.028   8.850
 5859POPC   GL234394  11.314  25.904   8.850
 5859POPC   C1A34395  11.313  26.040   8.550
 5859POPC   D2A34396  11.289  26.046   8.250
 5859POPC   C3A34397  11.325  26.091   7.950
 5859POPC   C4A34398  11.264  26.080   7.650
 5859POPC   C1B34399  11.277  25.796   8.550
 5859POPC   C2B34400  11.266  25.819   8.250
 5859POPC   C3B34401  11.273  25.797   7.950
 5859POPC   C4B34402  11.235  25.798   7.650
 5860POPC   NC334403  23.719  27.630   9.450
 5860POPC   PO434404  23.763  27.583   9.150
 5860POPC   GL134405  23.726  27.610   8.850
 5860POPC   GL234406  23.720  27.678   8.850
 5860POPC   C1A34407  23.706  27.575   8.550
 5860POPC   D2A34408  23.690  27.640   8.250
 5860POPC   C3A34409  23.690  27.635   7.950
 5860POPC   C4A34410  23.682  27.610   7.650
 5860POPC   C1B34411  23.753  27.859   8.550
 5860POPC   C2B34412  23.720  27.825   8.250
 5860POPC   C3B34413  23.736  27.849   7.950
 5860POPC   C4B34414  23.724  27.858   7.650
 5861POPC   NC334415  13.584   5.077   9.450
 5861POPC   PO434416  13.611   5.105   9.150
 5861POPC   GL134417  13.667   5.134   8.850
 5861POPC   GL234418  13.518   5.074   8.850
 5861POPC   C1A34419  13.594   5.049   8.550
 5861POPC   D2A34420  13.632   5.058   8.250
 5861POPC   C3A34421  13.580   5.081   7.950
 5861POPC   C4A34422  13.610   5.135   7.650
 5861POPC   C1B34423  13.384   5.127   8.550
 5861POPC   C2B34424  13.406   5.085   8.250
 5861POPC   C3B34425  13.402   5.112   7.950
 5861POPC   C4B34426  13.421   5.105   7.650
 5862POPC   NC334427  42.347  13.640   9.450
 5862POPC   PO434428  42.333  13.603   9.150
 5862POPC   GL134429  42.344  13.655   8.850
 5862POPC   GL234430  42.437  13.617   8.850
 5862POPC   C1A34431  42.368  13.598   8.550
 5862POPC   D2A34432  42.317  13.596   8.250
 5862POPC   C3A34433  42.299  13.638   7.950
 5862POPC   C4A34434  42.343  13.652   7.650
 5862POPC   C1B34435  42.601  13.510   8.550
 5862POPC   C2B34436  42.547  13.473   8.250
 5862POPC   C3B34437  42.575  13.516   7.950
 5862POPC   C4B34438  42.595  13.551   7.650
 5863POPC   NC334439  41.519  40.818   9.450
 5863POPC   PO434440  41.532  40.747   9.150
 5863POPC   GL134441  41.592  40.735   8.850
 5863POPC   GL234442  41.638  40.831   8.850
 5863POPC   C1A34443  41.551  40.797   8.550
 5863POPC   D2A34444  41.589  40.753   8.250
 5863POPC   C3A34445  41.590  40.798   7.950
 5863POPC   C4A34446  41.596  40.780   7.650
 5863POPC   C1B34447  41.805  40.952   8.550
 5863POPC   C2B34448  41.767  40.892   8.250
 5863POPC   C3B34449  41.733  40.955   7.950
 5863POPC   C4B34450  41.751  40.914   7.650
 5864POPC   NC334451  29.136  19.048   9.450
 5864POPC   PO434452  29.180  19.041   9.150
 5864POPC   GL134453  29.175  19.083   8.850
 5864POPC   GL234454  29.041  18.986   8.850
 5864POPC   C1A34455  29.097  19.089   8.550
 5864POPC   D2A34456  29.119  19.048   8.250
 5864POPC   C3A34457  29.127  19.079   7.950
 5864POPC   C4A34458  29.170  19.043   7.650
 5864POPC   C1B34459  28.968  18.885   8.550
 5864POPC   C2B34460  28.901  18.899   8.250
 5864POPC   C3B34461  28.881  18.887   7.950
 5864POPC   C4B34462  28.881  18.940   7.650
 5865POPC   NC334463  15.132   7.461   9.450
 5865POPC   PO434464  15.145   7.405   9.150
 5865POPC   GL134465  15.180   7.468   8.850
 5865POPC   GL234466  15.026   7.522   8.850
 5865POPC   C1A34467  15.166   7.432   8.550
 5865POPC   D2A34468  15.225   7.440   8.250
 5865POPC   C3A34469  15.148   7.445   7.950
 5865POPC   C4A34470  15.162   7.417   7.650
 5865POPC   C1B34471  14.951   7.502   8.550
 5865POPC   C2B34472  14.909   7.560   8.250
 5865POPC   C3B34473  14.910   7.552   7.950
 5865POPC   C4B34474  14.931   7.563   7.650
 5866POPC   NC334475   6.605   4.271   9.450
 5866POPC   PO434476   6.643   4.344   9.150
 5866POPC   GL134477   6.617   4.329   8.850
 5866POPC   GL234478   6.550   4.238   8.850
 5866POPC   C1A34479   6.661   4.350   8.550
 5866POPC   D2A34480   6.632   4.339   8.250
 5866POPC   C3A34481   6.674   4.289   7.950
 5866POPC   C4A34482   6.692   4.352   7.650
 5866POPC   C1B34483   6.505   4.141   8.550
 5866POPC   C2B34484   6.427   4.164   8.250
 5866POPC   C3B34485   6.415   4.177   7.950
 5866POPC   C4B34486   6.505   4.173   7.650
 5867POPC   NC334487   5.137  40.028   9.450
 5867POPC   PO434488   5.065  39.963   9.150
 5867POPC   GL134489   5.120  40.028   8.850
 5867POPC   GL234490   5.070  39.894   8.850
 5867POPC   C1A34491   5.094  40.037   8.550
 5867POPC   D2A34492   5.067  39.990   8.250
 5867POPC   C3A34493   5.093  39.982   7.950
 5867POPC   C4A34494   5.077  40.013   7.650
 5867POPC   C1B34495   4.966  39.779   8.550
 5867POPC   C2B34496   5.004  39.788   8.250
 5867POPC   C3B34497   4.949  39.826   7.950
 5867POPC   C4B34498   4.992  39.802   7.650
 5868POPC   NC334499   8.980  40.767   9.450
 5868POPC   PO434500   9.001  40.765   9.150
 5868POPC   GL134501   8.964  40.832   8.850
 5868POPC   GL234502   8.828  40.833   8.850
 5868POPC   C1A34503   8.963  40.798   8.550
 5868POPC   D2A34504   8.979  40.796   8.250
 5868POPC   C3A34505   8.994  40.735   7.950
 5868POPC   C4A34506   8.993  40.808   7.650
 5868POPC   C1B34507   8.707  40.852   8.550
 5868POPC   C2B34508   8.771  40.879   8.250
 5868POPC   C3B34509   8.689  40.877   7.950
 5868POPC   C4B34510   8.699  40.889   7.650
 5869POPC   NC334511  10.525  25.267   9.450
 5869POPC   PO434512  10.496  25.221   9.150
 5869POPC   GL134513  10.524  25.232   8.850
 5869POPC   GL234514  10.527  25.406   8.850
 5869POPC   C1A34515  10.487  25.223   8.550
 5869POPC   D2A34516  10.486  25.313   8.250
 5869POPC   C3A34517  10.569  25.299   7.950
 5869POPC   C4A34518  10.506  25.282   7.650
 5869POPC   C1B34519  10.599  25.459   8.550
 5869POPC   C2B34520  10.663  25.523   8.250
 5869POPC   C3B34521  10.608  25.525   7.950
 5869POPC   C4B34522  10.577  25.452   7.650
 5870POPC   NC334523   5.821  28.412   9.450
 5870POPC   PO434524   5.819  28.328   9.150
 5870POPC   GL134525   5.905  28.347   8.850
 5870POPC   GL234526   5.779  28.271   8.850
 5870POPC   C1A34527   5.839  28.340   8.550
 5870POPC   D2A34528   5.899  28.355   8.250
 5870POPC   C3A34529   5.838  28.394   7.950
 5870POPC   C4A34530   5.865  28.403   7.650
 5870POPC   C1B34531   5.772  28.124   8.550
 5870POPC   C2B34532   5.764  28.150   8.250
 5870POPC   C3B34533   5.786  28.125   7.950
 5870POPC   C4B34534   5.803  28.120   7.650
 5871POPC   NC334535  24.458  39.189   9.450
 5871POPC   PO434536  24.444  39.273   9.150
 5871POPC   GL134537  24.442  39.247   8.850
 5871POPC   GL234538  24.387  39.371   8.850
 5871POPC   C1A34539  24.494  39.264   8.550
 5871POPC   D2A34540  24.494  39.253   8.250
 5871POPC   C3A34541  24.450  39.238   7.950
 5871POPC   C4A34542  24.440  39.279   7.650
 5871POPC   C1B34543  24.367  39.491   8.550
 5871POPC   C2B34544  24.374  39.483   8.250
 5871POPC   C3B34545  24.371  39.460   7.950
 5871POPC   C4B34546  24.338  39.490   7.650
 5872POPC   NC334547   5.134  10.561   9.450
 5872POPC   PO434548   5.060  10.555   9.150
 5872POPC   GL134549   5.117  10.481   8.850
 5872POPC   GL234550   5.014  10.671   8.850
 5872POPC   C1A34551   5.135  10.548   8.550
 5872POPC   D2A34552   5.066  10.525   8.250
 5872POPC   C3A34553   5.112  10.550   7.950
 5872POPC   C4A34554   5.090  10.550   7.650
 5872POPC   C1B34555   4.952  10.776   8.550
 5872POPC   C2B34556   5.002  10.790   8.250
 5872POPC   C3B34557   5.002  10.788   7.950
 5872POPC   C4B34558   5.003  10.734   7.650
 5873POPC   NC334559  25.277  27.565   9.450
 5873POPC   PO434560  25.312  27.565   9.150
 5873POPC   GL134561  25.227  27.610   8.850
 5873POPC   GL234562  25.111  27.563   8.850
 5873POPC   C1A34563  25.250  27.559   8.550
 5873POPC   D2A34564  25.287  27.561   8.250
 5873POPC   C3A34565  25.308  27.637   7.950
 5873POPC   C4A34566  25.256  27.601   7.650
 5873POPC   C1B34567  24.983  27.520   8.550
 5873POPC   C2B34568  25.044  27.542   8.250
 5873POPC   C3B34569  25.036  27.568   7.950
 5873POPC   C4B34570  25.053  27.563   7.650
 5874POPC   NC334571   7.384   9.725   9.450
 5874POPC   PO434572   7.431   9.706   9.150
 5874POPC   GL134573   7.400   9.795   8.850
 5874POPC   GL234574   7.525   9.770   8.850
 5874POPC   C1A34575   7.455   9.739   8.550
 5874POPC   D2A34576   7.441   9.731   8.250
 5874POPC   C3A34577   7.436   9.772   7.950
 5874POPC   C4A34578   7.414   9.711   7.650
 5874POPC   C1B34579   7.673   9.875   8.550
 5874POPC   C2B34580   7.646   9.885   8.250
 5874POPC   C3B34581   7.648   9.829   7.950
 5874POPC   C4B34582   7.651   9.797   7.650
 5875POPC   NC334583  11.312   0.478   9.450
 5875POPC   PO434584  11.326   0.473   9.150
 5875POPC   GL134585  11.296   0.477   8.850
 5875POPC   GL234586  11.239   0.491   8.850
 5875POPC   C1A34587  11.345   0.430   8.550
 5875POPC   D2A34588  11.252   0.427   8.250
 5875POPC   C3A34589  11.301   0.446   7.950
 5875POPC   C4A34590  11.255   0.422   7.650
 5875POPC   C1B34591  11.103   0.600   8.550
 5875POPC   C2B34592  11.136   0.594   8.250
 5875POPC   C3B34593  11.071   0.565   7.950
 5875POPC   C4B34594  11.093   0.615   7.650
 5876POPC   NC334595  11.268  19.846   9.450
 5876POPC   PO434596  11.341  19.852   9.150
 5876POPC   GL134597  11.345  19.856   8.850
 5876POPC   GL234598  11.176  19.798   8.850
 5876POPC   C1A34599  11.283  19.824   8.550
 5876POPC   D2A34600  11.306  19.812   8.250
 5876POPC   C3A34601  11.340  19.857   7.950
 5876POPC   C4A34602  11.280  19.850   7.650
 5876POPC   C1B34603  11.029  19.793   8.550
 5876POPC   C2B34604  11.006  19.803   8.250
 5876POPC   C3B34605  11.095  19.862   7.950
 5876POPC   C4B34606  11.005  19.857   7.650
 5877POPC   NC334607  36.936   3.582   9.450
 5877POPC   PO434608  36.950   3.544   9.150
 5877POPC   GL134609  36.918   3.534   8.850
 5877POPC   GL234610  37.064   3.577   8.850
 5877POPC   C1A34611  36.881   3.551   8.550
 5877POPC   D2A34612  36.894   3.532   8.250
 5877POPC   C3A34613  36.855   3.501   7.950
 5877POPC   C4A34614  36.940   3.537   7.650
 5877POPC   C1B34615  37.190   3.633   8.550
 5877POPC   C2B34616  37.194   3.585   8.250
 5877POPC   C3B34617  37.163   3.569   7.950
 5877POPC   C4B34618  37.194   3.572   7.650
 5878POPC   NC334619  41.519  21.407   9.450
 5878POPC   PO434620  41.588  21.423   9.150
 5878POPC   GL134621  41.554  21.342   8.850
 5878POPC   GL234622  41.599  21.251   8.850
 5878POPC   C1A34623  41.559  21.394   8.550
 5878POPC   D2A34624  41.518  21.389   8.250
 5878POPC   C3A34625  41.576  21.404   7.950
 5878POPC   C4A34626  41.542  21.340   7.650
 5878POPC   C1B34627  41.642  21.186   8.550
 5878POPC   C2B34628  41.659  21.124   8.250
 5878POPC   C3B34629  41.652  21.117   7.950
 5878POPC   C4B34630  41.655  21.182   7.650
 5879POPC   NC334631  40.047  40.041   9.450
 5879POPC   PO434632  40.033  39.998   9.150
 5879POPC   GL134633  39.978  39.961   8.850
 5879POPC   GL234634  40.102  39.883   8.850
 5879POPC   C1A34635  40.003  39.960   8.550
 5879POPC   D2A34636  39.991  39.992   8.250
 5879POPC   C3A34637  40.018  39.992   7.950
 5879POPC   C4A34638  40.014  40.045   7.650
 5879POPC   C1B34639  40.161  39.811   8.550
 5879POPC   C2B34640  40.131  39.762   8.250
 5879POPC   C3B34641  40.099  39.789   7.950
 5879POPC   C4B34642  40.089  39.750   7.650
 5880POPC   NC334643   1.219  44.702   9.450
 5880POPC   PO434644   1.233  44.704   9.150
 5880POPC   GL134645   1.191  44.696   8.850
 5880POPC   GL234646   1.089  44.568   8.850
 5880POPC   C1A34647   1.215  44.641   8.550
 5880POPC   D2A34648   1.252  44.702   8.250
 5880POPC   C3A34649   1.233  44.664   7.950
 5880POPC   C4A34650   1.239  44.689   7.650
 5880POPC   C1B34651   1.036  44.548   8.550
 5880POPC   C2B34652   0.963  44.551   8.250
 5880POPC   C3B34653   0.972  44.595   7.950
 5880POPC   C4B34654   1.034  44.502   7.650
 5881POPC   NC334655  21.360  42.337   9.450
 5881POPC   PO434656  21.372  42.383   9.150
 5881POPC   GL134657  21.361  42.299   8.850
 5881POPC   GL234658  21.314  42.266   8.850
 5881POPC   C1A34659  21.416  42.286   8.550
 5881POPC   D2A34660  21.371  42.334   8.250
 5881POPC   C3A34661  21.338  42.378   7.950
 5881POPC   C4A34662  21.398  42.337   7.650
 5881POPC   C1B34663  21.295  42.056   8.550
 5881POPC   C2B34664  21.282  42.139   8.250
 5881POPC   C3B34665  21.310  42.091   7.950
 5881POPC   C4B34666  21.345  42.087   7.650
 5882POPC   NC334667  20.598  33.769   9.450
 5882POPC   PO434668  20.620  33.814   9.150
 5882POPC   GL134669  20.635  33.778   8.850
 5882POPC   GL234670  20.708  33.833   8.850
 5882POPC   C1A34671  20.658  33.768   8.550
 5882POPC   D2A34672  20.569  33.766   8.250
 5882POPC   C3A34673  20.580  33.842   7.950
 5882POPC   C4A34674  20.632  33.816   7.650
 5882POPC   C1B34675  20.792  33.876   8.550
 5882POPC   C2B34676  20.856  33.910   8.250
 5882POPC   C3B34677  20.827  33.928   7.950
 5882POPC   C4B34678  20.866  33.874   7.650
 5883POPC   NC334679  31.460  29.897   9.450
 5883POPC   PO434680  31.426  29.892   9.150
 5883POPC   GL134681  31.511  29.934   8.850
 5883POPC   GL234682  31.316  29.925   8.850
 5883POPC   C1A34683  31.479  29.932   8.550
 5883POPC   D2A34684  31.425  29.955   8.250
 5883POPC   C3A34685  31.518  29.884   7.950
 5883POPC   C4A34686  31.429  29.945   7.650
 5883POPC   C1B34687  31.237  29.823   8.550
 5883POPC   C2B34688  31.282  29.885   8.250
 5883POPC   C3B34689  31.218  29.801   7.950
 5883POPC   C4B34690  31.250  29.859   7.650
 5884POPC   NC334691  37.704  15.163   9.450
 5884POPC   PO434692  37.687  15.219   9.150
 5884POPC   GL134693  37.637  15.220   8.850
 5884POPC   GL234694  37.687  15.066   8.850
 5884POPC   C1A34695  37.657  15.155   8.550
 5884POPC   D2A34696  37.728  15.185   8.250
 5884POPC   C3A34697  37.676  15.228   7.950
 5884POPC   C4A34698  37.692  15.210   7.650
 5884POPC   C1B34699  37.638  14.918   8.550
 5884POPC   C2B34700  37.640  14.971   8.250
 5884POPC   C3B34701  37.601  14.913   7.950
 5884POPC   C4B34702  37.603  14.941   7.650
 5885POPC   NC334703  19.819  22.141   9.450
 5885POPC   PO434704  19.824  22.145   9.150
 5885POPC   GL134705  19.840  22.159   8.850
 5885POPC   GL234706  19.791  22.236   8.850
 5885POPC   C1A34707  19.837  22.182   8.550
 5885POPC   D2A34708  19.804  22.209   8.250
 5885POPC   C3A34709  19.872  22.119   7.950
 5885POPC   C4A34710  19.808  22.202   7.650
 5885POPC   C1B34711  19.689  22.359   8.550
 5885POPC   C2B34712  19.635  22.313   8.250
 5885POPC   C3B34713  19.641  22.314   7.950
 5885POPC   C4B34714  19.602  22.352   7.650
 5886POPC   NC334715  25.260   8.962   9.450
 5886POPC   PO434716  25.238   8.949   9.150
 5886POPC   GL134717  25.247   8.963   8.850
 5886POPC   GL234718  25.157   9.025   8.850
 5886POPC   C1A34719  25.235   8.953   8.550
 5886POPC   D2A34720  25.234   9.022   8.250
 5886POPC   C3A34721  25.280   8.941   7.950
 5886POPC   C4A34722  25.284   8.973   7.650
 5886POPC   C1B34723  25.038   9.066   8.550
 5886POPC   C2B34724  25.039   9.030   8.250
 5886POPC   C3B34725  25.015   9.044   7.950
 5886POPC   C4B34726  25.052   9.061   7.650
 5887POPC   NC334727  30.664   8.240   9.450
 5887POPC   PO434728  30.706   8.214   9.150
 5887POPC   GL134729  30.675   8.170   8.850
 5887POPC   GL234730  30.718   8.036   8.850
 5887POPC   C1A34731  30.746   8.196   8.550
 5887POPC   D2A34732  30.685   8.174   8.250
 5887POPC   C3A34733  30.729   8.198   7.950
 5887POPC   C4A34734  30.727   8.233   7.650
 5887POPC   C1B34735  30.770   7.942   8.550
 5887POPC   C2B34736  30.770   7.918   8.250
 5887POPC   C3B34737  30.692   7.999   7.950
 5887POPC   C4B34738  30.740   7.962   7.650
 5888POPC   NC334739  22.987  12.077   9.450
 5888POPC   PO434740  22.945  12.085   9.150
 5888POPC   GL134741  22.919  12.026   8.850
 5888POPC   GL234742  22.792  12.173   8.850
 5888POPC   C1A34743  22.938  12.078   8.550
 5888POPC   D2A34744  22.918  12.112   8.250
 5888POPC   C3A34745  22.969  12.077   7.950
 5888POPC   C4A34746  22.956  12.071   7.650
 5888POPC   C1B34747  22.712  12.159   8.550
 5888POPC   C2B34748  22.678  12.180   8.250
 5888POPC   C3B34749  22.713  12.226   7.950
 5888POPC   C4B34750  22.707  12.233   7.650
 5889POPC   NC334751   1.997  20.610   9.450
 5889POPC   PO434752   2.035  20.595   9.150
 5889POPC   GL134753   1.966  20.620   8.850
 5889POPC   GL234754   1.970  20.463   8.850
 5889POPC   C1A34755   1.961  20.632   8.550
 5889POPC   D2A34756   2.016  20.561   8.250
 5889POPC   C3A34757   1.993  20.607   7.950
 5889POPC   C4A34758   2.015  20.592   7.650
 5889POPC   C1B34759   1.861  20.377   8.550
 5889POPC   C2B34760   1.836  20.446   8.250
 5889POPC   C3B34761   1.884  20.352   7.950
 5889POPC   C4B34762   1.844  20.419   7.650
 5890POPC   NC334763  42.345  30.730   9.450
 5890POPC   PO434764  42.330  30.698   9.150
 5890POPC   GL134765  42.292  30.665   8.850
 5890POPC   GL234766  42.388  30.525   8.850
 5890POPC   C1A34767  42.330  30.741   8.550
 5890POPC   D2A34768  42.371  30.721   8.250
 5890POPC   C3A34769  42.368  30.704   7.950
 5890POPC   C4A34770  42.325  30.729   7.650
 5890POPC   C1B34771  42.389  30.407   8.550
 5890POPC   C2B34772  42.360  30.415   8.250
 5890POPC   C3B34773  42.323  30.404   7.950
 5890POPC   C4B34774  42.391  30.435   7.650
 5891POPC   NC334775  17.515   8.937   9.450
 5891POPC   PO434776  17.499   9.021   9.150
 5891POPC   GL134777  17.488   9.005   8.850
 5891POPC   GL234778  17.579   9.133   8.850
 5891POPC   C1A34779  17.552   9.002   8.550
 5891POPC   D2A34780  17.530   8.947   8.250
 5891POPC   C3A34781  17.476   8.950   7.950
 5891POPC   C4A34782  17.504   8.925   7.650
 5891POPC   C1B34783  17.616   9.250   8.550
 5891POPC   C2B34784  17.567   9.230   8.250
 5891POPC   C3B34785  17.618   9.214   7.950
 5891POPC   C4B34786  17.535   9.245   7.650
 5892POPC   NC334787  24.534  22.168   9.450
 5892POPC   PO434788  24.508  22.121   9.150
 5892POPC   GL134789  24.530  22.149   8.850
 5892POPC   GL234790  24.516  22.077   8.850
 5892POPC   C1A34791  24.478  22.133   8.550
 5892POPC   D2A34792  24.476  22.204   8.250
 5892POPC   C3A34793  24.511  22.146   7.950
 5892POPC   C4A34794  24.466  22.176   7.650
 5892POPC   C1B34795  24.606  21.945   8.550
 5892POPC   C2B34796  24.651  21.954   8.250
 5892POPC   C3B34797  24.617  21.988   7.950
 5892POPC   C4B34798  24.605  21.904   7.650
 5893POPC   NC334799  14.381  25.284   9.450
 5893POPC   PO434800  14.368  25.227   9.150
 5893POPC   GL134801  14.360  25.236   8.850
 5893POPC   GL234802  14.504  25.365   8.850
 5893POPC   C1A34803  14.450  25.220   8.550
 5893POPC   D2A34804  14.366  25.220   8.250
 5893POPC   C3A34805  14.433  25.312   7.950
 5893POPC   C4A34806  14.419  25.233   7.650
 5893POPC   C1B34807  14.523  25.414   8.550
 5893POPC   C2B34808  14.598  25.440   8.250
 5893POPC   C3B34809  14.534  25.461   7.950
 5893POPC   C4B34810  14.526  25.447   7.650
 5894POPC   NC334811  33.844  18.328   9.450
 5894POPC   PO434812  33.784  18.259   9.150
 5894POPC   GL134813  33.760  18.268   8.850
 5894POPC   GL234814  33.689  18.366   8.850
 5894POPC   C1A34815  33.816  18.295   8.550
 5894POPC   D2A34816  33.820  18.305   8.250
 5894POPC   C3A34817  33.776  18.313   7.950
 5894POPC   C4A34818  33.806  18.235   7.650
 5894POPC   C1B34819  33.669  18.499   8.550
 5894POPC   C2B34820  33.670  18.525   8.250
 5894POPC   C3B34821  33.701  18.531   7.950
 5894POPC   C4B34822  33.627  18.473   7.650
 5895POPC   NC334823   5.137  31.469   9.450
 5895POPC   PO434824   5.130  31.512   9.150
 5895POPC   GL134825   5.117  31.497   8.850
 5895POPC   GL234826   5.193  31.416   8.850
 5895POPC   C1A34827   5.115  31.520   8.550
 5895POPC   D2A34828   5.120  31.499   8.250
 5895POPC   C3A34829   5.117  31.517   7.950
 5895POPC   C4A34830   5.134  31.439   7.650
 5895POPC   C1B34831   5.250  31.282   8.550
 5895POPC   C2B34832   5.243  31.301   8.250
 5895POPC   C3B34833   5.255  31.295   7.950
 5895POPC   C4B34834   5.315  31.365   7.650
 5896POPC   NC334835  11.276  19.024   9.450
 5896POPC   PO434836  11.307  19.070   9.150
 5896POPC   GL134837  11.321  19.100   8.850
 5896POPC   GL234838  11.413  18.983   8.850
 5896POPC   C1A34839  11.290  19.037   8.550
 5896POPC   D2A34840  11.266  19.047   8.250
 5896POPC   C3A34841  11.293  19.104   7.950
 5896POPC   C4A34842  11.289  19.100   7.650
 5896POPC   C1B34843  11.407  18.873   8.550
 5896POPC   C2B34844  11.482  18.877   8.250
 5896POPC   C3B34845  11.453  18.867   7.950
 5896POPC   C4B34846  11.445  18.838   7.650
 5897POPC   NC334847  12.099  25.314   9.450
 5897POPC   PO434848  12.041  25.236   9.150
 5897POPC   GL134849  12.099  25.295   8.850
 5897POPC   GL234850  11.957  25.184   8.850
 5897POPC   C1A34851  12.106  25.311   8.550
 5897POPC   D2A34852  12.092  25.223   8.250
 5897POPC   C3A34853  12.110  25.223   7.950
 5897POPC   C4A34854  12.115  25.236   7.650
 5897POPC   C1B34855  11.879  25.103   8.550
 5897POPC   C2B34856  11.894  25.092   8.250
 5897POPC   C3B34857  11.906  25.135   7.950
 5897POPC   C4B34858  11.922  25.072   7.650
 5898POPC   NC334859  19.785   1.164   9.450
 5898POPC   PO434860  19.812   1.212   9.150
 5898POPC   GL134861  19.829   1.254   8.850
 5898POPC   GL234862  19.759   1.277   8.850
 5898POPC   C1A34863  19.884   1.213   8.550
 5898POPC   D2A34864  19.880   1.216   8.250
 5898POPC   C3A34865  19.824   1.219   7.950
 5898POPC   C4A34866  19.835   1.210   7.650
 5898POPC   C1B34867  19.621   1.237   8.550
 5898POPC   C2B34868  19.616   1.275   8.250
 5898POPC   C3B34869  19.553   1.220   7.950
 5898POPC   C4B34870  19.581   1.251   7.650
 5899POPC   NC334871  12.062  19.847   9.450
 5899POPC   PO434872  12.054  19.803   9.150
 5899POPC   GL134873  12.104  19.877   8.850
 5899POPC   GL234874  12.136  19.935   8.850
 5899POPC   C1A34875  12.121  19.883   8.550
 5899POPC   D2A34876  12.093  19.812   8.250
 5899POPC   C3A34877  12.068  19.807   7.950
 5899POPC   C4A34878  12.032  19.872   7.650
 5899POPC   C1B34879  12.234  20.037   8.550
 5899POPC   C2B34880  12.279  20.040   8.250
 5899POPC   C3B34881  12.249  19.969   7.950
 5899POPC   C4B34882  12.238  20.027   7.650
 5900POPC   NC334883   2.807   9.771   9.450
 5900POPC   PO434884   2.742   9.712   9.150
 5900POPC   GL134885   2.764   9.782   8.850
 5900POPC   GL234886   2.679   9.608   8.850
 5900POPC   C1A34887   2.743   9.710   8.550
 5900POPC   D2A34888   2.724   9.778   8.250
 5900POPC   C3A34889   2.779   9.788   7.950
 5900POPC   C4A34890   2.725   9.783   7.650
 5900POPC   C1B34891   2.633   9.557   8.550
 5900POPC   C2B34892   2.662   9.510   8.250
 5900POPC   C3B34893   2.678   9.575   7.950
 5900POPC   C4B34894   2.607   9.496   7.650
 5901POPC   NC334895  11.336  29.938   9.450
 5901POPC   PO434896  11.270  29.969   9.150
 5901POPC   GL134897  11.307  29.891   8.850
 5901POPC   GL234898  11.202  29.945   8.850
 5901POPC   C1A34899  11.255  29.916   8.550
 5901POPC   D2A34900  11.278  29.874   8.250
 5901POPC   C3A34901  11.253  29.903   7.950
 5901POPC   C4A34902  11.295  29.898   7.650
 5901POPC   C1B34903  11.055  29.998   8.550
 5901POPC   C2B34904  11.088  30.003   8.250
 5901POPC   C3B34905  11.039  30.014   7.950
 5901POPC   C4B34906  11.014  29.950   7.650
 5902POPC   NC334907  19.097   4.310   9.450
 5902POPC   PO434908  19.096   4.270   9.150
 5902POPC   GL134909  19.105   4.283   8.850
 5902POPC   GL234910  18.939   4.436   8.850
 5902POPC   C1A34911  19.014   4.326   8.550
 5902POPC   D2A34912  19.080   4.344   8.250
 5902POPC   C3A34913  19.051   4.336   7.950
 5902POPC   C4A34914  19.095   4.274   7.650
 5902POPC   C1B34915  18.864   4.526   8.550
 5902POPC   C2B34916  18.910   4.473   8.250
 5902POPC   C3B34917  18.902   4.525   7.950
 5902POPC   C4B34918  18.922   4.489   7.650
 5903POPC   NC334919  32.202   2.010   9.450
 5903POPC   PO434920  32.222   1.964   9.150
 5903POPC   GL134921  32.217   2.014   8.850
 5903POPC   GL234922  32.267   2.129   8.850
 5903POPC   C1A34923  32.237   1.999   8.550
 5903POPC   D2A34924  32.234   1.973   8.250
 5903POPC   C3A34925  32.234   2.008   7.950
 5903POPC   C4A34926  32.202   1.956   7.650
 5903POPC   C1B34927  32.283   2.275   8.550
 5903POPC   C2B34928  32.201   2.198   8.250
 5903POPC   C3B34929  32.224   2.274   7.950
 5903POPC   C4B34930  32.278   2.284   7.650
 5904POPC   NC334931  16.688  13.613   9.450
 5904POPC   PO434932  16.775  13.588   9.150
 5904POPC   GL134933  16.722  13.581   8.850
 5904POPC   GL234934  16.761  13.707   8.850
 5904POPC   C1A34935  16.780  13.660   8.550
 5904POPC   D2A34936  16.760  13.624   8.250
 5904POPC   C3A34937  16.753  13.605   7.950
 5904POPC   C4A34938  16.710  13.652   7.650
 5904POPC   C1B34939  16.768  13.872   8.550
 5904POPC   C2B34940  16.805  13.844   8.250
 5904POPC   C3B34941  16.792  13.867   7.950
 5904POPC   C4B34942  16.790  13.834   7.650
 5905POPC   NC334943  41.523   8.200   9.450
 5905POPC   PO434944  41.540   8.207   9.150
 5905POPC   GL134945  41.560   8.150   8.850
 5905POPC   GL234946  41.725   8.197   8.850
 5905POPC   C1A34947  41.543   8.155   8.550
 5905POPC   D2A34948  41.587   8.170   8.250
 5905POPC   C3A34949  41.516   8.173   7.950
 5905POPC   C4A34950  41.563   8.231   7.650
 5905POPC   C1B34951  41.809   8.147   8.550
 5905POPC   C2B34952  41.775   8.106   8.250
 5905POPC   C3B34953  41.792   8.082   7.950
 5905POPC   C4B34954  41.743   8.107   7.650
 5906POPC   NC334955  25.231  41.531   9.450
 5906POPC   PO434956  25.300  41.578   9.150
 5906POPC   GL134957  25.230  41.515   8.850
 5906POPC   GL234958  25.201  41.504   8.850
 5906POPC   C1A34959  25.276  41.550   8.550
 5906POPC   D2A34960  25.216  41.558   8.250
 5906POPC   C3A34961  25.242  41.604   7.950
 5906POPC   C4A34962  25.301  41.587   7.650
 5906POPC   C1B34963  25.124  41.334   8.550
 5906POPC   C2B34964  25.160  41.317   8.250
 5906POPC   C3B34965  25.114  41.376   7.950
 5906POPC   C4B34966  25.132  41.351   7.650
 5907POPC   NC334967  26.043  25.239   9.450
 5907POPC   PO434968  26.083  25.247   9.150
 5907POPC   GL134969  26.029  25.242   8.850
 5907POPC   GL234970  26.128  25.423   8.850
 5907POPC   C1A34971  26.077  25.263   8.550
 5907POPC   D2A34972  26.063  25.304   8.250
 5907POPC   C3A34973  26.037  25.252   7.950
 5907POPC   C4A34974  25.999  25.239   7.650
 5907POPC   C1B34975  26.136  25.451   8.550
 5907POPC   C2B34976  26.114  25.485   8.250
 5907POPC   C3B34977  26.152  25.508   7.950
 5907POPC   C4B34978  26.119  25.467   7.650
 5908POPC   NC334979  12.110  22.186   9.450
 5908POPC   PO434980  12.074  22.133   9.150
 5908POPC   GL134981  12.121  22.178   8.850
 5908POPC   GL234982  12.212  22.248   8.850
 5908POPC   C1A34983  12.083  22.131   8.550
 5908POPC   D2A34984  12.033  22.172   8.250
 5908POPC   C3A34985  12.119  22.194   7.950
 5908POPC   C4A34986  12.113  22.207   7.650
 5908POPC   C1B34987  12.265  22.221   8.550
 5908POPC   C2B34988  12.331  22.287   8.250
 5908POPC   C3B34989  12.278  22.258   7.950
 5908POPC   C4B34990  12.304  22.256   7.650
 5909POPC   NC334991  29.892  41.568   9.450
 5909POPC   PO434992  29.951  41.591   9.150
 5909POPC   GL134993  29.940  41.592   8.850
 5909POPC   GL234994  29.876  41.614   8.850
 5909POPC   C1A34995  29.878  41.529   8.550
 5909POPC   D2A34996  29.881  41.528   8.250
 5909POPC   C3A34997  29.907  41.591   7.950
 5909POPC   C4A34998  29.947  41.529   7.650
 5909POPC   C1B34999  29.724  41.760   8.550
 5909POPC   C2B35000  29.757  41.746   8.250
 5909POPC   C3B35001  29.723  41.753   7.950
 5909POPC   C4B35002  29.697  41.730   7.650
 5910POPC   NC335003   3.536  22.139   9.450
 5910POPC   PO435004   3.552  22.129   9.150
 5910POPC   GL135005   3.532  22.163   8.850
 5910POPC   GL235006   3.604  22.212   8.850
 5910POPC   C1A35007   3.569  22.122   8.550
 5910POPC   D2A35008   3.516  22.182   8.250
 5910POPC   C3A35009   3.497  22.197   7.950
 5910POPC   C4A35010   3.544  22.208   7.650
 5910POPC   C1B35011   3.747  22.287   8.550
 5910POPC   C2B35012   3.762  22.316   8.250
 5910POPC   C3B35013   3.799  22.298   7.950
 5910POPC   C4B35014   3.767  22.277   7.650
 5911POPC   NC335015  16.760   1.985   9.450
 5911POPC   PO435016  16.760   2.006   9.150
 5911POPC   GL135017  16.683   1.956   8.850
 5911POPC   GL235018  16.809   2.095   8.850
 5911POPC   C1A35019  16.741   1.967   8.550
 5911POPC   D2A35020  16.724   2.018   8.250
 5911POPC   C3A35021  16.688   2.008   7.950
 5911POPC   C4A35022  16.737   1.963   7.650
 5911POPC   C1B35023  16.785   2.256   8.550
 5911POPC   C2B35024  16.782   2.259   8.250
 5911POPC   C3B35025  16.829   2.180   7.950
 5911POPC   C4B35026  16.796   2.236   7.650
 5912POPC   NC335027  19.800  26.842   9.450
 5912POPC   PO435028  19.841  26.808   9.150
 5912POPC   GL135029  19.837  26.856   8.850
 5912POPC   GL235030  19.951  26.892   8.850
 5912POPC   C1A35031  19.872  26.844   8.550
 5912POPC   D2A35032  19.819  26.864   8.250
 5912POPC   C3A35033  19.859  26.786   7.950
 5912POPC   C4A35034  19.857  26.769   7.650
 5912POPC   C1B35035  19.967  26.964   8.550
 5912POPC   C2B35036  20.002  27.009   8.250
 5912POPC   C3B35037  20.036  27.024   7.950
 5912POPC   C4B35038  20.049  26.998   7.650
 5913POPC   NC335039  13.635  43.861   9.450
 5913POPC   PO435040  13.608  43.837   9.150
 5913POPC   GL135041  13.628  43.934   8.850
 5913POPC   GL235042  13.629  43.973   8.850
 5913POPC   C1A35043  13.626  43.848   8.550
 5913POPC   D2A35044  13.651  43.838   8.250
 5913POPC   C3A35045  13.593  43.849   7.950
 5913POPC   C4A35046  13.670  43.870   7.650
 5913POPC   C1B35047  13.615  44.092   8.550
 5913POPC   C2B35048  13.629  44.095   8.250
 5913POPC   C3B35049  13.660  44.089   7.950
 5913POPC   C4B35050  13.702  44.183   7.650
 5914POPC   NC335051  36.871   8.988   9.450
 5914POPC   PO435052  36.890   8.999   9.150
 5914POPC   GL135053  36.909   8.938   8.850
 5914POPC   GL235054  36.869   8.873   8.850
 5914POPC   C1A35055  36.897   8.951   8.550
 5914POPC   D2A35056  36.896   8.958   8.250
 5914POPC   C3A35057  36.935   8.976   7.950
 5914POPC   C4A35058  36.890   8.970   7.650
 5914POPC   C1B35059  36.841   8.711   8.550
 5914POPC   C2B35060  36.794   8.766   8.250
 5914POPC   C3B35061  36.864   8.761   7.950
 5914POPC   C4B35062  36.863   8.684   7.650
 5915POPC   NC335063   5.058  16.745   9.450
 5915POPC   PO435064   5.066  16.778   9.150
 5915POPC   GL135065   5.082  16.691   8.850
 5915POPC   GL235066   4.968  16.665   8.850
 5915POPC   C1A35067   5.122  16.771   8.550
 5915POPC   D2A35068   5.101  16.684   8.250
 5915POPC   C3A35069   5.046  16.712   7.950
 5915POPC   C4A35070   5.066  16.699   7.650
 5915POPC   C1B35071   4.896  16.599   8.550
 5915POPC   C2B35072   4.894  16.621   8.250
 5915POPC   C3B35073   4.878  16.658   7.950
 5915POPC   C4B35074   4.851  16.593   7.650
 5916POPC   NC335075  13.676  30.683   9.450
 5916POPC   PO435076  13.655  30.696   9.150
 5916POPC   GL135077  13.618  30.715   8.850
 5916POPC   GL235078  13.476  30.662   8.850
 5916POPC   C1A35079  13.674  30.721   8.550
 5916POPC   D2A35080  13.648  30.731   8.250
 5916POPC   C3A35081  13.644  30.679   7.950
 5916POPC   C4A35082  13.677  30.718   7.650
 5916POPC   C1B35083  13.335  30.761   8.550
 5916POPC   C2B35084  13.420  30.702   8.250
 5916POPC   C3B35085  13.391  30.738   7.950
 5916POPC   C4B35086  13.405  30.715   7.650
 5917POPC   NC335087  21.423  13.608   9.450
 5917POPC   PO435088  21.388  13.618   9.150
 5917POPC   GL135089  21.430  13.619   8.850
 5917POPC   GL235090  21.318  13.508   8.850
 5917POPC   C1A35091  21.372  13.621   8.550
 5917POPC   D2A35092  21.373  13.673   8.250
 5917POPC   C3A35093  21.342  13.624   7.950
 5917POPC   C4A35094  21.374  13.639   7.650
 5917POPC   C1B35095  21.218  13.382   8.550
 5917POPC   C2B35096  21.296  13.394   8.250
 5917POPC   C3B35097  21.293  13.404   7.950
 5917POPC   C4B35098  21.278  13.409   7.650
 5918POPC   NC335099  35.319  19.065   9.450
 5918POPC   PO435100  35.353  19.091   9.150
 5918POPC   GL135101  35.401  19.024   8.850
 5918POPC   GL235102  35.409  18.890   8.850
 5918POPC   C1A35103  35.387  19.027   8.550
 5918POPC   D2A35104  35.311  19.082   8.250
 5918POPC   C3A35105  35.348  19.099   7.950
 5918POPC   C4A35106  35.390  19.036   7.650
 5918POPC   C1B35107  35.429  18.804   8.550
 5918POPC   C2B35108  35.429  18.800   8.250
 5918POPC   C3B35109  35.411  18.797   7.950
 5918POPC   C4B35110  35.451  18.836   7.650
 5919POPC   NC335111  23.761  29.906   9.450
 5919POPC   PO435112  23.672  29.950   9.150
 5919POPC   GL135113  23.699  29.954   8.850
 5919POPC   GL235114  23.638  29.858   8.850
 5919POPC   C1A35115  23.680  29.905   8.550
 5919POPC   D2A35116  23.759  29.944   8.250
 5919POPC   C3A35117  23.702  29.939   7.950
 5919POPC   C4A35118  23.721  29.941   7.650
 5919POPC   C1B35119  23.545  29.722   8.550
 5919POPC   C2B35120  23.585  29.751   8.250
 5919POPC   C3B35121  23.591  29.658   7.950
 5919POPC   C4B35122  23.631  29.702   7.650
 5920POPC   NC335123  12.055  35.323   9.450
 5920POPC   PO435124  12.047  35.345   9.150
 5920POPC   GL135125  12.087  35.332   8.850
 5920POPC   GL235126  12.062  35.439   8.850
 5920POPC   C1A35127  12.116  35.342   8.550
 5920POPC   D2A35128  12.047  35.390   8.250
 5920POPC   C3A35129  12.088  35.337   7.950
 5920POPC   C4A35130  12.123  35.379   7.650
 5920POPC   C1B35131  12.117  35.633   8.550
 5920POPC   C2B35132  12.131  35.634   8.250
 5920POPC   C3B35133  12.064  35.610   7.950
 5920POPC   C4B35134  12.073  35.591   7.650
 5921POPC   NC335135  36.875   4.324   9.450
 5921POPC   PO435136  36.870   4.313   9.150
 5921POPC   GL135137  36.947   4.347   8.850
 5921POPC   GL235138  37.032   4.355   8.850
 5921POPC   C1A35139  36.875   4.345   8.550
 5921POPC   D2A35140  36.927   4.300   8.250
 5921POPC   C3A35141  36.911   4.353   7.950
 5921POPC   C4A35142  36.892   4.271   7.650
 5921POPC   C1B35143  37.068   4.502   8.550
 5921POPC   C2B35144  37.126   4.535   8.250
 5921POPC   C3B35145  37.078   4.524   7.950
 5921POPC   C4B35146  37.134   4.493   7.650
 5922POPC   NC335147  33.831  13.622   9.450
 5922POPC   PO435148  33.840  13.611   9.150
 5922POPC   GL135149  33.795  13.631   8.850
 5922POPC   GL235150  33.825  13.733   8.850
 5922POPC   C1A35151  33.845  13.607   8.550
 5922POPC   D2A35152  33.825  13.596   8.250
 5922POPC   C3A35153  33.780  13.619   7.950
 5922POPC   C4A35154  33.818  13.633   7.650
 5922POPC   C1B35155  33.746  13.918   8.550
 5922POPC   C2B35156  33.749  13.840   8.250
 5922POPC   C3B35157  33.782  13.830   7.950
 5922POPC   C4B35158  33.780  13.916   7.650
 5923POPC   NC335159  32.256  12.872   9.450
 5923POPC   PO435160  32.287  12.887   9.150
 5923POPC   GL135161  32.268  12.812   8.850
 5923POPC   GL235162  32.121  12.884   8.850
 5923POPC   C1A35163  32.199  12.805   8.550
 5923POPC   D2A35164  32.295  12.827   8.250
 5923POPC   C3A35165  32.215  12.812   7.950
 5923POPC   C4A35166  32.222  12.845   7.650
 5923POPC   C1B35167  32.005  12.959   8.550
 5923POPC   C2B35168  32.051  13.001   8.250
 5923POPC   C3B35169  31.976  12.948   7.950
 5923POPC   C4B35170  31.999  12.924   7.650
 5924POPC   NC335171  16.003   6.628   9.450
 5924POPC   PO435172  15.924   6.665   9.150
 5924POPC   GL135173  15.971   6.674   8.850
 5924POPC   GL235174  15.933   6.810   8.850
 5924POPC   C1A35175  15.974   6.660   8.550
 5924POPC   D2A35176  15.922   6.685   8.250
 5924POPC   C3A35177  15.906   6.666   7.950
 5924POPC   C4A35178  16.001   6.621   7.650
 5924POPC   C1B35179  15.992   6.923   8.550
 5924POPC   C2B35180  16.014   6.917   8.250
 5924POPC   C3B35181  15.993   6.878   7.950
 5924POPC   C4B35182  16.036   6.857   7.650
 5925POPC   NC335183  34.608   9.710   9.450
 5925POPC   PO435184  34.607   9.763   9.150
 5925POPC   GL135185  34.609   9.730   8.850
 5925POPC   GL235186  34.509   9.723   8.850
 5925POPC   C1A35187  34.613   9.751   8.550
 5925POPC   D2A35188  34.580   9.698   8.250
 5925POPC   C3A35189  34.542   9.706   7.950
 5925POPC   C4A35190  34.597   9.779   7.650
 5925POPC   C1B35191  34.391   9.623   8.550
 5925POPC   C2B35192  34.352   9.641   8.250
 5925POPC   C3B35193  34.350   9.584   7.950
 5925POPC   C4B35194  34.365   9.628   7.650
 5926POPC   NC335195  44.663  15.229   9.450
 5926POPC   PO435196  44.677  15.136   9.150
 5926POPC   GL135197  44.617  15.200   8.850
 5926POPC   GL235198  44.717  15.072   8.850
 5926POPC   C1A35199  44.684  15.219   8.550
 5926POPC   D2A35200  44.694  15.155   8.250
 5926POPC   C3A35201  44.639  15.174   7.950
 5926POPC   C4A35202  44.677  15.196   7.650
 5926POPC   C1B35203  44.674  14.973   8.550
 5926POPC   C2B35204  44.697  14.901   8.250
 5926POPC   C3B35205  44.629  14.908   7.950
 5926POPC   C4B35206  44.700  14.881   7.650
 5927POPC   NC335207  43.142  42.358   9.450
 5927POPC   PO435208  43.102  42.350   9.150
 5927POPC   GL135209  43.072  42.290   8.850
 5927POPC   GL235210  42.997  42.412   8.850
 5927POPC   C1A35211  43.103  42.314   8.550
 5927POPC   D2A35212  43.070  42.302   8.250
 5927POPC   C3A35213  43.115  42.331   7.950
 5927POPC   C4A35214  43.145  42.368   7.650
 5927POPC   C1B35215  42.848  42.396   8.550
 5927POPC   C2B35216  42.911  42.469   8.250
 5927POPC   C3B35217  42.877  42.439   7.950
 5927POPC   C4B35218  42.842  42.476   7.650
 5928POPC   NC335219   3.495   2.750   9.450
 5928POPC   PO435220   3.545   2.805   9.150
 5928POPC   GL135221   3.585   2.780   8.850
 5928POPC   GL235222   3.508   2.642   8.850
 5928POPC   C1A35223   3.520   2.800   8.550
 5928POPC   D2A35224   3.520   2.786   8.250
 5928POPC   C3A35225   3.550   2.784   7.950
 5928POPC   C4A35226   3.508   2.812   7.650
 5928POPC   C1B35227   3.420   2.569   8.550
 5928POPC   C2B35228   3.353   2.545   8.250
 5928POPC   C3B35229   3.426   2.547   7.950
 5928POPC   C4B35230   3.407   2.554   7.650
 5929POPC   NC335231   8.170   2.721   9.450
 5929POPC   PO435232   8.222   2.772   9.150
 5929POPC   GL135233   8.160   2.733   8.850
 5929POPC   GL235234   8.336   2.793   8.850
 5929POPC   C1A35235   8.244   2.804   8.550
 5929POPC   D2A35236   8.217   2.797   8.250
 5929POPC   C3A35237   8.205   2.731   7.950
 5929POPC   C4A35238   8.225   2.797   7.650
 5929POPC   C1B35239   8.425   2.887   8.550
 5929POPC   C2B35240   8.458   2.860   8.250
 5929POPC   C3B35241   8.406   2.817   7.950
 5929POPC   C4B35242   8.476   2.840   7.650
 5930POPC   NC335243  12.885  39.196   9.450
 5930POPC   PO435244  12.860  39.190   9.150
 5930POPC   GL135245  12.880  39.197   8.850
 5930POPC   GL235246  12.967  39.329   8.850
 5930POPC   C1A35247  12.841  39.194   8.550
 5930POPC   D2A35248  12.853  39.266   8.250
 5930POPC   C3A35249  12.886  39.198   7.950
 5930POPC   C4A35250  12.868  39.186   7.650
 5930POPC   C1B35251  13.026  39.360   8.550
 5930POPC   C2B35252  13.061  39.412   8.250
 5930POPC   C3B35253  13.036  39.409   7.950
 5930POPC   C4B35254  13.064  39.395   7.650
 5931POPC   NC335255  27.628  40.025   9.450
 5931POPC   PO435256  27.555  39.983   9.150
 5931POPC   GL135257  27.573  40.013   8.850
 5931POPC   GL235258  27.443  40.033   8.850
 5931POPC   C1A35259  27.594  40.003   8.550
 5931POPC   D2A35260  27.555  39.987   8.250
 5931POPC   C3A35261  27.605  39.969   7.950
 5931POPC   C4A35262  27.631  39.960   7.650
 5931POPC   C1B35263  27.368  39.999   8.550
 5931POPC   C2B35264  27.340  40.098   8.250
 5931POPC   C3B35265  27.304  40.041   7.950
 5931POPC   C4B35266  27.363  40.025   7.650
 5932POPC   NC335267  29.124  15.151   9.450
 5932POPC   PO435268  29.135  15.171   9.150
 5932POPC   GL135269  29.148  15.170   8.850
 5932POPC   GL235270  29.188  15.345   8.850
 5932POPC   C1A35271  29.116  15.204   8.550
 5932POPC   D2A35272  29.110  15.144   8.250
 5932POPC   C3A35273  29.151  15.185   7.950
 5932POPC   C4A35274  29.115  15.198   7.650
 5932POPC   C1B35275  29.212  15.454   8.550
 5932POPC   C2B35276  29.207  15.374   8.250
 5932POPC   C3B35277  29.217  15.439   7.950
 5932POPC   C4B35278  29.162  15.414   7.650
 5933POPC   NC335279  34.529  24.499   9.450
 5933POPC   PO435280  34.570  24.492   9.150
 5933POPC   GL135281  34.570  24.468   8.850
 5933POPC   GL235282  34.705  24.476   8.850
 5933POPC   C1A35283  34.581  24.465   8.550
 5933POPC   D2A35284  34.537  24.499   8.250
 5933POPC   C3A35285  34.599  24.514   7.950
 5933POPC   C4A35286  34.532  24.452   7.650
 5933POPC   C1B35287  34.762  24.353   8.550
 5933POPC   C2B35288  34.809  24.334   8.250
 5933POPC   C3B35289  34.837  24.347   7.950
 5933POPC   C4B35290  34.752  24.403   7.650
 5934POPC   NC335291   9.753  40.036   9.450
 5934POPC   PO435292   9.708  40.030   9.150
 5934POPC   GL135293   9.761  40.036   8.850
 5934POPC   GL235294   9.751  40.110   8.850
 5934POPC   C1A35295   9.740  39.981   8.550
 5934POPC   D2A35296   9.756  40.054   8.250
 5934POPC   C3A35297   9.736  40.000   7.950
 5934POPC   C4A35298   9.768  40.024   7.650
 5934POPC   C1B35299   9.854  40.210   8.550
 5934POPC   C2B35300   9.849  40.286   8.250
 5934POPC   C3B35301   9.839  40.276   7.950
 5934POPC   C4B35302   9.788  40.243   7.650
 5935POPC   NC335303   2.758  30.728   9.450
 5935POPC   PO435304   2.787  30.665   9.150
 5935POPC   GL135305   2.727  30.661   8.850
 5935POPC   GL235306   2.883  30.628   8.850
 5935POPC   C1A35307   2.724  30.655   8.550
 5935POPC   D2A35308   2.766  30.731   8.250
 5935POPC   C3A35309   2.788  30.719   7.950
 5935POPC   C4A35310   2.743  30.655   7.650
 5935POPC   C1B35311   2.903  30.494   8.550
 5935POPC   C2B35312   2.922  30.471   8.250
 5935POPC   C3B35313   2.880  30.476   7.950
 5935POPC   C4B35314   2.865  30.536   7.650
 5936POPC   NC335315  42.368   9.711   9.450
 5936POPC   PO435316  42.384   9.750   9.150
 5936POPC   GL135317  42.308   9.778   8.850
 5936POPC   GL235318  42.487   9.677   8.850
 5936POPC   C1A35319  42.329   9.742   8.550
 5936POPC   D2A35320  42.362   9.786   8.250
 5936POPC   C3A35321  42.371   9.774   7.950
 5936POPC   C4A35322  42.286   9.796   7.650
 5936POPC   C1B35323  42.595   9.668   8.550
 5936POPC   C2B35324  42.608   9.682   8.250
 5936POPC   C3B35325  42.595   9.704   7.950
 5936POPC   C4B35326  42.609   9.645   7.650
 5937POPC   NC335327  41.558   7.468   9.450
 5937POPC   PO435328  41.595   7.456   9.150
 5937POPC   GL135329  41.560   7.454   8.850
 5937POPC   GL235330  41.634   7.457   8.850
 5937POPC   C1A35331  41.603   7.433   8.550
 5937POPC   D2A35332  41.573   7.400   8.250
 5937POPC   C3A35333  41.547   7.403   7.950
 5937POPC   C4A35334  41.550   7.412   7.650
 5937POPC   C1B35335  41.773   7.466   8.550
 5937POPC   C2B35336  41.778   7.411   8.250
 5937POPC   C3B35337  41.810   7.434   7.950
 5937POPC   C4B35338  41.786   7.434   7.650
 5938POPC   NC335339   9.751  10.548   9.450
 5938POPC   PO435340   9.766  10.493   9.150
 5938POPC   GL135341   9.763  10.553   8.850
 5938POPC   GL235342   9.836  10.440   8.850
 5938POPC   C1A35343   9.768  10.479   8.550
 5938POPC   D2A35344   9.727  10.557   8.250
 5938POPC   C3A35345   9.791  10.551   7.950
 5938POPC   C4A35346   9.757  10.553   7.650
 5938POPC   C1B35347   9.948  10.401   8.550
 5938POPC   C2B35348   9.938  10.408   8.250
 5938POPC   C3B35349   9.997  10.484   7.950
 5938POPC   C4B35350  10.018  10.450   7.650
 5939POPC   NC335351  35.361  23.688   9.450
 5939POPC   PO435352  35.347  23.749   9.150
 5939POPC   GL135353  35.350  23.668   8.850
 5939POPC   GL235354  35.415  23.637   8.850
 5939POPC   C1A35355  35.400  23.686   8.550
 5939POPC   D2A35356  35.315  23.751   8.250
 5939POPC   C3A35357  35.314  23.752   7.950
 5939POPC   C4A35358  35.380  23.713   7.650
 5939POPC   C1B35359  35.567  23.591   8.550
 5939POPC   C2B35360  35.568  23.568   8.250
 5939POPC   C3B35361  35.591  23.565   7.950
 5939POPC   C4B35362  35.591  23.621   7.650
 5940POPC   NC335363   0.484  33.795   9.450
 5940POPC   PO435364   0.470  33.772   9.150
 5940POPC   GL135365   0.431  33.819   8.850
 5940POPC   GL235366   0.376  33.754   8.850
 5940POPC   C1A35367   0.402  33.825   8.550
 5940POPC   D2A35368   0.453  33.808   8.250
 5940POPC   C3A35369   0.454  33.826   7.950
 5940POPC   C4A35370   0.460  33.827   7.650
 5940POPC   C1B35371   0.186  33.736   8.550
 5940POPC   C2B35372   0.204  33.646   8.250
 5940POPC   C3B35373   0.178  33.660   7.950
 5940POPC   C4B35374   0.261  33.711   7.650
 5941POPC   NC335375   4.306  15.146   9.450
 5941POPC   PO435376   4.333  15.154   9.150
 5941POPC   GL135377   4.282  15.157   8.850
 5941POPC   GL235378   4.318  15.257   8.850
 5941POPC   C1A35379   4.296  15.207   8.550
 5941POPC   D2A35380   4.276  15.171   8.250
 5941POPC   C3A35381   4.346  15.134   7.950
 5941POPC   C4A35382   4.287  15.160   7.650
 5941POPC   C1B35383   4.247  15.460   8.550
 5941POPC   C2B35384   4.259  15.395   8.250
 5941POPC   C3B35385   4.193  15.413   7.950
 5941POPC   C4B35386   4.202  15.391   7.650
 5942POPC   NC335387  25.267  19.074   9.450
 5942POPC   PO435388  25.262  19.082   9.150
 5942POPC   GL135389  25.266  19.032   8.850
 5942POPC   GL235390  25.274  19.165   8.850
 5942POPC   C1A35391  25.244  19.065   8.550
 5942POPC   D2A35392  25.250  19.079   8.250
 5942POPC   C3A35393  25.260  19.026   7.950
 5942POPC   C4A35394  25.237  19.057   7.650
 5942POPC   C1B35395  25.316  19.345   8.550
 5942POPC   C2B35396  25.295  19.292   8.250
 5942POPC   C3B35397  25.308  19.298   7.950
 5942POPC   C4B35398  25.381  19.280   7.650
 5943POPC   NC335399  26.867  15.222   9.450
 5943POPC   PO435400  26.792  15.188   9.150
 5943POPC   GL135401  26.807  15.215   8.850
 5943POPC   GL235402  26.689  15.088   8.850
 5943POPC   C1A35403  26.791  15.162   8.550
 5943POPC   D2A35404  26.780  15.222   8.250
 5943POPC   C3A35405  26.808  15.225   7.950
 5943POPC   C4A35406  26.768  15.174   7.650
 5943POPC   C1B35407  26.705  14.992   8.550
 5943POPC   C2B35408  26.691  15.026   8.250
 5943POPC   C3B35409  26.639  14.968   7.950
 5943POPC   C4B35410  26.663  15.026   7.650
 5944POPC   NC335411   2.727  42.288   9.450
 5944POPC   PO435412   2.740  42.359   9.150
 5944POPC   GL135413   2.797  42.326   8.850
 5944POPC   GL235414   2.691  42.498   8.850
 5944POPC   C1A35415   2.782  42.363   8.550
 5944POPC   D2A35416   2.733  42.309   8.250
 5944POPC   C3A35417   2.794  42.362   7.950
 5944POPC   C4A35418   2.742  42.337   7.650
 5944POPC   C1B35419   2.652  42.615   8.550
 5944POPC   C2B35420   2.702  42.615   8.250
 5944POPC   C3B35421   2.649  42.548   7.950
 5944POPC   C4B35422   2.667  42.579   7.650
 5945POPC   NC335423  43.104  26.025   9.450
 5945POPC   PO435424  43.146  26.065   9.150
 5945POPC   GL135425  43.094  26.075   8.850
 5945POPC   GL235426  43.270  26.043   8.850
 5945POPC   C1A35427  43.084  26.085   8.550
 5945POPC   D2A35428  43.120  26.031   8.250
 5945POPC   C3A35429  43.090  25.999   7.950
 5945POPC   C4A35430  43.107  26.071   7.650
 5945POPC   C1B35431  43.383  26.028   8.550
 5945POPC   C2B35432  43.338  25.990   8.250
 5945POPC   C3B35433  43.400  25.969   7.950
 5945POPC   C4B35434  43.388  25.951   7.650
 5946POPC   NC335435  22.115  13.666   9.450
 5946POPC   PO435436  22.176  13.593   9.150
 5946POPC   GL135437  22.170  13.674   8.850
 5946POPC   GL235438  22.275  13.771   8.850
 5946POPC   C1A35439  22.112  13.580   8.550
 5946POPC   D2A35440  22.175  13.579   8.250
 5946POPC   C3A35441  22.145  13.580   7.950
 5946POPC   C4A35442  22.182  13.588   7.650
 5946POPC   C1B35443  22.268  13.861   8.550
 5946POPC   C2B35444  22.312  13.829   8.250
 5946POPC   C3B35445  22.343  13.884   7.950
 5946POPC   C4B35446  22.313  13.798   7.650
 5947POPC   NC335447  22.150  37.647   9.450
 5947POPC   PO435448  22.132  37.649   9.150
 5947POPC   GL135449  22.165  37.673   8.850
 5947POPC   GL235450  22.263  37.755   8.850
 5947POPC   C1A35451  22.159  37.716   8.550
 5947POPC   D2A35452  22.114  37.702   8.250
 5947POPC   C3A35453  22.201  37.666   7.950
 5947POPC   C4A35454  22.184  37.697   7.650
 5947POPC   C1B35455  22.304  37.859   8.550
 5947POPC   C2B35456  22.329  37.844   8.250
 5947POPC   C3B35457  22.385  37.807   7.950
 5947POPC   C4B35458  22.376  37.814   7.650
 5948POPC   NC335459  38.422  29.925   9.450
 5948POPC   PO435460  38.477  29.908   9.150
 5948POPC   GL135461  38.467  29.936   8.850
 5948POPC   GL235462  38.560  29.994   8.850
 5948POPC   C1A35463  38.443  29.955   8.550
 5948POPC   D2A35464  38.405  29.881   8.250
 5948POPC   C3A35465  38.461  29.878   7.950
 5948POPC   C4A35466  38.455  29.939   7.650
 5948POPC   C1B35467  38.701  30.095   8.550
 5948POPC   C2B35468  38.672  30.108   8.250
 5948POPC   C3B35469  38.699  30.073   7.950
 5948POPC   C4B35470  38.629  30.018   7.650
 5949POPC   NC335471  17.544  27.626   9.450
 5949POPC   PO435472  17.511  27.591   9.150
 5949POPC   GL135473  17.468  27.632   8.850
 5949POPC   GL235474  17.344  27.613   8.850
 5949POPC   C1A35475  17.534  27.601   8.550
 5949POPC   D2A35476  17.522  27.642   8.250
 5949POPC   C3A35477  17.514  27.615   7.950
 5949POPC   C4A35478  17.494  27.561   7.650
 5949POPC   C1B35479  17.253  27.557   8.550
 5949POPC   C2B35480  17.245  27.504   8.250
 5949POPC   C3B35481  17.275  27.512   7.950
 5949POPC   C4B35482  17.276  27.487   7.650
 5950POPC   NC335483  12.029  33.751   9.450
 5950POPC   PO435484  12.093  33.790   9.150
 5950POPC   GL135485  12.070  33.817   8.850
 5950POPC   GL235486  12.166  33.726   8.850
 5950POPC   C1A35487  12.030  33.785   8.550
 5950POPC   D2A35488  12.036  33.772   8.250
 5950POPC   C3A35489  12.069  33.813   7.950
 5950POPC   C4A35490  12.049  33.806   7.650
 5950POPC   C1B35491  12.271  33.703   8.550
 5950POPC   C2B35492  12.259  33.705   8.250
 5950POPC   C3B35493  12.335  33.672   7.950
 5950POPC   C4B35494  12.318  33.716   7.650
 5951POPC   NC335495  43.919   3.561   9.450
 5951POPC   PO435496  43.916   3.548   9.150
 5951POPC   GL135497  43.883   3.546   8.850
 5951POPC   GL235498  43.739   3.620   8.850
 5951POPC   C1A35499  43.842   3.501   8.550
 5951POPC   D2A35500  43.842   3.549   8.250
 5951POPC   C3A35501  43.854   3.528   7.950
 5951POPC   C4A35502  43.929   3.531   7.650
 5951POPC   C1B35503  43.648   3.681   8.550
 5951POPC   C2B35504  43.619   3.625   8.250
 5951POPC   C3B35505  43.649   3.623   7.950
 5951POPC   C4B35506  43.673   3.615   7.650
 5952POPC   NC335507  19.882   4.290   9.450
 5952POPC   PO435508  19.875   4.269   9.150
 5952POPC   GL135509  19.786   4.285   8.850
 5952POPC   GL235510  19.972   4.295   8.850
 5952POPC   C1A35511  19.876   4.297   8.550
 5952POPC   D2A35512  19.853   4.271   8.250
 5952POPC   C3A35513  19.793   4.280   7.950
 5952POPC   C4A35514  19.800   4.333   7.650
 5952POPC   C1B35515  20.066   4.336   8.550
 5952POPC   C2B35516  20.123   4.244   8.250
 5952POPC   C3B35517  20.122   4.308   7.950
 5952POPC   C4B35518  20.048   4.251   7.650
 5953POPC   NC335519  44.687   1.262   9.450
 5953POPC   PO435520  44.629   1.210   9.150
 5953POPC   GL135521  44.691   1.165   8.850
 5953POPC   GL235522  44.734   1.083   8.850
 5953POPC   C1A35523  44.683   1.197   8.550
 5953POPC   D2A35524  44.688   1.239   8.250
 5953POPC   C3A35525  44.702   1.200   7.950
 5953POPC   C4A35526  44.681   1.169   7.650
 5953POPC   C1B35527  44.768   0.934   8.550
 5953POPC   C2B35528  44.707   0.978   8.250
 5953POPC   C3B35529  44.690   0.955   7.950
 5953POPC   C4B35530  44.722   0.972   7.650
 5954POPC   NC335531  10.556  36.865   9.450
 5954POPC   PO435532  10.488  36.942   9.150
 5954POPC   GL135533  10.478  36.906   8.850
 5954POPC   GL235534  10.609  36.868   8.850
 5954POPC   C1A35535  10.500  36.933   8.550
 5954POPC   D2A35536  10.481  36.929   8.250
 5954POPC   C3A35537  10.544  36.878   7.950
 5954POPC   C4A35538  10.542  36.923   7.650
 5954POPC   C1B35539  10.800  36.942   8.550
 5954POPC   C2B35540  10.793  36.920   8.250
 5954POPC   C3B35541  10.780  36.885   7.950
 5954POPC   C4B35542  10.814  36.918   7.650
 5955POPC   NC335543  15.135  38.468   9.450
 5955POPC   PO435544  15.214  38.494   9.150
 5955POPC   GL135545  15.130  38.419   8.850
 5955POPC   GL235546  15.027  38.515   8.850
 5955POPC   C1A35547  15.130  38.451   8.550
 5955POPC   D2A35548  15.146  38.481   8.250
 5955POPC   C3A35549  15.224  38.474   7.950
 5955POPC   C4A35550  15.222  38.416   7.650
 5955POPC   C1B35551  14.924  38.582   8.550
 5955POPC   C2B35552  14.974  38.546   8.250
 5955POPC   C3B35553  14.946  38.585   7.950
 5955POPC   C4B35554  14.956  38.586   7.650
 5956POPC   NC335555  15.130  40.752   9.450
 5956POPC   PO435556  15.151  40.829   9.150
 5956POPC   GL135557  15.153  40.768   8.850
 5956POPC   GL235558  15.109  40.717   8.850
 5956POPC   C1A35559  15.197  40.737   8.550
 5956POPC   D2A35560  15.156  40.782   8.250
 5956POPC   C3A35561  15.205  40.829   7.950
 5956POPC   C4A35562  15.137  40.816   7.650
 5956POPC   C1B35563  14.975  40.647   8.550
 5956POPC   C2B35564  14.969  40.642   8.250
 5956POPC   C3B35565  15.003  40.644   7.950
 5956POPC   C4B35566  15.000  40.613   7.650
 5957POPC   NC335567   0.432  36.951   9.450
 5957POPC   PO435568   0.465  36.923   9.150
 5957POPC   GL135569   0.480  36.935   8.850
 5957POPC   GL235570   0.284  36.984   8.850
 5957POPC   C1A35571   0.468  36.855   8.550
 5957POPC   D2A35572   0.397  36.919   8.250
 5957POPC   C3A35573   0.445  36.918   7.950
 5957POPC   C4A35574   0.413  36.870   7.650
 5957POPC   C1B35575   0.162  36.955   8.550
 5957POPC   C2B35576   0.239  36.965   8.250
 5957POPC   C3B35577   0.192  36.938   7.950
 5957POPC   C4B35578   0.236  36.938   7.650
 5958POPC   NC335579  42.366  38.424   9.450
 5958POPC   PO435580  42.384  38.446   9.150
 5958POPC   GL135581  42.357  38.471   8.850
 5958POPC   GL235582  42.221  38.406   8.850
 5958POPC   C1A35583  42.370  38.484   8.550
 5958POPC   D2A35584  42.289  38.425   8.250
 5958POPC   C3A35585  42.348  38.474   7.950
 5958POPC   C4A35586  42.319  38.456   7.650
 5958POPC   C1B35587  42.124  38.395   8.550
 5958POPC   C2B35588  42.120  38.370   8.250
 5958POPC   C3B35589  42.093  38.365   7.950
 5958POPC   C4B35590  42.134  38.351   7.650
 5959POPC   NC335591  44.692  41.578   9.450
 5959POPC   PO435592  44.638  41.601   9.150
 5959POPC   GL135593  44.648  41.564   8.850
 5959POPC   GL235594  44.552  41.461   8.850
 5959POPC   C1A35595  44.674  41.561   8.550
 5959POPC   D2A35596  44.645  41.571   8.250
 5959POPC   C3A35597  44.667  41.586   7.950
 5959POPC   C4A35598  44.673  41.594   7.650
 5959POPC   C1B35599  44.460  41.401   8.550
 5959POPC   C2B35600  44.450  41.394   8.250
 5959POPC   C3B35601  44.458  41.399   7.950
 5959POPC   C4B35602  44.413  41.406   7.650
 5960POPC   NC335603   5.905  26.772   9.450
 5960POPC   PO435604   5.879  26.860   9.150
 5960POPC   GL135605   5.885  26.838   8.850
 5960POPC   GL235606   5.829  26.722   8.850
 5960POPC   C1A35607   5.868  26.812   8.550
 5960POPC   D2A35608   5.913  26.820   8.250
 5960POPC   C3A35609   5.858  26.800   7.950
 5960POPC   C4A35610   5.900  26.830   7.650
 5960POPC   C1B35611   5.850  26.549   8.550
 5960POPC   C2B35612   5.841  26.555   8.250
 5960POPC   C3B35613   5.845  26.553   7.950
 5960POPC   C4B35614   5.911  26.586   7.650
 5961POPC   NC335615  25.252  39.994   9.450
 5961POPC   PO435616  25.295  40.026   9.150
 5961POPC   GL135617  25.303  39.986   8.850
 5961POPC   GL235618  25.185  39.927   8.850
 5961POPC   C1A35619  25.306  40.001   8.550
 5961POPC   D2A35620  25.263  40.043   8.250
 5961POPC   C3A35621  25.220  40.054   7.950
 5961POPC   C4A35622  25.309  39.992   7.650
 5961POPC   C1B35623  25.014  39.845   8.550
 5961POPC   C2B35624  25.013  39.902   8.250
 5961POPC   C3B35625  25.060  39.854   7.950
 5961POPC   C4B35626  25.067  39.904   7.650
 5962POPC   NC335627   9.015  33.806   9.450
 5962POPC   PO435628   8.989  33.845   9.150
 5962POPC   GL135629   8.999  33.751   8.850
 5962POPC   GL235630   9.041  33.698   8.850
 5962POPC   C1A35631   8.990  33.806   8.550
 5962POPC   D2A35632   9.009  33.766   8.250
 5962POPC   C3A35633   9.002  33.833   7.950
 5962POPC   C4A35634   8.929  33.753   7.650
 5962POPC   C1B35635   9.122  33.578   8.550
 5962POPC   C2B35636   9.084  33.629   8.250
 5962POPC   C3B35637   9.107  33.585   7.950
 5962POPC   C4B35638   9.114  33.566   7.650
 5963POPC   NC335639  34.620  32.228   9.450
 5963POPC   PO435640  34.540  32.247   9.150
 5963POPC   GL135641  34.608  32.227   8.850
 5963POPC   GL235642  34.656  32.156   8.850
 5963POPC   C1A35643  34.613  32.270   8.550
 5963POPC   D2A35644  34.625  32.259   8.250
 5963POPC   C3A35645  34.612  32.231   7.950
 5963POPC   C4A35646  34.564  32.225   7.650
 5963POPC   C1B35647  34.856  32.163   8.550
 5963POPC   C2B35648  34.778  32.145   8.250
 5963POPC   C3B35649  34.828  32.148   7.950
 5963POPC   C4B35650  34.790  32.203   7.650
 5964POPC   NC335651  29.097  28.386   9.450
 5964POPC   PO435652  29.155  28.417   9.150
 5964POPC   GL135653  29.097  28.412   8.850
 5964POPC   GL235654  29.089  28.416   8.850
 5964POPC   C1A35655  29.141  28.414   8.550
 5964POPC   D2A35656  29.152  28.345   8.250
 5964POPC   C3A35657  29.121  28.369   7.950
 5964POPC   C4A35658  29.161  28.403   7.650
 5964POPC   C1B35659  28.927  28.508   8.550
 5964POPC   C2B35660  28.963  28.595   8.250
 5964POPC   C3B35661  28.977  28.526   7.950
 5964POPC   C4B35662  28.936  28.551   7.650
 5965POPC   NC335663  33.010  12.833   9.450
 5965POPC   PO435664  33.030  12.821   9.150
 5965POPC   GL135665  32.996  12.885   8.850
 5965POPC   GL235666  33.086  12.965   8.850
 5965POPC   C1A35667  33.045  12.837   8.550
 5965POPC   D2A35668  32.994  12.867   8.250
 5965POPC   C3A35669  33.053  12.842   7.950
 5965POPC   C4A35670  33.018  12.858   7.650
 5965POPC   C1B35671  33.074  13.120   8.550
 5965POPC   C2B35672  33.064  13.063   8.250
 5965POPC   C3B35673  33.029  13.060   7.950
 5965POPC   C4B35674  33.101  13.120   7.650
 5966POPC   NC335675  40.035  31.430   9.450
 5966POPC   PO435676  39.987  31.515   9.150
 5966POPC   GL135677  39.982  31.473   8.850
 5966POPC   GL235678  39.971  31.336   8.850
 5966POPC   C1A35679  39.992  31.471   8.550
 5966POPC   D2A35680  40.003  31.491   8.250
 5966POPC   C3A35681  40.031  31.501   7.950
 5966POPC   C4A35682  40.053  31.482   7.650
 5966POPC   C1B35683  39.804  31.327   8.550
 5966POPC   C2B35684  39.798  31.308   8.250
 5966POPC   C3B35685  39.800  31.267   7.950
 5966POPC   C4B35686  39.804  31.258   7.650
 5967POPC   NC335687  27.638  13.604   9.450
 5967POPC   PO435688  27.615  13.616   9.150
 5967POPC   GL135689  27.624  13.671   8.850
 5967POPC   GL235690  27.654  13.485   8.850
 5967POPC   C1A35691  27.588  13.633   8.550
 5967POPC   D2A35692  27.634  13.593   8.250
 5967POPC   C3A35693  27.635  13.586   7.950
 5967POPC   C4A35694  27.552  13.580   7.650
 5967POPC   C1B35695  27.639  13.368   8.550
 5967POPC   C2B35696  27.658  13.408   8.250
 5967POPC   C3B35697  27.640  13.390   7.950
 5967POPC   C4B35698  27.656  13.364   7.650
 5968POPC   NC335699  33.018  23.671   9.450
 5968POPC   PO435700  33.043  23.749   9.150
 5968POPC   GL135701  33.048  23.714   8.850
 5968POPC   GL235702  32.930  23.588   8.850
 5968POPC   C1A35703  33.001  23.729   8.550
 5968POPC   D2A35704  33.023  23.664   8.250
 5968POPC   C3A35705  33.067  23.722   7.950
 5968POPC   C4A35706  32.989  23.666   7.650
 5968POPC   C1B35707  32.863  23.515   8.550
 5968POPC   C2B35708  32.837  23.532   8.250
 5968POPC   C3B35709  32.804  23.545   7.950
 5968POPC   C4B35710  32.839  23.521   7.650
 5969POPC   NC335711   0.450   9.707   9.450
 5969POPC   PO435712   0.480   9.711   9.150
 5969POPC   GL135713   0.457   9.712   8.850
 5969POPC   GL235714   0.381   9.780   8.850
 5969POPC   C1A35715   0.449   9.718   8.550
 5969POPC   D2A35716   0.419   9.705   8.250
 5969POPC   C3A35717   0.416   9.778   7.950
 5969POPC   C4A35718   0.413   9.731   7.650
 5969POPC   C1B35719   0.263   9.919   8.550
 5969POPC   C2B35720   0.219   9.933   8.250
 5969POPC   C3B35721   0.280   9.924   7.950
 5969POPC   C4B35722   0.196   9.912   7.650
 5970POPC   NC335723  39.186  11.312   9.450
 5970POPC   PO435724  39.277  11.339   9.150
 5970POPC   GL135725  39.232  11.283   8.850
 5970POPC   GL235726  39.154  11.229   8.850
 5970POPC   C1A35727  39.186  11.251   8.550
 5970POPC   D2A35728  39.277  11.285   8.250
 5970POPC   C3A35729  39.210  11.345   7.950
 5970POPC   C4A35730  39.250  11.311   7.650
 5970POPC   C1B35731  39.018  11.228   8.550
 5970POPC   C2B35732  39.036  11.188   8.250
 5970POPC   C3B35733  38.973  11.175   7.950
 5970POPC   C4B35734  39.004  11.217   7.650
 5971POPC   NC335735   5.110  36.095   9.450
 5971POPC   PO435736   5.046  36.115   9.150
 5971POPC   GL135737   5.072  36.172   8.850
 5971POPC   GL235738   5.161  36.078   8.850
 5971POPC   C1A35739   5.115  36.140   8.550
 5971POPC   D2A35740   5.043  36.095   8.250
 5971POPC   C3A35741   5.064  36.172   7.950
 5971POPC   C4A35742   5.142  36.177   7.650
 5971POPC   C1B35743   5.309  36.009   8.550
 5971POPC   C2B35744   5.240  35.945   8.250
 5971POPC   C3B35745   5.302  35.928   7.950
 5971POPC   C4B35746   5.280  35.924   7.650
 5972POPC   NC335747  26.807  42.324   9.450
 5972POPC   PO435748  26.813  42.307   9.150
 5972POPC   GL135749  26.837  42.349   8.850
 5972POPC   GL235750  26.689  42.379   8.850
 5972POPC   C1A35751  26.799  42.353   8.550
 5972POPC   D2A35752  26.767  42.353   8.250
 5972POPC   C3A35753  26.843  42.288   7.950
 5972POPC   C4A35754  26.866  42.306   7.650
 5972POPC   C1B35755  26.575  42.317   8.550
 5972POPC   C2B35756  26.579  42.327   8.250
 5972POPC   C3B35757  26.531  42.319   7.950
 5972POPC   C4B35758  26.566  42.358   7.650
 5973POPC   NC335759  18.252  44.706   9.450
 5973POPC   PO435760  18.281  44.630   9.150
 5973POPC   GL135761  18.323  44.692   8.850
 5973POPC   GL235762  18.236  44.510   8.850
 5973POPC   C1A35763  18.256  44.639   8.550
 5973POPC   D2A35764  18.240  44.711   8.250
 5973POPC   C3A35765  18.311  44.656   7.950
 5973POPC   C4A35766  18.260  44.636   7.650
 5973POPC   C1B35767  18.285  44.419   8.550
 5973POPC   C2B35768  18.314  44.376   8.250
 5973POPC   C3B35769  18.251  44.428   7.950
 5973POPC   C4B35770  18.309  44.461   7.650
 5974POPC   NC335771  20.632  39.244   9.450
 5974POPC   PO435772  20.613  39.187   9.150
 5974POPC   GL135773  20.570  39.182   8.850
 5974POPC   GL235774  20.725  39.264   8.850
 5974POPC   C1A35775  20.580  39.259   8.550
 5974POPC   D2A35776  20.581  39.250   8.250
 5974POPC   C3A35777  20.605  39.278   7.950
 5974POPC   C4A35778  20.628  39.198   7.650
 5974POPC   C1B35779  20.878  39.318   8.550
 5974POPC   C2B35780  20.854  39.337   8.250
 5974POPC   C3B35781  20.792  39.381   7.950
 5974POPC   C4B35782  20.811  39.351   7.650
 5975POPC   NC335783  20.604  35.320   9.450
 5975POPC   PO435784  20.598  35.307   9.150
 5975POPC   GL135785  20.645  35.374   8.850
 5975POPC   GL235786  20.529  35.250   8.850
 5975POPC   C1A35787  20.566  35.322   8.550
 5975POPC   D2A35788  20.609  35.379   8.250
 5975POPC   C3A35789  20.585  35.344   7.950
 5975POPC   C4A35790  20.603  35.307   7.650
 5975POPC   C1B35791  20.376  35.222   8.550
 5975POPC   C2B35792  20.378  35.212   8.250
 5975POPC   C3B35793  20.413  35.201   7.950
 5975POPC   C4B35794  20.433  35.215   7.650
 5976POPC   NC335795   0.419  12.820   9.450
 5976POPC   PO435796   0.458  12.829   9.150
 5976POPC   GL135797   0.404  12.848   8.850
 5976POPC   GL235798   0.504  12.824   8.850
 5976POPC   C1A35799   0.438  12.823   8.550
 5976POPC   D2A35800   0.397  12.893   8.250
 5976POPC   C3A35801   0.430  12.813   7.950
 5976POPC   C4A35802   0.477  12.888   7.650
 5976POPC   C1B35803   0.612  12.739   8.550
 5976POPC   C2B35804   0.682  12.676   8.250
 5976POPC   C3B35805   0.681  12.733   7.950
 5976POPC   C4B35806   0.682  12.743   7.650
 5977POPC   NC335807   2.789  13.626   9.450
 5977POPC   PO435808   2.803  13.621   9.150
 5977POPC   GL135809   2.767  13.585   8.850
 5977POPC   GL235810   2.760  13.762   8.850
 5977POPC   C1A35811   2.767  13.677   8.550
 5977POPC   D2A35812   2.737  13.651   8.250
 5977POPC   C3A35813   2.795  13.657   7.950
 5977POPC   C4A35814   2.762  13.615   7.650
 5977POPC   C1B35815   2.728  13.856   8.550
 5977POPC   C2B35816   2.798  13.922   8.250
 5977POPC   C3B35817   2.806  13.878   7.950
 5977POPC   C4B35818   2.727  13.893   7.650
 5978POPC   NC335819  16.736  28.368   9.450
 5978POPC   PO435820  16.708  28.350   9.150
 5978POPC   GL135821  16.724  28.374   8.850
 5978POPC   GL235822  16.837  28.287   8.850
 5978POPC   C1A35823  16.728  28.386   8.550
 5978POPC   D2A35824  16.720  28.408   8.250
 5978POPC   C3A35825  16.755  28.384   7.950
 5978POPC   C4A35826  16.771  28.324   7.650
 5978POPC   C1B35827  16.837  28.184   8.550
 5978POPC   C2B35828  16.887  28.180   8.250
 5978POPC   C3B35829  16.890  28.139   7.950
 5978POPC   C4B35830  16.842  28.133   7.650
 5979POPC   NC335831   7.429  44.614   9.450
 5979POPC   PO435832   7.377  44.649   9.150
 5979POPC   GL135833   7.394  44.641   8.850
 5979POPC   GL235834   7.495  44.738   8.850
 5979POPC   C1A35835   7.371  44.657   8.550
 5979POPC   D2A35836   7.418  44.621   8.250
 5979POPC   C3A35837   7.447  44.667   7.950
 5979POPC   C4A35838   7.421  44.702   7.650
 5979POPC   C1B35839   7.652  44.791   8.550
 5979POPC   C2B35840   7.613  44.791   8.250
 5979POPC   C3B35841   7.685  44.789   7.950
 5979POPC   C4B35842   7.656  44.768   7.650
 5980POPC   NC335843   2.743  16.728   9.450
 5980POPC   PO435844   2.740  16.710   9.150
 5980POPC   GL135845   2.801  16.774   8.850
 5980POPC   GL235846   2.730  16.660   8.850
 5980POPC   C1A35847   2.793  16.751   8.550
 5980POPC   D2A35848   2.796  16.711   8.250
 5980POPC   C3A35849   2.807  16.720   7.950
 5980POPC   C4A35850   2.811  16.749   7.650
 5980POPC   C1B35851   2.666  16.522   8.550
 5980POPC   C2B35852   2.680  16.497   8.250
 5980POPC   C3B35853   2.656  16.487   7.950
 5980POPC   C4B35854   2.636  16.484   7.650
 5981POPC   NC335855  13.635  43.062   9.450
 5981POPC   PO435856  13.639  43.123   9.150
 5981POPC   GL135857  13.645  43.066   8.850
 5981POPC   GL235858  13.728  43.099   8.850
 5981POPC   C1A35859  13.600  43.136   8.550
 5981POPC   D2A35860  13.580  43.068   8.250
 5981POPC   C3A35861  13.599  43.098   7.950
 5981POPC   C4A35862  13.675  43.156   7.650
 5981POPC   C1B35863  13.907  43.054   8.550
 5981POPC   C2B35864  13.828  43.030   8.250
 5981POPC   C3B35865  13.876  43.014   7.950
 5981POPC   C4B35866  13.878  43.056   7.650
 5982POPC   NC335867   6.614  33.028   9.450
 5982POPC   PO435868   6.651  33.058   9.150
 5982POPC   GL135869   6.639  33.063   8.850
 5982POPC   GL235870   6.652  32.912   8.850
 5982POPC   C1A35871   6.651  33.049   8.550
 5982POPC   D2A35872   6.607  33.033   8.250
 5982POPC   C3A35873   6.621  33.045   7.950
 5982POPC   C4A35874   6.685  33.022   7.650
 5982POPC   C1B35875   6.536  32.759   8.550
 5982POPC   C2B35876   6.570  32.785   8.250
 5982POPC   C3B35877   6.562  32.830   7.950
 5982POPC   C4B35878   6.593  32.764   7.650
 5983POPC   NC335879  18.276  33.073   9.450
 5983POPC   PO435880  18.248  33.017   9.150
 5983POPC   GL135881  18.272  33.024   8.850
 5983POPC   GL235882  18.304  33.112   8.850
 5983POPC   C1A35883  18.244  33.070   8.550
 5983POPC   D2A35884  18.260  33.008   8.250
 5983POPC   C3A35885  18.261  33.007   7.950
 5983POPC   C4A35886  18.326  33.072   7.650
 5983POPC   C1B35887  18.335  33.271   8.550
 5983POPC   C2B35888  18.331  33.241   8.250
 5983POPC   C3B35889  18.347  33.297   7.950
 5983POPC   C4B35890  18.333  33.271   7.650
 5984POPC   NC335891   5.879  19.799   9.450
 5984POPC   PO435892   5.878  19.790   9.150
 5984POPC   GL135893   5.842  19.834   8.850
 5984POPC   GL235894   5.965  19.986   8.850
 5984POPC   C1A35895   5.841  19.859   8.550
 5984POPC   D2A35896   5.904  19.860   8.250
 5984POPC   C3A35897   5.855  19.882   7.950
 5984POPC   C4A35898   5.910  19.802   7.650
 5984POPC   C1B35899   5.957  20.079   8.550
 5984POPC   C2B35900   6.005  20.107   8.250
 5984POPC   C3B35901   5.961  20.075   7.950
 5984POPC   C4B35902   5.990  20.024   7.650
 5985POPC   NC335903  19.082  32.227   9.450
 5985POPC   PO435904  19.045  32.210   9.150
 5985POPC   GL135905  19.102  32.283   8.850
 5985POPC   GL235906  18.969  32.165   8.850
 5985POPC   C1A35907  19.044  32.269   8.550
 5985POPC   D2A35908  19.021  32.291   8.250
 5985POPC   C3A35909  19.090  32.247   7.950
 5985POPC   C4A35910  19.103  32.223   7.650
 5985POPC   C1B35911  18.831  32.162   8.550
 5985POPC   C2B35912  18.824  32.163   8.250
 5985POPC   C3B35913  18.822  32.150   7.950
 5985POPC   C4B35914  18.818  32.110   7.650
 5986POPC   NC335915  22.149  38.428   9.450
 5986POPC   PO435916  22.176  38.414   9.150
 5986POPC   GL135917  22.203  38.423   8.850
 5986POPC   GL235918  22.090  38.543   8.850
 5986POPC   C1A35919  22.204  38.488   8.550
 5986POPC   D2A35920  22.192  38.448   8.250
 5986POPC   C3A35921  22.153  38.441   7.950
 5986POPC   C4A35922  22.203  38.462   7.650
 5986POPC   C1B35923  22.037  38.622   8.550
 5986POPC   C2B35924  22.066  38.668   8.250
 5986POPC   C3B35925  21.992  38.654   7.950
 5986POPC   C4B35926  22.012  38.623   7.650
 5987POPC   NC335927  40.028  41.518   9.450
 5987POPC   PO435928  40.049  41.523   9.150
 5987POPC   GL135929  40.045  41.554   8.850
 5987POPC   GL235930  39.931  41.642   8.850
 5987POPC   C1A35931  40.055  41.594   8.550
 5987POPC   D2A35932  40.026  41.596   8.250
 5987POPC   C3A35933  40.009  41.606   7.950
 5987POPC   C4A35934  40.048  41.581   7.650
 5987POPC   C1B35935  39.789  41.742   8.550
 5987POPC   C2B35936  39.783  41.718   8.250
 5987POPC   C3B35937  39.781  41.750   7.950
 5987POPC   C4B35938  39.811  41.767   7.650
 5988POPC   NC335939   1.235  42.296   9.450
 5988POPC   PO435940   1.262  42.300   9.150
 5988POPC   GL135941   1.192  42.342   8.850
 5988POPC   GL235942   1.288  42.283   8.850
 5988POPC   C1A35943   1.208  42.343   8.550
 5988POPC   D2A35944   1.249  42.381   8.250
 5988POPC   C3A35945   1.252  42.366   7.950
 5988POPC   C4A35946   1.231  42.324   7.650
 5988POPC   C1B35947   1.450  42.259   8.550
 5988POPC   C2B35948   1.465  42.263   8.250
 5988POPC   C3B35949   1.437  42.306   7.950
 5988POPC   C4B35950   1.447  42.278   7.650
 5989POPC   NC335951  16.758  43.879   9.450
 5989POPC   PO435952  16.754  43.926   9.150
 5989POPC   GL135953  16.779  43.901   8.850
 5989POPC   GL235954  16.597  43.909   8.850
 5989POPC   C1A35955  16.712  43.923   8.550
 5989POPC   D2A35956  16.777  43.858   8.250
 5989POPC   C3A35957  16.721  43.856   7.950
 5989POPC   C4A35958  16.718  43.884   7.650
 5989POPC   C1B35959  16.468  43.903   8.550
 5989POPC   C2B35960  16.521  43.850   8.250
 5989POPC   C3B35961  16.437  43.862   7.950
 5989POPC   C4B35962  16.452  43.888   7.650
 5990POPC   NC335963  32.270  26.793   9.450
 5990POPC   PO435964  32.221  26.775   9.150
 5990POPC   GL135965  32.227  26.785   8.850
 5990POPC   GL235966  32.339  26.738   8.850
 5990POPC   C1A35967  32.278  26.849   8.550
 5990POPC   D2A35968  32.230  26.807   8.250
 5990POPC   C3A35969  32.253  26.825   7.950
 5990POPC   C4A35970  32.267  26.783   7.650
 5990POPC   C1B35971  32.373  26.653   8.550
 5990POPC   C2B35972  32.421  26.638   8.250
 5990POPC   C3B35973  32.358  26.600   7.950
 5990POPC   C4B35974  32.341  26.600   7.650
 5991POPC   NC335975  22.957  40.043   9.450
 5991POPC   PO435976  22.934  39.998   9.150
 5991POPC   GL135977  22.940  40.042   8.850
 5991POPC   GL235978  23.058  39.966   8.850
 5991POPC   C1A35979  22.939  40.054   8.550
 5991POPC   D2A35980  22.977  40.015   8.250
 5991POPC   C3A35981  22.973  40.013   7.950
 5991POPC   C4A35982  22.890  39.987   7.650
 5991POPC   C1B35983  23.182  39.883   8.550
 5991POPC   C2B35984  23.178  39.872   8.250
 5991POPC   C3B35985  23.166  39.911   7.950
 5991POPC   C4B35986  23.147  39.868   7.650
 5992POPC   NC335987   8.147  40.827   9.450
 5992POPC   PO435988   8.154  40.820   9.150
 5992POPC   GL135989   8.180  40.797   8.850
 5992POPC   GL235990   8.154  40.890   8.850
 5992POPC   C1A35991   8.159  40.748   8.550
 5992POPC   D2A35992   8.235  40.812   8.250
 5992POPC   C3A35993   8.226  40.740   7.950
 5992POPC   C4A35994   8.148  40.817   7.650
 5992POPC   C1B35995   7.993  40.957   8.550
 5992POPC   C2B35996   7.986  41.008   8.250
 5992POPC   C3B35997   8.038  40.985   7.950
 5992POPC   C4B35998   8.072  41.000   7.650
 5993POPC   NC335999   2.736  12.885   9.450
 5993POPC   PO436000   2.770  12.897   9.150
 5993POPC   GL136001   2.775  12.823   8.850
 5993POPC   GL236002   2.646  12.762   8.850
 5993POPC   C1A36003   2.748  12.833   8.550
 5993POPC   D2A36004   2.739  12.851   8.250
 5993POPC   C3A36005   2.765  12.859   7.950
 5993POPC   C4A36006   2.750  12.899   7.650
 5993POPC   C1B36007   2.514  12.727   8.550
 5993POPC   C2B36008   2.533  12.754   8.250
 5993POPC   C3B36009   2.527  12.664   7.950
 5993POPC   C4B36010   2.558  12.666   7.650
 5994POPC   NC336011  24.505  22.890   9.450
 5994POPC   PO436012  24.464  22.948   9.150
 5994POPC   GL136013  24.516  22.932   8.850
 5994POPC   GL236014  24.602  22.912   8.850
 5994POPC   C1A36015  24.448  22.972   8.550
 5994POPC   D2A36016  24.525  22.949   8.250
 5994POPC   C3A36017  24.498  22.899   7.950
 5994POPC   C4A36018  24.505  22.935   7.650
 5994POPC   C1B36019  24.755  22.897   8.550
 5994POPC   C2B36020  24.691  22.909   8.250
 5994POPC   C3B36021  24.773  22.947   7.950
 5994POPC   C4B36022  24.691  22.927   7.650
 5995POPC   NC336023   2.754  19.848   9.450
 5995POPC   PO436024   2.769  19.834   9.150
 5995POPC   GL136025   2.737  19.786   8.850
 5995POPC   GL236026   2.757  19.956   8.850
 5995POPC   C1A36027   2.775  19.796   8.550
 5995POPC   D2A36028   2.779  19.873   8.250
 5995POPC   C3A36029   2.764  19.839   7.950
 5995POPC   C4A36030   2.801  19.827   7.650
 5995POPC   C1B36031   2.853  20.123   8.550
 5995POPC   C2B36032   2.843  20.097   8.250
 5995POPC   C3B36033   2.785  20.074   7.950
 5995POPC   C4B36034   2.857  20.120   7.650
 5996POPC   NC336035  12.043  32.217   9.450
 5996POPC   PO436036  12.056  32.244   9.150
 5996POPC   GL136037  12.082  32.283   8.850
 5996POPC   GL236038  12.066  32.142   8.850
 5996POPC   C1A36039  12.123  32.244   8.550
 5996POPC   D2A36040  12.084  32.265   8.250
 5996POPC   C3A36041  12.104  32.226   7.950
 5996POPC   C4A36042  12.049  32.266   7.650
 5996POPC   C1B36043  12.121  31.980   8.550
 5996POPC   C2B36044  12.104  31.979   8.250
 5996POPC   C3B36045  12.079  32.023   7.950
 5996POPC   C4B36046  12.155  31.962   7.650
 5997POPC   NC336047   3.528  18.278   9.450
 5997POPC   PO436048   3.586  18.285   9.150
 5997POPC   GL136049   3.554  18.331   8.850
 5997POPC   GL236050   3.540  18.171   8.850
 5997POPC   C1A36051   3.557  18.272   8.550
 5997POPC   D2A36052   3.500  18.275   8.250
 5997POPC   C3A36053   3.520  18.261   7.950
 5997POPC   C4A36054   3.546  18.301   7.650
 5997POPC   C1B36055   3.578  18.012   8.550
 5997POPC   C2B36056   3.562  18.071   8.250
 5997POPC   C3B36057   3.602  18.041   7.950
 5997POPC   C4B36058   3.571  18.033   7.650
 5998POPC   NC336059   2.718  22.151   9.450
 5998POPC   PO436060   2.748  22.126   9.150
 5998POPC   GL136061   2.732  22.186   8.850
 5998POPC   GL236062   2.738  22.036   8.850
 5998POPC   C1A36063   2.747  22.123   8.550
 5998POPC   D2A36064   2.799  22.124   8.250
 5998POPC   C3A36065   2.731  22.211   7.950
 5998POPC   C4A36066   2.811  22.123   7.650
 5998POPC   C1B36067   2.723  21.923   8.550
 5998POPC   C2B36068   2.740  21.896   8.250
 5998POPC   C3B36069   2.700  21.907   7.950
 5998POPC   C4B36070   2.686  21.898   7.650
 5999POPC   NC336071  17.547  20.625   9.450
 5999POPC   PO436072  17.472  20.564   9.150
 5999POPC   GL136073  17.554  20.612   8.850
 5999POPC   GL236074  17.560  20.728   8.850
 5999POPC   C1A36075  17.523  20.571   8.550
 5999POPC   D2A36076  17.461  20.613   8.250
 5999POPC   C3A36077  17.459  20.645   7.950
 5999POPC   C4A36078  17.551  20.652   7.650
 5999POPC   C1B36079  17.618  20.830   8.550
 5999POPC   C2B36080  17.568  20.837   8.250
 5999POPC   C3B36081  17.549  20.808   7.950
 5999POPC   C4B36082  17.612  20.838   7.650
 6000POPC   NC336083  35.387  32.288   9.450
 6000POPC   PO436084  35.306  32.277   9.150
 6000POPC   GL136085  35.402  32.211   8.850
 6000POPC   GL236086  35.302  32.077   8.850
 6000POPC   C1A36087  35.339  32.239   8.550
 6000POPC   D2A36088  35.349  32.230   8.250
 6000POPC   C3A36089  35.317  32.216   7.950
 6000POPC   C4A36090  35.346  32.264   7.650
 6000POPC   C1B36091  35.318  31.980   8.550
 6000POPC   C2B36092  35.306  31.981   8.250
 6000POPC   C3B36093  35.294  31.992   7.950
 6000POPC   C4B36094  35.318  31.973   7.650
 6001POPC   NC336095  15.942   3.521   9.450
 6001POPC   PO436096  15.918   3.534   9.150
 6001POPC   GL136097  15.928   3.498   8.850
 6001POPC   GL236098  16.031   3.429   8.850
 6001POPC   C1A36099  15.937   3.532   8.550
 6001POPC   D2A36100  15.919   3.529   8.250
 6001POPC   C3A36101  15.940   3.531   7.950
 6001POPC   C4A36102  15.994   3.517   7.650
 6001POPC   C1B36103  16.167   3.360   8.550
 6001POPC   C2B36104  16.146   3.405   8.250
 6001POPC   C3B36105  16.184   3.392   7.950
 6001POPC   C4B36106  16.169   3.420   7.650
 6002POPC   NC336107  31.447  11.263   9.450
 6002POPC   PO436108  31.423  11.304   9.150
 6002POPC   GL136109  31.514  11.278   8.850
 6002POPC   GL236110  31.473  11.182   8.850
 6002POPC   C1A36111  31.476  11.267   8.550
 6002POPC   D2A36112  31.463  11.347   8.250
 6002POPC   C3A36113  31.476  11.288   7.950
 6002POPC   C4A36114  31.429  11.332   7.650
 6002POPC   C1B36115  31.489  11.022   8.550
 6002POPC   C2B36116  31.504  11.027   8.250
 6002POPC   C3B36117  31.449  11.039   7.950
 6002POPC   C4B36118  31.506  11.043   7.650
 6003POPC   NC336119  39.241  42.358   9.450
 6003POPC   PO436120  39.276  42.373   9.150
 6003POPC   GL136121  39.251  42.345   8.850
 6003POPC   GL236122  39.224  42.213   8.850
 6003POPC   C1A36123  39.249  42.375   8.550
 6003POPC   D2A36124  39.195  42.295   8.250
 6003POPC   C3A36125  39.209  42.307   7.950
 6003POPC   C4A36126  39.222  42.347   7.650
 6003POPC   C1B36127  39.214  42.074   8.550
 6003POPC   C2B36128  39.164  42.066   8.250
 6003POPC   C3B36129  39.162  42.135   7.950
 6003POPC   C4B36130  39.164  42.134   7.650
 6004POPC   NC336131   5.848  33.834   9.450
 6004POPC   PO436132   5.844  33.819   9.150
 6004POPC   GL136133   5.836  33.799   8.850
 6004POPC   GL236134   5.755  33.919   8.850
 6004POPC   C1A36135   5.912  33.800   8.550
 6004POPC   D2A36136   5.918  33.842   8.250
 6004POPC   C3A36137   5.891  33.791   7.950
 6004POPC   C4A36138   5.835  33.765   7.650
 6004POPC   C1B36139   5.685  33.923   8.550
 6004POPC   C2B36140   5.692  33.970   8.250
 6004POPC   C3B36141   5.706  33.988   7.950
 6004POPC   C4B36142   5.650  33.976   7.650
 6005POPC   NC336143  15.919   5.056   9.450
 6005POPC   PO436144  15.976   5.140   9.150
 6005POPC   GL136145  15.971   5.077   8.850
 6005POPC   GL236146  15.806   5.088   8.850
 6005POPC   C1A36147  15.982   5.089   8.550
 6005POPC   D2A36148  15.923   5.072   8.250
 6005POPC   C3A36149  15.927   5.049   7.950
 6005POPC   C4A36150  15.943   5.055   7.650
 6005POPC   C1B36151  15.713   5.143   8.550
 6005POPC   C2B36152  15.671   5.128   8.250
 6005POPC   C3B36153  15.717   5.155   7.950
 6005POPC   C4B36154  15.718   5.152   7.650
 6006POPC   NC336155   5.130  29.163   9.450
 6006POPC   PO436156   5.064  29.173   9.150
 6006POPC   GL136157   5.127  29.141   8.850
 6006POPC   GL236158   5.013  29.010   8.850
 6006POPC   C1A36159   5.066  29.099   8.550
 6006POPC   D2A36160   5.050  29.102   8.250
 6006POPC   C3A36161   5.055  29.172   7.950
 6006POPC   C4A36162   5.123  29.104   7.650
 6006POPC   C1B36163   5.025  28.939   8.550
 6006POPC   C2B36164   5.048  28.860   8.250
 6006POPC   C3B36165   5.056  28.933   7.950
 6006POPC   C4B36166   4.996  28.942   7.650
 6007POPC   NC336167  39.272   4.278   9.450
 6007POPC   PO436168  39.276   4.317   9.150
 6007POPC   GL136169  39.183   4.349   8.850
 6007POPC   GL236170  39.100   4.338   8.850
 6007POPC   C1A36171  39.255   4.335   8.550
 6007POPC   D2A36172  39.249   4.317   8.250
 6007POPC   C3A36173  39.215   4.301   7.950
 6007POPC   C4A36174  39.226   4.309   7.650
 6007POPC   C1B36175  38.951   4.248   8.550
 6007POPC   C2B36176  39.000   4.260   8.250
 6007POPC   C3B36177  39.008   4.300   7.950
 6007POPC   C4B36178  38.971   4.284   7.650
 6008POPC   NC336179   7.428  39.210   9.450
 6008POPC   PO436180   7.379  39.205   9.150
 6008POPC   GL136181   7.404  39.221   8.850
 6008POPC   GL236182   7.497  39.118   8.850
 6008POPC   C1A36183   7.403  39.251   8.550
 6008POPC   D2A36184   7.373  39.200   8.250
 6008POPC   C3A36185   7.468  39.218   7.950
 6008POPC   C4A36186   7.391  39.243   7.650
 6008POPC   C1B36187   7.538  38.960   8.550
 6008POPC   C2B36188   7.492  39.011   8.250
 6008POPC   C3B36189   7.506  39.032   7.950
 6008POPC   C4B36190   7.516  38.979   7.650
 6009POPC   NC336191  29.907  26.836   9.450
 6009POPC   PO436192  29.933  26.782   9.150
 6009POPC   GL136193  29.904  26.861   8.850
 6009POPC   GL236194  29.882  26.720   8.850
 6009POPC   C1A36195  29.942  26.855   8.550
 6009POPC   D2A36196  29.876  26.812   8.250
 6009POPC   C3A36197  29.884  26.804   7.950
 6009POPC   C4A36198  29.884  26.843   7.650
 6009POPC   C1B36199  29.807  26.580   8.550
 6009POPC   C2B36200  29.753  26.654   8.250
 6009POPC   C3B36201  29.739  26.563   7.950
 6009POPC   C4B36202  29.764  26.641   7.650
 6010POPC   NC336203   9.002   9.010   9.450
 6010POPC   PO436204   8.994   9.001   9.150
 6010POPC   GL136205   8.943   8.965   8.850
 6010POPC   GL236206   9.087   8.907   8.850
 6010POPC   C1A36207   8.993   8.992   8.550
 6010POPC   D2A36208   8.959   9.014   8.250
 6010POPC   C3A36209   9.010   8.926   7.950
 6010POPC   C4A36210   9.001   8.965   7.650
 6010POPC   C1B36211   9.114   8.758   8.550
 6010POPC   C2B36212   9.123   8.757   8.250
 6010POPC   C3B36213   9.109   8.757   7.950
 6010POPC   C4B36214   9.071   8.791   7.650
 6011POPC   NC336215   7.423  43.098   9.450
 6011POPC   PO436216   7.378  43.100   9.150
 6011POPC   GL136217   7.423  43.108   8.850
 6011POPC   GL236218   7.316  43.188   8.850
 6011POPC   C1A36219   7.395  43.127   8.550
 6011POPC   D2A36220   7.463  43.091   8.250
 6011POPC   C3A36221   7.397  43.088   7.950
 6011POPC   C4A36222   7.408  43.109   7.650
 6011POPC   C1B36223   7.160  43.249   8.550
 6011POPC   C2B36224   7.230  43.267   8.250
 6011POPC   C3B36225   7.207  43.201   7.950
 6011POPC   C4B36226   7.197  43.203   7.650
 6012POPC   NC336227   8.154  27.615   9.450
 6012POPC   PO436228   8.199  27.623   9.150
 6012POPC   GL136229   8.196  27.628   8.850
 6012POPC   GL236230   8.310  27.653   8.850
 6012POPC   C1A36231   8.190  27.544   8.550
 6012POPC   D2A36232   8.193  27.565   8.250
 6012POPC   C3A36233   8.188  27.551   7.950
 6012POPC   C4A36234   8.184  27.544   7.650
 6012POPC   C1B36235   8.436  27.784   8.550
 6012POPC   C2B36236   8.389  27.783   8.250
 6012POPC   C3B36237   8.353  27.747   7.950
 6012POPC   C4B36238   8.410  27.719   7.650
 6013POPC   NC336239   3.521  21.414   9.450
 6013POPC   PO436240   3.583  21.433   9.150
 6013POPC   GL136241   3.581  21.370   8.850
 6013POPC   GL236242   3.593  21.459   8.850
 6013POPC   C1A36243   3.544  21.426   8.550
 6013POPC   D2A36244   3.580  21.355   8.250
 6013POPC   C3A36245   3.540  21.362   7.950
 6013POPC   C4A36246   3.588  21.433   7.650
 6013POPC   C1B36247   3.616  21.586   8.550
 6013POPC   C2B36248   3.572  21.668   8.250
 6013POPC   C3B36249   3.664  21.654   7.950
 6013POPC   C4B36250   3.605  21.604   7.650
 6014POPC   NC336251  44.650  11.327   9.450
 6014POPC   PO436252  44.658  11.338   9.150
 6014POPC   GL136253  44.691  11.281   8.850
 6014POPC   GL236254  44.578  11.312   8.850
 6014POPC   C1A36255  44.678  11.262   8.550
 6014POPC   D2A36256  44.615  11.274   8.250
 6014POPC   C3A36257  44.695  11.285   7.950
 6014POPC   C4A36258  44.620  11.330   7.650
 6014POPC   C1B36259  44.483  11.401   8.550
 6014POPC   C2B36260  44.443  11.439   8.250
 6014POPC   C3B36261  44.461  11.405   7.950
 6014POPC   C4B36262  44.457  11.431   7.650
 6015POPC   NC336263   2.762  34.534   9.450
 6015POPC   PO436264   2.794  34.620   9.150
 6015POPC   GL136265   2.753  34.589   8.850
 6015POPC   GL236266   2.804  34.461   8.850
 6015POPC   C1A36267   2.761  34.551   8.550
 6015POPC   D2A36268   2.767  34.564   8.250
 6015POPC   C3A36269   2.781  34.623   7.950
 6015POPC   C4A36270   2.754  34.535   7.650
 6015POPC   C1B36271   2.928  34.423   8.550
 6015POPC   C2B36272   2.949  34.377   8.250
 6015POPC   C3B36273   2.983  34.438   7.950
 6015POPC   C4B36274   2.949  34.376   7.650
 6016POPC   NC336275  15.184  23.677   9.450
 6016POPC   PO436276  15.152  23.747   9.150
 6016POPC   GL136277  15.196  23.686   8.850
 6016POPC   GL236278  15.127  23.552   8.850
 6016POPC   C1A36279  15.225  23.753   8.550
 6016POPC   D2A36280  15.192  23.745   8.250
 6016POPC   C3A36281  15.164  23.718   7.950
 6016POPC   C4A36282  15.165  23.749   7.650
 6016POPC   C1B36283  15.190  23.498   8.550
 6016POPC   C2B36284  15.169  23.458   8.250
 6016POPC   C3B36285  15.166  23.422   7.950
 6016POPC   C4B36286  15.195  23.490   7.650
 6017POPC   NC336287  21.419  15.186   9.450
 6017POPC   PO436288  21.336  15.167   9.150
 6017POPC   GL136289  21.373  15.130   8.850
 6017POPC   GL236290  21.327  15.260   8.850
 6017POPC   C1A36291  21.426  15.187   8.550
 6017POPC   D2A36292  21.430  15.220   8.250
 6017POPC   C3A36293  21.433  15.174   7.950
 6017POPC   C4A36294  21.427  15.132   7.650
 6017POPC   C1B36295  21.308  15.409   8.550
 6017POPC   C2B36296  21.318  15.439   8.250
 6017POPC   C3B36297  21.310  15.463   7.950
 6017POPC   C4B36298  21.323  15.411   7.650
 6018POPC   NC336299  43.925   9.789   9.450
 6018POPC   PO436300  43.841   9.744   9.150
 6018POPC   GL136301  43.836   9.717   8.850
 6018POPC   GL236302  43.786   9.821   8.850
 6018POPC   C1A36303  43.857   9.736   8.550
 6018POPC   D2A36304  43.896   9.795   8.250
 6018POPC   C3A36305  43.910   9.714   7.950
 6018POPC   C4A36306  43.848   9.770   7.650
 6018POPC   C1B36307  43.763   9.975   8.550
 6018POPC   C2B36308  43.720   9.925   8.250
 6018POPC   C3B36309  43.670   9.942   7.950
 6018POPC   C4B36310  43.701   9.889   7.650
 6019POPC   NC336311   9.710  44.651   9.450
 6019POPC   PO436312   9.722  44.650   9.150
 6019POPC   GL136313   9.766  44.675   8.850
 6019POPC   GL236314   9.818  44.615   8.850
 6019POPC   C1A36315   9.727  44.697   8.550
 6019POPC   D2A36316   9.711  44.703   8.250
 6019POPC   C3A36317   9.741  44.670   7.950
 6019POPC   C4A36318   9.776  44.643   7.650
 6019POPC   C1B36319   9.929  44.576   8.550
 6019POPC   C2B36320   9.966  44.509   8.250
 6019POPC   C3B36321   9.916  44.549   7.950
 6019POPC   C4B36322   9.939  44.527   7.650
 6020POPC   NC336323  26.770  26.830   9.450
 6020POPC   PO436324  26.818  26.842   9.150
 6020POPC   GL136325  26.769  26.836   8.850
 6020POPC   GL236326  26.902  26.895   8.850
 6020POPC   C1A36327  26.819  26.807   8.550
 6020POPC   D2A36328  26.801  26.776   8.250
 6020POPC   C3A36329  26.798  26.781   7.950
 6020POPC   C4A36330  26.788  26.858   7.650
 6020POPC   C1B36331  27.059  26.997   8.550
 6020POPC   C2B36332  26.989  26.974   8.250
 6020POPC   C3B36333  27.051  26.968   7.950
 6020POPC   C4B36334  27.033  26.957   7.650
 6021POPC   NC336335  33.805   9.768   9.450
 6021POPC   PO436336  33.764   9.730   9.150
 6021POPC   GL136337  33.772   9.736   8.850
 6021POPC   GL236338  33.833   9.868   8.850
 6021POPC   C1A36339  33.820   9.717   8.550
 6021POPC   D2A36340  33.788   9.752   8.250
 6021POPC   C3A36341  33.779   9.742   7.950
 6021POPC   C4A36342  33.815   9.789   7.650
 6021POPC   C1B36343  33.879   9.982   8.550
 6021POPC   C2B36344  33.854   9.943   8.250
 6021POPC   C3B36345  33.922  10.014   7.950
 6021POPC   C4B36346  33.898  10.025   7.650
 6022POPC   NC336347  18.296   1.208   9.450
 6022POPC   PO436348  18.254   1.240   9.150
 6022POPC   GL136349  18.319   1.234   8.850
 6022POPC   GL236350  18.152   1.101   8.850
 6022POPC   C1A36351  18.256   1.255   8.550
 6022POPC   D2A36352  18.331   1.167   8.250
 6022POPC   C3A36353  18.286   1.235   7.950
 6022POPC   C4A36354  18.318   1.256   7.650
 6022POPC   C1B36355  18.032   1.091   8.550
 6022POPC   C2B36356  18.050   1.122   8.250
 6022POPC   C3B36357  18.040   1.062   7.950
 6022POPC   C4B36358  18.058   1.091   7.650
 6023POPC   NC336359  19.026   1.949   9.450
 6023POPC   PO436360  19.097   2.028   9.150
 6023POPC   GL136361  19.085   1.966   8.850
 6023POPC   GL236362  19.160   1.937   8.850
 6023POPC   C1A36363  19.028   2.008   8.550
 6023POPC   D2A36364  19.031   2.034   8.250
 6023POPC   C3A36365  19.100   1.945   7.950
 6023POPC   C4A36366  19.021   2.033   7.650
 6023POPC   C1B36367  19.277   1.887   8.550
 6023POPC   C2B36368  19.250   1.849   8.250
 6023POPC   C3B36369  19.283   1.871   7.950
 6023POPC   C4B36370  19.282   1.898   7.650
 6024POPC   NC336371  17.488  16.715   9.450
 6024POPC   PO436372  17.546  16.686   9.150
 6024POPC   GL136373  17.524  16.709   8.850
 6024POPC   GL236374  17.518  16.826   8.850
 6024POPC   C1A36375  17.534  16.765   8.550
 6024POPC   D2A36376  17.482  16.747   8.250
 6024POPC   C3A36377  17.550  16.763   7.950
 6024POPC   C4A36378  17.466  16.717   7.650
 6024POPC   C1B36379  17.471  16.948   8.550
 6024POPC   C2B36380  17.501  17.020   8.250
 6024POPC   C3B36381  17.473  16.964   7.950
 6024POPC   C4B36382  17.545  17.009   7.650
 6025POPC   NC336383   5.866   7.439   9.450
 6025POPC   PO436384   5.877   7.436   9.150
 6025POPC   GL136385   5.840   7.435   8.850
 6025POPC   GL236386   5.932   7.330   8.850
 6025POPC   C1A36387   5.842   7.427   8.550
 6025POPC   D2A36388   5.865   7.453   8.250
 6025POPC   C3A36389   5.849   7.435   7.950
 6025POPC   C4A36390   5.904   7.409   7.650
 6025POPC   C1B36391   6.014   7.274   8.550
 6025POPC   C2B36392   6.030   7.266   8.250
 6025POPC   C3B36393   6.088   7.256   7.950
 6025POPC   C4B36394   6.090   7.209   7.650
 6026POPC   NC336395   0.446  10.478   9.450
 6026POPC   PO436396   0.444  10.544   9.150
 6026POPC   GL136397   0.416  10.497   8.850
 6026POPC   GL236398   0.359  10.608   8.850
 6026POPC   C1A36399   0.414  10.501   8.550
 6026POPC   D2A36400   0.441  10.491   8.250
 6026POPC   C3A36401   0.473  10.543   7.950
 6026POPC   C4A36402   0.479  10.482   7.650
 6026POPC   C1B36403   0.331  10.733   8.550
 6026POPC   C2B36404   0.330  10.751   8.250
 6026POPC   C3B36405   0.304  10.711   7.950
 6026POPC   C4B36406   0.330  10.770   7.650
 6027POPC   NC336407  28.330  37.689   9.450
 6027POPC   PO436408  28.404  37.674   9.150
 6027POPC   GL136409  28.402  37.646   8.850
 6027POPC   GL236410  28.237  37.632   8.850
 6027POPC   C1A36411  28.384  37.672   8.550
 6027POPC   D2A36412  28.356  37.714   8.250
 6027POPC   C3A36413  28.339  37.707   7.950
 6027POPC   C4A36414  28.331  37.648   7.650
 6027POPC   C1B36415  28.201  37.495   8.550
 6027POPC   C2B36416  28.122  37.584   8.250
 6027POPC   C3B36417  28.202  37.522   7.950
 6027POPC   C4B36418  28.117  37.589   7.650
 6028POPC   NC336419   7.377  16.681   9.450
 6028POPC   PO436420   7.426  16.774   9.150
 6028POPC   GL136421   7.431  16.761   8.850
 6028POPC   GL236422   7.311  16.839   8.850
 6028POPC   C1A36423   7.432  16.741   8.550
 6028POPC   D2A36424   7.409  16.692   8.250
 6028POPC   C3A36425   7.451  16.721   7.950
 6028POPC   C4A36426   7.377  16.750   7.650
 6028POPC   C1B36427   7.292  16.950   8.550
 6028POPC   C2B36428   7.245  16.921   8.250
 6028POPC   C3B36429   7.260  16.915   7.950
 6028POPC   C4B36430   7.255  16.922   7.650
 6029POPC   NC336431  24.477  42.379   9.450
 6029POPC   PO436432  24.510  42.357   9.150
 6029POPC   GL136433  24.459  42.291   8.850
 6029POPC   GL236434  24.388  42.356   8.850
 6029POPC   C1A36435  24.539  42.361   8.550
 6029POPC   D2A36436  24.526  42.382   8.250
 6029POPC   C3A36437  24.482  42.338   7.950
 6029POPC   C4A36438  24.451  42.325   7.650
 6029POPC   C1B36439  24.282  42.308   8.550
 6029POPC   C2B36440  24.204  42.328   8.250
 6029POPC   C3B36441  24.268  42.296   7.950
 6029POPC   C4B36442  24.267  42.267   7.650
 6030POPC   NC336443  36.151  26.778   9.450
 6030POPC   PO436444  36.148  26.831   9.150
 6030POPC   GL136445  36.081  26.772   8.850
 6030POPC   GL236446  36.166  26.683   8.850
 6030POPC   C1A36447  36.159  26.785   8.550
 6030POPC   D2A36448  36.156  26.792   8.250
 6030POPC   C3A36449  36.130  26.836   7.950
 6030POPC   C4A36450  36.084  26.860   7.650
 6030POPC   C1B36451  36.077  26.592   8.550
 6030POPC   C2B36452  36.127  26.561   8.250
 6030POPC   C3B36453  36.135  26.531   7.950
 6030POPC   C4B36454  36.148  26.551   7.650
 6031POPC   NC336455   6.670  37.640   9.450
 6031POPC   PO436456   6.662  37.649   9.150
 6031POPC   GL136457   6.598  37.688   8.850
 6031POPC   GL236458   6.723  37.747   8.850
 6031POPC   C1A36459   6.633  37.722   8.550
 6031POPC   D2A36460   6.660  37.724   8.250
 6031POPC   C3A36461   6.669  37.682   7.950
 6031POPC   C4A36462   6.610  37.684   7.650
 6031POPC   C1B36463   6.790  37.876   8.550
 6031POPC   C2B36464   6.760  37.856   8.250
 6031POPC   C3B36465   6.783  37.914   7.950
 6031POPC   C4B36466   6.748  37.912   7.650
 6032POPC   NC336467  18.328  20.621   9.450
 6032POPC   PO436468  18.246  20.637   9.150
 6032POPC   GL136469  18.295  20.576   8.850
 6032POPC   GL236470  18.415  20.719   8.850
 6032POPC   C1A36471  18.320  20.651   8.550
 6032POPC   D2A36472  18.281  20.583   8.250
 6032POPC   C3A36473  18.313  20.648   7.950
 6032POPC   C4A36474  18.281  20.585   7.650
 6032POPC   C1B36475  18.516  20.780   8.550
 6032POPC   C2B36476  18.508  20.774   8.250
 6032POPC   C3B36477  18.521  20.767   7.950
 6032POPC   C4B36478  18.510  20.732   7.650
 6033POPC   NC336479  26.827  21.386   9.450
 6033POPC   PO436480  26.854  21.395   9.150
 6033POPC   GL136481  26.833  21.436   8.850
 6033POPC   GL236482  26.979  21.406   8.850
 6033POPC   C1A36483  26.801  21.423   8.550
 6033POPC   D2A36484  26.834  21.372   8.250
 6033POPC   C3A36485  26.788  21.357   7.950
 6033POPC   C4A36486  26.844  21.351   7.650
 6033POPC   C1B36487  27.099  21.455   8.550
 6033POPC   C2B36488  27.022  21.484   8.250
 6033POPC   C3B36489  27.023  21.434   7.950
 6033POPC   C4B36490  27.090  21.432   7.650
 6034POPC   NC336491  15.981  22.951   9.450
 6034POPC   PO436492  15.939  22.909   9.150
 6034POPC   GL136493  15.980  22.955   8.850
 6034POPC   GL236494  16.005  23.080   8.850
 6034POPC   C1A36495  15.997  22.925   8.550
 6034POPC   D2A36496  15.997  22.909   8.250
 6034POPC   C3A36497  15.994  22.986   7.950
 6034POPC   C4A36498  15.941  22.948   7.650
 6034POPC   C1B36499  16.143  23.183   8.550
 6034POPC   C2B36500  16.136  23.127   8.250
 6034POPC   C3B36501  16.129  23.129   7.950
 6034POPC   C4B36502  16.118  23.135   7.650
 6035POPC   NC336503  38.447  11.297   9.450
 6035POPC   PO436504  38.485  11.280   9.150
 6035POPC   GL136505  38.476  11.278   8.850
 6035POPC   GL236506  38.578  11.229   8.850
 6035POPC   C1A36507  38.458  11.341   8.550
 6035POPC   D2A36508  38.467  11.293   8.250
 6035POPC   C3A36509  38.465  11.296   7.950
 6035POPC   C4A36510  38.408  11.342   7.650
 6035POPC   C1B36511  38.582  11.114   8.550
 6035POPC   C2B36512  38.616  11.104   8.250
 6035POPC   C3B36513  38.594  11.078   7.950
 6035POPC   C4B36514  38.608  11.076   7.650
 6036POPC   NC336515  42.311  16.718   9.450
 6036POPC   PO436516  42.380  16.757   9.150
 6036POPC   GL136517  42.376  16.753   8.850
 6036POPC   GL236518  42.465  16.725   8.850
 6036POPC   C1A36519  42.293  16.692   8.550
 6036POPC   D2A36520  42.368  16.688   8.250
 6036POPC   C3A36521  42.319  16.745   7.950
 6036POPC   C4A36522  42.373  16.689   7.650
 6036POPC   C1B36523  42.562  16.742   8.550
 6036POPC   C2B36524  42.601  16.783   8.250
 6036POPC   C3B36525  42.558  16.723   7.950
 6036POPC   C4B36526  42.535  16.706   7.650
 6037POPC   NC336527  33.001  18.306   9.450
 6037POPC   PO436528  33.045  18.271   9.150
 6037POPC   GL136529  33.058  18.287   8.850
 6037POPC   GL236530  33.000  18.151   8.850
 6037POPC   C1A36531  33.057  18.241   8.550
 6037POPC   D2A36532  32.992  18.261   8.250
 6037POPC   C3A36533  32.998  18.296   7.950
 6037POPC   C4A36534  33.019  18.300   7.650
 6037POPC   C1B36535  32.882  18.130   8.550
 6037POPC   C2B36536  32.910  18.101   8.250
 6037POPC   C3B36537  32.862  18.037   7.950
 6037POPC   C4B36538  32.904  18.073   7.650
 6038POPC   NC336539  28.327  36.902   9.450
 6038POPC   PO436540  28.346  36.951   9.150
 6038POPC   GL136541  28.351  36.941   8.850
 6038POPC   GL236542  28.215  36.874   8.850
 6038POPC   C1A36543  28.321  36.914   8.550
 6038POPC   D2A36544  28.400  36.944   8.250
 6038POPC   C3A36545  28.373  36.926   7.950
 6038POPC   C4A36546  28.346  36.946   7.650
 6038POPC   C1B36547  28.084  36.802   8.550
 6038POPC   C2B36548  28.151  36.798   8.250
 6038POPC   C3B36549  28.094  36.878   7.950
 6038POPC   C4B36550  28.098  36.893   7.650
 6039POPC   NC336551  39.984  15.962   9.450
 6039POPC   PO436552  39.993  15.972   9.150
 6039POPC   GL136553  39.985  15.948   8.850
 6039POPC   GL236554  40.121  15.980   8.850
 6039POPC   C1A36555  39.988  15.941   8.550
 6039POPC   D2A36556  40.007  15.982   8.250
 6039POPC   C3A36557  40.013  15.982   7.950
 6039POPC   C4A36558  40.004  15.927   7.650
 6039POPC   C1B36559  40.240  16.020   8.550
 6039POPC   C2B36560  40.216  15.950   8.250
 6039POPC   C3B36561  40.246  16.012   7.950
 6039POPC   C4B36562  40.217  16.024   7.650
 6040POPC   NC336563   1.983  42.335   9.450
 6040POPC   PO436564   2.039  42.334   9.150
 6040POPC   GL136565   1.960  42.377   8.850
 6040POPC   GL236566   1.952  42.495   8.850
 6040POPC   C1A36567   2.031  42.369   8.550
 6040POPC   D2A36568   1.951  42.353   8.250
 6040POPC   C3A36569   1.990  42.335   7.950
 6040POPC   C4A36570   2.018  42.365   7.650
 6040POPC   C1B36571   1.901  42.538   8.550
 6040POPC   C2B36572   1.929  42.543   8.250
 6040POPC   C3B36573   1.930  42.548   7.950
 6040POPC   C4B36574   1.895  42.534   7.650
 6041POPC   NC336575  29.879  28.412   9.450
 6041POPC   PO436576  29.943  28.413   9.150
 6041POPC   GL136577  29.944  28.376   8.850
 6041POPC   GL236578  30.034  28.369   8.850
 6041POPC   C1A36579  29.922  28.362   8.550
 6041POPC   D2A36580  29.931  28.397   8.250
 6041POPC   C3A36581  29.935  28.417   7.950
 6041POPC   C4A36582  29.933  28.415   7.650
 6041POPC   C1B36583  30.133  28.326   8.550
 6041POPC   C2B36584  30.138  28.247   8.250
 6041POPC   C3B36585  30.154  28.282   7.950
 6041POPC   C4B36586  30.161  28.263   7.650
 6042POPC   NC336587  22.153   5.101   9.450
 6042POPC   PO436588  22.161   5.065   9.150
 6042POPC   GL136589  22.175   5.097   8.850
 6042POPC   GL236590  22.049   5.024   8.850
 6042POPC   C1A36591  22.179   5.057   8.550
 6042POPC   D2A36592  22.121   5.071   8.250
 6042POPC   C3A36593  22.164   5.069   7.950
 6042POPC   C4A36594  22.154   5.139   7.650
 6042POPC   C1B36595  22.023   4.881   8.550
 6042POPC   C2B36596  21.987   4.838   8.250
 6042POPC   C3B36597  22.002   4.894   7.950
 6042POPC   C4B36598  21.985   4.912   7.650
 6043POPC   NC336599  21.401  12.845   9.450
 6043POPC   PO436600  21.339  12.812   9.150
 6043POPC   GL136601  21.377  12.833   8.850
 6043POPC   GL236602  21.557  12.913   8.850
 6043POPC   C1A36603  21.364  12.872   8.550
 6043POPC   D2A36604  21.412  12.865   8.250
 6043POPC   C3A36605  21.345  12.865   7.950
 6043POPC   C4A36606  21.402  12.837   7.650
 6043POPC   C1B36607  21.641  12.843   8.550
 6043POPC   C2B36608  21.601  12.886   8.250
 6043POPC   C3B36609  21.644  12.934   7.950
 6043POPC   C4B36610  21.677  12.853   7.650
 6044POPC   NC336611  40.746  29.965   9.450
 6044POPC   PO436612  40.752  29.891   9.150
 6044POPC   GL136613  40.756  29.873   8.850
 6044POPC   GL236614  40.892  30.037   8.850
 6044POPC   C1A36615  40.739  29.917   8.550
 6044POPC   D2A36616  40.823  29.924   8.250
 6044POPC   C3A36617  40.760  29.896   7.950
 6044POPC   C4A36618  40.762  29.946   7.650
 6044POPC   C1B36619  40.956  30.155   8.550
 6044POPC   C2B36620  40.981  30.113   8.250
 6044POPC   C3B36621  40.938  30.104   7.950
 6044POPC   C4B36622  40.912  30.153   7.650
 6045POPC   NC336623  32.249   0.400   9.450
 6045POPC   PO436624  32.291   0.457   9.150
 6045POPC   GL136625  32.298   0.431   8.850
 6045POPC   GL236626  32.253   0.293   8.850
 6045POPC   C1A36627  32.294   0.456   8.550
 6045POPC   D2A36628  32.241   0.434   8.250
 6045POPC   C3A36629  32.257   0.452   7.950
 6045POPC   C4A36630  32.285   0.462   7.650
 6045POPC   C1B36631  32.180   0.198   8.550
 6045POPC   C2B36632  32.248   0.235   8.250
 6045POPC   C3B36633  32.192   0.187   7.950
 6045POPC   C4B36634  32.207   0.155   7.650
 6046POPC   NC336635  41.565  44.651   9.450
 6046POPC   PO436636  41.587  44.626   9.150
 6046POPC   GL136637  41.572  44.655   8.850
 6046POPC   GL236638  41.624  44.719   8.850
 6046POPC   C1A36639  41.556  44.683   8.550
 6046POPC   D2A36640  41.560  44.617   8.250
 6046POPC   C3A36641  41.510  44.657   7.950
 6046POPC   C4A36642  41.563  44.683   7.650
 6046POPC   C1B36643  41.675  44.834   8.550
 6046POPC   C2B36644  41.649  44.850   8.250
 6046POPC   C3B36645  41.702  44.860   7.950
 6046POPC   C4B36646  41.704  44.880   7.650
 6047POPC   NC336647  26.076  22.208   9.450
 6047POPC   PO436648  26.031  22.149   9.150
 6047POPC   GL136649  26.004  22.196   8.850
 6047POPC   GL236650  26.178  22.139   8.850
 6047POPC   C1A36651  26.029  22.137   8.550
 6047POPC   D2A36652  26.068  22.177   8.250
 6047POPC   C3A36653  26.020  22.152   7.950
 6047POPC   C4A36654  26.090  22.210   7.650
 6047POPC   C1B36655  26.285  22.030   8.550
 6047POPC   C2B36656  26.289  22.093   8.250
 6047POPC   C3B36657  26.294  22.073   7.950
 6047POPC   C4B36658  26.262  22.025   7.650
 6048POPC   NC336659  26.813  20.563   9.450
 6048POPC   PO436660  26.810  20.654   9.150
 6048POPC   GL136661  26.784  20.569   8.850
 6048POPC   GL236662  26.981  20.629   8.850
 6048POPC   C1A36663  26.865  20.629   8.550
 6048POPC   D2A36664  26.813  20.602   8.250
 6048POPC   C3A36665  26.816  20.570   7.950
 6048POPC   C4A36666  26.842  20.644   7.650
 6048POPC   C1B36667  27.027  20.556   8.550
 6048POPC   C2B36668  27.099  20.576   8.250
 6048POPC   C3B36669  27.069  20.563   7.950
 6048POPC   C4B36670  27.051  20.548   7.650
 6049POPC   NC336671  43.101  18.266   9.450
 6049POPC   PO436672  43.098  18.307   9.150
 6049POPC   GL136673  43.105  18.295   8.850
 6049POPC   GL236674  43.174  18.159   8.850
 6049POPC   C1A36675  43.145  18.298   8.550
 6049POPC   D2A36676  43.141  18.282   8.250
 6049POPC   C3A36677  43.106  18.291   7.950
 6049POPC   C4A36678  43.122  18.245   7.650
 6049POPC   C1B36679  43.234  18.118   8.550
 6049POPC   C2B36680  43.251  18.031   8.250
 6049POPC   C3B36681  43.284  18.079   7.950
 6049POPC   C4B36682  43.222  18.087   7.650
 6050POPC   NC336683  36.871  22.948   9.450
 6050POPC   PO436684  36.878  22.959   9.150
 6050POPC   GL136685  36.933  22.965   8.850
 6050POPC   GL236686  37.026  23.042   8.850
 6050POPC   C1A36687  36.921  22.925   8.550
 6050POPC   D2A36688  36.909  22.956   8.250
 6050POPC   C3A36689  36.903  22.978   7.950
 6050POPC   C4A36690  36.927  22.985   7.650
 6050POPC   C1B36691  37.099  23.017   8.550
 6050POPC   C2B36692  37.115  23.096   8.250
 6050POPC   C3B36693  37.097  23.038   7.950
 6050POPC   C4B36694  37.082  23.085   7.650
 6051POPC   NC336695  25.239   6.650   9.450
 6051POPC   PO436696  25.291   6.678   9.150
 6051POPC   GL136697  25.230   6.644   8.850
 6051POPC   GL236698  25.297   6.777   8.850
 6051POPC   C1A36699  25.295   6.658   8.550
 6051POPC   D2A36700  25.285   6.680   8.250
 6051POPC   C3A36701  25.219   6.631   7.950
 6051POPC   C4A36702  25.313   6.683   7.650
 6051POPC   C1B36703  25.307   6.857   8.550
 6051POPC   C2B36704  25.335   6.864   8.250
 6051POPC   C3B36705  25.282   6.865   7.950
 6051POPC   C4B36706  25.277   6.861   7.650
 6052POPC   NC336707  14.429  30.699   9.450
 6052POPC   PO436708  14.419  30.656   9.150
 6052POPC   GL136709  14.393  30.706   8.850
 6052POPC   GL236710  14.348  30.619   8.850
 6052POPC   C1A36711  14.426  30.690   8.550
 6052POPC   D2A36712  14.434  30.686   8.250
 6052POPC   C3A36713  14.427  30.712   7.950
 6052POPC   C4A36714  14.403  30.740   7.650
 6052POPC   C1B36715  14.381  30.476   8.550
 6052POPC   C2B36716  14.340  30.463   8.250
 6052POPC   C3B36717  14.370  30.468   7.950
 6052POPC   C4B36718  14.283  30.483   7.650
 6053POPC   NC336719  44.696   8.936   9.450
 6053POPC   PO436720  44.711   8.993   9.150
 6053POPC   GL136721  44.673   8.980   8.850
 6053POPC   GL236722  44.586   8.858   8.850
 6053POPC   C1A36723  44.655   9.003   8.550
 6053POPC   D2A36724  44.665   8.936   8.250
 6053POPC   C3A36725  44.695   8.984   7.950
 6053POPC   C4A36726  44.636   8.961   7.650
 6053POPC   C1B36727  44.494   8.780   8.550
 6053POPC   C2B36728  44.550   8.785   8.250
 6053POPC   C3B36729  44.523   8.788   7.950
 6053POPC   C4B36730  44.554   8.788   7.650
 6054POPC   NC336731  11.338  13.638   9.450
 6054POPC   PO436732  11.331  13.637   9.150
 6054POPC   GL136733  11.293  13.673   8.850
 6054POPC   GL236734  11.262  13.519   8.850
 6054POPC   C1A36735  11.300  13.639   8.550
 6054POPC   D2A36736  11.309  13.639   8.250
 6054POPC   C3A36737  11.267  13.622   7.950
 6054POPC   C4A36738  11.339  13.673   7.650
 6054POPC   C1B36739  11.173  13.426   8.550
 6054POPC   C2B36740  11.101  13.404   8.250
 6054POPC   C3B36741  11.139  13.481   7.950
 6054POPC   C4B36742  11.150  13.455   7.650
 6055POPC   NC336743   2.023   3.522   9.450
 6055POPC   PO436744   2.000   3.556   9.150
 6055POPC   GL136745   2.034   3.533   8.850
 6055POPC   GL236746   2.069   3.652   8.850
 6055POPC   C1A36747   1.995   3.520   8.550
 6055POPC   D2A36748   1.949   3.543   8.250
 6055POPC   C3A36749   1.995   3.588   7.950
 6055POPC   C4A36750   1.980   3.495   7.650
 6055POPC   C1B36751   2.150   3.729   8.550
 6055POPC   C2B36752   2.180   3.677   8.250
 6055POPC   C3B36753   2.169   3.736   7.950
 6055POPC   C4B36754   2.161   3.656   7.650
 6056POPC   NC336755  30.725  10.542   9.450
 6056POPC   PO436756  30.723  10.525   9.150
 6056POPC   GL136757  30.696  10.505   8.850
 6056POPC   GL236758  30.828  10.563   8.850
 6056POPC   C1A36759  30.666  10.510   8.550
 6056POPC   D2A36760  30.694  10.565   8.250
 6056POPC   C3A36761  30.666  10.514   7.950
 6056POPC   C4A36762  30.663  10.549   7.650
 6056POPC   C1B36763  30.924  10.502   8.550
 6056POPC   C2B36764  30.973  10.562   8.250
 6056POPC   C3B36765  30.931  10.520   7.950
 6056POPC   C4B36766  30.965  10.541   7.650
 6057POPC   NC336767  43.102   9.789   9.450
 6057POPC   PO436768  43.157   9.798   9.150
 6057POPC   GL136769  43.157   9.777   8.850
 6057POPC   GL236770  42.996   9.635   8.850
 6057POPC   C1A36771  43.093   9.779   8.550
 6057POPC   D2A36772  43.133   9.737   8.250
 6057POPC   C3A36773  43.098   9.733   7.950
 6057POPC   C4A36774  43.155   9.715   7.650
 6057POPC   C1B36775  42.938   9.564   8.550
 6057POPC   C2B36776  42.878   9.627   8.250
 6057POPC   C3B36777  42.898   9.571   7.950
 6057POPC   C4B36778  42.878   9.575   7.650
 6058POPC   NC336779  44.709  23.753   9.450
 6058POPC   PO436780  44.707  23.707   9.150
 6058POPC   GL136781  44.650  23.701   8.850
 6058POPC   GL236782  44.760  23.592   8.850
 6058POPC   C1A36783  44.644  23.685   8.550
 6058POPC   D2A36784  44.701  23.701   8.250
 6058POPC   C3A36785  44.690  23.746   7.950
 6058POPC   C4A36786  44.684  23.747   7.650
 6058POPC   C1B36787  44.759  23.468   8.550
 6058POPC   C2B36788  44.757  23.538   8.250
 6058POPC   C3B36789  44.760  23.507   7.950
 6058POPC   C4B36790  44.788  23.498   7.650
 6059POPC   NC336791  19.845  25.315   9.450
 6059POPC   PO436792  19.862  25.309   9.150
 6059POPC   GL136793  19.830  25.311   8.850
 6059POPC   GL236794  19.964  25.248   8.850
 6059POPC   C1A36795  19.878  25.288   8.550
 6059POPC   D2A36796  19.856  25.231   8.250
 6059POPC   C3A36797  19.809  25.307   7.950
 6059POPC   C4A36798  19.856  25.269   7.650
 6059POPC   C1B36799  20.100  25.314   8.550
 6059POPC   C2B36800  20.130  25.278   8.250
 6059POPC   C3B36801  20.037  25.233   7.950
 6059POPC   C4B36802  20.123  25.271   7.650
 6060POPC   NC336803  28.415  28.379   9.450
 6060POPC   PO436804  28.383  28.392   9.150
 6060POPC   GL136805  28.391  28.386   8.850
 6060POPC   GL236806  28.471  28.420   8.850
 6060POPC   C1A36807  28.376  28.353   8.550
 6060POPC   D2A36808  28.415  28.419   8.250
 6060POPC   C3A36809  28.410  28.368   7.950
 6060POPC   C4A36810  28.320  28.339   7.650
 6060POPC   C1B36811  28.576  28.402   8.550
 6060POPC   C2B36812  28.650  28.370   8.250
 6060POPC   C3B36813  28.662  28.464   7.950
 6060POPC   C4B36814  28.649  28.380   7.650
 6061POPC   NC336815  16.748   5.917   9.450
 6061POPC   PO436816  16.750   5.878   9.150
 6061POPC   GL136817  16.747   5.889   8.850
 6061POPC   GL236818  16.714   5.772   8.850
 6061POPC   C1A36819  16.762   5.897   8.550
 6061POPC   D2A36820  16.686   5.855   8.250
 6061POPC   C3A36821  16.685   5.887   7.950
 6061POPC   C4A36822  16.760   5.900   7.650
 6061POPC   C1B36823  16.676   5.608   8.550
 6061POPC   C2B36824  16.694   5.627   8.250
 6061POPC   C3B36825  16.708   5.625   7.950
 6061POPC   C4B36826  16.704   5.653   7.650
 6062POPC   NC336827  14.449  19.039   9.450
 6062POPC   PO436828  14.401  19.011   9.150
 6062POPC   GL136829  14.425  19.099   8.850
 6062POPC   GL236830  14.486  18.991   8.850
 6062POPC   C1A36831  14.414  19.071   8.550
 6062POPC   D2A36832  14.404  19.041   8.250
 6062POPC   C3A36833  14.412  19.064   7.950
 6062POPC   C4A36834  14.400  19.023   7.650
 6062POPC   C1B36835  14.561  18.848   8.550
 6062POPC   C2B36836  14.597  18.843   8.250
 6062POPC   C3B36837  14.634  18.914   7.950
 6062POPC   C4B36838  14.569  18.904   7.650
 6063POPC   NC336839   8.230  25.284   9.450
 6063POPC   PO436840   8.203  25.272   9.150
 6063POPC   GL136841   8.152  25.302   8.850
 6063POPC   GL236842   8.241  25.186   8.850
 6063POPC   C1A36843   8.159  25.306   8.550
 6063POPC   D2A36844   8.151  25.244   8.250
 6063POPC   C3A36845   8.202  25.226   7.950
 6063POPC   C4A36846   8.225  25.287   7.650
 6063POPC   C1B36847   8.234  25.069   8.550
 6063POPC   C2B36848   8.191  24.978   8.250
 6063POPC   C3B36849   8.200  25.022   7.950
 6063POPC   C4B36850   8.197  24.993   7.650
 6064POPC   NC336851  35.352   9.785   9.450
 6064POPC   PO436852  35.371   9.708   9.150
 6064POPC   GL136853  35.311   9.744   8.850
 6064POPC   GL236854  35.285   9.855   8.850
 6064POPC   C1A36855  35.357   9.777   8.550
 6064POPC   D2A36856  35.307   9.730   8.250
 6064POPC   C3A36857  35.400   9.768   7.950
 6064POPC   C4A36858  35.316   9.739   7.650
 6064POPC   C1B36859  35.344   9.953   8.550
 6064POPC   C2B36860  35.272   9.981   8.250
 6064POPC   C3B36861  35.316   9.992   7.950
 6064POPC   C4B36862  35.353  10.041   7.650
 6065POPC   NC336863  27.625   3.511   9.450
 6065POPC   PO436864  27.625   3.495   9.150
 6065POPC   GL136865  27.598   3.543   8.850
 6065POPC   GL236866  27.529   3.618   8.850
 6065POPC   C1A36867  27.595   3.581   8.550
 6065POPC   D2A36868  27.628   3.565   8.250
 6065POPC   C3A36869  27.586   3.498   7.950
 6065POPC   C4A36870  27.617   3.535   7.650
 6065POPC   C1B36871  27.442   3.802   8.550
 6065POPC   C2B36872  27.482   3.734   8.250
 6065POPC   C3B36873  27.442   3.714   7.950
 6065POPC   C4B36874  27.425   3.792   7.650
 6066POPC   NC336875  41.559  31.492   9.450
 6066POPC   PO436876  41.578  31.494   9.150
 6066POPC   GL136877  41.522  31.517   8.850
 6066POPC   GL236878  41.648  31.420   8.850
 6066POPC   C1A36879  41.522  31.491   8.550
 6066POPC   D2A36880  41.528  31.439   8.250
 6066POPC   C3A36881  41.567  31.502   7.950
 6066POPC   C4A36882  41.604  31.482   7.650
 6066POPC   C1B36883  41.705  31.320   8.550
 6066POPC   C2B36884  41.733  31.241   8.250
 6066POPC   C3B36885  41.729  31.251   7.950
 6066POPC   C4B36886  41.697  31.225   7.650
 6067POPC   NC336887  15.954  32.266   9.450
 6067POPC   PO436888  15.973  32.205   9.150
 6067POPC   GL136889  15.943  32.287   8.850
 6067POPC   GL236890  15.961  32.141   8.850
 6067POPC   C1A36891  16.003  32.240   8.550
 6067POPC   D2A36892  16.003  32.275   8.250
 6067POPC   C3A36893  15.925  32.243   7.950
 6067POPC   C4A36894  15.937  32.228   7.650
 6067POPC   C1B36895  16.010  31.968   8.550
 6067POPC   C2B36896  16.012  32.028   8.250
 6067POPC   C3B36897  16.054  32.034   7.950
 6067POPC   C4B36898  16.047  32.054   7.650
 6068POPC   NC336899  44.629   6.630   9.450
 6068POPC   PO436900  44.687   6.690   9.150
 6068POPC   GL136901  44.694   6.672   8.850
 6068POPC   GL236902  44.721   6.563   8.850
 6068POPC   C1A36903  44.710   6.660   8.550
 6068POPC   D2A36904  44.627   6.675   8.250
 6068POPC   C3A36905  44.666   6.662   7.950
 6068POPC   C4A36906  44.627   6.618   7.650
 6068POPC   C1B36907  44.701   6.431   8.550
 6068POPC   C2B36908  44.744   6.393   8.250
 6068POPC   C3B36909  44.750   6.385   7.950
 6068POPC   C4B36910  44.723   6.407   7.650
 6069POPC   NC336911  14.408  29.932   9.450
 6069POPC   PO436912  14.406  29.961   9.150
 6069POPC   GL136913  14.421  29.918   8.850
 6069POPC   GL236914  14.310  29.819   8.850
 6069POPC   C1A36915  14.399  29.877   8.550
 6069POPC   D2A36916  14.402  29.907   8.250
 6069POPC   C3A36917  14.389  29.908   7.950
 6069POPC   C4A36918  14.394  29.957   7.650
 6069POPC   C1B36919  14.193  29.770   8.550
 6069POPC   C2B36920  14.219  29.777   8.250
 6069POPC   C3B36921  14.193  29.784   7.950
 6069POPC   C4B36922  14.257  29.781   7.650
 6070POPC   NC336923  11.330  33.005   9.450
 6070POPC   PO436924  11.322  33.025   9.150
 6070POPC   GL136925  11.255  33.059   8.850
 6070POPC   GL236926  11.361  33.095   8.850
 6070POPC   C1A36927  11.255  32.976   8.550
 6070POPC   D2A36928  11.315  32.993   8.250
 6070POPC   C3A36929  11.330  32.979   7.950
 6070POPC   C4A36930  11.252  33.037   7.650
 6070POPC   C1B36931  11.385  33.269   8.550
 6070POPC   C2B36932  11.414  33.287   8.250
 6070POPC   C3B36933  11.363  33.219   7.950
 6070POPC   C4B36934  11.368  33.226   7.650
 6071POPC   NC336935   2.802  25.219   9.450
 6071POPC   PO436936   2.802  25.264   9.150
 6071POPC   GL136937   2.738  25.227   8.850
 6071POPC   GL236938   2.652  25.229   8.850
 6071POPC   C1A36939   2.728  25.230   8.550
 6071POPC   D2A36940   2.775  25.269   8.250
 6071POPC   C3A36941   2.775  25.285   7.950
 6071POPC   C4A36942   2.789  25.250   7.650
 6071POPC   C1B36943   2.536  25.178   8.550
 6071POPC   C2B36944   2.546  25.135   8.250
 6071POPC   C3B36945   2.511  25.141   7.950
 6071POPC   C4B36946   2.487  25.183   7.650
 6072POPC   NC336947  39.195  10.525   9.450
 6072POPC   PO436948  39.196  10.490   9.150
 6072POPC   GL136949  39.230  10.486   8.850
 6072POPC   GL236950  39.284  10.617   8.850
 6072POPC   C1A36951  39.200  10.563   8.550
 6072POPC   D2A36952  39.276  10.512   8.250
 6072POPC   C3A36953  39.239  10.563   7.950
 6072POPC   C4A36954  39.199  10.487   7.650
 6072POPC   C1B36955  39.363  10.727   8.550
 6072POPC   C2B36956  39.435  10.660   8.250
 6072POPC   C3B36957  39.439  10.657   7.950
 6072POPC   C4B36958  39.402  10.709   7.650
 6073POPC   NC336959  12.875  24.474   9.450
 6073POPC   PO436960  12.823  24.444   9.150
 6073POPC   GL136961  12.816  24.448   8.850
 6073POPC   GL236962  12.889  24.338   8.850
 6073POPC   C1A36963  12.891  24.520   8.550
 6073POPC   D2A36964  12.823  24.523   8.250
 6073POPC   C3A36965  12.872  24.444   7.950
 6073POPC   C4A36966  12.901  24.450   7.650
 6073POPC   C1B36967  12.906  24.228   8.550
 6073POPC   C2B36968  12.972  24.277   8.250
 6073POPC   C3B36969  12.974  24.289   7.950
 6073POPC   C4B36970  12.895  24.253   7.650
 6074POPC   NC336971  36.878  40.784   9.450
 6074POPC   PO436972  36.859  40.830   9.150
 6074POPC   GL136973  36.862  40.814   8.850
 6074POPC   GL236974  36.751  40.732   8.850
 6074POPC   C1A36975  36.911  40.756   8.550
 6074POPC   D2A36976  36.889  40.795   8.250
 6074POPC   C3A36977  36.942  40.766   7.950
 6074POPC   C4A36978  36.923  40.808   7.650
 6074POPC   C1B36979  36.638  40.746   8.550
 6074POPC   C2B36980  36.684  40.757   8.250
 6074POPC   C3B36981  36.664  40.737   7.950
 6074POPC   C4B36982  36.673  40.727   7.650
 6075POPC   NC336983  36.941  25.308   9.450
 6075POPC   PO436984  36.932  25.232   9.150
 6075POPC   GL136985  36.903  25.240   8.850
 6075POPC   GL236986  37.064  25.332   8.850
 6075POPC   C1A36987  36.952  25.278   8.550
 6075POPC   D2A36988  36.873  25.231   8.250
 6075POPC   C3A36989  36.930  25.278   7.950
 6075POPC   C4A36990  36.854  25.282   7.650
 6075POPC   C1B36991  37.178  25.351   8.550
 6075POPC   C2B36992  37.095  25.368   8.250
 6075POPC   C3B36993  37.097  25.385   7.950
 6075POPC   C4B36994  37.110  25.333   7.650
 6076POPC   NC336995  27.576  40.740   9.450
 6076POPC   PO436996  27.584  40.763   9.150
 6076POPC   GL136997  27.641  40.778   8.850
 6076POPC   GL236998  27.620  40.855   8.850
 6076POPC   C1A36999  27.569  40.739   8.550
 6076POPC   D2A37000  27.601  40.827   8.250
 6076POPC   C3A37001  27.575  40.801   7.950
 6076POPC   C4A37002  27.588  40.746   7.650
 6076POPC   C1B37003  27.708  41.022   8.550
 6076POPC   C2B37004  27.719  40.982   8.250
 6076POPC   C3B37005  27.750  40.964   7.950
 6076POPC   C4B37006  27.738  41.030   7.650
 6077POPC   NC337007  10.484  40.764   9.450
 6077POPC   PO437008  10.503  40.832   9.150
 6077POPC   GL137009  10.520  40.766   8.850
 6077POPC   GL237010  10.661  40.718   8.850
 6077POPC   C1A37011  10.562  40.822   8.550
 6077POPC   D2A37012  10.477  40.821   8.250
 6077POPC   C3A37013  10.490  40.762   7.950
 6077POPC   C4A37014  10.557  40.754   7.650
 6077POPC   C1B37015  10.806  40.717   8.550
 6077POPC   C2B37016  10.754  40.643   8.250
 6077POPC   C3B37017  10.716  40.698   7.950
 6077POPC   C4B37018  10.735  40.736   7.650
 6078POPC   NC337019  19.878   5.918   9.450
 6078POPC   PO437020  19.881   5.835   9.150
 6078POPC   GL137021  19.816   5.850   8.850
 6078POPC   GL237022  19.948   5.846   8.850
 6078POPC   C1A37023  19.838   5.850   8.550
 6078POPC   D2A37024  19.802   5.871   8.250
 6078POPC   C3A37025  19.849   5.825   7.950
 6078POPC   C4A37026  19.824   5.824   7.650
 6078POPC   C1B37027  20.113   5.841   8.550
 6078POPC   C2B37028  20.050   5.876   8.250
 6078POPC   C3B37029  20.059   5.850   7.950
 6078POPC   C4B37030  20.089   5.814   7.650
 6079POPC   NC337031  18.332  35.382   9.450
 6079POPC   PO437032  18.275  35.304   9.150
 6079POPC   GL137033  18.268  35.351   8.850
 6079POPC   GL237034  18.273  35.481   8.850
 6079POPC   C1A37035  18.249  35.321   8.550
 6079POPC   D2A37036  18.267  35.392   8.250
 6079POPC   C3A37037  18.250  35.367   7.950
 6079POPC   C4A37038  18.289  35.388   7.650
 6079POPC   C1B37039  18.313  35.632   8.550
 6079POPC   C2B37040  18.308  35.590   8.250
 6079POPC   C3B37041  18.243  35.641   7.950
 6079POPC   C4B37042  18.279  35.590   7.650
 6080POPC   NC337043  43.142  21.408   9.450
 6080POPC   PO437044  43.099  21.400   9.150
 6080POPC   GL137045  43.087  21.358   8.850
 6080POPC   GL237046  43.103  21.460   8.850
 6080POPC   C1A37047  43.068  21.395   8.550
 6080POPC   D2A37048  43.118  21.343   8.250
 6080POPC   C3A37049  43.089  21.408   7.950
 6080POPC   C4A37050  43.136  21.407   7.650
 6080POPC   C1B37051  43.047  21.613   8.550
 6080POPC   C2B37052  43.046  21.589   8.250
 6080POPC   C3B37053  43.020  21.647   7.950
 6080POPC   C4B37054  43.035  21.581   7.650
 6081POPC   NC337055   9.733   6.596   9.450
 6081POPC   PO437056   9.754   6.662   9.150
 6081POPC   GL137057   9.752   6.653   8.850
 6081POPC   GL237058   9.611   6.618   8.850
 6081POPC   C1A37059   9.777   6.667   8.550
 6081POPC   D2A37060   9.756   6.643   8.250
 6081POPC   C3A37061   9.716   6.606   7.950
 6081POPC   C4A37062   9.711   6.628   7.650
 6081POPC   C1B37063   9.558   6.553   8.550
 6081POPC   C2B37064   9.567   6.576   8.250
 6081POPC   C3B37065   9.487   6.563   7.950
 6081POPC   C4B37066   9.561   6.529   7.650
 6082POPC   NC337067  25.995  38.470   9.450
 6082POPC   PO437068  26.048  38.410   9.150
 6082POPC   GL137069  26.081  38.422   8.850
 6082POPC   GL237070  25.895  38.395   8.850
 6082POPC   C1A37071  26.069  38.420   8.550
 6082POPC   D2A37072  26.059  38.462   8.250
 6082POPC   C3A37073  26.024  38.457   7.950
 6082POPC   C4A37074  25.994  38.469   7.650
 6082POPC   C1B37075  25.748  38.376   8.550
 6082POPC   C2B37076  25.799  38.426   8.250
 6082POPC   C3B37077  25.828  38.400   7.950
 6082POPC   C4B37078  25.787  38.447   7.650
 6083POPC   NC337079   8.241   1.973   9.450
 6083POPC   PO437080   8.230   2.036   9.150
 6083POPC   GL137081   8.221   2.023   8.850
 6083POPC   GL237082   8.144   1.849   8.850
 6083POPC   C1A37083   8.205   2.030   8.550
 6083POPC   D2A37084   8.174   2.029   8.250
 6083POPC   C3A37085   8.205   2.033   7.950
 6083POPC   C4A37086   8.158   1.945   7.650
 6083POPC   C1B37087   8.035   1.819   8.550
 6083POPC   C2B37088   8.057   1.760   8.250
 6083POPC   C3B37089   8.045   1.809   7.950
 6083POPC   C4B37090   7.986   1.815   7.650
 6084POPC   NC337091  40.813  35.343   9.450
 6084POPC   PO437092  40.770  35.329   9.150
 6084POPC   GL137093  40.752  35.398   8.850
 6084POPC   GL237094  40.659  35.333   8.850
 6084POPC   C1A37095  40.769  35.399   8.550
 6084POPC   D2A37096  40.807  35.362   8.250
 6084POPC   C3A37097  40.791  35.350   7.950
 6084POPC   C4A37098  40.734  35.329   7.650
 6084POPC   C1B37099  40.535  35.353   8.550
 6084POPC   C2B37100  40.495  35.346   8.250
 6084POPC   C3B37101  40.561  35.347   7.950
 6084POPC   C4B37102  40.576  35.389   7.650
 6085POPC   NC337103  15.186  11.284   9.450
 6085POPC   PO437104  15.199  11.287   9.150
 6085POPC   GL137105  15.163  11.255   8.850
 6085POPC   GL237106  15.259  11.198   8.850
 6085POPC   C1A37107  15.184  11.298   8.550
 6085POPC   D2A37108  15.170  11.325   8.250
 6085POPC   C3A37109  15.132  11.260   7.950
 6085POPC   C4A37110  15.167  11.260   7.650
 6085POPC   C1B37111  15.356  11.134   8.550
 6085POPC   C2B37112  15.340  11.051   8.250
 6085POPC   C3B37113  15.299  11.124   7.950
 6085POPC   C4B37114  15.269  11.107   7.650
 6086POPC   NC337115  28.413   2.743   9.450
 6086POPC   PO437116  28.352   2.751   9.150
 6086POPC   GL137117  28.389   2.793   8.850
 6086POPC   GL237118  28.345   2.841   8.850
 6086POPC   C1A37119  28.374   2.722   8.550
 6086POPC   D2A37120  28.390   2.727   8.250
 6086POPC   C3A37121  28.356   2.791   7.950
 6086POPC   C4A37122  28.347   2.734   7.650
 6086POPC   C1B37123  28.249   2.997   8.550
 6086POPC   C2B37124  28.260   2.966   8.250
 6086POPC   C3B37125  28.326   3.051   7.950
 6086POPC   C4B37126  28.315   2.961   7.650
 6087POPC   NC337127  33.769  12.811   9.450
 6087POPC   PO437128  33.774  12.844   9.150
 6087POPC   GL137129  33.829  12.824   8.850
 6087POPC   GL237130  33.681  12.888   8.850
 6087POPC   C1A37131  33.831  12.857   8.550
 6087POPC   D2A37132  33.808  12.841   8.250
 6087POPC   C3A37133  33.806  12.898   7.950
 6087POPC   C4A37134  33.814  12.808   7.650
 6087POPC   C1B37135  33.526  12.847   8.550
 6087POPC   C2B37136  33.506  12.786   8.250
 6087POPC   C3B37137  33.542  12.863   7.950
 6087POPC   C4B37138  33.584  12.798   7.650
 6088POPC   NC337139   6.618   6.660   9.450
 6088POPC   PO437140   6.660   6.597   9.150
 6088POPC   GL137141   6.650   6.690   8.850
 6088POPC   GL237142   6.767   6.654   8.850
 6088POPC   C1A37143   6.612   6.693   8.550
 6088POPC   D2A37144   6.614   6.683   8.250
 6088POPC   C3A37145   6.693   6.681   7.950
 6088POPC   C4A37146   6.672   6.654   7.650
 6088POPC   C1B37147   6.847   6.632   8.550
 6088POPC   C2B37148   6.935   6.639   8.250
 6088POPC   C3B37149   6.921   6.666   7.950
 6088POPC   C4B37150   6.870   6.654   7.650
 6089POPC   NC337151   6.602  12.091   9.450
 6089POPC   PO437152   6.650  12.061   9.150
 6089POPC   GL137153   6.606  12.074   8.850
 6089POPC   GL237154   6.717  12.232   8.850
 6089POPC   C1A37155   6.649  12.043   8.550
 6089POPC   D2A37156   6.599  12.122   8.250
 6089POPC   C3A37157   6.678  12.095   7.950
 6089POPC   C4A37158   6.682  12.030   7.650
 6089POPC   C1B37159   6.803  12.255   8.550
 6089POPC   C2B37160   6.733  12.338   8.250
 6089POPC   C3B37161   6.802  12.308   7.950
 6089POPC   C4B37162   6.729  12.275   7.650
 6090POPC   NC337163  24.493  41.552   9.450
 6090POPC   PO437164  24.481  41.556   9.150
 6090POPC   GL137165  24.504  41.585   8.850
 6090POPC   GL237166  24.594  41.713   8.850
 6090POPC   C1A37167  24.476  41.564   8.550
 6090POPC   D2A37168  24.472  41.595   8.250
 6090POPC   C3A37169  24.536  41.582   7.950
 6090POPC   C4A37170  24.482  41.553   7.650
 6090POPC   C1B37171  24.597  41.766   8.550
 6090POPC   C2B37172  24.633  41.768   8.250
 6090POPC   C3B37173  24.650  41.762   7.950
 6090POPC   C4B37174  24.646  41.822   7.650
 6091POPC   NC337175  33.016  29.923   9.450
 6091POPC   PO437176  32.988  29.966   9.150
 6091POPC   GL137177  33.000  29.969   8.850
 6091POPC   GL237178  33.032  30.057   8.850
 6091POPC   C1A37179  33.009  29.886   8.550
 6091POPC   D2A37180  32.978  29.969   8.250
 6091POPC   C3A37181  33.068  29.944   7.950
 6091POPC   C4A37182  33.070  29.943   7.650
 6091POPC   C1B37183  33.093  30.153   8.550
 6091POPC   C2B37184  33.053  30.175   8.250
 6091POPC   C3B37185  33.082  30.163   7.950
 6091POPC   C4B37186  33.141  30.157   7.650
 6092POPC   NC337187  43.157  43.115   9.450
 6092POPC   PO437188  43.117  43.133   9.150
 6092POPC   GL137189  43.142  43.158   8.850
 6092POPC   GL237190  43.258  43.082   8.850
 6092POPC   C1A37191  43.140  43.145   8.550
 6092POPC   D2A37192  43.108  43.142   8.250
 6092POPC   C3A37193  43.148  43.160   7.950
 6092POPC   C4A37194  43.116  43.108   7.650
 6092POPC   C1B37195  43.388  43.027   8.550
 6092POPC   C2B37196  43.399  42.995   8.250
 6092POPC   C3B37197  43.349  43.008   7.950
 6092POPC   C4B37198  43.394  42.998   7.650
 6093POPC   NC337199  44.635  42.287   9.450
 6093POPC   PO437200  44.618  42.325   9.150
 6093POPC   GL137201  44.625  42.381   8.850
 6093POPC   GL237202  44.544  42.247   8.850
 6093POPC   C1A37203  44.623  42.332   8.550
 6093POPC   D2A37204  44.681  42.312   8.250
 6093POPC   C3A37205  44.645  42.304   7.950
 6093POPC   C4A37206  44.646  42.382   7.650
 6093POPC   C1B37207  44.474  42.260   8.550
 6093POPC   C2B37208  44.421  42.242   8.250
 6093POPC   C3B37209  44.402  42.222   7.950
 6093POPC   C4B37210  44.411  42.208   7.650
 6094POPC   NC337211  38.483  41.556   9.450
 6094POPC   PO437212  38.501  41.604   9.150
 6094POPC   GL137213  38.430  41.542   8.850
 6094POPC   GL237214  38.446  41.721   8.850
 6094POPC   C1A37215  38.493  41.551   8.550
 6094POPC   D2A37216  38.492  41.518   8.250
 6094POPC   C3A37217  38.437  41.540   7.950
 6094POPC   C4A37218  38.418  41.542   7.650
 6094POPC   C1B37219  38.474  41.765   8.550
 6094POPC   C2B37220  38.528  41.764   8.250
 6094POPC   C3B37221  38.548  41.835   7.950
 6094POPC   C4B37222  38.536  41.803   7.650
 6095POPC   NC337223  39.974  12.857   9.450
 6095POPC   PO437224  40.053  12.841   9.150
 6095POPC   GL137225  40.021  12.889   8.850
 6095POPC   GL237226  39.958  12.741   8.850
 6095POPC   C1A37227  40.040  12.808   8.550
 6095POPC   D2A37228  39.969  12.858   8.250
 6095POPC   C3A37229  40.029  12.892   7.950
 6095POPC   C4A37230  39.988  12.842   7.650
 6095POPC   C1B37231  39.961  12.625   8.550
 6095POPC   C2B37232  39.947  12.635   8.250
 6095POPC   C3B37233  39.950  12.601   7.950
 6095POPC   C4B37234  39.977  12.585   7.650
 6096POPC   NC337235   5.071  14.422   9.450
 6096POPC   PO437236   5.090  14.439   9.150
 6096POPC   GL137237   5.071  14.389   8.850
 6096POPC   GL237238   4.982  14.344   8.850
 6096POPC   C1A37239   5.108  14.411   8.550
 6096POPC   D2A37240   5.101  14.446   8.250
 6096POPC   C3A37241   5.119  14.442   7.950
 6096POPC   C4A37242   5.077  14.417   7.650
 6096POPC   C1B37243   4.832  14.326   8.550
 6096POPC   C2B37244   4.829  14.312   8.250
 6096POPC   C3B37245   4.894  14.262   7.950
 6096POPC   C4B37246   4.832  14.318   7.650
 6097POPC   NC337247   0.485   2.732   9.450
 6097POPC   PO437248   0.446   2.806   9.150
 6097POPC   GL137249   0.450   2.750   8.850
 6097POPC   GL237250   0.432   2.870   8.850
 6097POPC   C1A37251   0.432   2.729   8.550
 6097POPC   D2A37252   0.435   2.768   8.250
 6097POPC   C3A37253   0.480   2.747   7.950
 6097POPC   C4A37254   0.449   2.781   7.650
 6097POPC   C1B37255   0.367   2.952   8.550
 6097POPC   C2B37256   0.329   3.006   8.250
 6097POPC   C3B37257   0.287   3.040   7.950
 6097POPC   C4B37258   0.379   3.009   7.650
 6098POPC   NC337259  28.342  26.003   9.450
 6098POPC   PO437260  28.395  26.051   9.150
 6098POPC   GL137261  28.418  26.085   8.850
 6098POPC   GL237262  28.315  25.927   8.850
 6098POPC   C1A37263  28.364  26.054   8.550
 6098POPC   D2A37264  28.417  26.000   8.250
 6098POPC   C3A37265  28.356  25.992   7.950
 6098POPC   C4A37266  28.320  26.021   7.650
 6098POPC   C1B37267  28.242  25.883   8.550
 6098POPC   C2B37268  28.210  25.844   8.250
 6098POPC   C3B37269  28.215  25.817   7.950
 6098POPC   C4B37270  28.187  25.887   7.650
 6099POPC   NC337271   1.961   1.258   9.450
 6099POPC   PO437272   1.957   1.187   9.150
 6099POPC   GL137273   2.007   1.169   8.850
 6099POPC   GL237274   2.106   1.160   8.850
 6099POPC   C1A37275   1.992   1.166   8.550
 6099POPC   D2A37276   1.956   1.223   8.250
 6099POPC   C3A37277   1.947   1.167   7.950
 6099POPC   C4A37278   1.988   1.196   7.650
 6099POPC   C1B37279   2.188   1.089   8.550
 6099POPC   C2B37280   2.224   1.102   8.250
 6099POPC   C3B37281   2.271   1.146   7.950
 6099POPC   C4B37282   2.194   1.123   7.650
 6100POPC   NC337283   5.869   1.169   9.450
 6100POPC   PO437284   5.911   1.176   9.150
 6100POPC   GL137285   5.849   1.192   8.850
 6100POPC   GL237286   5.895   1.327   8.850
 6100POPC   C1A37287   5.916   1.255   8.550
 6100POPC   D2A37288   5.856   1.216   8.250
 6100POPC   C3A37289   5.850   1.259   7.950
 6100POPC   C4A37290   5.825   1.224   7.650
 6100POPC   C1B37291   5.969   1.443   8.550
 6100POPC   C2B37292   5.935   1.408   8.250
 6100POPC   C3B37293   6.020   1.395   7.950
 6100POPC   C4B37294   5.960   1.412   7.650
 6101POPC   NC337295   6.598  26.790   9.450
 6101POPC   PO437296   6.679  26.845   9.150
 6101POPC   GL137297   6.666  26.809   8.850
 6101POPC   GL237298   6.535  26.843   8.850
 6101POPC   C1A37299   6.646  26.771   8.550
 6101POPC   D2A37300   6.675  26.833   8.250
 6101POPC   C3A37301   6.596  26.814   7.950
 6101POPC   C4A37302   6.647  26.810   7.650
 6101POPC   C1B37303   6.450  26.962   8.550
 6101POPC   C2B37304   6.463  26.942   8.250
 6101POPC   C3B37305   6.394  26.911   7.950
 6101POPC   C4B37306   6.412  26.920   7.650
 6102POPC   NC337307   3.540  44.632   9.450
 6102POPC   PO437308   3.571  44.658   9.150
 6102POPC   GL137309   3.534  44.642   8.850
 6102POPC   GL237310   3.415  44.736   8.850
 6102POPC   C1A37311   3.560  44.625   8.550
 6102POPC   D2A37312   3.562  44.682   8.250
 6102POPC   C3A37313   3.499  44.645   7.950
 6102POPC   C4A37314   3.506  44.710   7.650
 6102POPC   C1B37315   3.374  44.872   8.550
 6102POPC   C2B37316   3.411  44.838   8.250
 6102POPC   C3B37317   3.390  44.797   7.950
 6102POPC   C4B37318   3.402  44.817   7.650
 6103POPC   NC337319   4.306  41.535   9.450
 6103POPC   PO437320   4.282  41.583   9.150
 6103POPC   GL137321   4.311  41.562   8.850
 6103POPC   GL237322   4.347  41.704   8.850
 6103POPC   C1A37323   4.322  41.549   8.550
 6103POPC   D2A37324   4.296  41.559   8.250
 6103POPC   C3A37325   4.343  41.573   7.950
 6103POPC   C4A37326   4.280  41.523   7.650
 6103POPC   C1B37327   4.335  41.822   8.550
 6103POPC   C2B37328   4.304  41.829   8.250
 6103POPC   C3B37329   4.348  41.759   7.950
 6103POPC   C4B37330   4.358  41.854   7.650
 6104POPC   NC337331  39.267  33.830   9.450
 6104POPC   PO437332  39.217  33.777   9.150
 6104POPC   GL137333  39.190  33.782   8.850
 6104POPC   GL237334  39.327  33.815   8.850
 6104POPC   C1A37335  39.181  33.814   8.550
 6104POPC   D2A37336  39.274  33.777   8.250
 6104POPC   C3A37337  39.206  33.838   7.950
 6104POPC   C4A37338  39.250  33.818   7.650
 6104POPC   C1B37339  39.470  33.922   8.550
 6104POPC   C2B37340  39.456  33.914   8.250
 6104POPC   C3B37341  39.462  33.870   7.950
 6104POPC   C4B37342  39.426  33.925   7.650
 6105POPC   NC337343   3.535   8.205   9.450
 6105POPC   PO437344   3.555   8.237   9.150
 6105POPC   GL137345   3.522   8.225   8.850
 6105POPC   GL237346   3.511   8.071   8.850
 6105POPC   C1A37347   3.567   8.231   8.550
 6105POPC   D2A37348   3.516   8.221   8.250
 6105POPC   C3A37349   3.519   8.212   7.950
 6105POPC   C4A37350   3.559   8.195   7.650
 6105POPC   C1B37351   3.525   7.945   8.550
 6105POPC   C2B37352   3.474   7.928   8.250
 6105POPC   C3B37353   3.508   7.962   7.950
 6105POPC   C4B37354   3.443   7.950   7.650
 6106POPC   NC337355  30.680  39.249   9.450
 6106POPC   PO437356  30.741  39.212   9.150
 6106POPC   GL137357  30.734  39.260   8.850
 6106POPC   GL237358  30.652  39.131   8.850
 6106POPC   C1A37359  30.708  39.247   8.550
 6106POPC   D2A37360  30.647  39.248   8.250
 6106POPC   C3A37361  30.694  39.253   7.950
 6106POPC   C4A37362  30.690  39.203   7.650
 6106POPC   C1B37363  30.678  38.993   8.550
 6106POPC   C2B37364  30.655  38.998   8.250
 6106POPC   C3B37365  30.671  38.941   7.950
 6106POPC   C4B37366  30.646  39.025   7.650
 6107POPC   NC337367   5.138   0.392   9.450
 6107POPC   PO437368   5.095   0.437   9.150
 6107POPC   GL137369   5.050   0.482   8.850
 6107POPC   GL237370   5.201   0.437   8.850
 6107POPC   C1A37371   5.131   0.408   8.550
 6107POPC   D2A37372   5.089   0.480   8.250
 6107POPC   C3A37373   5.102   0.446   7.950
 6107POPC   C4A37374   5.138   0.451   7.650
 6107POPC   C1B37375   5.313   0.417   8.550
 6107POPC   C2B37376   5.337   0.414   8.250
 6107POPC   C3B37377   5.369   0.468   7.950
 6107POPC   C4B37378   5.368   0.470   7.650
 6108POPC   NC337379   3.560  22.955   9.450
 6108POPC   PO437380   3.572  22.946   9.150
 6108POPC   GL137381   3.528  22.933   8.850
 6108POPC   GL237382   3.673  22.986   8.850
 6108POPC   C1A37383   3.565  22.934   8.550
 6108POPC   D2A37384   3.517  22.957   8.250
 6108POPC   C3A37385   3.492  22.974   7.950
 6108POPC   C4A37386   3.583  22.904   7.650
 6108POPC   C1B37387   3.742  22.991   8.550
 6108POPC   C2B37388   3.748  23.043   8.250
 6108POPC   C3B37389   3.753  23.007   7.950
 6108POPC   C4B37390   3.795  23.044   7.650
 6109POPC   NC337391  36.167  41.592   9.450
 6109POPC   PO437392  36.089  41.600   9.150
 6109POPC   GL137393  36.114  41.581   8.850
 6109POPC   GL237394  36.003  41.671   8.850
 6109POPC   C1A37395  36.090  41.606   8.550
 6109POPC   D2A37396  36.121  41.540   8.250
 6109POPC   C3A37397  36.096  41.520   7.950
 6109POPC   C4A37398  36.148  41.588   7.650
 6109POPC   C1B37399  35.913  41.732   8.550
 6109POPC   C2B37400  35.912  41.717   8.250
 6109POPC   C3B37401  35.916  41.681   7.950
 6109POPC   C4B37402  35.890  41.736   7.650
 6110POPC   NC337403  22.177  39.223   9.450
 6110POPC   PO437404  22.135  39.241   9.150
 6110POPC   GL137405  22.150  39.191   8.850
 6110POPC   GL237406  22.145  39.067   8.850
 6110POPC   C1A37407  22.133  39.251   8.550
 6110POPC   D2A37408  22.203  39.279   8.250
 6110POPC   C3A37409  22.125  39.248   7.950
 6110POPC   C4A37410  22.151  39.252   7.650
 6110POPC   C1B37411  22.219  39.016   8.550
 6110POPC   C2B37412  22.190  39.012   8.250
 6110POPC   C3B37413  22.269  39.013   7.950
 6110POPC   C4B37414  22.247  39.015   7.650
 6111POPC   NC337415  30.676  13.641   9.450
 6111POPC   PO437416  30.667  13.648   9.150
 6111POPC   GL137417  30.693  13.637   8.850
 6111POPC   GL237418  30.766  13.541   8.850
 6111POPC   C1A37419  30.701  13.635   8.550
 6111POPC   D2A37420  30.676  13.636   8.250
 6111POPC   C3A37421  30.725  13.642   7.950
 6111POPC   C4A37422  30.729  13.655   7.650
 6111POPC   C1B37423  30.858  13.395   8.550
 6111POPC   C2B37424  30.880  13.422   8.250
 6111POPC   C3B37425  30.893  13.476   7.950
 6111POPC   C4B37426  30.813  13.475   7.650
 6112POPC   NC337427  17.528   3.543   9.450
 6112POPC   PO437428  17.521   3.524   9.150
 6112POPC   GL137429  17.495   3.558   8.850
 6112POPC   GL237430  17.416   3.471   8.850
 6112POPC   C1A37431  17.500   3.572   8.550
 6112POPC   D2A37432  17.530   3.584   8.250
 6112POPC   C3A37433  17.484   3.521   7.950
 6112POPC   C4A37434  17.497   3.540   7.650
 6112POPC   C1B37435  17.226   3.437   8.550
 6112POPC   C2B37436  17.295   3.520   8.250
 6112POPC   C3B37437  17.224   3.518   7.950
 6112POPC   C4B37438  17.300   3.466   7.650
 6113POPC   NC337439  15.977  12.817   9.450
 6113POPC   PO437440  15.926  12.855   9.150
 6113POPC   GL137441  15.915  12.824   8.850
 6113POPC   GL237442  15.950  12.720   8.850
 6113POPC   C1A37443  15.927  12.832   8.550
 6113POPC   D2A37444  15.993  12.885   8.250
 6113POPC   C3A37445  15.917  12.815   7.950
 6113POPC   C4A37446  15.986  12.848   7.650
 6113POPC   C1B37447  15.901  12.579   8.550
 6113POPC   C2B37448  15.895  12.618   8.250
 6113POPC   C3B37449  15.887  12.581   7.950
 6113POPC   C4B37450  15.916  12.573   7.650
 6114POPC   NC337451  13.628  29.953   9.450
 6114POPC   PO437452  13.636  29.875   9.150
 6114POPC   GL137453  13.651  29.952   8.850
 6114POPC   GL237454  13.764  30.006   8.850
 6114POPC   C1A37455  13.630  29.970   8.550
 6114POPC   D2A37456  13.604  29.927   8.250
 6114POPC   C3A37457  13.588  29.909   7.950
 6114POPC   C4A37458  13.664  29.962   7.650
 6114POPC   C1B37459  13.833  30.127   8.550
 6114POPC   C2B37460  13.845  30.128   8.250
 6114POPC   C3B37461  13.808  30.065   7.950
 6114POPC   C4B37462  13.778  30.063   7.650
 6115POPC   NC337463   0.438  18.245   9.450
 6115POPC   PO437464   0.424  18.236   9.150
 6115POPC   GL137465   0.420  18.233   8.850
 6115POPC   GL237466   0.336  18.358   8.850
 6115POPC   C1A37467   0.431  18.238   8.550
 6115POPC   D2A37468   0.461  18.262   8.250
 6115POPC   C3A37469   0.412  18.321   7.950
 6115POPC   C4A37470   0.442  18.234   7.650
 6115POPC   C1B37471   0.263  18.525   8.550
 6115POPC   C2B37472   0.277  18.507   8.250
 6115POPC   C3B37473   0.311  18.543   7.950
 6115POPC   C4B37474   0.308  18.528   7.650
 6116POPC   NC337475  17.475  39.187   9.450
 6116POPC   PO437476  17.519  39.252   9.150
 6116POPC   GL137477  17.486  39.278   8.850
 6116POPC   GL237478  17.572  39.144   8.850
 6116POPC   C1A37479  17.513  39.277   8.550
 6116POPC   D2A37480  17.535  39.186   8.250
 6116POPC   C3A37481  17.474  39.211   7.950
 6116POPC   C4A37482  17.523  39.189   7.650
 6116POPC   C1B37483  17.654  39.052   8.550
 6116POPC   C2B37484  17.645  39.017   8.250
 6116POPC   C3B37485  17.700  39.041   7.950
 6116POPC   C4B37486  17.706  39.078   7.650
 6117POPC   NC337487  12.856   4.364   9.450
 6117POPC   PO437488  12.842   4.300   9.150
 6117POPC   GL137489  12.836   4.367   8.850
 6117POPC   GL237490  12.937   4.182   8.850
 6117POPC   C1A37491  12.901   4.271   8.550
 6117POPC   D2A37492  12.819   4.292   8.250
 6117POPC   C3A37493  12.831   4.352   7.950
 6117POPC   C4A37494  12.845   4.278   7.650
 6117POPC   C1B37495  12.924   4.119   8.550
 6117POPC   C2B37496  12.967   4.069   8.250
 6117POPC   C3B37497  12.968   4.094   7.950
 6117POPC   C4B37498  12.969   4.131   7.650
 6118POPC   NC337499  12.075  27.605   9.450
 6118POPC   PO437500  12.073  27.630   9.150
 6118POPC   GL137501  12.098  27.627   8.850
 6118POPC   GL237502  12.103  27.444   8.850
 6118POPC   C1A37503  12.082  27.633   8.550
 6118POPC   D2A37504  12.091  27.606   8.250
 6118POPC   C3A37505  12.107  27.551   7.950
 6118POPC   C4A37506  12.032  27.567   7.650
 6118POPC   C1B37507  12.047  27.359   8.550
 6118POPC   C2B37508  12.030  27.329   8.250
 6118POPC   C3B37509  12.070  27.334   7.950
 6118POPC   C4B37510  12.040  27.311   7.650
 6119POPC   NC337511  23.737  22.113   9.450
 6119POPC   PO437512  23.721  22.211   9.150
 6119POPC   GL137513  23.703  22.118   8.850
 6119POPC   GL237514  23.791  22.109   8.850
 6119POPC   C1A37515  23.737  22.209   8.550
 6119POPC   D2A37516  23.712  22.127   8.250
 6119POPC   C3A37517  23.675  22.143   7.950
 6119POPC   C4A37518  23.719  22.183   7.650
 6119POPC   C1B37519  23.918  21.998   8.550
 6119POPC   C2B37520  23.916  22.002   8.250
 6119POPC   C3B37521  23.897  21.996   7.950
 6119POPC   C4B37522  23.926  22.018   7.650
 6120POPC   NC337523   6.616  22.123   9.450
 6120POPC   PO437524   6.690  22.123   9.150
 6120POPC   GL137525   6.649  22.132   8.850
 6120POPC   GL237526   6.671  22.050   8.850
 6120POPC   C1A37527   6.680  22.197   8.550
 6120POPC   D2A37528   6.632  22.178   8.250
 6120POPC   C3A37529   6.677  22.133   7.950
 6120POPC   C4A37530   6.627  22.116   7.650
 6120POPC   C1B37531   6.762  21.973   8.550
 6120POPC   C2B37532   6.729  21.941   8.250
 6120POPC   C3B37533   6.707  21.980   7.950
 6120POPC   C4B37534   6.728  21.964   7.650
 6121POPC   NC337535   9.744  14.384   9.450
 6121POPC   PO437536   9.795  14.360   9.150
 6121POPC   GL137537   9.792  14.371   8.850
 6121POPC   GL237538   9.660  14.291   8.850
 6121POPC   C1A37539   9.760  14.422   8.550
 6121POPC   D2A37540   9.700  14.398   8.250
 6121POPC   C3A37541   9.768  14.420   7.950
 6121POPC   C4A37542   9.737  14.450   7.650
 6121POPC   C1B37543   9.578  14.219   8.550
 6121POPC   C2B37544   9.567  14.171   8.250
 6121POPC   C3B37545   9.575  14.192   7.950
 6121POPC   C4B37546   9.575  14.237   7.650
 6122POPC   NC337547  34.537   2.760   9.450
 6122POPC   PO437548  34.531   2.731   9.150
 6122POPC   GL137549  34.595   2.796   8.850
 6122POPC   GL237550  34.595   2.637   8.850
 6122POPC   C1A37551  34.555   2.771   8.550
 6122POPC   D2A37552  34.527   2.750   8.250
 6122POPC   C3A37553  34.551   2.721   7.950
 6122POPC   C4A37554  34.601   2.760   7.650
 6122POPC   C1B37555  34.694   2.532   8.550
 6122POPC   C2B37556  34.672   2.567   8.250
 6122POPC   C3B37557  34.633   2.502   7.950
 6122POPC   C4B37558  34.692   2.578   7.650
 6123POPC   NC337559  38.461  16.767   9.450
 6123POPC   PO437560  38.495  16.743   9.150
 6123POPC   GL137561  38.462  16.695   8.850
 6123POPC   GL237562  38.569  16.655   8.850
 6123POPC   C1A37563  38.417  16.742   8.550
 6123POPC   D2A37564  38.426  16.702   8.250
 6123POPC   C3A37565  38.503  16.714   7.950
 6123POPC   C4A37566  38.437  16.737   7.650
 6123POPC   C1B37567  38.727  16.654   8.550
 6123POPC   C2B37568  38.659  16.670   8.250
 6123POPC   C3B37569  38.688  16.674   7.950
 6123POPC   C4B37570  38.674  16.695   7.650
 6124POPC   NC337571  41.600   3.495   9.450
 6124POPC   PO437572  41.579   3.531   9.150
 6124POPC   GL137573  41.569   3.550   8.850
 6124POPC   GL237574  41.555   3.395   8.850
 6124POPC   C1A37575  41.551   3.510   8.550
 6124POPC   D2A37576  41.593   3.571   8.250
 6124POPC   C3A37577  41.559   3.516   7.950
 6124POPC   C4A37578  41.549   3.546   7.650
 6124POPC   C1B37579  41.593   3.320   8.550
 6124POPC   C2B37580  41.686   3.339   8.250
 6124POPC   C3B37581  41.623   3.319   7.950
 6124POPC   C4B37582  41.604   3.355   7.650
 6125POPC   NC337583   9.792  12.085   9.450
 6125POPC   PO437584   9.738  12.113   9.150
 6125POPC   GL137585   9.776  12.048   8.850
 6125POPC   GL237586   9.776  11.921   8.850
 6125POPC   C1A37587   9.699  12.030   8.550
 6125POPC   D2A37588   9.737  12.123   8.250
 6125POPC   C3A37589   9.706  12.050   7.950
 6125POPC   C4A37590   9.757  12.107   7.650
 6125POPC   C1B37591   9.738  11.777   8.550
 6125POPC   C2B37592   9.794  11.801   8.250
 6125POPC   C3B37593   9.736  11.821   7.950
 6125POPC   C4B37594   9.794  11.859   7.650
 6126POPC   NC337595   6.595  33.784   9.450
 6126POPC   PO437596   6.620  33.841   9.150
 6126POPC   GL137597   6.617  33.752   8.850
 6126POPC   GL237598   6.602  33.904   8.850
 6126POPC   C1A37599   6.658  33.756   8.550
 6126POPC   D2A37600   6.606  33.822   8.250
 6126POPC   C3A37601   6.636  33.791   7.950
 6126POPC   C4A37602   6.623  33.770   7.650
 6126POPC   C1B37603   6.482  34.015   8.550
 6126POPC   C2B37604   6.506  33.979   8.250
 6126POPC   C3B37605   6.536  34.035   7.950
 6126POPC   C4B37606   6.494  34.049   7.650
 6127POPC   NC337607   2.000  14.372   9.450
 6127POPC   PO437608   1.946  14.369   9.150
 6127POPC   GL137609   1.972  14.433   8.850
 6127POPC   GL237610   1.866  14.423   8.850
 6127POPC   C1A37611   1.979  14.354   8.550
 6127POPC   D2A37612   1.942  14.377   8.250
 6127POPC   C3A37613   1.998  14.427   7.950
 6127POPC   C4A37614   1.964  14.403   7.650
 6127POPC   C1B37615   1.789  14.479   8.550
 6127POPC   C2B37616   1.740  14.437   8.250
 6127POPC   C3B37617   1.764  14.483   7.950
 6127POPC   C4B37618   1.794  14.473   7.650
 6128POPC   NC337619  25.260  40.785   9.450
 6128POPC   PO437620  25.238  40.803   9.150
 6128POPC   GL137621  25.279  40.788   8.850
 6128POPC   GL237622  25.128  40.812   8.850
 6128POPC   C1A37623  25.218  40.781   8.550
 6128POPC   D2A37624  25.300  40.754   8.250
 6128POPC   C3A37625  25.285  40.772   7.950
 6128POPC   C4A37626  25.291  40.752   7.650
 6128POPC   C1B37627  24.989  40.891   8.550
 6128POPC   C2B37628  25.054  40.904   8.250
 6128POPC   C3B37629  25.025  40.886   7.950
 6128POPC   C4B37630  25.058  40.883   7.650
 6129POPC   NC337631  15.941  17.488   9.450
 6129POPC   PO437632  15.954  17.477   9.150
 6129POPC   GL137633  15.973  17.551   8.850
 6129POPC   GL237634  16.066  17.516   8.850
 6129POPC   C1A37635  15.959  17.463   8.550
 6129POPC   D2A37636  15.997  17.498   8.250
 6129POPC   C3A37637  15.992  17.540   7.950
 6129POPC   C4A37638  15.946  17.513   7.650
 6129POPC   C1B37639  16.224  17.468   8.550
 6129POPC   C2B37640  16.205  17.479   8.250
 6129POPC   C3B37641  16.219  17.509   7.950
 6129POPC   C4B37642  16.162  17.479   7.650
 6130POPC   NC337643   5.902  25.312   9.450
 6130POPC   PO437644   5.872  25.295   9.150
 6130POPC   GL137645   5.857  25.225   8.850
 6130POPC   GL237646   5.798  25.415   8.850
 6130POPC   C1A37647   5.910  25.216   8.550
 6130POPC   D2A37648   5.868  25.224   8.250
 6130POPC   C3A37649   5.831  25.219   7.950
 6130POPC   C4A37650   5.823  25.308   7.650
 6130POPC   C1B37651   5.768  25.433   8.550
 6130POPC   C2B37652   5.732  25.503   8.250
 6130POPC   C3B37653   5.752  25.469   7.950
 6130POPC   C4B37654   5.745  25.476   7.650
 6131POPC   NC337655  33.804   5.068   9.450
 6131POPC   PO437656  33.759   5.089   9.150
 6131POPC   GL137657  33.801   5.112   8.850
 6131POPC   GL237658  33.901   5.066   8.850
 6131POPC   C1A37659  33.822   5.080   8.550
 6131POPC   D2A37660  33.837   5.105   8.250
 6131POPC   C3A37661  33.820   5.054   7.950
 6131POPC   C4A37662  33.760   5.125   7.650
 6131POPC   C1B37663  33.995   4.944   8.550
 6131POPC   C2B37664  33.980   4.995   8.250
 6131POPC   C3B37665  34.056   4.949   7.950
 6131POPC   C4B37666  34.058   4.959   7.650
 6132POPC   NC337667  23.677  22.963   9.450
 6132POPC   PO437668  23.691  22.953   9.150
 6132POPC   GL137669  23.721  22.979   8.850
 6132POPC   GL237670  23.728  22.861   8.850
 6132POPC   C1A37671  23.755  22.963   8.550
 6132POPC   D2A37672  23.746  22.915   8.250
 6132POPC   C3A37673  23.733  22.895   7.950
 6132POPC   C4A37674  23.752  22.898   7.650
 6132POPC   C1B37675  23.769  22.671   8.550
 6132POPC   C2B37676  23.806  22.749   8.250
 6132POPC   C3B37677  23.819  22.697   7.950
 6132POPC   C4B37678  23.781  22.687   7.650
 6133POPC   NC337679  34.619  39.223   9.450
 6133POPC   PO437680  34.573  39.204   9.150
 6133POPC   GL137681  34.538  39.240   8.850
 6133POPC   GL237682  34.538  39.307   8.850
 6133POPC   C1A37683  34.563  39.207   8.550
 6133POPC   D2A37684  34.559  39.186   8.250
 6133POPC   C3A37685  34.574  39.220   7.950
 6133POPC   C4A37686  34.603  39.236   7.650
 6133POPC   C1B37687  34.602  39.459   8.550
 6133POPC   C2B37688  34.566  39.451   8.250
 6133POPC   C3B37689  34.573  39.530   7.950
 6133POPC   C4B37690  34.539  39.458   7.650
 6134POPC   NC337691  28.367  27.589   9.450
 6134POPC   PO437692  28.383  27.592   9.150
 6134POPC   GL137693  28.353  27.580   8.850
 6134POPC   GL237694  28.256  27.622   8.850
 6134POPC   C1A37695  28.365  27.611   8.550
 6134POPC   D2A37696  28.364  27.602   8.250
 6134POPC   C3A37697  28.365  27.573   7.950
 6134POPC   C4A37698  28.378  27.599   7.650
 6134POPC   C1B37699  28.134  27.779   8.550
 6134POPC   C2B37700  28.131  27.744   8.250
 6134POPC   C3B37701  28.197  27.777   7.950
 6134POPC   C4B37702  28.175  27.723   7.650
 6135POPC   NC337703  43.097  43.909   9.450
 6135POPC   PO437704  43.148  43.899   9.150
 6135POPC   GL137705  43.130  43.861   8.850
 6135POPC   GL237706  42.943  43.907   8.850
 6135POPC   C1A37707  43.066  43.882   8.550
 6135POPC   D2A37708  43.160  43.916   8.250
 6135POPC   C3A37709  43.118  43.882   7.950
 6135POPC   C4A37710  43.092  43.861   7.650
 6135POPC   C1B37711  42.864  43.872   8.550
 6135POPC   C2B37712  42.813  43.962   8.250
 6135POPC   C3B37713  42.856  43.948   7.950
 6135POPC   C4B37714  42.856  43.912   7.650
 6136POPC   NC337715  30.682  32.272   9.450
 6136POPC   PO437716  30.733  32.298   9.150
 6136POPC   GL137717  30.675  32.247   8.850
 6136POPC   GL237718  30.814  32.144   8.850
 6136POPC   C1A37719  30.673  32.291   8.550
 6136POPC   D2A37720  30.699  32.242   8.250
 6136POPC   C3A37721  30.687  32.272   7.950
 6136POPC   C4A37722  30.727  32.232   7.650
 6136POPC   C1B37723  30.970  32.167   8.550
 6136POPC   C2B37724  30.875  32.129   8.250
 6136POPC   C3B37725  30.930  32.114   7.950
 6136POPC   C4B37726  30.915  32.132   7.650
 6137POPC   NC337727  17.524  14.379   9.450
 6137POPC   PO437728  17.544  14.375   9.150
 6137POPC   GL137729  17.552  14.448   8.850
 6137POPC   GL237730  17.567  14.276   8.850
 6137POPC   C1A37731  17.523  14.388   8.550
 6137POPC   D2A37732  17.516  14.360   8.250
 6137POPC   C3A37733  17.478  14.441   7.950
 6137POPC   C4A37734  17.548  14.453   7.650
 6137POPC   C1B37735  17.611  14.148   8.550
 6137POPC   C2B37736  17.603  14.149   8.250
 6137POPC   C3B37737  17.608  14.187   7.950
 6137POPC   C4B37738  17.524  14.193   7.650
 6138POPC   NC337739  35.319   6.599   9.450
 6138POPC   PO437740  35.367   6.677   9.150
 6138POPC   GL137741  35.350   6.663   8.850
 6138POPC   GL237742  35.216   6.569   8.850
 6138POPC   C1A37743  35.318   6.690   8.550
 6138POPC   D2A37744  35.330   6.676   8.250
 6138POPC   C3A37745  35.346   6.626   7.950
 6138POPC   C4A37746  35.308   6.690   7.650
 6138POPC   C1B37747  35.142   6.605   8.550
 6138POPC   C2B37748  35.123   6.622   8.250
 6138POPC   C3B37749  35.136   6.548   7.950
 6138POPC   C4B37750  35.119   6.583   7.650
 6139POPC   NC337751   8.209  22.970   9.450
 6139POPC   PO437752   8.149  22.987   9.150
 6139POPC   GL137753   8.202  22.964   8.850
 6139POPC   GL237754   8.296  23.043   8.850
 6139POPC   C1A37755   8.237  22.963   8.550
 6139POPC   D2A37756   8.212  22.914   8.250
 6139POPC   C3A37757   8.234  22.975   7.950
 6139POPC   C4A37758   8.246  22.914   7.650
 6139POPC   C1B37759   8.387  23.135   8.550
 6139POPC   C2B37760   8.375  23.109   8.250
 6139POPC   C3B37761   8.317  23.154   7.950
 6139POPC   C4B37762   8.346  23.099   7.650
 6140POPC   NC337763  37.661  12.830   9.450
 6140POPC   PO437764  37.630  12.816   9.150
 6140POPC   GL137765  37.666  12.890   8.850
 6140POPC   GL237766  37.777  12.849   8.850
 6140POPC   C1A37767  37.652  12.875   8.550
 6140POPC   D2A37768  37.727  12.827   8.250
 6140POPC   C3A37769  37.676  12.840   7.950
 6140POPC   C4A37770  37.717  12.848   7.650
 6140POPC   C1B37771  37.928  12.793   8.550
 6140POPC   C2B37772  37.913  12.816   8.250
 6140POPC   C3B37773  37.938  12.787   7.950
 6140POPC   C4B37774  37.914  12.843   7.650
 6141POPC   NC337775  43.067  26.803   9.450
 6141POPC   PO437776  43.134  26.770   9.150
 6141POPC   GL137777  43.141  26.843   8.850
 6141POPC   GL237778  43.114  26.917   8.850
 6141POPC   C1A37779  43.113  26.837   8.550
 6141POPC   D2A37780  43.069  26.776   8.250
 6141POPC   C3A37781  43.139  26.799   7.950
 6141POPC   C4A37782  43.105  26.852   7.650
 6141POPC   C1B37783  43.050  27.113   8.550
 6141POPC   C2B37784  43.103  27.060   8.250
 6141POPC   C3B37785  43.068  27.095   7.950
 6141POPC   C4B37786  43.137  27.112   7.650
 6142POPC   NC337787  31.423  12.833   9.450
 6142POPC   PO437788  31.517  12.881   9.150
 6142POPC   GL137789  31.442  12.830   8.850
 6142POPC   GL237790  31.517  12.926   8.850
 6142POPC   C1A37791  31.444  12.828   8.550
 6142POPC   D2A37792  31.520  12.854   8.250
 6142POPC   C3A37793  31.423  12.819   7.950
 6142POPC   C4A37794  31.441  12.863   7.650
 6142POPC   C1B37795  31.470  13.073   8.550
 6142POPC   C2B37796  31.536  13.102   8.250
 6142POPC   C3B37797  31.458  13.136   7.950
 6142POPC   C4B37798  31.464  13.101   7.650
 6143POPC   NC337799  11.296  25.233   9.450
 6143POPC   PO437800  11.321  25.240   9.150
 6143POPC   GL137801  11.254  25.294   8.850
 6143POPC   GL237802  11.219  25.335   8.850
 6143POPC   C1A37803  11.331  25.224   8.550
 6143POPC   D2A37804  11.280  25.258   8.250
 6143POPC   C3A37805  11.309  25.299   7.950
 6143POPC   C4A37806  11.292  25.286   7.650
 6143POPC   C1B37807  11.253  25.548   8.550
 6143POPC   C2B37808  11.210  25.474   8.250
 6143POPC   C3B37809  11.199  25.491   7.950
 6143POPC   C4B37810  11.236  25.521   7.650
 6144POPC   NC337811  37.718  22.914   9.450
 6144POPC   PO437812  37.631  22.921   9.150
 6144POPC   GL137813  37.726  22.963   8.850
 6144POPC   GL237814  37.735  23.051   8.850
 6144POPC   C1A37815  37.662  22.984   8.550
 6144POPC   D2A37816  37.705  22.912   8.250
 6144POPC   C3A37817  37.659  22.977   7.950
 6144POPC   C4A37818  37.645  22.980   7.650
 6144POPC   C1B37819  37.734  23.189   8.550
 6144POPC   C2B37820  37.731  23.197   8.250
 6144POPC   C3B37821  37.769  23.140   7.950
 6144POPC   C4B37822  37.758  23.216   7.650
 6145POPC   NC337823  39.190   3.540   9.450
 6145POPC   PO437824  39.200   3.519   9.150
 6145POPC   GL137825  39.195   3.555   8.850
 6145POPC   GL237826  39.246   3.392   8.850
 6145POPC   C1A37827  39.243   3.526   8.550
 6145POPC   D2A37828  39.196   3.564   8.250
 6145POPC   C3A37829  39.227   3.563   7.950
 6145POPC   C4A37830  39.244   3.502   7.650
 6145POPC   C1B37831  39.284   3.244   8.550
 6145POPC   C2B37832  39.206   3.256   8.250
 6145POPC   C3B37833  39.277   3.340   7.950
 6145POPC   C4B37834  39.263   3.252   7.650
 6146POPC   NC337835  21.343  20.618   9.450
 6146POPC   PO437836  21.363  20.591   9.150
 6146POPC   GL137837  21.379  20.629   8.850
 6146POPC   GL237838  21.474  20.656   8.850
 6146POPC   C1A37839  21.366  20.591   8.550
 6146POPC   D2A37840  21.406  20.616   8.250
 6146POPC   C3A37841  21.344  20.632   7.950
 6146POPC   C4A37842  21.363  20.634   7.650
 6146POPC   C1B37843  21.604  20.776   8.550
 6146POPC   C2B37844  21.550  20.836   8.250
 6146POPC   C3B37845  21.543  20.792   7.950
 6146POPC   C4B37846  21.582  20.781   7.650
 6147POPC   NC337847  36.163  30.725   9.450
 6147POPC   PO437848  36.136  30.722   9.150
 6147POPC   GL137849  36.088  30.702   8.850
 6147POPC   GL237850  36.249  30.747   8.850
 6147POPC   C1A37851  36.158  30.704   8.550
 6147POPC   D2A37852  36.082  30.669   8.250
 6147POPC   C3A37853  36.117  30.671   7.950
 6147POPC   C4A37854  36.166  30.722   7.650
 6147POPC   C1B37855  36.391  30.732   8.550
 6147POPC   C2B37856  36.369  30.664   8.250
 6147POPC   C3B37857  36.370  30.678   7.950
 6147POPC   C4B37858  36.388  30.755   7.650
 6148POPC   NC337859  18.329  41.588   9.450
 6148POPC   PO437860  18.243  41.545   9.150
 6148POPC   GL137861  18.245  41.562   8.850
 6148POPC   GL237862  18.319  41.647   8.850
 6148POPC   C1A37863  18.277  41.540   8.550
 6148POPC   D2A37864  18.330  41.510   8.250
 6148POPC   C3A37865  18.287  41.593   7.950
 6148POPC   C4A37866  18.313  41.595   7.650
 6148POPC   C1B37867  18.331  41.777   8.550
 6148POPC   C2B37868  18.381  41.808   8.250
 6148POPC   C3B37869  18.325  41.785   7.950
 6148POPC   C4B37870  18.366  41.793   7.650
 6149POPC   NC337871  33.844  26.787   9.450
 6149POPC   PO437872  33.760  26.846   9.150
 6149POPC   GL137873  33.782  26.769   8.850
 6149POPC   GL237874  33.918  26.903   8.850
 6149POPC   C1A37875  33.834  26.860   8.550
 6149POPC   D2A37876  33.800  26.786   8.250
 6149POPC   C3A37877  33.820  26.776   7.950
 6149POPC   C4A37878  33.840  26.803   7.650
 6149POPC   C1B37879  33.999  26.946   8.550
 6149POPC   C2B37880  34.035  26.948   8.250
 6149POPC   C3B37881  34.005  26.910   7.950
 6149POPC   C4B37882  34.039  26.956   7.650
 6150POPC   NC337883   7.444  14.445   9.450
 6150POPC   PO437884   7.453  14.449   9.150
 6150POPC   GL137885   7.465  14.392   8.850
 6150POPC   GL237886   7.385  14.262   8.850
 6150POPC   C1A37887   7.380  14.421   8.550
 6150POPC   D2A37888   7.463  14.421   8.250
 6150POPC   C3A37889   7.448  14.361   7.950
 6150POPC   C4A37890   7.393  14.398   7.650
 6150POPC   C1B37891   7.315  14.197   8.550
 6150POPC   C2B37892   7.225  14.212   8.250
 6150POPC   C3B37893   7.298  14.253   7.950
 6150POPC   C4B37894   7.220  14.194   7.650
 6151POPC   NC337895  26.061  17.541   9.450
 6151POPC   PO437896  26.007  17.491   9.150
 6151POPC   GL137897  26.072  17.520   8.850
 6151POPC   GL237898  26.019  17.388   8.850
 6151POPC   C1A37899  25.998  17.459   8.550
 6151POPC   D2A37900  26.060  17.554   8.250
 6151POPC   C3A37901  26.036  17.542   7.950
 6151POPC   C4A37902  26.057  17.482   7.650
 6151POPC   C1B37903  26.099  17.279   8.550
 6151POPC   C2B37904  26.092  17.224   8.250
 6151POPC   C3B37905  26.125  17.284   7.950
 6151POPC   C4B37906  26.068  17.278   7.650
 6152POPC   NC337907  32.292  44.676   9.450
 6152POPC   PO437908  32.243  44.638   9.150
 6152POPC   GL137909  32.279  44.696   8.850
 6152POPC   GL237910  32.168  44.562   8.850
 6152POPC   C1A37911  32.214  44.697   8.550
 6152POPC   D2A37912  32.220  44.628   8.250
 6152POPC   C3A37913  32.270  44.628   7.950
 6152POPC   C4A37914  32.297  44.667   7.650
 6152POPC   C1B37915  32.134  44.440   8.550
 6152POPC   C2B37916  32.147  44.411   8.250
 6152POPC   C3B37917  32.170  44.421   7.950
 6152POPC   C4B37918  32.124  44.400   7.650
 6153POPC   NC337919  10.478  29.915   9.450
 6153POPC   PO437920  10.503  29.884   9.150
 6153POPC   GL137921  10.501  29.910   8.850
 6153POPC   GL237922  10.636  29.993   8.850
 6153POPC   C1A37923  10.524  29.888   8.550
 6153POPC   D2A37924  10.537  29.897   8.250
 6153POPC   C3A37925  10.570  29.914   7.950
 6153POPC   C4A37926  10.548  29.917   7.650
 6153POPC   C1B37927  10.708  30.108   8.550
 6153POPC   C2B37928  10.677  30.117   8.250
 6153POPC   C3B37929  10.653  30.154   7.950
 6153POPC   C4B37930  10.710  30.067   7.650
 6154POPC   NC337931   0.461  40.741   9.450
 6154POPC   PO437932   0.445  40.769   9.150
 6154POPC   GL137933   0.465  40.766   8.850
 6154POPC   GL237934   0.345  40.865   8.850
 6154POPC   C1A37935   0.418  40.756   8.550
 6154POPC   D2A37936   0.437  40.749   8.250
 6154POPC   C3A37937   0.419  40.826   7.950
 6154POPC   C4A37938   0.469  40.806   7.650
 6154POPC   C1B37939   0.215  40.970   8.550
 6154POPC   C2B37940   0.256  40.969   8.250
 6154POPC   C3B37941   0.262  40.956   7.950
 6154POPC   C4B37942   0.251  40.969   7.650
 6155POPC   NC337943  39.281  43.131   9.450
 6155POPC   PO437944  39.224  43.101   9.150
 6155POPC   GL137945  39.214  43.073   8.850
 6155POPC   GL237946  39.382  43.063   8.850
 6155POPC   C1A37947  39.183  43.123   8.550
 6155POPC   D2A37948  39.221  43.154   8.250
 6155POPC   C3A37949  39.239  43.126   7.950
 6155POPC   C4A37950  39.276  43.146   7.650
 6155POPC   C1B37951  39.448  43.036   8.550
 6155POPC   C2B37952  39.516  43.029   8.250
 6155POPC   C3B37953  39.510  43.014   7.950
 6155POPC   C4B37954  39.483  43.045   7.650
 6156POPC   NC337955   9.011  31.465   9.450
 6156POPC   PO437956   8.968  31.472   9.150
 6156POPC   GL137957   9.017  31.520   8.850
 6156POPC   GL237958   8.869  31.329   8.850
 6156POPC   C1A37959   8.937  31.494   8.550
 6156POPC   D2A37960   8.985  31.423   8.250
 6156POPC   C3A37961   8.958  31.449   7.950
 6156POPC   C4A37962   8.983  31.424   7.650
 6156POPC   C1B37963   8.819  31.319   8.550
 6156POPC   C2B37964   8.787  31.264   8.250
 6156POPC   C3B37965   8.829  31.319   7.950
 6156POPC   C4B37966   8.820  31.282   7.650
 6157POPC   NC337967   7.451  26.846   9.450
 6157POPC   PO437968   7.400  26.841   9.150
 6157POPC   GL137969   7.456  26.850   8.850
 6157POPC   GL237970   7.366  26.895   8.850
 6157POPC   C1A37971   7.378  26.784   8.550
 6157POPC   D2A37972   7.400  26.791   8.250
 6157POPC   C3A37973   7.461  26.784   7.950
 6157POPC   C4A37974   7.447  26.830   7.650
 6157POPC   C1B37975   7.260  27.050   8.550
 6157POPC   C2B37976   7.257  27.009   8.250
 6157POPC   C3B37977   7.265  26.985   7.950
 6157POPC   C4B37978   7.285  27.075   7.650
 6158POPC   NC337979   6.616  18.318   9.450
 6158POPC   PO437980   6.599  18.239   9.150
 6158POPC   GL137981   6.614  18.297   8.850
 6158POPC   GL237982   6.699  18.209   8.850
 6158POPC   C1A37983   6.687  18.327   8.550
 6158POPC   D2A37984   6.628  18.283   8.250
 6158POPC   C3A37985   6.643  18.331   7.950
 6158POPC   C4A37986   6.637  18.311   7.650
 6158POPC   C1B37987   6.695  18.078   8.550
 6158POPC   C2B37988   6.731  18.096   8.250
 6158POPC   C3B37989   6.771  18.078   7.950
 6158POPC   C4B37990   6.773  18.073   7.650
 6159POPC   NC337991  41.528  23.748   9.450
 6159POPC   PO437992  41.599  23.719   9.150
 6159POPC   GL137993  41.569  23.759   8.850
 6159POPC   GL237994  41.438  23.596   8.850
 6159POPC   C1A37995  41.568  23.700   8.550
 6159POPC   D2A37996  41.583  23.674   8.250
 6159POPC   C3A37997  41.561  23.685   7.950
 6159POPC   C4A37998  41.512  23.684   7.650
 6159POPC   C1B37999  41.405  23.540   8.550
 6159POPC   C2B38000  41.363  23.561   8.250
 6159POPC   C3B38001  41.375  23.584   7.950
 6159POPC   C4B38002  41.391  23.525   7.650
 6160POPC   NC338003  19.884  32.229   9.450
 6160POPC   PO438004  19.815  32.241   9.150
 6160POPC   GL138005  19.880  32.272   8.850
 6160POPC   GL238006  19.794  32.324   8.850
 6160POPC   C1A38007  19.788  32.216   8.550
 6160POPC   D2A38008  19.822  32.267   8.250
 6160POPC   C3A38009  19.810  32.240   7.950
 6160POPC   C4A38010  19.856  32.226   7.650
 6160POPC   C1B38011  19.710  32.419   8.550
 6160POPC   C2B38012  19.697  32.404   8.250
 6160POPC   C3B38013  19.737  32.495   7.950
 6160POPC   C4B38014  19.715  32.465   7.650
 6161POPC   NC338015  28.410  29.133   9.450
 6161POPC   PO438016  28.416  29.136   9.150
 6161POPC   GL138017  28.389  29.160   8.850
 6161POPC   GL238018  28.432  29.267   8.850
 6161POPC   C1A38019  28.410  29.136   8.550
 6161POPC   D2A38020  28.404  29.142   8.250
 6161POPC   C3A38021  28.407  29.168   7.950
 6161POPC   C4A38022  28.337  29.168   7.650
 6161POPC   C1B38023  28.369  29.425   8.550
 6161POPC   C2B38024  28.370  29.389   8.250
 6161POPC   C3B38025  28.372  29.381   7.950
 6161POPC   C4B38026  28.430  29.418   7.650
 6162POPC   NC338027  42.305  15.157   9.450
 6162POPC   PO438028  42.314  15.218   9.150
 6162POPC   GL138029  42.339  15.218   8.850
 6162POPC   GL238030  42.276  15.270   8.850
 6162POPC   C1A38031  42.294  15.206   8.550
 6162POPC   D2A38032  42.297  15.163   8.250
 6162POPC   C3A38033  42.341  15.220   7.950
 6162POPC   C4A38034  42.349  15.134   7.650
 6162POPC   C1B38035  42.169  15.372   8.550
 6162POPC   C2B38036  42.118  15.357   8.250
 6162POPC   C3B38037  42.111  15.370   7.950
 6162POPC   C4B38038  42.103  15.358   7.650
 6163POPC   NC338039   5.132  12.043   9.450
 6163POPC   PO438040   5.044  12.030   9.150
 6163POPC   GL138041   5.100  12.046   8.850
 6163POPC   GL238042   5.029  11.925   8.850
 6163POPC   C1A38043   5.103  12.040   8.550
 6163POPC   D2A38044   5.072  12.080   8.250
 6163POPC   C3A38045   5.101  12.082   7.950
 6163POPC   C4A38046   5.072  12.072   7.650
 6163POPC   C1B38047   4.988  11.835   8.550
 6163POPC   C2B38048   4.990  11.817   8.250
 6163POPC   C3B38049   4.970  11.852   7.950
 6163POPC   C4B38050   4.933  11.896   7.650
 6164POPC   NC338051  34.624  16.756   9.450
 6164POPC   PO438052  34.563  16.736   9.150
 6164POPC   GL138053  34.591  16.750   8.850
 6164POPC   GL238054  34.676  16.813   8.850
 6164POPC   C1A38055  34.528  16.700   8.550
 6164POPC   D2A38056  34.602  16.761   8.250
 6164POPC   C3A38057  34.528  16.753   7.950
 6164POPC   C4A38058  34.609  16.700   7.650
 6164POPC   C1B38059  34.716  16.950   8.550
 6164POPC   C2B38060  34.763  16.948   8.250
 6164POPC   C3B38061  34.724  16.942   7.950
 6164POPC   C4B38062  34.695  16.945   7.650
 6165POPC   NC338063  10.495  12.892   9.450
 6165POPC   PO438064  10.526  12.806   9.150
 6165POPC   GL138065  10.569  12.824   8.850
 6165POPC   GL238066  10.532  12.776   8.850
 6165POPC   C1A38067  10.556  12.882   8.550
 6165POPC   D2A38068  10.493  12.808   8.250
 6165POPC   C3A38069  10.569  12.813   7.950
 6165POPC   C4A38070  10.474  12.824   7.650
 6165POPC   C1B38071  10.413  12.574   8.550
 6165POPC   C2B38072  10.441  12.597   8.250
 6165POPC   C3B38073  10.461  12.611   7.950
 6165POPC   C4B38074  10.505  12.609   7.650
 6166POPC   NC338075   7.393  18.262   9.450
 6166POPC   PO438076   7.424  18.323   9.150
 6166POPC   GL138077   7.464  18.299   8.850
 6166POPC   GL238078   7.548  18.349   8.850
 6166POPC   C1A38079   7.457  18.314   8.550
 6166POPC   D2A38080   7.433  18.253   8.250
 6166POPC   C3A38081   7.442  18.299   7.950
 6166POPC   C4A38082   7.406  18.278   7.650
 6166POPC   C1B38083   7.596  18.362   8.550
 6166POPC   C2B38084   7.637  18.454   8.250
 6166POPC   C3B38085   7.654  18.427   7.950
 6166POPC   C4B38086   7.605  18.402   7.650
 6167POPC   NC338087   6.611  31.507   9.450
 6167POPC   PO438088   6.691  31.434   9.150
 6167POPC   GL138089   6.689  31.451   8.850
 6167POPC   GL238090   6.529  31.448   8.850
 6167POPC   C1A38091   6.635  31.437   8.550
 6167POPC   D2A38092   6.683  31.423   8.250
 6167POPC   C3A38093   6.667  31.514   7.950
 6167POPC   C4A38094   6.620  31.484   7.650
 6167POPC   C1B38095   6.403  31.469   8.550
 6167POPC   C2B38096   6.443  31.462   8.250
 6167POPC   C3B38097   6.368  31.502   7.950
 6167POPC   C4B38098   6.430  31.496   7.650
 6168POPC   NC338099  41.594  28.346   9.450
 6168POPC   PO438100  41.539  28.408   9.150
 6168POPC   GL138101  41.569  28.410   8.850
 6168POPC   GL238102  41.439  28.231   8.850
 6168POPC   C1A38103  41.584  28.341   8.550
 6168POPC   D2A38104  41.527  28.331   8.250
 6168POPC   C3A38105  41.552  28.332   7.950
 6168POPC   C4A38106  41.609  28.396   7.650
 6168POPC   C1B38107  41.451  28.171   8.550
 6168POPC   C2B38108  41.379  28.217   8.250
 6168POPC   C3B38109  41.432  28.141   7.950
 6168POPC   C4B38110  41.400  28.165   7.650
 6169POPC   NC338111   1.965  19.059   9.450
 6169POPC   PO438112   1.950  19.050   9.150
 6169POPC   GL138113   1.951  19.064   8.850
 6169POPC   GL238114   2.092  19.124   8.850
 6169POPC   C1A38115   1.980  19.072   8.550
 6169POPC   D2A38116   1.957  19.070   8.250
 6169POPC   C3A38117   1.942  19.074   7.950
 6169POPC   C4A38118   1.969  19.090   7.650
 6169POPC   C1B38119   2.194  19.153   8.550
 6169POPC   C2B38120   2.187  19.209   8.250
 6169POPC   C3B38121   2.159  19.225   7.950
 6169POPC   C4B38122   2.205  19.175   7.650
 6170POPC   NC338123  42.328   1.263   9.450
 6170POPC   PO438124  42.333   1.194   9.150
 6170POPC   GL138125  42.361   1.172   8.850
 6170POPC   GL238126  42.255   1.234   8.850
 6170POPC   C1A38127  42.372   1.255   8.550
 6170POPC   D2A38128  42.298   1.170   8.250
 6170POPC   C3A38129  42.362   1.191   7.950
 6170POPC   C4A38130  42.286   1.181   7.650
 6170POPC   C1B38131  42.112   1.256   8.550
 6170POPC   C2B38132  42.132   1.210   8.250
 6170POPC   C3B38133  42.055   1.187   7.950
 6170POPC   C4B38134  42.102   1.246   7.650
 6171POPC   NC338135  12.084   0.436   9.450
 6171POPC   PO438136  12.110   0.459   9.150
 6171POPC   GL138137  12.068   0.391   8.850
 6171POPC   GL238138  11.981   0.457   8.850
 6171POPC   C1A38139  12.094   0.404   8.550
 6171POPC   D2A38140  12.046   0.488   8.250
 6171POPC   C3A38141  12.051   0.413   7.950
 6171POPC   C4A38142  12.066   0.482   7.650
 6171POPC   C1B38143  11.794   0.550   8.550
 6171POPC   C2B38144  11.828   0.555   8.250
 6171POPC   C3B38145  11.864   0.536   7.950
 6171POPC   C4B38146  11.850   0.512   7.650
 6172POPC   NC338147  30.673  41.572   9.450
 6172POPC   PO438148  30.691  41.592   9.150
 6172POPC   GL138149  30.679  41.577   8.850
 6172POPC   GL238150  30.842  41.565   8.850
 6172POPC   C1A38151  30.669  41.523   8.550
 6172POPC   D2A38152  30.656  41.520   8.250
 6172POPC   C3A38153  30.744  41.571   7.950
 6172POPC   C4A38154  30.688  41.590   7.650
 6172POPC   C1B38155  30.949  41.476   8.550
 6172POPC   C2B38156  30.949  41.500   8.250
 6172POPC   C3B38157  30.912  41.528   7.950
 6172POPC   C4B38158  30.922  41.562   7.650
 6173POPC   NC338159  15.177  44.640   9.450
 6173POPC   PO438160  15.223  44.683   9.150
 6173POPC   GL138161  15.222  44.680   8.850
 6173POPC   GL238162  15.291  44.733   8.850
 6173POPC   C1A38163  15.214  44.613   8.550
 6173POPC   D2A38164  15.134  44.654   8.250
 6173POPC   C3A38165  15.156  44.672   7.950
 6173POPC   C4A38166  15.208  44.614   7.650
 6173POPC   C1B38167  15.400  44.690   8.550
 6173POPC   C2B38168  15.387  44.700   8.250
 6173POPC   C3B38169  15.408  44.755   7.950
 6173POPC   C4B38170  15.458  44.752   7.650
 6174POPC   NC338171  43.863  30.707   9.450
 6174POPC   PO438172  43.922  30.733   9.150
 6174POPC   GL138173  43.839  30.652   8.850
 6174POPC   GL238174  44.022  30.597   8.850
 6174POPC   C1A38175  43.901  30.692   8.550
 6174POPC   D2A38176  43.863  30.717   8.250
 6174POPC   C3A38177  43.878  30.678   7.950
 6174POPC   C4A38178  43.840  30.651   7.650
 6174POPC   C1B38179  44.140  30.601   8.550
 6174POPC   C2B38180  44.097  30.566   8.250
 6174POPC   C3B38181  44.141  30.584   7.950
 6174POPC   C4B38182  44.106  30.570   7.650
 6175POPC   NC338183  36.916   5.891   9.450
 6175POPC   PO438184  36.946   5.861   9.150
 6175POPC   GL138185  36.879   5.840   8.850
 6175POPC   GL238186  36.982   5.741   8.850
 6175POPC   C1A38187  36.921   5.910   8.550
 6175POPC   D2A38188  36.932   5.847   8.250
 6175POPC   C3A38189  36.941   5.885   7.950
 6175POPC   C4A38190  36.949   5.866   7.650
 6175POPC   C1B38191  37.036   5.643   8.550
 6175POPC   C2B38192  36.950   5.647   8.250
 6175POPC   C3B38193  37.016   5.617   7.950
 6175POPC   C4B38194  37.034   5.662   7.650
 6176POPC   NC338195  34.558  33.826   9.450
 6176POPC   PO438196  34.620  33.793   9.150
 6176POPC   GL138197  34.620  33.840   8.850
 6176POPC   GL238198  34.629  33.748   8.850
 6176POPC   C1A38199  34.568  33.781   8.550
 6176POPC   D2A38200  34.597  33.838   8.250
 6176POPC   C3A38201  34.534  33.837   7.950
 6176POPC   C4A38202  34.597  33.814   7.650
 6176POPC   C1B38203  34.712  33.610   8.550
 6176POPC   C2B38204  34.745  33.630   8.250
 6176POPC   C3B38205  34.743  33.586   7.950
 6176POPC   C4B38206  34.757  33.599   7.650
 6177POPC   NC338207  37.723  23.699   9.450
 6177POPC   PO438208  37.675  23.731   9.150
 6177POPC   GL138209  37.728  23.738   8.850
 6177POPC   GL238210  37.705  23.634   8.850
 6177POPC   C1A38211  37.685  23.668   8.550
 6177POPC   D2A38212  37.685  23.739   8.250
 6177POPC   C3A38213  37.678  23.678   7.950
 6177POPC   C4A38214  37.727  23.665   7.650
 6177POPC   C1B38215  37.794  23.440   8.550
 6177POPC   C2B38216  37.839  23.497   8.250
 6177POPC   C3B38217  37.761  23.472   7.950
 6177POPC   C4B38218  37.787  23.478   7.650
 6178POPC   NC338219  25.219  36.105   9.450
 6178POPC   PO438220  25.268  36.136   9.150
 6178POPC   GL138221  25.272  36.167   8.850
 6178POPC   GL238222  25.291  36.255   8.850
 6178POPC   C1A38223  25.284  36.138   8.550
 6178POPC   D2A38224  25.254  36.145   8.250
 6178POPC   C3A38225  25.247  36.133   7.950
 6178POPC   C4A38226  25.312  36.128   7.650
 6178POPC   C1B38227  25.239  36.397   8.550
 6178POPC   C2B38228  25.284  36.380   8.250
 6178POPC   C3B38229  25.228  36.333   7.950
 6178POPC   C4B38230  25.305  36.353   7.650
 6179POPC   NC338231  24.443  40.806   9.450
 6179POPC   PO438232  24.509  40.750   9.150
 6179POPC   GL138233  24.462  40.744   8.850
 6179POPC   GL238234  24.632  40.722   8.850
 6179POPC   C1A38235  24.478  40.795   8.550
 6179POPC   D2A38236  24.500  40.770   8.250
 6179POPC   C3A38237  24.482  40.772   7.950
 6179POPC   C4A38238  24.502  40.751   7.650
 6179POPC   C1B38239  24.732  40.761   8.550
 6179POPC   C2B38240  24.743  40.764   8.250
 6179POPC   C3B38241  24.736  40.724   7.950
 6179POPC   C4B38242  24.739  40.688   7.650
 6180POPC   NC338243   7.465  28.407   9.450
 6180POPC   PO438244   7.418  28.411   9.150
 6180POPC   GL138245   7.457  28.404   8.850
 6180POPC   GL238246   7.572  28.328   8.850
 6180POPC   C1A38247   7.401  28.332   8.550
 6180POPC   D2A38248   7.468  28.353   8.250
 6180POPC   C3A38249   7.375  28.418   7.950
 6180POPC   C4A38250   7.462  28.397   7.650
 6180POPC   C1B38251   7.674  28.206   8.550
 6180POPC   C2B38252   7.657  28.235   8.250
 6180POPC   C3B38253   7.608  28.226   7.950
 6180POPC   C4B38254   7.629  28.213   7.650
 6181POPC   NC338255   0.450  19.839   9.450
 6181POPC   PO438256   0.410  19.848   9.150
 6181POPC   GL138257   0.458  19.785   8.850
 6181POPC   GL238258   0.509  19.774   8.850
 6181POPC   C1A38259   0.393  19.844   8.550
 6181POPC   D2A38260   0.397  19.833   8.250
 6181POPC   C3A38261   0.400  19.817   7.950
 6181POPC   C4A38262   0.424  19.811   7.650
 6181POPC   C1B38263   0.627  19.673   8.550
 6181POPC   C2B38264   0.593  19.639   8.250
 6181POPC   C3B38265   0.603  19.629   7.950
 6181POPC   C4B38266   0.617  19.651   7.650
 6182POPC   NC338267  23.721  34.610   9.450
 6182POPC   PO438268  23.721  34.617   9.150
 6182POPC   GL138269  23.681  34.598   8.850
 6182POPC   GL238270  23.619  34.507   8.850
 6182POPC   C1A38271  23.684  34.617   8.550
 6182POPC   D2A38272  23.708  34.574   8.250
 6182POPC   C3A38273  23.688  34.593   7.950
 6182POPC   C4A38274  23.726  34.592   7.650
 6182POPC   C1B38275  23.602  34.401   8.550
 6182POPC   C2B38276  23.567  34.382   8.250
 6182POPC   C3B38277  23.628  34.351   7.950
 6182POPC   C4B38278  23.545  34.328   7.650
 6183POPC   NC338279  20.655  36.913   9.450
 6183POPC   PO438280  20.638  36.860   9.150
 6183POPC   GL138281  20.603  36.899   8.850
 6183POPC   GL238282  20.476  36.791   8.850
 6183POPC   C1A38283  20.623  36.854   8.550
 6183POPC   D2A38284  20.613  36.920   8.250
 6183POPC   C3A38285  20.607  36.905   7.950
 6183POPC   C4A38286  20.565  36.912   7.650
 6183POPC   C1B38287  20.415  36.781   8.550
 6183POPC   C2B38288  20.389  36.786   8.250
 6183POPC   C3B38289  20.426  36.788   7.950
 6183POPC   C4B38290  20.407  36.763   7.650
 6184POPC   NC338291  12.062  44.612   9.450
 6184POPC   PO438292  12.077  44.619   9.150
 6184POPC   GL138293  12.073  44.662   8.850
 6184POPC   GL238294  12.083  44.582   8.850
 6184POPC   C1A38295  12.125  44.665   8.550
 6184POPC   D2A38296  12.110  44.707   8.250
 6184POPC   C3A38297  12.071  44.674   7.950
 6184POPC   C4A38298  12.065  44.680   7.650
 6184POPC   C1B38299  12.097  44.463   8.550
 6184POPC   C2B38300  12.096  44.383   8.250
 6184POPC   C3B38301  12.119  44.418   7.950
 6184POPC   C4B38302  12.110  44.445   7.650
 6185POPC   NC338303  18.314  36.920   9.450
 6185POPC   PO438304  18.287  36.905   9.150
 6185POPC   GL138305  18.316  36.882   8.850
 6185POPC   GL238306  18.334  36.990   8.850
 6185POPC   C1A38307  18.289  36.895   8.550
 6185POPC   D2A38308  18.249  36.907   8.250
 6185POPC   C3A38309  18.242  36.932   7.950
 6185POPC   C4A38310  18.257  36.868   7.650
 6185POPC   C1B38311  18.345  37.168   8.550
 6185POPC   C2B38312  18.405  37.139   8.250
 6185POPC   C3B38313  18.354  37.147   7.950
 6185POPC   C4B38314  18.323  37.174   7.650
 6186POPC   NC338315  16.702  20.598   9.450
 6186POPC   PO438316  16.779  20.643   9.150
 6186POPC   GL138317  16.689  20.631   8.850
 6186POPC   GL238318  16.702  20.754   8.850
 6186POPC   C1A38319  16.700  20.615   8.550
 6186POPC   D2A38320  16.716  20.608   8.250
 6186POPC   C3A38321  16.709  20.655   7.950
 6186POPC   C4A38322  16.779  20.590   7.650
 6186POPC   C1B38323  16.679  20.817   8.550
 6186POPC   C2B38324  16.709  20.901   8.250
 6186POPC   C3B38325  16.747  20.880   7.950
 6186POPC   C4B38326  16.729  20.851   7.650
 6187POPC   NC338327   8.943  28.368   9.450
 6187POPC   PO438328   9.008  28.367   9.150
 6187POPC   GL138329   8.992  28.416   8.850
 6187POPC   GL238330   8.911  28.453   8.850
 6187POPC   C1A38331   8.930  28.404   8.550
 6187POPC   D2A38332   8.960  28.395   8.250
 6187POPC   C3A38333   8.943  28.349   7.950
 6187POPC   C4A38334   8.942  28.347   7.650
 6187POPC   C1B38335   8.895  28.562   8.550
 6187POPC   C2B38336   8.926  28.610   8.250
 6187POPC   C3B38337   8.895  28.650   7.950
 6187POPC   C4B38338   8.936  28.630   7.650
 6188POPC   NC338339   2.795  33.830   9.450
 6188POPC   PO438340   2.810  33.848   9.150
 6188POPC   GL138341   2.760  33.795   8.850
 6188POPC   GL238342   2.635  33.765   8.850
 6188POPC   C1A38343   2.752  33.794   8.550
 6188POPC   D2A38344   2.759  33.846   8.250
 6188POPC   C3A38345   2.777  33.845   7.950
 6188POPC   C4A38346   2.766  33.805   7.650
 6188POPC   C1B38347   2.484  33.738   8.550
 6188POPC   C2B38348   2.493  33.775   8.250
 6188POPC   C3B38349   2.537  33.713   7.950
 6188POPC   C4B38350   2.496  33.700   7.650
 6189POPC   NC338351   1.966  34.546   9.450
 6189POPC   PO438352   1.996  34.546   9.150
 6189POPC   GL138353   1.987  34.548   8.850
 6189POPC   GL238354   2.117  34.654   8.850
 6189POPC   C1A38355   1.942  34.557   8.550
 6189POPC   D2A38356   1.997  34.614   8.250
 6189POPC   C3A38357   1.991  34.625   7.950
 6189POPC   C4A38358   2.028  34.610   7.650
 6189POPC   C1B38359   2.262  34.662   8.550
 6189POPC   C2B38360   2.266  34.700   8.250
 6189POPC   C3B38361   2.214  34.633   7.950
 6189POPC   C4B38362   2.258  34.716   7.650
 6190POPC   NC338363  27.605  29.888   9.450
 6190POPC   PO438364  27.619  29.885   9.150
 6190POPC   GL138365  27.582  29.902   8.850
 6190POPC   GL238366  27.709  29.980   8.850
 6190POPC   C1A38367  27.638  29.873   8.550
 6190POPC   D2A38368  27.574  29.891   8.250
 6190POPC   C3A38369  27.577  29.902   7.950
 6190POPC   C4A38370  27.612  29.876   7.650
 6190POPC   C1B38371  27.734  30.160   8.550
 6190POPC   C2B38372  27.767  30.131   8.250
 6190POPC   C3B38373  27.741  30.127   7.950
 6190POPC   C4B38374  27.709  30.164   7.650
 6191POPC   NC338375  10.572  22.155   9.450
 6191POPC   PO438376  10.494  22.191   9.150
 6191POPC   GL138377  10.481  22.161   8.850
 6191POPC   GL238378  10.496  22.083   8.850
 6191POPC   C1A38379  10.502  22.157   8.550
 6191POPC   D2A38380  10.494  22.136   8.250
 6191POPC   C3A38381  10.538  22.138   7.950
 6191POPC   C4A38382  10.493  22.153   7.650
 6191POPC   C1B38383  10.404  21.934   8.550
 6191POPC   C2B38384  10.455  21.910   8.250
 6191POPC   C3B38385  10.397  21.894   7.950
 6191POPC   C4B38386  10.455  21.934   7.650
 6192POPC   NC338387  19.854  33.791   9.450
 6192POPC   PO438388  19.856  33.782   9.150
 6192POPC   GL138389  19.815  33.788   8.850
 6192POPC   GL238390  19.735  33.920   8.850
 6192POPC   C1A38391  19.789  33.849   8.550
 6192POPC   D2A38392  19.802  33.799   8.250
 6192POPC   C3A38393  19.835  33.805   7.950
 6192POPC   C4A38394  19.853  33.827   7.650
 6192POPC   C1B38395  19.762  34.055   8.550
 6192POPC   C2B38396  19.739  33.972   8.250
 6192POPC   C3B38397  19.689  34.048   7.950
 6192POPC   C4B38398  19.748  34.017   7.650
 6193POPC   NC338399  27.625  15.178   9.450
 6193POPC   PO438400  27.595  15.135   9.150
 6193POPC   GL138401  27.620  15.202   8.850
 6193POPC   GL238402  27.662  15.230   8.850
 6193POPC   C1A38403  27.607  15.158   8.550
 6193POPC   D2A38404  27.562  15.131   8.250
 6193POPC   C3A38405  27.592  15.153   7.950
 6193POPC   C4A38406  27.615  15.205   7.650
 6193POPC   C1B38407  27.790  15.405   8.550
 6193POPC   C2B38408  27.779  15.313   8.250
 6193POPC   C3B38409  27.802  15.311   7.950
 6193POPC   C4B38410  27.765  15.364   7.650
 6194POPC   NC338411  24.497  11.289   9.450
 6194POPC   PO438412  24.463  11.282   9.150
 6194POPC   GL138413  24.506  11.307   8.850
 6194POPC   GL238414  24.442  11.197   8.850
 6194POPC   C1A38415  24.512  11.261   8.550
 6194POPC   D2A38416  24.463  11.272   8.250
 6194POPC   C3A38417  24.504  11.305   7.950
 6194POPC   C4A38418  24.523  11.250   7.650
 6194POPC   C1B38419  24.458  11.083   8.550
 6194POPC   C2B38420  24.507  11.067   8.250
 6194POPC   C3B38421  24.468  11.094   7.950
 6194POPC   C4B38422  24.442  11.049   7.650
 6195POPC   NC338423   7.409  38.468   9.450
 6195POPC   PO438424   7.469  38.412   9.150
 6195POPC   GL138425   7.373  38.422   8.850
 6195POPC   GL238426   7.475  38.313   8.850
 6195POPC   C1A38427   7.411  38.497   8.550
 6195POPC   D2A38428   7.432  38.455   8.250
 6195POPC   C3A38429   7.435  38.442   7.950
 6195POPC   C4A38430   7.404  38.441   7.650
 6195POPC   C1B38431   7.481  38.202   8.550
 6195POPC   C2B38432   7.488  38.225   8.250
 6195POPC   C3B38433   7.458  38.183   7.950
 6195POPC   C4B38434   7.450  38.177   7.650
 6196POPC   NC338435  10.528  32.247   9.450
 6196POPC   PO438436  10.559  32.289   9.150
 6196POPC   GL138437  10.513  32.223   8.850
 6196POPC   GL238438  10.403  32.326   8.850
 6196POPC   C1A38439  10.484  32.247   8.550
 6196POPC   D2A38440  10.538  32.207   8.250
 6196POPC   C3A38441  10.568  32.247   7.950
 6196POPC   C4A38442  10.570  32.232   7.650
 6196POPC   C1B38443  10.327  32.447   8.550
 6196POPC   C2B38444  10.350  32.408   8.250
 6196POPC   C3B38445  10.345  32.384   7.950
 6196POPC   C4B38446  10.286  32.430   7.650
 6197POPC   NC338447  15.141  43.841   9.450
 6197POPC   PO438448  15.220  43.871   9.150
 6197POPC   GL138449  15.191  43.898   8.850
 6197POPC   GL238450  15.284  43.979   8.850
 6197POPC   C1A38451  15.166  43.908   8.550
 6197POPC   D2A38452  15.133  43.891   8.250
 6197POPC   C3A38453  15.180  43.905   7.950
 6197POPC   C4A38454  15.189  43.914   7.650
 6197POPC   C1B38455  15.402  44.044   8.550
 6197POPC   C2B38456  15.380  44.001   8.250
 6197POPC   C3B38457  15.354  43.968   7.950
 6197POPC   C4B38458  15.355  44.013   7.650
 6198POPC   NC338459   5.127  28.367   9.450
 6198POPC   PO438460   5.059  28.337   9.150
 6198POPC   GL138461   5.077  28.408   8.850
 6198POPC   GL238462   5.151  28.205   8.850
 6198POPC   C1A38463   5.055  28.378   8.550
 6198POPC   D2A38464   5.099  28.362   8.250
 6198POPC   C3A38465   5.096  28.369   7.950
 6198POPC   C4A38466   5.123  28.411   7.650
 6198POPC   C1B38467   5.182  28.089   8.550
 6198POPC   C2B38468   5.210  28.089   8.250
 6198POPC   C3B38469   5.217  28.155   7.950
 6198POPC   C4B38470   5.163  28.119   7.650
 6199POPC   NC338471  12.834  21.376   9.450
 6199POPC   PO438472  12.841  21.422   9.150
 6199POPC   GL138473  12.894  21.400   8.850
 6199POPC   GL238474  13.002  21.358   8.850
 6199POPC   C1A38475  12.840  21.341   8.550
 6199POPC   D2A38476  12.802  21.338   8.250
 6199POPC   C3A38477  12.825  21.393   7.950
 6199POPC   C4A38478  12.819  21.383   7.650
 6199POPC   C1B38479  13.050  21.301   8.550
 6199POPC   C2B38480  13.068  21.260   8.250
 6199POPC   C3B38481  13.128  21.285   7.950
 6199POPC   C4B38482  13.113  21.305   7.650
 6200POPC   NC338483  22.177  23.739   9.450
 6200POPC   PO438484  22.135  23.717   9.150
 6200POPC   GL138485  22.210  23.712   8.850
 6200POPC   GL238486  22.077  23.672   8.850
 6200POPC   C1A38487  22.115  23.687   8.550
 6200POPC   D2A38488  22.114  23.721   8.250
 6200POPC   C3A38489  22.179  23.740   7.950
 6200POPC   C4A38490  22.176  23.719   7.650
 6200POPC   C1B38491  21.907  23.741   8.550
 6200POPC   C2B38492  21.883  23.714   8.250
 6200POPC   C3B38493  21.867  23.758   7.950
 6200POPC   C4B38494  21.868  23.742   7.650
 6201POPC   NC338495  23.682  40.036   9.450
 6201POPC   PO438496  23.750  39.960   9.150
 6201POPC   GL138497  23.673  40.019   8.850
 6201POPC   GL238498  23.877  39.985   8.850
 6201POPC   C1A38499  23.721  40.041   8.550
 6201POPC   D2A38500  23.704  39.984   8.250
 6201POPC   C3A38501  23.740  40.007   7.950
 6201POPC   C4A38502  23.742  39.999   7.650
 6201POPC   C1B38503  23.943  39.947   8.550
 6201POPC   C2B38504  23.957  39.960   8.250
 6201POPC   C3B38505  23.998  39.958   7.950
 6201POPC   C4B38506  23.982  39.939   7.650
 6202POPC   NC338507   1.247  43.160   9.450
 6202POPC   PO438508   1.211  43.095   9.150
 6202POPC   GL138509   1.168  43.145   8.850
 6202POPC   GL238510   1.096  43.127   8.850
 6202POPC   C1A38511   1.214  43.077   8.550
 6202POPC   D2A38512   1.188  43.086   8.250
 6202POPC   C3A38513   1.194  43.061   7.950
 6202POPC   C4A38514   1.185  43.076   7.650
 6202POPC   C1B38515   0.946  43.188   8.550
 6202POPC   C2B38516   0.945  43.162   8.250
 6202POPC   C3B38517   0.993  43.153   7.950
 6202POPC   C4B38518   0.940  43.197   7.650
 6203POPC   NC338519   8.160  31.490   9.450
 6203POPC   PO438520   8.171  31.509   9.150
 6203POPC   GL138521   8.235  31.445   8.850
 6203POPC   GL238522   8.162  31.339   8.850
 6203POPC   C1A38523   8.152  31.433   8.550
 6203POPC   D2A38524   8.199  31.427   8.250
 6203POPC   C3A38525   8.232  31.447   7.950
 6203POPC   C4A38526   8.160  31.520   7.650
 6203POPC   C1B38527   8.094  31.188   8.550
 6203POPC   C2B38528   8.107  31.270   8.250
 6203POPC   C3B38529   8.111  31.202   7.950
 6203POPC   C4B38530   8.072  31.261   7.650
 6204POPC   NC338531  39.188  41.535   9.450
 6204POPC   PO438532  39.277  41.519   9.150
 6204POPC   GL138533  39.190  41.553   8.850
 6204POPC   GL238534  39.307  41.631   8.850
 6204POPC   C1A38535  39.248  41.565   8.550
 6204POPC   D2A38536  39.190  41.551   8.250
 6204POPC   C3A38537  39.203  41.528   7.950
 6204POPC   C4A38538  39.208  41.522   7.650
 6204POPC   C1B38539  39.483  41.638   8.550
 6204POPC   C2B38540  39.475  41.654   8.250
 6204POPC   C3B38541  39.456  41.634   7.950
 6204POPC   C4B38542  39.445  41.698   7.650
 6205POPC   NC338543  22.157  24.539   9.450
 6205POPC   PO438544  22.135  24.462   9.150
 6205POPC   GL138545  22.117  24.455   8.850
 6205POPC   GL238546  22.059  24.434   8.850
 6205POPC   C1A38547  22.163  24.447   8.550
 6205POPC   D2A38548  22.190  24.519   8.250
 6205POPC   C3A38549  22.207  24.523   7.950
 6205POPC   C4A38550  22.166  24.450   7.650
 6205POPC   C1B38551  21.974  24.281   8.550
 6205POPC   C2B38552  22.008  24.326   8.250
 6205POPC   C3B38553  22.012  24.275   7.950
 6205POPC   C4B38554  21.960  24.271   7.650
 6206POPC   NC338555  26.826  13.638   9.450
 6206POPC   PO438556  26.831  13.608   9.150
 6206POPC   GL138557  26.780  13.655   8.850
 6206POPC   GL238558  26.885  13.676   8.850
 6206POPC   C1A38559  26.840  13.647   8.550
 6206POPC   D2A38560  26.857  13.597   8.250
 6206POPC   C3A38561  26.824  13.660   7.950
 6206POPC   C4A38562  26.837  13.587   7.650
 6206POPC   C1B38563  27.067  13.698   8.550
 6206POPC   C2B38564  27.075  13.699   8.250
 6206POPC   C3B38565  27.055  13.689   7.950
 6206POPC   C4B38566  27.000  13.713   7.650
 6207POPC   NC338567   8.246  23.750   9.450
 6207POPC   PO438568   8.221  23.667   9.150
 6207POPC   GL138569   8.151  23.681   8.850
 6207POPC   GL238570   8.080  23.635   8.850
 6207POPC   C1A38571   8.201  23.689   8.550
 6207POPC   D2A38572   8.237  23.699   8.250
 6207POPC   C3A38573   8.154  23.734   7.950
 6207POPC   C4A38574   8.187  23.711   7.650
 6207POPC   C1B38575   8.087  23.510   8.550
 6207POPC   C2B38576   8.027  23.530   8.250
 6207POPC   C3B38577   8.084  23.533   7.950
 6207POPC   C4B38578   8.081  23.534   7.650
 6208POPC   NC338579   7.375  24.505   9.450
 6208POPC   PO438580   7.374  24.454   9.150
 6208POPC   GL138581   7.420  24.501   8.850
 6208POPC   GL238582   7.373  24.632   8.850
 6208POPC   C1A38583   7.436  24.447   8.550
 6208POPC   D2A38584   7.382  24.538   8.250
 6208POPC   C3A38585   7.384  24.529   7.950
 6208POPC   C4A38586   7.389  24.515   7.650
 6208POPC   C1B38587   7.279  24.698   8.550
 6208POPC   C2B38588   7.314  24.722   8.250
 6208POPC   C3B38589   7.262  24.704   7.950
 6208POPC   C4B38590   7.247  24.680   7.650
 6209POPC   NC338591  43.914  44.668   9.450
 6209POPC   PO438592  43.871  44.667   9.150
 6209POPC   GL138593  43.926  44.658   8.850
 6209POPC   GL238594  44.049  44.609   8.850
 6209POPC   C1A38595  43.896  44.691   8.550
 6209POPC   D2A38596  43.935  44.708   8.250
 6209POPC   C3A38597  43.929  44.672   7.950
 6209POPC   C4A38598  43.930  44.706   7.650
 6209POPC   C1B38599  44.183  44.614   8.550
 6209POPC   C2B38600  44.168  44.663   8.250
 6209POPC   C3B38601  44.124  44.660   7.950
 6209POPC   C4B38602  44.139  44.630   7.650
 6210POPC   NC338603  21.385  34.597   9.450
 6210POPC   PO438604  21.404  34.536   9.150
 6210POPC   GL138605  21.375  34.584   8.850
 6210POPC   GL238606  21.381  34.412   8.850
 6210POPC   C1A38607  21.428  34.614   8.550
 6210POPC   D2A38608  21.393  34.535   8.250
 6210POPC   C3A38609  21.389  34.622   7.950
 6210POPC   C4A38610  21.340  34.532   7.650
 6210POPC   C1B38611  21.449  34.294   8.550
 6210POPC   C2B38612  21.504  34.369   8.250
 6210POPC   C3B38613  21.503  34.377   7.950
 6210POPC   C4B38614  21.422  34.323   7.650
 6211POPC   NC338615  26.016   8.162   9.450
 6211POPC   PO438616  26.024   8.199   9.150
 6211POPC   GL138617  26.070   8.160   8.850
 6211POPC   GL238618  25.955   8.330   8.850
 6211POPC   C1A38619  26.083   8.163   8.550
 6211POPC   D2A38620  26.028   8.229   8.250
 6211POPC   C3A38621  26.037   8.222   7.950
 6211POPC   C4A38622  26.035   8.243   7.650
 6211POPC   C1B38623  25.825   8.321   8.550
 6211POPC   C2B38624  25.824   8.404   8.250
 6211POPC   C3B38625  25.884   8.346   7.950
 6211POPC   C4B38626  25.872   8.326   7.650
 6212POPC   NC338627  16.713  22.209   9.450
 6212POPC   PO438628  16.763  22.141   9.150
 6212POPC   GL138629  16.688  22.198   8.850
 6212POPC   GL238630  16.683  22.229   8.850
 6212POPC   C1A38631  16.755  22.134   8.550
 6212POPC   D2A38632  16.695  22.154   8.250
 6212POPC   C3A38633  16.691  22.115   7.950
 6212POPC   C4A38634  16.775  22.189   7.650
 6212POPC   C1B38635  16.665  22.409   8.550
 6212POPC   C2B38636  16.604  22.388   8.250
 6212POPC   C3B38637  16.672  22.431   7.950
 6212POPC   C4B38638  16.600  22.429   7.650
 6213POPC   NC338639   1.979   9.762   9.450
 6213POPC   PO438640   1.943   9.763   9.150
 6213POPC   GL138641   2.012   9.732   8.850
 6213POPC   GL238642   1.885   9.882   8.850
 6213POPC   C1A38643   2.004   9.756   8.550
 6213POPC   D2A38644   2.016   9.780   8.250
 6213POPC   C3A38645   2.036   9.769   7.950
 6213POPC   C4A38646   1.962   9.741   7.650
 6213POPC   C1B38647   1.842   9.951   8.550
 6213POPC   C2B38648   1.888   9.994   8.250
 6213POPC   C3B38649   1.833   9.956   7.950
 6213POPC   C4B38650   1.850   9.999   7.650
 6214POPC   NC338651  24.470  13.676   9.450
 6214POPC   PO438652  24.489  13.669   9.150
 6214POPC   GL138653  24.530  13.674   8.850
 6214POPC   GL238654  24.587  13.718   8.850
 6214POPC   C1A38655  24.520  13.675   8.550
 6214POPC   D2A38656  24.480  13.631   8.250
 6214POPC   C3A38657  24.448  13.617   7.950
 6214POPC   C4A38658  24.478  13.612   7.650
 6214POPC   C1B38659  24.639  13.785   8.550
 6214POPC   C2B38660  24.643  13.804   8.250
 6214POPC   C3B38661  24.611  13.834   7.950
 6214POPC   C4B38662  24.616  13.813   7.650
 6215POPC   NC338663  12.849  40.827   9.450
 6215POPC   PO438664  12.889  40.823   9.150
 6215POPC   GL138665  12.818  40.774   8.850
 6215POPC   GL238666  12.686  40.778   8.850
 6215POPC   C1A38667  12.815  40.744   8.550
 6215POPC   D2A38668  12.862  40.815   8.250
 6215POPC   C3A38669  12.851  40.775   7.950
 6215POPC   C4A38670  12.823  40.804   7.650
 6215POPC   C1B38671  12.577  40.787   8.550
 6215POPC   C2B38672  12.635  40.731   8.250
 6215POPC   C3B38673  12.600  40.753   7.950
 6215POPC   C4B38674  12.594  40.726   7.650
 6216POPC   NC338675   0.479  19.019   9.450
 6216POPC   PO438676   0.423  19.057   9.150
 6216POPC   GL138677   0.438  19.053   8.850
 6216POPC   GL238678   0.460  19.137   8.850
 6216POPC   C1A38679   0.395  19.039   8.550
 6216POPC   D2A38680   0.416  19.061   8.250
 6216POPC   C3A38681   0.484  19.068   7.950
 6216POPC   C4A38682   0.388  19.102   7.650
 6216POPC   C1B38683   0.556  19.277   8.550
 6216POPC   C2B38684   0.557  19.243   8.250
 6216POPC   C3B38685   0.559  19.304   7.950
 6216POPC   C4B38686   0.542  19.255   7.650
 6217POPC   NC338687  24.455  12.113   9.450
 6217POPC   PO438688  24.512  12.045   9.150
 6217POPC   GL138689  24.442  12.118   8.850
 6217POPC   GL238690  24.612  12.050   8.850
 6217POPC   C1A38691  24.506  12.081   8.550
 6217POPC   D2A38692  24.512  12.090   8.250
 6217POPC   C3A38693  24.500  12.065   7.950
 6217POPC   C4A38694  24.474  12.054   7.650
 6217POPC   C1B38695  24.764  12.025   8.550
 6217POPC   C2B38696  24.779  11.994   8.250
 6217POPC   C3B38697  24.690  12.037   7.950
 6217POPC   C4B38698  24.688  12.050   7.650
 6218POPC   NC338699  14.404  11.292   9.450
 6218POPC   PO438700  14.390  11.274   9.150
 6218POPC   GL138701  14.405  11.291   8.850
 6218POPC   GL238702  14.454  11.199   8.850
 6218POPC   C1A38703  14.404  11.296   8.550
 6218POPC   D2A38704  14.353  11.299   8.250
 6218POPC   C3A38705  14.392  11.322   7.950
 6218POPC   C4A38706  14.421  11.313   7.650
 6218POPC   C1B38707  14.442  11.034   8.550
 6218POPC   C2B38708  14.436  11.015   8.250
 6218POPC   C3B38709  14.473  11.055   7.950
 6218POPC   C4B38710  14.448  11.057   7.650
 6219POPC   NC338711  22.906  28.372   9.450
 6219POPC   PO438712  22.893  28.415   9.150
 6219POPC   GL138713  22.965  28.371   8.850
 6219POPC   GL238714  22.768  28.391   8.850
 6219POPC   C1A38715  22.961  28.380   8.550
 6219POPC   D2A38716  22.919  28.391   8.250
 6219POPC   C3A38717  22.920  28.353   7.950
 6219POPC   C4A38718  22.966  28.377   7.650
 6219POPC   C1B38719  22.660  28.337   8.550
 6219POPC   C2B38720  22.678  28.384   8.250
 6219POPC   C3B38721  22.735  28.330   7.950
 6219POPC   C4B38722  22.726  28.367   7.650
 6220POPC   NC338723   8.231  15.183   9.450
 6220POPC   PO438724   8.225  15.199   9.150
 6220POPC   GL138725   8.198  15.202   8.850
 6220POPC   GL238726   8.307  15.139   8.850
 6220POPC   C1A38727   8.230  15.201   8.550
 6220POPC   D2A38728   8.180  15.132   8.250
 6220POPC   C3A38729   8.162  15.184   7.950
 6220POPC   C4A38730   8.239  15.208   7.650
 6220POPC   C1B38731   8.384  15.066   8.550
 6220POPC   C2B38732   8.414  15.010   8.250
 6220POPC   C3B38733   8.434  14.985   7.950
 6220POPC   C4B38734   8.426  14.993   7.650
 6221POPC   NC338735  35.324   8.929   9.450
 6221POPC   PO438736  35.306   8.939   9.150
 6221POPC   GL138737  35.344   8.971   8.850
 6221POPC   GL238738  35.427   9.021   8.850
 6221POPC   C1A38739  35.329   8.954   8.550
 6221POPC   D2A38740  35.333   8.980   8.250
 6221POPC   C3A38741  35.376   8.927   7.950
 6221POPC   C4A38742  35.358   8.929   7.650
 6221POPC   C1B38743  35.642   9.017   8.550
 6221POPC   C2B38744  35.597   8.977   8.250
 6221POPC   C3B38745  35.637   9.022   7.950
 6221POPC   C4B38746  35.621   9.003   7.650
 6222POPC   NC338747  34.530  44.648   9.450
 6222POPC   PO438748  34.540  44.682   9.150
 6222POPC   GL138749  34.585  44.621   8.850
 6222POPC   GL238750  34.473  44.624   8.850
 6222POPC   C1A38751  34.542  44.632   8.550
 6222POPC   D2A38752  34.534  44.691   8.250
 6222POPC   C3A38753  34.543  44.632   7.950
 6222POPC   C4A38754  34.558  44.673   7.650
 6222POPC   C1B38755  34.326  44.574   8.550
 6222POPC   C2B38756  34.334  44.509   8.250
 6222POPC   C3B38757  34.381  44.494   7.950
 6222POPC   C4B38758  34.397  44.566   7.650
 6223POPC   NC338759  29.167  16.723   9.450
 6223POPC   PO438760  29.108  16.702   9.150
 6223POPC   GL138761  29.104  16.739   8.850
 6223POPC   GL238762  29.177  16.570   8.850
 6223POPC   C1A38763  29.164  16.771   8.550
 6223POPC   D2A38764  29.115  16.698   8.250
 6223POPC   C3A38765  29.145  16.710   7.950
 6223POPC   C4A38766  29.166  16.738   7.650
 6223POPC   C1B38767  29.179  16.481   8.550
 6223POPC   C2B38768  29.264  16.536   8.250
 6223POPC   C3B38769  29.221  16.460   7.950
 6223POPC   C4B38770  29.191  16.482   7.650
 6224POPC   NC338771  26.052   6.684   9.450
 6224POPC   PO438772  25.997   6.632   9.150
 6224POPC   GL138773  25.995   6.596   8.850
 6224POPC   GL238774  26.112   6.551   8.850
 6224POPC   C1A38775  25.998   6.621   8.550
 6224POPC   D2A38776  26.016   6.623   8.250
 6224POPC   C3A38777  26.043   6.673   7.950
 6224POPC   C4A38778  25.996   6.687   7.650
 6224POPC   C1B38779  26.143   6.362   8.550
 6224POPC   C2B38780  26.140   6.446   8.250
 6224POPC   C3B38781  26.125   6.408   7.950
 6224POPC   C4B38782  26.110   6.374   7.650
 6225POPC   NC338783  12.849  37.700   9.450
 6225POPC   PO438784  12.806  37.707   9.150
 6225POPC   GL138785  12.813  37.657   8.850
 6225POPC   GL238786  12.789  37.790   8.850
 6225POPC   C1A38787  12.859  37.702   8.550
 6225POPC   D2A38788  12.876  37.704   8.250
 6225POPC   C3A38789  12.810  37.716   7.950
 6225POPC   C4A38790  12.858  37.653   7.650
 6225POPC   C1B38791  12.762  37.877   8.550
 6225POPC   C2B38792  12.726  37.881   8.250
 6225POPC   C3B38793  12.787  37.938   7.950
 6225POPC   C4B38794  12.755  37.939   7.650
 6226POPC   NC338795   9.723  15.989   9.450
 6226POPC   PO438796   9.752  15.924   9.150
 6226POPC   GL138797   9.729  15.945   8.850
 6226POPC   GL238798   9.801  16.116   8.850
 6226POPC   C1A38799   9.764  15.940   8.550
 6226POPC   D2A38800   9.727  15.971   8.250
 6226POPC   C3A38801   9.768  16.000   7.950
 6226POPC   C4A38802   9.732  15.967   7.650
 6226POPC   C1B38803   9.744  16.174   8.550
 6226POPC   C2B38804   9.757  16.206   8.250
 6226POPC   C3B38805   9.757  16.179   7.950
 6226POPC   C4B38806   9.766  16.196   7.650
 6227POPC   NC338807  19.023  12.809   9.450
 6227POPC   PO438808  19.083  12.833   9.150
 6227POPC   GL138809  19.106  12.852   8.850
 6227POPC   GL238810  18.985  12.758   8.850
 6227POPC   C1A38811  19.100  12.880   8.550
 6227POPC   D2A38812  19.099  12.892   8.250
 6227POPC   C3A38813  19.092  12.887   7.950
 6227POPC   C4A38814  19.045  12.827   7.650
 6227POPC   C1B38815  18.934  12.656   8.550
 6227POPC   C2B38816  18.973  12.661   8.250
 6227POPC   C3B38817  19.007  12.636   7.950
 6227POPC   C4B38818  18.994  12.652   7.650
 6228POPC   NC338819  34.534  36.886   9.450
 6228POPC   PO438820  34.556  36.931   9.150
 6228POPC   GL138821  34.544  36.877   8.850
 6228POPC   GL238822  34.670  37.048   8.850
 6228POPC   C1A38823  34.619  36.934   8.550
 6228POPC   D2A38824  34.540  36.907   8.250
 6228POPC   C3A38825  34.547  36.920   7.950
 6228POPC   C4A38826  34.624  36.866   7.650
 6228POPC   C1B38827  34.749  37.101   8.550
 6228POPC   C2B38828  34.767  37.077   8.250
 6228POPC   C3B38829  34.719  37.086   7.950
 6228POPC   C4B38830  34.746  37.103   7.650
 6229POPC   NC338831  25.224  18.265   9.450
 6229POPC   PO438832  25.315  18.314   9.150
 6229POPC   GL138833  25.283  18.288   8.850
 6229POPC   GL238834  25.315  18.401   8.850
 6229POPC   C1A38835  25.241  18.290   8.550
 6229POPC   D2A38836  25.250  18.272   8.250
 6229POPC   C3A38837  25.261  18.246   7.950
 6229POPC   C4A38838  25.259  18.259   7.650
 6229POPC   C1B38839  25.419  18.522   8.550
 6229POPC   C2B38840  25.407  18.475   8.250
 6229POPC   C3B38841  25.443  18.425   7.950
 6229POPC   C4B38842  25.394  18.507   7.650
 6230POPC   NC338843  40.816  37.685   9.450
 6230POPC   PO438844  40.770  37.720   9.150
 6230POPC   GL138845  40.773  37.654   8.850
 6230POPC   GL238846  40.681  37.640   8.850
 6230POPC   C1A38847  40.798  37.721   8.550
 6230POPC   D2A38848  40.812  37.660   8.250
 6230POPC   C3A38849  40.785  37.663   7.950
 6230POPC   C4A38850  40.762  37.685   7.650
 6230POPC   C1B38851  40.570  37.481   8.550
 6230POPC   C2B38852  40.552  37.509   8.250
 6230POPC   C3B38853  40.547  37.480   7.950
 6230POPC   C4B38854  40.560  37.474   7.650
 6231POPC   NC338855  40.025  22.200   9.450
 6231POPC   PO438856  40.012  22.113   9.150
 6231POPC   GL138857  40.004  22.123   8.850
 6231POPC   GL238858  39.882  22.263   8.850
 6231POPC   C1A38859  40.014  22.144   8.550
 6231POPC   D2A38860  40.050  22.209   8.250
 6231POPC   C3A38861  39.975  22.130   7.950
 6231POPC   C4A38862  39.996  22.121   7.650
 6231POPC   C1B38863  39.765  22.328   8.550
 6231POPC   C2B38864  39.753  22.347   8.250
 6231POPC   C3B38865  39.799  22.306   7.950
 6231POPC   C4B38866  39.814  22.316   7.650
 6232POPC   NC338867  19.791  38.431   9.450
 6232POPC   PO438868  19.854  38.461   9.150
 6232POPC   GL138869  19.866  38.410   8.850
 6232POPC   GL238870  19.918  38.544   8.850
 6232POPC   C1A38871  19.865  38.443   8.550
 6232POPC   D2A38872  19.863  38.450   8.250
 6232POPC   C3A38873  19.815  38.408   7.950
 6232POPC   C4A38874  19.847  38.443   7.650
 6232POPC   C1B38875  20.078  38.605   8.550
 6232POPC   C2B38876  20.061  38.652   8.250
 6232POPC   C3B38877  20.074  38.574   7.950
 6232POPC   C4B38878  20.071  38.640   7.650
 6233POPC   NC338879  19.866  39.257   9.450
 6233POPC   PO438880  19.865  39.256   9.150
 6233POPC   GL138881  19.845  39.267   8.850
 6233POPC   GL238882  19.810  39.317   8.850
 6233POPC   C1A38883  19.840  39.215   8.550
 6233POPC   D2A38884  19.814  39.246   8.250
 6233POPC   C3A38885  19.826  39.230   7.950
 6233POPC   C4A38886  19.792  39.230   7.650
 6233POPC   C1B38887  19.789  39.510   8.550
 6233POPC   C2B38888  19.732  39.489   8.250
 6233POPC   C3B38889  19.734  39.489   7.950
 6233POPC   C4B38890  19.746  39.468   7.650
 6234POPC   NC338891  21.388  43.133   9.450
 6234POPC   PO438892  21.393  43.078   9.150
 6234POPC   GL138893  21.429  43.103   8.850
 6234POPC   GL238894  21.227  43.146   8.850
 6234POPC   C1A38895  21.341  43.094   8.550
 6234POPC   D2A38896  21.385  43.099   8.250
 6234POPC   C3A38897  21.374  43.091   7.950
 6234POPC   C4A38898  21.420  43.143   7.650
 6234POPC   C1B38899  21.115  43.171   8.550
 6234POPC   C2B38900  21.107  43.105   8.250
 6234POPC   C3B38901  21.122  43.158   7.950
 6234POPC   C4B38902  21.176  43.102   7.650
 6235POPC   NC338903  25.271  28.401   9.450
 6235POPC   PO438904  25.293  28.361   9.150
 6235POPC   GL138905  25.242  28.342   8.850
 6235POPC   GL238906  25.124  28.304   8.850
 6235POPC   C1A38907  25.308  28.386   8.550
 6235POPC   D2A38908  25.259  28.382   8.250
 6235POPC   C3A38909  25.276  28.381   7.950
 6235POPC   C4A38910  25.241  28.373   7.650
 6235POPC   C1B38911  25.044  28.243   8.550
 6235POPC   C2B38912  25.038  28.256   8.250
 6235POPC   C3B38913  25.085  28.191   7.950
 6235POPC   C4B38914  25.094  28.231   7.650
 6236POPC   NC338915   2.013  43.864   9.450
 6236POPC   PO438916   1.983  43.873   9.150
 6236POPC   GL138917   2.021  43.922   8.850
 6236POPC   GL238918   1.950  43.743   8.850
 6236POPC   C1A38919   1.964  43.844   8.550
 6236POPC   D2A38920   2.023  43.867   8.250
 6236POPC   C3A38921   2.028  43.867   7.950
 6236POPC   C4A38922   1.987  43.878   7.650
 6236POPC   C1B38923   1.933  43.637   8.550
 6236POPC   C2B38924   1.882  43.672   8.250
 6236POPC   C3B38925   1.921  43.643   7.950
 6236POPC   C4B38926   1.930  43.684   7.650
 6237POPC   NC338927  11.328  43.119   9.450
 6237POPC   PO438928  11.324  43.129   9.150
 6237POPC   GL138929  11.267  43.136   8.850
 6237POPC   GL238930  11.266  43.223   8.850
 6237POPC   C1A38931  11.347  43.070   8.550
 6237POPC   D2A38932  11.310  43.138   8.250
 6237POPC   C3A38933  11.327  43.107   7.950
 6237POPC   C4A38934  11.299  43.132   7.650
 6237POPC   C1B38935  11.186  43.387   8.550
 6237POPC   C2B38936  11.265  43.351   8.250
 6237POPC   C3B38937  11.285  43.322   7.950
 6237POPC   C4B38938  11.213  43.393   7.650
 6238POPC   NC338939   5.823  33.006   9.450
 6238POPC   PO438940   5.828  33.007   9.150
 6238POPC   GL138941   5.867  33.041   8.850
 6238POPC   GL238942   5.814  33.187   8.850
 6238POPC   C1A38943   5.822  33.061   8.550
 6238POPC   D2A38944   5.908  33.016   8.250
 6238POPC   C3A38945   5.905  33.067   7.950
 6238POPC   C4A38946   5.844  33.021   7.650
 6238POPC   C1B38947   5.852  33.276   8.550
 6238POPC   C2B38948   5.846  33.220   8.250
 6238POPC   C3B38949   5.816  33.298   7.950
 6238POPC   C4B38950   5.764  33.257   7.650
 6239POPC   NC338951  15.203  10.544   9.450
 6239POPC   PO438952  15.222  10.479   9.150
 6239POPC   GL138953  15.142  10.566   8.850
 6239POPC   GL238954  15.280  10.560   8.850
 6239POPC   C1A38955  15.135  10.498   8.550
 6239POPC   D2A38956  15.225  10.531   8.250
 6239POPC   C3A38957  15.214  10.567   7.950
 6239POPC   C4A38958  15.177  10.540   7.650
 6239POPC   C1B38959  15.403  10.627   8.550
 6239POPC   C2B38960  15.396  10.628   8.250
 6239POPC   C3B38961  15.373  10.631   7.950
 6239POPC   C4B38962  15.400  10.662   7.650
 6240POPC   NC338963  29.916  40.735   9.450
 6240POPC   PO438964  29.908  40.801   9.150
 6240POPC   GL138965  29.927  40.796   8.850
 6240POPC   GL238966  29.892  40.617   8.850
 6240POPC   C1A38967  29.952  40.735   8.550
 6240POPC   D2A38968  29.879  40.742   8.250
 6240POPC   C3A38969  29.924  40.814   7.950
 6240POPC   C4A38970  29.939  40.830   7.650
 6240POPC   C1B38971  29.905  40.566   8.550
 6240POPC   C2B38972  29.959  40.491   8.250
 6240POPC   C3B38973  29.956  40.541   7.950
 6240POPC   C4B38974  29.975  40.547   7.650
 6241POPC   NC338975  24.538   1.970   9.450
 6241POPC   PO438976  24.519   1.976   9.150
 6241POPC   GL138977  24.478   1.959   8.850
 6241POPC   GL238978  24.361   1.981   8.850
 6241POPC   C1A38979  24.525   2.003   8.550
 6241POPC   D2A38980  24.479   1.993   8.250
 6241POPC   C3A38981  24.463   2.031   7.950
 6241POPC   C4A38982  24.499   2.005   7.650
 6241POPC   C1B38983  24.221   1.879   8.550
 6241POPC   C2B38984  24.251   1.856   8.250
 6241POPC   C3B38985  24.217   1.897   7.950
 6241POPC   C4B38986  24.239   1.912   7.650
 6242POPC   NC338987   6.630  14.403   9.450
 6242POPC   PO438988   6.636  14.415   9.150
 6242POPC   GL138989   6.687  14.416   8.850
 6242POPC   GL238990   6.772  14.364   8.850
 6242POPC   C1A38991   6.613  14.362   8.550
 6242POPC   D2A38992   6.652  14.447   8.250
 6242POPC   C3A38993   6.641  14.425   7.950
 6242POPC   C4A38994   6.635  14.410   7.650
 6242POPC   C1B38995   6.931  14.333   8.550
 6242POPC   C2B38996   6.888  14.367   8.250
 6242POPC   C3B38997   6.856  14.279   7.950
 6242POPC   C4B38998   6.908  14.347   7.650
 6243POPC   NC338999   8.973  18.248   9.450
 6243POPC   PO439000   8.960  18.324   9.150
 6243POPC   GL139001   9.006  18.288   8.850
 6243POPC   GL239002   8.984  18.385   8.850
 6243POPC   C1A39003   8.948  18.287   8.550
 6243POPC   D2A39004   8.946  18.277   8.250
 6243POPC   C3A39005   8.998  18.295   7.950
 6243POPC   C4A39006   8.925  18.262   7.650
 6243POPC   C1B39007   9.054  18.556   8.550
 6243POPC   C2B39008   9.011  18.514   8.250
 6243POPC   C3B39009   8.971  18.548   7.950
 6243POPC   C4B39010   8.995  18.571   7.650
 6244POPC   NC339011   8.223   5.069   9.450
 6244POPC   PO439012   8.209   5.087   9.150
 6244POPC   GL139013   8.192   5.045   8.850
 6244POPC   GL239014   8.276   5.054   8.850
 6244POPC   C1A39015   8.167   5.140   8.550
 6244POPC   D2A39016   8.165   5.054   8.250
 6244POPC   C3A39017   8.199   5.119   7.950
 6244POPC   C4A39018   8.153   5.058   7.650
 6244POPC   C1B39019   8.402   4.908   8.550
 6244POPC   C2B39020   8.392   4.961   8.250
 6244POPC   C3B39021   8.421   4.941   7.950
 6244POPC   C4B39022   8.413   4.934   7.650
 6245POPC   NC339023  19.848  35.365   9.450
 6245POPC   PO439024  19.873  35.355   9.150
 6245POPC   GL139025  19.803  35.318   8.850
 6245POPC   GL239026  19.800  35.231   8.850
 6245POPC   C1A39027  19.872  35.319   8.550
 6245POPC   D2A39028  19.789  35.366   8.250
 6245POPC   C3A39029  19.825  35.394   7.950
 6245POPC   C4A39030  19.792  35.306   7.650
 6245POPC   C1B39031  19.738  35.097   8.550
 6245POPC   C2B39032  19.704  35.124   8.250
 6245POPC   C3B39033  19.668  35.092   7.950
 6245POPC   C4B39034  19.724  35.151   7.650
 6246POPC   NC339035  32.256  26.029   9.450
 6246POPC   PO439036  32.298  26.006   9.150
 6246POPC   GL139037  32.240  26.057   8.850
 6246POPC   GL239038  32.323  26.133   8.850
 6246POPC   C1A39039  32.230  26.080   8.550
 6246POPC   D2A39040  32.208  26.039   8.250
 6246POPC   C3A39041  32.276  26.039   7.950
 6246POPC   C4A39042  32.225  26.027   7.650
 6246POPC   C1B39043  32.454  26.205   8.550
 6246POPC   C2B39044  32.421  26.135   8.250
 6246POPC   C3B39045  32.412  26.132   7.950
 6246POPC   C4B39046  32.488  26.161   7.650
 6247POPC   NC339047  29.131   1.977   9.450
 6247POPC   PO439048  29.128   1.952   9.150
 6247POPC   GL139049  29.155   1.953   8.850
 6247POPC   GL239050  28.977   1.965   8.850
 6247POPC   C1A39051  29.116   2.000   8.550
 6247POPC   D2A39052  29.168   1.982   8.250
 6247POPC   C3A39053  29.116   1.979   7.950
 6247POPC   C4A39054  29.134   1.963   7.650
 6247POPC   C1B39055  28.938   1.877   8.550
 6247POPC   C2B39056  28.933   1.949   8.250
 6247POPC   C3B39057  28.896   1.884   7.950
 6247POPC   C4B39058  28.860   1.884   7.650
 6248POPC   NC339059  41.558  15.941   9.450
 6248POPC   PO439060  41.552  15.943   9.150
 6248POPC   GL139061  41.579  15.954   8.850
 6248POPC   GL239062  41.652  15.845   8.850
 6248POPC   C1A39063  41.515  15.997   8.550
 6248POPC   D2A39064  41.582  15.956   8.250
 6248POPC   C3A39065  41.520  15.980   7.950
 6248POPC   C4A39066  41.595  15.907   7.650
 6248POPC   C1B39067  41.624  15.755   8.550
 6248POPC   C2B39068  41.678  15.723   8.250
 6248POPC   C3B39069  41.704  15.736   7.950
 6248POPC   C4B39070  41.661  15.725   7.650
 6249POPC   NC339071  19.093  30.685   9.450
 6249POPC   PO439072  19.055  30.679   9.150
 6249POPC   GL139073  19.102  30.711   8.850
 6249POPC   GL239074  19.013  30.537   8.850
 6249POPC   C1A39075  19.102  30.682   8.550
 6249POPC   D2A39076  19.072  30.730   8.250
 6249POPC   C3A39077  19.055  30.681   7.950
 6249POPC   C4A39078  19.080  30.707   7.650
 6249POPC   C1B39079  19.011  30.420   8.550
 6249POPC   C2B39080  19.041  30.462   8.250
 6249POPC   C3B39081  19.061  30.499   7.950
 6249POPC   C4B39082  18.982  30.439   7.650
 6250POPC   NC339083  12.851  13.600   9.450
 6250POPC   PO439084  12.813  13.624   9.150
 6250POPC   GL139085  12.809  13.601   8.850
 6250POPC   GL239086  12.751  13.723   8.850
 6250POPC   C1A39087  12.854  13.666   8.550
 6250POPC   D2A39088  12.878  13.586   8.250
 6250POPC   C3A39089  12.897  13.620   7.950
 6250POPC   C4A39090  12.886  13.611   7.650
 6250POPC   C1B39091  12.603  13.794   8.550
 6250POPC   C2B39092  12.662  13.782   8.250
 6250POPC   C3B39093  12.631  13.765   7.950
 6250POPC   C4B39094  12.599  13.775   7.650
 6251POPC   NC339095  30.670  31.443   9.450
 6251POPC   PO439096  30.694  31.492   9.150
 6251POPC   GL139097  30.724  31.435   8.850
 6251POPC   GL239098  30.741  31.349   8.850
 6251POPC   C1A39099  30.659  31.481   8.550
 6251POPC   D2A39100  30.744  31.520   8.250
 6251POPC   C3A39101  30.727  31.520   7.950
 6251POPC   C4A39102  30.727  31.467   7.650
 6251POPC   C1B39103  30.744  31.261   8.550
 6251POPC   C2B39104  30.786  31.235   8.250
 6251POPC   C3B39105  30.742  31.228   7.950
 6251POPC   C4B39106  30.718  31.195   7.650
 6252POPC   NC339107  35.348  33.003   9.450
 6252POPC   PO439108  35.386  33.055   9.150
 6252POPC   GL139109  35.372  33.007   8.850
 6252POPC   GL239110  35.418  32.930   8.850
 6252POPC   C1A39111  35.357  32.979   8.550
 6252POPC   D2A39112  35.330  32.991   8.250
 6252POPC   C3A39113  35.385  33.035   7.950
 6252POPC   C4A39114  35.391  32.996   7.650
 6252POPC   C1B39115  35.350  32.750   8.550
 6252POPC   C2B39116  35.371  32.785   8.250
 6252POPC   C3B39117  35.386  32.759   7.950
 6252POPC   C4B39118  35.386  32.783   7.650
 6253POPC   NC339119   2.795  39.991   9.450
 6253POPC   PO439120   2.759  40.037   9.150
 6253POPC   GL139121   2.780  39.969   8.850
 6253POPC   GL239122   2.727  39.928   8.850
 6253POPC   C1A39123   2.745  40.027   8.550
 6253POPC   D2A39124   2.801  39.958   8.250
 6253POPC   C3A39125   2.717  40.032   7.950
 6253POPC   C4A39126   2.744  40.029   7.650
 6253POPC   C1B39127   2.708  39.789   8.550
 6253POPC   C2B39128   2.707  39.800   8.250
 6253POPC   C3B39129   2.715  39.716   7.950
 6253POPC   C4B39130   2.762  39.810   7.650
 6254POPC   NC339131   6.660  30.733   9.450
 6254POPC   PO439132   6.645  30.733   9.150
 6254POPC   GL139133   6.634  30.715   8.850
 6254POPC   GL239134   6.563  30.550   8.850
 6254POPC   C1A39135   6.596  30.741   8.550
 6254POPC   D2A39136   6.629  30.691   8.250
 6254POPC   C3A39137   6.682  30.730   7.950
 6254POPC   C4A39138   6.666  30.678   7.650
 6254POPC   C1B39139   6.538  30.499   8.550
 6254POPC   C2B39140   6.589  30.479   8.250
 6254POPC   C3B39141   6.604  30.448   7.950
 6254POPC   C4B39142   6.546  30.496   7.650
 6255POPC   NC339143  40.757  21.342   9.450
 6255POPC   PO439144  40.821  21.346   9.150
 6255POPC   GL139145  40.804  21.421   8.850
 6255POPC   GL239146  40.882  21.477   8.850
 6255POPC   C1A39147  40.755  21.422   8.550
 6255POPC   D2A39148  40.830  21.410   8.250
 6255POPC   C3A39149  40.806  21.428   7.950
 6255POPC   C4A39150  40.778  21.372   7.650
 6255POPC   C1B39151  41.054  21.505   8.550
 6255POPC   C2B39152  40.995  21.518   8.250
 6255POPC   C3B39153  41.051  21.506   7.950
 6255POPC   C4B39154  40.983  21.442   7.650
 6256POPC   NC339155  23.704  21.386   9.450
 6256POPC   PO439156  23.730  21.365   9.150
 6256POPC   GL139157  23.724  21.349   8.850
 6256POPC   GL239158  23.584  21.462   8.850
 6256POPC   C1A39159  23.756  21.400   8.550
 6256POPC   D2A39160  23.737  21.396   8.250
 6256POPC   C3A39161  23.692  21.380   7.950
 6256POPC   C4A39162  23.695  21.394   7.650
 6256POPC   C1B39163  23.479  21.472   8.550
 6256POPC   C2B39164  23.459  21.482   8.250
 6256POPC   C3B39165  23.459  21.429   7.950
 6256POPC   C4B39166  23.485  21.439   7.650
 6257POPC   NC339167   3.568  10.501   9.450
 6257POPC   PO439168   3.589  10.508   9.150
 6257POPC   GL139169   3.583  10.492   8.850
 6257POPC   GL239170   3.600  10.610   8.850
 6257POPC   C1A39171   3.499  10.526   8.550
 6257POPC   D2A39172   3.503  10.572   8.250
 6257POPC   C3A39173   3.567  10.571   7.950
 6257POPC   C4A39174   3.496  10.560   7.650
 6257POPC   C1B39175   3.730  10.643   8.550
 6257POPC   C2B39176   3.776  10.636   8.250
 6257POPC   C3B39177   3.714  10.672   7.950
 6257POPC   C4B39178   3.764  10.721   7.650
 6258POPC   NC339179  14.431  20.568   9.450
 6258POPC   PO439180  14.399  20.578   9.150
 6258POPC   GL139181  14.397  20.581   8.850
 6258POPC   GL239182  14.496  20.568   8.850
 6258POPC   C1A39183  14.436  20.603   8.550
 6258POPC   D2A39184  14.426  20.650   8.250
 6258POPC   C3A39185  14.443  20.583   7.950
 6258POPC   C4A39186  14.431  20.590   7.650
 6258POPC   C1B39187  14.639  20.475   8.550
 6258POPC   C2B39188  14.552  20.474   8.250
 6258POPC   C3B39189  14.591  20.422   7.950
 6258POPC   C4B39190  14.639  20.479   7.650
 6259POPC   NC339191   5.858  22.902   9.450
 6259POPC   PO439192   5.873  22.914   9.150
 6259POPC   GL139193   5.872  22.973   8.850
 6259POPC   GL239194   5.914  22.840   8.850
 6259POPC   C1A39195   5.837  22.964   8.550
 6259POPC   D2A39196   5.889  22.921   8.250
 6259POPC   C3A39197   5.822  22.983   7.950
 6259POPC   C4A39198   5.862  22.966   7.650
 6259POPC   C1B39199   5.919  22.682   8.550
 6259POPC   C2B39200   5.880  22.722   8.250
 6259POPC   C3B39201   5.879  22.671   7.950
 6259POPC   C4B39202   5.828  22.716   7.650
 6260POPC   NC339203   4.367  44.661   9.450
 6260POPC   PO439204   4.296  44.678   9.150
 6260POPC   GL139205   4.317  44.636   8.850
 6260POPC   GL239206   4.197  44.611   8.850
 6260POPC   C1A39207   4.299  44.653   8.550
 6260POPC   D2A39208   4.320  44.641   8.250
 6260POPC   C3A39209   4.292  44.630   7.950
 6260POPC   C4A39210   4.336  44.646   7.650
 6260POPC   C1B39211   4.108  44.523   8.550
 6260POPC   C2B39212   4.127  44.597   8.250
 6260POPC   C3B39213   4.134  44.516   7.950
 6260POPC   C4B39214   4.116  44.597   7.650
 6261POPC   NC339215  17.493  32.991   9.450
 6261POPC   PO439216  17.529  33.073   9.150
 6261POPC   GL139217  17.557  33.001   8.850
 6261POPC   GL239218  17.417  33.116   8.850
 6261POPC   C1A39219  17.459  33.072   8.550
 6261POPC   D2A39220  17.504  32.998   8.250
 6261POPC   C3A39221  17.462  33.024   7.950
 6261POPC   C4A39222  17.498  32.992   7.650
 6261POPC   C1B39223  17.232  33.099   8.550
 6261POPC   C2B39224  17.224  33.136   8.250
 6261POPC   C3B39225  17.319  33.130   7.950
 6261POPC   C4B39226  17.270  33.155   7.650
 6262POPC   NC339227   0.441  28.378   9.450
 6262POPC   PO439228   0.393  28.386   9.150
 6262POPC   GL139229   0.388  28.364   8.850
 6262POPC   GL239230   0.513  28.309   8.850
 6262POPC   C1A39231   0.448  28.393   8.550
 6262POPC   D2A39232   0.425  28.404   8.250
 6262POPC   C3A39233   0.451  28.387   7.950
 6262POPC   C4A39234   0.402  28.328   7.650
 6262POPC   C1B39235   0.637  28.295   8.550
 6262POPC   C2B39236   0.717  28.308   8.250
 6262POPC   C3B39237   0.648  28.349   7.950
 6262POPC   C4B39238   0.639  28.283   7.650
 6263POPC   NC339239  43.138  22.969   9.450
 6263POPC   PO439240  43.107  22.957   9.150
 6263POPC   GL139241  43.072  22.888   8.850
 6263POPC   GL239242  43.242  22.893   8.850
 6263POPC   C1A39243  43.093  22.954   8.550
 6263POPC   D2A39244  43.140  22.903   8.250
 6263POPC   C3A39245  43.073  22.944   7.950
 6263POPC   C4A39246  43.142  22.959   7.650
 6263POPC   C1B39247  43.300  22.718   8.550
 6263POPC   C2B39248  43.265  22.722   8.250
 6263POPC   C3B39249  43.231  22.713   7.950
 6263POPC   C4B39250  43.237  22.743   7.650
 6264POPC   NC339251  37.647  14.441   9.450
 6264POPC   PO439252  37.706  14.382   9.150
 6264POPC   GL139253  37.668  14.373   8.850
 6264POPC   GL239254  37.648  14.520   8.850
 6264POPC   C1A39255  37.669  14.404   8.550
 6264POPC   D2A39256  37.681  14.441   8.250
 6264POPC   C3A39257  37.703  14.410   7.950
 6264POPC   C4A39258  37.636  14.447   7.650
 6264POPC   C1B39259  37.655  14.678   8.550
 6264POPC   C2B39260  37.683  14.653   8.250
 6264POPC   C3B39261  37.673  14.603   7.950
 6264POPC   C4B39262  37.649  14.654   7.650
 6265POPC   NC339263   8.948  44.706   9.450
 6265POPC   PO439264   9.018  44.683   9.150
 6265POPC   GL139265   8.999  44.645   8.850
 6265POPC   GL239266   8.915  44.713   8.850
 6265POPC   C1A39267   8.970  44.645   8.550
 6265POPC   D2A39268   8.975  44.627   8.250
 6265POPC   C3A39269   8.926  44.695   7.950
 6265POPC   C4A39270   9.013  44.644   7.650
 6265POPC   C1B39271   8.839  44.843   8.550
 6265POPC   C2B39272   8.827  44.805   8.250
 6265POPC   C3B39273   8.804  44.878   7.950
 6265POPC   C4B39274   8.758  44.879   7.650
 6266POPC   NC339275  26.787   6.598   9.450
 6266POPC   PO439276  26.802   6.621   9.150
 6266POPC   GL139277  26.775   6.608   8.850
 6266POPC   GL239278  26.646   6.606   8.850
 6266POPC   C1A39279  26.768   6.612   8.550
 6266POPC   D2A39280  26.768   6.603   8.250
 6266POPC   C3A39281  26.816   6.683   7.950
 6266POPC   C4A39282  26.841   6.605   7.650
 6266POPC   C1B39283  26.519   6.620   8.550
 6266POPC   C2B39284  26.520   6.627   8.250
 6266POPC   C3B39285  26.605   6.677   7.950
 6266POPC   C4B39286  26.589   6.612   7.650
 6267POPC   NC339287  18.317  36.088   9.450
 6267POPC   PO439288  18.296  36.095   9.150
 6267POPC   GL139289  18.234  36.177   8.850
 6267POPC   GL239290  18.252  36.033   8.850
 6267POPC   C1A39291  18.313  36.089   8.550
 6267POPC   D2A39292  18.325  36.160   8.250
 6267POPC   C3A39293  18.329  36.137   7.950
 6267POPC   C4A39294  18.291  36.145   7.650
 6267POPC   C1B39295  18.287  35.909   8.550
 6267POPC   C2B39296  18.257  35.860   8.250
 6267POPC   C3B39297  18.310  35.848   7.950
 6267POPC   C4B39298  18.247  35.920   7.650
 6268POPC   NC339299  29.119  41.514   9.450
 6268POPC   PO439300  29.104  41.520   9.150
 6268POPC   GL139301  29.111  41.534   8.850
 6268POPC   GL239302  29.226  41.646   8.850
 6268POPC   C1A39303  29.106  41.554   8.550
 6268POPC   D2A39304  29.162  41.588   8.250
 6268POPC   C3A39305  29.118  41.534   7.950
 6268POPC   C4A39306  29.103  41.527   7.650
 6268POPC   C1B39307  29.366  41.610   8.550
 6268POPC   C2B39308  29.365  41.595   8.250
 6268POPC   C3B39309  29.355  41.675   7.950
 6268POPC   C4B39310  29.424  41.655   7.650
 6269POPC   NC339311  36.950  43.872   9.450
 6269POPC   PO439312  36.902  43.854   9.150
 6269POPC   GL139313  36.874  43.864   8.850
 6269POPC   GL239314  36.997  43.742   8.850
 6269POPC   C1A39315  36.917  43.887   8.550
 6269POPC   D2A39316  36.867  43.883   8.250
 6269POPC   C3A39317  36.951  43.838   7.950
 6269POPC   C4A39318  36.940  43.842   7.650
 6269POPC   C1B39319  36.992  43.660   8.550
 6269POPC   C2B39320  37.028  43.700   8.250
 6269POPC   C3B39321  37.015  43.662   7.950
 6269POPC   C4B39322  37.062  43.716   7.650
 6270POPC   NC339323  23.703  42.295   9.450
 6270POPC   PO439324  23.721  42.328   9.150
 6270POPC   GL139325  23.673  42.325   8.850
 6270POPC   GL239326  23.799  42.462   8.850
 6270POPC   C1A39327  23.762  42.312   8.550
 6270POPC   D2A39328  23.735  42.286   8.250
 6270POPC   C3A39329  23.763  42.364   7.950
 6270POPC   C4A39330  23.740  42.337   7.650
 6270POPC   C1B39331  23.869  42.552   8.550
 6270POPC   C2B39332  23.885  42.471   8.250
 6270POPC   C3B39333  23.844  42.516   7.950
 6270POPC   C4B39334  23.898  42.471   7.650
 6271POPC   NC339335  23.731   5.094   9.450
 6271POPC   PO439336  23.751   5.122   9.150
 6271POPC   GL139337  23.689   5.068   8.850
 6271POPC   GL239338  23.628   5.184   8.850
 6271POPC   C1A39339  23.747   5.111   8.550
 6271POPC   D2A39340  23.668   5.109   8.250
 6271POPC   C3A39341  23.708   5.102   7.950
 6271POPC   C4A39342  23.752   5.122   7.650
 6271POPC   C1B39343  23.468   5.167   8.550
 6271POPC   C2B39344  23.513   5.183   8.250
 6271POPC   C3B39345  23.442   5.224   7.950
 6271POPC   C4B39346  23.449   5.234   7.650
 6272POPC   NC339347  17.531  34.596   9.450
 6272POPC   PO439348  17.557  34.571   9.150
 6272POPC   GL139349  17.522  34.576   8.850
 6272POPC   GL239350  17.610  34.513   8.850
 6272POPC   C1A39351  17.534  34.561   8.550
 6272POPC   D2A39352  17.502  34.602   8.250
 6272POPC   C3A39353  17.505  34.625   7.950
 6272POPC   C4A39354  17.502  34.589   7.650
 6272POPC   C1B39355  17.720  34.421   8.550
 6272POPC   C2B39356  17.669  34.443   8.250
 6272POPC   C3B39357  17.694  34.427   7.950
 6272POPC   C4B39358  17.713  34.390   7.650
 6273POPC   NC339359  31.490  25.218   9.450
 6273POPC   PO439360  31.482  25.232   9.150
 6273POPC   GL139361  31.474  25.221   8.850
 6273POPC   GL239362  31.594  25.314   8.850
 6273POPC   C1A39363  31.453  25.273   8.550
 6273POPC   D2A39364  31.504  25.216   8.250
 6273POPC   C3A39365  31.502  25.244   7.950
 6273POPC   C4A39366  31.502  25.297   7.650
 6273POPC   C1B39367  31.599  25.421   8.550
 6273POPC   C2B39368  31.615  25.482   8.250
 6273POPC   C3B39369  31.618  25.411   7.950
 6273POPC   C4B39370  31.630  25.474   7.650
 6274POPC   NC339371  22.960  22.149   9.450
 6274POPC   PO439372  22.925  22.186   9.150
 6274POPC   GL139373  22.975  22.173   8.850
 6274POPC   GL239374  22.780  22.194   8.850
 6274POPC   C1A39375  22.891  22.115   8.550
 6274POPC   D2A39376  22.895  22.150   8.250
 6274POPC   C3A39377  22.902  22.199   7.950
 6274POPC   C4A39378  22.914  22.147   7.650
 6274POPC   C1B39379  22.692  22.283   8.550
 6274POPC   C2B39380  22.664  22.218   8.250
 6274POPC   C3B39381  22.664  22.224   7.950
 6274POPC   C4B39382  22.663  22.310   7.650
 6275POPC   NC339383  33.065   9.720   9.450
 6275POPC   PO439384  33.059   9.748   9.150
 6275POPC   GL139385  33.055   9.770   8.850
 6275POPC   GL239386  33.149   9.686   8.850
 6275POPC   C1A39387  33.072   9.770   8.550
 6275POPC   D2A39388  32.994   9.772   8.250
 6275POPC   C3A39389  33.072   9.746   7.950
 6275POPC   C4A39390  32.992   9.740   7.650
 6275POPC   C1B39391  33.244   9.672   8.550
 6275POPC   C2B39392  33.275   9.739   8.250
 6275POPC   C3B39393  33.246   9.704   7.950
 6275POPC   C4B39394  33.318   9.707   7.650
 6276POPC   NC339395  19.035  35.307   9.450
 6276POPC   PO439396  19.035  35.329   9.150
 6276POPC   GL139397  19.011  35.316   8.850
 6276POPC   GL239398  19.014  35.452   8.850
 6276POPC   C1A39399  19.083  35.401   8.550
 6276POPC   D2A39400  19.064  35.400   8.250
 6276POPC   C3A39401  19.108  35.366   7.950
 6276POPC   C4A39402  19.020  35.339   7.650
 6276POPC   C1B39403  18.917  35.583   8.550
 6276POPC   C2B39404  18.885  35.516   8.250
 6276POPC   C3B39405  18.934  35.518   7.950
 6276POPC   C4B39406  18.879  35.503   7.650
 6277POPC   NC339407  15.224   1.233   9.450
 6277POPC   PO439408  15.134   1.262   9.150
 6277POPC   GL139409  15.214   1.198   8.850
 6277POPC   GL239410  15.088   1.096   8.850
 6277POPC   C1A39411  15.188   1.262   8.550
 6277POPC   D2A39412  15.221   1.189   8.250
 6277POPC   C3A39413  15.171   1.181   7.950
 6277POPC   C4A39414  15.148   1.181   7.650
 6277POPC   C1B39415  15.039   1.087   8.550
 6277POPC   C2B39416  14.975   1.016   8.250
 6277POPC   C3B39417  14.973   1.091   7.950
 6277POPC   C4B39418  14.970   1.068   7.650
 6278POPC   NC339419  29.898  29.103   9.450
 6278POPC   PO439420  29.923  29.174   9.150
 6278POPC   GL139421  29.931  29.160   8.850
 6278POPC   GL239422  29.787  29.178   8.850
 6278POPC   C1A39423  29.918  29.188   8.550
 6278POPC   D2A39424  29.957  29.134   8.250
 6278POPC   C3A39425  29.916  29.170   7.950
 6278POPC   C4A39426  29.877  29.164   7.650
 6278POPC   C1B39427  29.683  29.299   8.550
 6278POPC   C2B39428  29.711  29.279   8.250
 6278POPC   C3B39429  29.706  29.281   7.950
 6278POPC   C4B39430  29.756  29.327   7.650
 6279POPC   NC339431  30.722   3.513   9.450
 6279POPC   PO439432  30.738   3.501   9.150
 6279POPC   GL139433  30.738   3.516   8.850
 6279POPC   GL239434  30.803   3.589   8.850
 6279POPC   C1A39435  30.651   3.535   8.550
 6279POPC   D2A39436  30.695   3.506   8.250
 6279POPC   C3A39437  30.728   3.508   7.950
 6279POPC   C4A39438  30.675   3.505   7.650
 6279POPC   C1B39439  30.960   3.532   8.550
 6279POPC   C2B39440  30.931   3.598   8.250
 6279POPC   C3B39441  30.959   3.582   7.950
 6279POPC   C4B39442  30.952   3.546   7.650
 6280POPC   NC339443  35.329  30.723   9.450
 6280POPC   PO439444  35.354  30.663   9.150
 6280POPC   GL139445  35.324  30.697   8.850
 6280POPC   GL239446  35.207  30.759   8.850
 6280POPC   C1A39447  35.318  30.655   8.550
 6280POPC   D2A39448  35.394  30.663   8.250
 6280POPC   C3A39449  35.377  30.710   7.950
 6280POPC   C4A39450  35.318  30.706   7.650
 6280POPC   C1B39451  35.118  30.836   8.550
 6280POPC   C2B39452  35.193  30.826   8.250
 6280POPC   C3B39453  35.112  30.807   7.950
 6280POPC   C4B39454  35.112  30.801   7.650
 6281POPC   NC339455  41.599   8.995   9.450
 6281POPC   PO439456  41.591   9.018   9.150
 6281POPC   GL139457  41.511   8.994   8.850
 6281POPC   GL239458  41.395   8.972   8.850
 6281POPC   C1A39459  41.561   9.004   8.550
 6281POPC   D2A39460  41.542   8.967   8.250
 6281POPC   C3A39461  41.562   8.936   7.950
 6281POPC   C4A39462  41.551   8.995   7.650
 6281POPC   C1B39463  41.323   9.071   8.550
 6281POPC   C2B39464  41.328   9.024   8.250
 6281POPC   C3B39465  41.279   9.004   7.950
 6281POPC   C4B39466  41.290   9.017   7.650
 6282POPC   NC339467  41.559  19.841   9.450
 6282POPC   PO439468  41.548  19.823   9.150
 6282POPC   GL139469  41.531  19.800   8.850
 6282POPC   GL239470  41.595  19.943   8.850
 6282POPC   C1A39471  41.556  19.862   8.550
 6282POPC   D2A39472  41.577  19.872   8.250
 6282POPC   C3A39473  41.510  19.794   7.950
 6282POPC   C4A39474  41.512  19.832   7.650
 6282POPC   C1B39475  41.722  20.087   8.550
 6282POPC   C2B39476  41.670  20.004   8.250
 6282POPC   C3B39477  41.736  20.028   7.950
 6282POPC   C4B39478  41.705  20.020   7.650
 6283POPC   NC339479   1.208  39.220   9.450
 6283POPC   PO439480   1.172  39.198   9.150
 6283POPC   GL139481   1.206  39.257   8.850
 6283POPC   GL239482   1.142  39.077   8.850
 6283POPC   C1A39483   1.230  39.216   8.550
 6283POPC   D2A39484   1.243  39.189   8.250
 6283POPC   C3A39485   1.193  39.269   7.950
 6283POPC   C4A39486   1.207  39.213   7.650
 6283POPC   C1B39487   1.094  39.039   8.550
 6283POPC   C2B39488   1.122  38.988   8.250
 6283POPC   C3B39489   1.085  39.051   7.950
 6283POPC   C4B39490   1.081  39.055   7.650
 6284POPC   NC339491  43.882  19.100   9.450
 6284POPC   PO439492  43.860  19.054   9.150
 6284POPC   GL139493  43.900  19.042   8.850
 6284POPC   GL239494  43.788  19.097   8.850
 6284POPC   C1A39495  43.913  19.095   8.550
 6284POPC   D2A39496  43.861  19.015   8.250
 6284POPC   C3A39497  43.867  19.023   7.950
 6284POPC   C4A39498  43.879  19.020   7.650
 6284POPC   C1B39499  43.596  19.071   8.550
 6284POPC   C2B39500  43.588  19.008   8.250
 6284POPC   C3B39501  43.591  19.041   7.950
 6284POPC   C4B39502  43.648  19.042   7.650
 6285POPC   NC339503  40.832  34.598   9.450
 6285POPC   PO439504  40.824  34.530   9.150
 6285POPC   GL139505  40.796  34.625   8.850
 6285POPC   GL239506  40.660  34.605   8.850
 6285POPC   C1A39507  40.823  34.601   8.550
 6285POPC   D2A39508  40.822  34.541   8.250
 6285POPC   C3A39509  40.795  34.582   7.950
 6285POPC   C4A39510  40.779  34.570   7.650
 6285POPC   C1B39511  40.572  34.580   8.550
 6285POPC   C2B39512  40.538  34.618   8.250
 6285POPC   C3B39513  40.512  34.565   7.950
 6285POPC   C4B39514  40.545  34.642   7.650
 6286POPC   NC339515  39.213  28.346   9.450
 6286POPC   PO439516  39.245  28.390   9.150
 6286POPC   GL139517  39.270  28.390   8.850
 6286POPC   GL239518  39.166  28.459   8.850
 6286POPC   C1A39519  39.190  28.360   8.550
 6286POPC   D2A39520  39.249  28.409   8.250
 6286POPC   C3A39521  39.239  28.398   7.950
 6286POPC   C4A39522  39.209  28.343   7.650
 6286POPC   C1B39523  39.112  28.585   8.550
 6286POPC   C2B39524  39.145  28.574   8.250
 6286POPC   C3B39525  39.100  28.543   7.950
 6286POPC   C4B39526  39.101  28.541   7.650
 6287POPC   NC339527   4.268  14.447   9.450
 6287POPC   PO439528   4.344  14.404   9.150
 6287POPC   GL139529   4.320  14.407   8.850
 6287POPC   GL239530   4.355  14.494   8.850
 6287POPC   C1A39531   4.359  14.403   8.550
 6287POPC   D2A39532   4.308  14.401   8.250
 6287POPC   C3A39533   4.322  14.439   7.950
 6287POPC   C4A39534   4.334  14.424   7.650
 6287POPC   C1B39535   4.417  14.582   8.550
 6287POPC   C2B39536   4.417  14.605   8.250
 6287POPC   C3B39537   4.456  14.631   7.950
 6287POPC   C4B39538   4.406  14.633   7.650
 6288POPC   NC339539  44.628  12.833   9.450
 6288POPC   PO439540  44.614  12.834   9.150
 6288POPC   GL139541  44.613  12.855   8.850
 6288POPC   GL239542  44.678  12.740   8.850
 6288POPC   C1A39543  44.703  12.883   8.550
 6288POPC   D2A39544  44.698  12.894   8.250
 6288POPC   C3A39545  44.613  12.878   7.950
 6288POPC   C4A39546  44.634  12.843   7.650
 6288POPC   C1B39547  44.617  12.587   8.550
 6288POPC   C2B39548  44.666  12.638   8.250
 6288POPC   C3B39549  44.642  12.638   7.950
 6288POPC   C4B39550  44.593  12.568   7.650
 6289POPC   NC339551  26.025  15.147   9.450
 6289POPC   PO439552  26.074  15.132   9.150
 6289POPC   GL139553  26.085  15.135   8.850
 6289POPC   GL239554  26.164  15.156   8.850
 6289POPC   C1A39555  26.039  15.207   8.550
 6289POPC   D2A39556  26.037  15.129   8.250
 6289POPC   C3A39557  26.000  15.155   7.950
 6289POPC   C4A39558  26.008  15.151   7.650
 6289POPC   C1B39559  26.297  15.091   8.550
 6289POPC   C2B39560  26.310  15.088   8.250
 6289POPC   C3B39561  26.296  15.055   7.950
 6289POPC   C4B39562  26.221  15.044   7.650
 6290POPC   NC339563  37.641  36.169   9.450
 6290POPC   PO439564  37.714  36.090   9.150
 6290POPC   GL139565  37.688  36.134   8.850
 6290POPC   GL239566  37.713  36.013   8.850
 6290POPC   C1A39567  37.653  36.100   8.550
 6290POPC   D2A39568  37.656  36.117   8.250
 6290POPC   C3A39569  37.729  36.158   7.950
 6290POPC   C4A39570  37.715  36.176   7.650
 6290POPC   C1B39571  37.782  35.852   8.550
 6290POPC   C2B39572  37.728  35.935   8.250
 6290POPC   C3B39573  37.798  35.921   7.950
 6290POPC   C4B39574  37.747  35.865   7.650
 6291POPC   NC339575  38.500  14.448   9.450
 6291POPC   PO439576  38.500  14.442   9.150
 6291POPC   GL139577  38.503  14.436   8.850
 6291POPC   GL239578  38.533  14.294   8.850
 6291POPC   C1A39579  38.483  14.396   8.550
 6291POPC   D2A39580  38.474  14.448   8.250
 6291POPC   C3A39581  38.488  14.383   7.950
 6291POPC   C4A39582  38.482  14.404   7.650
 6291POPC   C1B39583  38.605  14.190   8.550
 6291POPC   C2B39584  38.633  14.221   8.250
 6291POPC   C3B39585  38.607  14.215   7.950
 6291POPC   C4B39586  38.668  14.269   7.650
 6292POPC   NC339587  38.489  43.914   9.450
 6292POPC   PO439588  38.429  43.847   9.150
 6292POPC   GL139589  38.504  43.876   8.850
 6292POPC   GL239590  38.329  43.770   8.850
 6292POPC   C1A39591  38.407  43.858   8.550
 6292POPC   D2A39592  38.424  43.872   8.250
 6292POPC   C3A39593  38.448  43.917   7.950
 6292POPC   C4A39594  38.476  43.845   7.650
 6292POPC   C1B39595  38.222  43.724   8.550
 6292POPC   C2B39596  38.300  43.784   8.250
 6292POPC   C3B39597  38.223  43.687   7.950
 6292POPC   C4B39598  38.213  43.725   7.650
 6293POPC   NC339599  20.595  25.999   9.450
 6293POPC   PO439600  20.595  26.004   9.150
 6293POPC   GL139601  20.572  25.992   8.850
 6293POPC   GL239602  20.547  26.129   8.850
 6293POPC   C1A39603  20.628  26.089   8.550
 6293POPC   D2A39604  20.599  26.061   8.250
 6293POPC   C3A39605  20.632  26.087   7.950
 6293POPC   C4A39606  20.616  26.058   7.650
 6293POPC   C1B39607  20.560  26.301   8.550
 6293POPC   C2B39608  20.556  26.266   8.250
 6293POPC   C3B39609  20.513  26.255   7.950
 6293POPC   C4B39610  20.565  26.264   7.650
 6294POPC   NC339611  26.862  39.256   9.450
 6294POPC   PO439612  26.831  39.208   9.150
 6294POPC   GL139613  26.817  39.197   8.850
 6294POPC   GL239614  26.686  39.177   8.850
 6294POPC   C1A39615  26.807  39.186   8.550
 6294POPC   D2A39616  26.847  39.240   8.250
 6294POPC   C3A39617  26.771  39.247   7.950
 6294POPC   C4A39618  26.785  39.226   7.650
 6294POPC   C1B39619  26.577  39.137   8.550
 6294POPC   C2B39620  26.578  39.156   8.250
 6294POPC   C3B39621  26.630  39.107   7.950
 6294POPC   C4B39622  26.639  39.120   7.650
 6295POPC   NC339623   3.548   5.830   9.450
 6295POPC   PO439624   3.557   5.848   9.150
 6295POPC   GL139625   3.519   5.900   8.850
 6295POPC   GL239626   3.682   5.808   8.850
 6295POPC   C1A39627   3.547   5.831   8.550
 6295POPC   D2A39628   3.514   5.904   8.250
 6295POPC   C3A39629   3.539   5.834   7.950
 6295POPC   C4A39630   3.575   5.836   7.650
 6295POPC   C1B39631   3.762   5.736   8.550
 6295POPC   C2B39632   3.729   5.768   8.250
 6295POPC   C3B39633   3.701   5.763   7.950
 6295POPC   C4B39634   3.796   5.693   7.650
 6296POPC   NC339635  39.970  18.333   9.450
 6296POPC   PO439636  40.044  18.268   9.150
 6296POPC   GL139637  40.036  18.332   8.850
 6296POPC   GL239638  40.059  18.206   8.850
 6296POPC   C1A39639  39.981  18.293   8.550
 6296POPC   D2A39640  39.986  18.241   8.250
 6296POPC   C3A39641  40.004  18.275   7.950
 6296POPC   C4A39642  40.021  18.294   7.650
 6296POPC   C1B39643  40.191  18.051   8.550
 6296POPC   C2B39644  40.110  18.031   8.250
 6296POPC   C3B39645  40.194  18.076   7.950
 6296POPC   C4B39646  40.160  18.058   7.650
 6297POPC   NC339647   5.906   8.173   9.450
 6297POPC   PO439648   5.888   8.244   9.150
 6297POPC   GL139649   5.840   8.190   8.850
 6297POPC   GL239650   5.945   8.063   8.850
 6297POPC   C1A39651   5.845   8.169   8.550
 6297POPC   D2A39652   5.826   8.154   8.250
 6297POPC   C3A39653   5.843   8.170   7.950
 6297POPC   C4A39654   5.823   8.181   7.650
 6297POPC   C1B39655   5.971   7.946   8.550
 6297POPC   C2B39656   5.921   7.928   8.250
 6297POPC   C3B39657   5.992   7.973   7.950
 6297POPC   C4B39658   5.958   7.936   7.650
 6298POPC   NC339659  12.857   3.562   9.450
 6298POPC   PO439660  12.837   3.554   9.150
 6298POPC   GL139661  12.827   3.508   8.850
 6298POPC   GL239662  12.896   3.507   8.850
 6298POPC   C1A39663  12.834   3.579   8.550
 6298POPC   D2A39664  12.837   3.535   8.250
 6298POPC   C3A39665  12.857   3.534   7.950
 6298POPC   C4A39666  12.813   3.576   7.650
 6298POPC   C1B39667  13.079   3.399   8.550
 6298POPC   C2B39668  13.032   3.353   8.250
 6298POPC   C3B39669  13.061   3.364   7.950
 6298POPC   C4B39670  12.994   3.377   7.650
 6299POPC   NC339671   5.128  43.912   9.450
 6299POPC   PO439672   5.107  43.868   9.150
 6299POPC   GL139673   5.115  43.880   8.850
 6299POPC   GL239674   5.038  43.979   8.850
 6299POPC   C1A39675   5.068  43.858   8.550
 6299POPC   D2A39676   5.099  43.877   8.250
 6299POPC   C3A39677   5.121  43.841   7.950
 6299POPC   C4A39678   5.063  43.841   7.650
 6299POPC   C1B39679   4.932  44.069   8.550
 6299POPC   C2B39680   4.894  44.026   8.250
 6299POPC   C3B39681   4.848  44.032   7.950
 6299POPC   C4B39682   4.939  44.015   7.650
 6300POPC   NC339683  22.930  36.913   9.450
 6300POPC   PO439684  22.910  36.903   9.150
 6300POPC   GL139685  22.921  36.882   8.850
 6300POPC   GL239686  22.766  36.874   8.850
 6300POPC   C1A39687  22.890  36.893   8.550
 6300POPC   D2A39688  22.940  36.895   8.250
 6300POPC   C3A39689  22.919  36.918   7.950
 6300POPC   C4A39690  22.946  36.891   7.650
 6300POPC   C1B39691  22.676  36.891   8.550
 6300POPC   C2B39692  22.696  36.880   8.250
 6300POPC   C3B39693  22.691  36.863   7.950
 6300POPC   C4B39694  22.711  36.837   7.650
 6301POPC   NC339695  12.819  14.406   9.450
 6301POPC   PO439696  12.856  14.404   9.150
 6301POPC   GL139697  12.823  14.448   8.850
 6301POPC   GL239698  12.764  14.358   8.850
 6301POPC   C1A39699  12.871  14.384   8.550
 6301POPC   D2A39700  12.844  14.360   8.250
 6301POPC   C3A39701  12.857  14.410   7.950
 6301POPC   C4A39702  12.853  14.379   7.650
 6301POPC   C1B39703  12.647  14.297   8.550
 6301POPC   C2B39704  12.614  14.291   8.250
 6301POPC   C3B39705  12.579  14.305   7.950
 6301POPC   C4B39706  12.633  14.303   7.650
 6302POPC   NC339707  32.265   9.744   9.450
 6302POPC   PO439708  32.286   9.712   9.150
 6302POPC   GL139709  32.245   9.761   8.850
 6302POPC   GL239710  32.125   9.880   8.850
 6302POPC   C1A39711  32.230   9.733   8.550
 6302POPC   D2A39712  32.199   9.758   8.250
 6302POPC   C3A39713  32.291   9.777   7.950
 6302POPC   C4A39714  32.219   9.768   7.650
 6302POPC   C1B39715  32.097   9.875   8.550
 6302POPC   C2B39716  32.031   9.876   8.250
 6302POPC   C3B39717  32.035   9.901   7.950
 6302POPC   C4B39718  32.066   9.946   7.650
 6303POPC   NC339719  43.883  25.273   9.450
 6303POPC   PO439720  43.854  25.314   9.150
 6303POPC   GL139721  43.872  25.297   8.850
 6303POPC   GL239722  43.817  25.141   8.850
 6303POPC   C1A39723  43.935  25.312   8.550
 6303POPC   D2A39724  43.880  25.227   8.250
 6303POPC   C3A39725  43.882  25.245   7.950
 6303POPC   C4A39726  43.851  25.259   7.650
 6303POPC   C1B39727  43.742  25.043   8.550
 6303POPC   C2B39728  43.770  25.020   8.250
 6303POPC   C3B39729  43.758  25.051   7.950
 6303POPC   C4B39730  43.786  25.108   7.650
 6304POPC   NC339731  41.603  29.887   9.450
 6304POPC   PO439732  41.529  29.943   9.150
 6304POPC   GL139733  41.561  29.954   8.850
 6304POPC   GL239734  41.607  29.795   8.850
 6304POPC   C1A39735  41.537  29.919   8.550
 6304POPC   D2A39736  41.579  29.882   8.250
 6304POPC   C3A39737  41.552  29.881   7.950
 6304POPC   C4A39738  41.555  29.889   7.650
 6304POPC   C1B39739  41.556  29.634   8.550
 6304POPC   C2B39740  41.602  29.680   8.250
 6304POPC   C3B39741  41.568  29.656   7.950
 6304POPC   C4B39742  41.593  29.634   7.650
 6305POPC   NC339743  11.338  10.561   9.450
 6305POPC   PO439744  11.298  10.490   9.150
 6305POPC   GL139745  11.274  10.476   8.850
 6305POPC   GL239746  11.136  10.508   8.850
 6305POPC   C1A39747  11.319  10.487   8.550
 6305POPC   D2A39748  11.252  10.570   8.250
 6305POPC   C3A39749  11.333  10.546   7.950
 6305POPC   C4A39750  11.270  10.511   7.650
 6305POPC   C1B39751  11.004  10.524   8.550
 6305POPC   C2B39752  11.048  10.524   8.250
 6305POPC   C3B39753  11.014  10.522   7.950
 6305POPC   C4B39754  11.064  10.518   7.650
 6306POPC   NC339755  37.693   5.103   9.450
 6306POPC   PO439756  37.706   5.131   9.150
 6306POPC   GL139757  37.718   5.068   8.850
 6306POPC   GL239758  37.785   5.153   8.850
 6306POPC   C1A39759  37.723   5.114   8.550
 6306POPC   D2A39760  37.694   5.072   8.250
 6306POPC   C3A39761  37.671   5.137   7.950
 6306POPC   C4A39762  37.716   5.074   7.650
 6306POPC   C1B39763  37.928   5.151   8.550
 6306POPC   C2B39764  37.959   5.126   8.250
 6306POPC   C3B39765  37.959   5.145   7.950
 6306POPC   C4B39766  37.968   5.152   7.650
 6307POPC   NC339767  11.267  34.542   9.450
 6307POPC   PO439768  11.283  34.556   9.150
 6307POPC   GL139769  11.254  34.587   8.850
 6307POPC   GL239770  11.298  34.413   8.850
 6307POPC   C1A39771  11.286  34.603   8.550
 6307POPC   D2A39772  11.251  34.575   8.250
 6307POPC   C3A39773  11.317  34.530   7.950
 6307POPC   C4A39774  11.318  34.590   7.650
 6307POPC   C1B39775  11.405  34.295   8.550
 6307POPC   C2B39776  11.325  34.293   8.250
 6307POPC   C3B39777  11.356  34.316   7.950
 6307POPC   C4B39778  11.355  34.328   7.650
 6308POPC   NC339779  21.340  35.391   9.450
 6308POPC   PO439780  21.415  35.310   9.150
 6308POPC   GL139781  21.372  35.399   8.850
 6308POPC   GL239782  21.432  35.291   8.850
 6308POPC   C1A39783  21.406  35.351   8.550
 6308POPC   D2A39784  21.416  35.356   8.250
 6308POPC   C3A39785  21.421  35.327   7.950
 6308POPC   C4A39786  21.362  35.340   7.650
 6308POPC   C1B39787  21.533  35.210   8.550
 6308POPC   C2B39788  21.516  35.128   8.250
 6308POPC   C3B39789  21.565  35.116   7.950
 6308POPC   C4B39790  21.596  35.158   7.650
 6309POPC   NC339791  25.233  16.687   9.450
 6309POPC   PO439792  25.250  16.766   9.150
 6309POPC   GL139793  25.242  16.693   8.850
 6309POPC   GL239794  25.364  16.708   8.850
 6309POPC   C1A39795  25.234  16.684   8.550
 6309POPC   D2A39796  25.258  16.683   8.250
 6309POPC   C3A39797  25.295  16.738   7.950
 6309POPC   C4A39798  25.262  16.779   7.650
 6309POPC   C1B39799  25.550  16.709   8.550
 6309POPC   C2B39800  25.495  16.700   8.250
 6309POPC   C3B39801  25.464  16.693   7.950
 6309POPC   C4B39802  25.507  16.671   7.650
 6310POPC   NC339803   2.813  10.567   9.450
 6310POPC   PO439804   2.812  10.552   9.150
 6310POPC   GL139805   2.810  10.533   8.850
 6310POPC   GL239806   2.855  10.522   8.850
 6310POPC   C1A39807   2.745  10.507   8.550
 6310POPC   D2A39808   2.783  10.531   8.250
 6310POPC   C3A39809   2.813  10.567   7.950
 6310POPC   C4A39810   2.798  10.492   7.650
 6310POPC   C1B39811   3.044  10.620   8.550
 6310POPC   C2B39812   3.033  10.597   8.250
 6310POPC   C3B39813   3.040  10.642   7.950
 6310POPC   C4B39814   2.988  10.628   7.650
 6311POPC   NC339815  40.026  29.194   9.450
 6311POPC   PO439816  39.960  29.157   9.150
 6311POPC   GL139817  40.013  29.106   8.850
 6311POPC   GL239818  39.916  29.228   8.850
 6311POPC   C1A39819  40.003  29.123   8.550
 6311POPC   D2A39820  40.050  29.118   8.250
 6311POPC   C3A39821  39.960  29.161   7.950
 6311POPC   C4A39822  39.984  29.131   7.650
 6311POPC   C1B39823  39.765  29.280   8.550
 6311POPC   C2B39824  39.725  29.247   8.250
 6311POPC   C3B39825  39.741  29.213   7.950
 6311POPC   C4B39826  39.771  29.190   7.650
 6312POPC   NC339827  40.750  32.991   9.450
 6312POPC   PO439828  40.808  33.021   9.150
 6312POPC   GL139829  40.803  32.979   8.850
 6312POPC   GL239830  40.908  33.047   8.850
 6312POPC   C1A39831  40.769  33.061   8.550
 6312POPC   D2A39832  40.811  33.007   8.250
 6312POPC   C3A39833  40.794  33.066   7.950
 6312POPC   C4A39834  40.786  33.008   7.650
 6312POPC   C1B39835  41.031  33.096   8.550
 6312POPC   C2B39836  41.005  33.057   8.250
 6312POPC   C3B39837  41.044  33.095   7.950
 6312POPC   C4B39838  41.014  33.064   7.650
 6313POPC   NC339839  40.760  43.155   9.450
 6313POPC   PO439840  40.832  43.100   9.150
 6313POPC   GL139841  40.734  43.098   8.850
 6313POPC   GL239842  40.817  43.046   8.850
 6313POPC   C1A39843  40.787  43.158   8.550
 6313POPC   D2A39844  40.805  43.076   8.250
 6313POPC   C3A39845  40.768  43.160   7.950
 6313POPC   C4A39846  40.784  43.096   7.650
 6313POPC   C1B39847  40.909  42.869   8.550
 6313POPC   C2B39848  40.900  42.927   8.250
 6313POPC   C3B39849  40.964  42.892   7.950
 6313POPC   C4B39850  40.979  42.964   7.650
 6314POPC   NC339851  12.858   8.173   9.450
 6314POPC   PO439852  12.861   8.233   9.150
 6314POPC   GL139853  12.857   8.243   8.850
 6314POPC   GL239854  12.800   8.313   8.850
 6314POPC   C1A39855  12.832   8.218   8.550
 6314POPC   D2A39856  12.853   8.198   8.250
 6314POPC   C3A39857  12.894   8.211   7.950
 6314POPC   C4A39858  12.815   8.208   7.650
 6314POPC   C1B39859  12.837   8.489   8.550
 6314POPC   C2B39860  12.788   8.404   8.250
 6314POPC   C3B39861  12.777   8.448   7.950
 6314POPC   C4B39862  12.811   8.430   7.650
 6315POPC   NC339863   6.638   8.936   9.450
 6315POPC   PO439864   6.655   8.932   9.150
 6315POPC   GL139865   6.681   8.962   8.850
 6315POPC   GL239866   6.506   9.009   8.850
 6315POPC   C1A39867   6.680   8.957   8.550
 6315POPC   D2A39868   6.664   8.991   8.250
 6315POPC   C3A39869   6.654   8.942   7.950
 6315POPC   C4A39870   6.603   9.007   7.650
 6315POPC   C1B39871   6.405   8.950   8.550
 6315POPC   C2B39872   6.369   8.986   8.250
 6315POPC   C3B39873   6.387   8.986   7.950
 6315POPC   C4B39874   6.413   9.016   7.650
 6316POPC   NC339875  40.753  27.552   9.450
 6316POPC   PO439876  40.802  27.639   9.150
 6316POPC   GL139877  40.776  27.572   8.850
 6316POPC   GL239878  40.659  27.668   8.850
 6316POPC   C1A39879  40.757  27.602   8.550
 6316POPC   D2A39880  40.793  27.617   8.250
 6316POPC   C3A39881  40.774  27.632   7.950
 6316POPC   C4A39882  40.807  27.638   7.650
 6316POPC   C1B39883  40.605  27.793   8.550
 6316POPC   C2B39884  40.646  27.767   8.250
 6316POPC   C3B39885  40.572  27.717   7.950
 6316POPC   C4B39886  40.646  27.771   7.650
 6317POPC   NC339887  15.132  13.644   9.450
 6317POPC   PO439888  15.209  13.579   9.150
 6317POPC   GL139889  15.152  13.587   8.850
 6317POPC   GL239890  15.069  13.572   8.850
 6317POPC   C1A39891  15.131  13.667   8.550
 6317POPC   D2A39892  15.152  13.610   8.250
 6317POPC   C3A39893  15.226  13.617   7.950
 6317POPC   C4A39894  15.140  13.580   7.650
 6317POPC   C1B39895  14.943  13.618   8.550
 6317POPC   C2B39896  14.955  13.648   8.250
 6317POPC   C3B39897  14.975  13.569   7.950
 6317POPC   C4B39898  14.885  13.555   7.650
 6318POPC   NC339899   7.424   5.851   9.450
 6318POPC   PO439900   7.420   5.830   9.150
 6318POPC   GL139901   7.438   5.890   8.850
 6318POPC   GL239902   7.347   5.958   8.850
 6318POPC   C1A39903   7.416   5.853   8.550
 6318POPC   D2A39904   7.386   5.858   8.250
 6318POPC   C3A39905   7.426   5.865   7.950
 6318POPC   C4A39906   7.387   5.910   7.650
 6318POPC   C1B39907   7.211   6.003   8.550
 6318POPC   C2B39908   7.214   5.935   8.250
 6318POPC   C3B39909   7.195   5.975   7.950
 6318POPC   C4B39910   7.221   6.019   7.650
 6319POPC   NC339911   1.202  36.101   9.450
 6319POPC   PO439912   1.183  36.158   9.150
 6319POPC   GL139913   1.200  36.124   8.850
 6319POPC   GL239914   1.153  36.253   8.850
 6319POPC   C1A39915   1.170  36.150   8.550
 6319POPC   D2A39916   1.229  36.098   8.250
 6319POPC   C3A39917   1.213  36.105   7.950
 6319POPC   C4A39918   1.172  36.080   7.650
 6319POPC   C1B39919   1.047  36.243   8.550
 6319POPC   C2B39920   1.058  36.241   8.250
 6319POPC   C3B39921   1.021  36.318   7.950
 6319POPC   C4B39922   1.007  36.314   7.650
 6320POPC   NC339923  31.428  35.318   9.450
 6320POPC   PO439924  31.459  35.389   9.150
 6320POPC   GL139925  31.432  35.351   8.850
 6320POPC   GL239926  31.437  35.211   8.850
 6320POPC   C1A39927  31.519  35.391   8.550
 6320POPC   D2A39928  31.475  35.316   8.250
 6320POPC   C3A39929  31.458  35.353   7.950
 6320POPC   C4A39930  31.470  35.344   7.650
 6320POPC   C1B39931  31.365  35.156   8.550
 6320POPC   C2B39932  31.315  35.094   8.250
 6320POPC   C3B39933  31.348  35.147   7.950
 6320POPC   C4B39934  31.308  35.108   7.650
 6321POPC   NC339935  24.476  14.386   9.450
 6321POPC   PO439936  24.515  14.433   9.150
 6321POPC   GL139937  24.509  14.423   8.850
 6321POPC   GL239938  24.503  14.262   8.850
 6321POPC   C1A39939  24.458  14.441   8.550
 6321POPC   D2A39940  24.464  14.396   8.250
 6321POPC   C3A39941  24.507  14.430   7.950
 6321POPC   C4A39942  24.510  14.425   7.650
 6321POPC   C1B39943  24.543  14.179   8.550
 6321POPC   C2B39944  24.533  14.205   8.250
 6321POPC   C3B39945  24.587  14.188   7.950
 6321POPC   C4B39946  24.517  14.149   7.650
 6322POPC   NC339947  42.307  29.896   9.450
 6322POPC   PO439948  42.380  29.956   9.150
 6322POPC   GL139949  42.342  29.920   8.850
 6322POPC   GL239950  42.292  29.836   8.850
 6322POPC   C1A39951  42.379  29.942   8.550
 6322POPC   D2A39952  42.319  29.899   8.250
 6322POPC   C3A39953  42.303  29.926   7.950
 6322POPC   C4A39954  42.301  29.908   7.650
 6322POPC   C1B39955  42.334  29.715   8.550
 6322POPC   C2B39956  42.357  29.681   8.250
 6322POPC   C3B39957  42.395  29.705   7.950
 6322POPC   C4B39958  42.361  29.629   7.650
 6323POPC   NC339959   5.089   2.771   9.450
 6323POPC   PO439960   5.135   2.763   9.150
 6323POPC   GL139961   5.111   2.760   8.850
 6323POPC   GL239962   5.249   2.784   8.850
 6323POPC   C1A39963   5.136   2.790   8.550
 6323POPC   D2A39964   5.045   2.805   8.250
 6323POPC   C3A39965   5.124   2.751   7.950
 6323POPC   C4A39966   5.113   2.792   7.650
 6323POPC   C1B39967   5.374   2.805   8.550
 6323POPC   C2B39968   5.369   2.770   8.250
 6323POPC   C3B39969   5.334   2.859   7.950
 6323POPC   C4B39970   5.307   2.827   7.650
 6324POPC   NC339971  10.524  24.485   9.450
 6324POPC   PO439972  10.548  24.449   9.150
 6324POPC   GL139973  10.549  24.509   8.850
 6324POPC   GL239974  10.620  24.641   8.850
 6324POPC   C1A39975  10.559  24.447   8.550
 6324POPC   D2A39976  10.539  24.457   8.250
 6324POPC   C3A39977  10.531  24.482   7.950
 6324POPC   C4A39978  10.505  24.500   7.650
 6324POPC   C1B39979  10.682  24.694   8.550
 6324POPC   C2B39980  10.694  24.741   8.250
 6324POPC   C3B39981  10.630  24.730   7.950
 6324POPC   C4B39982  10.609  24.704   7.650
 6325POPC   NC339983  44.672   1.979   9.450
 6325POPC   PO439984  44.700   1.979   9.150
 6325POPC   GL139985  44.664   1.985   8.850
 6325POPC   GL239986  44.713   1.833   8.850
 6325POPC   C1A39987  44.651   1.964   8.550
 6325POPC   D2A39988  44.641   1.991   8.250
 6325POPC   C3A39989  44.636   1.983   7.950
 6325POPC   C4A39990  44.617   1.990   7.650
 6325POPC   C1B39991  44.722   1.715   8.550
 6325POPC   C2B39992  44.768   1.747   8.250
 6325POPC   C3B39993  44.773   1.805   7.950
 6325POPC   C4B39994  44.779   1.712   7.650
 6326POPC   NC339995  39.992  26.865   9.450
 6326POPC   PO439996  39.972  26.845   9.150
 6326POPC   GL139997  39.994  26.792   8.850
 6326POPC   GL239998  40.103  26.748   8.850
 6326POPC   C1A39999  39.960  26.784   8.550
 6326POPC   D2A40000  39.992  26.769   8.250
 6326POPC   C3A40001  40.003  26.821   7.950
 6326POPC   C4A40002  40.041  26.833   7.650
 6326POPC   C1B40003  40.177  26.630   8.550
 6326POPC   C2B40004  40.157  26.634   8.250
 6326POPC   C3B40005  40.098  26.566   7.950
 6326POPC   C4B40006  40.183  26.574   7.650
 6327POPC   NC340007  29.896   2.801   9.450
 6327POPC   PO440008  29.951   2.798   9.150
 6327POPC   GL140009  29.882   2.798   8.850
 6327POPC   GL240010  29.810   2.809   8.850
 6327POPC   C1A40011  29.943   2.746   8.550
 6327POPC   D2A40012  29.877   2.769   8.250
 6327POPC   C3A40013  29.942   2.775   7.950
 6327POPC   C4A40014  29.910   2.773   7.650
 6327POPC   C1B40015  29.763   2.910   8.550
 6327POPC   C2B40016  29.698   2.881   8.250
 6327POPC   C3B40017  29.726   2.860   7.950
 6327POPC   C4B40018  29.749   2.951   7.650
 6328POPC   NC340019  14.410  16.698   9.450
 6328POPC   PO440020  14.421  16.772   9.150
 6328POPC   GL140021  14.368  16.764   8.850
 6328POPC   GL240022  14.362  16.603   8.850
 6328POPC   C1A40023  14.394  16.747   8.550
 6328POPC   D2A40024  14.395  16.758   8.250
 6328POPC   C3A40025  14.385  16.767   7.950
 6328POPC   C4A40026  14.389  16.754   7.650
 6328POPC   C1B40027  14.298  16.569   8.550
 6328POPC   C2B40028  14.300  16.556   8.250
 6328POPC   C3B40029  14.247  16.542   7.950
 6328POPC   C4B40030  14.243  16.562   7.650
 6329POPC   NC340031  29.886  42.307   9.450
 6329POPC   PO440032  29.878  42.313   9.150
 6329POPC   GL140033  29.892  42.313   8.850
 6329POPC   GL240034  30.024  42.308   8.850
 6329POPC   C1A40035  29.907  42.358   8.550
 6329POPC   D2A40036  29.896  42.351   8.250
 6329POPC   C3A40037  29.899  42.355   7.950
 6329POPC   C4A40038  29.914  42.311   7.650
 6329POPC   C1B40039  30.129  42.333   8.550
 6329POPC   C2B40040  30.145  42.369   8.250
 6329POPC   C3B40041  30.195  42.390   7.950
 6329POPC   C4B40042  30.216  42.372   7.650
 6330POPC   NC340043  23.729  16.768   9.450
 6330POPC   PO440044  23.676  16.749   9.150
 6330POPC   GL140045  23.759  16.734   8.850
 6330POPC   GL240046  23.859  16.663   8.850
 6330POPC   C1A40047  23.664  16.719   8.550
 6330POPC   D2A40048  23.698  16.753   8.250
 6330POPC   C3A40049  23.693  16.695   7.950
 6330POPC   C4A40050  23.747  16.700   7.650
 6330POPC   C1B40051  24.000  16.691   8.550
 6330POPC   C2B40052  23.960  16.671   8.250
 6330POPC   C3B40053  23.960  16.660   7.950
 6330POPC   C4B40054  23.917  16.638   7.650
 6331POPC   NC340055  36.869  33.058   9.450
 6331POPC   PO440056  36.887  33.017   9.150
 6331POPC   GL140057  36.857  33.062   8.850
 6331POPC   GL240058  36.868  33.147   8.850
 6331POPC   C1A40059  36.930  33.001   8.550
 6331POPC   D2A40060  36.920  33.037   8.250
 6331POPC   C3A40061  36.886  32.985   7.950
 6331POPC   C4A40062  36.934  32.983   7.650
 6331POPC   C1B40063  36.768  33.257   8.550
 6331POPC   C2B40064  36.768  33.202   8.250
 6331POPC   C3B40065  36.776  33.257   7.950
 6331POPC   C4B40066  36.840  33.294   7.650
 6332POPC   NC340067  38.436  26.077   9.450
 6332POPC   PO440068  38.411  26.060   9.150
 6332POPC   GL140069  38.424  26.088   8.850
 6332POPC   GL240070  38.400  25.921   8.850
 6332POPC   C1A40071  38.460  26.018   8.550
 6332POPC   D2A40072  38.436  26.019   8.250
 6332POPC   C3A40073  38.419  26.031   7.950
 6332POPC   C4A40074  38.501  26.073   7.650
 6332POPC   C1B40075  38.254  25.896   8.550
 6332POPC   C2B40076  38.231  25.909   8.250
 6332POPC   C3B40077  38.253  25.835   7.950
 6332POPC   C4B40078  38.270  25.906   7.650
 6333POPC   NC340079  42.332  41.592   9.450
 6333POPC   PO440080  42.331  41.547   9.150
 6333POPC   GL140081  42.325  41.550   8.850
 6333POPC   GL240082  42.226  41.467   8.850
 6333POPC   C1A40083  42.330  41.519   8.550
 6333POPC   D2A40084  42.287  41.590   8.250
 6333POPC   C3A40085  42.318  41.574   7.950
 6333POPC   C4A40086  42.369  41.559   7.650
 6333POPC   C1B40087  42.095  41.466   8.550
 6333POPC   C2B40088  42.101  41.490   8.250
 6333POPC   C3B40089  42.152  41.439   7.950
 6333POPC   C4B40090  42.066  41.460   7.650
 6334POPC   NC340091  15.971  14.403   9.450
 6334POPC   PO440092  15.952  14.386   9.150
 6334POPC   GL140093  15.931  14.397   8.850
 6334POPC   GL240094  16.076  14.459   8.850
 6334POPC   C1A40095  15.966  14.363   8.550
 6334POPC   D2A40096  15.936  14.426   8.250
 6334POPC   C3A40097  15.919  14.449   7.950
 6334POPC   C4A40098  15.917  14.405   7.650
 6334POPC   C1B40099  16.152  14.486   8.550
 6334POPC   C2B40100  16.215  14.462   8.250
 6334POPC   C3B40101  16.221  14.470   7.950
 6334POPC   C4B40102  16.245  14.428   7.650
 6335POPC   NC340103  44.658   3.549   9.450
 6335POPC   PO440104  44.683   3.498   9.150
 6335POPC   GL140105  44.706   3.548   8.850
 6335POPC   GL240106  44.627   3.647   8.850
 6335POPC   C1A40107  44.656   3.560   8.550
 6335POPC   D2A40108  44.687   3.584   8.250
 6335POPC   C3A40109  44.687   3.517   7.950
 6335POPC   C4A40110  44.650   3.559   7.650
 6335POPC   C1B40111  44.636   3.826   8.550
 6335POPC   C2B40112  44.634   3.793   8.250
 6335POPC   C3B40113  44.681   3.758   7.950
 6335POPC   C4B40114  44.657   3.809   7.650
 6336POPC   NC340115  37.686  25.284   9.450
 6336POPC   PO440116  37.686  25.287   9.150
 6336POPC   GL140117  37.724  25.219   8.850
 6336POPC   GL240118  37.585  25.156   8.850
 6336POPC   C1A40119  37.681  25.253   8.550
 6336POPC   D2A40120  37.667  25.229   8.250
 6336POPC   C3A40121  37.690  25.296   7.950
 6336POPC   C4A40122  37.649  25.261   7.650
 6336POPC   C1B40123  37.543  25.093   8.550
 6336POPC   C2B40124  37.487  25.107   8.250
 6336POPC   C3B40125  37.474  25.116   7.950
 6336POPC   C4B40126  37.535  25.068   7.650
 6337POPC   NC340127  36.863  17.468   9.450
 6337POPC   PO440128  36.933  17.554   9.150
 6337POPC   GL140129  36.913  17.535   8.850
 6337POPC   GL240130  37.002  17.595   8.850
 6337POPC   C1A40131  36.861  17.508   8.550
 6337POPC   D2A40132  36.873  17.540   8.250
 6337POPC   C3A40133  36.885  17.493   7.950
 6337POPC   C4A40134  36.896  17.556   7.650
 6337POPC   C1B40135  37.062  17.693   8.550
 6337POPC   C2B40136  37.089  17.655   8.250
 6337POPC   C3B40137  37.109  17.676   7.950
 6337POPC   C4B40138  37.058  17.708   7.650
 6338POPC   NC340139   2.756  15.214   9.450
 6338POPC   PO440140   2.757  15.147   9.150
 6338POPC   GL140141   2.812  15.166   8.850
 6338POPC   GL240142   2.617  15.243   8.850
 6338POPC   C1A40143   2.731  15.143   8.550
 6338POPC   D2A40144   2.800  15.180   8.250
 6338POPC   C3A40145   2.781  15.203   7.950
 6338POPC   C4A40146   2.769  15.176   7.650
 6338POPC   C1B40147   2.585  15.325   8.550
 6338POPC   C2B40148   2.573  15.324   8.250
 6338POPC   C3B40149   2.506  15.247   7.950
 6338POPC   C4B40150   2.498  15.288   7.650
 6339POPC   NC340151   1.216   7.467   9.450
 6339POPC   PO440152   1.246   7.391   9.150
 6339POPC   GL140153   1.184   7.398   8.850
 6339POPC   GL240154   1.292   7.316   8.850
 6339POPC   C1A40155   1.214   7.468   8.550
 6339POPC   D2A40156   1.173   7.460   8.250
 6339POPC   C3A40157   1.187   7.465   7.950
 6339POPC   C4A40158   1.228   7.383   7.650
 6339POPC   C1B40159   1.423   7.220   8.550
 6339POPC   C2B40160   1.356   7.286   8.250
 6339POPC   C3B40161   1.426   7.228   7.950
 6339POPC   C4B40162   1.372   7.236   7.650
 6340POPC   NC340163  18.278  19.054   9.450
 6340POPC   PO440164  18.316  19.105   9.150
 6340POPC   GL140165  18.286  19.045   8.850
 6340POPC   GL240166  18.283  19.159   8.850
 6340POPC   C1A40167  18.290  19.053   8.550
 6340POPC   D2A40168  18.289  19.084   8.250
 6340POPC   C3A40169  18.248  19.044   7.950
 6340POPC   C4A40170  18.328  19.075   7.650
 6340POPC   C1B40171  18.356  19.298   8.550
 6340POPC   C2B40172  18.283  19.273   8.250
 6340POPC   C3B40173  18.338  19.260   7.950
 6340POPC   C4B40174  18.280  19.271   7.650
 6341POPC   NC340175  19.861  34.591   9.450
 6341POPC   PO440176  19.831  34.546   9.150
 6341POPC   GL140177  19.792  34.623   8.850
 6341POPC   GL240178  19.967  34.657   8.850
 6341POPC   C1A40179  19.846  34.584   8.550
 6341POPC   D2A40180  19.800  34.534   8.250
 6341POPC   C3A40181  19.819  34.624   7.950
 6341POPC   C4A40182  19.793  34.542   7.650
 6341POPC   C1B40183  20.012  34.704   8.550
 6341POPC   C2B40184  19.983  34.754   8.250
 6341POPC   C3B40185  19.996  34.771   7.950
 6341POPC   C4B40186  20.043  34.704   7.650
 6342POPC   NC340187  26.056   3.502   9.450
 6342POPC   PO440188  26.041   3.508   9.150
 6342POPC   GL140189  26.036   3.561   8.850
 6342POPC   GL240190  26.026   3.704   8.850
 6342POPC   C1A40191  26.043   3.514   8.550
 6342POPC   D2A40192  26.085   3.585   8.250
 6342POPC   C3A40193  26.003   3.561   7.950
 6342POPC   C4A40194  26.075   3.503   7.650
 6342POPC   C1B40195  26.053   3.759   8.550
 6342POPC   C2B40196  26.039   3.815   8.250
 6342POPC   C3B40197  26.098   3.794   7.950
 6342POPC   C4B40198  26.075   3.802   7.650
 6343POPC   NC340199  21.352  24.440   9.450
 6343POPC   PO440200  21.363  24.532   9.150
 6343POPC   GL140201  21.361  24.467   8.850
 6343POPC   GL240202  21.455  24.399   8.850
 6343POPC   C1A40203  21.428  24.526   8.550
 6343POPC   D2A40204  21.344  24.501   8.250
 6343POPC   C3A40205  21.343  24.524   7.950
 6343POPC   C4A40206  21.395  24.478   7.650
 6343POPC   C1B40207  21.550  24.358   8.550
 6343POPC   C2B40208  21.529  24.295   8.250
 6343POPC   C3B40209  21.567  24.315   7.950
 6343POPC   C4B40210  21.526  24.338   7.650
 6344POPC   NC340211  16.692  16.689   9.450
 6344POPC   PO440212  16.768  16.761   9.150
 6344POPC   GL140213  16.721  16.759   8.850
 6344POPC   GL240214  16.606  16.664   8.850
 6344POPC   C1A40215  16.742  16.743   8.550
 6344POPC   D2A40216  16.715  16.721   8.250
 6344POPC   C3A40217  16.748  16.713   7.950
 6344POPC   C4A40218  16.710  16.722   7.650
 6344POPC   C1B40219  16.540  16.493   8.550
 6344POPC   C2B40220  16.538  16.527   8.250
 6344POPC   C3B40221  16.546  16.575   7.950
 6344POPC   C4B40222  16.606  16.576   7.650
 6345POPC   NC340223   0.423  32.226   9.450
 6345POPC   PO440224   0.477  32.280   9.150
 6345POPC   GL140225   0.421  32.221   8.850
 6345POPC   GL240226   0.323  32.288   8.850
 6345POPC   C1A40227   0.466  32.297   8.550
 6345POPC   D2A40228   0.441  32.281   8.250
 6345POPC   C3A40229   0.449  32.266   7.950
 6345POPC   C4A40230   0.479  32.220   7.650
 6345POPC   C1B40231   0.201  32.324   8.550
 6345POPC   C2B40232   0.238  32.374   8.250
 6345POPC   C3B40233   0.221  32.379   7.950
 6345POPC   C4B40234   0.227  32.341   7.650
 6346POPC   NC340235  40.829  26.854   9.450
 6346POPC   PO440236  40.751  26.835   9.150
 6346POPC   GL140237  40.814  26.777   8.850
 6346POPC   GL240238  40.847  26.949   8.850
 6346POPC   C1A40239  40.768  26.793   8.550
 6346POPC   D2A40240  40.740  26.803   8.250
 6346POPC   C3A40241  40.773  26.777   7.950
 6346POPC   C4A40242  40.758  26.802   7.650
 6346POPC   C1B40243  40.930  27.005   8.550
 6346POPC   C2B40244  40.917  26.991   8.250
 6346POPC   C3B40245  40.915  26.978   7.950
 6346POPC   C4B40246  40.903  26.964   7.650
 6347POPC   NC340247  36.131  28.329   9.450
 6347POPC   PO440248  36.129  28.409   9.150
 6347POPC   GL140249  36.130  28.319   8.850
 6347POPC   GL240250  36.256  28.322   8.850
 6347POPC   C1A40251  36.157  28.338   8.550
 6347POPC   D2A40252  36.111  28.410   8.250
 6347POPC   C3A40253  36.102  28.397   7.950
 6347POPC   C4A40254  36.163  28.401   7.650
 6347POPC   C1B40255  36.412  28.364   8.550
 6347POPC   C2B40256  36.379  28.348   8.250
 6347POPC   C3B40257  36.371  28.334   7.950
 6347POPC   C4B40258  36.329  28.303   7.650
 6348POPC   NC340259  36.100  23.708   9.450
 6348POPC   PO440260  36.169  23.727   9.150
 6348POPC   GL140261  36.103  23.683   8.850
 6348POPC   GL240262  36.235  23.794   8.850
 6348POPC   C1A40263  36.130  23.761   8.550
 6348POPC   D2A40264  36.151  23.688   8.250
 6348POPC   C3A40265  36.160  23.710   7.950
 6348POPC   C4A40266  36.170  23.721   7.650
 6348POPC   C1B40267  36.372  23.900   8.550
 6348POPC   C2B40268  36.353  23.901   8.250
 6348POPC   C3B40269  36.336  23.886   7.950
 6348POPC   C4B40270  36.303  23.856   7.650
 6349POPC   NC340271  29.873  36.951   9.450
 6349POPC   PO440272  29.932  36.867   9.150
 6349POPC   GL140273  29.907  36.926   8.850
 6349POPC   GL240274  30.018  36.847   8.850
 6349POPC   C1A40275  29.882  36.947   8.550
 6349POPC   D2A40276  29.922  36.880   8.250
 6349POPC   C3A40277  29.958  36.863   7.950
 6349POPC   C4A40278  29.883  36.866   7.650
 6349POPC   C1B40279  30.102  36.775   8.550
 6349POPC   C2B40280  30.178  36.760   8.250
 6349POPC   C3B40281  30.177  36.792   7.950
 6349POPC   C4B40282  30.173  36.772   7.650
 6350POPC   NC340283   8.229   8.209   9.450
 6350POPC   PO440284   8.226   8.162   9.150
 6350POPC   GL140285   8.239   8.163   8.850
 6350POPC   GL240286   8.126   8.209   8.850
 6350POPC   C1A40287   8.154   8.158   8.550
 6350POPC   D2A40288   8.211   8.148   8.250
 6350POPC   C3A40289   8.236   8.221   7.950
 6350POPC   C4A40290   8.242   8.236   7.650
 6350POPC   C1B40291   7.987   8.289   8.550
 6350POPC   C2B40292   7.934   8.353   8.250
 6350POPC   C3B40293   7.938   8.270   7.950
 6350POPC   C4B40294   8.011   8.276   7.650
 6351POPC   NC340295  23.717  30.689   9.450
 6351POPC   PO440296  23.738  30.689   9.150
 6351POPC   GL140297  23.733  30.720   8.850
 6351POPC   GL240298  23.619  30.726   8.850
 6351POPC   C1A40299  23.746  30.738   8.550
 6351POPC   D2A40300  23.704  30.687   8.250
 6351POPC   C3A40301  23.752  30.655   7.950
 6351POPC   C4A40302  23.711  30.745   7.650
 6351POPC   C1B40303  23.509  30.820   8.550
 6351POPC   C2B40304  23.438  30.822   8.250
 6351POPC   C3B40305  23.436  30.773   7.950
 6351POPC   C4B40306  23.496  30.777   7.650
 6352POPC   NC340307  11.316  42.362   9.450
 6352POPC   PO440308  11.267  42.370   9.150
 6352POPC   GL140309  11.337  42.376   8.850
 6352POPC   GL240310  11.402  42.310   8.850
 6352POPC   C1A40311  11.345  42.295   8.550
 6352POPC   D2A40312  11.315  42.351   8.250
 6352POPC   C3A40313  11.302  42.341   7.950
 6352POPC   C4A40314  11.346  42.380   7.650
 6352POPC   C1B40315  11.477  42.250   8.550
 6352POPC   C2B40316  11.506  42.263   8.250
 6352POPC   C3B40317  11.555  42.258   7.950
 6352POPC   C4B40318  11.537  42.185   7.650
 6353POPC   NC340319  43.871  42.349   9.450
 6353POPC   PO440320  43.867  42.375   9.150
 6353POPC   GL140321  43.920  42.329   8.850
 6353POPC   GL240322  43.896  42.215   8.850
 6353POPC   C1A40323  43.899  42.299   8.550
 6353POPC   D2A40324  43.907  42.315   8.250
 6353POPC   C3A40325  43.870  42.349   7.950
 6353POPC   C4A40326  43.856  42.324   7.650
 6353POPC   C1B40327  43.958  42.072   8.550
 6353POPC   C2B40328  44.027  42.112   8.250
 6353POPC   C3B40329  44.008  42.081   7.950
 6353POPC   C4B40330  44.004  42.108   7.650
 6354POPC   NC340331  16.772  41.581   9.450
 6354POPC   PO440332  16.689  41.580   9.150
 6354POPC   GL140333  16.749  41.588   8.850
 6354POPC   GL240334  16.845  41.424   8.850
 6354POPC   C1A40335  16.739  41.552   8.550
 6354POPC   D2A40336  16.693  41.520   8.250
 6354POPC   C3A40337  16.698  41.593   7.950
 6354POPC   C4A40338  16.754  41.541   7.650
 6354POPC   C1B40339  16.904  41.359   8.550
 6354POPC   C2B40340  16.864  41.403   8.250
 6354POPC   C3B40341  16.873  41.356   7.950
 6354POPC   C4B40342  16.870  41.334   7.650
 6355POPC   NC340343  41.557   2.757   9.450
 6355POPC   PO440344  41.600   2.786   9.150
 6355POPC   GL140345  41.600   2.753   8.850
 6355POPC   GL240346  41.435   2.727   8.850
 6355POPC   C1A40347  41.563   2.745   8.550
 6355POPC   D2A40348  41.533   2.719   8.250
 6355POPC   C3A40349  41.564   2.791   7.950
 6355POPC   C4A40350  41.586   2.719   7.650
 6355POPC   C1B40351  41.277   2.772   8.550
 6355POPC   C2B40352  41.323   2.740   8.250
 6355POPC   C3B40353  41.298   2.827   7.950
 6355POPC   C4B40354  41.327   2.814   7.650
 6356POPC   NC340355  44.705  21.395   9.450
 6356POPC   PO440356  44.625  21.400   9.150
 6356POPC   GL140357  44.640  21.336   8.850
 6356POPC   GL240358  44.709  21.456   8.850
 6356POPC   C1A40359  44.633  21.402   8.550
 6356POPC   D2A40360  44.635  21.416   8.250
 6356POPC   C3A40361  44.699  21.358   7.950
 6356POPC   C4A40362  44.625  21.397   7.650
 6356POPC   C1B40363  44.856  21.539   8.550
 6356POPC   C2B40364  44.792  21.600   8.250
 6356POPC   C3B40365  44.814  21.591   7.950
 6356POPC   C4B40366  44.810  21.584   7.650
 6357POPC   NC340367  35.351  22.946   9.450
 6357POPC   PO440368  35.346  22.981   9.150
 6357POPC   GL140369  35.379  22.890   8.850
 6357POPC   GL240370  35.300  22.839   8.850
 6357POPC   C1A40371  35.323  22.968   8.550
 6357POPC   D2A40372  35.326  22.918   8.250
 6357POPC   C3A40373  35.390  22.902   7.950
 6357POPC   C4A40374  35.311  22.931   7.650
 6357POPC   C1B40375  35.277  22.668   8.550
 6357POPC   C2B40376  35.329  22.674   8.250
 6357POPC   C3B40377  35.280  22.715   7.950
 6357POPC   C4B40378  35.296  22.707   7.650
 6358POPC   NC340379   8.971  15.190   9.450
 6358POPC   PO440380   9.003  15.224   9.150
 6358POPC   GL140381   8.978  15.170   8.850
 6358POPC   GL240382   8.876  15.158   8.850
 6358POPC   C1A40383   8.952  15.177   8.550
 6358POPC   D2A40384   8.970  15.154   8.250
 6358POPC   C3A40385   8.952  15.211   7.950
 6358POPC   C4A40386   9.009  15.179   7.650
 6358POPC   C1B40387   8.705  15.088   8.550
 6358POPC   C2B40388   8.725  15.141   8.250
 6358POPC   C3B40389   8.743  15.086   7.950
 6358POPC   C4B40390   8.744  15.104   7.650
 6359POPC   NC340391  40.009  26.048   9.450
 6359POPC   PO440392  40.015  26.044   9.150
 6359POPC   GL140393  39.976  26.054   8.850
 6359POPC   GL240394  40.006  26.145   8.850
 6359POPC   C1A40395  40.037  26.009   8.550
 6359POPC   D2A40396  39.982  26.016   8.250
 6359POPC   C3A40397  40.043  26.054   7.950
 6359POPC   C4A40398  40.004  26.043   7.650
 6359POPC   C1B40399  40.002  26.293   8.550
 6359POPC   C2B40400  40.027  26.241   8.250
 6359POPC   C3B40401  40.017  26.339   7.950
 6359POPC   C4B40402  40.054  26.314   7.650
 6360POPC   NC340403  36.126  32.261   9.450
 6360POPC   PO440404  36.079  32.259   9.150
 6360POPC   GL140405  36.083  32.227   8.850
 6360POPC   GL240406  36.043  32.194   8.850
 6360POPC   C1A40407  36.152  32.253   8.550
 6360POPC   D2A40408  36.163  32.298   8.250
 6360POPC   C3A40409  36.081  32.227   7.950
 6360POPC   C4A40410  36.147  32.259   7.650
 6360POPC   C1B40411  35.860  32.214   8.550
 6360POPC   C2B40412  35.869  32.208   8.250
 6360POPC   C3B40413  35.852  32.144   7.950
 6360POPC   C4B40414  35.885  32.207   7.650
 6361POPC   NC340415  41.514  39.277   9.450
 6361POPC   PO440416  41.564  39.249   9.150
 6361POPC   GL140417  41.532  39.221   8.850
 6361POPC   GL240418  41.575  39.346   8.850
 6361POPC   C1A40419  41.568  39.280   8.550
 6361POPC   D2A40420  41.538  39.264   8.250
 6361POPC   C3A40421  41.511  39.195   7.950
 6361POPC   C4A40422  41.595  39.267   7.650
 6361POPC   C1B40423  41.540  39.475   8.550
 6361POPC   C2B40424  41.533  39.516   8.250
 6361POPC   C3B40425  41.576  39.464   7.950
 6361POPC   C4B40426  41.610  39.436   7.650
 6362POPC   NC340427   2.751  31.515   9.450
 6362POPC   PO440428   2.776  31.433   9.150
 6362POPC   GL140429   2.789  31.497   8.850
 6362POPC   GL240430   2.937  31.453   8.850
 6362POPC   C1A40431   2.758  31.457   8.550
 6362POPC   D2A40432   2.717  31.485   8.250
 6362POPC   C3A40433   2.754  31.443   7.950
 6362POPC   C4A40434   2.805  31.478   7.650
 6362POPC   C1B40435   3.028  31.476   8.550
 6362POPC   C2B40436   3.054  31.444   8.250
 6362POPC   C3B40437   3.014  31.495   7.950
 6362POPC   C4B40438   3.002  31.516   7.650
 6363POPC   NC340439  40.009  22.922   9.450
 6363POPC   PO440440  39.984  22.896   9.150
 6363POPC   GL140441  40.011  22.980   8.850
 6363POPC   GL240442  39.917  22.834   8.850
 6363POPC   C1A40443  39.970  22.937   8.550
 6363POPC   D2A40444  39.991  22.916   8.250
 6363POPC   C3A40445  40.052  22.922   7.950
 6363POPC   C4A40446  39.979  22.919   7.650
 6363POPC   C1B40447  39.842  22.793   8.550
 6363POPC   C2B40448  39.845  22.793   8.250
 6363POPC   C3B40449  39.874  22.706   7.950
 6363POPC   C4B40450  39.884  22.778   7.650
 6364POPC   NC340451  10.507  22.964   9.450
 6364POPC   PO440452  10.563  22.943   9.150
 6364POPC   GL140453  10.535  22.939   8.850
 6364POPC   GL240454  10.612  23.010   8.850
 6364POPC   C1A40455  10.544  22.964   8.550
 6364POPC   D2A40456  10.547  22.969   8.250
 6364POPC   C3A40457  10.502  22.905   7.950
 6364POPC   C4A40458  10.495  22.897   7.650
 6364POPC   C1B40459  10.751  23.004   8.550
 6364POPC   C2B40460  10.752  22.970   8.250
 6364POPC   C3B40461  10.722  23.014   7.950
 6364POPC   C4B40462  10.735  23.020   7.650
 6365POPC   NC340463   2.006  21.349   9.450
 6365POPC   PO440464   1.967  21.362   9.150
 6365POPC   GL140465   2.010  21.368   8.850
 6365POPC   GL240466   1.935  21.493   8.850
 6365POPC   C1A40467   1.961  21.397   8.550
 6365POPC   D2A40468   2.023  21.365   8.250
 6365POPC   C3A40469   1.966  21.394   7.950
 6365POPC   C4A40470   1.980  21.403   7.650
 6365POPC   C1B40471   1.871  21.618   8.550
 6365POPC   C2B40472   1.933  21.632   8.250
 6365POPC   C3B40473   1.931  21.621   7.950
 6365POPC   C4B40474   1.946  21.629   7.650
 6366POPC   NC340475  13.582  15.905   9.450
 6366POPC   PO440476  13.595  15.964   9.150
 6366POPC   GL140477  13.590  15.958   8.850
 6366POPC   GL240478  13.529  15.934   8.850
 6366POPC   C1A40479  13.632  15.905   8.550
 6366POPC   D2A40480  13.665  15.953   8.250
 6366POPC   C3A40481  13.623  15.916   7.950
 6366POPC   C4A40482  13.592  15.985   7.650
 6366POPC   C1B40483  13.401  15.874   8.550
 6366POPC   C2B40484  13.421  15.904   8.250
 6366POPC   C3B40485  13.431  15.917   7.950
 6366POPC   C4B40486  13.373  15.903   7.650
 6367POPC   NC340487  13.607  40.774   9.450
 6367POPC   PO440488  13.623  40.787   9.150
 6367POPC   GL140489  13.651  40.750   8.850
 6367POPC   GL240490  13.517  40.830   8.850
 6367POPC   C1A40491  13.634  40.825   8.550
 6367POPC   D2A40492  13.602  40.778   8.250
 6367POPC   C3A40493  13.636  40.769   7.950
 6367POPC   C4A40494  13.593  40.759   7.650
 6367POPC   C1B40495  13.434  40.940   8.550
 6367POPC   C2B40496  13.421  40.935   8.250
 6367POPC   C3B40497  13.458  40.915   7.950
 6367POPC   C4B40498  13.473  40.935   7.650
 6368POPC   NC340499   6.689   9.771   9.450
 6368POPC   PO440500   6.612   9.786   9.150
 6368POPC   GL140501   6.599   9.786   8.850
 6368POPC   GL240502   6.688   9.633   8.850
 6368POPC   C1A40503   6.606   9.735   8.550
 6368POPC   D2A40504   6.677   9.724   8.250
 6368POPC   C3A40505   6.621   9.734   7.950
 6368POPC   C4A40506   6.652   9.729   7.650
 6368POPC   C1B40507   6.612   9.514   8.550
 6368POPC   C2B40508   6.638   9.461   8.250
 6368POPC   C3B40509   6.662   9.518   7.950
 6368POPC   C4B40510   6.685   9.494   7.650
 6369POPC   NC340511  37.657  34.582   9.450
 6369POPC   PO440512  37.694  34.598   9.150
 6369POPC   GL140513  37.655  34.551   8.850
 6369POPC   GL240514  37.638  34.496   8.850
 6369POPC   C1A40515  37.690  34.590   8.550
 6369POPC   D2A40516  37.715  34.534   8.250
 6369POPC   C3A40517  37.669  34.603   7.950
 6369POPC   C4A40518  37.637  34.603   7.650
 6369POPC   C1B40519  37.536  34.419   8.550
 6369POPC   C2B40520  37.524  34.326   8.250
 6369POPC   C3B40521  37.530  34.397   7.950
 6369POPC   C4B40522  37.521  34.332   7.650
 6370POPC   NC340523   5.822  15.213   9.450
 6370POPC   PO440524   5.857  15.134   9.150
 6370POPC   GL140525   5.837  15.193   8.850
 6370POPC   GL240526   5.953  15.103   8.850
 6370POPC   C1A40527   5.821  15.151   8.550
 6370POPC   D2A40528   5.904  15.202   8.250
 6370POPC   C3A40529   5.826  15.152   7.950
 6370POPC   C4A40530   5.896  15.188   7.650
 6370POPC   C1B40531   6.119  15.116   8.550
 6370POPC   C2B40532   6.148  15.126   8.250
 6370POPC   C3B40533   6.066  15.071   7.950
 6370POPC   C4B40534   6.147  15.117   7.650
 6371POPC   NC340535   3.500  27.627   9.450
 6371POPC   PO440536   3.535  27.590   9.150
 6371POPC   GL140537   3.558  27.641   8.850
 6371POPC   GL240538   3.525  27.735   8.850
 6371POPC   C1A40539   3.524  27.594   8.550
 6371POPC   D2A40540   3.494  27.624   8.250
 6371POPC   C3A40541   3.557  27.595   7.950
 6371POPC   C4A40542   3.584  27.610   7.650
 6371POPC   C1B40543   3.450  27.823   8.550
 6371POPC   C2B40544   3.482  27.794   8.250
 6371POPC   C3B40545   3.442  27.781   7.950
 6371POPC   C4B40546   3.397  27.789   7.650
 6372POPC   NC340547  21.388  14.364   9.450
 6372POPC   PO440548  21.387  14.446   9.150
 6372POPC   GL140549  21.358  14.442   8.850
 6372POPC   GL240550  21.315  14.505   8.850
 6372POPC   C1A40551  21.337  14.419   8.550
 6372POPC   D2A40552  21.366  14.405   8.250
 6372POPC   C3A40553  21.434  14.355   7.950
 6372POPC   C4A40554  21.351  14.437   7.650
 6372POPC   C1B40555  21.363  14.698   8.550
 6372POPC   C2B40556  21.332  14.667   8.250
 6372POPC   C3B40557  21.313  14.692   7.950
 6372POPC   C4B40558  21.367  14.642   7.650
 6373POPC   NC340559   8.931  22.161   9.450
 6373POPC   PO440560   8.951  22.157   9.150
 6373POPC   GL140561   8.975  22.195   8.850
 6373POPC   GL240562   8.959  22.052   8.850
 6373POPC   C1A40563   8.949  22.170   8.550
 6373POPC   D2A40564   8.974  22.124   8.250
 6373POPC   C3A40565   9.022  22.211   7.950
 6373POPC   C4A40566   8.940  22.137   7.650
 6373POPC   C1B40567   9.009  21.871   8.550
 6373POPC   C2B40568   8.975  21.893   8.250
 6373POPC   C3B40569   9.010  21.893   7.950
 6373POPC   C4B40570   8.968  21.909   7.650
 6374POPC   NC340571  10.490  39.974   9.450
 6374POPC   PO440572  10.541  40.053   9.150
 6374POPC   GL140573  10.476  40.008   8.850
 6374POPC   GL240574  10.601  40.102   8.850
 6374POPC   C1A40575  10.479  40.048   8.550
 6374POPC   D2A40576  10.504  39.964   8.250
 6374POPC   C3A40577  10.541  40.043   7.950
 6374POPC   C4A40578  10.516  40.032   7.650
 6374POPC   C1B40579  10.683  40.228   8.550
 6374POPC   C2B40580  10.725  40.139   8.250
 6374POPC   C3B40581  10.659  40.217   7.950
 6374POPC   C4B40582  10.674  40.208   7.650
 6375POPC   NC340583   5.845  40.008   9.450
 6375POPC   PO440584   5.855  39.973   9.150
 6375POPC   GL140585   5.830  39.987   8.850
 6375POPC   GL240586   5.785  40.095   8.850
 6375POPC   C1A40587   5.887  40.037   8.550
 6375POPC   D2A40588   5.860  39.998   8.250
 6375POPC   C3A40589   5.881  39.975   7.950
 6375POPC   C4A40590   5.900  39.973   7.650
 6375POPC   C1B40591   5.654  40.127   8.550
 6375POPC   C2B40592   5.653  40.178   8.250
 6375POPC   C3B40593   5.654  40.156   7.950
 6375POPC   C4B40594   5.698  40.164   7.650
 6376POPC   NC340595  36.099   1.252   9.450
 6376POPC   PO440596  36.151   1.199   9.150
 6376POPC   GL140597  36.110   1.164   8.850
 6376POPC   GL240598  36.176   1.318   8.850
 6376POPC   C1A40599  36.157   1.182   8.550
 6376POPC   D2A40600  36.111   1.212   8.250
 6376POPC   C3A40601  36.154   1.214   7.950
 6376POPC   C4A40602  36.097   1.238   7.650
 6376POPC   C1B40603  36.229   1.461   8.550
 6376POPC   C2B40604  36.230   1.503   8.250
 6376POPC   C3B40605  36.149   1.505   7.950
 6376POPC   C4B40606  36.237   1.419   7.650
 6377POPC   NC340607  14.383   1.954   9.450
 6377POPC   PO440608  14.436   1.952   9.150
 6377POPC   GL140609  14.406   2.005   8.850
 6377POPC   GL240610  14.402   2.105   8.850
 6377POPC   C1A40611  14.409   1.997   8.550
 6377POPC   D2A40612  14.365   2.037   8.250
 6377POPC   C3A40613  14.365   2.024   7.950
 6377POPC   C4A40614  14.364   1.951   7.650
 6377POPC   C1B40615  14.443   2.228   8.550
 6377POPC   C2B40616  14.480   2.265   8.250
 6377POPC   C3B40617  14.476   2.284   7.950
 6377POPC   C4B40618  14.424   2.196   7.650
 6378POPC   NC340619  29.170  11.261   5.550
 6378POPC   PO440620  29.156  11.343   5.850
 6378POPC   GL140621  29.188  11.287   6.150
 6378POPC   GL240622  29.228  11.206   6.150
 6378POPC   C1A40623  29.099  11.260   6.450
 6378POPC   D2A40624  29.181  11.280   6.750
 6378POPC   C3A40625  29.113  11.290   7.050
 6378POPC   C4A40626  29.130  11.304   7.350
 6378POPC   C1B40627  29.274  11.091   6.450
 6378POPC   C2B40628  29.308  11.100   6.750
 6378POPC   C3B40629  29.271  11.131   7.050
 6378POPC   C4B40630  29.271  11.147   7.350
 6379POPC   NC340631  12.887   6.625   5.550
 6379POPC   PO440632  12.849   6.631   5.850
 6379POPC   GL140633  12.880   6.626   6.150
 6379POPC   GL240634  12.862   6.533   6.150
 6379POPC   C1A40635  12.876   6.605   6.450
 6379POPC   D2A40636  12.868   6.660   6.750
 6379POPC   C3A40637  12.859   6.598   7.050
 6379POPC   C4A40638  12.847   6.663   7.350
 6379POPC   C1B40639  12.957   6.365   6.450
 6379POPC   C2B40640  12.951   6.433   6.750
 6379POPC   C3B40641  12.927   6.388   7.050
 6379POPC   C4B40642  12.923   6.372   7.350
 6380POPC   NC340643   5.838  26.812   5.550
 6380POPC   PO440644   5.911  26.840   5.850
 6380POPC   GL140645   5.863  26.807   6.150
 6380POPC   GL240646   5.946  26.875   6.150
 6380POPC   C1A40647   5.862  26.778   6.450
 6380POPC   D2A40648   5.877  26.832   6.750
 6380POPC   C3A40649   5.874  26.835   7.050
 6380POPC   C4A40650   5.832  26.865   7.350
 6380POPC   C1B40651   6.101  26.925   6.450
 6380POPC   C2B40652   6.086  26.978   6.750
 6380POPC   C3B40653   6.042  26.901   7.050
 6380POPC   C4B40654   6.089  26.980   7.350
 6381POPC   NC340655  36.925  26.020   5.550
 6381POPC   PO440656  36.878  26.003   5.850
 6381POPC   GL140657  36.903  26.024   6.150
 6381POPC   GL240658  36.785  25.922   6.150
 6381POPC   C1A40659  36.932  26.039   6.450
 6381POPC   D2A40660  36.886  26.084   6.750
 6381POPC   C3A40661  36.876  26.064   7.050
 6381POPC   C4A40662  36.858  26.066   7.350
 6381POPC   C1B40663  36.745  25.858   6.450
 6381POPC   C2B40664  36.755  25.868   6.750
 6381POPC   C3B40665  36.736  25.837   7.050
 6381POPC   C4B40666  36.757  25.801   7.350
 6382POPC   NC340667  12.119   1.225   5.550
 6382POPC   PO440668  12.118   1.210   5.850
 6382POPC   GL140669  12.121   1.193   6.150
 6382POPC   GL240670  12.107   1.134   6.150
 6382POPC   C1A40671  12.078   1.167   6.450
 6382POPC   D2A40672  12.032   1.246   6.750
 6382POPC   C3A40673  12.106   1.250   7.050
 6382POPC   C4A40674  12.085   1.184   7.350
 6382POPC   C1B40675  12.213   1.011   6.450
 6382POPC   C2B40676  12.145   1.007   6.750
 6382POPC   C3B40677  12.174   1.013   7.050
 6382POPC   C4B40678  12.211   0.981   7.350
 6383POPC   NC340679  40.007  17.478   5.550
 6383POPC   PO440680  40.026  17.532   5.850
 6383POPC   GL140681  40.011  17.483   6.150
 6383POPC   GL240682  39.922  17.668   6.150
 6383POPC   C1A40683  39.973  17.551   6.450
 6383POPC   D2A40684  40.054  17.460   6.750
 6383POPC   C3A40685  40.054  17.464   7.050
 6383POPC   C4A40686  40.004  17.545   7.350
 6383POPC   C1B40687  39.918  17.759   6.450
 6383POPC   C2B40688  39.927  17.729   6.750
 6383POPC   C3B40689  39.883  17.746   7.050
 6383POPC   C4B40690  39.892  17.753   7.350
 6384POPC   NC340691  12.821  33.779   5.550
 6384POPC   PO440692  12.865  33.753   5.850
 6384POPC   GL140693  12.812  33.799   6.150
 6384POPC   GL240694  12.783  33.741   6.150
 6384POPC   C1A40695  12.813  33.795   6.450
 6384POPC   D2A40696  12.809  33.822   6.750
 6384POPC   C3A40697  12.865  33.785   7.050
 6384POPC   C4A40698  12.899  33.782   7.350
 6384POPC   C1B40699  12.633  33.745   6.450
 6384POPC   C2B40700  12.667  33.690   6.750
 6384POPC   C3B40701  12.639  33.731   7.050
 6384POPC   C4B40702  12.623  33.730   7.350
 6385POPC   NC340703  31.470  15.974   5.550
 6385POPC   PO440704  31.447  15.960   5.850
 6385POPC   GL140705  31.470  15.986   6.150
 6385POPC   GL240706  31.485  15.853   6.150
 6385POPC   C1A40707  31.433  15.933   6.450
 6385POPC   D2A40708  31.495  15.995   6.750
 6385POPC   C3A40709  31.501  15.943   7.050
 6385POPC   C4A40710  31.463  15.974   7.350
 6385POPC   C1B40711  31.491  15.682   6.450
 6385POPC   C2B40712  31.421  15.729   6.750
 6385POPC   C3B40713  31.494  15.678   7.050
 6385POPC   C4B40714  31.412  15.739   7.350
 6386POPC   NC340715  43.135  29.905   5.550
 6386POPC   PO440716  43.061  29.900   5.850
 6386POPC   GL140717  43.110  29.882   6.150
 6386POPC   GL240718  43.279  29.888   6.150
 6386POPC   C1A40719  43.081  29.927   6.450
 6386POPC   D2A40720  43.087  29.878   6.750
 6386POPC   C3A40721  43.135  29.909   7.050
 6386POPC   C4A40722  43.095  29.887   7.350
 6386POPC   C1B40723  43.334  29.938   6.450
 6386POPC   C2B40724  43.382  29.921   6.750
 6386POPC   C3B40725  43.393  29.874   7.050
 6386POPC   C4B40726  43.342  29.958   7.350
 6387POPC   NC340727  43.895  37.674   5.550
 6387POPC   PO440728  43.857  37.644   5.850
 6387POPC   GL140729  43.871  37.657   6.150
 6387POPC   GL240730  43.973  37.797   6.150
 6387POPC   C1A40731  43.844  37.700   6.450
 6387POPC   D2A40732  43.856  37.662   6.750
 6387POPC   C3A40733  43.862  37.641   7.050
 6387POPC   C4A40734  43.863  37.632   7.350
 6387POPC   C1B40735  43.976  37.909   6.450
 6387POPC   C2B40736  43.971  37.887   6.750
 6387POPC   C3B40737  44.046  37.858   7.050
 6387POPC   C4B40738  43.999  37.932   7.350
 6388POPC   NC340739  44.659  11.323   5.550
 6388POPC   PO440740  44.684  11.281   5.850
 6388POPC   GL140741  44.689  11.282   6.150
 6388POPC   GL240742  44.648  11.373   6.150
 6388POPC   C1A40743  44.695  11.322   6.450
 6388POPC   D2A40744  44.652  11.307   6.750
 6388POPC   C3A40745  44.645  11.343   7.050
 6388POPC   C4A40746  44.658  11.275   7.350
 6388POPC   C1B40747  44.702  11.506   6.450
 6388POPC   C2B40748  44.661  11.586   6.750
 6388POPC   C3B40749  44.732  11.564   7.050
 6388POPC   C4B40750  44.662  11.586   7.350
 6389POPC   NC340751  36.886  26.848   5.550
 6389POPC   PO440752  36.942  26.776   5.850
 6389POPC   GL140753  36.947  26.780   6.150
 6389POPC   GL240754  36.865  26.729   6.150
 6389POPC   C1A40755  36.872  26.830   6.450
 6389POPC   D2A40756  36.870  26.799   6.750
 6389POPC   C3A40757  36.892  26.848   7.050
 6389POPC   C4A40758  36.895  26.803   7.350
 6389POPC   C1B40759  36.790  26.631   6.450
 6389POPC   C2B40760  36.798  26.554   6.750
 6389POPC   C3B40761  36.774  26.594   7.050
 6389POPC   C4B40762  36.784  26.566   7.350
 6390POPC   NC340763  15.994   3.581   5.550
 6390POPC   PO440764  15.954   3.513   5.850
 6390POPC   GL140765  15.933   3.528   6.150
 6390POPC   GL240766  15.990   3.615   6.150
 6390POPC   C1A40767  15.979   3.565   6.450
 6390POPC   D2A40768  15.960   3.585   6.750
 6390POPC   C3A40769  15.964   3.543   7.050
 6390POPC   C4A40770  15.991   3.505   7.350
 6390POPC   C1B40771  15.992   3.760   6.450
 6390POPC   C2B40772  16.017   3.817   6.750
 6390POPC   C3B40773  16.049   3.821   7.050
 6390POPC   C4B40774  15.996   3.756   7.350
 6391POPC   NC340775  13.580  40.053   5.550
 6391POPC   PO440776  13.672  40.028   5.850
 6391POPC   GL140777  13.648  40.029   6.150
 6391POPC   GL240778  13.629  40.132   6.150
 6391POPC   C1A40779  13.670  39.983   6.450
 6391POPC   D2A40780  13.587  39.969   6.750
 6391POPC   C3A40781  13.608  39.958   7.050
 6391POPC   C4A40782  13.635  39.965   7.350
 6391POPC   C1B40783  13.654  40.269   6.450
 6391POPC   C2B40784  13.653  40.207   6.750
 6391POPC   C3B40785  13.572  40.222   7.050
 6391POPC   C4B40786  13.651  40.268   7.350
 6392POPC   NC340787  25.236  31.499   5.550
 6392POPC   PO440788  25.280  31.448   5.850
 6392POPC   GL140789  25.263  31.500   6.150
 6392POPC   GL240790  25.269  31.592   6.150
 6392POPC   C1A40791  25.242  31.516   6.450
 6392POPC   D2A40792  25.257  31.445   6.750
 6392POPC   C3A40793  25.249  31.466   7.050
 6392POPC   C4A40794  25.253  31.482   7.350
 6392POPC   C1B40795  25.245  31.708   6.450
 6392POPC   C2B40796  25.249  31.760   6.750
 6392POPC   C3B40797  25.291  31.707   7.050
 6392POPC   C4B40798  25.249  31.678   7.350
 6393POPC   NC340799   1.209  17.515   5.550
 6393POPC   PO440800   1.246  17.553   5.850
 6393POPC   GL140801   1.208  17.544   6.150
 6393POPC   GL240802   1.130  17.633   6.150
 6393POPC   C1A40803   1.250  17.545   6.450
 6393POPC   D2A40804   1.231  17.516   6.750
 6393POPC   C3A40805   1.260  17.538   7.050
 6393POPC   C4A40806   1.229  17.482   7.350
 6393POPC   C1B40807   1.045  17.654   6.450
 6393POPC   C2B40808   1.014  17.717   6.750
 6393POPC   C3B40809   1.071  17.739   7.050
 6393POPC   C4B40810   1.094  17.744   7.350
 6394POPC   NC340811  43.927  29.097   5.550
 6394POPC   PO440812  43.912  29.125   5.850
 6394POPC   GL140813  43.885  29.187   6.150
 6394POPC   GL240814  43.925  29.281   6.150
 6394POPC   C1A40815  43.850  29.133   6.450
 6394POPC   D2A40816  43.882  29.111   6.750
 6394POPC   C3A40817  43.870  29.160   7.050
 6394POPC   C4A40818  43.932  29.143   7.350
 6394POPC   C1B40819  44.084  29.314   6.450
 6394POPC   C2B40820  44.053  29.386   6.750
 6394POPC   C3B40821  44.037  29.316   7.050
 6394POPC   C4B40822  44.090  29.352   7.350
 6395POPC   NC340823  13.595  22.131   5.550
 6395POPC   PO440824  13.652  22.190   5.850
 6395POPC   GL140825  13.651  22.132   6.150
 6395POPC   GL240826  13.594  22.054   6.150
 6395POPC   C1A40827  13.581  22.204   6.450
 6395POPC   D2A40828  13.613  22.170   6.750
 6395POPC   C3A40829  13.632  22.185   7.050
 6395POPC   C4A40830  13.670  22.125   7.350
 6395POPC   C1B40831  13.507  21.911   6.450
 6395POPC   C2B40832  13.525  21.911   6.750
 6395POPC   C3B40833  13.528  21.913   7.050
 6395POPC   C4B40834  13.592  21.942   7.350
 6396POPC   NC340835   8.931  27.590   5.550
 6396POPC   PO440836   8.945  27.613   5.850
 6396POPC   GL140837   8.946  27.551   6.150
 6396POPC   GL240838   8.973  27.717   6.150
 6396POPC   C1A40839   9.008  27.549   6.450
 6396POPC   D2A40840   8.999  27.550   6.750
 6396POPC   C3A40841   8.991  27.574   7.050
 6396POPC   C4A40842   8.980  27.630   7.350
 6396POPC   C1B40843   8.968  27.803   6.450
 6396POPC   C2B40844   9.022  27.888   6.750
 6396POPC   C3B40845   8.944  27.805   7.050
 6396POPC   C4B40846   8.995  27.798   7.350
 6397POPC   NC340847  39.958  15.135   5.550
 6397POPC   PO440848  40.014  15.141   5.850
 6397POPC   GL140849  39.969  15.224   6.150
 6397POPC   GL240850  40.123  15.174   6.150
 6397POPC   C1A40851  40.006  15.196   6.450
 6397POPC   D2A40852  39.976  15.171   6.750
 6397POPC   C3A40853  40.033  15.219   7.050
 6397POPC   C4A40854  40.022  15.181   7.350
 6397POPC   C1B40855  40.291  15.231   6.450
 6397POPC   C2B40856  40.221  15.222   6.750
 6397POPC   C3B40857  40.298  15.201   7.050
 6397POPC   C4B40858  40.246  15.226   7.350
 6398POPC   NC340859  22.149   2.798   5.550
 6398POPC   PO440860  22.177   2.798   5.850
 6398POPC   GL140861  22.141   2.807   6.150
 6398POPC   GL240862  22.020   2.730   6.150
 6398POPC   C1A40863  22.153   2.748   6.450
 6398POPC   D2A40864  22.138   2.812   6.750
 6398POPC   C3A40865  22.123   2.799   7.050
 6398POPC   C4A40866  22.202   2.790   7.350
 6398POPC   C1B40867  21.981   2.585   6.450
 6398POPC   C2B40868  21.973   2.611   6.750
 6398POPC   C3B40869  21.965   2.650   7.050
 6398POPC   C4B40870  21.972   2.593   7.350
 6399POPC   NC340871  24.523  20.596   5.550
 6399POPC   PO440872  24.507  20.645   5.850
 6399POPC   GL140873  24.502  20.636   6.150
 6399POPC   GL240874  24.323  20.645   6.150
 6399POPC   C1A40875  24.486  20.572   6.450
 6399POPC   D2A40876  24.455  20.593   6.750
 6399POPC   C3A40877  24.463  20.645   7.050
 6399POPC   C4A40878  24.485  20.600   7.350
 6399POPC   C1B40879  24.206  20.599   6.450
 6399POPC   C2B40880  24.238  20.602   6.750
 6399POPC   C3B40881  24.194  20.571   7.050
 6399POPC   C4B40882  24.234  20.637   7.350
 6400POPC   NC340883  43.079  29.162   5.550
 6400POPC   PO440884  43.078  29.120   5.850
 6400POPC   GL140885  43.082  29.101   6.150
 6400POPC   GL240886  43.003  29.290   6.150
 6400POPC   C1A40887  43.095  29.175   6.450
 6400POPC   D2A40888  43.069  29.103   6.750
 6400POPC   C3A40889  43.088  29.121   7.050
 6400POPC   C4A40890  43.133  29.110   7.350
 6400POPC   C1B40891  42.985  29.301   6.450
 6400POPC   C2B40892  42.946  29.320   6.750
 6400POPC   C3B40893  42.950  29.386   7.050
 6400POPC   C4B40894  42.938  29.307   7.350
 6401POPC   NC340895  26.862   0.437   5.550
 6401POPC   PO440896  26.778   0.443   5.850
 6401POPC   GL140897  26.798   0.480   6.150
 6401POPC   GL240898  26.921   0.451   6.150
 6401POPC   C1A40899  26.833   0.430   6.450
 6401POPC   D2A40900  26.800   0.459   6.750
 6401POPC   C3A40901  26.808   0.479   7.050
 6401POPC   C4A40902  26.858   0.426   7.350
 6401POPC   C1B40903  27.019   0.575   6.450
 6401POPC   C2B40904  27.073   0.562   6.750
 6401POPC   C3B40905  27.013   0.512   7.050
 6401POPC   C4B40906  27.056   0.580   7.350
 6402POPC   NC340907  12.098   7.436   5.550
 6402POPC   PO440908  12.051   7.443   5.850
 6402POPC   GL140909  12.112   7.441   6.150
 6402POPC   GL240910  12.086   7.521   6.150
 6402POPC   C1A40911  12.041   7.396   6.450
 6402POPC   D2A40912  12.094   7.402   6.750
 6402POPC   C3A40913  12.126   7.397   7.050
 6402POPC   C4A40914  12.073   7.385   7.350
 6402POPC   C1B40915  11.989   7.672   6.450
 6402POPC   C2B40916  11.960   7.706   6.750
 6402POPC   C3B40917  12.043   7.688   7.050
 6402POPC   C4B40918  11.963   7.641   7.350
 6403POPC   NC340919   5.048  11.264   5.550
 6403POPC   PO440920   5.090  11.295   5.850
 6403POPC   GL140921   5.087  11.303   6.150
 6403POPC   GL240922   5.203  11.405   6.150
 6403POPC   C1A40923   5.097  11.259   6.450
 6403POPC   D2A40924   5.093  11.338   6.750
 6403POPC   C3A40925   5.140  11.282   7.050
 6403POPC   C4A40926   5.133  11.291   7.350
 6403POPC   C1B40927   5.277  11.494   6.450
 6403POPC   C2B40928   5.317  11.465   6.750
 6403POPC   C3B40929   5.273  11.422   7.050
 6403POPC   C4B40930   5.294  11.416   7.350
 6404POPC   NC340931   8.199  21.408   5.550
 6404POPC   PO440932   8.241  21.353   5.850
 6404POPC   GL140933   8.178  21.408   6.150
 6404POPC   GL240934   8.141  21.237   6.150
 6404POPC   C1A40935   8.198  21.434   6.450
 6404POPC   D2A40936   8.185  21.387   6.750
 6404POPC   C3A40937   8.173  21.406   7.050
 6404POPC   C4A40938   8.218  21.364   7.350
 6404POPC   C1B40939   8.070  21.120   6.450
 6404POPC   C2B40940   8.153  21.185   6.750
 6404POPC   C3B40941   8.090  21.191   7.050
 6404POPC   C4B40942   8.097  21.115   7.350
 6405POPC   NC340943  32.986   2.758   5.550
 6405POPC   PO440944  33.063   2.752   5.850
 6405POPC   GL140945  32.975   2.792   6.150
 6405POPC   GL240946  33.173   2.798   6.150
 6405POPC   C1A40947  33.061   2.785   6.450
 6405POPC   D2A40948  33.015   2.751   6.750
 6405POPC   C3A40949  32.985   2.762   7.050
 6405POPC   C4A40950  32.991   2.789   7.350
 6405POPC   C1B40951  33.294   2.785   6.450
 6405POPC   C2B40952  33.249   2.733   6.750
 6405POPC   C3B40953  33.263   2.801   7.050
 6405POPC   C4B40954  33.277   2.800   7.350
 6406POPC   NC340955  13.655  12.894   5.550
 6406POPC   PO440956  13.674  12.884   5.850
 6406POPC   GL140957  13.582  12.834   6.150
 6406POPC   GL240958  13.509  12.798   6.150
 6406POPC   C1A40959  13.581  12.901   6.450
 6406POPC   D2A40960  13.600  12.874   6.750
 6406POPC   C3A40961  13.617  12.842   7.050
 6406POPC   C4A40962  13.606  12.877   7.350
 6406POPC   C1B40963  13.386  12.670   6.450
 6406POPC   C2B40964  13.476  12.647   6.750
 6406POPC   C3B40965  13.387  12.651   7.050
 6406POPC   C4B40966  13.464  12.715   7.350
 6407POPC   NC340967  12.863   4.331   5.550
 6407POPC   PO440968  12.836   4.294   5.850
 6407POPC   GL140969  12.809   4.354   6.150
 6407POPC   GL240970  12.744   4.231   6.150
 6407POPC   C1A40971  12.844   4.338   6.450
 6407POPC   D2A40972  12.885   4.279   6.750
 6407POPC   C3A40973  12.886   4.316   7.050
 6407POPC   C4A40974  12.808   4.332   7.350
 6407POPC   C1B40975  12.654   4.179   6.450
 6407POPC   C2B40976  12.601   4.223   6.750
 6407POPC   C3B40977  12.573   4.228   7.050
 6407POPC   C4B40978  12.608   4.216   7.350
 6408POPC   NC340979  41.567  13.607   5.550
 6408POPC   PO440980  41.571  13.616   5.850
 6408POPC   GL140981  41.589  13.657   6.150
 6408POPC   GL240982  41.483  13.692   6.150
 6408POPC   C1A40983  41.569  13.652   6.450
 6408POPC   D2A40984  41.572  13.612   6.750
 6408POPC   C3A40985  41.517  13.640   7.050
 6408POPC   C4A40986  41.544  13.644   7.350
 6408POPC   C1B40987  41.365  13.784   6.450
 6408POPC   C2B40988  41.345  13.777   6.750
 6408POPC   C3B40989  41.337  13.722   7.050
 6408POPC   C4B40990  41.346  13.718   7.350
 6409POPC   NC340991  34.546   2.759   5.550
 6409POPC   PO440992  34.618   2.753   5.850
 6409POPC   GL140993  34.586   2.760   6.150
 6409POPC   GL240994  34.540   2.680   6.150
 6409POPC   C1A40995  34.568   2.744   6.450
 6409POPC   D2A40996  34.539   2.749   6.750
 6409POPC   C3A40997  34.596   2.721   7.050
 6409POPC   C4A40998  34.536   2.732   7.350
 6409POPC   C1B40999  34.542   2.512   6.450
 6409POPC   C2B41000  34.552   2.497   6.750
 6409POPC   C3B41001  34.568   2.507   7.050
 6409POPC   C4B41002  34.516   2.501   7.350
 6410POPC   NC341003  43.898  12.889   5.550
 6410POPC   PO441004  43.838  12.883   5.850
 6410POPC   GL141005  43.838  12.879   6.150
 6410POPC   GL241006  43.998  12.778   6.150
 6410POPC   C1A41007  43.874  12.867   6.450
 6410POPC   D2A41008  43.936  12.870   6.750
 6410POPC   C3A41009  43.852  12.863   7.050
 6410POPC   C4A41010  43.897  12.888   7.350
 6410POPC   C1B41011  44.076  12.705   6.450
 6410POPC   C2B41012  44.069  12.641   6.750
 6410POPC   C3B41013  44.082  12.672   7.050
 6410POPC   C4B41014  44.086  12.662   7.350
 6411POPC   NC341015   1.239  29.931   5.550
 6411POPC   PO441016   1.200  29.880   5.850
 6411POPC   GL141017   1.262  29.878   6.150
 6411POPC   GL241018   1.130  29.862   6.150
 6411POPC   C1A41019   1.231  29.960   6.450
 6411POPC   D2A41020   1.202  29.956   6.750
 6411POPC   C3A41021   1.175  29.910   7.050
 6411POPC   C4A41022   1.225  29.949   7.350
 6411POPC   C1B41023   1.014  29.774   6.450
 6411POPC   C2B41024   1.018  29.768   6.750
 6411POPC   C3B41025   0.977  29.827   7.050
 6411POPC   C4B41026   0.976  29.802   7.350
 6412POPC   NC341027  41.587  36.915   5.550
 6412POPC   PO441028  41.602  36.937   5.850
 6412POPC   GL141029  41.599  36.897   6.150
 6412POPC   GL241030  41.510  37.014   6.150
 6412POPC   C1A41031  41.524  36.863   6.450
 6412POPC   D2A41032  41.547  36.934   6.750
 6412POPC   C3A41033  41.522  36.862   7.050
 6412POPC   C4A41034  41.604  36.947   7.350
 6412POPC   C1B41035  41.554  37.116   6.450
 6412POPC   C2B41036  41.501  37.175   6.750
 6412POPC   C3B41037  41.564  37.135   7.050
 6412POPC   C4B41038  41.561  37.192   7.350
 6413POPC   NC341039  22.930  12.899   5.550
 6413POPC   PO441040  22.929  12.836   5.850
 6413POPC   GL141041  22.916  12.878   6.150
 6413POPC   GL241042  22.780  12.842   6.150
 6413POPC   C1A41043  22.918  12.872   6.450
 6413POPC   D2A41044  22.961  12.872   6.750
 6413POPC   C3A41045  22.963  12.872   7.050
 6413POPC   C4A41046  22.948  12.901   7.350
 6413POPC   C1B41047  22.722  12.819   6.450
 6413POPC   C2B41048  22.664  12.863   6.750
 6413POPC   C3B41049  22.662  12.811   7.050
 6413POPC   C4B41050  22.734  12.870   7.350
 6414POPC   NC341051  29.962  13.620   5.550
 6414POPC   PO441052  29.924  13.608   5.850
 6414POPC   GL141053  29.920  13.667   6.150
 6414POPC   GL241054  29.979  13.517   6.150
 6414POPC   C1A41055  29.932  13.664   6.450
 6414POPC   D2A41056  29.880  13.657   6.750
 6414POPC   C3A41057  29.880  13.591   7.050
 6414POPC   C4A41058  29.950  13.602   7.350
 6414POPC   C1B41059  29.997  13.440   6.450
 6414POPC   C2B41060  29.998  13.434   6.750
 6414POPC   C3B41061  30.025  13.367   7.050
 6414POPC   C4B41062  30.008  13.420   7.350
 6415POPC   NC341063  39.229  15.923   5.550
 6415POPC   PO441064  39.189  15.979   5.850
 6415POPC   GL141065  39.212  15.942   6.150
 6415POPC   GL241066  39.282  15.847   6.150
 6415POPC   C1A41067  39.239  15.959   6.450
 6415POPC   D2A41068  39.280  16.005   6.750
 6415POPC   C3A41069  39.234  15.945   7.050
 6415POPC   C4A41070  39.233  15.947   7.350
 6415POPC   C1B41071  39.319  15.703   6.450
 6415POPC   C2B41072  39.274  15.760   6.750
 6415POPC   C3B41073  39.350  15.704   7.050
 6415POPC   C4B41074  39.312  15.680   7.350
 6416POPC   NC341075  16.685  19.831   5.550
 6416POPC   PO441076  16.779  19.832   5.850
 6416POPC   GL141077  16.754  19.851   6.150
 6416POPC   GL241078  16.635  19.704   6.150
 6416POPC   C1A41079  16.701  19.826   6.450
 6416POPC   D2A41080  16.774  19.877   6.750
 6416POPC   C3A41081  16.692  19.795   7.050
 6416POPC   C4A41082  16.703  19.809   7.350
 6416POPC   C1B41083  16.576  19.581   6.450
 6416POPC   C2B41084  16.596  19.597   6.750
 6416POPC   C3B41085  16.609  19.620   7.050
 6416POPC   C4B41086  16.596  19.650   7.350
 6417POPC   NC341087  15.219  28.413   5.550
 6417POPC   PO441088  15.192  28.376   5.850
 6417POPC   GL141089  15.183  28.397   6.150
 6417POPC   GL241090  15.015  28.340   6.150
 6417POPC   C1A41091  15.213  28.328   6.450
 6417POPC   D2A41092  15.173  28.403   6.750
 6417POPC   C3A41093  15.134  28.409   7.050
 6417POPC   C4A41094  15.155  28.338   7.350
 6417POPC   C1B41095  14.928  28.392   6.450
 6417POPC   C2B41096  14.916  28.380   6.750
 6417POPC   C3B41097  14.977  28.408   7.050
 6417POPC   C4B41098  14.909  28.410   7.350
 6418POPC   NC341099  32.249  25.257   5.550
 6418POPC   PO441100  32.280  25.227   5.850
 6418POPC   GL141101  32.260  25.260   6.150
 6418POPC   GL241102  32.172  25.190   6.150
 6418POPC   C1A41103  32.296  25.230   6.450
 6418POPC   D2A41104  32.284  25.269   6.750
 6418POPC   C3A41105  32.218  25.280   7.050
 6418POPC   C4A41106  32.209  25.235   7.350
 6418POPC   C1B41107  32.019  25.195   6.450
 6418POPC   C2B41108  32.017  25.130   6.750
 6418POPC   C3B41109  32.031  25.150   7.050
 6418POPC   C4B41110  32.028  25.204   7.350
 6419POPC   NC341111  33.788  11.275   5.550
 6419POPC   PO441112  33.792  11.285   5.850
 6419POPC   GL141113  33.841  11.300   6.150
 6419POPC   GL241114  33.793  11.139   6.150
 6419POPC   C1A41115  33.776  11.291   6.450
 6419POPC   D2A41116  33.810  11.261   6.750
 6419POPC   C3A41117  33.754  11.254   7.050
 6419POPC   C4A41118  33.766  11.286   7.350
 6419POPC   C1B41119  33.793  11.022   6.450
 6419POPC   C2B41120  33.818  11.030   6.750
 6419POPC   C3B41121  33.748  11.017   7.050
 6419POPC   C4B41122  33.743  11.043   7.350
 6420POPC   NC341123   0.486   8.999   5.550
 6420POPC   PO441124   0.467   8.980   5.850
 6420POPC   GL141125   0.423   8.942   6.150
 6420POPC   GL241126   0.561   9.052   6.150
 6420POPC   C1A41127   0.481   8.926   6.450
 6420POPC   D2A41128   0.452   9.007   6.750
 6420POPC   C3A41129   0.442   8.988   7.050
 6420POPC   C4A41130   0.452   8.934   7.350
 6420POPC   C1B41131   0.704   9.036   6.450
 6420POPC   C2B41132   0.626   9.096   6.750
 6420POPC   C3B41133   0.642   9.103   7.050
 6420POPC   C4B41134   0.720   9.096   7.350
 6421POPC   NC341135  33.754   4.281   5.550
 6421POPC   PO441136  33.759   4.340   5.850
 6421POPC   GL141137  33.790   4.285   6.150
 6421POPC   GL241138  33.930   4.353   6.150
 6421POPC   C1A41139  33.788   4.286   6.450
 6421POPC   D2A41140  33.798   4.367   6.750
 6421POPC   C3A41141  33.796   4.319   7.050
 6421POPC   C4A41142  33.849   4.302   7.350
 6421POPC   C1B41143  34.033   4.420   6.450
 6421POPC   C2B41144  34.057   4.418   6.750
 6421POPC   C3B41145  33.991   4.417   7.050
 6421POPC   C4B41146  34.040   4.457   7.350
 6422POPC   NC341147  15.143   1.232   5.550
 6422POPC   PO441148  15.141   1.174   5.850
 6422POPC   GL141149  15.215   1.169   6.150
 6422POPC   GL241150  15.109   1.166   6.150
 6422POPC   C1A41151  15.140   1.245   6.450
 6422POPC   D2A41152  15.185   1.229   6.750
 6422POPC   C3A41153  15.158   1.237   7.050
 6422POPC   C4A41154  15.225   1.202   7.350
 6422POPC   C1B41155  15.027   0.986   6.450
 6422POPC   C2B41156  14.981   1.015   6.750
 6422POPC   C3B41157  14.975   0.999   7.050
 6422POPC   C4B41158  15.057   1.023   7.350
 6423POPC   NC341159  44.633  31.472   5.550
 6423POPC   PO441160  44.661  31.476   5.850
 6423POPC   GL141161  44.663  31.427   6.150
 6423POPC   GL241162  44.722  31.397   6.150
 6423POPC   C1A41163  44.657  31.430   6.450
 6423POPC   D2A41164  44.675  31.441   6.750
 6423POPC   C3A41165  44.689  31.508   7.050
 6423POPC   C4A41166  44.692  31.453   7.350
 6423POPC   C1B41167  44.790  31.280   6.450
 6423POPC   C2B41168  44.739  31.207   6.750
 6423POPC   C3B41169  44.724  31.227   7.050
 6423POPC   C4B41170  44.807  31.273   7.350
 6424POPC   NC341171  26.839   1.202   5.550
 6424POPC   PO441172  26.774   1.186   5.850
 6424POPC   GL141173  26.852   1.170   6.150
 6424POPC   GL241174  26.652   1.257   6.150
 6424POPC   C1A41175  26.849   1.253   6.450
 6424POPC   D2A41176  26.834   1.245   6.750
 6424POPC   C3A41177  26.857   1.211   7.050
 6424POPC   C4A41178  26.816   1.190   7.350
 6424POPC   C1B41179  26.607   1.223   6.450
 6424POPC   C2B41180  26.582   1.176   6.750
 6424POPC   C3B41181  26.532   1.229   7.050
 6424POPC   C4B41182  26.526   1.255   7.350
 6425POPC   NC341183  32.254  28.360   5.550
 6425POPC   PO441184  32.279  28.384   5.850
 6425POPC   GL141185  32.202  28.327   6.150
 6425POPC   GL241186  32.296  28.271   6.150
 6425POPC   C1A41187  32.295  28.396   6.450
 6425POPC   D2A41188  32.284  28.407   6.750
 6425POPC   C3A41189  32.205  28.335   7.050
 6425POPC   C4A41190  32.217  28.350   7.350
 6425POPC   C1B41191  32.444  28.240   6.450
 6425POPC   C2B41192  32.439  28.190   6.750
 6425POPC   C3B41193  32.433  28.193   7.050
 6425POPC   C4B41194  32.419  28.241   7.350
 6426POPC   NC341195  33.837  17.522   5.550
 6426POPC   PO441196  33.794  17.545   5.850
 6426POPC   GL141197  33.833  17.475   6.150
 6426POPC   GL241198  33.721  17.467   6.150
 6426POPC   C1A41199  33.839  17.485   6.450
 6426POPC   D2A41200  33.782  17.497   6.750
 6426POPC   C3A41201  33.780  17.537   7.050
 6426POPC   C4A41202  33.770  17.494   7.350
 6426POPC   C1B41203  33.555  17.428   6.450
 6426POPC   C2B41204  33.578  17.399   6.750
 6426POPC   C3B41205  33.613  17.364   7.050
 6426POPC   C4B41206  33.604  17.411   7.350
 6427POPC   NC341207  15.926  10.510   5.550
 6427POPC   PO441208  15.921  10.541   5.850
 6427POPC   GL141209  15.941  10.537   6.150
 6427POPC   GL241210  16.075  10.458   6.150
 6427POPC   C1A41211  15.941  10.555   6.450
 6427POPC   D2A41212  15.957  10.568   6.750
 6427POPC   C3A41213  15.974  10.513   7.050
 6427POPC   C4A41214  15.922  10.541   7.350
 6427POPC   C1B41215  16.127  10.391   6.450
 6427POPC   C2B41216  16.168  10.304   6.750
 6427POPC   C3B41217  16.173  10.394   7.050
 6427POPC   C4B41218  16.179  10.382   7.350
 6428POPC   NC341219  12.094  19.866   5.550
 6428POPC   PO441220  12.046  19.882   5.850
 6428POPC   GL141221  12.102  19.831   6.150
 6428POPC   GL241222  11.971  19.862   6.150
 6428POPC   C1A41223  12.052  19.819   6.450
 6428POPC   D2A41224  12.077  19.821   6.750
 6428POPC   C3A41225  12.062  19.826   7.050
 6428POPC   C4A41226  12.124  19.849   7.350
 6428POPC   C1B41227  11.878  19.966   6.450
 6428POPC   C2B41228  11.819  19.936   6.750
 6428POPC   C3B41229  11.823  19.990   7.050
 6428POPC   C4B41230  11.873  19.941   7.350
 6429POPC   NC341231  41.580  29.191   5.550
 6429POPC   PO441232  41.594  29.154   5.850
 6429POPC   GL141233  41.525  29.178   6.150
 6429POPC   GL241234  41.656  29.197   6.150
 6429POPC   C1A41235  41.545  29.121   6.450
 6429POPC   D2A41236  41.606  29.191   6.750
 6429POPC   C3A41237  41.531  29.143   7.050
 6429POPC   C4A41238  41.519  29.188   7.350
 6429POPC   C1B41239  41.739  29.372   6.450
 6429POPC   C2B41240  41.740  29.367   6.750
 6429POPC   C3B41241  41.689  29.338   7.050
 6429POPC   C4B41242  41.678  29.303   7.350
 6430POPC   NC341243   7.385  19.103   5.550
 6430POPC   PO441244   7.424  19.023   5.850
 6430POPC   GL141245   7.463  19.010   6.150
 6430POPC   GL241246   7.357  19.191   6.150
 6430POPC   C1A41247   7.374  19.106   6.450
 6430POPC   D2A41248   7.395  19.011   6.750
 6430POPC   C3A41249   7.409  19.102   7.050
 6430POPC   C4A41250   7.414  19.082   7.350
 6430POPC   C1B41251   7.358  19.304   6.450
 6430POPC   C2B41252   7.417  19.321   6.750
 6430POPC   C3B41253   7.404  19.271   7.050
 6430POPC   C4B41254   7.417  19.343   7.350
 6431POPC   NC341255  43.841  12.107   5.550
 6431POPC   PO441256  43.849  12.067   5.850
 6431POPC   GL141257  43.912  12.123   6.150
 6431POPC   GL241258  43.776  12.136   6.150
 6431POPC   C1A41259  43.871  12.034   6.450
 6431POPC   D2A41260  43.934  12.053   6.750
 6431POPC   C3A41261  43.855  12.114   7.050
 6431POPC   C4A41262  43.884  12.111   7.350
 6431POPC   C1B41263  43.685  12.108   6.450
 6431POPC   C2B41264  43.640  12.164   6.750
 6431POPC   C3B41265  43.633  12.170   7.050
 6431POPC   C4B41266  43.676  12.158   7.350
 6432POPC   NC341267  15.911   4.273   5.550
 6432POPC   PO441268  15.953   4.352   5.850
 6432POPC   GL141269  15.959   4.317   6.150
 6432POPC   GL241270  15.934   4.216   6.150
 6432POPC   C1A41271  15.991   4.343   6.450
 6432POPC   D2A41272  15.960   4.352   6.750
 6432POPC   C3A41273  15.957   4.354   7.050
 6432POPC   C4A41274  15.996   4.319   7.350
 6432POPC   C1B41275  15.861   4.140   6.450
 6432POPC   C2B41276  15.814   4.136   6.750
 6432POPC   C3B41277  15.871   4.104   7.050
 6432POPC   C4B41278  15.861   4.130   7.350
 6433POPC   NC341279   1.966  17.542   5.550
 6433POPC   PO441280   1.957  17.475   5.850
 6433POPC   GL141281   1.995  17.470   6.150
 6433POPC   GL241282   2.044  17.402   6.150
 6433POPC   C1A41283   2.026  17.551   6.450
 6433POPC   D2A41284   1.966  17.535   6.750
 6433POPC   C3A41285   2.023  17.497   7.050
 6433POPC   C4A41286   1.948  17.540   7.350
 6433POPC   C1B41287   2.113  17.335   6.450
 6433POPC   C2B41288   2.169  17.268   6.750
 6433POPC   C3B41289   2.123  17.340   7.050
 6433POPC   C4B41290   2.107  17.274   7.350
 6434POPC   NC341291  26.808  19.818   5.550
 6434POPC   PO441292  26.865  19.856   5.850
 6434POPC   GL141293  26.803  19.802   6.150
 6434POPC   GL241294  26.916  19.946   6.150
 6434POPC   C1A41295  26.777  19.843   6.450
 6434POPC   D2A41296  26.776  19.865   6.750
 6434POPC   C3A41297  26.810  19.864   7.050
 6434POPC   C4A41298  26.774  19.786   7.350
 6434POPC   C1B41299  27.013  20.036   6.450
 6434POPC   C2B41300  26.990  20.005   6.750
 6434POPC   C3B41301  27.030  20.057   7.050
 6434POPC   C4B41302  27.004  19.977   7.350
 6435POPC   NC341303  29.171   3.591   5.550
 6435POPC   PO441304  29.111   3.550   5.850
 6435POPC   GL141305  29.142   3.532   6.150
 6435POPC   GL241306  29.256   3.583   6.150
 6435POPC   C1A41307  29.177   3.563   6.450
 6435POPC   D2A41308  29.191   3.528   6.750
 6435POPC   C3A41309  29.136   3.552   7.050
 6435POPC   C4A41310  29.144   3.569   7.350
 6435POPC   C1B41311  29.310   3.694   6.450
 6435POPC   C2B41312  29.310   3.663   6.750
 6435POPC   C3B41313  29.366   3.640   7.050
 6435POPC   C4B41314  29.371   3.691   7.350
 6436POPC   NC341315   4.329  17.528   5.550
 6436POPC   PO441316   4.284  17.469   5.850
 6436POPC   GL141317   4.290  17.519   6.150
 6436POPC   GL241318   4.484  17.516   6.150
 6436POPC   C1A41319   4.363  17.537   6.450
 6436POPC   D2A41320   4.275  17.478   6.750
 6436POPC   C3A41321   4.309  17.521   7.050
 6436POPC   C4A41322   4.284  17.516   7.350
 6436POPC   C1B41323   4.522  17.525   6.450
 6436POPC   C2B41324   4.574  17.502   6.750
 6436POPC   C3B41325   4.561  17.564   7.050
 6436POPC   C4B41326   4.604  17.580   7.350
 6437POPC   NC341327  25.311  13.627   5.550
 6437POPC   PO441328  25.228  13.618   5.850
 6437POPC   GL141329  25.229  13.622   6.150
 6437POPC   GL241330  25.430  13.591   6.150
 6437POPC   C1A41331  25.235  13.650   6.450
 6437POPC   D2A41332  25.260  13.580   6.750
 6437POPC   C3A41333  25.253  13.597   7.050
 6437POPC   C4A41334  25.283  13.615   7.350
 6437POPC   C1B41335  25.504  13.624   6.450
 6437POPC   C2B41336  25.474  13.658   6.750
 6437POPC   C3B41337  25.486  13.662   7.050
 6437POPC   C4B41338  25.494  13.658   7.350
 6438POPC   NC341339   5.900  23.711   5.550
 6438POPC   PO441340   5.823  23.677   5.850
 6438POPC   GL141341   5.899  23.676   6.150
 6438POPC   GL241342   5.885  23.828   6.150
 6438POPC   C1A41343   5.844  23.701   6.450
 6438POPC   D2A41344   5.829  23.689   6.750
 6438POPC   C3A41345   5.892  23.667   7.050
 6438POPC   C4A41346   5.835  23.754   7.350
 6438POPC   C1B41347   5.940  23.972   6.450
 6438POPC   C2B41348   5.959  23.981   6.750
 6438POPC   C3B41349   5.913  23.915   7.050
 6438POPC   C4B41350   5.963  23.966   7.350
 6439POPC   NC341351  19.047  34.614   5.550
 6439POPC   PO441352  19.037  34.527   5.850
 6439POPC   GL141353  19.086  34.600   6.150
 6439POPC   GL241354  18.991  34.714   6.150
 6439POPC   C1A41355  19.048  34.602   6.450
 6439POPC   D2A41356  19.045  34.548   6.750
 6439POPC   C3A41357  19.036  34.600   7.050
 6439POPC   C4A41358  19.036  34.601   7.350
 6439POPC   C1B41359  19.010  34.771   6.450
 6439POPC   C2B41360  18.947  34.807   6.750
 6439POPC   C3B41361  19.019  34.863   7.050
 6439POPC   C4B41362  18.934  34.766   7.350
 6440POPC   NC341363  37.673  10.517   5.550
 6440POPC   PO441364  37.687  10.484   5.850
 6440POPC   GL141365  37.688  10.565   6.150
 6440POPC   GL241366  37.818  10.564   6.150
 6440POPC   C1A41367  37.633  10.533   6.450
 6440POPC   D2A41368  37.656  10.478   6.750
 6440POPC   C3A41369  37.697  10.529   7.050
 6440POPC   C4A41370  37.729  10.519   7.350
 6440POPC   C1B41371  37.891  10.620   6.450
 6440POPC   C2B41372  37.949  10.613   6.750
 6440POPC   C3B41373  37.896  10.607   7.050
 6440POPC   C4B41374  37.913  10.597   7.350
 6441POPC   NC341375   5.913  29.919   5.550
 6441POPC   PO441376   5.896  29.937   5.850
 6441POPC   GL141377   5.876  29.911   6.150
 6441POPC   GL241378   5.768  29.813   6.150
 6441POPC   C1A41379   5.899  29.935   6.450
 6441POPC   D2A41380   5.888  29.926   6.750
 6441POPC   C3A41381   5.824  29.929   7.050
 6441POPC   C4A41382   5.852  29.935   7.350
 6441POPC   C1B41383   5.637  29.794   6.450
 6441POPC   C2B41384   5.617  29.759   6.750
 6441POPC   C3B41385   5.637  29.747   7.050
 6441POPC   C4B41386   5.703  29.789   7.350
 6442POPC   NC341387  14.382  15.141   5.550
 6442POPC   PO441388  14.404  15.180   5.850
 6442POPC   GL141389  14.371  15.196   6.150
 6442POPC   GL241390  14.438  15.044   6.150
 6442POPC   C1A41391  14.424  15.154   6.450
 6442POPC   D2A41392  14.402  15.160   6.750
 6442POPC   C3A41393  14.426  15.222   7.050
 6442POPC   C4A41394  14.424  15.139   7.350
 6442POPC   C1B41395  14.445  14.952   6.450
 6442POPC   C2B41396  14.480  14.973   6.750
 6442POPC   C3B41397  14.533  14.988   7.050
 6442POPC   C4B41398  14.463  14.917   7.350
 6443POPC   NC341399  26.036  17.540   5.550
 6443POPC   PO441400  26.031  17.532   5.850
 6443POPC   GL141401  26.081  17.484   6.150
 6443POPC   GL241402  25.917  17.429   6.150
 6443POPC   C1A41403  26.006  17.545   6.450
 6443POPC   D2A41404  26.060  17.463   6.750
 6443POPC   C3A41405  26.028  17.472   7.050
 6443POPC   C4A41406  26.046  17.485   7.350
 6443POPC   C1B41407  25.847  17.300   6.450
 6443POPC   C2B41408  25.846  17.383   6.750
 6443POPC   C3B41409  25.802  17.348   7.050
 6443POPC   C4B41410  25.804  17.334   7.350
 6444POPC   NC341411   4.351   8.992   5.550
 6444POPC   PO441412   4.342   8.996   5.850
 6444POPC   GL141413   4.313   8.958   6.150
 6444POPC   GL241414   4.335   8.851   6.150
 6444POPC   C1A41415   4.331   8.962   6.450
 6444POPC   D2A41416   4.323   8.965   6.750
 6444POPC   C3A41417   4.339   8.982   7.050
 6444POPC   C4A41418   4.297   8.962   7.350
 6444POPC   C1B41419   4.411   8.734   6.450
 6444POPC   C2B41420   4.366   8.699   6.750
 6444POPC   C3B41421   4.380   8.718   7.050
 6444POPC   C4B41422   4.397   8.771   7.350
 6445POPC   NC341423   5.905  15.160   5.550
 6445POPC   PO441424   5.894  15.224   5.850
 6445POPC   GL141425   5.838  15.159   6.150
 6445POPC   GL241426   5.843  15.239   6.150
 6445POPC   C1A41427   5.856  15.134   6.450
 6445POPC   D2A41428   5.833  15.140   6.750
 6445POPC   C3A41429   5.900  15.143   7.050
 6445POPC   C4A41430   5.847  15.160   7.350
 6445POPC   C1B41431   5.730  15.409   6.450
 6445POPC   C2B41432   5.766  15.435   6.750
 6445POPC   C3B41433   5.749  15.341   7.050
 6445POPC   C4B41434   5.720  15.373   7.350
 6446POPC   NC341435  14.418  41.578   5.550
 6446POPC   PO441436  14.392  41.608   5.850
 6446POPC   GL141437  14.444  41.531   6.150
 6446POPC   GL241438  14.447  41.623   6.150
 6446POPC   C1A41439  14.355  41.543   6.450
 6446POPC   D2A41440  14.434  41.556   6.750
 6446POPC   C3A41441  14.359  41.608   7.050
 6446POPC   C4A41442  14.376  41.571   7.350
 6446POPC   C1B41443  14.545  41.788   6.450
 6446POPC   C2B41444  14.502  41.767   6.750
 6446POPC   C3B41445  14.506  41.813   7.050
 6446POPC   C4B41446  14.506  41.791   7.350
 6447POPC   NC341447  42.353   3.517   5.550
 6447POPC   PO441448  42.327   3.579   5.850
 6447POPC   GL141449  42.325   3.498   6.150
 6447POPC   GL241450  42.404   3.415   6.150
 6447POPC   C1A41451  42.375   3.495   6.450
 6447POPC   D2A41452  42.381   3.493   6.750
 6447POPC   C3A41453  42.298   3.575   7.050
 6447POPC   C4A41454  42.383   3.574   7.350
 6447POPC   C1B41455  42.548   3.310   6.450
 6447POPC   C2B41456  42.492   3.313   6.750
 6447POPC   C3B41457  42.490   3.333   7.050
 6447POPC   C4B41458  42.486   3.406   7.350
 6448POPC   NC341459   9.707  21.336   5.550
 6448POPC   PO441460   9.733  21.400   5.850
 6448POPC   GL141461   9.782  21.361   6.150
 6448POPC   GL241462   9.724  21.264   6.150
 6448POPC   C1A41463   9.707  21.426   6.450
 6448POPC   D2A41464   9.798  21.369   6.750
 6448POPC   C3A41465   9.746  21.381   7.050
 6448POPC   C4A41466   9.793  21.368   7.350
 6448POPC   C1B41467   9.647  21.151   6.450
 6448POPC   C2B41468   9.700  21.148   6.750
 6448POPC   C3B41469   9.669  21.103   7.050
 6448POPC   C4B41470   9.627  21.151   7.350
 6449POPC   NC341471  12.055  32.209   5.550
 6449POPC   PO441472  12.047  32.244   5.850
 6449POPC   GL141473  12.042  32.295   6.150
 6449POPC   GL241474  12.076  32.351   6.150
 6449POPC   C1A41475  12.123  32.253   6.450
 6449POPC   D2A41476  12.074  32.223   6.750
 6449POPC   C3A41477  12.060  32.286   7.050
 6449POPC   C4A41478  12.096  32.247   7.350
 6449POPC   C1B41479  12.111  32.492   6.450
 6449POPC   C2B41480  12.113  32.513   6.750
 6449POPC   C3B41481  12.094  32.459   7.050
 6449POPC   C4B41482  12.104  32.464   7.350
 6450POPC   NC341483   9.722   4.365   5.550
 6450POPC   PO441484   9.759   4.296   5.850
 6450POPC   GL141485   9.699   4.300   6.150
 6450POPC   GL241486   9.741   4.462   6.150
 6450POPC   C1A41487   9.785   4.290   6.450
 6450POPC   D2A41488   9.747   4.306   6.750
 6450POPC   C3A41489   9.723   4.346   7.050
 6450POPC   C4A41490   9.787   4.283   7.350
 6450POPC   C1B41491   9.765   4.522   6.450
 6450POPC   C2B41492   9.822   4.534   6.750
 6450POPC   C3B41493   9.769   4.549   7.050
 6450POPC   C4B41494   9.779   4.559   7.350
 6451POPC   NC341495   0.405   1.252   5.550
 6451POPC   PO441496   0.446   1.241   5.850
 6451POPC   GL141497   0.466   1.207   6.150
 6451POPC   GL241498   0.347   1.107   6.150
 6451POPC   C1A41499   0.478   1.250   6.450
 6451POPC   D2A41500   0.485   1.232   6.750
 6451POPC   C3A41501   0.440   1.219   7.050
 6451POPC   C4A41502   0.416   1.214   7.350
 6451POPC   C1B41503   0.272   1.028   6.450
 6451POPC   C2B41504   0.314   1.050   6.750
 6451POPC   C3B41505   0.261   0.979   7.050
 6451POPC   C4B41506   0.305   1.037   7.350
 6452POPC   NC341507  13.629   9.712   5.550
 6452POPC   PO441508  13.605   9.751   5.850
 6452POPC   GL141509  13.584   9.780   6.150
 6452POPC   GL241510  13.683   9.857   6.150
 6452POPC   C1A41511  13.660   9.727   6.450
 6452POPC   D2A41512  13.579   9.711   6.750
 6452POPC   C3A41513  13.623   9.750   7.050
 6452POPC   C4A41514  13.604   9.730   7.350
 6452POPC   C1B41515  13.843   9.924   6.450
 6452POPC   C2B41516  13.830   9.927   6.750
 6452POPC   C3B41517  13.824   9.950   7.050
 6452POPC   C4B41518  13.795   9.922   7.350
 6453POPC   NC341519  34.543   3.591   5.550
 6453POPC   PO441520  34.619   3.512   5.850
 6453POPC   GL141521  34.584   3.556   6.150
 6453POPC   GL241522  34.457   3.482   6.150
 6453POPC   C1A41523  34.596   3.579   6.450
 6453POPC   D2A41524  34.562   3.496   6.750
 6453POPC   C3A41525  34.582   3.584   7.050
 6453POPC   C4A41526  34.604   3.557   7.350
 6453POPC   C1B41527  34.367   3.464   6.450
 6453POPC   C2B41528  34.294   3.430   6.750
 6453POPC   C3B41529  34.330   3.439   7.050
 6453POPC   C4B41530  34.379   3.455   7.350
 6454POPC   NC341531  16.713   3.498   5.550
 6454POPC   PO441532  16.751   3.580   5.850
 6454POPC   GL141533  16.748   3.541   6.150
 6454POPC   GL241534  16.862   3.481   6.150
 6454POPC   C1A41535  16.716   3.532   6.450
 6454POPC   D2A41536  16.724   3.503   6.750
 6454POPC   C3A41537  16.780   3.556   7.050
 6454POPC   C4A41538  16.776   3.513   7.350
 6454POPC   C1B41539  16.935   3.389   6.450
 6454POPC   C2B41540  16.859   3.362   6.750
 6454POPC   C3B41541  16.867   3.383   7.050
 6454POPC   C4B41542  16.932   3.310   7.350
 6455POPC   NC341543  37.651  44.666   5.550
 6455POPC   PO441544  37.649  44.625   5.850
 6455POPC   GL141545  37.672  44.624   6.150
 6455POPC   GL241546  37.754  44.545   6.150
 6455POPC   C1A41547  37.653  44.641   6.450
 6455POPC   D2A41548  37.722  44.700   6.750
 6455POPC   C3A41549  37.665  44.709   7.050
 6455POPC   C4A41550  37.645  44.614   7.350
 6455POPC   C1B41551  37.859  44.463   6.450
 6455POPC   C2B41552  37.796  44.430   6.750
 6455POPC   C3B41553  37.845  44.474   7.050
 6455POPC   C4B41554  37.806  44.493   7.350
 6456POPC   NC341555  37.633  24.479   5.550
 6456POPC   PO441556  37.656  24.440   5.850
 6456POPC   GL141557  37.658  24.523   6.150
 6456POPC   GL241558  37.624  24.420   6.150
 6456POPC   C1A41559  37.689  24.445   6.450
 6456POPC   D2A41560  37.712  24.510   6.750
 6456POPC   C3A41561  37.660  24.495   7.050
 6456POPC   C4A41562  37.674  24.460   7.350
 6456POPC   C1B41563  37.495  24.320   6.450
 6456POPC   C2B41564  37.553  24.264   6.750
 6456POPC   C3B41565  37.577  24.286   7.050
 6456POPC   C4B41566  37.500  24.292   7.350
 6457POPC   NC341567   4.277  39.983   5.550
 6457POPC   PO441568   4.283  39.980   5.850
 6457POPC   GL141569   4.310  40.042   6.150
 6457POPC   GL241570   4.252  40.050   6.150
 6457POPC   C1A41571   4.335  40.014   6.450
 6457POPC   D2A41572   4.311  40.036   6.750
 6457POPC   C3A41573   4.276  39.979   7.050
 6457POPC   C4A41574   4.302  39.962   7.350
 6457POPC   C1B41575   4.104  40.120   6.450
 6457POPC   C2B41576   4.074  40.100   6.750
 6457POPC   C3B41577   4.097  40.121   7.050
 6457POPC   C4B41578   4.097  40.134   7.350
 6458POPC   NC341579  15.157  38.470   5.550
 6458POPC   PO441580  15.224  38.466   5.850
 6458POPC   GL141581  15.216  38.488   6.150
 6458POPC   GL241582  15.133  38.344   6.150
 6458POPC   C1A41583  15.204  38.488   6.450
 6458POPC   D2A41584  15.131  38.477   6.750
 6458POPC   C3A41585  15.199  38.417   7.050
 6458POPC   C4A41586  15.209  38.491   7.350
 6458POPC   C1B41587  15.174  38.216   6.450
 6458POPC   C2B41588  15.099  38.200   6.750
 6458POPC   C3B41589  15.077  38.187   7.050
 6458POPC   C4B41590  15.080  38.165   7.350
 6459POPC   NC341591   5.836  16.689   5.550
 6459POPC   PO441592   5.835  16.723   5.850
 6459POPC   GL141593   5.835  16.754   6.150
 6459POPC   GL241594   5.831  16.648   6.150
 6459POPC   C1A41595   5.823  16.757   6.450
 6459POPC   D2A41596   5.908  16.730   6.750
 6459POPC   C3A41597   5.915  16.743   7.050
 6459POPC   C4A41598   5.821  16.766   7.350
 6459POPC   C1B41599   5.750  16.469   6.450
 6459POPC   C2B41600   5.737  16.514   6.750
 6459POPC   C3B41601   5.749  16.532   7.050
 6459POPC   C4B41602   5.717  16.532   7.350
 6460POPC   NC341603  14.408  22.899   5.550
 6460POPC   PO441604  14.396  22.979   5.850
 6460POPC   GL141605  14.416  22.902   6.150
 6460POPC   GL241606  14.445  22.793   6.150
 6460POPC   C1A41607  14.389  22.957   6.450
 6460POPC   D2A41608  14.448  22.939   6.750
 6460POPC   C3A41609  14.369  22.908   7.050
 6460POPC   C4A41610  14.390  22.971   7.350
 6460POPC   C1B41611  14.374  22.713   6.450
 6460POPC   C2B41612  14.412  22.731   6.750
 6460POPC   C3B41613  14.439  22.677   7.050
 6460POPC   C4B41614  14.432  22.678   7.350
 6461POPC   NC341615   2.738  29.100   5.550
 6461POPC   PO441616   2.732  29.139   5.850
 6461POPC   GL141617   2.813  29.174   6.150
 6461POPC   GL241618   2.722  29.242   6.150
 6461POPC   C1A41619   2.720  29.172   6.450
 6461POPC   D2A41620   2.779  29.153   6.750
 6461POPC   C3A41621   2.763  29.151   7.050
 6461POPC   C4A41622   2.774  29.103   7.350
 6461POPC   C1B41623   2.649  29.323   6.450
 6461POPC   C2B41624   2.650  29.335   6.750
 6461POPC   C3B41625   2.613  29.400   7.050
 6461POPC   C4B41626   2.669  29.374   7.350
 6462POPC   NC341627  26.081  25.995   5.550
 6462POPC   PO441628  26.086  26.068   5.850
 6462POPC   GL141629  26.068  26.045   6.150
 6462POPC   GL241630  26.138  26.057   6.150
 6462POPC   C1A41631  26.040  26.071   6.450
 6462POPC   D2A41632  26.047  25.999   6.750
 6462POPC   C3A41633  26.026  26.028   7.050
 6462POPC   C4A41634  26.005  26.085   7.350
 6462POPC   C1B41635  26.317  26.043   6.450
 6462POPC   C2B41636  26.302  26.093   6.750
 6462POPC   C3B41637  26.248  26.076   7.050
 6462POPC   C4B41638  26.321  26.018   7.350
 6463POPC   NC341639  30.660  12.823   5.550
 6463POPC   PO441640  30.710  12.887   5.850
 6463POPC   GL141641  30.720  12.802   6.150
 6463POPC   GL241642  30.804  12.911   6.150
 6463POPC   C1A41643  30.649  12.876   6.450
 6463POPC   D2A41644  30.647  12.872   6.750
 6463POPC   C3A41645  30.698  12.827   7.050
 6463POPC   C4A41646  30.718  12.877   7.350
 6463POPC   C1B41647  30.936  12.967   6.450
 6463POPC   C2B41648  30.919  13.029   6.750
 6463POPC   C3B41649  30.862  12.942   7.050
 6463POPC   C4B41650  30.911  13.023   7.350
 6464POPC   NC341651  16.732  43.850   5.550
 6464POPC   PO441652  16.773  43.924   5.850
 6464POPC   GL141653  16.697  43.889   6.150
 6464POPC   GL241654  16.816  43.982   6.150
 6464POPC   C1A41655  16.734  43.840   6.450
 6464POPC   D2A41656  16.732  43.904   6.750
 6464POPC   C3A41657  16.711  43.902   7.050
 6464POPC   C4A41658  16.693  43.848   7.350
 6464POPC   C1B41659  16.916  44.006   6.450
 6464POPC   C2B41660  16.967  43.985   6.750
 6464POPC   C3B41661  16.963  43.998   7.050
 6464POPC   C4B41662  16.945  44.024   7.350
 6465POPC   NC341663  38.503  26.072   5.550
 6465POPC   PO441664  38.447  26.068   5.850
 6465POPC   GL141665  38.472  26.010   6.150
 6465POPC   GL241666  38.432  26.169   6.150
 6465POPC   C1A41667  38.422  26.088   6.450
 6465POPC   D2A41668  38.486  26.082   6.750
 6465POPC   C3A41669  38.412  26.012   7.050
 6465POPC   C4A41670  38.476  25.992   7.350
 6465POPC   C1B41671  38.444  26.298   6.450
 6465POPC   C2B41672  38.457  26.248   6.750
 6465POPC   C3B41673  38.464  26.294   7.050
 6465POPC   C4B41674  38.422  26.339   7.350
 6466POPC   NC341675   8.941  36.874   5.550
 6466POPC   PO441676   8.971  36.920   5.850
 6466POPC   GL141677   8.963  36.939   6.150
 6466POPC   GL241678   9.062  36.862   6.150
 6466POPC   C1A41679   8.951  36.941   6.450
 6466POPC   D2A41680   8.959  36.879   6.750
 6466POPC   C3A41681   8.981  36.863   7.050
 6466POPC   C4A41682   8.931  36.907   7.350
 6466POPC   C1B41683   9.156  36.731   6.450
 6466POPC   C2B41684   9.115  36.704   6.750
 6466POPC   C3B41685   9.147  36.695   7.050
 6466POPC   C4B41686   9.212  36.759   7.350
 6467POPC   NC341687  14.400  23.694   5.550
 6467POPC   PO441688  14.404  23.680   5.850
 6467POPC   GL141689  14.398  23.723   6.150
 6467POPC   GL241690  14.540  23.646   6.150
 6467POPC   C1A41691  14.397  23.691   6.450
 6467POPC   D2A41692  14.383  23.755   6.750
 6467POPC   C3A41693  14.387  23.739   7.050
 6467POPC   C4A41694  14.415  23.680   7.350
 6467POPC   C1B41695  14.642  23.568   6.450
 6467POPC   C2B41696  14.583  23.573   6.750
 6467POPC   C3B41697  14.621  23.606   7.050
 6467POPC   C4B41698  14.583  23.617   7.350
 6468POPC   NC341699  18.307  35.345   5.550
 6468POPC   PO441700  18.305  35.387   5.850
 6468POPC   GL141701  18.325  35.384   6.150
 6468POPC   GL241702  18.236  35.207   6.150
 6468POPC   C1A41703  18.294  35.326   6.450
 6468POPC   D2A41704  18.312  35.334   6.750
 6468POPC   C3A41705  18.321  35.376   7.050
 6468POPC   C4A41706  18.321  35.376   7.350
 6468POPC   C1B41707  18.190  35.172   6.450
 6468POPC   C2B41708  18.161  35.095   6.750
 6468POPC   C3B41709  18.189  35.098   7.050
 6468POPC   C4B41710  18.213  35.099   7.350
 6469POPC   NC341711  35.352  22.966   5.550
 6469POPC   PO441712  35.367  22.962   5.850
 6469POPC   GL141713  35.333  22.947   6.150
 6469POPC   GL241714  35.191  22.977   6.150
 6469POPC   C1A41715  35.367  22.963   6.450
 6469POPC   D2A41716  35.381  22.931   6.750
 6469POPC   C3A41717  35.319  22.982   7.050
 6469POPC   C4A41718  35.314  22.895   7.350
 6469POPC   C1B41719  35.132  23.045   6.450
 6469POPC   C2B41720  35.077  23.084   6.750
 6469POPC   C3B41721  35.138  23.043   7.050
 6469POPC   C4B41722  35.083  23.070   7.350
 6470POPC   NC341723  24.441  19.098   5.550
 6470POPC   PO441724  24.450  19.010   5.850
 6470POPC   GL141725  24.496  19.041   6.150
 6470POPC   GL241726  24.374  19.079   6.150
 6470POPC   C1A41727  24.524  19.013   6.450
 6470POPC   D2A41728  24.539  19.081   6.750
 6470POPC   C3A41729  24.530  19.025   7.050
 6470POPC   C4A41730  24.533  19.033   7.350
 6470POPC   C1B41731  24.287  19.101   6.450
 6470POPC   C2B41732  24.270  19.076   6.750
 6470POPC   C3B41733  24.211  19.073   7.050
 6470POPC   C4B41734  24.201  19.051   7.350
 6471POPC   NC341735  15.911  20.589   5.550
 6471POPC   PO441736  15.982  20.632   5.850
 6471POPC   GL141737  15.988  20.574   6.150
 6471POPC   GL241738  15.916  20.721   6.150
 6471POPC   C1A41739  15.985  20.623   6.450
 6471POPC   D2A41740  15.936  20.649   6.750
 6471POPC   C3A41741  15.966  20.612   7.050
 6471POPC   C4A41742  15.905  20.622   7.350
 6471POPC   C1B41743  15.797  20.789   6.450
 6471POPC   C2B41744  15.839  20.857   6.750
 6471POPC   C3B41745  15.769  20.774   7.050
 6471POPC   C4B41746  15.840  20.829   7.350
 6472POPC   NC341747  33.001  22.889   5.550
 6472POPC   PO441748  33.001  22.964   5.850
 6472POPC   GL141749  33.001  22.947   6.150
 6472POPC   GL241750  32.952  22.934   6.150
 6472POPC   C1A41751  33.060  22.988   6.450
 6472POPC   D2A41752  33.037  22.934   6.750
 6472POPC   C3A41753  33.060  22.976   7.050
 6472POPC   C4A41754  33.052  22.898   7.350
 6472POPC   C1B41755  32.731  23.008   6.450
 6472POPC   C2B41756  32.786  22.969   6.750
 6472POPC   C3B41757  32.755  22.999   7.050
 6472POPC   C4B41758  32.743  22.966   7.350
 6473POPC   NC341759  23.755   8.244   5.550
 6473POPC   PO441760  23.666   8.163   5.850
 6473POPC   GL141761  23.683   8.150   6.150
 6473POPC   GL241762  23.850   8.309   6.150
 6473POPC   C1A41763  23.762   8.190   6.450
 6473POPC   D2A41764  23.744   8.189   6.750
 6473POPC   C3A41765  23.676   8.214   7.050
 6473POPC   C4A41766  23.722   8.175   7.350
 6473POPC   C1B41767  23.892   8.368   6.450
 6473POPC   C2B41768  23.948   8.360   6.750
 6473POPC   C3B41769  23.900   8.334   7.050
 6473POPC   C4B41770  23.892   8.365   7.350
 6474POPC   NC341771  29.924  29.127   5.550
 6474POPC   PO441772  29.873  29.158   5.850
 6474POPC   GL141773  29.895  29.128   6.150
 6474POPC   GL241774  29.856  29.248   6.150
 6474POPC   C1A41775  29.892  29.164   6.450
 6474POPC   D2A41776  29.916  29.180   6.750
 6474POPC   C3A41777  29.936  29.136   7.050
 6474POPC   C4A41778  29.946  29.143   7.350
 6474POPC   C1B41779  29.689  29.269   6.450
 6474POPC   C2B41780  29.711  29.279   6.750
 6474POPC   C3B41781  29.706  29.212   7.050
 6474POPC   C4B41782  29.707  29.278   7.350
 6475POPC   NC341783  33.060  10.503   5.550
 6475POPC   PO441784  33.067  10.538   5.850
 6475POPC   GL141785  33.061  10.550   6.150
 6475POPC   GL241786  33.134  10.517   6.150
 6475POPC   C1A41787  32.983  10.500   6.450
 6475POPC   D2A41788  33.052  10.543   6.750
 6475POPC   C3A41789  33.063  10.510   7.050
 6475POPC   C4A41790  33.038  10.542   7.350
 6475POPC   C1B41791  33.311  10.506   6.450
 6475POPC   C2B41792  33.322  10.573   6.750
 6475POPC   C3B41793  33.289  10.517   7.050
 6475POPC   C4B41794  33.235  10.565   7.350
 6476POPC   NC341795   8.994   9.733   5.550
 6476POPC   PO441796   8.938   9.796   5.850
 6476POPC   GL141797   9.016   9.737   6.150
 6476POPC   GL241798   9.127   9.764   6.150
 6476POPC   C1A41799   8.956   9.765   6.450
 6476POPC   D2A41800   8.982   9.788   6.750
 6476POPC   C3A41801   8.941   9.750   7.050
 6476POPC   C4A41802   8.999   9.763   7.350
 6476POPC   C1B41803   9.196   9.717   6.450
 6476POPC   C2B41804   9.248   9.761   6.750
 6476POPC   C3B41805   9.209   9.804   7.050
 6476POPC   C4B41806   9.230   9.747   7.350
 6477POPC   NC341807  22.972  34.568   5.550
 6477POPC   PO441808  22.985  34.604   5.850
 6477POPC   GL141809  22.982  34.532   6.150
 6477POPC   GL241810  23.050  34.521   6.150
 6477POPC   C1A41811  22.985  34.551   6.450
 6477POPC   D2A41812  22.981  34.544   6.750
 6477POPC   C3A41813  22.901  34.566   7.050
 6477POPC   C4A41814  22.980  34.528   7.350
 6477POPC   C1B41815  23.202  34.516   6.450
 6477POPC   C2B41816  23.188  34.485   6.750
 6477POPC   C3B41817  23.186  34.518   7.050
 6477POPC   C4B41818  23.197  34.483   7.350
 6478POPC   NC341819   5.850  30.740   5.550
 6478POPC   PO441820   5.848  30.684   5.850
 6478POPC   GL141821   5.876  30.647   6.150
 6478POPC   GL241822   5.712  30.706   6.150
 6478POPC   C1A41823   5.903  30.678   6.450
 6478POPC   D2A41824   5.910  30.664   6.750
 6478POPC   C3A41825   5.845  30.724   7.050
 6478POPC   C4A41826   5.919  30.687   7.350
 6478POPC   C1B41827   5.661  30.651   6.450
 6478POPC   C2B41828   5.599  30.648   6.750
 6478POPC   C3B41829   5.611  30.661   7.050
 6478POPC   C4B41830   5.611  30.682   7.350
 6479POPC   NC341831  10.561  26.055   5.550
 6479POPC   PO441832  10.538  26.021   5.850
 6479POPC   GL141833  10.487  26.059   6.150
 6479POPC   GL241834  10.537  25.919   6.150
 6479POPC   C1A41835  10.543  26.078   6.450
 6479POPC   D2A41836  10.501  26.086   6.750
 6479POPC   C3A41837  10.551  25.996   7.050
 6479POPC   C4A41838  10.559  26.043   7.350
 6479POPC   C1B41839  10.534  25.753   6.450
 6479POPC   C2B41840  10.509  25.774   6.750
 6479POPC   C3B41841  10.541  25.817   7.050
 6479POPC   C4B41842  10.521  25.765   7.350
 6480POPC   NC341843   4.345  18.260   5.550
 6480POPC   PO441844   4.326  18.301   5.850
 6480POPC   GL141845   4.283  18.311   6.150
 6480POPC   GL241846   4.247  18.275   6.150
 6480POPC   C1A41847   4.318  18.240   6.450
 6480POPC   D2A41848   4.340  18.321   6.750
 6480POPC   C3A41849   4.279  18.322   7.050
 6480POPC   C4A41850   4.278  18.255   7.350
 6480POPC   C1B41851   4.077  18.231   6.450
 6480POPC   C2B41852   4.068  18.144   6.750
 6480POPC   C3B41853   4.123  18.175   7.050
 6480POPC   C4B41854   4.137  18.184   7.350
 6481POPC   NC341855   2.723  34.568   5.550
 6481POPC   PO441856   2.757  34.608   5.850
 6481POPC   GL141857   2.727  34.570   6.150
 6481POPC   GL241858   2.629  34.574   6.150
 6481POPC   C1A41859   2.809  34.548   6.450
 6481POPC   D2A41860   2.776  34.595   6.750
 6481POPC   C3A41861   2.738  34.601   7.050
 6481POPC   C4A41862   2.724  34.535   7.350
 6481POPC   C1B41863   2.501  34.652   6.450
 6481POPC   C2B41864   2.530  34.568   6.750
 6481POPC   C3B41865   2.486  34.601   7.050
 6481POPC   C4B41866   2.531  34.629   7.350
 6482POPC   NC341867  19.817  33.772   5.550
 6482POPC   PO441868  19.789  33.795   5.850
 6482POPC   GL141869  19.844  33.823   6.150
 6482POPC   GL241870  19.892  33.947   6.150
 6482POPC   C1A41871  19.832  33.750   6.450
 6482POPC   D2A41872  19.817  33.813   6.750
 6482POPC   C3A41873  19.866  33.838   7.050
 6482POPC   C4A41874  19.816  33.794   7.350
 6482POPC   C1B41875  19.848  34.027   6.450
 6482POPC   C2B41876  19.926  34.027   6.750
 6482POPC   C3B41877  19.863  34.012   7.050
 6482POPC   C4B41878  19.884  34.084   7.350
 6483POPC   NC341879   5.096  24.534   5.550
 6483POPC   PO441880   5.066  24.493   5.850
 6483POPC   GL141881   5.126  24.454   6.150
 6483POPC   GL241882   5.028  24.348   6.150
 6483POPC   C1A41883   5.129  24.531   6.450
 6483POPC   D2A41884   5.061  24.502   6.750
 6483POPC   C3A41885   5.082  24.476   7.050
 6483POPC   C4A41886   5.083  24.485   7.350
 6483POPC   C1B41887   5.062  24.269   6.450
 6483POPC   C2B41888   4.993  24.283   6.750
 6483POPC   C3B41889   5.057  24.294   7.050
 6483POPC   C4B41890   5.064  24.278   7.350
 6484POPC   NC341891  18.272  39.210   5.550
 6484POPC   PO441892  18.259  39.235   5.850
 6484POPC   GL141893  18.327  39.203   6.150
 6484POPC   GL241894  18.201  39.142   6.150
 6484POPC   C1A41895  18.327  39.230   6.450
 6484POPC   D2A41896  18.297  39.227   6.750
 6484POPC   C3A41897  18.258  39.197   7.050
 6484POPC   C4A41898  18.248  39.278   7.350
 6484POPC   C1B41899  18.229  38.965   6.450
 6484POPC   C2B41900  18.181  38.972   6.750
 6484POPC   C3B41901  18.213  38.965   7.050
 6484POPC   C4B41902  18.236  38.958   7.350
 6485POPC   NC341903  14.389  29.099   5.550
 6485POPC   PO441904  14.359  29.145   5.850
 6485POPC   GL141905  14.356  29.140   6.150
 6485POPC   GL241906  14.514  29.178   6.150
 6485POPC   C1A41907  14.416  29.137   6.450
 6485POPC   D2A41908  14.362  29.147   6.750
 6485POPC   C3A41909  14.418  29.167   7.050
 6485POPC   C4A41910  14.428  29.143   7.350
 6485POPC   C1B41911  14.640  29.158   6.450
 6485POPC   C2B41912  14.696  29.091   6.750
 6485POPC   C3B41913  14.637  29.103   7.050
 6485POPC   C4B41914  14.695  29.169   7.350
 6486POPC   NC341915  37.687  35.347   5.550
 6486POPC   PO441916  37.673  35.316   5.850
 6486POPC   GL141917  37.712  35.318   6.150
 6486POPC   GL241918  37.544  35.419   6.150
 6486POPC   C1A41919  37.653  35.395   6.450
 6486POPC   D2A41920  37.639  35.307   6.750
 6486POPC   C3A41921  37.687  35.313   7.050
 6486POPC   C4A41922  37.725  35.349   7.350
 6486POPC   C1B41923  37.436  35.422   6.450
 6486POPC   C2B41924  37.489  35.427   6.750
 6486POPC   C3B41925  37.407  35.472   7.050
 6486POPC   C4B41926  37.484  35.419   7.350
 6487POPC   NC341927   8.998  17.463   5.550
 6487POPC   PO441928   8.947  17.533   5.850
 6487POPC   GL141929   8.982  17.486   6.150
 6487POPC   GL241930   8.994  17.621   6.150
 6487POPC   C1A41931   8.935  17.462   6.450
 6487POPC   D2A41932   9.015  17.530   6.750
 6487POPC   C3A41933   8.986  17.464   7.050
 6487POPC   C4A41934   9.005  17.460   7.350
 6487POPC   C1B41935   8.972  17.787   6.450
 6487POPC   C2B41936   8.979  17.741   6.750
 6487POPC   C3B41937   9.006  17.780   7.050
 6487POPC   C4B41938   8.941  17.740   7.350
 6488POPC   NC341939  42.376   0.463   5.550
 6488POPC   PO441940  42.373   0.395   5.850
 6488POPC   GL141941  42.286   0.435   6.150
 6488POPC   GL241942  42.433   0.535   6.150
 6488POPC   C1A41943  42.302   0.434   6.450
 6488POPC   D2A41944  42.329   0.462   6.750
 6488POPC   C3A41945  42.347   0.458   7.050
 6488POPC   C4A41946  42.319   0.441   7.350
 6488POPC   C1B41947  42.468   0.637   6.450
 6488POPC   C2B41948  42.416   0.709   6.750
 6488POPC   C3B41949  42.483   0.674   7.050
 6488POPC   C4B41950  42.489   0.691   7.350
 6489POPC   NC341951  36.112  37.634   5.550
 6489POPC   PO441952  36.173  37.702   5.850
 6489POPC   GL141953  36.125  37.725   6.150
 6489POPC   GL241954  36.256  37.718   6.150
 6489POPC   C1A41955  36.139  37.674   6.450
 6489POPC   D2A41956  36.169  37.724   6.750
 6489POPC   C3A41957  36.119  37.704   7.050
 6489POPC   C4A41958  36.141  37.717   7.350
 6489POPC   C1B41959  36.357  37.708   6.450
 6489POPC   C2B41960  36.336  37.738   6.750
 6489POPC   C3B41961  36.426  37.739   7.050
 6489POPC   C4B41962  36.400  37.683   7.350
 6490POPC   NC341963  42.334  10.530   5.550
 6490POPC   PO441964  42.349  10.535   5.850
 6490POPC   GL141965  42.293  10.560   6.150
 6490POPC   GL241966  42.414  10.440   6.150
 6490POPC   C1A41967  42.336  10.572   6.450
 6490POPC   D2A41968  42.358  10.524   6.750
 6490POPC   C3A41969  42.372  10.482   7.050
 6490POPC   C4A41970  42.350  10.570   7.350
 6490POPC   C1B41971  42.510  10.381   6.450
 6490POPC   C2B41972  42.482  10.294   6.750
 6490POPC   C3B41973  42.486  10.313   7.050
 6490POPC   C4B41974  42.533  10.349   7.350
 6491POPC   NC341975   7.419   8.207   5.550
 6491POPC   PO441976   7.389   8.199   5.850
 6491POPC   GL141977   7.377   8.185   6.150
 6491POPC   GL241978   7.538   8.184   6.150
 6491POPC   C1A41979   7.414   8.165   6.450
 6491POPC   D2A41980   7.423   8.195   6.750
 6491POPC   C3A41981   7.393   8.174   7.050
 6491POPC   C4A41982   7.381   8.149   7.350
 6491POPC   C1B41983   7.670   8.196   6.450
 6491POPC   C2B41984   7.664   8.198   6.750
 6491POPC   C3B41985   7.627   8.204   7.050
 6491POPC   C4B41986   7.654   8.274   7.350
 6492POPC   NC341987  16.681  12.028   5.550
 6492POPC   PO441988  16.708  12.067   5.850
 6492POPC   GL141989  16.724  12.066   6.150
 6492POPC   GL241990  16.820  12.195   6.150
 6492POPC   C1A41991  16.758  12.037   6.450
 6492POPC   D2A41992  16.700  12.058   6.750
 6492POPC   C3A41993  16.761  12.109   7.050
 6492POPC   C4A41994  16.754  12.090   7.350
 6492POPC   C1B41995  16.902  12.195   6.450
 6492POPC   C2B41996  16.879  12.272   6.750
 6492POPC   C3B41997  16.885  12.266   7.050
 6492POPC   C4B41998  16.943  12.244   7.350
 6493POPC   NC341999   3.560  15.945   5.550
 6493POPC   PO442000   3.519  15.917   5.850
 6493POPC   GL142001   3.569  16.000   6.150
 6493POPC   GL242002   3.679  15.953   6.150
 6493POPC   C1A42003   3.532  15.966   6.450
 6493POPC   D2A42004   3.575  15.923   6.750
 6493POPC   C3A42005   3.575  15.960   7.050
 6493POPC   C4A42006   3.505  15.961   7.350
 6493POPC   C1B42007   3.744  16.030   6.450
 6493POPC   C2B42008   3.833  15.969   6.750
 6493POPC   C3B42009   3.761  16.009   7.050
 6493POPC   C4B42010   3.825  16.040   7.350
 6494POPC   NC342011  33.018   4.325   5.550
 6494POPC   PO442012  32.985   4.364   5.850
 6494POPC   GL142013  32.986   4.312   6.150
 6494POPC   GL242014  32.912   4.213   6.150
 6494POPC   C1A42015  33.006   4.338   6.450
 6494POPC   D2A42016  32.978   4.316   6.750
 6494POPC   C3A42017  33.025   4.309   7.050
 6494POPC   C4A42018  33.068   4.339   7.350
 6494POPC   C1B42019  32.769   4.158   6.450
 6494POPC   C2B42020  32.838   4.233   6.750
 6494POPC   C3B42021  32.792   4.213   7.050
 6494POPC   C4B42022  32.764   4.210   7.350
 6495POPC   NC342023  36.861  33.781   5.550
 6495POPC   PO442024  36.923  33.795   5.850
 6495POPC   GL142025  36.869  33.794   6.150
 6495POPC   GL242026  36.765  33.861   6.150
 6495POPC   C1A42027  36.880  33.762   6.450
 6495POPC   D2A42028  36.900  33.769   6.750
 6495POPC   C3A42029  36.884  33.819   7.050
 6495POPC   C4A42030  36.871  33.839   7.350
 6495POPC   C1B42031  36.657  33.797   6.450
 6495POPC   C2B42032  36.631  33.853   6.750
 6495POPC   C3B42033  36.630  33.824   7.050
 6495POPC   C4B42034  36.624  33.842   7.350
 6496POPC   NC342035   8.981  25.311   5.550
 6496POPC   PO442036   9.004  25.312   5.850
 6496POPC   GL142037   9.018  25.285   6.150
 6496POPC   GL242038   8.970  25.093   6.150
 6496POPC   C1A42039   8.947  25.236   6.450
 6496POPC   D2A42040   9.015  25.266   6.750
 6496POPC   C3A42041   8.934  25.248   7.050
 6496POPC   C4A42042   9.017  25.244   7.350
 6496POPC   C1B42043   8.978  24.971   6.450
 6496POPC   C2B42044   8.995  25.049   6.750
 6496POPC   C3B42045   8.996  25.057   7.050
 6496POPC   C4B42046   9.008  24.981   7.350
 6497POPC   NC342047  26.035   7.459   5.550
 6497POPC   PO442048  26.083   7.425   5.850
 6497POPC   GL142049  26.074   7.382   6.150
 6497POPC   GL242050  26.104   7.532   6.150
 6497POPC   C1A42051  26.071   7.380   6.450
 6497POPC   D2A42052  26.064   7.463   6.750
 6497POPC   C3A42053  26.038   7.452   7.050
 6497POPC   C4A42054  26.018   7.375   7.350
 6497POPC   C1B42055  26.113   7.628   6.450
 6497POPC   C2B42056  26.051   7.715   6.750
 6497POPC   C3B42057  26.096   7.681   7.050
 6497POPC   C4B42058  26.077   7.715   7.350
 6498POPC   NC342059  34.593  39.957   5.550
 6498POPC   PO442060  34.584  39.990   5.850
 6498POPC   GL142061  34.580  40.011   6.150
 6498POPC   GL242062  34.490  40.127   6.150
 6498POPC   C1A42063  34.579  40.038   6.450
 6498POPC   D2A42064  34.553  39.995   6.750
 6498POPC   C3A42065  34.598  40.023   7.050
 6498POPC   C4A42066  34.623  39.982   7.350
 6498POPC   C1B42067  34.490  40.290   6.450
 6498POPC   C2B42068  34.479  40.253   6.750
 6498POPC   C3B42069  34.548  40.257   7.050
 6498POPC   C4B42070  34.491  40.228   7.350
 6499POPC   NC342071  39.998  31.471   5.550
 6499POPC   PO442072  40.000  31.458   5.850
 6499POPC   GL142073  40.040  31.446   6.150
 6499POPC   GL242074  39.836  31.501   6.150
 6499POPC   C1A42075  39.974  31.512   6.450
 6499POPC   D2A42076  39.958  31.490   6.750
 6499POPC   C3A42077  39.998  31.498   7.050
 6499POPC   C4A42078  39.990  31.444   7.350
 6499POPC   C1B42079  39.753  31.441   6.450
 6499POPC   C2B42080  39.712  31.483   6.750
 6499POPC   C3B42081  39.755  31.436   7.050
 6499POPC   C4B42082  39.761  31.483   7.350
 6500POPC   NC342083   8.232  13.593   5.550
 6500POPC   PO442084   8.173  13.597   5.850
 6500POPC   GL142085   8.196  13.637   6.150
 6500POPC   GL242086   8.274  13.656   6.150
 6500POPC   C1A42087   8.152  13.660   6.450
 6500POPC   D2A42088   8.221  13.650   6.750
 6500POPC   C3A42089   8.216  13.591   7.050
 6500POPC   C4A42090   8.218  13.630   7.350
 6500POPC   C1B42091   8.473  13.554   6.450
 6500POPC   C2B42092   8.491  13.558   6.750
 6500POPC   C3B42093   8.461  13.552   7.050
 6500POPC   C4B42094   8.407  13.536   7.350
 6501POPC   NC342095  25.299   4.310   5.550
 6501POPC   PO442096  25.286   4.312   5.850
 6501POPC   GL142097  25.216   4.361   6.150
 6501POPC   GL242098  25.119   4.330   6.150
 6501POPC   C1A42099  25.242   4.307   6.450
 6501POPC   D2A42100  25.231   4.298   6.750
 6501POPC   C3A42101  25.303   4.322   7.050
 6501POPC   C4A42102  25.287   4.285   7.350
 6501POPC   C1B42103  25.013   4.318   6.450
 6501POPC   C2B42104  25.028   4.286   6.750
 6501POPC   C3B42105  24.985   4.293   7.050
 6501POPC   C4B42106  24.977   4.258   7.350
 6502POPC   NC342107  30.696   1.968   5.550
 6502POPC   PO442108  30.695   1.959   5.850
 6502POPC   GL142109  30.653   2.017   6.150
 6502POPC   GL242110  30.671   2.085   6.150
 6502POPC   C1A42111  30.732   1.966   6.450
 6502POPC   D2A42112  30.700   1.966   6.750
 6502POPC   C3A42113  30.701   2.026   7.050
 6502POPC   C4A42114  30.713   2.018   7.350
 6502POPC   C1B42115  30.783   2.253   6.450
 6502POPC   C2B42116  30.767   2.265   6.750
 6502POPC   C3B42117  30.784   2.187   7.050
 6502POPC   C4B42118  30.691   2.279   7.350
 6503POPC   NC342119  19.846  11.336   5.550
 6503POPC   PO442120  19.867  11.307   5.850
 6503POPC   GL142121  19.786  11.319   6.150
 6503POPC   GL242122  19.906  11.211   6.150
 6503POPC   C1A42123  19.870  11.311   6.450
 6503POPC   D2A42124  19.817  11.274   6.750
 6503POPC   C3A42125  19.833  11.307   7.050
 6503POPC   C4A42126  19.854  11.255   7.350
 6503POPC   C1B42127  19.837  11.031   6.450
 6503POPC   C2B42128  19.847  11.017   6.750
 6503POPC   C3B42129  19.914  11.007   7.050
 6503POPC   C4B42130  19.921  11.086   7.350
 6504POPC   NC342131  19.835  15.975   5.550
 6504POPC   PO442132  19.841  15.926   5.850
 6504POPC   GL142133  19.856  15.950   6.150
 6504POPC   GL242134  19.803  15.883   6.150
 6504POPC   C1A42135  19.876  15.945   6.450
 6504POPC   D2A42136  19.872  16.003   6.750
 6504POPC   C3A42137  19.859  15.952   7.050
 6504POPC   C4A42138  19.807  15.991   7.350
 6504POPC   C1B42139  19.789  15.754   6.450
 6504POPC   C2B42140  19.718  15.708   6.750
 6504POPC   C3B42141  19.793  15.720   7.050
 6504POPC   C4B42142  19.795  15.751   7.350
 6505POPC   NC342143  41.529   3.562   5.550
 6505POPC   PO442144  41.573   3.545   5.850
 6505POPC   GL142145  41.549   3.545   6.150
 6505POPC   GL242146  41.440   3.661   6.150
 6505POPC   C1A42147  41.561   3.545   6.450
 6505POPC   D2A42148  41.557   3.588   6.750
 6505POPC   C3A42149  41.549   3.582   7.050
 6505POPC   C4A42150  41.563   3.492   7.350
 6505POPC   C1B42151  41.339   3.726   6.450
 6505POPC   C2B42152  41.392   3.702   6.750
 6505POPC   C3B42153  41.370   3.725   7.050
 6505POPC   C4B42154  41.348   3.746   7.350
 6506POPC   NC342155  22.118  36.078   5.550
 6506POPC   PO442156  22.147  36.078   5.850
 6506POPC   GL142157  22.195  36.131   6.150
 6506POPC   GL242158  22.132  36.048   6.150
 6506POPC   C1A42159  22.179  36.167   6.450
 6506POPC   D2A42160  22.138  36.126   6.750
 6506POPC   C3A42161  22.167  36.101   7.050
 6506POPC   C4A42162  22.180  36.135   7.350
 6506POPC   C1B42163  22.172  35.834   6.450
 6506POPC   C2B42164  22.153  35.906   6.750
 6506POPC   C3B42165  22.099  35.902   7.050
 6506POPC   C4B42166  22.081  35.868   7.350
 6507POPC   NC342167  40.013  10.491   5.550
 6507POPC   PO442168  39.957  10.490   5.850
 6507POPC   GL142169  39.959  10.541   6.150
 6507POPC   GL242170  40.121  10.644   6.150
 6507POPC   C1A42171  39.999  10.549   6.450
 6507POPC   D2A42172  40.027  10.550   6.750
 6507POPC   C3A42173  40.050  10.497   7.050
 6507POPC   C4A42174  39.980  10.488   7.350
 6507POPC   C1B42175  40.191  10.627   6.450
 6507POPC   C2B42176  40.162  10.643   6.750
 6507POPC   C3B42177  40.165  10.628   7.050
 6507POPC   C4B42178  40.245  10.714   7.350
 6508POPC   NC342179  43.926  40.023   5.550
 6508POPC   PO442180  43.881  39.977   5.850
 6508POPC   GL142181  43.902  40.056   6.150
 6508POPC   GL242182  43.944  40.090   6.150
 6508POPC   C1A42183  43.924  40.005   6.450
 6508POPC   D2A42184  43.903  39.967   6.750
 6508POPC   C3A42185  43.849  39.989   7.050
 6508POPC   C4A42186  43.844  40.036   7.350
 6508POPC   C1B42187  44.007  40.256   6.450
 6508POPC   C2B42188  44.072  40.219   6.750
 6508POPC   C3B42189  43.986  40.190   7.050
 6508POPC   C4B42190  44.050  40.208   7.350
 6509POPC   NC342191   1.982  26.011   5.550
 6509POPC   PO442192   1.964  26.053   5.850
 6509POPC   GL142193   2.011  26.051   6.150
 6509POPC   GL242194   2.025  26.087   6.150
 6509POPC   C1A42195   2.030  26.016   6.450
 6509POPC   D2A42196   1.999  25.992   6.750
 6509POPC   C3A42197   1.948  26.016   7.050
 6509POPC   C4A42198   1.965  26.024   7.350
 6509POPC   C1B42199   2.203  26.204   6.450
 6509POPC   C2B42200   2.202  26.253   6.750
 6509POPC   C3B42201   2.126  26.237   7.050
 6509POPC   C4B42202   2.127  26.181   7.350
 6510POPC   NC342203  41.597  38.427   5.550
 6510POPC   PO442204  41.604  38.452   5.850
 6510POPC   GL142205  41.603  38.460   6.150
 6510POPC   GL242206  41.629  38.400   6.150
 6510POPC   C1A42207  41.526  38.407   6.450
 6510POPC   D2A42208  41.522  38.430   6.750
 6510POPC   C3A42209  41.572  38.455   7.050
 6510POPC   C4A42210  41.605  38.411   7.350
 6510POPC   C1B42211  41.733  38.273   6.450
 6510POPC   C2B42212  41.756  38.285   6.750
 6510POPC   C3B42213  41.762  38.341   7.050
 6510POPC   C4B42214  41.796  38.312   7.350
 6511POPC   NC342215   4.311  20.562   5.550
 6511POPC   PO442216   4.305  20.575   5.850
 6511POPC   GL142217   4.277  20.586   6.150
 6511POPC   GL242218   4.266  20.754   6.150
 6511POPC   C1A42219   4.282  20.632   6.450
 6511POPC   D2A42220   4.318  20.592   6.750
 6511POPC   C3A42221   4.362  20.575   7.050
 6511POPC   C4A42222   4.332  20.568   7.350
 6511POPC   C1B42223   4.174  20.844   6.450
 6511POPC   C2B42224   4.253  20.865   6.750
 6511POPC   C3B42225   4.237  20.879   7.050
 6511POPC   C4B42226   4.266  20.837   7.350
 6512POPC   NC342227  32.988  35.375   5.550
 6512POPC   PO442228  33.040  35.375   5.850
 6512POPC   GL142229  33.005  35.358   6.150
 6512POPC   GL242230  32.906  35.399   6.150
 6512POPC   C1A42231  33.027  35.390   6.450
 6512POPC   D2A42232  33.039  35.367   6.750
 6512POPC   C3A42233  32.976  35.387   7.050
 6512POPC   C4A42234  33.021  35.344   7.350
 6512POPC   C1B42235  32.828  35.490   6.450
 6512POPC   C2B42236  32.820  35.497   6.750
 6512POPC   C3B42237  32.805  35.486   7.050
 6512POPC   C4B42238  32.812  35.461   7.350
 6513POPC   NC342239  19.799  22.181   5.550
 6513POPC   PO442240  19.846  22.205   5.850
 6513POPC   GL142241  19.856  22.164   6.150
 6513POPC   GL242242  19.930  22.064   6.150
 6513POPC   C1A42243  19.868  22.199   6.450
 6513POPC   D2A42244  19.787  22.184   6.750
 6513POPC   C3A42245  19.810  22.122   7.050
 6513POPC   C4A42246  19.858  22.127   7.350
 6513POPC   C1B42247  20.011  21.950   6.450
 6513POPC   C2B42248  19.976  21.958   6.750
 6513POPC   C3B42249  19.998  22.027   7.050
 6513POPC   C4B42250  20.063  22.034   7.350
 6514POPC   NC342251  33.754  21.379   5.550
 6514POPC   PO442252  33.822  21.372   5.850
 6514POPC   GL142253  33.835  21.370   6.150
 6514POPC   GL242254  33.746  21.277   6.150
 6514POPC   C1A42255  33.801  21.338   6.450
 6514POPC   D2A42256  33.793  21.431   6.750
 6514POPC   C3A42257  33.770  21.398   7.050
 6514POPC   C4A42258  33.832  21.371   7.350
 6514POPC   C1B42259  33.608  21.204   6.450
 6514POPC   C2B42260  33.622  21.177   6.750
 6514POPC   C3B42261  33.580  21.182   7.050
 6514POPC   C4B42262  33.616  21.260   7.350
 6515POPC   NC342263  37.722  23.703   5.550
 6515POPC   PO442264  37.677  23.757   5.850
 6515POPC   GL142265  37.681  23.701   6.150
 6515POPC   GL242266  37.606  23.640   6.150
 6515POPC   C1A42267  37.701  23.754   6.450
 6515POPC   D2A42268  37.699  23.747   6.750
 6515POPC   C3A42269  37.650  23.758   7.050
 6515POPC   C4A42270  37.728  23.755   7.350
 6515POPC   C1B42271  37.417  23.673   6.450
 6515POPC   C2B42272  37.412  23.641   6.750
 6515POPC   C3B42273  37.396  23.628   7.050
 6515POPC   C4B42274  37.485  23.637   7.350
 6516POPC   NC342275  37.678  19.089   5.550
 6516POPC   PO442276  37.662  19.066   5.850
 6516POPC   GL142277  37.669  19.090   6.150
 6516POPC   GL242278  37.797  19.104   6.150
 6516POPC   C1A42279  37.650  19.021   6.450
 6516POPC   D2A42280  37.684  19.090   6.750
 6516POPC   C3A42281  37.669  19.012   7.050
 6516POPC   C4A42282  37.674  19.040   7.350
 6516POPC   C1B42283  37.973  19.082   6.450
 6516POPC   C2B42284  37.938  19.068   6.750
 6516POPC   C3B42285  37.885  19.055   7.050
 6516POPC   C4B42286  37.930  19.034   7.350
 6517POPC   NC342287  17.550  38.489   5.550
 6517POPC   PO442288  17.497  38.456   5.850
 6517POPC   GL142289  17.487  38.479   6.150
 6517POPC   GL242290  17.350  38.507   6.150
 6517POPC   C1A42291  17.545  38.495   6.450
 6517POPC   D2A42292  17.522  38.466   6.750
 6517POPC   C3A42293  17.532  38.501   7.050
 6517POPC   C4A42294  17.461  38.436   7.350
 6517POPC   C1B42295  17.268  38.581   6.450
 6517POPC   C2B42296  17.257  38.517   6.750
 6517POPC   C3B42297  17.283  38.592   7.050
 6517POPC   C4B42298  17.259  38.595   7.350
 6518POPC   NC342299  30.719  14.359   5.550
 6518POPC   PO442300  30.665  14.433   5.850
 6518POPC   GL142301  30.707  14.449   6.150
 6518POPC   GL242302  30.623  14.453   6.150
 6518POPC   C1A42303  30.716  14.428   6.450
 6518POPC   D2A42304  30.696  14.366   6.750
 6518POPC   C3A42305  30.709  14.410   7.050
 6518POPC   C4A42306  30.653  14.396   7.350
 6518POPC   C1B42307  30.542  14.574   6.450
 6518POPC   C2B42308  30.518  14.599   6.750
 6518POPC   C3B42309  30.564  14.558   7.050
 6518POPC   C4B42310  30.560  14.591   7.350
 6519POPC   NC342311   4.350  26.091   5.550
 6519POPC   PO442312   4.277  26.032   5.850
 6519POPC   GL142313   4.314  26.043   6.150
 6519POPC   GL242314   4.431  26.011   6.150
 6519POPC   C1A42315   4.336  26.089   6.450
 6519POPC   D2A42316   4.319  26.078   6.750
 6519POPC   C3A42317   4.290  26.068   7.050
 6519POPC   C4A42318   4.270  26.065   7.350
 6519POPC   C1B42319   4.594  26.095   6.450
 6519POPC   C2B42320   4.531  26.101   6.750
 6519POPC   C3B42321   4.594  26.040   7.050
 6519POPC   C4B42322   4.553  26.034   7.350
 6520POPC   NC342323  33.059   9.703   5.550
 6520POPC   PO442324  32.981   9.772   5.850
 6520POPC   GL142325  32.999   9.743   6.150
 6520POPC   GL242326  32.928   9.701   6.150
 6520POPC   C1A42327  33.003   9.710   6.450
 6520POPC   D2A42328  33.033   9.713   6.750
 6520POPC   C3A42329  33.019   9.782   7.050
 6520POPC   C4A42330  33.061   9.769   7.350
 6520POPC   C1B42331  32.842   9.537   6.450
 6520POPC   C2B42332  32.864   9.592   6.750
 6520POPC   C3B42333  32.817   9.559   7.050
 6520POPC   C4B42334  32.888   9.527   7.350
 6521POPC   NC342335   1.176   8.225   5.550
 6521POPC   PO442336   1.223   8.149   5.850
 6521POPC   GL142337   1.197   8.163   6.150
 6521POPC   GL242338   1.293   8.269   6.150
 6521POPC   C1A42339   1.217   8.155   6.450
 6521POPC   D2A42340   1.237   8.231   6.750
 6521POPC   C3A42341   1.239   8.231   7.050
 6521POPC   C4A42342   1.209   8.151   7.350
 6521POPC   C1B42343   1.371   8.354   6.450
 6521POPC   C2B42344   1.357   8.407   6.750
 6521POPC   C3B42345   1.345   8.375   7.050
 6521POPC   C4B42346   1.389   8.380   7.350
 6522POPC   NC342347   2.013   4.347   5.550
 6522POPC   PO442348   1.994   4.344   5.850
 6522POPC   GL142349   2.023   4.273   6.150
 6522POPC   GL242350   2.106   4.252   6.150
 6522POPC   C1A42351   1.951   4.308   6.450
 6522POPC   D2A42352   2.006   4.327   6.750
 6522POPC   C3A42353   2.002   4.325   7.050
 6522POPC   C4A42354   1.960   4.350   7.350
 6522POPC   C1B42355   2.194   4.154   6.450
 6522POPC   C2B42356   2.224   4.226   6.750
 6522POPC   C3B42357   2.150   4.147   7.050
 6522POPC   C4B42358   2.211   4.148   7.350
 6523POPC   NC342359  40.005  36.111   5.550
 6523POPC   PO442360  40.006  36.126   5.850
 6523POPC   GL142361  40.031  36.100   6.150
 6523POPC   GL242362  39.901  36.031   6.150
 6523POPC   C1A42363  39.985  36.151   6.450
 6523POPC   D2A42364  40.023  36.177   6.750
 6523POPC   C3A42365  40.039  36.158   7.050
 6523POPC   C4A42366  40.034  36.083   7.350
 6523POPC   C1B42367  39.862  35.962   6.450
 6523POPC   C2B42368  39.874  35.934   6.750
 6523POPC   C3B42369  39.835  35.940   7.050
 6523POPC   C4B42370  39.829  35.936   7.350
 6524POPC   NC342371   0.415  39.258   5.550
 6524POPC   PO442372   0.469  39.267   5.850
 6524POPC   GL142373   0.454  39.222   6.150
 6524POPC   GL242374   0.434  39.139   6.150
 6524POPC   C1A42375   0.406  39.215   6.450
 6524POPC   D2A42376   0.421  39.202   6.750
 6524POPC   C3A42377   0.447  39.214   7.050
 6524POPC   C4A42378   0.486  39.242   7.350
 6524POPC   C1B42379   0.471  39.012   6.450
 6524POPC   C2B42380   0.436  39.002   6.750
 6524POPC   C3B42381   0.390  38.977   7.050
 6524POPC   C4B42382   0.397  38.988   7.350
 6525POPC   NC342383   2.753  19.064   5.550
 6525POPC   PO442384   2.790  19.102   5.850
 6525POPC   GL142385   2.749  19.036   6.150
 6525POPC   GL242386   2.636  19.041   6.150
 6525POPC   C1A42387   2.742  19.020   6.450
 6525POPC   D2A42388   2.718  19.084   6.750
 6525POPC   C3A42389   2.782  19.086   7.050
 6525POPC   C4A42390   2.726  19.062   7.350
 6525POPC   C1B42391   2.571  18.969   6.450
 6525POPC   C2B42392   2.586  18.984   6.750
 6525POPC   C3B42393   2.559  18.906   7.050
 6525POPC   C4B42394   2.581  18.976   7.350
 6526POPC   NC342395  35.333  26.799   5.550
 6526POPC   PO442396  35.337  26.842   5.850
 6526POPC   GL142397  35.315  26.823   6.150
 6526POPC   GL242398  35.352  26.981   6.150
 6526POPC   C1A42399  35.388  26.831   6.450
 6526POPC   D2A42400  35.328  26.831   6.750
 6526POPC   C3A42401  35.337  26.836   7.050
 6526POPC   C4A42402  35.355  26.778   7.350
 6526POPC   C1B42403  35.370  27.083   6.450
 6526POPC   C2B42404  35.423  27.047   6.750
 6526POPC   C3B42405  35.420  27.074   7.050
 6526POPC   C4B42406  35.405  27.031   7.350
 6527POPC   NC342407  39.973  28.411   5.550
 6527POPC   PO442408  40.046  28.402   5.850
 6527POPC   GL142409  39.986  28.393   6.150
 6527POPC   GL242410  40.002  28.263   6.150
 6527POPC   C1A42411  39.982  28.321   6.450
 6527POPC   D2A42412  39.963  28.340   6.750
 6527POPC   C3A42413  40.037  28.410   7.050
 6527POPC   C4A42414  39.976  28.327   7.350
 6527POPC   C1B42415  39.968  28.153   6.450
 6527POPC   C2B42416  40.004  28.115   6.750
 6527POPC   C3B42417  39.974  28.152   7.050
 6527POPC   C4B42418  39.967  28.073   7.350
 6528POPC   NC342419  23.691  22.987   5.550
 6528POPC   PO442420  23.756  22.907   5.850
 6528POPC   GL142421  23.755  22.976   6.150
 6528POPC   GL242422  23.546  22.895   6.150
 6528POPC   C1A42423  23.709  22.911   6.450
 6528POPC   D2A42424  23.747  22.902   6.750
 6528POPC   C3A42425  23.739  22.926   7.050
 6528POPC   C4A42426  23.667  22.949   7.350
 6528POPC   C1B42427  23.466  22.905   6.450
 6528POPC   C2B42428  23.481  22.907   6.750
 6528POPC   C3B42429  23.461  22.903   7.050
 6528POPC   C4B42430  23.428  22.896   7.350
 6529POPC   NC342431   9.784  33.821   5.550
 6529POPC   PO442432   9.789  33.819   5.850
 6529POPC   GL142433   9.768  33.770   6.150
 6529POPC   GL242434   9.831  33.758   6.150
 6529POPC   C1A42435   9.717  33.754   6.450
 6529POPC   D2A42436   9.782  33.778   6.750
 6529POPC   C3A42437   9.713  33.781   7.050
 6529POPC   C4A42438   9.791  33.795   7.350
 6529POPC   C1B42439  10.005  33.754   6.450
 6529POPC   C2B42440   9.997  33.718   6.750
 6529POPC   C3B42441   9.988  33.690   7.050
 6529POPC   C4B42442   9.993  33.707   7.350
 6530POPC   NC342443  17.501  36.114   5.550
 6530POPC   PO442444  17.463  36.142   5.850
 6530POPC   GL142445  17.503  36.106   6.150
 6530POPC   GL242446  17.599  36.056   6.150
 6530POPC   C1A42447  17.541  36.172   6.450
 6530POPC   D2A42448  17.532  36.168   6.750
 6530POPC   C3A42449  17.548  36.097   7.050
 6530POPC   C4A42450  17.556  36.106   7.350
 6530POPC   C1B42451  17.576  35.865   6.450
 6530POPC   C2B42452  17.611  35.865   6.750
 6530POPC   C3B42453  17.632  35.905   7.050
 6530POPC   C4B42454  17.603  35.905   7.350
 6531POPC   NC342455  43.912   2.016   5.550
 6531POPC   PO442456  43.887   1.996   5.850
 6531POPC   GL142457  43.929   2.028   6.150
 6531POPC   GL242458  43.841   1.884   6.150
 6531POPC   C1A42459  43.911   2.026   6.450
 6531POPC   D2A42460  43.930   2.026   6.750
 6531POPC   C3A42461  43.853   2.037   7.050
 6531POPC   C4A42462  43.868   1.973   7.350
 6531POPC   C1B42463  43.732   1.787   6.450
 6531POPC   C2B42464  43.767   1.762   6.750
 6531POPC   C3B42465  43.735   1.839   7.050
 6531POPC   C4B42466  43.687   1.835   7.350
 6532POPC   NC342467  44.702  18.265   5.550
 6532POPC   PO442468  44.622  18.262   5.850
 6532POPC   GL142469  44.630  18.239   6.150
 6532POPC   GL242470  44.771  18.317   6.150
 6532POPC   C1A42471  44.648  18.233   6.450
 6532POPC   D2A42472  44.674  18.266   6.750
 6532POPC   C3A42473  44.696  18.277   7.050
 6532POPC   C4A42474  44.707  18.243   7.350
 6532POPC   C1B42475  44.854  18.402   6.450
 6532POPC   C2B42476  44.898  18.377   6.750
 6532POPC   C3B42477  44.867  18.368   7.050
 6532POPC   C4B42478  44.921  18.380   7.350
 6533POPC   NC342479   7.425  21.373   5.550
 6533POPC   PO442480   7.457  21.371   5.850
 6533POPC   GL142481   7.384  21.345   6.150
 6533POPC   GL242482   7.349  21.391   6.150
 6533POPC   C1A42483   7.387  21.357   6.450
 6533POPC   D2A42484   7.437  21.414   6.750
 6533POPC   C3A42485   7.456  21.414   7.050
 6533POPC   C4A42486   7.375  21.417   7.350
 6533POPC   C1B42487   7.217  21.472   6.450
 6533POPC   C2B42488   7.236  21.506   6.750
 6533POPC   C3B42489   7.232  21.518   7.050
 6533POPC   C4B42490   7.191  21.522   7.350
 6534POPC   NC342491  14.429  25.269   5.550
 6534POPC   PO442492  14.407  25.259   5.850
 6534POPC   GL142493  14.397  25.304   6.150
 6534POPC   GL242494  14.474  25.189   6.150
 6534POPC   C1A42495  14.413  25.296   6.450
 6534POPC   D2A42496  14.374  25.226   6.750
 6534POPC   C3A42497  14.436  25.304   7.050
 6534POPC   C4A42498  14.437  25.270   7.350
 6534POPC   C1B42499  14.525  25.071   6.450
 6534POPC   C2B42500  14.575  25.100   6.750
 6534POPC   C3B42501  14.494  25.107   7.050
 6534POPC   C4B42502  14.538  25.028   7.350
 6535POPC   NC342503  22.204  12.872   5.550
 6535POPC   PO442504  22.187  12.810   5.850
 6535POPC   GL142505  22.195  12.842   6.150
 6535POPC   GL242506  22.075  12.911   6.150
 6535POPC   C1A42507  22.133  12.869   6.450
 6535POPC   D2A42508  22.198  12.803   6.750
 6535POPC   C3A42509  22.166  12.841   7.050
 6535POPC   C4A42510  22.165  12.881   7.350
 6535POPC   C1B42511  21.926  12.989   6.450
 6535POPC   C2B42512  21.906  13.006   6.750
 6535POPC   C3B42513  21.960  12.991   7.050
 6535POPC   C4B42514  21.972  12.973   7.350
 6536POPC   NC342515  25.294  36.928   5.550
 6536POPC   PO442516  25.298  36.888   5.850
 6536POPC   GL142517  25.237  36.953   6.150
 6536POPC   GL242518  25.225  36.816   6.150
 6536POPC   C1A42519  25.231  36.926   6.450
 6536POPC   D2A42520  25.246  36.861   6.750
 6536POPC   C3A42521  25.281  36.936   7.050
 6536POPC   C4A42522  25.267  36.925   7.350
 6536POPC   C1B42523  25.215  36.637   6.450
 6536POPC   C2B42524  25.225  36.689   6.750
 6536POPC   C3B42525  25.190  36.669   7.050
 6536POPC   C4B42526  25.154  36.699   7.350
 6537POPC   NC342527  26.085  39.230   5.550
 6537POPC   PO442528  26.081  39.227   5.850
 6537POPC   GL142529  26.058  39.230   6.150
 6537POPC   GL242530  25.997  39.141   6.150
 6537POPC   C1A42531  26.066  39.254   6.450
 6537POPC   D2A42532  26.059  39.276   6.750
 6537POPC   C3A42533  26.072  39.252   7.050
 6537POPC   C4A42534  26.056  39.250   7.350
 6537POPC   C1B42535  26.065  38.991   6.450
 6537POPC   C2B42536  25.994  38.997   6.750
 6537POPC   C3B42537  26.032  39.029   7.050
 6537POPC   C4B42538  26.013  38.971   7.350
 6538POPC   NC342539  38.463  18.321   5.550
 6538POPC   PO442540  38.452  18.332   5.850
 6538POPC   GL142541  38.501  18.298   6.150
 6538POPC   GL242542  38.558  18.415   6.150
 6538POPC   C1A42543  38.447  18.273   6.450
 6538POPC   D2A42544  38.430  18.280   6.750
 6538POPC   C3A42545  38.407  18.291   7.050
 6538POPC   C4A42546  38.458  18.284   7.350
 6538POPC   C1B42547  38.571  18.504   6.450
 6538POPC   C2B42548  38.638  18.501   6.750
 6538POPC   C3B42549  38.622  18.468   7.050
 6538POPC   C4B42550  38.619  18.487   7.350
 6539POPC   NC342551  12.867  36.080   5.550
 6539POPC   PO442552  12.858  36.090   5.850
 6539POPC   GL142553  12.873  36.138   6.150
 6539POPC   GL242554  13.011  36.157   6.150
 6539POPC   C1A42555  12.810  36.080   6.450
 6539POPC   D2A42556  12.857  36.130   6.750
 6539POPC   C3A42557  12.902  36.083   7.050
 6539POPC   C4A42558  12.807  36.093   7.350
 6539POPC   C1B42559  13.134  36.116   6.450
 6539POPC   C2B42560  13.099  36.166   6.750
 6539POPC   C3B42561  13.056  36.120   7.050
 6539POPC   C4B42562  13.101  36.177   7.350
 6540POPC   NC342563  11.287  33.017   5.550
 6540POPC   PO442564  11.299  33.029   5.850
 6540POPC   GL142565  11.325  32.998   6.150
 6540POPC   GL242566  11.321  32.879   6.150
 6540POPC   C1A42567  11.293  33.045   6.450
 6540POPC   D2A42568  11.303  33.009   6.750
 6540POPC   C3A42569  11.333  33.030   7.050
 6540POPC   C4A42570  11.298  32.999   7.350
 6540POPC   C1B42571  11.383  32.822   6.450
 6540POPC   C2B42572  11.351  32.763   6.750
 6540POPC   C3B42573  11.320  32.769   7.050
 6540POPC   C4B42574  11.353  32.776   7.350
 6541POPC   NC342575   9.004   5.054   5.550
 6541POPC   PO442576   8.963   5.081   5.850
 6541POPC   GL142577   8.938   5.078   6.150
 6541POPC   GL242578   9.061   5.060   6.150
 6541POPC   C1A42579   8.970   5.105   6.450
 6541POPC   D2A42580   8.981   5.062   6.750
 6541POPC   C3A42581   8.978   5.122   7.050
 6541POPC   C4A42582   8.938   5.080   7.350
 6541POPC   C1B42583   9.192   4.957   6.450
 6541POPC   C2B42584   9.213   4.929   6.750
 6541POPC   C3B42585   9.124   4.908   7.050
 6541POPC   C4B42586   9.130   4.966   7.350
 6542POPC   NC342587  18.298  21.352   5.550
 6542POPC   PO442588  18.315  21.435   5.850
 6542POPC   GL142589  18.249  21.340   6.150
 6542POPC   GL242590  18.411  21.279   6.150
 6542POPC   C1A42591  18.327  21.433   6.450
 6542POPC   D2A42592  18.235  21.411   6.750
 6542POPC   C3A42593  18.327  21.400   7.050
 6542POPC   C4A42594  18.265  21.402   7.350
 6542POPC   C1B42595  18.446  21.223   6.450
 6542POPC   C2B42596  18.427  21.262   6.750
 6542POPC   C3B42597  18.479  21.183   7.050
 6542POPC   C4B42598  18.450  21.246   7.350
 6543POPC   NC342599  26.037  34.533   5.550
 6543POPC   PO442600  26.063  34.550   5.850
 6543POPC   GL142601  26.052  34.617   6.150
 6543POPC   GL242602  26.155  34.616   6.150
 6543POPC   C1A42603  26.033  34.626   6.450
 6543POPC   D2A42604  26.041  34.529   6.750
 6543POPC   C3A42605  26.057  34.596   7.050
 6543POPC   C4A42606  26.089  34.604   7.350
 6543POPC   C1B42607  26.250  34.743   6.450
 6543POPC   C2B42608  26.215  34.673   6.750
 6543POPC   C3B42609  26.256  34.736   7.050
 6543POPC   C4B42610  26.236  34.687   7.350
 6544POPC   NC342611   5.051  14.354   5.550
 6544POPC   PO442612   5.077  14.441   5.850
 6544POPC   GL142613   5.049  14.453   6.150
 6544POPC   GL242614   5.185  14.486   6.150
 6544POPC   C1A42615   5.063  14.451   6.450
 6544POPC   D2A42616   5.047  14.410   6.750
 6544POPC   C3A42617   5.094  14.420   7.050
 6544POPC   C4A42618   5.117  14.440   7.350
 6544POPC   C1B42619   5.325  14.488   6.450
 6544POPC   C2B42620   5.312  14.505   6.750
 6544POPC   C3B42621   5.296  14.535   7.050
 6544POPC   C4B42622   5.340  14.535   7.350
 6545POPC   NC342623  43.152  27.559   5.550
 6545POPC   PO442624  43.104  27.547   5.850
 6545POPC   GL142625  43.109  27.623   6.150
 6545POPC   GL242626  43.245  27.540   6.150
 6545POPC   C1A42627  43.137  27.607   6.450
 6545POPC   D2A42628  43.141  27.557   6.750
 6545POPC   C3A42629  43.062  27.615   7.050
 6545POPC   C4A42630  43.082  27.631   7.350
 6545POPC   C1B42631  43.307  27.543   6.450
 6545POPC   C2B42632  43.336  27.474   6.750
 6545POPC   C3B42633  43.364  27.553   7.050
 6545POPC   C4B42634  43.360  27.512   7.350
 6546POPC   NC342635  36.151  36.942   5.550
 6546POPC   PO442636  36.086  36.931   5.850
 6546POPC   GL142637  36.127  36.912   6.150
 6546POPC   GL242638  36.242  36.964   6.150
 6546POPC   C1A42639  36.092  36.902   6.450
 6546POPC   D2A42640  36.090  36.864   6.750
 6546POPC   C3A42641  36.167  36.866   7.050
 6546POPC   C4A42642  36.145  36.864   7.350
 6546POPC   C1B42643  36.291  37.044   6.450
 6546POPC   C2B42644  36.279  37.076   6.750
 6546POPC   C3B42645  36.307  37.073   7.050
 6546POPC   C4B42646  36.316  37.096   7.350
 6547POPC   NC342647  36.086  24.475   5.550
 6547POPC   PO442648  36.166  24.501   5.850
 6547POPC   GL142649  36.154  24.452   6.150
 6547POPC   GL242650  36.205  24.466   6.150
 6547POPC   C1A42651  36.163  24.513   6.450
 6547POPC   D2A42652  36.120  24.533   6.750
 6547POPC   C3A42653  36.098  24.522   7.050
 6547POPC   C4A42654  36.145  24.529   7.350
 6547POPC   C1B42655  36.371  24.476   6.450
 6547POPC   C2B42656  36.345  24.554   6.750
 6547POPC   C3B42657  36.342  24.470   7.050
 6547POPC   C4B42658  36.425  24.559   7.350
 6548POPC   NC342659  42.359  21.372   5.550
 6548POPC   PO442660  42.345  21.416   5.850
 6548POPC   GL142661  42.290  21.372   6.150
 6548POPC   GL242662  42.224  21.287   6.150
 6548POPC   C1A42663  42.342  21.427   6.450
 6548POPC   D2A42664  42.332  21.420   6.750
 6548POPC   C3A42665  42.320  21.432   7.050
 6548POPC   C4A42666  42.292  21.346   7.350
 6548POPC   C1B42667  42.184  21.193   6.450
 6548POPC   C2B42668  42.135  21.217   6.750
 6548POPC   C3B42669  42.131  21.218   7.050
 6548POPC   C4B42670  42.188  21.192   7.350
 6549POPC   NC342671   5.843  20.571   5.550
 6549POPC   PO442672   5.837  20.641   5.850
 6549POPC   GL142673   5.829  20.611   6.150
 6549POPC   GL242674   5.798  20.502   6.150
 6549POPC   C1A42675   5.834  20.570   6.450
 6549POPC   D2A42676   5.861  20.627   6.750
 6549POPC   C3A42677   5.905  20.650   7.050
 6549POPC   C4A42678   5.848  20.564   7.350
 6549POPC   C1B42679   5.733  20.361   6.450
 6549POPC   C2B42680   5.758  20.451   6.750
 6549POPC   C3B42681   5.770  20.407   7.050
 6549POPC   C4B42682   5.702  20.416   7.350
 6550POPC   NC342683   5.065  43.886   5.550
 6550POPC   PO442684   5.116  43.927   5.850
 6550POPC   GL142685   5.130  43.910   6.150
 6550POPC   GL242686   5.206  43.815   6.150
 6550POPC   C1A42687   5.077  43.841   6.450
 6550POPC   D2A42688   5.062  43.909   6.750
 6550POPC   C3A42689   5.074  43.935   7.050
 6550POPC   C4A42690   5.067  43.921   7.350
 6550POPC   C1B42691   5.271  43.748   6.450
 6550POPC   C2B42692   5.301  43.779   6.750
 6550POPC   C3B42693   5.324  43.732   7.050
 6550POPC   C4B42694   5.271  43.712   7.350
 6551POPC   NC342695   2.728  26.859   5.550
 6551POPC   PO442696   2.785  26.773   5.850
 6551POPC   GL142697   2.751  26.799   6.150
 6551POPC   GL242698   2.666  26.906   6.150
 6551POPC   C1A42699   2.815  26.831   6.450
 6551POPC   D2A42700   2.814  26.778   6.750
 6551POPC   C3A42701   2.796  26.822   7.050
 6551POPC   C4A42702   2.789  26.785   7.350
 6551POPC   C1B42703   2.633  27.061   6.450
 6551POPC   C2B42704   2.598  26.999   6.750
 6551POPC   C3B42705   2.651  26.976   7.050
 6551POPC   C4B42706   2.593  27.062   7.350
 6552POPC   NC342707   2.728  19.862   5.550
 6552POPC   PO442708   2.810  19.843   5.850
 6552POPC   GL142709   2.738  19.838   6.150
 6552POPC   GL242710   2.728  19.737   6.150
 6552POPC   C1A42711   2.748  19.802   6.450
 6552POPC   D2A42712   2.784  19.826   6.750
 6552POPC   C3A42713   2.773  19.848   7.050
 6552POPC   C4A42714   2.775  19.848   7.350
 6552POPC   C1B42715   2.745  19.613   6.450
 6552POPC   C2B42716   2.751  19.625   6.750
 6552POPC   C3B42717   2.752  19.549   7.050
 6552POPC   C4B42718   2.736  19.607   7.350
 6553POPC   NC342719   7.414  40.010   5.550
 6553POPC   PO442720   7.385  40.052   5.850
 6553POPC   GL142721   7.398  40.017   6.150
 6553POPC   GL242722   7.343  40.109   6.150
 6553POPC   C1A42723   7.453  40.024   6.450
 6553POPC   D2A42724   7.442  40.054   6.750
 6553POPC   C3A42725   7.380  39.983   7.050
 6553POPC   C4A42726   7.423  40.016   7.350
 6553POPC   C1B42727   7.319  40.174   6.450
 6553POPC   C2B42728   7.247  40.258   6.750
 6553POPC   C3B42729   7.289  40.192   7.050
 6553POPC   C4B42730   7.273  40.197   7.350
 6554POPC   NC342731  12.864  43.088   5.550
 6554POPC   PO442732  12.843  43.076   5.850
 6554POPC   GL142733  12.871  43.096   6.150
 6554POPC   GL242734  13.012  43.116   6.150
 6554POPC   C1A42735  12.832  43.081   6.450
 6554POPC   D2A42736  12.828  43.110   6.750
 6554POPC   C3A42737  12.892  43.099   7.050
 6554POPC   C4A42738  12.851  43.149   7.350
 6554POPC   C1B42739  13.126  43.234   6.450
 6554POPC   C2B42740  13.067  43.258   6.750
 6554POPC   C3B42741  13.059  43.242   7.050
 6554POPC   C4B42742  13.088  43.240   7.350
 6555POPC   NC342743   7.403  20.596   5.550
 6555POPC   PO442744   7.399  20.660   5.850
 6555POPC   GL142745   7.460  20.603   6.150
 6555POPC   GL242746   7.500  20.566   6.150
 6555POPC   C1A42747   7.434  20.640   6.450
 6555POPC   D2A42748   7.420  20.636   6.750
 6555POPC   C3A42749   7.439  20.636   7.050
 6555POPC   C4A42750   7.470  20.611   7.350
 6555POPC   C1B42751   7.675  20.537   6.450
 6555POPC   C2B42752   7.633  20.515   6.750
 6555POPC   C3B42753   7.625  20.503   7.050
 6555POPC   C4B42754   7.681  20.501   7.350
 6556POPC   NC342755  40.735  36.160   5.550
 6556POPC   PO442756  40.823  36.152   5.850
 6556POPC   GL142757  40.832  36.118   6.150
 6556POPC   GL242758  40.791  35.986   6.150
 6556POPC   C1A42759  40.767  36.171   6.450
 6556POPC   D2A42760  40.812  36.159   6.750
 6556POPC   C3A42761  40.781  36.151   7.050
 6556POPC   C4A42762  40.807  36.148   7.350
 6556POPC   C1B42763  40.904  35.895   6.450
 6556POPC   C2B42764  40.830  35.867   6.750
 6556POPC   C3B42765  40.916  35.938   7.050
 6556POPC   C4B42766  40.855  35.943   7.350
 6557POPC   NC342767   1.238   6.684   5.550
 6557POPC   PO442768   1.207   6.624   5.850
 6557POPC   GL142769   1.233   6.660   6.150
 6557POPC   GL242770   1.172   6.567   6.150
 6557POPC   C1A42771   1.250   6.684   6.450
 6557POPC   D2A42772   1.192   6.656   6.750
 6557POPC   C3A42773   1.259   6.642   7.050
 6557POPC   C4A42774   1.172   6.617   7.350
 6557POPC   C1B42775   1.080   6.429   6.450
 6557POPC   C2B42776   1.113   6.464   6.750
 6557POPC   C3B42777   1.054   6.432   7.050
 6557POPC   C4B42778   1.119   6.439   7.350
 6558POPC   NC342779  33.806  36.089   5.550
 6558POPC   PO442780  33.845  36.110   5.850
 6558POPC   GL142781  33.824  36.160   6.150
 6558POPC   GL242782  33.851  36.273   6.150
 6558POPC   C1A42783  33.798  36.086   6.450
 6558POPC   D2A42784  33.847  36.098   6.750
 6558POPC   C3A42785  33.846  36.132   7.050
 6558POPC   C4A42786  33.790  36.168   7.350
 6558POPC   C1B42787  33.943  36.336   6.450
 6558POPC   C2B42788  33.924  36.359   6.750
 6558POPC   C3B42789  33.882  36.314   7.050
 6558POPC   C4B42790  33.916  36.385   7.350
 6559POPC   NC342791   7.433  23.676   5.550
 6559POPC   PO442792   7.407  23.713   5.850
 6559POPC   GL142793   7.398  23.724   6.150
 6559POPC   GL242794   7.512  23.725   6.150
 6559POPC   C1A42795   7.450  23.689   6.450
 6559POPC   D2A42796   7.464  23.703   6.750
 6559POPC   C3A42797   7.437  23.667   7.050
 6559POPC   C4A42798   7.405  23.711   7.350
 6559POPC   C1B42799   7.668  23.694   6.450
 6559POPC   C2B42800   7.639  23.653   6.750
 6559POPC   C3B42801   7.693  23.623   7.050
 6559POPC   C4B42802   7.650  23.634   7.350
 6560POPC   NC342803  29.102   8.968   5.550
 6560POPC   PO442804  29.095   8.974   5.850
 6560POPC   GL142805  29.141   8.987   6.150
 6560POPC   GL242806  29.199   8.926   6.150
 6560POPC   C1A42807  29.140   8.950   6.450
 6560POPC   D2A42808  29.192   8.978   6.750
 6560POPC   C3A42809  29.188   8.933   7.050
 6560POPC   C4A42810  29.140   8.980   7.350
 6560POPC   C1B42811  29.372   8.848   6.450
 6560POPC   C2B42812  29.355   8.857   6.750
 6560POPC   C3B42813  29.385   8.826   7.050
 6560POPC   C4B42814  29.356   8.806   7.350
 6561POPC   NC342815  25.265  14.386   5.550
 6561POPC   PO442816  25.242  14.401   5.850
 6561POPC   GL142817  25.274  14.423   6.150
 6561POPC   GL242818  25.247  14.309   6.150
 6561POPC   C1A42819  25.254  14.427   6.450
 6561POPC   D2A42820  25.270  14.446   6.750
 6561POPC   C3A42821  25.262  14.383   7.050
 6561POPC   C4A42822  25.312  14.451   7.350
 6561POPC   C1B42823  25.212  14.189   6.450
 6561POPC   C2B42824  25.188  14.136   6.750
 6561POPC   C3B42825  25.160  14.130   7.050
 6561POPC   C4B42826  25.184  14.166   7.350
 6562POPC   NC342827  32.288  40.830   5.550
 6562POPC   PO442828  32.209  40.766   5.850
 6562POPC   GL142829  32.242  40.810   6.150
 6562POPC   GL242830  32.253  40.926   6.150
 6562POPC   C1A42831  32.233  40.767   6.450
 6562POPC   D2A42832  32.279  40.770   6.750
 6562POPC   C3A42833  32.288  40.748   7.050
 6562POPC   C4A42834  32.269  40.796   7.350
 6562POPC   C1B42835  32.296  41.020   6.450
 6562POPC   C2B42836  32.310  41.040   6.750
 6562POPC   C3B42837  32.311  41.037   7.050
 6562POPC   C4B42838  32.336  41.050   7.350
 6563POPC   NC342839  43.916  19.027   5.550
 6563POPC   PO442840  43.885  19.042   5.850
 6563POPC   GL142841  43.922  19.037   6.150
 6563POPC   GL242842  44.020  19.035   6.150
 6563POPC   C1A42843  43.891  19.061   6.450
 6563POPC   D2A42844  43.909  19.047   6.750
 6563POPC   C3A42845  43.849  19.020   7.050
 6563POPC   C4A42846  43.844  19.022   7.350
 6563POPC   C1B42847  44.073  18.910   6.450
 6563POPC   C2B42848  44.114  18.895   6.750
 6563POPC   C3B42849  44.106  18.887   7.050
 6563POPC   C4B42850  44.088  18.869   7.350
 6564POPC   NC342851  19.058  10.478   5.550
 6564POPC   PO442852  19.086  10.491   5.850
 6564POPC   GL142853  19.082  10.545   6.150
 6564POPC   GL242854  19.071  10.367   6.150
 6564POPC   C1A42855  19.097  10.501   6.450
 6564POPC   D2A42856  19.052  10.496   6.750
 6564POPC   C3A42857  19.036  10.571   7.050
 6564POPC   C4A42858  19.086  10.523   7.350
 6564POPC   C1B42859  19.040  10.279   6.450
 6564POPC   C2B42860  19.054  10.296   6.750
 6564POPC   C3B42861  19.001  10.249   7.050
 6564POPC   C4B42862  19.011  10.232   7.350
 6565POPC   NC342863   8.979   3.495   5.550
 6565POPC   PO442864   8.958   3.574   5.850
 6565POPC   GL142865   8.973   3.495   6.150
 6565POPC   GL242866   8.996   3.429   6.150
 6565POPC   C1A42867   8.936   3.544   6.450
 6565POPC   D2A42868   8.943   3.511   6.750
 6565POPC   C3A42869   9.015   3.541   7.050
 6565POPC   C4A42870   8.942   3.502   7.350
 6565POPC   C1B42871   8.995   3.279   6.450
 6565POPC   C2B42872   9.016   3.309   6.750
 6565POPC   C3B42873   8.941   3.272   7.050
 6565POPC   C4B42874   9.015   3.270   7.350
 6566POPC   NC342875  43.879  26.840   5.550
 6566POPC   PO442876  43.888  26.844   5.850
 6566POPC   GL142877  43.842  26.838   6.150
 6566POPC   GL242878  43.928  26.887   6.150
 6566POPC   C1A42879  43.882  26.770   6.450
 6566POPC   D2A42880  43.879  26.842   6.750
 6566POPC   C3A42881  43.925  26.831   7.050
 6566POPC   C4A42882  43.883  26.866   7.350
 6566POPC   C1B42883  44.025  27.008   6.450
 6566POPC   C2B42884  44.066  26.996   6.750
 6566POPC   C3B42885  44.077  26.987   7.050
 6566POPC   C4B42886  44.000  27.001   7.350
 6567POPC   NC342887  39.257  10.562   5.550
 6567POPC   PO442888  39.228  10.493   5.850
 6567POPC   GL142889  39.279  10.521   6.150
 6567POPC   GL242890  39.171  10.664   6.150
 6567POPC   C1A42891  39.234  10.501   6.450
 6567POPC   D2A42892  39.226  10.535   6.750
 6567POPC   C3A42893  39.182  10.555   7.050
 6567POPC   C4A42894  39.205  10.493   7.350
 6567POPC   C1B42895  39.087  10.773   6.450
 6567POPC   C2B42896  39.084  10.741   6.750
 6567POPC   C3B42897  39.109  10.705   7.050
 6567POPC   C4B42898  39.114  10.752   7.350
 6568POPC   NC342899  11.256  33.786   5.550
 6568POPC   PO442900  11.329  33.846   5.850
 6568POPC   GL142901  11.317  33.815   6.150
 6568POPC   GL242902  11.282  33.730   6.150
 6568POPC   C1A42903  11.303  33.825   6.450
 6568POPC   D2A42904  11.301  33.819   6.750
 6568POPC   C3A42905  11.288  33.758   7.050
 6568POPC   C4A42906  11.271  33.842   7.350
 6568POPC   C1B42907  11.154  33.570   6.450
 6568POPC   C2B42908  11.190  33.608   6.750
 6568POPC   C3B42909  11.218  33.589   7.050
 6568POPC   C4B42910  11.212  33.549   7.350
 6569POPC   NC342911   5.087  29.162   5.550
 6569POPC   PO442912   5.122  29.120   5.850
 6569POPC   GL142913   5.095  29.112   6.150
 6569POPC   GL242914   4.989  29.191   6.150
 6569POPC   C1A42915   5.051  29.122   6.450
 6569POPC   D2A42916   5.095  29.111   6.750
 6569POPC   C3A42917   5.102  29.189   7.050
 6569POPC   C4A42918   5.137  29.114   7.350
 6569POPC   C1B42919   4.896  29.259   6.450
 6569POPC   C2B42920   4.868  29.257   6.750
 6569POPC   C3B42921   4.870  29.301   7.050
 6569POPC   C4B42922   4.883  29.257   7.350
 6570POPC   NC342923  36.141  38.447   5.550
 6570POPC   PO442924  36.114  38.493   5.850
 6570POPC   GL142925  36.142  38.469   6.150
 6570POPC   GL242926  36.039  38.450   6.150
 6570POPC   C1A42927  36.159  38.492   6.450
 6570POPC   D2A42928  36.115  38.477   6.750
 6570POPC   C3A42929  36.107  38.407   7.050
 6570POPC   C4A42930  36.106  38.505   7.350
 6570POPC   C1B42931  35.839  38.487   6.450
 6570POPC   C2B42932  35.883  38.531   6.750
 6570POPC   C3B42933  35.897  38.469   7.050
 6570POPC   C4B42934  35.858  38.504   7.350
 6571POPC   NC342935  41.580  36.116   5.550
 6571POPC   PO442936  41.535  36.101   5.850
 6571POPC   GL142937  41.551  36.140   6.150
 6571POPC   GL242938  41.691  36.101   6.150
 6571POPC   C1A42939  41.565  36.120   6.450
 6571POPC   D2A42940  41.581  36.109   6.750
 6571POPC   C3A42941  41.532  36.116   7.050
 6571POPC   C4A42942  41.562  36.132   7.350
 6571POPC   C1B42943  41.828  36.192   6.450
 6571POPC   C2B42944  41.857  36.139   6.750
 6571POPC   C3B42945  41.805  36.193   7.050
 6571POPC   C4B42946  41.782  36.156   7.350
 6572POPC   NC342947   6.662  36.170   5.550
 6572POPC   PO442948   6.655  36.092   5.850
 6572POPC   GL142949   6.680  36.082   6.150
 6572POPC   GL242950   6.666  36.031   6.150
 6572POPC   C1A42951   6.639  36.113   6.450
 6572POPC   D2A42952   6.655  36.106   6.750
 6572POPC   C3A42953   6.686  36.130   7.050
 6572POPC   C4A42954   6.599  36.167   7.350
 6572POPC   C1B42955   6.658  35.916   6.450
 6572POPC   C2B42956   6.672  35.888   6.750
 6572POPC   C3B42957   6.622  35.910   7.050
 6572POPC   C4B42958   6.710  35.831   7.350
 6573POPC   NC342959  44.701   3.492   5.550
 6573POPC   PO442960  44.614   3.526   5.850
 6573POPC   GL142961  44.708   3.543   6.150
 6573POPC   GL242962  44.709   3.437   6.150
 6573POPC   C1A42963  44.701   3.531   6.450
 6573POPC   D2A42964  44.698   3.582   6.750
 6573POPC   C3A42965  44.659   3.552   7.050
 6573POPC   C4A42966  44.662   3.572   7.350
 6573POPC   C1B42967  44.670   3.253   6.450
 6573POPC   C2B42968  44.750   3.331   6.750
 6573POPC   C3B42969  44.743   3.343   7.050
 6573POPC   C4B42970  44.729   3.277   7.350
 6574POPC   NC342971  16.773  27.572   5.550
 6574POPC   PO442972  16.726  27.632   5.850
 6574POPC   GL142973  16.690  27.638   6.150
 6574POPC   GL242974  16.767  27.420   6.150
 6574POPC   C1A42975  16.720  27.558   6.450
 6574POPC   D2A42976  16.739  27.601   6.750
 6574POPC   C3A42977  16.765  27.564   7.050
 6574POPC   C4A42978  16.779  27.624   7.350
 6574POPC   C1B42979  16.788  27.356   6.450
 6574POPC   C2B42980  16.770  27.302   6.750
 6574POPC   C3B42981  16.744  27.319   7.050
 6574POPC   C4B42982  16.759  27.375   7.350
 6575POPC   NC342983   3.526  15.202   5.550
 6575POPC   PO442984   3.577  15.146   5.850
 6575POPC   GL142985   3.561  15.209   6.150
 6575POPC   GL242986   3.381  15.233   6.150
 6575POPC   C1A42987   3.514  15.182   6.450
 6575POPC   D2A42988   3.510  15.222   6.750
 6575POPC   C3A42989   3.527  15.135   7.050
 6575POPC   C4A42990   3.542  15.182   7.350
 6575POPC   C1B42991   3.326  15.146   6.450
 6575POPC   C2B42992   3.342  15.185   6.750
 6575POPC   C3B42993   3.305  15.183   7.050
 6575POPC   C4B42994   3.268  15.204   7.350
 6576POPC   NC342995  11.262   7.454   5.550
 6576POPC   PO442996  11.328   7.429   5.850
 6576POPC   GL142997  11.311   7.399   6.150
 6576POPC   GL242998  11.178   7.530   6.150
 6576POPC   C1A42999  11.339   7.454   6.450
 6576POPC   D2A43000  11.327   7.428   6.750
 6576POPC   C3A43001  11.261   7.469   7.050
 6576POPC   C4A43002  11.336   7.389   7.350
 6576POPC   C1B43003  11.107   7.585   6.450
 6576POPC   C2B43004  11.114   7.554   6.750
 6576POPC   C3B43005  11.117   7.591   7.050
 6576POPC   C4B43006  11.154   7.627   7.350
 6577POPC   NC343007  11.325  44.703   5.550
 6577POPC   PO443008  11.317  44.632   5.850
 6577POPC   GL143009  11.257  44.707   6.150
 6577POPC   GL243010  11.394  44.610   6.150
 6577POPC   C1A43011  11.329  44.686   6.450
 6577POPC   D2A43012  11.266  44.618   6.750
 6577POPC   C3A43013  11.311  44.643   7.050
 6577POPC   C4A43014  11.314  44.617   7.350
 6577POPC   C1B43015  11.533  44.631   6.450
 6577POPC   C2B43016  11.520  44.652   6.750
 6577POPC   C3B43017  11.544  44.578   7.050
 6577POPC   C4B43018  11.565  44.591   7.350
 6578POPC   NC343019  24.522  28.331   5.550
 6578POPC   PO443020  24.507  28.360   5.850
 6578POPC   GL143021  24.456  28.366   6.150
 6578POPC   GL243022  24.512  28.299   6.150
 6578POPC   C1A43023  24.538  28.403   6.450
 6578POPC   D2A43024  24.471  28.346   6.750
 6578POPC   C3A43025  24.488  28.372   7.050
 6578POPC   C4A43026  24.468  28.321   7.350
 6578POPC   C1B43027  24.554  28.141   6.450
 6578POPC   C2B43028  24.580  28.177   6.750
 6578POPC   C3B43029  24.644  28.162   7.050
 6578POPC   C4B43030  24.604  28.113   7.350
 6579POPC   NC343031  24.447  22.926   5.550
 6579POPC   PO443032  24.500  22.927   5.850
 6579POPC   GL143033  24.453  22.962   6.150
 6579POPC   GL243034  24.397  22.852   6.150
 6579POPC   C1A43035  24.511  22.939   6.450
 6579POPC   D2A43036  24.532  22.908   6.750
 6579POPC   C3A43037  24.539  22.902   7.050
 6579POPC   C4A43038  24.441  22.896   7.350
 6579POPC   C1B43039  24.278  22.816   6.450
 6579POPC   C2B43040  24.223  22.849   6.750
 6579POPC   C3B43041  24.289  22.864   7.050
 6579POPC   C4B43042  24.288  22.849   7.350
 6580POPC   NC343043   5.905  43.112   5.550
 6580POPC   PO443044   5.905  43.089   5.850
 6580POPC   GL143045   5.890  43.088   6.150
 6580POPC   GL243046   5.893  42.956   6.150
 6580POPC   C1A43047   5.858  43.066   6.450
 6580POPC   D2A43048   5.852  43.146   6.750
 6580POPC   C3A43049   5.867  43.078   7.050
 6580POPC   C4A43050   5.826  43.093   7.350
 6580POPC   C1B43051   5.931  42.865   6.450
 6580POPC   C2B43052   5.947  42.882   6.750
 6580POPC   C3B43053   5.965  42.921   7.050
 6580POPC   C4B43054   6.003  42.863   7.350
 6581POPC   NC343055  15.135  15.189   5.550
 6581POPC   PO443056  15.184  15.174   5.850
 6581POPC   GL143057  15.155  15.220   6.150
 6581POPC   GL243058  15.101  15.058   6.150
 6581POPC   C1A43059  15.140  15.143   6.450
 6581POPC   D2A43060  15.137  15.166   6.750
 6581POPC   C3A43061  15.138  15.215   7.050
 6581POPC   C4A43062  15.205  15.193   7.350
 6581POPC   C1B43063  15.018  15.046   6.450
 6581POPC   C2B43064  14.952  15.040   6.750
 6581POPC   C3B43065  14.980  15.039   7.050
 6581POPC   C4B43066  15.001  15.000   7.350
 6582POPC   NC343067   4.344   7.383   5.550
 6582POPC   PO443068   4.306   7.375   5.850
 6582POPC   GL143069   4.365   7.372   6.150
 6582POPC   GL243070   4.296   7.315   6.150
 6582POPC   C1A43071   4.299   7.407   6.450
 6582POPC   D2A43072   4.347   7.373   6.750
 6582POPC   C3A43073   4.353   7.379   7.050
 6582POPC   C4A43074   4.284   7.415   7.350
 6582POPC   C1B43075   4.153   7.181   6.450
 6582POPC   C2B43076   4.206   7.233   6.750
 6582POPC   C3B43077   4.166   7.185   7.050
 6582POPC   C4B43078   4.137   7.205   7.350
 6583POPC   NC343079  32.278  10.484   5.550
 6583POPC   PO443080  32.266  10.542   5.850
 6583POPC   GL143081  32.246  10.566   6.150
 6583POPC   GL243082  32.300  10.410   6.150
 6583POPC   C1A43083  32.297  10.480   6.450
 6583POPC   D2A43084  32.259  10.517   6.750
 6583POPC   C3A43085  32.243  10.485   7.050
 6583POPC   C4A43086  32.203  10.565   7.350
 6583POPC   C1B43087  32.460  10.409   6.450
 6583POPC   C2B43088  32.427  10.352   6.750
 6583POPC   C3B43089  32.406  10.340   7.050
 6583POPC   C4B43090  32.459  10.372   7.350
 6584POPC   NC343091  29.942  19.044   5.550
 6584POPC   PO443092  29.961  19.072   5.850
 6584POPC   GL143093  29.919  19.101   6.150
 6584POPC   GL243094  29.806  19.037   6.150
 6584POPC   C1A43095  29.888  19.022   6.450
 6584POPC   D2A43096  29.946  19.032   6.750
 6584POPC   C3A43097  29.911  19.040   7.050
 6584POPC   C4A43098  29.914  19.093   7.350
 6584POPC   C1B43099  29.631  19.020   6.450
 6584POPC   C2B43100  29.652  19.059   6.750
 6584POPC   C3B43101  29.685  18.982   7.050
 6584POPC   C4B43102  29.695  19.012   7.350
 6585POPC   NC343103  38.455  27.617   5.550
 6585POPC   PO443104  38.498  27.637   5.850
 6585POPC   GL143105  38.430  27.623   6.150
 6585POPC   GL243106  38.344  27.596   6.150
 6585POPC   C1A43107  38.452  27.565   6.450
 6585POPC   D2A43108  38.410  27.632   6.750
 6585POPC   C3A43109  38.443  27.623   7.050
 6585POPC   C4A43110  38.480  27.565   7.350
 6585POPC   C1B43111  38.223  27.614   6.450
 6585POPC   C2B43112  38.212  27.589   6.750
 6585POPC   C3B43113  38.201  27.657   7.050
 6585POPC   C4B43114  38.186  27.663   7.350
 6586POPC   NC343115  42.346  42.350   5.550
 6586POPC   PO443116  42.285  42.374   5.850
 6586POPC   GL143117  42.343  42.294   6.150
 6586POPC   GL243118  42.423  42.261   6.150
 6586POPC   C1A43119  42.367  42.329   6.450
 6586POPC   D2A43120  42.329  42.377   6.750
 6586POPC   C3A43121  42.300  42.320   7.050
 6586POPC   C4A43122  42.286  42.293   7.350
 6586POPC   C1B43123  42.519  42.185   6.450
 6586POPC   C2B43124  42.576  42.211   6.750
 6586POPC   C3B43125  42.551  42.238   7.050
 6586POPC   C4B43126  42.596  42.231   7.350
 6587POPC   NC343127  33.070  19.049   5.550
 6587POPC   PO443128  33.012  19.021   5.850
 6587POPC   GL143129  32.991  19.079   6.150
 6587POPC   GL243130  33.180  19.095   6.150
 6587POPC   C1A43131  33.070  19.092   6.450
 6587POPC   D2A43132  33.003  19.049   6.750
 6587POPC   C3A43133  32.976  19.014   7.050
 6587POPC   C4A43134  33.009  19.088   7.350
 6587POPC   C1B43135  33.269  19.076   6.450
 6587POPC   C2B43136  33.271  19.100   6.750
 6587POPC   C3B43137  33.257  19.078   7.050
 6587POPC   C4B43138  33.242  19.050   7.350
 6588POPC   NC343139   2.029  18.243   5.550
 6588POPC   PO443140   2.006  18.257   5.850
 6588POPC   GL143141   1.965  18.324   6.150
 6588POPC   GL243142   2.092  18.256   6.150
 6588POPC   C1A43143   1.969  18.235   6.450
 6588POPC   D2A43144   1.972  18.311   6.750
 6588POPC   C3A43145   1.967  18.315   7.050
 6588POPC   C4A43146   2.011  18.275   7.350
 6588POPC   C1B43147   2.241  18.293   6.450
 6588POPC   C2B43148   2.190  18.334   6.750
 6588POPC   C3B43149   2.266  18.284   7.050
 6588POPC   C4B43150   2.273  18.320   7.350
 6589POPC   NC343151  36.119  20.622   5.550
 6589POPC   PO443152  36.129  20.653   5.850
 6589POPC   GL143153  36.152  20.591   6.150
 6589POPC   GL243154  36.046  20.677   6.150
 6589POPC   C1A43155  36.129  20.584   6.450
 6589POPC   D2A43156  36.175  20.607   6.750
 6589POPC   C3A43157  36.140  20.561   7.050
 6589POPC   C4A43158  36.126  20.581   7.350
 6589POPC   C1B43159  35.972  20.745   6.450
 6589POPC   C2B43160  35.918  20.791   6.750
 6589POPC   C3B43161  35.938  20.781   7.050
 6589POPC   C4B43162  35.940  20.807   7.350
 6590POPC   NC343163  43.065  23.685   5.550
 6590POPC   PO443164  43.116  23.760   5.850
 6590POPC   GL143165  43.102  23.718   6.150
 6590POPC   GL243166  43.176  23.567   6.150
 6590POPC   C1A43167  43.102  23.664   6.450
 6590POPC   D2A43168  43.110  23.686   6.750
 6590POPC   C3A43169  43.137  23.755   7.050
 6590POPC   C4A43170  43.080  23.692   7.350
 6590POPC   C1B43171  43.274  23.459   6.450
 6590POPC   C2B43172  43.261  23.514   6.750
 6590POPC   C3B43173  43.228  23.543   7.050
 6590POPC   C4B43174  43.245  23.554   7.350
 6591POPC   NC343175  12.069  22.136   5.550
 6591POPC   PO443176  12.050  22.143   5.850
 6591POPC   GL143177  12.124  22.200   6.150
 6591POPC   GL243178  12.048  22.030   6.150
 6591POPC   C1A43179  12.034  22.193   6.450
 6591POPC   D2A43180  12.050  22.209   6.750
 6591POPC   C3A43181  12.122  22.164   7.050
 6591POPC   C4A43182  12.034  22.132   7.350
 6591POPC   C1B43183  12.080  21.863   6.450
 6591POPC   C2B43184  12.091  21.900   6.750
 6591POPC   C3B43185  12.022  21.934   7.050
 6591POPC   C4B43186  12.021  21.873   7.350
 6592POPC   NC343187  39.226  22.931   5.550
 6592POPC   PO443188  39.203  22.897   5.850
 6592POPC   GL143189  39.261  22.901   6.150
 6592POPC   GL243190  39.080  23.033   6.150
 6592POPC   C1A43191  39.280  22.950   6.450
 6592POPC   D2A43192  39.260  22.947   6.750
 6592POPC   C3A43193  39.227  22.893   7.050
 6592POPC   C4A43194  39.259  22.953   7.350
 6592POPC   C1B43195  38.966  23.036   6.450
 6592POPC   C2B43196  39.007  23.066   6.750
 6592POPC   C3B43197  39.027  23.088   7.050
 6592POPC   C4B43198  39.029  23.034   7.350
 6593POPC   NC343199  15.982  22.185   5.550
 6593POPC   PO443200  15.983  22.184   5.850
 6593POPC   GL143201  15.996  22.168   6.150
 6593POPC   GL243202  16.087  22.204   6.150
 6593POPC   C1A43203  15.987  22.151   6.450
 6593POPC   D2A43204  15.993  22.210   6.750
 6593POPC   C3A43205  15.950  22.135   7.050
 6593POPC   C4A43206  15.913  22.172   7.350
 6593POPC   C1B43207  16.172  22.275   6.450
 6593POPC   C2B43208  16.172  22.302   6.750
 6593POPC   C3B43209  16.167  22.228   7.050
 6593POPC   C4B43210  16.152  22.309   7.350
 6594POPC   NC343211  19.087   8.983   5.550
 6594POPC   PO443212  19.061   8.932   5.850
 6594POPC   GL143213  19.042   8.929   6.150
 6594POPC   GL243214  19.200   8.967   6.150
 6594POPC   C1A43215  19.055   8.930   6.450
 6594POPC   D2A43216  19.013   8.929   6.750
 6594POPC   C3A43217  19.086   9.011   7.050
 6594POPC   C4A43218  19.013   8.948   7.350
 6594POPC   C1B43219  19.342   8.891   6.450
 6594POPC   C2B43220  19.278   8.953   6.750
 6594POPC   C3B43221  19.344   8.910   7.050
 6594POPC   C4B43222  19.335   8.987   7.350
 6595POPC   NC343223  29.938   6.633   5.550
 6595POPC   PO443224  29.893   6.686   5.850
 6595POPC   GL143225  29.889   6.637   6.150
 6595POPC   GL243226  29.862   6.749   6.150
 6595POPC   C1A43227  29.890   6.650   6.450
 6595POPC   D2A43228  29.915   6.663   6.750
 6595POPC   C3A43229  29.952   6.681   7.050
 6595POPC   C4A43230  29.959   6.603   7.350
 6595POPC   C1B43231  29.895   6.866   6.450
 6595POPC   C2B43232  29.852   6.903   6.750
 6595POPC   C3B43233  29.903   6.882   7.050
 6595POPC   C4B43234  29.900   6.922   7.350
 6596POPC   NC343235  36.936  27.591   5.550
 6596POPC   PO443236  36.907  27.577   5.850
 6596POPC   GL143237  36.924  27.570   6.150
 6596POPC   GL243238  36.785  27.621   6.150
 6596POPC   C1A43239  36.908  27.570   6.450
 6596POPC   D2A43240  36.900  27.577   6.750
 6596POPC   C3A43241  36.893  27.642   7.050
 6596POPC   C4A43242  36.887  27.593   7.350
 6596POPC   C1B43243  36.671  27.667   6.450
 6596POPC   C2B43244  36.650  27.685   6.750
 6596POPC   C3B43245  36.693  27.622   7.050
 6596POPC   C4B43246  36.633  27.639   7.350
 6597POPC   NC343247  18.295  41.607   5.550
 6597POPC   PO443248  18.324  41.535   5.850
 6597POPC   GL143249  18.314  41.607   6.150
 6597POPC   GL243250  18.438  41.655   6.150
 6597POPC   C1A43251  18.248  41.584   6.450
 6597POPC   D2A43252  18.308  41.586   6.750
 6597POPC   C3A43253  18.260  41.549   7.050
 6597POPC   C4A43254  18.291  41.599   7.350
 6597POPC   C1B43255  18.497  41.683   6.450
 6597POPC   C2B43256  18.464  41.691   6.750
 6597POPC   C3B43257  18.489  41.664   7.050
 6597POPC   C4B43258  18.488  41.643   7.350
 6598POPC   NC343259  21.358  12.085   5.550
 6598POPC   PO443260  21.415  12.051   5.850
 6598POPC   GL143261  21.342  12.079   6.150
 6598POPC   GL243262  21.398  11.953   6.150
 6598POPC   C1A43263  21.372  12.106   6.450
 6598POPC   D2A43264  21.392  12.125   6.750
 6598POPC   C3A43265  21.385  12.096   7.050
 6598POPC   C4A43266  21.343  12.120   7.350
 6598POPC   C1B43267  21.503  11.831   6.450
 6598POPC   C2B43268  21.490  11.853   6.750
 6598POPC   C3B43269  21.531  11.894   7.050
 6598POPC   C4B43270  21.526  11.876   7.350
 6599POPC   NC343271  15.931   2.740   5.550
 6599POPC   PO443272  15.906   2.762   5.850
 6599POPC   GL143273  15.996   2.735   6.150
 6599POPC   GL243274  16.083   2.819   6.150
 6599POPC   C1A43275  15.965   2.718   6.450
 6599POPC   D2A43276  15.945   2.761   6.750
 6599POPC   C3A43277  15.997   2.815   7.050
 6599POPC   C4A43278  15.980   2.785   7.350
 6599POPC   C1B43279  16.223   2.812   6.450
 6599POPC   C2B43280  16.240   2.859   6.750
 6599POPC   C3B43281  16.198   2.778   7.050
 6599POPC   C4B43282  16.182   2.802   7.350
 6600POPC   NC343283  28.332   8.984   5.550
 6600POPC   PO443284  28.319   8.995   5.850
 6600POPC   GL143285  28.322   9.000   6.150
 6600POPC   GL243286  28.426   8.920   6.150
 6600POPC   C1A43287  28.370   8.932   6.450
 6600POPC   D2A43288  28.367   8.964   6.750
 6600POPC   C3A43289  28.363   8.959   7.050
 6600POPC   C4A43290  28.332   8.984   7.350
 6600POPC   C1B43291  28.583   8.867   6.450
 6600POPC   C2B43292  28.597   8.814   6.750
 6600POPC   C3B43293  28.575   8.834   7.050
 6600POPC   C4B43294  28.572   8.805   7.350
 6601POPC   NC343295   6.680   0.390   5.550
 6601POPC   PO443296   6.694   0.478   5.850
 6601POPC   GL143297   6.678   0.412   6.150
 6601POPC   GL243298   6.749   0.328   6.150
 6601POPC   C1A43299   6.667   0.448   6.450
 6601POPC   D2A43300   6.670   0.429   6.750
 6601POPC   C3A43301   6.656   0.389   7.050
 6601POPC   C4A43302   6.664   0.395   7.350
 6601POPC   C1B43303   6.846   0.330   6.450
 6601POPC   C2B43304   6.814   0.249   6.750
 6601POPC   C3B43305   6.864   0.303   7.050
 6601POPC   C4B43306   6.843   0.324   7.350
 6602POPC   NC343307  26.055  38.471   5.550
 6602POPC   PO443308  26.077  38.484   5.850
 6602POPC   GL143309  26.071  38.424   6.150
 6602POPC   GL243310  26.214  38.432   6.150
 6602POPC   C1A43311  26.023  38.477   6.450
 6602POPC   D2A43312  26.057  38.485   6.750
 6602POPC   C3A43313  26.026  38.492   7.050
 6602POPC   C4A43314  26.082  38.434   7.350
 6602POPC   C1B43315  26.318  38.404   6.450
 6602POPC   C2B43316  26.334  38.439   6.750
 6602POPC   C3B43317  26.298  38.490   7.050
 6602POPC   C4B43318  26.324  38.442   7.350
 6603POPC   NC343319   1.199   8.986   5.550
 6603POPC   PO443320   1.181   9.012   5.850
 6603POPC   GL143321   1.237   8.943   6.150
 6603POPC   GL243322   1.312   8.994   6.150
 6603POPC   C1A43323   1.178   8.956   6.450
 6603POPC   D2A43324   1.190   8.960   6.750
 6603POPC   C3A43325   1.263   8.972   7.050
 6603POPC   C4A43326   1.189   8.933   7.350
 6603POPC   C1B43327   1.508   8.970   6.450
 6603POPC   C2B43328   1.420   8.962   6.750
 6603POPC   C3B43329   1.446   8.961   7.050
 6603POPC   C4B43330   1.504   9.024   7.350
 6604POPC   NC343331  17.484  33.043   5.550
 6604POPC   PO443332  17.510  33.059   5.850
 6604POPC   GL143333  17.541  32.999   6.150
 6604POPC   GL243334  17.363  33.121   6.150
 6604POPC   C1A43335  17.540  33.071   6.450
 6604POPC   D2A43336  17.463  33.029   6.750
 6604POPC   C3A43337  17.526  33.000   7.050
 6604POPC   C4A43338  17.525  33.012   7.350
 6604POPC   C1B43339  17.276  33.162   6.450
 6604POPC   C2B43340  17.342  33.227   6.750
 6604POPC   C3B43341  17.281  33.150   7.050
 6604POPC   C4B43342  17.306  33.182   7.350
 6605POPC   NC343343   5.073  34.561   5.550
 6605POPC   PO443344   5.095  34.565   5.850
 6605POPC   GL143345   5.062  34.599   6.150
 6605POPC   GL243346   5.162  34.662   6.150
 6605POPC   C1A43347   5.048  34.576   6.450
 6605POPC   D2A43348   5.117  34.580   6.750
 6605POPC   C3A43349   5.133  34.527   7.050
 6605POPC   C4A43350   5.057  34.569   7.350
 6605POPC   C1B43351   5.315  34.695   6.450
 6605POPC   C2B43352   5.283  34.659   6.750
 6605POPC   C3B43353   5.319  34.723   7.050
 6605POPC   C4B43354   5.301  34.635   7.350
 6606POPC   NC343355   3.579  29.969   5.550
 6606POPC   PO443356   3.568  29.915   5.850
 6606POPC   GL143357   3.518  29.932   6.150
 6606POPC   GL243358   3.492  30.045   6.150
 6606POPC   C1A43359   3.496  29.920   6.450
 6606POPC   D2A43360   3.504  29.945   6.750
 6606POPC   C3A43361   3.551  29.888   7.050
 6606POPC   C4A43362   3.512  29.929   7.350
 6606POPC   C1B43363   3.471  30.200   6.450
 6606POPC   C2B43364   3.491  30.209   6.750
 6606POPC   C3B43365   3.493  30.178   7.050
 6606POPC   C4B43366   3.462  30.152   7.350
 6607POPC   NC343367  30.699  12.065   5.550
 6607POPC   PO443368  30.662  12.069   5.850
 6607POPC   GL143369  30.672  12.046   6.150
 6607POPC   GL243370  30.689  12.169   6.150
 6607POPC   C1A43371  30.663  12.061   6.450
 6607POPC   D2A43372  30.710  12.035   6.750
 6607POPC   C3A43373  30.726  12.079   7.050
 6607POPC   C4A43374  30.696  12.074   7.350
 6607POPC   C1B43375  30.647  12.345   6.450
 6607POPC   C2B43376  30.694  12.355   6.750
 6607POPC   C3B43377  30.694  12.317   7.050
 6607POPC   C4B43378  30.701  12.287   7.350
 6608POPC   NC343379  40.744  26.844   5.550
 6608POPC   PO443380  40.745  26.786   5.850
 6608POPC   GL143381  40.781  26.768   6.150
 6608POPC   GL243382  40.691  26.832   6.150
 6608POPC   C1A43383  40.804  26.790   6.450
 6608POPC   D2A43384  40.745  26.794   6.750
 6608POPC   C3A43385  40.770  26.785   7.050
 6608POPC   C4A43386  40.791  26.851   7.350
 6608POPC   C1B43387  40.509  26.914   6.450
 6608POPC   C2B43388  40.553  26.830   6.750
 6608POPC   C3B43389  40.505  26.917   7.050
 6608POPC   C4B43390  40.585  26.881   7.350
 6609POPC   NC343391  25.294  22.945   5.550
 6609POPC   PO443392  25.234  22.984   5.850
 6609POPC   GL143393  25.302  22.949   6.150
 6609POPC   GL243394  25.345  22.798   6.150
 6609POPC   C1A43395  25.234  22.959   6.450
 6609POPC   D2A43396  25.275  22.952   6.750
 6609POPC   C3A43397  25.227  22.988   7.050
 6609POPC   C4A43398  25.305  22.936   7.350
 6609POPC   C1B43399  25.383  22.726   6.450
 6609POPC   C2B43400  25.368  22.725   6.750
 6609POPC   C3B43401  25.347  22.721   7.050
 6609POPC   C4B43402  25.398  22.748   7.350
 6610POPC   NC343403  18.256  37.711   5.550
 6610POPC   PO443404  18.331  37.709   5.850
 6610POPC   GL143405  18.296  37.682   6.150
 6610POPC   GL243406  18.364  37.661   6.150
 6610POPC   C1A43407  18.246  37.718   6.450
 6610POPC   D2A43408  18.320  37.695   6.750
 6610POPC   C3A43409  18.289  37.703   7.050
 6610POPC   C4A43410  18.314  37.649   7.350
 6610POPC   C1B43411  18.561  37.747   6.450
 6610POPC   C2B43412  18.536  37.702   6.750
 6610POPC   C3B43413  18.490  37.722   7.050
 6610POPC   C4B43414  18.545  37.678   7.350
 6611POPC   NC343415  30.654  15.184   5.550
 6611POPC   PO443416  30.664  15.172   5.850
 6611POPC   GL143417  30.649  15.162   6.150
 6611POPC   GL243418  30.791  15.115   6.150
 6611POPC   C1A43419  30.746  15.179   6.450
 6611POPC   D2A43420  30.734  15.179   6.750
 6611POPC   C3A43421  30.687  15.160   7.050
 6611POPC   C4A43422  30.678  15.222   7.350
 6611POPC   C1B43423  30.838  14.969   6.450
 6611POPC   C2B43424  30.852  14.973   6.750
 6611POPC   C3B43425  30.825  14.939   7.050
 6611POPC   C4B43426  30.866  14.945   7.350
 6612POPC   NC343427  26.024  25.312   5.550
 6612POPC   PO443428  26.055  25.290   5.850
 6612POPC   GL143429  26.014  25.231   6.150
 6612POPC   GL243430  25.949  25.278   6.150
 6612POPC   C1A43431  26.058  25.303   6.450
 6612POPC   D2A43432  25.994  25.265   6.750
 6612POPC   C3A43433  26.032  25.252   7.050
 6612POPC   C4A43434  25.996  25.297   7.350
 6612POPC   C1B43435  25.833  25.285   6.450
 6612POPC   C2B43436  25.772  25.293   6.750
 6612POPC   C3B43437  25.786  25.315   7.050
 6612POPC   C4B43438  25.786  25.272   7.350
 6613POPC   NC343439  22.913  24.488   5.550
 6613POPC   PO443440  22.947  24.473   5.850
 6613POPC   GL143441  22.913  24.455   6.150
 6613POPC   GL243442  22.970  24.346   6.150
 6613POPC   C1A43443  22.963  24.445   6.450
 6613POPC   D2A43444  22.967  24.477   6.750
 6613POPC   C3A43445  22.909  24.499   7.050
 6613POPC   C4A43446  22.912  24.510   7.350
 6613POPC   C1B43447  23.023  24.304   6.450
 6613POPC   C2B43448  23.052  24.220   6.750
 6613POPC   C3B43449  23.101  24.305   7.050
 6613POPC   C4B43450  23.029  24.269   7.350
 6614POPC   NC343451   6.633  38.411   5.550
 6614POPC   PO443452   6.685  38.462   5.850
 6614POPC   GL143453   6.662  38.468   6.150
 6614POPC   GL243454   6.755  38.562   6.150
 6614POPC   C1A43455   6.662  38.435   6.450
 6614POPC   D2A43456   6.676  38.409   6.750
 6614POPC   C3A43457   6.655  38.414   7.050
 6614POPC   C4A43458   6.687  38.473   7.350
 6614POPC   C1B43459   6.873  38.605   6.450
 6614POPC   C2B43460   6.829  38.631   6.750
 6614POPC   C3B43461   6.826  38.592   7.050
 6614POPC   C4B43462   6.873  38.666   7.350
 6615POPC   NC343463   8.961  43.908   5.550
 6615POPC   PO443464   8.998  43.878   5.850
 6615POPC   GL143465   8.967  43.915   6.150
 6615POPC   GL243466   8.850  43.920   6.150
 6615POPC   C1A43467   8.999  43.908   6.450
 6615POPC   D2A43468   8.944  43.850   6.750
 6615POPC   C3A43469   8.972  43.892   7.050
 6615POPC   C4A43470   8.984  43.874   7.350
 6615POPC   C1B43471   8.762  44.009   6.450
 6615POPC   C2B43472   8.791  44.016   6.750
 6615POPC   C3B43473   8.805  44.057   7.050
 6615POPC   C4B43474   8.782  44.028   7.350
 6616POPC   NC343475  14.381   8.927   5.550
 6616POPC   PO443476  14.426   8.978   5.850
 6616POPC   GL143477  14.415   9.006   6.150
 6616POPC   GL243478  14.257   8.938   6.150
 6616POPC   C1A43479  14.426   8.945   6.450
 6616POPC   D2A43480  14.422   8.950   6.750
 6616POPC   C3A43481  14.379   8.946   7.050
 6616POPC   C4A43482  14.414   8.973   7.350
 6616POPC   C1B43483  14.130   8.997   6.450
 6616POPC   C2B43484  14.133   9.018   6.750
 6616POPC   C3B43485  14.146   8.945   7.050
 6616POPC   C4B43486  14.177   8.959   7.350
 6617POPC   NC343487  13.588  15.213   5.550
 6617POPC   PO443488  13.589  15.130   5.850
 6617POPC   GL143489  13.614  15.206   6.150
 6617POPC   GL243490  13.597  15.331   6.150
 6617POPC   C1A43491  13.648  15.228   6.450
 6617POPC   D2A43492  13.631  15.141   6.750
 6617POPC   C3A43493  13.660  15.229   7.050
 6617POPC   C4A43494  13.632  15.200   7.350
 6617POPC   C1B43495  13.548  15.400   6.450
 6617POPC   C2B43496  13.630  15.408   6.750
 6617POPC   C3B43497  13.568  15.441   7.050
 6617POPC   C4B43498  13.590  15.420   7.350
 6618POPC   NC343499   1.216  35.325   5.550
 6618POPC   PO443500   1.222  35.392   5.850
 6618POPC   GL143501   1.218  35.387   6.150
 6618POPC   GL243502   1.104  35.244   6.150
 6618POPC   C1A43503   1.197  35.314   6.450
 6618POPC   D2A43504   1.203  35.304   6.750
 6618POPC   C3A43505   1.206  35.370   7.050
 6618POPC   C4A43506   1.255  35.369   7.350
 6618POPC   C1B43507   1.023  35.096   6.450
 6618POPC   C2B43508   1.115  35.140   6.750
 6618POPC   C3B43509   1.119  35.138   7.050
 6618POPC   C4B43510   1.100  35.150   7.350
 6619POPC   NC343511  36.099  30.661   5.550
 6619POPC   PO443512  36.107  30.737   5.850
 6619POPC   GL143513  36.119  30.687   6.150
 6619POPC   GL243514  36.068  30.568   6.150
 6619POPC   C1A43515  36.122  30.652   6.450
 6619POPC   D2A43516  36.169  30.676   6.750
 6619POPC   C3A43517  36.151  30.648   7.050
 6619POPC   C4A43518  36.081  30.680   7.350
 6619POPC   C1B43519  35.999  30.480   6.450
 6619POPC   C2B43520  36.015  30.454   6.750
 6619POPC   C3B43521  35.994  30.470   7.050
 6619POPC   C4B43522  36.020  30.445   7.350
 6620POPC   NC343523  11.304  36.855   5.550
 6620POPC   PO443524  11.307  36.929   5.850
 6620POPC   GL143525  11.328  36.924   6.150
 6620POPC   GL243526  11.163  36.836   6.150
 6620POPC   C1A43527  11.341  36.871   6.450
 6620POPC   D2A43528  11.309  36.912   6.750
 6620POPC   C3A43529  11.310  36.880   7.050
 6620POPC   C4A43530  11.271  36.890   7.350
 6620POPC   C1B43531  11.041  36.859   6.450
 6620POPC   C2B43532  11.070  36.797   6.750
 6620POPC   C3B43533  11.041  36.859   7.050
 6620POPC   C4B43534  11.087  36.844   7.350
 6621POPC   NC343535  17.546  13.599   5.550
 6621POPC   PO443536  17.505  13.649   5.850
 6621POPC   GL143537  17.508  13.649   6.150
 6621POPC   GL243538  17.591  13.549   6.150
 6621POPC   C1A43539  17.533  13.595   6.450
 6621POPC   D2A43540  17.497  13.639   6.750
 6621POPC   C3A43541  17.507  13.669   7.050
 6621POPC   C4A43542  17.521  13.658   7.350
 6621POPC   C1B43543  17.661  13.383   6.450
 6621POPC   C2B43544  17.606  13.400   6.750
 6621POPC   C3B43545  17.647  13.384   7.050
 6621POPC   C4B43546  17.631  13.402   7.350
 6622POPC   NC343547  30.710  42.356   5.550
 6622POPC   PO443548  30.739  42.297   5.850
 6622POPC   GL143549  30.670  42.319   6.150
 6622POPC   GL243550  30.795  42.354   6.150
 6622POPC   C1A43551  30.649  42.363   6.450
 6622POPC   D2A43552  30.675  42.312   6.750
 6622POPC   C3A43553  30.673  42.323   7.050
 6622POPC   C4A43554  30.688  42.374   7.350
 6622POPC   C1B43555  30.955  42.495   6.450
 6622POPC   C2B43556  30.899  42.454   6.750
 6622POPC   C3B43557  30.879  42.463   7.050
 6622POPC   C4B43558  30.939  42.478   7.350
 6623POPC   NC343559  24.520  24.442   5.550
 6623POPC   PO443560  24.497  24.518   5.850
 6623POPC   GL143561  24.460  24.445   6.150
 6623POPC   GL243562  24.389  24.417   6.150
 6623POPC   C1A43563  24.473  24.513   6.450
 6623POPC   D2A43564  24.487  24.511   6.750
 6623POPC   C3A43565  24.503  24.477   7.050
 6623POPC   C4A43566  24.477  24.456   7.350
 6623POPC   C1B43567  24.221  24.474   6.450
 6623POPC   C2B43568  24.214  24.457   6.750
 6623POPC   C3B43569  24.275  24.452   7.050
 6623POPC   C4B43570  24.235  24.429   7.350
 6624POPC   NC343571  17.553  42.289   5.550
 6624POPC   PO443572  17.493  42.365   5.850
 6624POPC   GL143573  17.540  42.285   6.150
 6624POPC   GL243574  17.671  42.272   6.150
 6624POPC   C1A43575  17.470  42.362   6.450
 6624POPC   D2A43576  17.542  42.340   6.750
 6624POPC   C3A43577  17.475  42.304   7.050
 6624POPC   C4A43578  17.458  42.383   7.350
 6624POPC   C1B43579  17.798  42.287   6.450
 6624POPC   C2B43580  17.722  42.246   6.750
 6624POPC   C3B43581  17.749  42.252   7.050
 6624POPC   C4B43582  17.742  42.283   7.350
 6625POPC   NC343583  18.271   9.779   5.550
 6625POPC   PO443584  18.295   9.764   5.850
 6625POPC   GL143585  18.268   9.770   6.150
 6625POPC   GL243586  18.322   9.596   6.150
 6625POPC   C1A43587  18.256   9.794   6.450
 6625POPC   D2A43588  18.286   9.782   6.750
 6625POPC   C3A43589  18.330   9.745   7.050
 6625POPC   C4A43590  18.282   9.722   7.350
 6625POPC   C1B43591  18.397   9.526   6.450
 6625POPC   C2B43592  18.322   9.522   6.750
 6625POPC   C3B43593  18.382   9.469   7.050
 6625POPC   C4B43594  18.395   9.541   7.350
 6626POPC   NC343595  39.271  29.962   5.550
 6626POPC   PO443596  39.253  29.957   5.850
 6626POPC   GL143597  39.247  29.927   6.150
 6626POPC   GL243598  39.219  30.054   6.150
 6626POPC   C1A43599  39.209  29.939   6.450
 6626POPC   D2A43600  39.260  29.912   6.750
 6626POPC   C3A43601  39.263  29.953   7.050
 6626POPC   C4A43602  39.281  29.967   7.350
 6626POPC   C1B43603  39.327  30.116   6.450
 6626POPC   C2B43604  39.249  30.154   6.750
 6626POPC   C3B43605  39.316  30.185   7.050
 6626POPC   C4B43606  39.247  30.167   7.350
 6627POPC   NC343607   1.227   4.338   5.550
 6627POPC   PO443608   1.209   4.366   5.850
 6627POPC   GL143609   1.234   4.348   6.150
 6627POPC   GL243610   1.307   4.359   6.150
 6627POPC   C1A43611   1.254   4.289   6.450
 6627POPC   D2A43612   1.225   4.272   6.750
 6627POPC   C3A43613   1.223   4.296   7.050
 6627POPC   C4A43614   1.194   4.288   7.350
 6627POPC   C1B43615   1.392   4.405   6.450
 6627POPC   C2B43616   1.462   4.422   6.750
 6627POPC   C3B43617   1.476   4.451   7.050
 6627POPC   C4B43618   1.397   4.478   7.350
 6628POPC   NC343619  19.049  42.349   5.550
 6628POPC   PO443620  19.090  42.298   5.850
 6628POPC   GL143621  19.011  42.322   6.150
 6628POPC   GL243622  19.179  42.239   6.150
 6628POPC   C1A43623  19.059  42.377   6.450
 6628POPC   D2A43624  19.054  42.311   6.750
 6628POPC   C3A43625  19.083  42.298   7.050
 6628POPC   C4A43626  19.098  42.286   7.350
 6628POPC   C1B43627  19.229  42.225   6.450
 6628POPC   C2B43628  19.306  42.146   6.750
 6628POPC   C3B43629  19.261  42.144   7.050
 6628POPC   C4B43630  19.281  42.208   7.350
 6629POPC   NC343631  20.566  44.691   5.550
 6629POPC   PO443632  20.565  44.615   5.850
 6629POPC   GL143633  20.652  44.706   6.150
 6629POPC   GL243634  20.711  44.549   6.150
 6629POPC   C1A43635  20.575  44.660   6.450
 6629POPC   D2A43636  20.577  44.659   6.750
 6629POPC   C3A43637  20.603  44.671   7.050
 6629POPC   C4A43638  20.637  44.683   7.350
 6629POPC   C1B43639  20.731  44.404   6.450
 6629POPC   C2B43640  20.738  44.416   6.750
 6629POPC   C3B43641  20.680  44.480   7.050
 6629POPC   C4B43642  20.701  44.427   7.350
 6630POPC   NC343643   2.758  39.959   5.550
 6630POPC   PO443644   2.808  40.010   5.850
 6630POPC   GL143645   2.797  39.983   6.150
 6630POPC   GL243646   2.722  40.109   6.150
 6630POPC   C1A43647   2.745  40.050   6.450
 6630POPC   D2A43648   2.756  40.037   6.750
 6630POPC   C3A43649   2.812  40.040   7.050
 6630POPC   C4A43650   2.774  39.978   7.350
 6630POPC   C1B43651   2.599  40.175   6.450
 6630POPC   C2B43652   2.607  40.221   6.750
 6630POPC   C3B43653   2.552  40.154   7.050
 6630POPC   C4B43654   2.615  40.136   7.350
 6631POPC   NC343655  37.680   0.410   5.550
 6631POPC   PO443656  37.647   0.481   5.850
 6631POPC   GL143657  37.679   0.403   6.150
 6631POPC   GL243658  37.583   0.336   6.150
 6631POPC   C1A43659  37.718   0.409   6.450
 6631POPC   D2A43660  37.728   0.428   6.750
 6631POPC   C3A43661  37.727   0.396   7.050
 6631POPC   C4A43662  37.648   0.444   7.350
 6631POPC   C1B43663  37.532   0.216   6.450
 6631POPC   C2B43664  37.529   0.242   6.750
 6631POPC   C3B43665  37.621   0.228   7.050
 6631POPC   C4B43666  37.604   0.234   7.350
 6632POPC   NC343667  12.097   2.025   5.550
 6632POPC   PO443668  12.085   2.000   5.850
 6632POPC   GL143669  12.094   1.992   6.150
 6632POPC   GL243670  12.216   2.069   6.150
 6632POPC   C1A43671  12.084   1.997   6.450
 6632POPC   D2A43672  12.048   2.008   6.750
 6632POPC   C3A43673  12.061   1.985   7.050
 6632POPC   C4A43674  12.037   1.974   7.350
 6632POPC   C1B43675  12.333   2.101   6.450
 6632POPC   C2B43676  12.328   2.096   6.750
 6632POPC   C3B43677  12.310   2.105   7.050
 6632POPC   C4B43678  12.287   2.104   7.350
 6633POPC   NC343679  39.184  31.487   5.550
 6633POPC   PO443680  39.272  31.436   5.850
 6633POPC   GL143681  39.236  31.447   6.150
 6633POPC   GL243682  39.188  31.551   6.150
 6633POPC   C1A43683  39.249  31.459   6.450
 6633POPC   D2A43684  39.212  31.431   6.750
 6633POPC   C3A43685  39.259  31.441   7.050
 6633POPC   C4A43686  39.187  31.479   7.350
 6633POPC   C1B43687  39.234  31.737   6.450
 6633POPC   C2B43688  39.248  31.750   6.750
 6633POPC   C3B43689  39.225  31.714   7.050
 6633POPC   C4B43690  39.247  31.758   7.350
 6634POPC   NC343691  11.339  34.596   5.550
 6634POPC   PO443692  11.313  34.535   5.850
 6634POPC   GL143693  11.278  34.541   6.150
 6634POPC   GL243694  11.303  34.657   6.150
 6634POPC   C1A43695  11.283  34.588   6.450
 6634POPC   D2A43696  11.269  34.607   6.750
 6634POPC   C3A43697  11.273  34.585   7.050
 6634POPC   C4A43698  11.343  34.598   7.350
 6634POPC   C1B43699  11.291  34.788   6.450
 6634POPC   C2B43700  11.279  34.826   6.750
 6634POPC   C3B43701  11.253  34.807   7.050
 6634POPC   C4B43702  11.309  34.784   7.350
 6635POPC   NC343703  15.982  21.380   5.550
 6635POPC   PO443704  15.941  21.425   5.850
 6635POPC   GL143705  15.949  21.403   6.150
 6635POPC   GL243706  15.868  21.358   6.150
 6635POPC   C1A43707  15.982  21.382   6.450
 6635POPC   D2A43708  15.960  21.351   6.750
 6635POPC   C3A43709  15.917  21.430   7.050
 6635POPC   C4A43710  15.960  21.405   7.350
 6635POPC   C1B43711  15.772  21.248   6.450
 6635POPC   C2B43712  15.756  21.240   6.750
 6635POPC   C3B43713  15.737  21.217   7.050
 6635POPC   C4B43714  15.768  21.235   7.350
 6636POPC   NC343715  18.312   1.184   5.550
 6636POPC   PO443716  18.277   1.208   5.850
 6636POPC   GL143717  18.251   1.177   6.150
 6636POPC   GL243718  18.288   1.293   6.150
 6636POPC   C1A43719  18.244   1.248   6.450
 6636POPC   D2A43720  18.289   1.208   6.750
 6636POPC   C3A43721  18.313   1.196   7.050
 6636POPC   C4A43722  18.324   1.193   7.350
 6636POPC   C1B43723  18.215   1.456   6.450
 6636POPC   C2B43724  18.208   1.479   6.750
 6636POPC   C3B43725  18.219   1.494   7.050
 6636POPC   C4B43726  18.220   1.423   7.350
 6637POPC   NC343727  44.624   6.659   5.550
 6637POPC   PO443728  44.627   6.665   5.850
 6637POPC   GL143729  44.677   6.641   6.150
 6637POPC   GL243730  44.689   6.567   6.150
 6637POPC   C1A43731  44.687   6.603   6.450
 6637POPC   D2A43732  44.702   6.673   6.750
 6637POPC   C3A43733  44.685   6.652   7.050
 6637POPC   C4A43734  44.648   6.611   7.350
 6637POPC   C1B43735  44.721   6.403   6.450
 6637POPC   C2B43736  44.742   6.380   6.750
 6637POPC   C3B43737  44.654   6.426   7.050
 6637POPC   C4B43738  44.684   6.442   7.350
 6638POPC   NC343739  11.307  20.562   5.550
 6638POPC   PO443740  11.278  20.623   5.850
 6638POPC   GL143741  11.254  20.617   6.150
 6638POPC   GL243742  11.216  20.513   6.150
 6638POPC   C1A43743  11.286  20.659   6.450
 6638POPC   D2A43744  11.272  20.565   6.750
 6638POPC   C3A43745  11.310  20.626   7.050
 6638POPC   C4A43746  11.256  20.654   7.350
 6638POPC   C1B43747  11.072  20.446   6.450
 6638POPC   C2B43748  11.129  20.492   6.750
 6638POPC   C3B43749  11.109  20.430   7.050
 6638POPC   C4B43750  11.129  20.479   7.350
 6639POPC   NC343751  42.337  23.692   5.550
 6639POPC   PO443752  42.345  23.738   5.850
 6639POPC   GL143753  42.346  23.714   6.150
 6639POPC   GL243754  42.332  23.836   6.150
 6639POPC   C1A43755  42.319  23.670   6.450
 6639POPC   D2A43756  42.368  23.703   6.750
 6639POPC   C3A43757  42.351  23.693   7.050
 6639POPC   C4A43758  42.378  23.732   7.350
 6639POPC   C1B43759  42.227  23.945   6.450
 6639POPC   C2B43760  42.207  23.955   6.750
 6639POPC   C3B43761  42.236  23.968   7.050
 6639POPC   C4B43762  42.213  23.956   7.350
 6640POPC   NC343763  15.920  40.045   5.550
 6640POPC   PO443764  15.915  40.045   5.850
 6640POPC   GL143765  15.946  40.025   6.150
 6640POPC   GL243766  15.919  39.939   6.150
 6640POPC   C1A43767  15.929  40.046   6.450
 6640POPC   D2A43768  15.988  39.961   6.750
 6640POPC   C3A43769  15.914  39.998   7.050
 6640POPC   C4A43770  15.923  40.006   7.350
 6640POPC   C1B43771  15.852  39.739   6.450
 6640POPC   C2B43772  15.812  39.790   6.750
 6640POPC   C3B43773  15.868  39.822   7.050
 6640POPC   C4B43774  15.854  39.731   7.350
 6641POPC   NC343775   5.830  10.570   5.550
 6641POPC   PO443776   5.836  10.495   5.850
 6641POPC   GL143777   5.888  10.560   6.150
 6641POPC   GL243778   5.857  10.374   6.150
 6641POPC   C1A43779   5.906  10.536   6.450
 6641POPC   D2A43780   5.840  10.502   6.750
 6641POPC   C3A43781   5.867  10.532   7.050
 6641POPC   C4A43782   5.894  10.500   7.350
 6641POPC   C1B43783   5.804  10.289   6.450
 6641POPC   C2B43784   5.836  10.306   6.750
 6641POPC   C3B43785   5.769  10.301   7.050
 6641POPC   C4B43786   5.781  10.272   7.350
 6642POPC   NC343787   8.172  41.530   5.550
 6642POPC   PO443788   8.220  41.574   5.850
 6642POPC   GL143789   8.241  41.513   6.150
 6642POPC   GL243790   8.124  41.658   6.150
 6642POPC   C1A43791   8.216  41.567   6.450
 6642POPC   D2A43792   8.199  41.516   6.750
 6642POPC   C3A43793   8.212  41.584   7.050
 6642POPC   C4A43794   8.161  41.606   7.350
 6642POPC   C1B43795   7.987  41.725   6.450
 6642POPC   C2B43796   7.995  41.654   6.750
 6642POPC   C3B43797   8.033  41.713   7.050
 6642POPC   C4B43798   7.976  41.724   7.350
 6643POPC   NC343799  36.162  29.188   5.550
 6643POPC   PO443800  36.149  29.101   5.850
 6643POPC   GL143801  36.152  29.119   6.150
 6643POPC   GL243802  36.266  29.172   6.150
 6643POPC   C1A43803  36.104  29.163   6.450
 6643POPC   D2A43804  36.154  29.167   6.750
 6643POPC   C3A43805  36.138  29.138   7.050
 6643POPC   C4A43806  36.083  29.095   7.350
 6643POPC   C1B43807  36.391  29.140   6.450
 6643POPC   C2B43808  36.409  29.094   6.750
 6643POPC   C3B43809  36.405  29.154   7.050
 6643POPC   C4B43810  36.405  29.128   7.350
 6644POPC   NC343811  19.040  43.089   5.550
 6644POPC   PO443812  19.025  43.136   5.850
 6644POPC   GL143813  19.101  43.072   6.150
 6644POPC   GL243814  19.149  43.055   6.150
 6644POPC   C1A43815  19.091  43.145   6.450
 6644POPC   D2A43816  19.015  43.109   6.750
 6644POPC   C3A43817  19.100  43.153   7.050
 6644POPC   C4A43818  19.045  43.122   7.350
 6644POPC   C1B43819  19.252  43.012   6.450
 6644POPC   C2B43820  19.259  42.992   6.750
 6644POPC   C3B43821  19.317  43.044   7.050
 6644POPC   C4B43822  19.303  42.955   7.350
 6645POPC   NC343823  27.589  27.591   5.550
 6645POPC   PO443824  27.612  27.602   5.850
 6645POPC   GL143825  27.558  27.551   6.150
 6645POPC   GL243826  27.451  27.566   6.150
 6645POPC   C1A43827  27.605  27.600   6.450
 6645POPC   D2A43828  27.600  27.637   6.750
 6645POPC   C3A43829  27.630  27.633   7.050
 6645POPC   C4A43830  27.547  27.630   7.350
 6645POPC   C1B43831  27.338  27.612   6.450
 6645POPC   C2B43832  27.302  27.580   6.750
 6645POPC   C3B43833  27.301  27.620   7.050
 6645POPC   C4B43834  27.330  27.579   7.350
 6646POPC   NC343835  29.141  23.666   5.550
 6646POPC   PO443836  29.152  23.725   5.850
 6646POPC   GL143837  29.141  23.728   6.150
 6646POPC   GL243838  29.125  23.882   6.150
 6646POPC   C1A43839  29.138  23.708   6.450
 6646POPC   D2A43840  29.157  23.683   6.750
 6646POPC   C3A43841  29.182  23.741   7.050
 6646POPC   C4A43842  29.172  23.686   7.350
 6646POPC   C1B43843  29.162  23.925   6.450
 6646POPC   C2B43844  29.187  23.977   6.750
 6646POPC   C3B43845  29.161  23.949   7.050
 6646POPC   C4B43846  29.113  23.916   7.350
 6647POPC   NC343847  43.119  15.981   5.550
 6647POPC   PO443848  43.119  15.948   5.850
 6647POPC   GL143849  43.073  15.933   6.150
 6647POPC   GL243850  43.146  16.128   6.150
 6647POPC   C1A43851  43.129  15.993   6.450
 6647POPC   D2A43852  43.111  15.966   6.750
 6647POPC   C3A43853  43.096  15.993   7.050
 6647POPC   C4A43854  43.062  15.969   7.350
 6647POPC   C1B43855  43.119  16.227   6.450
 6647POPC   C2B43856  43.078  16.236   6.750
 6647POPC   C3B43857  43.100  16.211   7.050
 6647POPC   C4B43858  43.118  16.249   7.350
 6648POPC   NC343859  43.159   1.208   5.550
 6648POPC   PO443860  43.125   1.206   5.850
 6648POPC   GL143861  43.121   1.178   6.150
 6648POPC   GL243862  43.137   1.125   6.150
 6648POPC   C1A43863  43.153   1.178   6.450
 6648POPC   D2A43864  43.114   1.194   6.750
 6648POPC   C3A43865  43.111   1.230   7.050
 6648POPC   C4A43866  43.113   1.195   7.350
 6648POPC   C1B43867  43.238   0.974   6.450
 6648POPC   C2B43868  43.265   0.978   6.750
 6648POPC   C3B43869  43.269   0.971   7.050
 6648POPC   C4B43870  43.235   1.015   7.350
 6649POPC   NC343871  41.526  17.521   5.550
 6649POPC   PO443872  41.542  17.508   5.850
 6649POPC   GL143873  41.577  17.554   6.150
 6649POPC   GL243874  41.468  17.510   6.150
 6649POPC   C1A43875  41.549  17.482   6.450
 6649POPC   D2A43876  41.554  17.470   6.750
 6649POPC   C3A43877  41.591  17.501   7.050
 6649POPC   C4A43878  41.601  17.536   7.350
 6649POPC   C1B43879  41.289  17.423   6.450
 6649POPC   C2B43880  41.343  17.456   6.750
 6649POPC   C3B43881  41.267  17.411   7.050
 6649POPC   C4B43882  41.287  17.485   7.350
 6650POPC   NC343883  32.212  35.348   5.550
 6650POPC   PO443884  32.280  35.377   5.850
 6650POPC   GL143885  32.205  35.369   6.150
 6650POPC   GL243886  32.161  35.270   6.150
 6650POPC   C1A43887  32.224  35.376   6.450
 6650POPC   D2A43888  32.202  35.399   6.750
 6650POPC   C3A43889  32.232  35.324   7.050
 6650POPC   C4A43890  32.202  35.309   7.350
 6650POPC   C1B43891  32.039  35.185   6.450
 6650POPC   C2B43892  32.096  35.184   6.750
 6650POPC   C3B43893  32.110  35.147   7.050
 6650POPC   C4B43894  32.055  35.203   7.350
 6651POPC   NC343895  15.996  14.405   5.550
 6651POPC   PO443896  15.990  14.437   5.850
 6651POPC   GL143897  15.914  14.387   6.150
 6651POPC   GL243898  16.029  14.301   6.150
 6651POPC   C1A43899  15.980  14.376   6.450
 6651POPC   D2A43900  15.915  14.385   6.750
 6651POPC   C3A43901  15.966  14.406   7.050
 6651POPC   C4A43902  15.960  14.428   7.350
 6651POPC   C1B43903  16.051  14.121   6.450
 6651POPC   C2B43904  16.058  14.167   6.750
 6651POPC   C3B43905  16.008  14.162   7.050
 6651POPC   C4B43906  16.006  14.121   7.350
 6652POPC   NC343907  37.684  29.138   5.550
 6652POPC   PO443908  37.677  29.150   5.850
 6652POPC   GL143909  37.663  29.105   6.150
 6652POPC   GL243910  37.610  29.030   6.150
 6652POPC   C1A43911  37.648  29.110   6.450
 6652POPC   D2A43912  37.676  29.183   6.750
 6652POPC   C3A43913  37.679  29.127   7.050
 6652POPC   C4A43914  37.703  29.174   7.350
 6652POPC   C1B43915  37.591  28.910   6.450
 6652POPC   C2B43916  37.589  28.909   6.750
 6652POPC   C3B43917  37.540  28.907   7.050
 6652POPC   C4B43918  37.582  28.952   7.350
 6653POPC   NC343919  25.282  29.172   5.550
 6653POPC   PO443920  25.256  29.181   5.850
 6653POPC   GL143921  25.242  29.145   6.150
 6653POPC   GL243922  25.213  28.999   6.150
 6653POPC   C1A43923  25.261  29.114   6.450
 6653POPC   D2A43924  25.275  29.121   6.750
 6653POPC   C3A43925  25.251  29.100   7.050
 6653POPC   C4A43926  25.229  29.131   7.350
 6653POPC   C1B43927  25.218  28.923   6.450
 6653POPC   C2B43928  25.132  28.906   6.750
 6653POPC   C3B43929  25.180  28.873   7.050
 6653POPC   C4B43930  25.192  28.925   7.350
 6654POPC   NC343931  20.586  34.606   5.550
 6654POPC   PO443932  20.568  34.529   5.850
 6654POPC   GL143933  20.561  34.533   6.150
 6654POPC   GL243934  20.508  34.483   6.150
 6654POPC   C1A43935  20.624  34.618   6.450
 6654POPC   D2A43936  20.652  34.566   6.750
 6654POPC   C3A43937  20.628  34.554   7.050
 6654POPC   C4A43938  20.596  34.549   7.350
 6654POPC   C1B43939  20.461  34.411   6.450
 6654POPC   C2B43940  20.414  34.351   6.750
 6654POPC   C3B43941  20.436  34.437   7.050
 6654POPC   C4B43942  20.386  34.375   7.350
 6655POPC   NC343943   0.454   2.775   5.550
 6655POPC   PO443944   0.397   2.779   5.850
 6655POPC   GL143945   0.399   2.774   6.150
 6655POPC   GL243946   0.414   2.818   6.150
 6655POPC   C1A43947   0.486   2.766   6.450
 6655POPC   D2A43948   0.413   2.721   6.750
 6655POPC   C3A43949   0.433   2.766   7.050
 6655POPC   C4A43950   0.468   2.770   7.350
 6655POPC   C1B43951   0.263   2.927   6.450
 6655POPC   C2B43952   0.252   2.974   6.750
 6655POPC   C3B43953   0.278   2.948   7.050
 6655POPC   C4B43954   0.254   2.982   7.350
 6656POPC   NC343955  32.229  12.079   5.550
 6656POPC   PO443956  32.224  12.097   5.850
 6656POPC   GL143957  32.221  12.049   6.150
 6656POPC   GL243958  32.155  12.132   6.150
 6656POPC   C1A43959  32.222  12.122   6.450
 6656POPC   D2A43960  32.241  12.120   6.750
 6656POPC   C3A43961  32.297  12.096   7.050
 6656POPC   C4A43962  32.214  12.030   7.350
 6656POPC   C1B43963  32.079  12.233   6.450
 6656POPC   C2B43964  32.023  12.284   6.750
 6656POPC   C3B43965  32.042  12.278   7.050
 6656POPC   C4B43966  32.086  12.235   7.350
 6657POPC   NC343967   4.332  12.833   5.550
 6657POPC   PO443968   4.298  12.867   5.850
 6657POPC   GL143969   4.277  12.812   6.150
 6657POPC   GL243970   4.409  12.945   6.150
 6657POPC   C1A43971   4.314  12.805   6.450
 6657POPC   D2A43972   4.276  12.830   6.750
 6657POPC   C3A43973   4.280  12.824   7.050
 6657POPC   C4A43974   4.367  12.883   7.350
 6657POPC   C1B43975   4.392  13.060   6.450
 6657POPC   C2B43976   4.394  13.104   6.750
 6657POPC   C3B43977   4.458  13.056   7.050
 6657POPC   C4B43978   4.473  13.056   7.350
 6658POPC   NC343979  29.163  29.113   5.550
 6658POPC   PO443980  29.187  29.129   5.850
 6658POPC   GL143981  29.160  29.126   6.150
 6658POPC   GL243982  29.179  29.003   6.150
 6658POPC   C1A43983  29.141  29.144   6.450
 6658POPC   D2A43984  29.167  29.176   6.750
 6658POPC   C3A43985  29.194  29.146   7.050
 6658POPC   C4A43986  29.178  29.131   7.350
 6658POPC   C1B43987  29.132  28.929   6.450
 6658POPC   C2B43988  29.130  28.921   6.750
 6658POPC   C3B43989  29.186  28.931   7.050
 6658POPC   C4B43990  29.204  28.932   7.350
 6659POPC   NC343991  24.511   9.698   5.550
 6659POPC   PO443992  24.529   9.787   5.850
 6659POPC   GL143993  24.486   9.721   6.150
 6659POPC   GL243994  24.547   9.622   6.150
 6659POPC   C1A43995  24.470   9.783   6.450
 6659POPC   D2A43996  24.536   9.798   6.750
 6659POPC   C3A43997  24.504   9.718   7.050
 6659POPC   C4A43998  24.501   9.733   7.350
 6659POPC   C1B43999  24.601   9.525   6.450
 6659POPC   C2B44000  24.624   9.552   6.750
 6659POPC   C3B44001  24.562   9.488   7.050
 6659POPC   C4B44002  24.584   9.476   7.350
 6660POPC   NC344003  31.464  25.306   5.550
 6660POPC   PO444004  31.437  25.272   5.850
 6660POPC   GL144005  31.495  25.307   6.150
 6660POPC   GL244006  31.358  25.186   6.150
 6660POPC   C1A44007  31.506  25.259   6.450
 6660POPC   D2A44008  31.464  25.248   6.750
 6660POPC   C3A44009  31.508  25.242   7.050
 6660POPC   C4A44010  31.461  25.282   7.350
 6660POPC   C1B44011  31.241  25.211   6.450
 6660POPC   C2B44012  31.204  25.140   6.750
 6660POPC   C3B44013  31.248  25.169   7.050
 6660POPC   C4B44014  31.251  25.195   7.350
 6661POPC   NC344015  12.083   4.319   5.550
 6661POPC   PO444016  12.080   4.273   5.850
 6661POPC   GL144017  12.056   4.326   6.150
 6661POPC   GL244018  11.938   4.375   6.150
 6661POPC   C1A44019  12.080   4.296   6.450
 6661POPC   D2A44020  12.036   4.360   6.750
 6661POPC   C3A44021  12.055   4.351   7.050
 6661POPC   C4A44022  12.054   4.292   7.350
 6661POPC   C1B44023  11.836   4.382   6.450
 6661POPC   C2B44024  11.878   4.365   6.750
 6661POPC   C3B44025  11.857   4.406   7.050
 6661POPC   C4B44026  11.796   4.411   7.350
 6662POPC   NC344027  18.238  27.607   5.550
 6662POPC   PO444028  18.285  27.583   5.850
 6662POPC   GL144029  18.270  27.575   6.150
 6662POPC   GL244030  18.376  27.626   6.150
 6662POPC   C1A44031  18.295  27.561   6.450
 6662POPC   D2A44032  18.249  27.632   6.750
 6662POPC   C3A44033  18.252  27.571   7.050
 6662POPC   C4A44034  18.288  27.608   7.350
 6662POPC   C1B44035  18.519  27.615   6.450
 6662POPC   C2B44036  18.573  27.579   6.750
 6662POPC   C3B44037  18.568  27.638   7.050
 6662POPC   C4B44038  18.486  27.637   7.350
 6663POPC   NC344039  20.608  33.752   5.550
 6663POPC   PO444040  20.651  33.842   5.850
 6663POPC   GL144041  20.653  33.829   6.150
 6663POPC   GL244042  20.666  33.908   6.150
 6663POPC   C1A44043  20.615  33.821   6.450
 6663POPC   D2A44044  20.615  33.850   6.750
 6663POPC   C3A44045  20.589  33.812   7.050
 6663POPC   C4A44046  20.619  33.803   7.350
 6663POPC   C1B44047  20.814  33.960   6.450
 6663POPC   C2B44048  20.805  33.908   6.750
 6663POPC   C3B44049  20.780  33.944   7.050
 6663POPC   C4B44050  20.807  33.937   7.350
 6664POPC   NC344051  27.633   5.133   5.550
 6664POPC   PO444052  27.593   5.065   5.850
 6664POPC   GL144053  27.598   5.131   6.150
 6664POPC   GL244054  27.523   5.243   6.150
 6664POPC   C1A44055  27.592   5.101   6.450
 6664POPC   D2A44056  27.548   5.054   6.750
 6664POPC   C3A44057  27.599   5.113   7.050
 6664POPC   C4A44058  27.578   5.048   7.350
 6664POPC   C1B44059  27.460   5.294   6.450
 6664POPC   C2B44060  27.450   5.322   6.750
 6664POPC   C3B44061  27.463   5.297   7.050
 6664POPC   C4B44062  27.438   5.301   7.350
 6665POPC   NC344063  15.177   8.973   5.550
 6665POPC   PO444064  15.174   8.934   5.850
 6665POPC   GL144065  15.163   8.999   6.150
 6665POPC   GL244066  15.288   9.048   6.150
 6665POPC   C1A44067  15.188   9.016   6.450
 6665POPC   D2A44068  15.151   8.985   6.750
 6665POPC   C3A44069  15.177   8.925   7.050
 6665POPC   C4A44070  15.181   8.967   7.350
 6665POPC   C1B44071  15.302   9.221   6.450
 6665POPC   C2B44072  15.267   9.159   6.750
 6665POPC   C3B44073  15.344   9.160   7.050
 6665POPC   C4B44074  15.327   9.235   7.350
 6666POPC   NC344075   1.972   8.962   5.550
 6666POPC   PO444076   2.007   8.999   5.850
 6666POPC   GL144077   1.964   8.960   6.150
 6666POPC   GL244078   2.069   8.974   6.150
 6666POPC   C1A44079   1.969   8.938   6.450
 6666POPC   D2A44080   2.031   8.955   6.750
 6666POPC   C3A44081   1.949   9.003   7.050
 6666POPC   C4A44082   1.960   8.950   7.350
 6666POPC   C1B44083   2.261   9.047   6.450
 6666POPC   C2B44084   2.226   9.011   6.750
 6666POPC   C3B44085   2.186   8.997   7.050
 6666POPC   C4B44086   2.260   9.060   7.350
 6667POPC   NC344087  25.304  20.602   5.550
 6667POPC   PO444088  25.272  20.619   5.850
 6667POPC   GL144089  25.262  20.577   6.150
 6667POPC   GL244090  25.274  20.716   6.150
 6667POPC   C1A44091  25.283  20.612   6.450
 6667POPC   D2A44092  25.314  20.659   6.750
 6667POPC   C3A44093  25.291  20.619   7.050
 6667POPC   C4A44094  25.257  20.598   7.350
 6667POPC   C1B44095  25.288  20.860   6.450
 6667POPC   C2B44096  25.297  20.854   6.750
 6667POPC   C3B44097  25.264  20.881   7.050
 6667POPC   C4B44098  25.291  20.851   7.350
 6668POPC   NC344099  37.687  15.131   5.550
 6668POPC   PO444100  37.696  15.184   5.850
 6668POPC   GL144101  37.642  15.168   6.150
 6668POPC   GL244102  37.765  15.065   6.150
 6668POPC   C1A44103  37.683  15.162   6.450
 6668POPC   D2A44104  37.712  15.201   6.750
 6668POPC   C3A44105  37.711  15.146   7.050
 6668POPC   C4A44106  37.705  15.210   7.350
 6668POPC   C1B44107  37.782  14.912   6.450
 6668POPC   C2B44108  37.786  14.989   6.750
 6668POPC   C3B44109  37.770  14.953   7.050
 6668POPC   C4B44110  37.763  14.959   7.350
 6669POPC   NC344111   5.878  22.128   5.550
 6669POPC   PO444112   5.827  22.132   5.850
 6669POPC   GL144113   5.879  22.201   6.150
 6669POPC   GL244114   5.794  22.051   6.150
 6669POPC   C1A44115   5.886  22.207   6.450
 6669POPC   D2A44116   5.879  22.135   6.750
 6669POPC   C3A44117   5.877  22.184   7.050
 6669POPC   C4A44118   5.834  22.179   7.350
 6669POPC   C1B44119   5.755  22.002   6.450
 6669POPC   C2B44120   5.728  21.915   6.750
 6669POPC   C3B44121   5.735  21.991   7.050
 6669POPC   C4B44122   5.765  21.925   7.350
 6670POPC   NC344123   3.532  19.083   5.550
 6670POPC   PO444124   3.512  19.019   5.850
 6670POPC   GL144125   3.584  19.097   6.150
 6670POPC   GL244126   3.405  19.089   6.150
 6670POPC   C1A44127   3.496  19.033   6.450
 6670POPC   D2A44128   3.505  19.076   6.750
 6670POPC   C3A44129   3.559  19.081   7.050
 6670POPC   C4A44130   3.506  19.073   7.350
 6670POPC   C1B44131   3.307  19.169   6.450
 6670POPC   C2B44132   3.299  19.170   6.750
 6670POPC   C3B44133   3.350  19.174   7.050
 6670POPC   C4B44134   3.381  19.198   7.350
 6671POPC   NC344135  28.417  37.678   5.550
 6671POPC   PO444136  28.378  37.678   5.850
 6671POPC   GL144137  28.322  37.674   6.150
 6671POPC   GL244138  28.448  37.810   6.150
 6671POPC   C1A44139  28.348  37.652   6.450
 6671POPC   D2A44140  28.416  37.652   6.750
 6671POPC   C3A44141  28.382  37.655   7.050
 6671POPC   C4A44142  28.369  37.650   7.350
 6671POPC   C1B44143  28.486  37.941   6.450
 6671POPC   C2B44144  28.490  37.896   6.750
 6671POPC   C3B44145  28.495  37.892   7.050
 6671POPC   C4B44146  28.482  37.961   7.350
 6672POPC   NC344147  24.498  44.656   5.550
 6672POPC   PO444148  24.456  44.642   5.850
 6672POPC   GL144149  24.519  44.709   6.150
 6672POPC   GL244150  24.554  44.748   6.150
 6672POPC   C1A44151  24.460  44.628   6.450
 6672POPC   D2A44152  24.497  44.635   6.750
 6672POPC   C3A44153  24.487  44.633   7.050
 6672POPC   C4A44154  24.480  44.697   7.350
 6672POPC   C1B44155  24.687  44.843   6.450
 6672POPC   C2B44156  24.656  44.786   6.750
 6672POPC   C3B44157  24.648  44.758   7.050
 6672POPC   C4B44158  24.659  44.832   7.350
 6673POPC   NC344159  37.683  33.781   5.550
 6673POPC   PO444160  37.672  33.815   5.850
 6673POPC   GL144161  37.702  33.764   6.150
 6673POPC   GL244162  37.774  33.854   6.150
 6673POPC   C1A44163  37.682  33.781   6.450
 6673POPC   D2A44164  37.672  33.757   6.750
 6673POPC   C3A44165  37.703  33.751   7.050
 6673POPC   C4A44166  37.713  33.795   7.350
 6673POPC   C1B44167  37.867  33.978   6.450
 6673POPC   C2B44168  37.893  33.963   6.750
 6673POPC   C3B44169  37.909  33.951   7.050
 6673POPC   C4B44170  37.858  33.945   7.350
 6674POPC   NC344171   1.176  44.640   5.550
 6674POPC   PO444172   1.245  44.697   5.850
 6674POPC   GL144173   1.165  44.651   6.150
 6674POPC   GL244174   1.101  44.726   6.150
 6674POPC   C1A44175   1.232  44.632   6.450
 6674POPC   D2A44176   1.233  44.676   6.750
 6674POPC   C3A44177   1.231  44.661   7.050
 6674POPC   C4A44178   1.218  44.678   7.350
 6674POPC   C1B44179   1.012  44.744   6.450
 6674POPC   C2B44180   0.938  44.786   6.750
 6674POPC   C3B44181   0.943  44.730   7.050
 6674POPC   C4B44182   0.964  44.747   7.350
 6675POPC   NC344183  30.688   1.254   5.550
 6675POPC   PO444184  30.660   1.166   5.850
 6675POPC   GL144185  30.684   1.214   6.150
 6675POPC   GL244186  30.555   1.204   6.150
 6675POPC   C1A44187  30.700   1.223   6.450
 6675POPC   D2A44188  30.659   1.231   6.750
 6675POPC   C3A44189  30.671   1.174   7.050
 6675POPC   C4A44190  30.697   1.236   7.350
 6675POPC   C1B44191  30.461   1.153   6.450
 6675POPC   C2B44192  30.460   1.169   6.750
 6675POPC   C3B44193  30.463   1.244   7.050
 6675POPC   C4B44194  30.408   1.244   7.350
 6676POPC   NC344195  33.810  39.186   5.550
 6676POPC   PO444196  33.781  39.221   5.850
 6676POPC   GL144197  33.761  39.196   6.150
 6676POPC   GL244198  33.913  39.196   6.150
 6676POPC   C1A44199  33.825  39.239   6.450
 6676POPC   D2A44200  33.842  39.253   6.750
 6676POPC   C3A44201  33.765  39.245   7.050
 6676POPC   C4A44202  33.818  39.189   7.350
 6676POPC   C1B44203  33.988  39.046   6.450
 6676POPC   C2B44204  33.992  39.086   6.750
 6676POPC   C3B44205  34.013  39.114   7.050
 6676POPC   C4B44206  33.954  39.085   7.350
 6677POPC   NC344207  16.718   1.238   5.550
 6677POPC   PO444208  16.740   1.241   5.850
 6677POPC   GL144209  16.747   1.245   6.150
 6677POPC   GL244210  16.805   1.128   6.150
 6677POPC   C1A44211  16.704   1.248   6.450
 6677POPC   D2A44212  16.718   1.213   6.750
 6677POPC   C3A44213  16.724   1.187   7.050
 6677POPC   C4A44214  16.731   1.187   7.350
 6677POPC   C1B44215  16.939   1.007   6.450
 6677POPC   C2B44216  16.884   1.011   6.750
 6677POPC   C3B44217  16.853   1.059   7.050
 6677POPC   C4B44218  16.937   1.065   7.350
 6678POPC   NC344219  26.045   5.056   5.550
 6678POPC   PO444220  26.068   5.061   5.850
 6678POPC   GL144221  26.050   5.080   6.150
 6678POPC   GL244222  25.986   5.187   6.150
 6678POPC   C1A44223  25.994   5.096   6.450
 6678POPC   D2A44224  26.026   5.129   6.750
 6678POPC   C3A44225  26.002   5.123   7.050
 6678POPC   C4A44226  26.022   5.106   7.350
 6678POPC   C1B44227  25.969   5.356   6.450
 6678POPC   C2B44228  25.988   5.313   6.750
 6678POPC   C3B44229  25.974   5.354   7.050
 6678POPC   C4B44230  26.034   5.344   7.350
 6679POPC   NC344231   1.224   3.506   5.550
 6679POPC   PO444232   1.250   3.590   5.850
 6679POPC   GL144233   1.195   3.520   6.150
 6679POPC   GL244234   1.298   3.469   6.150
 6679POPC   C1A44235   1.229   3.570   6.450
 6679POPC   D2A44236   1.195   3.581   6.750
 6679POPC   C3A44237   1.229   3.504   7.050
 6679POPC   C4A44238   1.210   3.566   7.350
 6679POPC   C1B44239   1.330   3.340   6.450
 6679POPC   C2B44240   1.402   3.398   6.750
 6679POPC   C3B44241   1.326   3.314   7.050
 6679POPC   C4B44242   1.337   3.304   7.350
 6680POPC   NC344243  40.045  26.800   5.550
 6680POPC   PO444244  39.966  26.837   5.850
 6680POPC   GL144245  39.990  26.864   6.150
 6680POPC   GL244246  40.077  26.903   6.150
 6680POPC   C1A44247  39.996  26.772   6.450
 6680POPC   D2A44248  39.998  26.775   6.750
 6680POPC   C3A44249  40.001  26.781   7.050
 6680POPC   C4A44250  40.042  26.792   7.350
 6680POPC   C1B44251  40.207  26.846   6.450
 6680POPC   C2B44252  40.197  26.887   6.750
 6680POPC   C3B44253  40.198  26.894   7.050
 6680POPC   C4B44254  40.201  26.893   7.350
 6681POPC   NC344255  35.364   5.141   5.550
 6681POPC   PO444256  35.330   5.097   5.850
 6681POPC   GL144257  35.321   5.134   6.150
 6681POPC   GL244258  35.395   5.162   6.150
 6681POPC   C1A44259  35.369   5.074   6.450
 6681POPC   D2A44260  35.387   5.105   6.750
 6681POPC   C3A44261  35.370   5.053   7.050
 6681POPC   C4A44262  35.315   5.051   7.350
 6681POPC   C1B44263  35.482   5.349   6.450
 6681POPC   C2B44264  35.504   5.336   6.750
 6681POPC   C3B44265  35.452   5.262   7.050
 6681POPC   C4B44266  35.490   5.307   7.350
 6682POPC   NC344267  12.860  27.544   5.550
 6682POPC   PO444268  12.841  27.591   5.850
 6682POPC   GL144269  12.873  27.595   6.150
 6682POPC   GL244270  12.937  27.581   6.150
 6682POPC   C1A44271  12.900  27.615   6.450
 6682POPC   D2A44272  12.870  27.544   6.750
 6682POPC   C3A44273  12.843  27.612   7.050
 6682POPC   C4A44274  12.864  27.618   7.350
 6682POPC   C1B44275  13.054  27.552   6.450
 6682POPC   C2B44276  13.075  27.531   6.750
 6682POPC   C3B44277  13.122  27.569   7.050
 6682POPC   C4B44278  13.050  27.561   7.350
 6683POPC   NC344279   3.546  10.573   5.550
 6683POPC   PO444280   3.542  10.486   5.850
 6683POPC   GL144281   3.538  10.507   6.150
 6683POPC   GL244282   3.706  10.549   6.150
 6683POPC   C1A44283   3.572  10.541   6.450
 6683POPC   D2A44284   3.581  10.522   6.750
 6683POPC   C3A44285   3.529  10.553   7.050
 6683POPC   C4A44286   3.538  10.564   7.350
 6683POPC   C1B44287   3.809  10.532   6.450
 6683POPC   C2B44288   3.755  10.589   6.750
 6683POPC   C3B44289   3.834  10.546   7.050
 6683POPC   C4B44290   3.761  10.587   7.350
 6684POPC   NC344291  37.706  25.284   5.550
 6684POPC   PO444292  37.638  25.298   5.850
 6684POPC   GL144293  37.655  25.235   6.150
 6684POPC   GL244294  37.811  25.319   6.150
 6684POPC   C1A44295  37.679  25.270   6.450
 6684POPC   D2A44296  37.632  25.256   6.750
 6684POPC   C3A44297  37.629  25.296   7.050
 6684POPC   C4A44298  37.669  25.299   7.350
 6684POPC   C1B44299  37.797  25.442   6.450
 6684POPC   C2B44300  37.828  25.492   6.750
 6684POPC   C3B44301  37.872  25.499   7.050
 6684POPC   C4B44302  37.867  25.460   7.350
 6685POPC   NC344303  39.963  25.245   5.550
 6685POPC   PO444304  40.031  25.237   5.850
 6685POPC   GL144305  40.012  25.295   6.150
 6685POPC   GL244306  40.111  25.374   6.150
 6685POPC   C1A44307  40.014  25.311   6.450
 6685POPC   D2A44308  39.994  25.226   6.750
 6685POPC   C3A44309  40.032  25.231   7.050
 6685POPC   C4A44310  40.029  25.314   7.350
 6685POPC   C1B44311  40.207  25.373   6.450
 6685POPC   C2B44312  40.218  25.417   6.750
 6685POPC   C3B44313  40.160  25.456   7.050
 6685POPC   C4B44314  40.246  25.381   7.350
 6686POPC   NC344315  40.759  39.992   5.550
 6686POPC   PO444316  40.816  39.990   5.850
 6686POPC   GL144317  40.769  40.019   6.150
 6686POPC   GL244318  40.839  39.886   6.150
 6686POPC   C1A44319  40.811  39.963   6.450
 6686POPC   D2A44320  40.773  40.025   6.750
 6686POPC   C3A44321  40.815  40.048   7.050
 6686POPC   C4A44322  40.779  39.982   7.350
 6686POPC   C1B44323  40.820  39.760   6.450
 6686POPC   C2B44324  40.813  39.812   6.750
 6686POPC   C3B44325  40.793  39.777   7.050
 6686POPC   C4B44326  40.868  39.801   7.350
 6687POPC   NC344327  23.729  41.535   5.550
 6687POPC   PO444328  23.670  41.553   5.850
 6687POPC   GL144329  23.718  41.578   6.150
 6687POPC   GL244330  23.816  41.495   6.150
 6687POPC   C1A44331  23.742  41.566   6.450
 6687POPC   D2A44332  23.742  41.570   6.750
 6687POPC   C3A44333  23.744  41.576   7.050
 6687POPC   C4A44334  23.760  41.579   7.350
 6687POPC   C1B44335  23.898  41.441   6.450
 6687POPC   C2B44336  23.969  41.465   6.750
 6687POPC   C3B44337  23.955  41.470   7.050
 6687POPC   C4B44338  23.983  41.408   7.350
 6688POPC   NC344339   8.987  37.659   5.550
 6688POPC   PO444340   8.936  37.692   5.850
 6688POPC   GL144341   8.984  37.689   6.150
 6688POPC   GL244342   9.046  37.794   6.150
 6688POPC   C1A44343   8.995  37.648   6.450
 6688POPC   D2A44344   8.925  37.719   6.750
 6688POPC   C3A44345   9.020  37.724   7.050
 6688POPC   C4A44346   9.012  37.680   7.350
 6688POPC   C1B44347   9.025  37.909   6.450
 6688POPC   C2B44348   9.042  37.885   6.750
 6688POPC   C3B44349   9.009  37.969   7.050
 6688POPC   C4B44350   9.068  37.905   7.350
 6689POPC   NC344351   2.030  12.110   5.550
 6689POPC   PO444352   1.995  12.094   5.850
 6689POPC   GL144353   2.011  12.083   6.150
 6689POPC   GL244354   2.080  12.133   6.150
 6689POPC   C1A44355   1.949  12.066   6.450
 6689POPC   D2A44356   1.965  12.058   6.750
 6689POPC   C3A44357   2.005  12.059   7.050
 6689POPC   C4A44358   2.006  12.081   7.350
 6689POPC   C1B44359   2.169  12.243   6.450
 6689POPC   C2B44360   2.084  12.271   6.750
 6689POPC   C3B44361   2.103  12.309   7.050
 6689POPC   C4B44362   2.155  12.266   7.350
 6690POPC   NC344363  12.875  22.985   5.550
 6690POPC   PO444364  12.845  22.929   5.850
 6690POPC   GL144365  12.899  22.935   6.150
 6690POPC   GL244366  12.686  22.985   6.150
 6690POPC   C1A44367  12.870  22.927   6.450
 6690POPC   D2A44368  12.850  22.936   6.750
 6690POPC   C3A44369  12.836  22.985   7.050
 6690POPC   C4A44370  12.819  22.895   7.350
 6690POPC   C1B44371  12.648  22.981   6.450
 6690POPC   C2B44372  12.652  22.954   6.750
 6690POPC   C3B44373  12.560  22.959   7.050
 6690POPC   C4B44374  12.631  23.009   7.350
 6691POPC   NC344375  20.611  40.815   5.550
 6691POPC   PO444376  20.591  40.738   5.850
 6691POPC   GL144377  20.656  40.737   6.150
 6691POPC   GL244378  20.686  40.687   6.150
 6691POPC   C1A44379  20.635  40.741   6.450
 6691POPC   D2A44380  20.611  40.817   6.750
 6691POPC   C3A44381  20.604  40.813   7.050
 6691POPC   C4A44382  20.616  40.819   7.350
 6691POPC   C1B44383  20.704  40.549   6.450
 6691POPC   C2B44384  20.717  40.513   6.750
 6691POPC   C3B44385  20.720  40.517   7.050
 6691POPC   C4B44386  20.673  40.588   7.350
 6692POPC   NC344387   6.651  42.334   5.550
 6692POPC   PO444388   6.662  42.377   5.850
 6692POPC   GL144389   6.679  42.343   6.150
 6692POPC   GL244390   6.667  42.442   6.150
 6692POPC   C1A44391   6.682  42.315   6.450
 6692POPC   D2A44392   6.618  42.371   6.750
 6692POPC   C3A44393   6.640  42.360   7.050
 6692POPC   C4A44394   6.643  42.293   7.350
 6692POPC   C1B44395   6.693  42.551   6.450
 6692POPC   C2B44396   6.736  42.527   6.750
 6692POPC   C3B44397   6.726  42.599   7.050
 6692POPC   C4B44398   6.708  42.550   7.350
 6693POPC   NC344399  33.779  43.934   5.550
 6693POPC   PO444400  33.782  43.894   5.850
 6693POPC   GL144401  33.769  43.882   6.150
 6693POPC   GL244402  33.866  43.970   6.150
 6693POPC   C1A44403  33.801  43.902   6.450
 6693POPC   D2A44404  33.835  43.851   6.750
 6693POPC   C3A44405  33.775  43.911   7.050
 6693POPC   C4A44406  33.780  43.854   7.350
 6693POPC   C1B44407  33.885  44.170   6.450
 6693POPC   C2B44408  33.858  44.137   6.750
 6693POPC   C3B44409  33.832  44.091   7.050
 6693POPC   C4B44410  33.867  44.115   7.350
 6694POPC   NC344411  44.688  17.512   5.550
 6694POPC   PO444412  44.679  17.529   5.850
 6694POPC   GL144413  44.616  17.469   6.150
 6694POPC   GL244414  44.747  17.431   6.150
 6694POPC   C1A44415  44.618  17.547   6.450
 6694POPC   D2A44416  44.671  17.498   6.750
 6694POPC   C3A44417  44.702  17.500   7.050
 6694POPC   C4A44418  44.652  17.553   7.350
 6694POPC   C1B44419  44.893  17.384   6.450
 6694POPC   C2B44420  44.856  17.349   6.750
 6694POPC   C3B44421  44.797  17.371   7.050
 6694POPC   C4B44422  44.846  17.379   7.350
 6695POPC   NC344423  36.895  39.258   5.550
 6695POPC   PO444424  36.936  39.225   5.850
 6695POPC   GL144425  36.899  39.216   6.150
 6695POPC   GL244426  36.899  39.397   6.150
 6695POPC   C1A44427  36.922  39.217   6.450
 6695POPC   D2A44428  36.902  39.247   6.750
 6695POPC   C3A44429  36.930  39.233   7.050
 6695POPC   C4A44430  36.905  39.244   7.350
 6695POPC   C1B44431  36.949  39.454   6.450
 6695POPC   C2B44432  36.944  39.475   6.750
 6695POPC   C3B44433  36.997  39.515   7.050
 6695POPC   C4B44434  36.979  39.477   7.350
 6696POPC   NC344435  44.702  10.504   5.550
 6696POPC   PO444436  44.677  10.521   5.850
 6696POPC   GL144437  44.709  10.479   6.150
 6696POPC   GL244438  44.631  10.419   6.150
 6696POPC   C1A44439  44.679  10.532   6.450
 6696POPC   D2A44440  44.683  10.511   6.750
 6696POPC   C3A44441  44.643  10.562   7.050
 6696POPC   C4A44442  44.676  10.513   7.350
 6696POPC   C1B44443  44.507  10.290   6.450
 6696POPC   C2B44444  44.541  10.260   6.750
 6696POPC   C3B44445  44.496  10.264   7.050
 6696POPC   C4B44446  44.495  10.300   7.350
 6697POPC   NC344447  18.322  32.975   5.550
 6697POPC   PO444448  18.292  33.061   5.850
 6697POPC   GL144449  18.284  33.067   6.150
 6697POPC   GL244450  18.194  32.958   6.150
 6697POPC   C1A44451  18.312  33.041   6.450
 6697POPC   D2A44452  18.307  33.067   6.750
 6697POPC   C3A44453  18.247  33.067   7.050
 6697POPC   C4A44454  18.252  32.981   7.350
 6697POPC   C1B44455  18.077  32.954   6.450
 6697POPC   C2B44456  18.092  32.887   6.750
 6697POPC   C3B44457  18.027  32.974   7.050
 6697POPC   C4B44458  18.069  32.889   7.350
 6698POPC   NC344459  12.057  33.818   5.550
 6698POPC   PO444460  12.087  33.793   5.850
 6698POPC   GL144461  12.095  33.850   6.150
 6698POPC   GL244462  12.243  33.830   6.150
 6698POPC   C1A44463  12.102  33.773   6.450
 6698POPC   D2A44464  12.085  33.767   6.750
 6698POPC   C3A44465  12.035  33.827   7.050
 6698POPC   C4A44466  12.057  33.842   7.350
 6698POPC   C1B44467  12.324  33.853   6.450
 6698POPC   C2B44468  12.364  33.805   6.750
 6698POPC   C3B44469  12.373  33.808   7.050
 6698POPC   C4B44470  12.297  33.804   7.350
 6699POPC   NC344471  13.638  25.998   5.550
 6699POPC   PO444472  13.601  26.026   5.850
 6699POPC   GL144473  13.595  26.041   6.150
 6699POPC   GL244474  13.681  25.874   6.150
 6699POPC   C1A44475  13.630  26.070   6.450
 6699POPC   D2A44476  13.578  25.997   6.750
 6699POPC   C3A44477  13.595  26.089   7.050
 6699POPC   C4A44478  13.635  26.004   7.350
 6699POPC   C1B44479  13.661  25.830   6.450
 6699POPC   C2B44480  13.642  25.842   6.750
 6699POPC   C3B44481  13.663  25.831   7.050
 6699POPC   C4B44482  13.669  25.762   7.350
 6700POPC   NC344483   6.667  20.643   5.550
 6700POPC   PO444484   6.606  20.578   5.850
 6700POPC   GL144485   6.599  20.615   6.150
 6700POPC   GL244486   6.578  20.529   6.150
 6700POPC   C1A44487   6.604  20.640   6.450
 6700POPC   D2A44488   6.673  20.592   6.750
 6700POPC   C3A44489   6.640  20.642   7.050
 6700POPC   C4A44490   6.644  20.629   7.350
 6700POPC   C1B44491   6.616  20.334   6.450
 6700POPC   C2B44492   6.613  20.354   6.750
 6700POPC   C3B44493   6.570  20.350   7.050
 6700POPC   C4B44494   6.610  20.407   7.350
 6701POPC   NC344495   0.461   5.101   5.550
 6701POPC   PO444496   0.402   5.139   5.850
 6701POPC   GL144497   0.425   5.090   6.150
 6701POPC   GL244498   0.279   5.120   6.150
 6701POPC   C1A44499   0.477   5.090   6.450
 6701POPC   D2A44500   0.434   5.050   6.750
 6701POPC   C3A44501   0.465   5.086   7.050
 6701POPC   C4A44502   0.445   5.065   7.350
 6701POPC   C1B44503   0.242   5.215   6.450
 6701POPC   C2B44504   0.238   5.224   6.750
 6701POPC   C3B44505   0.217   5.194   7.050
 6701POPC   C4B44506   0.202   5.161   7.350
 6702POPC   NC344507  36.080  15.144   5.550
 6702POPC   PO444508  36.163  15.161   5.850
 6702POPC   GL144509  36.081  15.209   6.150
 6702POPC   GL244510  36.078  15.097   6.150
 6702POPC   C1A44511  36.086  15.199   6.450
 6702POPC   D2A44512  36.136  15.132   6.750
 6702POPC   C3A44513  36.133  15.138   7.050
 6702POPC   C4A44514  36.104  15.179   7.350
 6702POPC   C1B44515  36.097  14.897   6.450
 6702POPC   C2B44516  36.148  14.925   6.750
 6702POPC   C3B44517  36.089  14.927   7.050
 6702POPC   C4B44518  36.069  14.934   7.350
 6703POPC   NC344519  36.935  42.287   5.550
 6703POPC   PO444520  36.947  42.350   5.850
 6703POPC   GL144521  36.854  42.363   6.150
 6703POPC   GL244522  36.826  42.403   6.150
 6703POPC   C1A44523  36.906  42.346   6.450
 6703POPC   D2A44524  36.916  42.359   6.750
 6703POPC   C3A44525  36.881  42.312   7.050
 6703POPC   C4A44526  36.922  42.359   7.350
 6703POPC   C1B44527  36.695  42.402   6.450
 6703POPC   C2B44528  36.632  42.398   6.750
 6703POPC   C3B44529  36.683  42.388   7.050
 6703POPC   C4B44530  36.631  42.398   7.350
 6704POPC   NC344531   8.154  27.550   5.550
 6704POPC   PO444532   8.177  27.633   5.850
 6704POPC   GL144533   8.221  27.637   6.150
 6704POPC   GL244534   8.037  27.620   6.150
 6704POPC   C1A44535   8.215  27.625   6.450
 6704POPC   D2A44536   8.183  27.573   6.750
 6704POPC   C3A44537   8.203  27.634   7.050
 6704POPC   C4A44538   8.213  27.565   7.350
 6704POPC   C1B44539   7.964  27.679   6.450
 6704POPC   C2B44540   7.988  27.626   6.750
 6704POPC   C3B44541   7.929  27.639   7.050
 6704POPC   C4B44542   7.927  27.640   7.350
 6705POPC   NC344543  16.774   2.815   5.550
 6705POPC   PO444544  16.775   2.741   5.850
 6705POPC   GL144545  16.771   2.739   6.150
 6705POPC   GL244546  16.631   2.798   6.150
 6705POPC   C1A44547  16.710   2.764   6.450
 6705POPC   D2A44548  16.713   2.737   6.750
 6705POPC   C3A44549  16.692   2.750   7.050
 6705POPC   C4A44550  16.722   2.719   7.350
 6705POPC   C1B44551  16.545   2.870   6.450
 6705POPC   C2B44552  16.530   2.845   6.750
 6705POPC   C3B44553  16.519   2.844   7.050
 6705POPC   C4B44554  16.497   2.828   7.350
 6706POPC   NC344555   8.969  19.858   5.550
 6706POPC   PO444556   8.986  19.803   5.850
 6706POPC   GL144557   9.020  19.871   6.150
 6706POPC   GL244558   9.030  19.914   6.150
 6706POPC   C1A44559   9.007  19.871   6.450
 6706POPC   D2A44560   8.933  19.874   6.750
 6706POPC   C3A44561   9.005  19.813   7.050
 6706POPC   C4A44562   9.010  19.844   7.350
 6706POPC   C1B44563   9.154  20.055   6.450
 6706POPC   C2B44564   9.107  19.988   6.750
 6706POPC   C3B44565   9.178  19.993   7.050
 6706POPC   C4B44566   9.147  19.995   7.350
 6707POPC   NC344567   7.409  25.276   5.550
 6707POPC   PO444568   7.451  25.307   5.850
 6707POPC   GL144569   7.460  25.235   6.150
 6707POPC   GL244570   7.496  25.218   6.150
 6707POPC   C1A44571   7.376  25.289   6.450
 6707POPC   D2A44572   7.402  25.295   6.750
 6707POPC   C3A44573   7.462  25.287   7.050
 6707POPC   C4A44574   7.386  25.231   7.350
 6707POPC   C1B44575   7.557  25.050   6.450
 6707POPC   C2B44576   7.557  25.073   6.750
 6707POPC   C3B44577   7.590  25.060   7.050
 6707POPC   C4B44578   7.599  25.071   7.350
 6708POPC   NC344579  26.075  20.646   5.550
 6708POPC   PO444580  26.082  20.570   5.850
 6708POPC   GL144581  26.034  20.654   6.150
 6708POPC   GL244582  26.017  20.674   6.150
 6708POPC   C1A44583  25.994  20.582   6.450
 6708POPC   D2A44584  26.081  20.575   6.750
 6708POPC   C3A44585  26.064  20.611   7.050
 6708POPC   C4A44586  25.996  20.581   7.350
 6708POPC   C1B44587  25.944  20.786   6.450
 6708POPC   C2B44588  25.889  20.783   6.750
 6708POPC   C3B44589  25.889  20.790   7.050
 6708POPC   C4B44590  25.904  20.816   7.350
 6709POPC   NC344591   5.096  12.828   5.550
 6709POPC   PO444592   5.097  12.823   5.850
 6709POPC   GL144593   5.092  12.822   6.150
 6709POPC   GL244594   5.159  12.951   6.150
 6709POPC   C1A44595   5.134  12.847   6.450
 6709POPC   D2A44596   5.081  12.888   6.750
 6709POPC   C3A44597   5.084  12.890   7.050
 6709POPC   C4A44598   5.055  12.880   7.350
 6709POPC   C1B44599   5.172  13.100   6.450
 6709POPC   C2B44600   5.157  13.076   6.750
 6709POPC   C3B44601   5.188  13.108   7.050
 6709POPC   C4B44602   5.214  13.110   7.350
 6710POPC   NC344603  36.926   3.585   5.550
 6710POPC   PO444604  36.904   3.577   5.850
 6710POPC   GL144605  36.859   3.503   6.150
 6710POPC   GL244606  36.746   3.534   6.150
 6710POPC   C1A44607  36.935   3.590   6.450
 6710POPC   D2A44608  36.922   3.517   6.750
 6710POPC   C3A44609  36.930   3.572   7.050
 6710POPC   C4A44610  36.857   3.571   7.350
 6710POPC   C1B44611  36.678   3.430   6.450
 6710POPC   C2B44612  36.617   3.513   6.750
 6710POPC   C3B44613  36.694   3.511   7.050
 6710POPC   C4B44614  36.706   3.504   7.350
 6711POPC   NC344615   3.507   8.949   5.550
 6711POPC   PO444616   3.512   8.970   5.850
 6711POPC   GL144617   3.578   9.005   6.150
 6711POPC   GL244618   3.605   8.834   6.150
 6711POPC   C1A44619   3.542   9.013   6.450
 6711POPC   D2A44620   3.557   9.012   6.750
 6711POPC   C3A44621   3.526   9.019   7.050
 6711POPC   C4A44622   3.567   9.001   7.350
 6711POPC   C1B44623   3.743   8.743   6.450
 6711POPC   C2B44624   3.672   8.757   6.750
 6711POPC   C3B44625   3.666   8.780   7.050
 6711POPC   C4B44626   3.717   8.807   7.350
 6712POPC   NC344627  26.007  22.193   5.550
 6712POPC   PO444628  26.045  22.130   5.850
 6712POPC   GL144629  26.033  22.146   6.150
 6712POPC   GL244630  26.010  22.071   6.150
 6712POPC   C1A44631  26.066  22.143   6.450
 6712POPC   D2A44632  26.084  22.129   6.750
 6712POPC   C3A44633  26.054  22.137   7.050
 6712POPC   C4A44634  26.023  22.206   7.350
 6712POPC   C1B44635  25.846  22.012   6.450
 6712POPC   C2B44636  25.854  21.951   6.750
 6712POPC   C3B44637  25.838  21.966   7.050
 6712POPC   C4B44638  25.919  21.940   7.350
 6713POPC   NC344639   2.806  20.630   5.550
 6713POPC   PO444640   2.797  20.659   5.850
 6713POPC   GL144641   2.790  20.637   6.150
 6713POPC   GL244642   2.716  20.471   6.150
 6713POPC   C1A44643   2.721  20.625   6.450
 6713POPC   D2A44644   2.734  20.598   6.750
 6713POPC   C3A44645   2.774  20.625   7.050
 6713POPC   C4A44646   2.789  20.587   7.350
 6713POPC   C1B44647   2.707  20.392   6.450
 6713POPC   C2B44648   2.657  20.400   6.750
 6713POPC   C3B44649   2.687  20.418   7.050
 6713POPC   C4B44650   2.680  20.391   7.350
 6714POPC   NC344651  24.477  41.527   5.550
 6714POPC   PO444652  24.507  41.548   5.850
 6714POPC   GL144653  24.489  41.599   6.150
 6714POPC   GL244654  24.349  41.626   6.150
 6714POPC   C1A44655  24.508  41.546   6.450
 6714POPC   D2A44656  24.534  41.575   6.750
 6714POPC   C3A44657  24.478  41.578   7.050
 6714POPC   C4A44658  24.471  41.513   7.350
 6714POPC   C1B44659  24.293  41.730   6.450
 6714POPC   C2B44660  24.240  41.703   6.750
 6714POPC   C3B44661  24.302  41.694   7.050
 6714POPC   C4B44662  24.321  41.677   7.350
 6715POPC   NC344663  10.496  10.541   5.550
 6715POPC   PO444664  10.540  10.530   5.850
 6715POPC   GL144665  10.574  10.479   6.150
 6715POPC   GL244666  10.662  10.447   6.150
 6715POPC   C1A44667  10.488  10.558   6.450
 6715POPC   D2A44668  10.536  10.574   6.750
 6715POPC   C3A44669  10.536  10.538   7.050
 6715POPC   C4A44670  10.556  10.517   7.350
 6715POPC   C1B44671  10.753  10.397   6.450
 6715POPC   C2B44672  10.748  10.431   6.750
 6715POPC   C3B44673  10.800  10.415   7.050
 6715POPC   C4B44674  10.764  10.391   7.350
 6716POPC   NC344675  22.912  22.204   5.550
 6716POPC   PO444676  22.903  22.192   5.850
 6716POPC   GL144677  22.914  22.206   6.150
 6716POPC   GL244678  22.803  22.181   6.150
 6716POPC   C1A44679  22.949  22.164   6.450
 6716POPC   D2A44680  22.987  22.122   6.750
 6716POPC   C3A44681  22.902  22.121   7.050
 6716POPC   C4A44682  22.894  22.123   7.350
 6716POPC   C1B44683  22.727  22.141   6.450
 6716POPC   C2B44684  22.716  22.117   6.750
 6716POPC   C3B44685  22.721  22.200   7.050
 6716POPC   C4B44686  22.659  22.192   7.350
 6717POPC   NC344687  43.926  36.922   5.550
 6717POPC   PO444688  43.914  36.931   5.850
 6717POPC   GL144689  43.889  36.869   6.150
 6717POPC   GL244690  43.818  37.024   6.150
 6717POPC   C1A44691  43.861  36.918   6.450
 6717POPC   D2A44692  43.886  36.899   6.750
 6717POPC   C3A44693  43.886  36.907   7.050
 6717POPC   C4A44694  43.859  36.935   7.350
 6717POPC   C1B44695  43.704  37.149   6.450
 6717POPC   C2B44696  43.729  37.113   6.750
 6717POPC   C3B44697  43.777  37.157   7.050
 6717POPC   C4B44698  43.767  37.074   7.350
 6718POPC   NC344699  10.563  12.804   5.550
 6718POPC   PO444700  10.529  12.874   5.850
 6718POPC   GL144701  10.534  12.851   6.150
 6718POPC   GL244702  10.427  12.812   6.150
 6718POPC   C1A44703  10.572  12.892   6.450
 6718POPC   D2A44704  10.542  12.857   6.750
 6718POPC   C3A44705  10.559  12.874   7.050
 6718POPC   C4A44706  10.558  12.887   7.350
 6718POPC   C1B44707  10.253  12.777   6.450
 6718POPC   C2B44708  10.245  12.797   6.750
 6718POPC   C3B44709  10.237  12.769   7.050
 6718POPC   C4B44710  10.270  12.837   7.350
 6719POPC   NC344711  35.330  26.041   5.550
 6719POPC   PO444712  35.371  25.993   5.850
 6719POPC   GL144713  35.390  26.052   6.150
 6719POPC   GL244714  35.268  25.990   6.150
 6719POPC   C1A44715  35.319  26.072   6.450
 6719POPC   D2A44716  35.355  26.065   6.750
 6719POPC   C3A44717  35.337  26.090   7.050
 6719POPC   C4A44718  35.355  25.997   7.350
 6719POPC   C1B44719  35.184  25.856   6.450
 6719POPC   C2B44720  35.164  25.874   6.750
 6719POPC   C3B44721  35.141  25.882   7.050
 6719POPC   C4B44722  35.181  25.858   7.350
 6720POPC   NC344723  43.871  36.155   5.550
 6720POPC   PO444724  43.841  36.136   5.850
 6720POPC   GL144725  43.914  36.160   6.150
 6720POPC   GL244726  43.855  36.229   6.150
 6720POPC   C1A44727  43.899  36.139   6.450
 6720POPC   D2A44728  43.897  36.151   6.750
 6720POPC   C3A44729  43.933  36.117   7.050
 6720POPC   C4A44730  43.898  36.148   7.350
 6720POPC   C1B44731  43.853  36.381   6.450
 6720POPC   C2B44732  43.876  36.409   6.750
 6720POPC   C3B44733  43.812  36.369   7.050
 6720POPC   C4B44734  43.872  36.349   7.350
 6721POPC   NC344735  12.879   2.751   5.550
 6721POPC   PO444736  12.817   2.812   5.850
 6721POPC   GL144737  12.893   2.759   6.150
 6721POPC   GL244738  12.743   2.766   6.150
 6721POPC   C1A44739  12.857   2.775   6.450
 6721POPC   D2A44740  12.815   2.785   6.750
 6721POPC   C3A44741  12.894   2.787   7.050
 6721POPC   C4A44742  12.898   2.810   7.350
 6721POPC   C1B44743  12.617   2.739   6.450
 6721POPC   C2B44744  12.559   2.694   6.750
 6721POPC   C3B44745  12.581   2.772   7.050
 6721POPC   C4B44746  12.570   2.722   7.350
 6722POPC   NC344747  12.899  35.362   5.550
 6722POPC   PO444748  12.809  35.347   5.850
 6722POPC   GL144749  12.868  35.368   6.150
 6722POPC   GL244750  12.896  35.228   6.150
 6722POPC   C1A44751  12.825  35.389   6.450
 6722POPC   D2A44752  12.858  35.305   6.750
 6722POPC   C3A44753  12.900  35.312   7.050
 6722POPC   C4A44754  12.877  35.377   7.350
 6722POPC   C1B44755  13.021  35.213   6.450
 6722POPC   C2B44756  13.001  35.146   6.750
 6722POPC   C3B44757  13.035  35.187   7.050
 6722POPC   C4B44758  13.044  35.142   7.350
 6723POPC   NC344759   9.738   5.105   5.550
 6723POPC   PO444760   9.719   5.074   5.850
 6723POPC   GL144761   9.703   5.095   6.150
 6723POPC   GL244762   9.823   5.132   6.150
 6723POPC   C1A44763   9.783   5.077   6.450
 6723POPC   D2A44764   9.747   5.072   6.750
 6723POPC   C3A44765   9.797   5.119   7.050
 6723POPC   C4A44766   9.730   5.125   7.350
 6723POPC   C1B44767  10.004   5.114   6.450
 6723POPC   C2B44768  10.030   5.107   6.750
 6723POPC   C3B44769  10.016   5.100   7.050
 6723POPC   C4B44770   9.969   5.168   7.350
 6724POPC   NC344771  15.910   5.882   5.550
 6724POPC   PO444772  15.989   5.906   5.850
 6724POPC   GL144773  15.972   5.860   6.150
 6724POPC   GL244774  15.937   5.994   6.150
 6724POPC   C1A44775  15.939   5.901   6.450
 6724POPC   D2A44776  15.993   5.845   6.750
 6724POPC   C3A44777  15.922   5.832   7.050
 6724POPC   C4A44778  15.956   5.874   7.350
 6724POPC   C1B44779  15.889   6.075   6.450
 6724POPC   C2B44780  15.888   6.090   6.750
 6724POPC   C3B44781  15.818   6.135   7.050
 6724POPC   C4B44782  15.819   6.052   7.350
 6725POPC   NC344783  27.600  37.632   5.550
 6725POPC   PO444784  27.551  37.692   5.850
 6725POPC   GL144785  27.567  37.669   6.150
 6725POPC   GL244786  27.581  37.763   6.150
 6725POPC   C1A44787  27.638  37.649   6.450
 6725POPC   D2A44788  27.577  37.669   6.750
 6725POPC   C3A44789  27.616  37.668   7.050
 6725POPC   C4A44790  27.640  37.681   7.350
 6725POPC   C1B44791  27.512  37.891   6.450
 6725POPC   C2B44792  27.522  37.877   6.750
 6725POPC   C3B44793  27.542  37.940   7.050
 6725POPC   C4B44794  27.517  37.871   7.350
 6726POPC   NC344795  13.631  22.945   5.550
 6726POPC   PO444796  13.661  22.902   5.850
 6726POPC   GL144797  13.650  22.902   6.150
 6726POPC   GL244798  13.489  22.965   6.150
 6726POPC   C1A44799  13.625  22.979   6.450
 6726POPC   D2A44800  13.588  22.963   6.750
 6726POPC   C3A44801  13.676  22.967   7.050
 6726POPC   C4A44802  13.615  22.913   7.350
 6726POPC   C1B44803  13.435  23.059   6.450
 6726POPC   C2B44804  13.366  23.050   6.750
 6726POPC   C3B44805  13.351  23.039   7.050
 6726POPC   C4B44806  13.393  22.990   7.350
 6727POPC   NC344807  29.910  17.499   5.550
 6727POPC   PO444808  29.918  17.508   5.850
 6727POPC   GL144809  29.921  17.512   6.150
 6727POPC   GL244810  29.938  17.653   6.150
 6727POPC   C1A44811  29.903  17.550   6.450
 6727POPC   D2A44812  29.927  17.553   6.750
 6727POPC   C3A44813  29.937  17.467   7.050
 6727POPC   C4A44814  29.920  17.468   7.350
 6727POPC   C1B44815  29.982  17.788   6.450
 6727POPC   C2B44816  29.955  17.756   6.750
 6727POPC   C3B44817  29.982  17.781   7.050
 6727POPC   C4B44818  30.001  17.751   7.350
 6728POPC   NC344819  31.455  33.847   5.550
 6728POPC   PO444820  31.426  33.786   5.850
 6728POPC   GL144821  31.439  33.760   6.150
 6728POPC   GL244822  31.446  33.637   6.150
 6728POPC   C1A44823  31.522  33.805   6.450
 6728POPC   D2A44824  31.450  33.766   6.750
 6728POPC   C3A44825  31.474  33.806   7.050
 6728POPC   C4A44826  31.493  33.825   7.350
 6728POPC   C1B44827  31.511  33.534   6.450
 6728POPC   C2B44828  31.440  33.593   6.750
 6728POPC   C3B44829  31.457  33.505   7.050
 6728POPC   C4B44830  31.486  33.581   7.350
 6729POPC   NC344831  13.622  29.922   5.550
 6729POPC   PO444832  13.614  29.963   5.850
 6729POPC   GL144833  13.672  29.928   6.150
 6729POPC   GL244834  13.490  30.040   6.150
 6729POPC   C1A44835  13.621  29.932   6.450
 6729POPC   D2A44836  13.661  29.907   6.750
 6729POPC   C3A44837  13.618  29.886   7.050
 6729POPC   C4A44838  13.667  29.920   7.350
 6729POPC   C1B44839  13.424  30.094   6.450
 6729POPC   C2B44840  13.480  30.120   6.750
 6729POPC   C3B44841  13.438  30.046   7.050
 6729POPC   C4B44842  13.476  30.044   7.350
 6730POPC   NC344843  32.227   4.346   5.550
 6730POPC   PO444844  32.273   4.293   5.850
 6730POPC   GL144845  32.226   4.311   6.150
 6730POPC   GL244846  32.163   4.276   6.150
 6730POPC   C1A44847  32.224   4.317   6.450
 6730POPC   D2A44848  32.283   4.294   6.750
 6730POPC   C3A44849  32.222   4.314   7.050
 6730POPC   C4A44850  32.246   4.305   7.350
 6730POPC   C1B44851  32.021   4.198   6.450
 6730POPC   C2B44852  31.970   4.248   6.750
 6730POPC   C3B44853  32.000   4.243   7.050
 6730POPC   C4B44854  31.992   4.219   7.350
 6731POPC   NC344855  19.095  16.735   5.550
 6731POPC   PO444856  19.107  16.769   5.850
 6731POPC   GL144857  19.088  16.754   6.150
 6731POPC   GL244858  19.206  16.627   6.150
 6731POPC   C1A44859  19.073  16.753   6.450
 6731POPC   D2A44860  19.106  16.706   6.750
 6731POPC   C3A44861  19.021  16.722   7.050
 6731POPC   C4A44862  19.095  16.773   7.350
 6731POPC   C1B44863  19.317  16.645   6.450
 6731POPC   C2B44864  19.319  16.639   6.750
 6731POPC   C3B44865  19.292  16.660   7.050
 6731POPC   C4B44866  19.242  16.616   7.350
 6732POPC   NC344867  23.698  30.734   5.550
 6732POPC   PO444868  23.673  30.653   5.850
 6732POPC   GL144869  23.705  30.692   6.150
 6732POPC   GL244870  23.582  30.647   6.150
 6732POPC   C1A44871  23.677  30.652   6.450
 6732POPC   D2A44872  23.698  30.657   6.750
 6732POPC   C3A44873  23.734  30.729   7.050
 6732POPC   C4A44874  23.682  30.686   7.350
 6732POPC   C1B44875  23.504  30.625   6.450
 6732POPC   C2B44876  23.476  30.689   6.750
 6732POPC   C3B44877  23.488  30.615   7.050
 6732POPC   C4B44878  23.458  30.605   7.350
 6733POPC   NC344879  12.114  10.545   5.550
 6733POPC   PO444880  12.070  10.494   5.850
 6733POPC   GL144881  12.076  10.533   6.150
 6733POPC   GL244882  12.074  10.653   6.150
 6733POPC   C1A44883  12.058  10.496   6.450
 6733POPC   D2A44884  12.066  10.498   6.750
 6733POPC   C3A44885  12.067  10.531   7.050
 6733POPC   C4A44886  12.058  10.510   7.350
 6733POPC   C1B44887  11.974  10.735   6.450
 6733POPC   C2B44888  11.992  10.758   6.750
 6733POPC   C3B44889  11.989  10.758   7.050
 6733POPC   C4B44890  11.985  10.800   7.350
 6734POPC   NC344891   9.759  14.387   5.550
 6734POPC   PO444892   9.756  14.450   5.850
 6734POPC   GL144893   9.775  14.405   6.150
 6734POPC   GL244894   9.850  14.369   6.150
 6734POPC   C1A44895   9.729  14.383   6.450
 6734POPC   D2A44896   9.763  14.391   6.750
 6734POPC   C3A44897   9.764  14.430   7.050
 6734POPC   C4A44898   9.720  14.382   7.350
 6734POPC   C1B44899   9.957  14.393   6.450
 6734POPC   C2B44900  10.032  14.372   6.750
 6734POPC   C3B44901  10.011  14.439   7.050
 6734POPC   C4B44902  10.018  14.347   7.350
 6735POPC   NC344903   6.602  29.908   5.550
 6735POPC   PO444904   6.686  29.925   5.850
 6735POPC   GL144905   6.606  29.888   6.150
 6735POPC   GL244906   6.701  29.817   6.150
 6735POPC   C1A44907   6.605  29.922   6.450
 6735POPC   D2A44908   6.597  29.939   6.750
 6735POPC   C3A44909   6.596  29.955   7.050
 6735POPC   C4A44910   6.659  29.912   7.350
 6735POPC   C1B44911   6.781  29.725   6.450
 6735POPC   C2B44912   6.787  29.739   6.750
 6735POPC   C3B44913   6.816  29.786   7.050
 6735POPC   C4B44914   6.824  29.744   7.350
 6736POPC   NC344915  32.257  36.898   5.550
 6736POPC   PO444916  32.287  36.914   5.850
 6736POPC   GL144917  32.278  36.879   6.150
 6736POPC   GL244918  32.417  36.950   6.150
 6736POPC   C1A44919  32.273  36.916   6.450
 6736POPC   D2A44920  32.211  36.926   6.750
 6736POPC   C3A44921  32.224  36.854   7.050
 6736POPC   C4A44922  32.294  36.872   7.350
 6736POPC   C1B44923  32.471  36.907   6.450
 6736POPC   C2B44924  32.506  36.866   6.750
 6736POPC   C3B44925  32.535  36.884   7.050
 6736POPC   C4B44926  32.519  36.882   7.350
 6737POPC   NC344927  43.852   9.789   5.550
 6737POPC   PO444928  43.838   9.705   5.850
 6737POPC   GL144929  43.873   9.781   6.150
 6737POPC   GL244930  43.748   9.722   6.150
 6737POPC   C1A44931  43.900   9.763   6.450
 6737POPC   D2A44932  43.884   9.735   6.750
 6737POPC   C3A44933  43.879   9.724   7.050
 6737POPC   C4A44934  43.892   9.746   7.350
 6737POPC   C1B44935  43.653   9.725   6.450
 6737POPC   C2B44936  43.676   9.732   6.750
 6737POPC   C3B44937  43.677   9.779   7.050
 6737POPC   C4B44938  43.602   9.726   7.350
 6738POPC   NC344939  17.528  21.359   5.550
 6738POPC   PO444940  17.459  21.379   5.850
 6738POPC   GL144941  17.476  21.426   6.150
 6738POPC   GL244942  17.643  21.394   6.150
 6738POPC   C1A44943  17.494  21.424   6.450
 6738POPC   D2A44944  17.516  21.357   6.750
 6738POPC   C3A44945  17.500  21.374   7.050
 6738POPC   C4A44946  17.519  21.353   7.350
 6738POPC   C1B44947  17.750  21.452   6.450
 6738POPC   C2B44948  17.711  21.416   6.750
 6738POPC   C3B44949  17.747  21.447   7.050
 6738POPC   C4B44950  17.756  21.426   7.350
 6739POPC   NC344951  36.176  33.820   5.550
 6739POPC   PO444952  36.125  33.796   5.850
 6739POPC   GL144953  36.137  33.778   6.150
 6739POPC   GL244954  36.210  33.750   6.150
 6739POPC   C1A44955  36.100  33.835   6.450
 6739POPC   D2A44956  36.086  33.842   6.750
 6739POPC   C3A44957  36.104  33.843   7.050
 6739POPC   C4A44958  36.142  33.816   7.350
 6739POPC   C1B44959  36.301  33.597   6.450
 6739POPC   C2B44960  36.343  33.629   6.750
 6739POPC   C3B44961  36.329  33.585   7.050
 6739POPC   C4B44962  36.359  33.611   7.350
 6740POPC   NC344963  33.038  15.189   5.550
 6740POPC   PO444964  33.073  15.172   5.850
 6740POPC   GL144965  32.978  15.137   6.150
 6740POPC   GL244966  33.058  15.006   6.150
 6740POPC   C1A44967  32.980  15.143   6.450
 6740POPC   D2A44968  33.029  15.176   6.750
 6740POPC   C3A44969  33.040  15.156   7.050
 6740POPC   C4A44970  33.034  15.194   7.350
 6740POPC   C1B44971  32.973  14.964   6.450
 6740POPC   C2B44972  33.006  14.895   6.750
 6740POPC   C3B44973  32.952  14.882   7.050
 6740POPC   C4B44974  33.022  14.959   7.350
 6741POPC   NC344975  36.895  21.394   5.550
 6741POPC   PO444976  36.880  21.419   5.850
 6741POPC   GL144977  36.927  21.356   6.150
 6741POPC   GL244978  36.990  21.500   6.150
 6741POPC   C1A44979  36.935  21.362   6.450
 6741POPC   D2A44980  36.858  21.404   6.750
 6741POPC   C3A44981  36.886  21.396   7.050
 6741POPC   C4A44982  36.939  21.357   7.350
 6741POPC   C1B44983  36.947  21.649   6.450
 6741POPC   C2B44984  36.993  21.618   6.750
 6741POPC   C3B44985  36.967  21.655   7.050
 6741POPC   C4B44986  36.972  21.614   7.350
 6742POPC   NC344987  29.139  30.745   5.550
 6742POPC   PO444988  29.194  30.725   5.850
 6742POPC   GL144989  29.116  30.662   6.150
 6742POPC   GL244990  29.139  30.586   6.150
 6742POPC   C1A44991  29.116  30.666   6.450
 6742POPC   D2A44992  29.165  30.744   6.750
 6742POPC   C3A44993  29.102  30.713   7.050
 6742POPC   C4A44994  29.118  30.739   7.350
 6742POPC   C1B44995  29.175  30.428   6.450
 6742POPC   C2B44996  29.164  30.443   6.750
 6742POPC   C3B44997  29.209  30.413   7.050
 6742POPC   C4B44998  29.141  30.407   7.350
 6743POPC   NC344999  30.659  33.068   5.550
 6743POPC   PO445000  30.717  33.001   5.850
 6743POPC   GL145001  30.706  33.040   6.150
 6743POPC   GL245002  30.692  32.932   6.150
 6743POPC   C1A45003  30.724  33.031   6.450
 6743POPC   D2A45004  30.735  33.043   6.750
 6743POPC   C3A45005  30.738  33.006   7.050
 6743POPC   C4A45006  30.680  32.979   7.350
 6743POPC   C1B45007  30.753  32.784   6.450
 6743POPC   C2B45008  30.789  32.822   6.750
 6743POPC   C3B45009  30.742  32.736   7.050
 6743POPC   C4B45010  30.757  32.786   7.350
 6744POPC   NC345011  14.434  43.120   5.550
 6744POPC   PO445012  14.368  43.142   5.850
 6744POPC   GL145013  14.452  43.070   6.150
 6744POPC   GL245014  14.270  43.106   6.150
 6744POPC   C1A45015  14.453  43.099   6.450
 6744POPC   D2A45016  14.381  43.083   6.750
 6744POPC   C3A45017  14.378  43.102   7.050
 6744POPC   C4A45018  14.451  43.107   7.350
 6744POPC   C1B45019  14.127  43.024   6.450
 6744POPC   C2B45020  14.160  42.976   6.750
 6744POPC   C3B45021  14.131  42.983   7.050
 6744POPC   C4B45022  14.126  42.976   7.350
 6745POPC   NC345023  22.180  34.577   5.550
 6745POPC   PO445024  22.134  34.564   5.850
 6745POPC   GL145025  22.135  34.557   6.150
 6745POPC   GL245026  22.238  34.578   6.150
 6745POPC   C1A45027  22.153  34.599   6.450
 6745POPC   D2A45028  22.149  34.555   6.750
 6745POPC   C3A45029  22.129  34.603   7.050
 6745POPC   C4A45030  22.171  34.558   7.350
 6745POPC   C1B45031  22.402  34.577   6.450
 6745POPC   C2B45032  22.370  34.537   6.750
 6745POPC   C3B45033  22.429  34.619   7.050
 6745POPC   C4B45034  22.435  34.547   7.350
 6746POPC   NC345035   1.204  42.313   5.550
 6746POPC   PO445036   1.175  42.379   5.850
 6746POPC   GL145037   1.229  42.333   6.150
 6746POPC   GL245038   1.125  42.437   6.150
 6746POPC   C1A45039   1.204  42.286   6.450
 6746POPC   D2A45040   1.221  42.310   6.750
 6746POPC   C3A45041   1.234  42.315   7.050
 6746POPC   C4A45042   1.217  42.319   7.350
 6746POPC   C1B45043   1.106  42.562   6.450
 6746POPC   C2B45044   1.152  42.547   6.750
 6746POPC   C3B45045   1.080  42.531   7.050
 6746POPC   C4B45046   1.096  42.584   7.350
 6747POPC   NC345047   6.669   6.662   5.550
 6747POPC   PO445048   6.642   6.619   5.850
 6747POPC   GL145049   6.637   6.670   6.150
 6747POPC   GL245050   6.701   6.745   6.150
 6747POPC   C1A45051   6.664   6.634   6.450
 6747POPC   D2A45052   6.661   6.663   6.750
 6747POPC   C3A45053   6.672   6.595   7.050
 6747POPC   C4A45054   6.651   6.618   7.350
 6747POPC   C1B45055   6.756   6.831   6.450
 6747POPC   C2B45056   6.709   6.920   6.750
 6747POPC   C3B45057   6.776   6.847   7.050
 6747POPC   C4B45058   6.761   6.859   7.350
 6748POPC   NC345059  30.661  33.823   5.550
 6748POPC   PO445060  30.660  33.841   5.850
 6748POPC   GL145061  30.722  33.816   6.150
 6748POPC   GL245062  30.746  33.890   6.150
 6748POPC   C1A45063  30.733  33.784   6.450
 6748POPC   D2A45064  30.654  33.846   6.750
 6748POPC   C3A45065  30.724  33.839   7.050
 6748POPC   C4A45066  30.659  33.768   7.350
 6748POPC   C1B45067  30.766  34.047   6.450
 6748POPC   C2B45068  30.846  33.997   6.750
 6748POPC   C3B45069  30.819  34.038   7.050
 6748POPC   C4B45070  30.806  33.981   7.350
 6749POPC   NC345071  36.113  23.762   5.550
 6749POPC   PO445072  36.178  23.728   5.850
 6749POPC   GL145073  36.088  23.693   6.150
 6749POPC   GL245074  36.149  23.856   6.150
 6749POPC   C1A45075  36.112  23.725   6.450
 6749POPC   D2A45076  36.166  23.733   6.750
 6749POPC   C3A45077  36.131  23.666   7.050
 6749POPC   C4A45078  36.148  23.698   7.350
 6749POPC   C1B45079  36.071  23.948   6.450
 6749POPC   C2B45080  36.050  23.968   6.750
 6749POPC   C3B45081  36.103  24.009   7.050
 6749POPC   C4B45082  36.119  23.962   7.350
 6750POPC   NC345083   0.456  16.716   5.550
 6750POPC   PO445084   0.467  16.748   5.850
 6750POPC   GL145085   0.416  16.753   6.150
 6750POPC   GL245086   0.356  16.861   6.150
 6750POPC   C1A45087   0.393  16.761   6.450
 6750POPC   D2A45088   0.448  16.711   6.750
 6750POPC   C3A45089   0.411  16.749   7.050
 6750POPC   C4A45090   0.455  16.767   7.350
 6750POPC   C1B45091   0.321  16.899   6.450
 6750POPC   C2B45092   0.289  16.879   6.750
 6750POPC   C3B45093   0.259  16.922   7.050
 6750POPC   C4B45094   0.322  16.925   7.350
 6751POPC   NC345095  13.633  31.477   5.550
 6751POPC   PO445096  13.670  31.447   5.850
 6751POPC   GL145097  13.631  31.464   6.150
 6751POPC   GL245098  13.521  31.393   6.150
 6751POPC   C1A45099  13.634  31.514   6.450
 6751POPC   D2A45100  13.618  31.461   6.750
 6751POPC   C3A45101  13.587  31.466   7.050
 6751POPC   C4A45102  13.623  31.430   7.350
 6751POPC   C1B45103  13.457  31.261   6.450
 6751POPC   C2B45104  13.470  31.280   6.750
 6751POPC   C3B45105  13.462  31.270   7.050
 6751POPC   C4B45106  13.463  31.300   7.350
 6752POPC   NC345107  31.448  34.583   5.550
 6752POPC   PO445108  31.461  34.552   5.850
 6752POPC   GL145109  31.464  34.566   6.150
 6752POPC   GL245110  31.608  34.686   6.150
 6752POPC   C1A45111  31.474  34.586   6.450
 6752POPC   D2A45112  31.469  34.583   6.750
 6752POPC   C3A45113  31.519  34.560   7.050
 6752POPC   C4A45114  31.441  34.566   7.350
 6752POPC   C1B45115  31.699  34.761   6.450
 6752POPC   C2B45116  31.720  34.760   6.750
 6752POPC   C3B45117  31.701  34.686   7.050
 6752POPC   C4B45118  31.665  34.748   7.350
 6753POPC   NC345119   1.244  26.073   5.550
 6753POPC   PO445120   1.173  26.029   5.850
 6753POPC   GL145121   1.255  26.091   6.150
 6753POPC   GL245122   1.054  26.066   6.150
 6753POPC   C1A45123   1.168  26.031   6.450
 6753POPC   D2A45124   1.259  26.048   6.750
 6753POPC   C3A45125   1.167  26.089   7.050
 6753POPC   C4A45126   1.232  26.022   7.350
 6753POPC   C1B45127   0.942  26.129   6.450
 6753POPC   C2B45128   1.033  26.136   6.750
 6753POPC   C3B45129   1.003  26.172   7.050
 6753POPC   C4B45130   0.978  26.106   7.350
 6754POPC   NC345131  15.194  22.139   5.550
 6754POPC   PO445132  15.168  22.141   5.850
 6754POPC   GL145133  15.148  22.121   6.150
 6754POPC   GL245134  15.249  22.062   6.150
 6754POPC   C1A45135  15.136  22.173   6.450
 6754POPC   D2A45136  15.151  22.140   6.750
 6754POPC   C3A45137  15.151  22.115   7.050
 6754POPC   C4A45138  15.178  22.137   7.350
 6754POPC   C1B45139  15.295  21.962   6.450
 6754POPC   C2B45140  15.298  21.944   6.750
 6754POPC   C3B45141  15.340  21.969   7.050
 6754POPC   C4B45142  15.266  21.906   7.350
 6755POPC   NC345143  18.316   6.633   5.550
 6755POPC   PO445144  18.280   6.633   5.850
 6755POPC   GL145145  18.296   6.689   6.150
 6755POPC   GL245146  18.409   6.709   6.150
 6755POPC   C1A45147  18.315   6.636   6.450
 6755POPC   D2A45148  18.272   6.679   6.750
 6755POPC   C3A45149  18.310   6.612   7.050
 6755POPC   C4A45150  18.264   6.687   7.350
 6755POPC   C1B45151  18.465   6.773   6.450
 6755POPC   C2B45152  18.527   6.763   6.750
 6755POPC   C3B45153  18.445   6.779   7.050
 6755POPC   C4B45154  18.508   6.802   7.350
 6756POPC   NC345155  43.872  10.559   5.550
 6756POPC   PO445156  43.933  10.535   5.850
 6756POPC   GL145157  43.904  10.545   6.150
 6756POPC   GL245158  43.745  10.643   6.150
 6756POPC   C1A45159  43.885  10.507   6.450
 6756POPC   D2A45160  43.877  10.574   6.750
 6756POPC   C3A45161  43.845  10.570   7.050
 6756POPC   C4A45162  43.850  10.529   7.350
 6756POPC   C1B45163  43.728  10.722   6.450
 6756POPC   C2B45164  43.739  10.712   6.750
 6756POPC   C3B45165  43.735  10.724   7.050
 6756POPC   C4B45166  43.689  10.692   7.350
 6757POPC   NC345167  36.878  25.263   5.550
 6757POPC   PO445168  36.949  25.284   5.850
 6757POPC   GL145169  36.934  25.281   6.150
 6757POPC   GL245170  36.979  25.392   6.150
 6757POPC   C1A45171  36.859  25.308   6.450
 6757POPC   D2A45172  36.953  25.289   6.750
 6757POPC   C3A45173  36.946  25.222   7.050
 6757POPC   C4A45174  36.884  25.225   7.350
 6757POPC   C1B45175  36.983  25.443   6.450
 6757POPC   C2B45176  36.976  25.505   6.750
 6757POPC   C3B45177  37.021  25.511   7.050
 6757POPC   C4B45178  36.992  25.451   7.350
 6758POPC   NC345179  32.228  43.156   5.550
 6758POPC   PO445180  32.218  43.084   5.850
 6758POPC   GL145181  32.280  43.115   6.150
 6758POPC   GL245182  32.210  42.962   6.150
 6758POPC   C1A45183  32.217  43.146   6.450
 6758POPC   D2A45184  32.298  43.152   6.750
 6758POPC   C3A45185  32.235  43.135   7.050
 6758POPC   C4A45186  32.230  43.149   7.350
 6758POPC   C1B45187  32.215  42.907   6.450
 6758POPC   C2B45188  32.235  42.904   6.750
 6758POPC   C3B45189  32.217  42.890   7.050
 6758POPC   C4B45190  32.228  42.811   7.350
 6759POPC   NC345191   2.741  32.260   5.550
 6759POPC   PO445192   2.799  32.210   5.850
 6759POPC   GL145193   2.779  32.234   6.150
 6759POPC   GL245194   2.907  32.326   6.150
 6759POPC   C1A45195   2.806  32.230   6.450
 6759POPC   D2A45196   2.809  32.202   6.750
 6759POPC   C3A45197   2.716  32.289   7.050
 6759POPC   C4A45198   2.792  32.261   7.350
 6759POPC   C1B45199   3.022  32.383   6.450
 6759POPC   C2B45200   2.965  32.389   6.750
 6759POPC   C3B45201   3.013  32.346   7.050
 6759POPC   C4B45202   2.972  32.382   7.350
 6760POPC   NC345203  27.613  44.645   5.550
 6760POPC   PO445204  27.617  44.613   5.850
 6760POPC   GL145205  27.582  44.710   6.150
 6760POPC   GL245206  27.489  44.629   6.150
 6760POPC   C1A45207  27.639  44.657   6.450
 6760POPC   D2A45208  27.612  44.616   6.750
 6760POPC   C3A45209  27.584  44.645   7.050
 6760POPC   C4A45210  27.598  44.692   7.350
 6760POPC   C1B45211  27.373  44.565   6.450
 6760POPC   C2B45212  27.323  44.553   6.750
 6760POPC   C3B45213  27.359  44.554   7.050
 6760POPC   C4B45214  27.353  44.542   7.350
 6761POPC   NC345215  40.812  21.433   5.550
 6761POPC   PO445216  40.820  21.383   5.850
 6761POPC   GL145217  40.757  21.374   6.150
 6761POPC   GL245218  40.914  21.381   6.150
 6761POPC   C1A45219  40.748  21.398   6.450
 6761POPC   D2A45220  40.767  21.360   6.750
 6761POPC   C3A45221  40.756  21.386   7.050
 6761POPC   C4A45222  40.806  21.337   7.350
 6761POPC   C1B45223  41.024  21.333   6.450
 6761POPC   C2B45224  40.981  21.277   6.750
 6761POPC   C3B45225  41.026  21.336   7.050
 6761POPC   C4B45226  41.033  21.366   7.350
 6762POPC   NC345227   1.982  15.997   5.550
 6762POPC   PO445228   2.025  15.978   5.850
 6762POPC   GL145229   1.944  15.926   6.150
 6762POPC   GL245230   1.981  15.782   6.150
 6762POPC   C1A45231   1.978  15.909   6.450
 6762POPC   D2A45232   2.022  15.995   6.750
 6762POPC   C3A45233   2.016  15.986   7.050
 6762POPC   C4A45234   1.989  15.994   7.350
 6762POPC   C1B45235   1.992  15.677   6.450
 6762POPC   C2B45236   2.054  15.757   6.750
 6762POPC   C3B45237   2.034  15.695   7.050
 6762POPC   C4B45238   2.033  15.685   7.350
 6763POPC   NC345239  22.112  24.482   5.550
 6763POPC   PO445240  22.157  24.498   5.850
 6763POPC   GL145241  22.118  24.518   6.150
 6763POPC   GL245242  22.088  24.568   6.150
 6763POPC   C1A45243  22.138  24.503   6.450
 6763POPC   D2A45244  22.178  24.498   6.750
 6763POPC   C3A45245  22.125  24.443   7.050
 6763POPC   C4A45246  22.209  24.494   7.350
 6763POPC   C1B45247  22.085  24.745   6.450
 6763POPC   C2B45248  22.052  24.764   6.750
 6763POPC   C3B45249  22.071  24.704   7.050
 6763POPC   C4B45250  22.086  24.733   7.350
 6764POPC   NC345251   6.639   8.193   5.550
 6764POPC   PO445252   6.616   8.237   5.850
 6764POPC   GL145253   6.672   8.212   6.150
 6764POPC   GL245254   6.703   8.365   6.150
 6764POPC   C1A45255   6.640   8.234   6.450
 6764POPC   D2A45256   6.605   8.179   6.750
 6764POPC   C3A45257   6.624   8.214   7.050
 6764POPC   C4A45258   6.692   8.226   7.350
 6764POPC   C1B45259   6.621   8.442   6.450
 6764POPC   C2B45260   6.626   8.471   6.750
 6764POPC   C3B45261   6.711   8.447   7.050
 6764POPC   C4B45262   6.688   8.403   7.350
 6765POPC   NC345263   8.994   8.176   5.550
 6765POPC   PO445264   9.017   8.199   5.850
 6765POPC   GL145265   8.942   8.199   6.150
 6765POPC   GL245266   8.877   8.100   6.150
 6765POPC   C1A45267   8.963   8.200   6.450
 6765POPC   D2A45268   8.993   8.152   6.750
 6765POPC   C3A45269   8.976   8.158   7.050
 6765POPC   C4A45270   8.982   8.194   7.350
 6765POPC   C1B45271   8.710   8.067   6.450
 6765POPC   C2B45272   8.722   8.083   6.750
 6765POPC   C3B45273   8.756   8.086   7.050
 6765POPC   C4B45274   8.705   8.095   7.350
 6766POPC   NC345275  43.854   5.071   5.550
 6766POPC   PO445276  43.874   5.141   5.850
 6766POPC   GL145277  43.856   5.055   6.150
 6766POPC   GL245278  43.777   5.129   6.150
 6766POPC   C1A45279  43.874   5.095   6.450
 6766POPC   D2A45280  43.911   5.073   6.750
 6766POPC   C3A45281  43.886   5.051   7.050
 6766POPC   C4A45282  43.852   5.109   7.350
 6766POPC   C1B45283  43.671   5.259   6.450
 6766POPC   C2B45284  43.707   5.222   6.750
 6766POPC   C3B45285  43.722   5.224   7.050
 6766POPC   C4B45286  43.634   5.272   7.350
 6767POPC   NC345287  11.293   3.586   5.550
 6767POPC   PO445288  11.286   3.536   5.850
 6767POPC   GL145289  11.263   3.518   6.150
 6767POPC   GL245290  11.194   3.525   6.150
 6767POPC   C1A45291  11.330   3.527   6.450
 6767POPC   D2A45292  11.296   3.521   6.750
 6767POPC   C3A45293  11.337   3.585   7.050
 6767POPC   C4A45294  11.275   3.577   7.350
 6767POPC   C1B45295  11.043   3.413   6.450
 6767POPC   C2B45296  11.027   3.466   6.750
 6767POPC   C3B45297  11.053   3.415   7.050
 6767POPC   C4B45298  11.032   3.492   7.350
 6768POPC   NC345299  27.610   9.013   5.550
 6768POPC   PO445300  27.567   8.992   5.850
 6768POPC   GL145301  27.584   8.989   6.150
 6768POPC   GL245302  27.766   8.975   6.150
 6768POPC   C1A45303  27.640   9.012   6.450
 6768POPC   D2A45304  27.592   8.950   6.750
 6768POPC   C3A45305  27.545   8.983   7.050
 6768POPC   C4A45306  27.587   8.948   7.350
 6768POPC   C1B45307  27.829   8.931   6.450
 6768POPC   C2B45308  27.799   8.923   6.750
 6768POPC   C3B45309  27.872   8.937   7.050
 6768POPC   C4B45310  27.877   8.891   7.350
 6769POPC   NC345311  23.722  36.163   5.550
 6769POPC   PO445312  23.676  36.167   5.850
 6769POPC   GL145313  23.732  36.152   6.150
 6769POPC   GL245314  23.625  36.157   6.150
 6769POPC   C1A45315  23.687  36.151   6.450
 6769POPC   D2A45316  23.673  36.166   6.750
 6769POPC   C3A45317  23.686  36.104   7.050
 6769POPC   C4A45318  23.754  36.124   7.350
 6769POPC   C1B45319  23.441  36.127   6.450
 6769POPC   C2B45320  23.469  36.208   6.750
 6769POPC   C3B45321  23.512  36.143   7.050
 6769POPC   C4B45322  23.495  36.162   7.350
 6770POPC   NC345323   8.223  42.370   5.550
 6770POPC   PO445324   8.185  42.353   5.850
 6770POPC   GL145325   8.157  42.364   6.150
 6770POPC   GL245326   8.158  42.419   6.150
 6770POPC   C1A45327   8.232  42.291   6.450
 6770POPC   D2A45328   8.160  42.313   6.750
 6770POPC   C3A45329   8.188  42.354   7.050
 6770POPC   C4A45330   8.210  42.344   7.350
 6770POPC   C1B45331   8.118  42.547   6.450
 6770POPC   C2B45332   8.052  42.600   6.750
 6770POPC   C3B45333   8.132  42.527   7.050
 6770POPC   C4B45334   8.066  42.583   7.350
 6771POPC   NC345335  31.442  15.207   5.550
 6771POPC   PO445336  31.436  15.172   5.850
 6771POPC   GL145337  31.483  15.157   6.150
 6771POPC   GL245338  31.627  15.148   6.150
 6771POPC   C1A45339  31.471  15.152   6.450
 6771POPC   D2A45340  31.509  15.166   6.750
 6771POPC   C3A45341  31.464  15.219   7.050
 6771POPC   C4A45342  31.445  15.201   7.350
 6771POPC   C1B45343  31.699  15.205   6.450
 6771POPC   C2B45344  31.749  15.202   6.750
 6771POPC   C3B45345  31.760  15.183   7.050
 6771POPC   C4B45346  31.731  15.211   7.350
 6772POPC   NC345347  26.839  44.659   5.550
 6772POPC   PO445348  26.851  44.643   5.850
 6772POPC   GL145349  26.794  44.680   6.150
 6772POPC   GL245350  26.878  44.576   6.150
 6772POPC   C1A45351  26.769  44.649   6.450
 6772POPC   D2A45352  26.799  44.637   6.750
 6772POPC   C3A45353  26.843  44.684   7.050
 6772POPC   C4A45354  26.794  44.623   7.350
 6772POPC   C1B45355  26.927  44.412   6.450
 6772POPC   C2B45356  26.917  44.416   6.750
 6772POPC   C3B45357  26.976  44.431   7.050
 6772POPC   C4B45358  26.907  44.416   7.350
 6773POPC   NC345359   1.180   0.395   5.550
 6773POPC   PO445360   1.213   0.399   5.850
 6773POPC   GL145361   1.169   0.423   6.150
 6773POPC   GL245362   1.134   0.308   6.150
 6773POPC   C1A45363   1.244   0.446   6.450
 6773POPC   D2A45364   1.249   0.436   6.750
 6773POPC   C3A45365   1.216   0.452   7.050
 6773POPC   C4A45366   1.254   0.403   7.350
 6773POPC   C1B45367   1.048   0.249   6.450
 6773POPC   C2B45368   1.024   0.272   6.750
 6773POPC   C3B45369   1.026   0.249   7.050
 6773POPC   C4B45370   1.040   0.284   7.350
 6774POPC   NC345371  23.761   8.968   5.550
 6774POPC   PO445372  23.725   8.926   5.850
 6774POPC   GL145373  23.690   8.997   6.150
 6774POPC   GL245374  23.622   9.084   6.150
 6774POPC   C1A45375  23.738   9.007   6.450
 6774POPC   D2A45376  23.721   8.932   6.750
 6774POPC   C3A45377  23.755   8.951   7.050
 6774POPC   C4A45378  23.685   9.009   7.350
 6774POPC   C1B45379  23.618   9.144   6.450
 6774POPC   C2B45380  23.567   9.227   6.750
 6774POPC   C3B45381  23.552   9.229   7.050
 6774POPC   C4B45382  23.559   9.148   7.350
 6775POPC   NC345383  12.056  25.235   5.550
 6775POPC   PO445384  12.096  25.312   5.850
 6775POPC   GL145385  12.049  25.283   6.150
 6775POPC   GL245386  12.123  25.377   6.150
 6775POPC   C1A45387  12.037  25.249   6.450
 6775POPC   D2A45388  12.123  25.306   6.750
 6775POPC   C3A45389  12.099  25.232   7.050
 6775POPC   C4A45390  12.039  25.265   7.350
 6775POPC   C1B45391  12.138  25.500   6.450
 6775POPC   C2B45392  12.154  25.486   6.750
 6775POPC   C3B45393  12.184  25.516   7.050
 6775POPC   C4B45394  12.147  25.461   7.350
 6776POPC   NC345395   0.450  11.341   5.550
 6776POPC   PO445396   0.440  11.284   5.850
 6776POPC   GL145397   0.438  11.300   6.150
 6776POPC   GL245398   0.536  11.330   6.150
 6776POPC   C1A45399   0.467  11.278   6.450
 6776POPC   D2A45400   0.392  11.267   6.750
 6776POPC   C3A45401   0.464  11.300   7.050
 6776POPC   C4A45402   0.433  11.346   7.350
 6776POPC   C1B45403   0.669  11.444   6.450
 6776POPC   C2B45404   0.639  11.430   6.750
 6776POPC   C3B45405   0.634  11.442   7.050
 6776POPC   C4B45406   0.622  11.378   7.350
 6777POPC   NC345407  10.495  37.671   5.550
 6777POPC   PO445408  10.521  37.686   5.850
 6777POPC   GL145409  10.570  37.673   6.150
 6777POPC   GL245410  10.670  37.578   6.150
 6777POPC   C1A45411  10.557  37.714   6.450
 6777POPC   D2A45412  10.492  37.667   6.750
 6777POPC   C3A45413  10.561  37.638   7.050
 6777POPC   C4A45414  10.531  37.718   7.350
 6777POPC   C1B45415  10.710  37.520   6.450
 6777POPC   C2B45416  10.697  37.505   6.750
 6777POPC   C3B45417  10.783  37.569   7.050
 6777POPC   C4B45418  10.756  37.527   7.350
 6778POPC   NC345419   9.716  11.311   5.550
 6778POPC   PO445420   9.771  11.331   5.850
 6778POPC   GL145421   9.745  11.308   6.150
 6778POPC   GL245422   9.716  11.363   6.150
 6778POPC   C1A45423   9.737  11.315   6.450
 6778POPC   D2A45424   9.788  11.250   6.750
 6778POPC   C3A45425   9.709  11.304   7.050
 6778POPC   C4A45426   9.752  11.309   7.350
 6778POPC   C1B45427   9.656  11.527   6.450
 6778POPC   C2B45428   9.653  11.509   6.750
 6778POPC   C3B45429   9.595  11.472   7.050
 6778POPC   C4B45430   9.630  11.530   7.350
 6779POPC   NC345431   1.991   1.172   5.550
 6779POPC   PO445432   2.036   1.215   5.850
 6779POPC   GL145433   2.003   1.249   6.150
 6779POPC   GL245434   1.989   1.058   6.150
 6779POPC   C1A45435   1.967   1.180   6.450
 6779POPC   D2A45436   1.959   1.197   6.750
 6779POPC   C3A45437   1.987   1.257   7.050
 6779POPC   C4A45438   2.040   1.228   7.350
 6779POPC   C1B45439   1.942   0.939   6.450
 6779POPC   C2B45440   1.878   0.999   6.750
 6779POPC   C3B45441   1.882   1.011   7.050
 6779POPC   C4B45442   1.879   0.951   7.350
 6780POPC   NC345443  31.447   9.008   5.550
 6780POPC   PO445444  31.507   8.999   5.850
 6780POPC   GL145445  31.490   9.020   6.150
 6780POPC   GL245446  31.579   9.032   6.150
 6780POPC   C1A45447  31.444   8.939   6.450
 6780POPC   D2A45448  31.454   9.004   6.750
 6780POPC   C3A45449  31.492   8.933   7.050
 6780POPC   C4A45450  31.496   8.999   7.350
 6780POPC   C1B45451  31.601   9.209   6.450
 6780POPC   C2B45452  31.570   9.222   6.750
 6780POPC   C3B45453  31.636   9.159   7.050
 6780POPC   C4B45454  31.585   9.135   7.350
 6781POPC   NC345455  12.054   5.850   5.550
 6781POPC   PO445456  12.035   5.831   5.850
 6781POPC   GL145457  12.123   5.887   6.150
 6781POPC   GL245458  12.182   5.872   6.150
 6781POPC   C1A45459  12.049   5.848   6.450
 6781POPC   D2A45460  12.097   5.910   6.750
 6781POPC   C3A45461  12.105   5.912   7.050
 6781POPC   C4A45462  12.088   5.850   7.350
 6781POPC   C1B45463  12.300   5.915   6.450
 6781POPC   C2B45464  12.287   5.910   6.750
 6781POPC   C3B45465  12.351   5.883   7.050
 6781POPC   C4B45466  12.371   5.903   7.350
 6782POPC   NC345467  33.002   3.591   5.550
 6782POPC   PO445468  33.015   3.508   5.850
 6782POPC   GL145469  33.021   3.544   6.150
 6782POPC   GL245470  33.092   3.625   6.150
 6782POPC   C1A45471  32.979   3.557   6.450
 6782POPC   D2A45472  33.003   3.512   6.750
 6782POPC   C3A45473  33.037   3.548   7.050
 6782POPC   C4A45474  33.005   3.563   7.350
 6782POPC   C1B45475  33.287   3.700   6.450
 6782POPC   C2B45476  33.230   3.622   6.750
 6782POPC   C3B45477  33.219   3.655   7.050
 6782POPC   C4B45478  33.271   3.665   7.350
 6783POPC   NC345479   9.763  32.239   5.550
 6783POPC   PO445480   9.741  32.264   5.850
 6783POPC   GL145481   9.706  32.237   6.150
 6783POPC   GL245482   9.719  32.404   6.150
 6783POPC   C1A45483   9.760  32.261   6.450
 6783POPC   D2A45484   9.756  32.259   6.750
 6783POPC   C3A45485   9.700  32.297   7.050
 6783POPC   C4A45486   9.725  32.255   7.350
 6783POPC   C1B45487   9.716  32.475   6.450
 6783POPC   C2B45488   9.723  32.531   6.750
 6783POPC   C3B45489   9.711  32.475   7.050
 6783POPC   C4B45490   9.667  32.473   7.350
 6784POPC   NC345491  26.000  29.155   5.550
 6784POPC   PO445492  26.063  29.160   5.850
 6784POPC   GL145493  26.011  29.126   6.150
 6784POPC   GL245494  25.971  29.082   6.150
 6784POPC   C1A45495  26.079  29.163   6.450
 6784POPC   D2A45496  26.063  29.137   6.750
 6784POPC   C3A45497  26.049  29.183   7.050
 6784POPC   C4A45498  26.064  29.101   7.350
 6784POPC   C1B45499  25.869  29.059   6.450
 6784POPC   C2B45500  25.806  28.980   6.750
 6784POPC   C3B45501  25.874  28.988   7.050
 6784POPC   C4B45502  25.827  29.016   7.350
 6785POPC   NC345503  42.347  43.846   5.550
 6785POPC   PO445504  42.299  43.901   5.850
 6785POPC   GL145505  42.314  43.908   6.150
 6785POPC   GL245506  42.410  43.988   6.150
 6785POPC   C1A45507  42.366  43.885   6.450
 6785POPC   D2A45508  42.295  43.890   6.750
 6785POPC   C3A45509  42.344  43.846   7.050
 6785POPC   C4A45510  42.342  43.865   7.350
 6785POPC   C1B45511  42.559  43.948   6.450
 6785POPC   C2B45512  42.594  44.013   6.750
 6785POPC   C3B45513  42.593  43.975   7.050
 6785POPC   C4B45514  42.581  44.005   7.350
 6786POPC   NC345515  13.651   8.983   5.550
 6786POPC   PO445516  13.667   9.003   5.850
 6786POPC   GL145517  13.677   8.936   6.150
 6786POPC   GL245518  13.755   8.926   6.150
 6786POPC   C1A45519  13.609   8.944   6.450
 6786POPC   D2A45520  13.656   8.958   6.750
 6786POPC   C3A45521  13.599   9.007   7.050
 6786POPC   C4A45522  13.624   8.990   7.350
 6786POPC   C1B45523  13.812   8.770   6.450
 6786POPC   C2B45524  13.838   8.840   6.750
 6786POPC   C3B45525  13.819   8.767   7.050
 6786POPC   C4B45526  13.789   8.783   7.350
 6787POPC   NC345527  16.724   9.747   5.550
 6787POPC   PO445528  16.718   9.736   5.850
 6787POPC   GL145529  16.763   9.746   6.150
 6787POPC   GL245530  16.837   9.798   6.150
 6787POPC   C1A45531  16.731   9.711   6.450
 6787POPC   D2A45532  16.726   9.722   6.750
 6787POPC   C3A45533  16.734   9.776   7.050
 6787POPC   C4A45534  16.764   9.791   7.350
 6787POPC   C1B45535  16.923   9.943   6.450
 6787POPC   C2B45536  16.894   9.887   6.750
 6787POPC   C3B45537  16.913   9.964   7.050
 6787POPC   C4B45538  16.929   9.893   7.350
 6788POPC   NC345539  12.898  39.210   5.550
 6788POPC   PO445540  12.878  39.190   5.850
 6788POPC   GL145541  12.884  39.249   6.150
 6788POPC   GL245542  12.869  39.136   6.150
 6788POPC   C1A45543  12.819  39.245   6.450
 6788POPC   D2A45544  12.869  39.251   6.750
 6788POPC   C3A45545  12.817  39.272   7.050
 6788POPC   C4A45546  12.833  39.272   7.350
 6788POPC   C1B45547  12.854  38.966   6.450
 6788POPC   C2B45548  12.850  38.994   6.750
 6788POPC   C3B45549  12.910  38.982   7.050
 6788POPC   C4B45550  12.838  38.986   7.350
 6789POPC   NC345551  44.617  26.049   5.550
 6789POPC   PO445552  44.631  26.027   5.850
 6789POPC   GL145553  44.708  26.074   6.150
 6789POPC   GL245554  44.741  25.957   6.150
 6789POPC   C1A45555  44.665  25.993   6.450
 6789POPC   D2A45556  44.617  26.061   6.750
 6789POPC   C3A45557  44.659  26.041   7.050
 6789POPC   C4A45558  44.696  26.091   7.350
 6789POPC   C1B45559  44.836  25.868   6.450
 6789POPC   C2B45560  44.829  25.885   6.750
 6789POPC   C3B45561  44.842  25.877   7.050
 6789POPC   C4B45562  44.834  25.885   7.350
 6790POPC   NC345563  12.873  37.642   5.550
 6790POPC   PO445564  12.897  37.694   5.850
 6790POPC   GL145565  12.890  37.629   6.150
 6790POPC   GL245566  12.803  37.538   6.150
 6790POPC   C1A45567  12.814  37.634   6.450
 6790POPC   D2A45568  12.852  37.677   6.750
 6790POPC   C3A45569  12.869  37.698   7.050
 6790POPC   C4A45570  12.882  37.650   7.350
 6790POPC   C1B45571  12.735  37.459   6.450
 6790POPC   C2B45572  12.641  37.455   6.750
 6790POPC   C3B45573  12.674  37.490   7.050
 6790POPC   C4B45574  12.676  37.530   7.350
 6791POPC   NC345575  40.793  11.341   5.550
 6791POPC   PO445576  40.761  11.317   5.850
 6791POPC   GL145577  40.825  11.253   6.150
 6791POPC   GL245578  40.808  11.397   6.150
 6791POPC   C1A45579  40.737  11.327   6.450
 6791POPC   D2A45580  40.806  11.285   6.750
 6791POPC   C3A45581  40.778  11.282   7.050
 6791POPC   C4A45582  40.789  11.331   7.350
 6791POPC   C1B45583  40.835  11.598   6.450
 6791POPC   C2B45584  40.838  11.523   6.750
 6791POPC   C3B45585  40.799  11.562   7.050
 6791POPC   C4B45586  40.775  11.537   7.350
 6792POPC   NC345587  28.321  19.024   5.550
 6792POPC   PO445588  28.347  19.099   5.850
 6792POPC   GL145589  28.368  19.034   6.150
 6792POPC   GL245590  28.277  19.037   6.150
 6792POPC   C1A45591  28.368  19.018   6.450
 6792POPC   D2A45592  28.382  19.049   6.750
 6792POPC   C3A45593  28.393  19.072   7.050
 6792POPC   C4A45594  28.407  19.061   7.350
 6792POPC   C1B45595  28.105  18.948   6.450
 6792POPC   C2B45596  28.136  18.939   6.750
 6792POPC   C3B45597  28.174  18.947   7.050
 6792POPC   C4B45598  28.127  19.008   7.350
 6793POPC   NC345599   2.008  42.367   5.550
 6793POPC   PO445600   2.003  42.332   5.850
 6793POPC   GL145601   2.027  42.363   6.150
 6793POPC   GL245602   2.134  42.255   6.150
 6793POPC   C1A45603   2.024  42.345   6.450
 6793POPC   D2A45604   1.963  42.372   6.750
 6793POPC   C3A45605   1.948  42.295   7.050
 6793POPC   C4A45606   1.983  42.346   7.350
 6793POPC   C1B45607   2.203  42.152   6.450
 6793POPC   C2B45608   2.236  42.179   6.750
 6793POPC   C3B45609   2.210  42.206   7.050
 6793POPC   C4B45610   2.174  42.237   7.350
 6794POPC   NC345611   6.611  39.263   5.550
 6794POPC   PO445612   6.632  39.264   5.850
 6794POPC   GL145613   6.662  39.246   6.150
 6794POPC   GL245614   6.749  39.243   6.150
 6794POPC   C1A45615   6.689  39.218   6.450
 6794POPC   D2A45616   6.606  39.193   6.750
 6794POPC   C3A45617   6.632  39.230   7.050
 6794POPC   C4A45618   6.654  39.195   7.350
 6794POPC   C1B45619   6.911  39.191   6.450
 6794POPC   C2B45620   6.871  39.195   6.750
 6794POPC   C3B45621   6.871  39.233   7.050
 6794POPC   C4B45622   6.928  39.221   7.350
 6795POPC   NC345623  32.263   1.177   5.550
 6795POPC   PO445624  32.268   1.232   5.850
 6795POPC   GL145625  32.215   1.240   6.150
 6795POPC   GL245626  32.183   1.229   6.150
 6795POPC   C1A45627  32.199   1.166   6.450
 6795POPC   D2A45628  32.204   1.253   6.750
 6795POPC   C3A45629  32.255   1.172   7.050
 6795POPC   C4A45630  32.238   1.210   7.350
 6795POPC   C1B45631  32.072   1.351   6.450
 6795POPC   C2B45632  32.058   1.302   6.750
 6795POPC   C3B45633  32.017   1.286   7.050
 6795POPC   C4B45634  32.014   1.288   7.350
 6796POPC   NC345635   6.685  44.633   5.550
 6796POPC   PO445636   6.631  44.616   5.850
 6796POPC   GL145637   6.658  44.707   6.150
 6796POPC   GL245638   6.695  44.740   6.150
 6796POPC   C1A45639   6.596  44.624   6.450
 6796POPC   D2A45640   6.639  44.640   6.750
 6796POPC   C3A45641   6.689  44.633   7.050
 6796POPC   C4A45642   6.685  44.651   7.350
 6796POPC   C1B45643   6.643  44.886   6.450
 6796POPC   C2B45644   6.702  44.930   6.750
 6796POPC   C3B45645   6.700  44.950   7.050
 6796POPC   C4B45646   6.690  44.919   7.350
 6797POPC   NC345647  18.251   1.941   5.550
 6797POPC   PO445648  18.297   1.959   5.850
 6797POPC   GL145649  18.269   1.941   6.150
 6797POPC   GL245650  18.274   2.138   6.150
 6797POPC   C1A45651  18.236   2.023   6.450
 6797POPC   D2A45652  18.269   1.947   6.750
 6797POPC   C3A45653  18.317   1.963   7.050
 6797POPC   C4A45654  18.253   2.000   7.350
 6797POPC   C1B45655  18.214   2.245   6.450
 6797POPC   C2B45656  18.139   2.261   6.750
 6797POPC   C3B45657  18.132   2.193   7.050
 6797POPC   C4B45658  18.199   2.171   7.350
 6798POPC   NC345659  30.692  16.002   5.550
 6798POPC   PO445660  30.654  15.916   5.850
 6798POPC   GL145661  30.693  15.976   6.150
 6798POPC   GL245662  30.547  16.041   6.150
 6798POPC   C1A45663  30.709  15.959   6.450
 6798POPC   D2A45664  30.688  15.956   6.750
 6798POPC   C3A45665  30.687  15.909   7.050
 6798POPC   C4A45666  30.721  15.981   7.350
 6798POPC   C1B45667  30.507  16.098   6.450
 6798POPC   C2B45668  30.453  16.087   6.750
 6798POPC   C3B45669  30.481  16.077   7.050
 6798POPC   C4B45670  30.475  16.091   7.350
 6799POPC   NC345671   5.125  35.354   5.550
 6799POPC   PO445672   5.059  35.320   5.850
 6799POPC   GL145673   5.111  35.400   6.150
 6799POPC   GL245674   5.024  35.324   6.150
 6799POPC   C1A45675   5.123  35.399   6.450
 6799POPC   D2A45676   5.074  35.349   6.750
 6799POPC   C3A45677   5.063  35.392   7.050
 6799POPC   C4A45678   5.132  35.366   7.350
 6799POPC   C1B45679   4.898  35.266   6.450
 6799POPC   C2B45680   4.895  35.228   6.750
 6799POPC   C3B45681   4.868  35.214   7.050
 6799POPC   C4B45682   4.906  35.228   7.350
 6800POPC   NC345683  13.606  25.313   5.550
 6800POPC   PO445684  13.626  25.304   5.850
 6800POPC   GL145685  13.593  25.312   6.150
 6800POPC   GL245686  13.581  25.140   6.150
 6800POPC   C1A45687  13.611  25.253   6.450
 6800POPC   D2A45688  13.604  25.235   6.750
 6800POPC   C3A45689  13.650  25.235   7.050
 6800POPC   C4A45690  13.658  25.285   7.350
 6800POPC   C1B45691  13.543  25.062   6.450
 6800POPC   C2B45692  13.581  25.049   6.750
 6800POPC   C3B45693  13.622  24.984   7.050
 6800POPC   C4B45694  13.572  25.038   7.350
 6801POPC   NC345695  18.293  20.651   5.550
 6801POPC   PO445696  18.302  20.639   5.850
 6801POPC   GL145697  18.288  20.564   6.150
 6801POPC   GL245698  18.198  20.493   6.150
 6801POPC   C1A45699  18.277  20.602   6.450
 6801POPC   D2A45700  18.292  20.651   6.750
 6801POPC   C3A45701  18.291  20.609   7.050
 6801POPC   C4A45702  18.261  20.627   7.350
 6801POPC   C1B45703  18.126  20.398   6.450
 6801POPC   C2B45704  18.111  20.433   6.750
 6801POPC   C3B45705  18.076  20.437   7.050
 6801POPC   C4B45706  18.149  20.444   7.350
 6802POPC   NC345707  36.132  36.091   5.550
 6802POPC   PO445708  36.122  36.134   5.850
 6802POPC   GL145709  36.089  36.081   6.150
 6802POPC   GL245710  36.262  36.078   6.150
 6802POPC   C1A45711  36.141  36.126   6.450
 6802POPC   D2A45712  36.083  36.115   6.750
 6802POPC   C3A45713  36.152  36.124   7.050
 6802POPC   C4A45714  36.172  36.174   7.350
 6802POPC   C1B45715  36.345  36.013   6.450
 6802POPC   C2B45716  36.335  36.044   6.750
 6802POPC   C3B45717  36.375  36.070   7.050
 6802POPC   C4B45718  36.382  36.041   7.350
 6803POPC   NC345719  17.483  31.437   5.550
 6803POPC   PO445720  17.523  31.470   5.850
 6803POPC   GL145721  17.543  31.474   6.150
 6803POPC   GL245722  17.616  31.499   6.150
 6803POPC   C1A45723  17.549  31.485   6.450
 6803POPC   D2A45724  17.518  31.512   6.750
 6803POPC   C3A45725  17.549  31.445   7.050
 6803POPC   C4A45726  17.536  31.431   7.350
 6803POPC   C1B45727  17.721  31.622   6.450
 6803POPC   C2B45728  17.733  31.546   6.750
 6803POPC   C3B45729  17.760  31.590   7.050
 6803POPC   C4B45730  17.751  31.557   7.350
 6804POPC   NC345731   8.162  29.136   5.550
 6804POPC   PO445732   8.166  29.155   5.850
 6804POPC   GL145733   8.190  29.106   6.150
 6804POPC   GL245734   8.218  29.011   6.150
 6804POPC   C1A45735   8.234  29.191   6.450
 6804POPC   D2A45736   8.224  29.125   6.750
 6804POPC   C3A45737   8.147  29.176   7.050
 6804POPC   C4A45738   8.151  29.159   7.350
 6804POPC   C1B45739   8.115  28.941   6.450
 6804POPC   C2B45740   8.152  28.923   6.750
 6804POPC   C3B45741   8.145  28.856   7.050
 6804POPC   C4B45742   8.189  28.891   7.350
 6805POPC   NC345743  30.726  35.363   5.550
 6805POPC   PO445744  30.692  35.365   5.850
 6805POPC   GL145745  30.668  35.333   6.150
 6805POPC   GL245746  30.611  35.465   6.150
 6805POPC   C1A45747  30.654  35.338   6.450
 6805POPC   D2A45748  30.700  35.374   6.750
 6805POPC   C3A45749  30.741  35.303   7.050
 6805POPC   C4A45750  30.733  35.342   7.350
 6805POPC   C1B45751  30.538  35.526   6.450
 6805POPC   C2B45752  30.518  35.551   6.750
 6805POPC   C3B45753  30.541  35.519   7.050
 6805POPC   C4B45754  30.542  35.544   7.350
 6806POPC   NC345755   9.733  31.463   5.550
 6806POPC   PO445756   9.734  31.433   5.850
 6806POPC   GL145757   9.787  31.491   6.150
 6806POPC   GL245758   9.604  31.447   6.150
 6806POPC   C1A45759   9.744  31.440   6.450
 6806POPC   D2A45760   9.780  31.499   6.750
 6806POPC   C3A45761   9.746  31.493   7.050
 6806POPC   C4A45762   9.770  31.465   7.350
 6806POPC   C1B45763   9.538  31.459   6.450
 6806POPC   C2B45764   9.545  31.482   6.750
 6806POPC   C3B45765   9.499  31.459   7.050
 6806POPC   C4B45766   9.492  31.483   7.350
 6807POPC   NC345767  29.103  28.347   5.550
 6807POPC   PO445768  29.103  28.326   5.850
 6807POPC   GL145769  29.159  28.406   6.150
 6807POPC   GL245770  28.977  28.380   6.150
 6807POPC   C1A45771  29.111  28.409   6.450
 6807POPC   D2A45772  29.153  28.337   6.750
 6807POPC   C3A45773  29.174  28.368   7.050
 6807POPC   C4A45774  29.095  28.323   7.350
 6807POPC   C1B45775  28.915  28.254   6.450
 6807POPC   C2B45776  28.950  28.271   6.750
 6807POPC   C3B45777  28.933  28.288   7.050
 6807POPC   C4B45778  28.952  28.263   7.350
 6808POPC   NC345779  11.328  16.741   5.550
 6808POPC   PO445780  11.323  16.698   5.850
 6808POPC   GL145781  11.265  16.685   6.150
 6808POPC   GL245782  11.397  16.646   6.150
 6808POPC   C1A45783  11.335  16.694   6.450
 6808POPC   D2A45784  11.252  16.711   6.750
 6808POPC   C3A45785  11.347  16.776   7.050
 6808POPC   C4A45786  11.328  16.690   7.350
 6808POPC   C1B45787  11.515  16.547   6.450
 6808POPC   C2B45788  11.476  16.568   6.750
 6808POPC   C3B45789  11.541  16.582   7.050
 6808POPC   C4B45790  11.467  16.586   7.350
 6809POPC   NC345791   8.189  22.178   5.550
 6809POPC   PO445792   8.231  22.128   5.850
 6809POPC   GL145793   8.222  22.177   6.150
 6809POPC   GL245794   8.255  22.246   6.150
 6809POPC   C1A45795   8.238  22.139   6.450
 6809POPC   D2A45796   8.201  22.116   6.750
 6809POPC   C3A45797   8.232  22.112   7.050
 6809POPC   C4A45798   8.239  22.162   7.350
 6809POPC   C1B45799   8.316  22.356   6.450
 6809POPC   C2B45800   8.315  22.402   6.750
 6809POPC   C3B45801   8.275  22.369   7.050
 6809POPC   C4B45802   8.284  22.350   7.350
 6810POPC   NC345803  22.127   5.890   5.550
 6810POPC   PO445804  22.184   5.831   5.850
 6810POPC   GL145805  22.205   5.905   6.150
 6810POPC   GL245806  22.211   5.821   6.150
 6810POPC   C1A45807  22.134   5.863   6.450
 6810POPC   D2A45808  22.121   5.881   6.750
 6810POPC   C3A45809  22.122   5.864   7.050
 6810POPC   C4A45810  22.158   5.896   7.350
 6810POPC   C1B45811  22.368   5.723   6.450
 6810POPC   C2B45812  22.348   5.755   6.750
 6810POPC   C3B45813  22.384   5.718   7.050
 6810POPC   C4B45814  22.381   5.718   7.350
 6811POPC   NC345815   8.197   1.963   5.550
 6811POPC   PO445816   8.232   2.006   5.850
 6811POPC   GL145817   8.171   2.018   6.150
 6811POPC   GL245818   8.271   2.112   6.150
 6811POPC   C1A45819   8.153   1.948   6.450
 6811POPC   D2A45820   8.166   1.960   6.750
 6811POPC   C3A45821   8.170   1.960   7.050
 6811POPC   C4A45822   8.171   1.961   7.350
 6811POPC   C1B45823   8.277   2.163   6.450
 6811POPC   C2B45824   8.330   2.229   6.750
 6811POPC   C3B45825   8.300   2.167   7.050
 6811POPC   C4B45826   8.284   2.192   7.350
 6812POPC   NC345827  36.143  18.302   5.550
 6812POPC   PO445828  36.156  18.236   5.850
 6812POPC   GL145829  36.088  18.315   6.150
 6812POPC   GL245830  36.041  18.355   6.150
 6812POPC   C1A45831  36.097  18.274   6.450
 6812POPC   D2A45832  36.162  18.283   6.750
 6812POPC   C3A45833  36.128  18.307   7.050
 6812POPC   C4A45834  36.123  18.246   7.350
 6812POPC   C1B45835  36.057  18.515   6.450
 6812POPC   C2B45836  36.039  18.487   6.750
 6812POPC   C3B45837  36.019  18.508   7.050
 6812POPC   C4B45838  36.040  18.490   7.350
 6813POPC   NC345839  40.733  13.646   5.550
 6813POPC   PO445840  40.831  13.611   5.850
 6813POPC   GL145841  40.756  13.669   6.150
 6813POPC   GL245842  40.889  13.651   6.150
 6813POPC   C1A45843  40.803  13.668   6.450
 6813POPC   D2A45844  40.759  13.651   6.750
 6813POPC   C3A45845  40.828  13.672   7.050
 6813POPC   C4A45846  40.770  13.633   7.350
 6813POPC   C1B45847  41.053  13.767   6.450
 6813POPC   C2B45848  41.047  13.717   6.750
 6813POPC   C3B45849  41.045  13.710   7.050
 6813POPC   C4B45850  41.026  13.741   7.350
 6814POPC   NC345851  44.633  37.687   5.550
 6814POPC   PO445852  44.659  37.668   5.850
 6814POPC   GL145853  44.676  37.715   6.150
 6814POPC   GL245854  44.567  37.674   6.150
 6814POPC   C1A45855  44.681  37.661   6.450
 6814POPC   D2A45856  44.676  37.712   6.750
 6814POPC   C3A45857  44.679  37.632   7.050
 6814POPC   C4A45858  44.687  37.693   7.350
 6814POPC   C1B45859  44.373  37.755   6.450
 6814POPC   C2B45860  44.430  37.764   6.750
 6814POPC   C3B45861  44.448  37.776   7.050
 6814POPC   C4B45862  44.393  37.752   7.350
 6815POPC   NC345863  39.193  14.366   5.550
 6815POPC   PO445864  39.268  14.394   5.850
 6815POPC   GL145865  39.233  14.388   6.150
 6815POPC   GL245866  39.275  14.305   6.150
 6815POPC   C1A45867  39.192  14.412   6.450
 6815POPC   D2A45868  39.201  14.395   6.750
 6815POPC   C3A45869  39.248  14.361   7.050
 6815POPC   C4A45870  39.223  14.417   7.350
 6815POPC   C1B45871  39.243  14.111   6.450
 6815POPC   C2B45872  39.244  14.170   6.750
 6815POPC   C3B45873  39.199  14.152   7.050
 6815POPC   C4B45874  39.216  14.111   7.350
 6816POPC   NC345875  37.714   4.315   5.550
 6816POPC   PO445876  37.668   4.282   5.850
 6816POPC   GL145877  37.657   4.356   6.150
 6816POPC   GL245878  37.557   4.335   6.150
 6816POPC   C1A45879  37.678   4.343   6.450
 6816POPC   D2A45880  37.694   4.314   6.750
 6816POPC   C3A45881  37.705   4.293   7.050
 6816POPC   C4A45882  37.718   4.305   7.350
 6816POPC   C1B45883  37.468   4.391   6.450
 6816POPC   C2B45884  37.475   4.466   6.750
 6816POPC   C3B45885  37.465   4.472   7.050
 6816POPC   C4B45886  37.441   4.415   7.350
 6817POPC   NC345887  22.190   4.286   5.550
 6817POPC   PO445888  22.115   4.360   5.850
 6817POPC   GL145889  22.157   4.348   6.150
 6817POPC   GL245890  22.132   4.237   6.150
 6817POPC   C1A45891  22.166   4.347   6.450
 6817POPC   D2A45892  22.167   4.361   6.750
 6817POPC   C3A45893  22.171   4.289   7.050
 6817POPC   C4A45894  22.131   4.328   7.350
 6817POPC   C1B45895  22.135   4.104   6.450
 6817POPC   C2B45896  22.084   4.064   6.750
 6817POPC   C3B45897  22.088   4.073   7.050
 6817POPC   C4B45898  22.148   4.051   7.350
 6818POPC   NC345899  36.106  17.511   5.550
 6818POPC   PO445900  36.175  17.547   5.850
 6818POPC   GL145901  36.147  17.506   6.150
 6818POPC   GL245902  36.224  17.413   6.150
 6818POPC   C1A45903  36.085  17.544   6.450
 6818POPC   D2A45904  36.108  17.463   6.750
 6818POPC   C3A45905  36.090  17.511   7.050
 6818POPC   C4A45906  36.159  17.464   7.350
 6818POPC   C1B45907  36.289  17.349   6.450
 6818POPC   C2B45908  36.318  17.345   6.750
 6818POPC   C3B45909  36.219  17.333   7.050
 6818POPC   C4B45910  36.255  17.295   7.350
 6819POPC   NC345911   5.832  14.447   5.550
 6819POPC   PO445912   5.860  14.400   5.850
 6819POPC   GL145913   5.913  14.452   6.150
 6819POPC   GL245914   5.916  14.577   6.150
 6819POPC   C1A45915   5.901  14.418   6.450
 6819POPC   D2A45916   5.888  14.401   6.750
 6819POPC   C3A45917   5.895  14.382   7.050
 6819POPC   C4A45918   5.854  14.375   7.350
 6819POPC   C1B45919   5.862  14.694   6.450
 6819POPC   C2B45920   5.861  14.637   6.750
 6819POPC   C3B45921   5.905  14.606   7.050
 6819POPC   C4B45922   5.870  14.648   7.350
 6820POPC   NC345923   0.401  28.362   5.550
 6820POPC   PO445924   0.463  28.351   5.850
 6820POPC   GL145925   0.412  28.343   6.150
 6820POPC   GL245926   0.521  28.373   6.150
 6820POPC   C1A45927   0.473  28.329   6.450
 6820POPC   D2A45928   0.423  28.412   6.750
 6820POPC   C3A45929   0.403  28.386   7.050
 6820POPC   C4A45930   0.429  28.343   7.350
 6820POPC   C1B45931   0.713  28.292   6.450
 6820POPC   C2B45932   0.671  28.292   6.750
 6820POPC   C3B45933   0.692  28.339   7.050
 6820POPC   C4B45934   0.726  28.337   7.350
 6821POPC   NC345935  34.582  40.787   5.550
 6821POPC   PO445936  34.622  40.826   5.850
 6821POPC   GL145937  34.528  40.778   6.150
 6821POPC   GL245938  34.610  40.897   6.150
 6821POPC   C1A45939  34.620  40.824   6.450
 6821POPC   D2A45940  34.603  40.816   6.750
 6821POPC   C3A45941  34.583  40.825   7.050
 6821POPC   C4A45942  34.547  40.781   7.350
 6821POPC   C1B45943  34.631  41.064   6.450
 6821POPC   C2B45944  34.608  41.024   6.750
 6821POPC   C3B45945  34.642  41.011   7.050
 6821POPC   C4B45946  34.568  41.072   7.350
 6822POPC   NC345947  29.184  36.164   5.550
 6822POPC   PO445948  29.163  36.147   5.850
 6822POPC   GL145949  29.180  36.142   6.150
 6822POPC   GL245950  29.240  36.076   6.150
 6822POPC   C1A45951  29.172  36.142   6.450
 6822POPC   D2A45952  29.123  36.152   6.750
 6822POPC   C3A45953  29.122  36.104   7.050
 6822POPC   C4A45954  29.186  36.130   7.350
 6822POPC   C1B45955  29.376  36.048   6.450
 6822POPC   C2B45956  29.354  35.995   6.750
 6822POPC   C3B45957  29.370  36.071   7.050
 6822POPC   C4B45958  29.332  36.033   7.350
 6823POPC   NC345959  43.074  19.878   5.550
 6823POPC   PO445960  43.148  19.877   5.850
 6823POPC   GL145961  43.150  19.785   6.150
 6823POPC   GL245962  43.071  19.907   6.150
 6823POPC   C1A45963  43.076  19.837   6.450
 6823POPC   D2A45964  43.136  19.882   6.750
 6823POPC   C3A45965  43.069  19.843   7.050
 6823POPC   C4A45966  43.127  19.877   7.350
 6823POPC   C1B45967  42.906  19.972   6.450
 6823POPC   C2B45968  42.916  19.986   6.750
 6823POPC   C3B45969  42.990  20.007   7.050
 6823POPC   C4B45970  42.969  20.052   7.350
 6824POPC   NC345971  31.473   0.404   5.550
 6824POPC   PO445972  31.511   0.470   5.850
 6824POPC   GL145973  31.515   0.471   6.150
 6824POPC   GL245974  31.518   0.298   6.150
 6824POPC   C1A45975  31.497   0.389   6.450
 6824POPC   D2A45976  31.477   0.405   6.750
 6824POPC   C3A45977  31.449   0.455   7.050
 6824POPC   C4A45978  31.515   0.441   7.350
 6824POPC   C1B45979  31.630   0.284   6.450
 6824POPC   C2B45980  31.609   0.294   6.750
 6824POPC   C3B45981  31.677   0.276   7.050
 6824POPC   C4B45982  31.625   0.221   7.350
 6825POPC   NC345983  34.593  23.727   5.550
 6825POPC   PO445984  34.589  23.719   5.850
 6825POPC   GL145985  34.600  23.684   6.150
 6825POPC   GL245986  34.671  23.593   6.150
 6825POPC   C1A45987  34.564  23.752   6.450
 6825POPC   D2A45988  34.567  23.722   6.750
 6825POPC   C3A45989  34.532  23.704   7.050
 6825POPC   C4A45990  34.527  23.688   7.350
 6825POPC   C1B45991  34.676  23.478   6.450
 6825POPC   C2B45992  34.702  23.465   6.750
 6825POPC   C3B45993  34.744  23.526   7.050
 6825POPC   C4B45994  34.712  23.517   7.350
 6826POPC   NC345995  29.924  44.627   5.550
 6826POPC   PO445996  29.912  44.669   5.850
 6826POPC   GL145997  29.962  44.639   6.150
 6826POPC   GL245998  29.795  44.662   6.150
 6826POPC   C1A45999  29.928  44.686   6.450
 6826POPC   D2A46000  29.970  44.620   6.750
 6826POPC   C3A46001  29.880  44.640   7.050
 6826POPC   C4A46002  29.926  44.708   7.350
 6826POPC   C1B46003  29.677  44.623   6.450
 6826POPC   C2B46004  29.686  44.677   6.750
 6826POPC   C3B46005  29.672  44.635   7.050
 6826POPC   C4B46006  29.645  44.656   7.350
 6827POPC   NC346007  39.973  22.979   5.550
 6827POPC   PO446008  40.028  22.981   5.850
 6827POPC   GL146009  39.987  22.931   6.150
 6827POPC   GL246010  39.963  23.081   6.150
 6827POPC   C1A46011  39.993  22.967   6.450
 6827POPC   D2A46012  39.993  22.955   6.750
 6827POPC   C3A46013  40.031  22.908   7.050
 6827POPC   C4A46014  40.011  22.974   7.350
 6827POPC   C1B46015  39.947  23.228   6.450
 6827POPC   C2B46016  39.994  23.146   6.750
 6827POPC   C3B46017  40.016  23.163   7.050
 6827POPC   C4B46018  39.956  23.161   7.350
 6828POPC   NC346019  38.434  28.324   5.550
 6828POPC   PO446020  38.427  28.402   5.850
 6828POPC   GL146021  38.425  28.413   6.150
 6828POPC   GL246022  38.578  28.373   6.150
 6828POPC   C1A46023  38.437  28.353   6.450
 6828POPC   D2A46024  38.441  28.349   6.750
 6828POPC   C3A46025  38.463  28.404   7.050
 6828POPC   C4A46026  38.409  28.402   7.350
 6828POPC   C1B46027  38.690  28.311   6.450
 6828POPC   C2B46028  38.680  28.350   6.750
 6828POPC   C3B46029  38.742  28.379   7.050
 6828POPC   C4B46030  38.665  28.287   7.350
 6829POPC   NC346031  34.587  39.234   5.550
 6829POPC   PO446032  34.580  39.258   5.850
 6829POPC   GL146033  34.528  39.256   6.150
 6829POPC   GL246034  34.705  39.099   6.150
 6829POPC   C1A46035  34.553  39.278   6.450
 6829POPC   D2A46036  34.557  39.206   6.750
 6829POPC   C3A46037  34.588  39.260   7.050
 6829POPC   C4A46038  34.579  39.266   7.350
 6829POPC   C1B46039  34.702  38.997   6.450
 6829POPC   C2B46040  34.751  39.032   6.750
 6829POPC   C3B46041  34.739  39.042   7.050
 6829POPC   C4B46042  34.688  39.035   7.350
 6830POPC   NC346043  40.821   9.008   5.550
 6830POPC   PO446044  40.810   8.987   5.850
 6830POPC   GL146045  40.822   8.952   6.150
 6830POPC   GL246046  40.733   9.053   6.150
 6830POPC   C1A46047  40.747   8.947   6.450
 6830POPC   D2A46048  40.737   9.005   6.750
 6830POPC   C3A46049  40.762   9.016   7.050
 6830POPC   C4A46050  40.749   8.944   7.350
 6830POPC   C1B46051  40.701   9.259   6.450
 6830POPC   C2B46052  40.731   9.263   6.750
 6830POPC   C3B46053  40.746   9.228   7.050
 6830POPC   C4B46054  40.697   9.193   7.350
 6831POPC   NC346055  39.979  33.752   5.550
 6831POPC   PO446056  40.053  33.826   5.850
 6831POPC   GL146057  40.011  33.811   6.150
 6831POPC   GL246058  39.940  33.881   6.150
 6831POPC   C1A46059  39.993  33.756   6.450
 6831POPC   D2A46060  40.050  33.772   6.750
 6831POPC   C3A46061  40.029  33.799   7.050
 6831POPC   C4A46062  40.005  33.764   7.350
 6831POPC   C1B46063  39.993  34.046   6.450
 6831POPC   C2B46064  39.959  34.027   6.750
 6831POPC   C3B46065  39.969  34.063   7.050
 6831POPC   C4B46066  40.012  34.089   7.350
 6832POPC   NC346067  27.610  39.269   5.550
 6832POPC   PO446068  27.615  39.204   5.850
 6832POPC   GL146069  27.620  39.204   6.150
 6832POPC   GL246070  27.743  39.206   6.150
 6832POPC   C1A46071  27.608  39.248   6.450
 6832POPC   D2A46072  27.560  39.190   6.750
 6832POPC   C3A46073  27.573  39.204   7.050
 6832POPC   C4A46074  27.641  39.208   7.350
 6832POPC   C1B46075  27.842  39.145   6.450
 6832POPC   C2B46076  27.852  39.142   6.750
 6832POPC   C3B46077  27.867  39.079   7.050
 6832POPC   C4B46078  27.789  39.073   7.350
 6833POPC   NC346079  29.896  23.716   5.550
 6833POPC   PO446080  29.909  23.688   5.850
 6833POPC   GL146081  29.914  23.733   6.150
 6833POPC   GL246082  29.946  23.856   6.150
 6833POPC   C1A46083  29.930  23.743   6.450
 6833POPC   D2A46084  29.964  23.689   6.750
 6833POPC   C3A46085  29.873  23.727   7.050
 6833POPC   C4A46086  29.913  23.742   7.350
 6833POPC   C1B46087  30.044  23.937   6.450
 6833POPC   C2B46088  29.949  23.910   6.750
 6833POPC   C3B46089  29.968  23.933   7.050
 6833POPC   C4B46090  30.003  23.948   7.350
 6834POPC   NC346091  31.467  10.544   5.550
 6834POPC   PO446092  31.519  10.506   5.850
 6834POPC   GL146093  31.480  10.558   6.150
 6834POPC   GL246094  31.449  10.391   6.150
 6834POPC   C1A46095  31.446  10.570   6.450
 6834POPC   D2A46096  31.455  10.518   6.750
 6834POPC   C3A46097  31.443  10.511   7.050
 6834POPC   C4A46098  31.488  10.536   7.350
 6834POPC   C1B46099  31.307  10.364   6.450
 6834POPC   C2B46100  31.336  10.282   6.750
 6834POPC   C3B46101  31.313  10.265   7.050
 6834POPC   C4B46102  31.310  10.294   7.350
 6835POPC   NC346103   3.527  18.270   5.550
 6835POPC   PO446104   3.495  18.277   5.850
 6835POPC   GL146105   3.522  18.292   6.150
 6835POPC   GL246106   3.579  18.376   6.150
 6835POPC   C1A46107   3.581  18.238   6.450
 6835POPC   D2A46108   3.576  18.256   6.750
 6835POPC   C3A46109   3.502  18.302   7.050
 6835POPC   C4A46110   3.545  18.301   7.350
 6835POPC   C1B46111   3.677  18.524   6.450
 6835POPC   C2B46112   3.694  18.476   6.750
 6835POPC   C3B46113   3.644  18.467   7.050
 6835POPC   C4B46114   3.661  18.494   7.350
 6836POPC   NC346115  26.079   1.970   5.550
 6836POPC   PO446116  25.997   1.940   5.850
 6836POPC   GL146117  26.045   1.969   6.150
 6836POPC   GL246118  25.973   1.907   6.150
 6836POPC   C1A46119  26.036   2.035   6.450
 6836POPC   D2A46120  26.067   1.952   6.750
 6836POPC   C3A46121  26.063   2.000   7.050
 6836POPC   C4A46122  26.022   2.024   7.350
 6836POPC   C1B46123  25.991   1.802   6.450
 6836POPC   C2B46124  25.948   1.761   6.750
 6836POPC   C3B46125  25.924   1.759   7.050
 6836POPC   C4B46126  25.941   1.793   7.350
 6837POPC   NC346127  28.378   7.386   5.550
 6837POPC   PO446128  28.378   7.426   5.850
 6837POPC   GL146129  28.418   7.390   6.150
 6837POPC   GL246130  28.290   7.395   6.150
 6837POPC   C1A46131  28.374   7.436   6.450
 6837POPC   D2A46132  28.394   7.444   6.750
 6837POPC   C3A46133  28.367   7.434   7.050
 6837POPC   C4A46134  28.349   7.451   7.350
 6837POPC   C1B46135  28.093   7.341   6.450
 6837POPC   C2B46136  28.120   7.344   6.750
 6837POPC   C3B46137  28.133   7.404   7.050
 6837POPC   C4B46138  28.146   7.332   7.350
 6838POPC   NC346139  21.393  12.883   5.550
 6838POPC   PO446140  21.344  12.857   5.850
 6838POPC   GL146141  21.400  12.832   6.150
 6838POPC   GL246142  21.531  12.918   6.150
 6838POPC   C1A46143  21.420  12.808   6.450
 6838POPC   D2A46144  21.352  12.830   6.750
 6838POPC   C3A46145  21.418  12.805   7.050
 6838POPC   C4A46146  21.355  12.811   7.350
 6838POPC   C1B46147  21.621  12.905   6.450
 6838POPC   C2B46148  21.580  12.911   6.750
 6838POPC   C3B46149  21.596  12.899   7.050
 6838POPC   C4B46150  21.606  12.969   7.350
 6839POPC   NC346151  11.323   8.238   5.550
 6839POPC   PO446152  11.319   8.192   5.850
 6839POPC   GL146153  11.326   8.161   6.150
 6839POPC   GL246154  11.224   8.243   6.150
 6839POPC   C1A46155  11.288   8.172   6.450
 6839POPC   D2A46156  11.302   8.232   6.750
 6839POPC   C3A46157  11.348   8.216   7.050
 6839POPC   C4A46158  11.290   8.201   7.350
 6839POPC   C1B46159  11.111   8.309   6.450
 6839POPC   C2B46160  11.081   8.370   6.750
 6839POPC   C3B46161  11.052   8.371   7.050
 6839POPC   C4B46162  11.039   8.309   7.350
 6840POPC   NC346163   2.730  42.344   5.550
 6840POPC   PO446164   2.814  42.293   5.850
 6840POPC   GL146165   2.732  42.297   6.150
 6840POPC   GL246166   2.721  42.168   6.150
 6840POPC   C1A46167   2.741  42.380   6.450
 6840POPC   D2A46168   2.743  42.366   6.750
 6840POPC   C3A46169   2.725  42.383   7.050
 6840POPC   C4A46170   2.749  42.285   7.350
 6840POPC   C1B46171   2.695  42.118   6.450
 6840POPC   C2B46172   2.682  42.103   6.750
 6840POPC   C3B46173   2.745  42.046   7.050
 6840POPC   C4B46174   2.702  42.043   7.350
 6841POPC   NC346175  16.760  31.457   5.550
 6841POPC   PO446176  16.735  31.462   5.850
 6841POPC   GL146177  16.766  31.501   6.150
 6841POPC   GL246178  16.695  31.395   6.150
 6841POPC   C1A46179  16.745  31.448   6.450
 6841POPC   D2A46180  16.715  31.437   6.750
 6841POPC   C3A46181  16.691  31.424   7.050
 6841POPC   C4A46182  16.724  31.522   7.350
 6841POPC   C1B46183  16.564  31.278   6.450
 6841POPC   C2B46184  16.590  31.236   6.750
 6841POPC   C3B46185  16.637  31.283   7.050
 6841POPC   C4B46186  16.605  31.225   7.350
 6842POPC   NC346187   7.454  15.157   5.550
 6842POPC   PO446188   7.372  15.186   5.850
 6842POPC   GL146189   7.428  15.152   6.150
 6842POPC   GL246190   7.455  15.301   6.150
 6842POPC   C1A46191   7.409  15.134   6.450
 6842POPC   D2A46192   7.436  15.131   6.750
 6842POPC   C3A46193   7.434  15.132   7.050
 6842POPC   C4A46194   7.438  15.149   7.350
 6842POPC   C1B46195   7.386  15.424   6.450
 6842POPC   C2B46196   7.373  15.380   6.750
 6842POPC   C3B46197   7.445  15.474   7.050
 6842POPC   C4B46198   7.462  15.412   7.350
 6843POPC   NC346199  28.401   6.655   5.550
 6843POPC   PO446200  28.349   6.649   5.850
 6843POPC   GL146201  28.378   6.600   6.150
 6843POPC   GL246202  28.480   6.600   6.150
 6843POPC   C1A46203  28.356   6.603   6.450
 6843POPC   D2A46204  28.326   6.599   6.750
 6843POPC   C3A46205  28.396   6.637   7.050
 6843POPC   C4A46206  28.384   6.622   7.350
 6843POPC   C1B46207  28.599   6.528   6.450
 6843POPC   C2B46208  28.576   6.480   6.750
 6843POPC   C3B46209  28.620   6.499   7.050
 6843POPC   C4B46210  28.604   6.521   7.350
 6844POPC   NC346211  22.117  43.095   5.550
 6844POPC   PO446212  22.163  43.153   5.850
 6844POPC   GL146213  22.189  43.086   6.150
 6844POPC   GL246214  22.251  43.059   6.150
 6844POPC   C1A46215  22.190  43.156   6.450
 6844POPC   D2A46216  22.113  43.103   6.750
 6844POPC   C3A46217  22.124  43.112   7.050
 6844POPC   C4A46218  22.150  43.090   7.350
 6844POPC   C1B46219  22.399  43.073   6.450
 6844POPC   C2B46220  22.368  43.033   6.750
 6844POPC   C3B46221  22.372  43.023   7.050
 6844POPC   C4B46222  22.427  43.082   7.350
 6845POPC   NC346223  22.189  26.047   5.550
 6845POPC   PO446224  22.193  26.060   5.850
 6845POPC   GL146225  22.144  26.000   6.150
 6845POPC   GL246226  22.321  26.118   6.150
 6845POPC   C1A46227  22.138  26.085   6.450
 6845POPC   D2A46228  22.155  26.008   6.750
 6845POPC   C3A46229  22.160  26.087   7.050
 6845POPC   C4A46230  22.182  26.043   7.350
 6845POPC   C1B46231  22.364  26.127   6.450
 6845POPC   C2B46232  22.354  26.153   6.750
 6845POPC   C3B46233  22.357  26.111   7.050
 6845POPC   C4B46234  22.401  26.195   7.350
 6846POPC   NC346235  35.327  25.258   5.550
 6846POPC   PO446236  35.351  25.247   5.850
 6846POPC   GL146237  35.315  25.308   6.150
 6846POPC   GL246238  35.267  25.366   6.150
 6846POPC   C1A46239  35.394  25.260   6.450
 6846POPC   D2A46240  35.305  25.219   6.750
 6846POPC   C3A46241  35.320  25.279   7.050
 6846POPC   C4A46242  35.368  25.262   7.350
 6846POPC   C1B46243  35.198  25.440   6.450
 6846POPC   C2B46244  35.144  25.466   6.750
 6846POPC   C3B46245  35.209  25.448   7.050
 6846POPC   C4B46246  35.227  25.409   7.350
 6847POPC   NC346247  22.207   0.404   5.550
 6847POPC   PO446248  22.201   0.395   5.850
 6847POPC   GL146249  22.201   0.419   6.150
 6847POPC   GL246250  22.295   0.499   6.150
 6847POPC   C1A46251  22.158   0.461   6.450
 6847POPC   D2A46252  22.166   0.409   6.750
 6847POPC   C3A46253  22.157   0.483   7.050
 6847POPC   C4A46254  22.208   0.461   7.350
 6847POPC   C1B46255  22.394   0.478   6.450
 6847POPC   C2B46256  22.422   0.506   6.750
 6847POPC   C3B46257  22.427   0.487   7.050
 6847POPC   C4B46258  22.387   0.426   7.350
 6848POPC   NC346259  12.080  29.121   5.550
 6848POPC   PO446260  12.112  29.166   5.850
 6848POPC   GL146261  12.074  29.133   6.150
 6848POPC   GL246262  11.986  29.223   6.150
 6848POPC   C1A46263  12.102  29.146   6.450
 6848POPC   D2A46264  12.063  29.135   6.750
 6848POPC   C3A46265  12.029  29.115   7.050
 6848POPC   C4A46266  12.084  29.131   7.350
 6848POPC   C1B46267  11.877  29.313   6.450
 6848POPC   C2B46268  11.867  29.306   6.750
 6848POPC   C3B46269  11.848  29.330   7.050
 6848POPC   C4B46270  11.885  29.319   7.350
 6849POPC   NC346271  10.532   9.786   5.550
 6849POPC   PO446272  10.573   9.723   5.850
 6849POPC   GL146273  10.560   9.726   6.150
 6849POPC   GL246274  10.398   9.778   6.150
 6849POPC   C1A46275  10.489   9.764   6.450
 6849POPC   D2A46276  10.571   9.710   6.750
 6849POPC   C3A46277  10.571   9.753   7.050
 6849POPC   C4A46278  10.478   9.789   7.350
 6849POPC   C1B46279  10.329   9.800   6.450
 6849POPC   C2B46280  10.307   9.780   6.750
 6849POPC   C3B46281  10.253   9.769   7.050
 6849POPC   C4B46282  10.276   9.791   7.350
 6850POPC   NC346283  36.090   6.635   5.550
 6850POPC   PO446284  36.080   6.621   5.850
 6850POPC   GL146285  36.100   6.617   6.150
 6850POPC   GL246286  36.232   6.734   6.150
 6850POPC   C1A46287  36.113   6.596   6.450
 6850POPC   D2A46288  36.142   6.602   6.750
 6850POPC   C3A46289  36.108   6.674   7.050
 6850POPC   C4A46290  36.102   6.616   7.350
 6850POPC   C1B46291  36.222   6.839   6.450
 6850POPC   C2B46292  36.246   6.883   6.750
 6850POPC   C3B46293  36.224   6.914   7.050
 6850POPC   C4B46294  36.230   6.827   7.350
 6851POPC   NC346295  42.379  33.819   5.550
 6851POPC   PO446296  42.323  33.772   5.850
 6851POPC   GL146297  42.365  33.827   6.150
 6851POPC   GL246298  42.466  33.752   6.150
 6851POPC   C1A46299  42.347  33.804   6.450
 6851POPC   D2A46300  42.348  33.802   6.750
 6851POPC   C3A46301  42.285  33.766   7.050
 6851POPC   C4A46302  42.316  33.801   7.350
 6851POPC   C1B46303  42.551  33.674   6.450
 6851POPC   C2B46304  42.517  33.725   6.750
 6851POPC   C3B46305  42.547  33.744   7.050
 6851POPC   C4B46306  42.524  33.712   7.350
 6852POPC   NC346307  19.830   4.297   5.550
 6852POPC   PO446308  19.799   4.326   5.850
 6852POPC   GL146309  19.864   4.352   6.150
 6852POPC   GL246310  19.988   4.206   6.150
 6852POPC   C1A46311  19.881   4.318   6.450
 6852POPC   D2A46312  19.861   4.341   6.750
 6852POPC   C3A46313  19.828   4.348   7.050
 6852POPC   C4A46314  19.836   4.290   7.350
 6852POPC   C1B46315  20.018   4.151   6.450
 6852POPC   C2B46316  20.022   4.233   6.750
 6852POPC   C3B46317  20.055   4.234   7.050
 6852POPC   C4B46318  20.075   4.155   7.350
 6853POPC   NC346319   5.866  37.680   5.550
 6853POPC   PO446320   5.902  37.683   5.850
 6853POPC   GL146321   5.849  37.666   6.150
 6853POPC   GL246322   5.874  37.824   6.150
 6853POPC   C1A46323   5.915  37.700   6.450
 6853POPC   D2A46324   5.827  37.649   6.750
 6853POPC   C3A46325   5.884  37.710   7.050
 6853POPC   C4A46326   5.906  37.635   7.350
 6853POPC   C1B46327   5.895  37.883   6.450
 6853POPC   C2B46328   5.937  37.874   6.750
 6853POPC   C3B46329   5.882  37.894   7.050
 6853POPC   C4B46330   5.897  37.908   7.350
 6854POPC   NC346331  43.108  43.135   5.550
 6854POPC   PO446332  43.148  43.140   5.850
 6854POPC   GL146333  43.085  43.121   6.150
 6854POPC   GL246334  43.027  43.046   6.150
 6854POPC   C1A46335  43.102  43.128   6.450
 6854POPC   D2A46336  43.147  43.121   6.750
 6854POPC   C3A46337  43.118  43.107   7.050
 6854POPC   C4A46338  43.147  43.071   7.350
 6854POPC   C1B46339  42.976  42.919   6.450
 6854POPC   C2B46340  42.968  42.840   6.750
 6854POPC   C3B46341  43.028  42.906   7.050
 6854POPC   C4B46342  42.980  42.856   7.350
 6855POPC   NC346343  14.369  29.912   5.550
 6855POPC   PO446344  14.372  29.909   5.850
 6855POPC   GL146345  14.412  29.899   6.150
 6855POPC   GL246346  14.324  29.883   6.150
 6855POPC   C1A46347  14.431  29.961   6.450
 6855POPC   D2A46348  14.452  29.884   6.750
 6855POPC   C3A46349  14.448  29.949   7.050
 6855POPC   C4A46350  14.437  29.916   7.350
 6855POPC   C1B46351  14.257  29.718   6.450
 6855POPC   C2B46352  14.181  29.738   6.750
 6855POPC   C3B46353  14.235  29.779   7.050
 6855POPC   C4B46354  14.265  29.705   7.350
 6856POPC   NC346355  19.042  35.402   5.550
 6856POPC   PO446356  19.023  35.371   5.850
 6856POPC   GL146357  19.098  35.315   6.150
 6856POPC   GL246358  19.097  35.215   6.150
 6856POPC   C1A46359  19.091  35.329   6.450
 6856POPC   D2A46360  19.095  35.315   6.750
 6856POPC   C3A46361  19.021  35.311   7.050
 6856POPC   C4A46362  19.019  35.335   7.350
 6856POPC   C1B46363  19.102  35.061   6.450
 6856POPC   C2B46364  19.064  35.103   6.750
 6856POPC   C3B46365  19.148  35.138   7.050
 6856POPC   C4B46366  19.131  35.076   7.350
 6857POPC   NC346367  35.369  13.676   5.550
 6857POPC   PO446368  35.330  13.669   5.850
 6857POPC   GL146369  35.323  13.580   6.150
 6857POPC   GL246370  35.238  13.566   6.150
 6857POPC   C1A46371  35.366  13.667   6.450
 6857POPC   D2A46372  35.324  13.585   6.750
 6857POPC   C3A46373  35.389  13.660   7.050
 6857POPC   C4A46374  35.306  13.639   7.350
 6857POPC   C1B46375  35.224  13.378   6.450
 6857POPC   C2B46376  35.190  13.383   6.750
 6857POPC   C3B46377  35.171  13.450   7.050
 6857POPC   C4B46378  35.206  13.416   7.350
 6858POPC   NC346379  19.810   5.903   5.550
 6858POPC   PO446380  19.867   5.899   5.850
 6858POPC   GL146381  19.811   5.878   6.150
 6858POPC   GL246382  19.920   5.872   6.150
 6858POPC   C1A46383  19.864   5.875   6.450
 6858POPC   D2A46384  19.873   5.863   6.750
 6858POPC   C3A46385  19.867   5.837   7.050
 6858POPC   C4A46386  19.842   5.895   7.350
 6858POPC   C1B46387  20.087   5.892   6.450
 6858POPC   C2B46388  20.100   5.932   6.750
 6858POPC   C3B46389  20.082   5.940   7.050
 6858POPC   C4B46390  20.085   5.920   7.350
 6859POPC   NC346391  23.747  21.360   5.550
 6859POPC   PO446392  23.673  21.427   5.850
 6859POPC   GL146393  23.710  21.362   6.150
 6859POPC   GL246394  23.602  21.510   6.150
 6859POPC   C1A46395  23.734  21.416   6.450
 6859POPC   D2A46396  23.693  21.365   6.750
 6859POPC   C3A46397  23.749  21.399   7.050
 6859POPC   C4A46398  23.745  21.417   7.350
 6859POPC   C1B46399  23.481  21.533   6.450
 6859POPC   C2B46400  23.514  21.576   6.750
 6859POPC   C3B46401  23.514  21.572   7.050
 6859POPC   C4B46402  23.545  21.551   7.350
 6860POPC   NC346403  35.303   3.504   5.550
 6860POPC   PO446404  35.328   3.505   5.850
 6860POPC   GL146405  35.357   3.501   6.150
 6860POPC   GL246406  35.493   3.519   6.150
 6860POPC   C1A46407  35.337   3.539   6.450
 6860POPC   D2A46408  35.401   3.542   6.750
 6860POPC   C3A46409  35.389   3.567   7.050
 6860POPC   C4A46410  35.333   3.505   7.350
 6860POPC   C1B46411  35.533   3.419   6.450
 6860POPC   C2B46412  35.559   3.462   6.750
 6860POPC   C3B46413  35.549   3.395   7.050
 6860POPC   C4B46414  35.543   3.485   7.350
 6861POPC   NC346415  16.744  39.999   5.550
 6861POPC   PO446416  16.689  40.045   5.850
 6861POPC   GL146417  16.771  40.054   6.150
 6861POPC   GL246418  16.780  39.912   6.150
 6861POPC   C1A46419  16.690  40.030   6.450
 6861POPC   D2A46420  16.754  40.019   6.750
 6861POPC   C3A46421  16.702  39.978   7.050
 6861POPC   C4A46422  16.732  40.026   7.350
 6861POPC   C1B46423  16.755  39.718   6.450
 6861POPC   C2B46424  16.772  39.723   6.750
 6861POPC   C3B46425  16.787  39.727   7.050
 6861POPC   C4B46426  16.782  39.739   7.350
 6862POPC   NC346427   3.535   5.081   5.550
 6862POPC   PO446428   3.550   5.080   5.850
 6862POPC   GL146429   3.517   5.063   6.150
 6862POPC   GL246430   3.606   5.042   6.150
 6862POPC   C1A46431   3.519   5.072   6.450
 6862POPC   D2A46432   3.547   5.113   6.750
 6862POPC   C3A46433   3.555   5.048   7.050
 6862POPC   C4A46434   3.518   5.143   7.350
 6862POPC   C1B46435   3.717   4.914   6.450
 6862POPC   C2B46436   3.717   4.879   6.750
 6862POPC   C3B46437   3.714   4.860   7.050
 6862POPC   C4B46438   3.726   4.898   7.350
 6863POPC   NC346439  35.367  15.191   5.550
 6863POPC   PO446440  35.339  15.197   5.850
 6863POPC   GL146441  35.367  15.218   6.150
 6863POPC   GL246442  35.228  15.276   6.150
 6863POPC   C1A46443  35.312  15.163   6.450
 6863POPC   D2A46444  35.360  15.201   6.750
 6863POPC   C3A46445  35.374  15.191   7.050
 6863POPC   C4A46446  35.380  15.193   7.350
 6863POPC   C1B46447  35.097  15.272   6.450
 6863POPC   C2B46448  35.141  15.252   6.750
 6863POPC   C3B46449  35.132  15.268   7.050
 6863POPC   C4B46450  35.161  15.314   7.350
 6864POPC   NC346451  21.413  36.859   5.550
 6864POPC   PO446452  21.394  36.886   5.850
 6864POPC   GL146453  21.388  36.897   6.150
 6864POPC   GL246454  21.483  36.982   6.150
 6864POPC   C1A46455  21.389  36.936   6.450
 6864POPC   D2A46456  21.388  36.857   6.750
 6864POPC   C3A46457  21.370  36.869   7.050
 6864POPC   C4A46458  21.352  36.891   7.350
 6864POPC   C1B46459  21.538  37.179   6.450
 6864POPC   C2B46460  21.514  37.106   6.750
 6864POPC   C3B46461  21.531  37.131   7.050
 6864POPC   C4B46462  21.530  37.162   7.350
 6865POPC   NC346463   7.418   2.743   5.550
 6865POPC   PO446464   7.375   2.729   5.850
 6865POPC   GL146465   7.466   2.764   6.150
 6865POPC   GL246466   7.372   2.664   6.150
 6865POPC   C1A46467   7.386   2.736   6.450
 6865POPC   D2A46468   7.421   2.724   6.750
 6865POPC   C3A46469   7.404   2.794   7.050
 6865POPC   C4A46470   7.436   2.767   7.350
 6865POPC   C1B46471   7.361   2.479   6.450
 6865POPC   C2B46472   7.394   2.474   6.750
 6865POPC   C3B46473   7.357   2.478   7.050
 6865POPC   C4B46474   7.409   2.480   7.350
 6866POPC   NC346475  28.402  22.930   5.550
 6866POPC   PO446476  28.395  22.947   5.850
 6866POPC   GL146477  28.342  22.916   6.150
 6866POPC   GL246478  28.354  23.007   6.150
 6866POPC   C1A46479  28.319  22.905   6.450
 6866POPC   D2A46480  28.366  22.898   6.750
 6866POPC   C3A46481  28.362  22.892   7.050
 6866POPC   C4A46482  28.320  22.890   7.350
 6866POPC   C1B46483  28.316  23.181   6.450
 6866POPC   C2B46484  28.229  23.198   6.750
 6866POPC   C3B46485  28.288  23.175   7.050
 6866POPC   C4B46486  28.294  23.121   7.350
 6867POPC   NC346487  36.094  42.327   5.550
 6867POPC   PO446488  36.120  42.301   5.850
 6867POPC   GL146489  36.142  42.311   6.150
 6867POPC   GL246490  36.029  42.194   6.150
 6867POPC   C1A46491  36.085  42.296   6.450
 6867POPC   D2A46492  36.144  42.361   6.750
 6867POPC   C3A46493  36.097  42.377   7.050
 6867POPC   C4A46494  36.084  42.324   7.350
 6867POPC   C1B46495  36.011  42.145   6.450
 6867POPC   C2B46496  35.949  42.165   6.750
 6867POPC   C3B46497  35.981  42.152   7.050
 6867POPC   C4B46498  36.007  42.141   7.350
 6868POPC   NC346499  39.957   3.574   5.550
 6868POPC   PO446500  40.013   3.554   5.850
 6868POPC   GL146501  39.991   3.552   6.150
 6868POPC   GL246502  39.980   3.446   6.150
 6868POPC   C1A46503  39.980   3.568   6.450
 6868POPC   D2A46504  40.043   3.518   6.750
 6868POPC   C3A46505  40.032   3.553   7.050
 6868POPC   C4A46506  39.983   3.589   7.350
 6868POPC   C1B46507  39.990   3.300   6.450
 6868POPC   C2B46508  39.951   3.297   6.750
 6868POPC   C3B46509  39.921   3.314   7.050
 6868POPC   C4B46510  40.001   3.252   7.350
 6869POPC   NC346511   5.838  25.237   5.550
 6869POPC   PO446512   5.906  25.221   5.850
 6869POPC   GL146513   5.882  25.238   6.150
 6869POPC   GL246514   5.859  25.124   6.150
 6869POPC   C1A46515   5.845  25.251   6.450
 6869POPC   D2A46516   5.890  25.270   6.750
 6869POPC   C3A46517   5.903  25.231   7.050
 6869POPC   C4A46518   5.829  25.289   7.350
 6869POPC   C1B46519   5.824  25.026   6.450
 6869POPC   C2B46520   5.872  25.051   6.750
 6869POPC   C3B46521   5.813  24.981   7.050
 6869POPC   C4B46522   5.862  25.008   7.350
 6870POPC   NC346523  16.779  29.881   5.550
 6870POPC   PO446524  16.778  29.883   5.850
 6870POPC   GL146525  16.758  29.922   6.150
 6870POPC   GL246526  16.618  29.963   6.150
 6870POPC   C1A46527  16.709  29.926   6.450
 6870POPC   D2A46528  16.724  29.952   6.750
 6870POPC   C3A46529  16.737  29.928   7.050
 6870POPC   C4A46530  16.763  29.949   7.350
 6870POPC   C1B46531  16.551  30.033   6.450
 6870POPC   C2B46532  16.535  30.068   6.750
 6870POPC   C3B46533  16.523  30.090   7.050
 6870POPC   C4B46534  16.494  30.116   7.350
 6871POPC   NC346535  21.424  15.133   5.550
 6871POPC   PO446536  21.340  15.141   5.850
 6871POPC   GL146537  21.419  15.228   6.150
 6871POPC   GL246538  21.302  15.204   6.150
 6871POPC   C1A46539  21.345  15.155   6.450
 6871POPC   D2A46540  21.380  15.203   6.750
 6871POPC   C3A46541  21.429  15.147   7.050
 6871POPC   C4A46542  21.396  15.191   7.350
 6871POPC   C1B46543  21.147  15.238   6.450
 6871POPC   C2B46544  21.143  15.207   6.750
 6871POPC   C3B46545  21.178  15.231   7.050
 6871POPC   C4B46546  21.093  15.212   7.350
 6872POPC   NC346547  31.505  41.547   5.550
 6872POPC   PO446548  31.469  41.584   5.850
 6872POPC   GL146549  31.477  41.521   6.150
 6872POPC   GL246550  31.403  41.673   6.150
 6872POPC   C1A46551  31.427  41.578   6.450
 6872POPC   D2A46552  31.455  41.582   6.750
 6872POPC   C3A46553  31.504  41.528   7.050
 6872POPC   C4A46554  31.460  41.524   7.350
 6872POPC   C1B46555  31.307  41.721   6.450
 6872POPC   C2B46556  31.292  41.793   6.750
 6872POPC   C3B46557  31.300  41.754   7.050
 6872POPC   C4B46558  31.327  41.754   7.350
 6873POPC   NC346559  39.982  24.457   5.550
 6873POPC   PO446560  39.970  24.470   5.850
 6873POPC   GL146561  40.037  24.540   6.150
 6873POPC   GL246562  40.000  24.562   6.150
 6873POPC   C1A46563  39.967  24.525   6.450
 6873POPC   D2A46564  40.029  24.490   6.750
 6873POPC   C3A46565  40.019  24.442   7.050
 6873POPC   C4A46566  40.015  24.516   7.350
 6873POPC   C1B46567  39.931  24.750   6.450
 6873POPC   C2B46568  39.881  24.753   6.750
 6873POPC   C3B46569  39.872  24.742   7.050
 6873POPC   C4B46570  39.955  24.679   7.350
 6874POPC   NC346571   2.782   4.293   5.550
 6874POPC   PO446572   2.729   4.308   5.850
 6874POPC   GL146573   2.806   4.328   6.150
 6874POPC   GL246574   2.817   4.391   6.150
 6874POPC   C1A46575   2.748   4.348   6.450
 6874POPC   D2A46576   2.763   4.277   6.750
 6874POPC   C3A46577   2.813   4.343   7.050
 6874POPC   C4A46578   2.785   4.325   7.350
 6874POPC   C1B46579   2.882   4.499   6.450
 6874POPC   C2B46580   2.873   4.473   6.750
 6874POPC   C3B46581   2.919   4.487   7.050
 6874POPC   C4B46582   2.896   4.518   7.350
 6875POPC   NC346583   3.500  44.623   5.550
 6875POPC   PO446584   3.567  44.642   5.850
 6875POPC   GL146585   3.540  44.708   6.150
 6875POPC   GL246586   3.511  44.792   6.150
 6875POPC   C1A46587   3.571  44.691   6.450
 6875POPC   D2A46588   3.575  44.697   6.750
 6875POPC   C3A46589   3.562  44.664   7.050
 6875POPC   C4A46590   3.509  44.643   7.350
 6875POPC   C1B46591   3.528  44.879   6.450
 6875POPC   C2B46592   3.487  44.877   6.750
 6875POPC   C3B46593   3.462  44.874   7.050
 6875POPC   C4B46594   3.494  44.920   7.350
 6876POPC   NC346595  19.052  37.688   5.550
 6876POPC   PO446596  19.081  37.648   5.850
 6876POPC   GL146597  19.105  37.719   6.150
 6876POPC   GL246598  19.013  37.792   6.150
 6876POPC   C1A46599  19.105  37.721   6.450
 6876POPC   D2A46600  19.020  37.724   6.750
 6876POPC   C3A46601  19.022  37.685   7.050
 6876POPC   C4A46602  19.046  37.649   7.350
 6876POPC   C1B46603  18.918  37.844   6.450
 6876POPC   C2B46604  18.884  37.905   6.750
 6876POPC   C3B46605  18.895  37.842   7.050
 6876POPC   C4B46606  18.891  37.918   7.350
 6877POPC   NC346607  25.296  22.195   5.550
 6877POPC   PO446608  25.249  22.181   5.850
 6877POPC   GL146609  25.286  22.176   6.150
 6877POPC   GL246610  25.390  22.235   6.150
 6877POPC   C1A46611  25.221  22.193   6.450
 6877POPC   D2A46612  25.226  22.211   6.750
 6877POPC   C3A46613  25.252  22.126   7.050
 6877POPC   C4A46614  25.235  22.199   7.350
 6877POPC   C1B46615  25.486  22.305   6.450
 6877POPC   C2B46616  25.462  22.312   6.750
 6877POPC   C3B46617  25.461  22.310   7.050
 6877POPC   C4B46618  25.527  22.273   7.350
 6878POPC   NC346619  12.832  12.808   5.550
 6878POPC   PO446620  12.813  12.880   5.850
 6878POPC   GL146621  12.849  12.802   6.150
 6878POPC   GL246622  12.935  12.859   6.150
 6878POPC   C1A46623  12.813  12.880   6.450
 6878POPC   D2A46624  12.896  12.834   6.750
 6878POPC   C3A46625  12.830  12.888   7.050
 6878POPC   C4A46626  12.848  12.900   7.350
 6878POPC   C1B46627  13.151  12.861   6.450
 6878POPC   C2B46628  13.064  12.852   6.750
 6878POPC   C3B46629  13.126  12.836   7.050
 6878POPC   C4B46630  13.137  12.822   7.350
 6879POPC   NC346631  26.087  16.749   5.550
 6879POPC   PO446632  26.030  16.727   5.850
 6879POPC   GL146633  26.016  16.742   6.150
 6879POPC   GL246634  26.092  16.843   6.150
 6879POPC   C1A46635  26.001  16.703   6.450
 6879POPC   D2A46636  26.064  16.733   6.750
 6879POPC   C3A46637  26.087  16.715   7.050
 6879POPC   C4A46638  26.017  16.702   7.350
 6879POPC   C1B46639  26.029  16.948   6.450
 6879POPC   C2B46640  26.026  17.026   6.750
 6879POPC   C3B46641  26.071  16.972   7.050
 6879POPC   C4B46642  26.055  16.952   7.350
 6880POPC   NC346643  17.544  11.260   5.550
 6880POPC   PO446644  17.551  11.291   5.850
 6880POPC   GL146645  17.518  11.253   6.150
 6880POPC   GL246646  17.583  11.229   6.150
 6880POPC   C1A46647  17.469  11.275   6.450
 6880POPC   D2A46648  17.513  11.312   6.750
 6880POPC   C3A46649  17.518  11.255   7.050
 6880POPC   C4A46650  17.510  11.282   7.350
 6880POPC   C1B46651  17.529  11.027   6.450
 6880POPC   C2B46652  17.547  11.091   6.750
 6880POPC   C3B46653  17.559  11.055   7.050
 6880POPC   C4B46654  17.609  11.064   7.350
 6881POPC   NC346655  40.047  35.355   5.550
 6881POPC   PO446656  39.993  35.390   5.850
 6881POPC   GL146657  39.979  35.304   6.150
 6881POPC   GL246658  39.936  35.254   6.150
 6881POPC   C1A46659  40.031  35.357   6.450
 6881POPC   D2A46660  40.019  35.331   6.750
 6881POPC   C3A46661  40.025  35.305   7.050
 6881POPC   C4A46662  39.969  35.384   7.350
 6881POPC   C1B46663  39.849  35.157   6.450
 6881POPC   C2B46664  39.891  35.129   6.750
 6881POPC   C3B46665  39.932  35.118   7.050
 6881POPC   C4B46666  39.877  35.101   7.350
 6882POPC   NC346667  12.896  41.528   5.550
 6882POPC   PO446668  12.867  41.527   5.850
 6882POPC   GL146669  12.895  41.522   6.150
 6882POPC   GL246670  12.737  41.635   6.150
 6882POPC   C1A46671  12.869  41.586   6.450
 6882POPC   D2A46672  12.892  41.563   6.750
 6882POPC   C3A46673  12.883  41.573   7.050
 6882POPC   C4A46674  12.849  41.556   7.350
 6882POPC   C1B46675  12.641  41.672   6.450
 6882POPC   C2B46676  12.663  41.701   6.750
 6882POPC   C3B46677  12.656  41.771   7.050
 6882POPC   C4B46678  12.639  41.673   7.350
 6883POPC   NC346679  12.067   6.637   5.550
 6883POPC   PO446680  12.123   6.596   5.850
 6883POPC   GL146681  12.048   6.684   6.150
 6883POPC   GL246682  12.117   6.767   6.150
 6883POPC   C1A46683  12.088   6.612   6.450
 6883POPC   D2A46684  12.092   6.606   6.750
 6883POPC   C3A46685  12.096   6.601   7.050
 6883POPC   C4A46686  12.073   6.669   7.350
 6883POPC   C1B46687  12.207   6.810   6.450
 6883POPC   C2B46688  12.275   6.828   6.750
 6883POPC   C3B46689  12.276   6.848   7.050
 6883POPC   C4B46690  12.256   6.826   7.350
 6884POPC   NC346691  26.811  15.170   5.550
 6884POPC   PO446692  26.834  15.211   5.850
 6884POPC   GL146693  26.852  15.156   6.150
 6884POPC   GL246694  26.799  15.352   6.150
 6884POPC   C1A46695  26.805  15.211   6.450
 6884POPC   D2A46696  26.791  15.177   6.750
 6884POPC   C3A46697  26.775  15.144   7.050
 6884POPC   C4A46698  26.769  15.202   7.350
 6884POPC   C1B46699  26.858  15.476   6.450
 6884POPC   C2B46700  26.878  15.408   6.750
 6884POPC   C3B46701  26.847  15.428   7.050
 6884POPC   C4B46702  26.847  15.408   7.350
 6885POPC   NC346703  40.023  37.677   5.550
 6885POPC   PO446704  39.969  37.634   5.850
 6885POPC   GL146705  39.960  37.699   6.150
 6885POPC   GL246706  40.116  37.632   6.150
 6885POPC   C1A46707  39.973  37.717   6.450
 6885POPC   D2A46708  40.053  37.663   6.750
 6885POPC   C3A46709  40.042  37.698   7.050
 6885POPC   C4A46710  39.990  37.694   7.350
 6885POPC   C1B46711  40.281  37.610   6.450
 6885POPC   C2B46712  40.263  37.570   6.750
 6885POPC   C3B46713  40.222  37.598   7.050
 6885POPC   C4B46714  40.257  37.668   7.350
 6886POPC   NC346715  35.302  42.336   5.550
 6886POPC   PO446716  35.401  42.302   5.850
 6886POPC   GL146717  35.394  42.380   6.150
 6886POPC   GL246718  35.449  42.269   6.150
 6886POPC   C1A46719  35.377  42.314   6.450
 6886POPC   D2A46720  35.381  42.296   6.750
 6886POPC   C3A46721  35.398  42.336   7.050
 6886POPC   C4A46722  35.337  42.347   7.350
 6886POPC   C1B46723  35.523  42.128   6.450
 6886POPC   C2B46724  35.496  42.134   6.750
 6886POPC   C3B46725  35.553  42.113   7.050
 6886POPC   C4B46726  35.563  42.142   7.350
 6887POPC   NC346727   3.548  21.434   5.550
 6887POPC   PO446728   3.591  21.346   5.850
 6887POPC   GL146729   3.505  21.393   6.150
 6887POPC   GL246730   3.622  21.439   6.150
 6887POPC   C1A46731   3.497  21.416   6.450
 6887POPC   D2A46732   3.496  21.422   6.750
 6887POPC   C3A46733   3.565  21.354   7.050
 6887POPC   C4A46734   3.540  21.429   7.350
 6887POPC   C1B46735   3.737  21.566   6.450
 6887POPC   C2B46736   3.711  21.581   6.750
 6887POPC   C3B46737   3.761  21.536   7.050
 6887POPC   C4B46738   3.709  21.595   7.350
 6888POPC   NC346739  12.890  44.658   5.550
 6888POPC   PO446740  12.807  44.649   5.850
 6888POPC   GL146741  12.833  44.664   6.150
 6888POPC   GL246742  12.711  44.640   6.150
 6888POPC   C1A46743  12.827  44.645   6.450
 6888POPC   D2A46744  12.808  44.616   6.750
 6888POPC   C3A46745  12.856  44.710   7.050
 6888POPC   C4A46746  12.827  44.681   7.350
 6888POPC   C1B46747  12.660  44.546   6.450
 6888POPC   C2B46748  12.617  44.579   6.750
 6888POPC   C3B46749  12.572  44.606   7.050
 6888POPC   C4B46750  12.583  44.576   7.350
 6889POPC   NC346751   5.058  31.497   5.550
 6889POPC   PO446752   5.052  31.431   5.850
 6889POPC   GL146753   5.068  31.456   6.150
 6889POPC   GL246754   5.160  31.520   6.150
 6889POPC   C1A46755   5.045  31.437   6.450
 6889POPC   D2A46756   5.109  31.477   6.750
 6889POPC   C3A46757   5.088  31.443   7.050
 6889POPC   C4A46758   5.105  31.490   7.350
 6889POPC   C1B46759   5.276  31.650   6.450
 6889POPC   C2B46760   5.235  31.619   6.750
 6889POPC   C3B46761   5.248  31.606   7.050
 6889POPC   C4B46762   5.264  31.623   7.350
 6890POPC   NC346763  41.601  37.693   5.550
 6890POPC   PO446764  41.586  37.697   5.850
 6890POPC   GL146765  41.580  37.649   6.150
 6890POPC   GL246766  41.693  37.702   6.150
 6890POPC   C1A46767  41.599  37.700   6.450
 6890POPC   D2A46768  41.522  37.690   6.750
 6890POPC   C3A46769  41.542  37.673   7.050
 6890POPC   C4A46770  41.555  37.683   7.350
 6890POPC   C1B46771  41.793  37.844   6.450
 6890POPC   C2B46772  41.731  37.828   6.750
 6890POPC   C3B46773  41.716  37.859   7.050
 6890POPC   C4B46774  41.729  37.846   7.350
 6891POPC   NC346775  16.762  11.276   5.550
 6891POPC   PO446776  16.694  11.326   5.850
 6891POPC   GL146777  16.724  11.283   6.150
 6891POPC   GL246778  16.611  11.189   6.150
 6891POPC   C1A46779  16.762  11.331   6.450
 6891POPC   D2A46780  16.773  11.274   6.750
 6891POPC   C3A46781  16.701  11.289   7.050
 6891POPC   C4A46782  16.697  11.340   7.350
 6891POPC   C1B46783  16.566  11.161   6.450
 6891POPC   C2B46784  16.546  11.092   6.750
 6891POPC   C3B46785  16.521  11.158   7.050
 6891POPC   C4B46786  16.519  11.099   7.350
 6892POPC   NC346787  12.802  10.560   5.550
 6892POPC   PO446788  12.873  10.517   5.850
 6892POPC   GL146789  12.868  10.510   6.150
 6892POPC   GL246790  12.736  10.559   6.150
 6892POPC   C1A46791  12.849  10.510   6.450
 6892POPC   D2A46792  12.880  10.553   6.750
 6892POPC   C3A46793  12.884  10.573   7.050
 6892POPC   C4A46794  12.829  10.563   7.350
 6892POPC   C1B46795  12.600  10.636   6.450
 6892POPC   C2B46796  12.627  10.638   6.750
 6892POPC   C3B46797  12.630  10.546   7.050
 6892POPC   C4B46798  12.606  10.563   7.350
 6893POPC   NC346799   4.332  29.138   5.550
 6893POPC   PO446800   4.300  29.114   5.850
 6893POPC   GL146801   4.305  29.161   6.150
 6893POPC   GL246802   4.321  29.059   6.150
 6893POPC   C1A46803   4.325  29.148   6.450
 6893POPC   D2A46804   4.310  29.160   6.750
 6893POPC   C3A46805   4.339  29.165   7.050
 6893POPC   C4A46806   4.346  29.152   7.350
 6893POPC   C1B46807   4.285  28.933   6.450
 6893POPC   C2B46808   4.263  28.897   6.750
 6893POPC   C3B46809   4.278  28.918   7.050
 6893POPC   C4B46810   4.274  28.918   7.350
 6894POPC   NC346811   8.214   6.666   5.550
 6894POPC   PO446812   8.216   6.646   5.850
 6894POPC   GL146813   8.193   6.645   6.150
 6894POPC   GL246814   8.280   6.738   6.150
 6894POPC   C1A46815   8.165   6.688   6.450
 6894POPC   D2A46816   8.209   6.630   6.750
 6894POPC   C3A46817   8.241   6.677   7.050
 6894POPC   C4A46818   8.176   6.670   7.350
 6894POPC   C1B46819   8.439   6.765   6.450
 6894POPC   C2B46820   8.457   6.704   6.750
 6894POPC   C3B46821   8.405   6.689   7.050
 6894POPC   C4B46822   8.453   6.707   7.350
 6895POPC   NC346823  12.095  39.977   5.550
 6895POPC   PO446824  12.065  40.005   5.850
 6895POPC   GL146825  12.119  40.028   6.150
 6895POPC   GL246826  12.058  40.119   6.150
 6895POPC   C1A46827  12.078  39.991   6.450
 6895POPC   D2A46828  12.102  40.044   6.750
 6895POPC   C3A46829  12.038  39.958   7.050
 6895POPC   C4A46830  12.067  39.975   7.350
 6895POPC   C1B46831  12.172  40.293   6.450
 6895POPC   C2B46832  12.118  40.269   6.750
 6895POPC   C3B46833  12.172  40.244   7.050
 6895POPC   C4B46834  12.112  40.287   7.350
 6896POPC   NC346835  12.886  36.887   5.550
 6896POPC   PO446836  12.845  36.884   5.850
 6896POPC   GL146837  12.890  36.896   6.150
 6896POPC   GL246838  12.819  36.828   6.150
 6896POPC   C1A46839  12.888  36.883   6.450
 6896POPC   D2A46840  12.817  36.862   6.750
 6896POPC   C3A46841  12.861  36.890   7.050
 6896POPC   C4A46842  12.850  36.930   7.350
 6896POPC   C1B46843  12.831  36.614   6.450
 6896POPC   C2B46844  12.843  36.680   6.750
 6896POPC   C3B46845  12.853  36.643   7.050
 6896POPC   C4B46846  12.778  36.693   7.350
 6897POPC   NC346847  17.509  26.827   5.550
 6897POPC   PO446848  17.549  26.812   5.850
 6897POPC   GL146849  17.525  26.811   6.150
 6897POPC   GL246850  17.532  26.987   6.150
 6897POPC   C1A46851  17.469  26.828   6.450
 6897POPC   D2A46852  17.516  26.863   6.750
 6897POPC   C3A46853  17.491  26.810   7.050
 6897POPC   C4A46854  17.493  26.800   7.350
 6897POPC   C1B46855  17.556  27.102   6.450
 6897POPC   C2B46856  17.614  27.023   6.750
 6897POPC   C3B46857  17.538  27.080   7.050
 6897POPC   C4B46858  17.552  27.100   7.350
 6898POPC   NC346859  23.694  15.950   5.550
 6898POPC   PO446860  23.666  15.925   5.850
 6898POPC   GL146861  23.690  15.909   6.150
 6898POPC   GL246862  23.596  16.061   6.150
 6898POPC   C1A46863  23.693  15.990   6.450
 6898POPC   D2A46864  23.741  15.924   6.750
 6898POPC   C3A46865  23.751  15.964   7.050
 6898POPC   C4A46866  23.752  15.957   7.350
 6898POPC   C1B46867  23.509  16.056   6.450
 6898POPC   C2B46868  23.502  16.093   6.750
 6898POPC   C3B46869  23.474  16.144   7.050
 6898POPC   C4B46870  23.494  16.137   7.350
 6899POPC   NC346871  37.704   1.972   5.550
 6899POPC   PO446872  37.681   1.941   5.850
 6899POPC   GL146873  37.664   2.036   6.150
 6899POPC   GL246874  37.541   1.995   6.150
 6899POPC   C1A46875  37.721   1.963   6.450
 6899POPC   D2A46876  37.679   2.038   6.750
 6899POPC   C3A46877  37.644   1.995   7.050
 6899POPC   C4A46878  37.683   2.018   7.350
 6899POPC   C1B46879  37.405   1.984   6.450
 6899POPC   C2B46880  37.419   1.932   6.750
 6899POPC   C3B46881  37.462   1.939   7.050
 6899POPC   C4B46882  37.420   1.982   7.350
 6900POPC   NC346883   6.681  33.782   5.550
 6900POPC   PO446884   6.625  33.794   5.850
 6900POPC   GL146885   6.694  33.760   6.150
 6900POPC   GL246886   6.494  33.680   6.150
 6900POPC   C1A46887   6.661  33.850   6.450
 6900POPC   D2A46888   6.654  33.830   6.750
 6900POPC   C3A46889   6.647  33.780   7.050
 6900POPC   C4A46890   6.675  33.754   7.350
 6900POPC   C1B46891   6.418  33.616   6.450
 6900POPC   C2B46892   6.467  33.703   6.750
 6900POPC   C3B46893   6.463  33.696   7.050
 6900POPC   C4B46894   6.447  33.703   7.350
 6901POPC   NC346895   1.997  20.615   5.550
 6901POPC   PO446896   1.993  20.629   5.850
 6901POPC   GL146897   2.008  20.580   6.150
 6901POPC   GL246898   1.934  20.725   6.150
 6901POPC   C1A46899   2.027  20.573   6.450
 6901POPC   D2A46900   1.980  20.602   6.750
 6901POPC   C3A46901   1.967  20.573   7.050
 6901POPC   C4A46902   1.942  20.562   7.350
 6901POPC   C1B46903   1.875  20.758   6.450
 6901POPC   C2B46904   1.780  20.786   6.750
 6901POPC   C3B46905   1.845  20.792   7.050
 6901POPC   C4B46906   1.838  20.783   7.350
 6902POPC   NC346907  26.019  41.539   5.550
 6902POPC   PO446908  26.040  41.576   5.850
 6902POPC   GL146909  26.066  41.608   6.150
 6902POPC   GL246910  26.098  41.469   6.150
 6902POPC   C1A46911  26.070  41.591   6.450
 6902POPC   D2A46912  25.993  41.573   6.750
 6902POPC   C3A46913  26.007  41.516   7.050
 6902POPC   C4A46914  26.008  41.514   7.350
 6902POPC   C1B46915  26.209  41.411   6.450
 6902POPC   C2B46916  26.248  41.414   6.750
 6902POPC   C3B46917  26.165  41.393   7.050
 6902POPC   C4B46918  26.239  41.383   7.350
 6903POPC   NC346919  15.974   1.172   5.550
 6903POPC   PO446920  15.948   1.212   5.850
 6903POPC   GL146921  15.973   1.242   6.150
 6903POPC   GL246922  15.959   1.052   6.150
 6903POPC   C1A46923  15.930   1.186   6.450
 6903POPC   D2A46924  15.907   1.228   6.750
 6903POPC   C3A46925  15.983   1.251   7.050
 6903POPC   C4A46926  15.965   1.254   7.350
 6903POPC   C1B46927  15.883   0.956   6.450
 6903POPC   C2B46928  15.848   0.930   6.750
 6903POPC   C3B46929  15.932   0.963   7.050
 6903POPC   C4B46930  15.930   1.009   7.350
 6904POPC   NC346931  41.560   1.198   5.550
 6904POPC   PO446932  41.567   1.175   5.850
 6904POPC   GL146933  41.557   1.252   6.150
 6904POPC   GL246934  41.588   1.100   6.150
 6904POPC   C1A46935  41.588   1.212   6.450
 6904POPC   D2A46936  41.536   1.207   6.750
 6904POPC   C3A46937  41.589   1.211   7.050
 6904POPC   C4A46938  41.564   1.236   7.350
 6904POPC   C1B46939  41.658   1.058   6.450
 6904POPC   C2B46940  41.754   0.981   6.750
 6904POPC   C3B46941  41.665   1.059   7.050
 6904POPC   C4B46942  41.728   0.988   7.350
 6905POPC   NC346943  39.220  35.366   5.550
 6905POPC   PO446944  39.185  35.308   5.850
 6905POPC   GL146945  39.190  35.372   6.150
 6905POPC   GL246946  39.314  35.326   6.150
 6905POPC   C1A46947  39.281  35.365   6.450
 6905POPC   D2A46948  39.257  35.335   6.750
 6905POPC   C3A46949  39.191  35.327   7.050
 6905POPC   C4A46950  39.214  35.326   7.350
 6905POPC   C1B46951  39.491  35.191   6.450
 6905POPC   C2B46952  39.461  35.195   6.750
 6905POPC   C3B46953  39.479  35.253   7.050
 6905POPC   C4B46954  39.405  35.212   7.350
 6906POPC   NC346955  32.253   1.994   5.550
 6906POPC   PO446956  32.257   2.031   5.850
 6906POPC   GL146957  32.223   1.969   6.150
 6906POPC   GL246958  32.412   2.058   6.150
 6906POPC   C1A46959  32.286   2.028   6.450
 6906POPC   D2A46960  32.216   1.977   6.750
 6906POPC   C3A46961  32.212   1.958   7.050
 6906POPC   C4A46962  32.286   1.965   7.350
 6906POPC   C1B46963  32.525   2.031   6.450
 6906POPC   C2B46964  32.524   2.080   6.750
 6906POPC   C3B46965  32.497   2.059   7.050
 6906POPC   C4B46966  32.493   1.996   7.350
 6907POPC   NC346967  29.952  14.365   5.550
 6907POPC   PO446968  29.918  14.428   5.850
 6907POPC   GL146969  29.906  14.405   6.150
 6907POPC   GL246970  30.075  14.371   6.150
 6907POPC   C1A46971  29.883  14.359   6.450
 6907POPC   D2A46972  29.880  14.451   6.750
 6907POPC   C3A46973  29.956  14.380   7.050
 6907POPC   C4A46974  29.950  14.356   7.350
 6907POPC   C1B46975  30.104  14.277   6.450
 6907POPC   C2B46976  30.128  14.338   6.750
 6907POPC   C3B46977  30.144  14.263   7.050
 6907POPC   C4B46978  30.126  14.348   7.350
 6908POPC   NC346979  30.697   8.214   5.550
 6908POPC   PO446980  30.682   8.232   5.850
 6908POPC   GL146981  30.744   8.149   6.150
 6908POPC   GL246982  30.714   8.285   6.150
 6908POPC   C1A46983  30.691   8.219   6.450
 6908POPC   D2A46984  30.670   8.174   6.750
 6908POPC   C3A46985  30.674   8.177   7.050
 6908POPC   C4A46986  30.717   8.212   7.350
 6908POPC   C1B46987  30.718   8.473   6.450
 6908POPC   C2B46988  30.693   8.469   6.750
 6908POPC   C3B46989  30.627   8.400   7.050
 6908POPC   C4B46990  30.643   8.455   7.350
 6909POPC   NC346991  36.135  39.194   5.550
 6909POPC   PO446992  36.140  39.270   5.850
 6909POPC   GL146993  36.175  39.243   6.150
 6909POPC   GL246994  36.176  39.136   6.150
 6909POPC   C1A46995  36.131  39.274   6.450
 6909POPC   D2A46996  36.122  39.229   6.750
 6909POPC   C3A46997  36.115  39.204   7.050
 6909POPC   C4A46998  36.098  39.198   7.350
 6909POPC   C1B46999  36.203  39.024   6.450
 6909POPC   C2B47000  36.273  38.974   6.750
 6909POPC   C3B47001  36.225  39.055   7.050
 6909POPC   C4B47002  36.274  39.041   7.350
 6910POPC   NC347003  11.305  11.292   5.550
 6910POPC   PO447004  11.307  11.254   5.850
 6910POPC   GL147005  11.320  11.267   6.150
 6910POPC   GL247006  11.390  11.212   6.150
 6910POPC   C1A47007  11.278  11.298   6.450
 6910POPC   D2A47008  11.331  11.265   6.750
 6910POPC   C3A47009  11.333  11.254   7.050
 6910POPC   C4A47010  11.263  11.346   7.350
 6910POPC   C1B47011  11.413  11.130   6.450
 6910POPC   C2B47012  11.449  11.111   6.750
 6910POPC   C3B47013  11.427  11.070   7.050
 6910POPC   C4B47014  11.451  11.088   7.350
 6911POPC   NC347015   5.062  32.977   5.550
 6911POPC   PO447016   5.044  32.981   5.850
 6911POPC   GL147017   5.126  33.055   6.150
 6911POPC   GL247018   5.057  32.948   6.150
 6911POPC   C1A47019   5.137  32.999   6.450
 6911POPC   D2A47020   5.128  33.011   6.750
 6911POPC   C3A47021   5.048  33.049   7.050
 6911POPC   C4A47022   5.073  33.058   7.350
 6911POPC   C1B47023   4.993  32.801   6.450
 6911POPC   C2B47024   5.023  32.772   6.750
 6911POPC   C3B47025   5.066  32.792   7.050
 6911POPC   C4B47026   4.987  32.800   7.350
 6912POPC   NC347027  43.929   3.569   5.550
 6912POPC   PO447028  43.883   3.520   5.850
 6912POPC   GL147029  43.900   3.588   6.150
 6912POPC   GL247030  43.789   3.584   6.150
 6912POPC   C1A47031  43.909   3.533   6.450
 6912POPC   D2A47032  43.918   3.546   6.750
 6912POPC   C3A47033  43.869   3.522   7.050
 6912POPC   C4A47034  43.910   3.514   7.350
 6912POPC   C1B47035  43.724   3.736   6.450
 6912POPC   C2B47036  43.695   3.713   6.750
 6912POPC   C3B47037  43.704   3.700   7.050
 6912POPC   C4B47038  43.691   3.674   7.350
 6913POPC   NC347039  41.600  41.525   5.550
 6913POPC   PO447040  41.592  41.530   5.850
 6913POPC   GL147041  41.523  41.512   6.150
 6913POPC   GL247042  41.502  41.451   6.150
 6913POPC   C1A47043  41.607  41.582   6.450
 6913POPC   D2A47044  41.600  41.569   6.750
 6913POPC   C3A47045  41.552  41.552   7.050
 6913POPC   C4A47046  41.583  41.551   7.350
 6913POPC   C1B47047  41.406  41.313   6.450
 6913POPC   C2B47048  41.405  41.335   6.750
 6913POPC   C3B47049  41.404  41.287   7.050
 6913POPC   C4B47050  41.414  41.325   7.350
 6914POPC   NC347051  39.183  41.520   5.550
 6914POPC   PO447052  39.183  41.528   5.850
 6914POPC   GL147053  39.252  41.586   6.150
 6914POPC   GL247054  39.158  41.573   6.150
 6914POPC   C1A47055  39.276  41.559   6.450
 6914POPC   D2A47056  39.214  41.538   6.750
 6914POPC   C3A47057  39.208  41.521   7.050
 6914POPC   C4A47058  39.262  41.556   7.350
 6914POPC   C1B47059  39.029  41.475   6.450
 6914POPC   C2B47060  38.947  41.513   6.750
 6914POPC   C3B47061  38.991  41.492   7.050
 6914POPC   C4B47062  38.957  41.539   7.350
 6915POPC   NC347063  44.625  13.653   5.550
 6915POPC   PO447064  44.650  13.588   5.850
 6915POPC   GL147065  44.617  13.604   6.150
 6915POPC   GL247066  44.778  13.698   6.150
 6915POPC   C1A47067  44.707  13.678   6.450
 6915POPC   D2A47068  44.651  13.676   6.750
 6915POPC   C3A47069  44.698  13.639   7.050
 6915POPC   C4A47070  44.641  13.617   7.350
 6915POPC   C1B47071  44.798  13.852   6.450
 6915POPC   C2B47072  44.791  13.861   6.750
 6915POPC   C3B47073  44.792  13.812   7.050
 6915POPC   C4B47074  44.826  13.791   7.350
 6916POPC   NC347075  36.901  40.737   5.550
 6916POPC   PO447076  36.912  40.793   5.850
 6916POPC   GL147077  36.911  40.800   6.150
 6916POPC   GL247078  36.826  40.831   6.150
 6916POPC   C1A47079  36.855  40.748   6.450
 6916POPC   D2A47080  36.883  40.756   6.750
 6916POPC   C3A47081  36.872  40.742   7.050
 6916POPC   C4A47082  36.908  40.764   7.350
 6916POPC   C1B47083  36.695  40.958   6.450
 6916POPC   C2B47084  36.786  40.933   6.750
 6916POPC   C3B47085  36.714  41.011   7.050
 6916POPC   C4B47086  36.778  41.004   7.350
 6917POPC   NC347087  25.284  35.326   5.550
 6917POPC   PO447088  25.293  35.304   5.850
 6917POPC   GL147089  25.307  35.356   6.150
 6917POPC   GL247090  25.252  35.235   6.150
 6917POPC   C1A47091  25.309  35.305   6.450
 6917POPC   D2A47092  25.298  35.377   6.750
 6917POPC   C3A47093  25.238  35.387   7.050
 6917POPC   C4A47094  25.290  35.367   7.350
 6917POPC   C1B47095  25.252  35.089   6.450
 6917POPC   C2B47096  25.309  35.063   6.750
 6917POPC   C3B47097  25.283  35.062   7.050
 6917POPC   C4B47098  25.276  35.127   7.350
 6918POPC   NC347099  30.695   6.679   5.550
 6918POPC   PO447100  30.696   6.600   5.850
 6918POPC   GL147101  30.669   6.630   6.150
 6918POPC   GL247102  30.843   6.586   6.150
 6918POPC   C1A47103  30.707   6.633   6.450
 6918POPC   D2A47104  30.685   6.666   6.750
 6918POPC   C3A47105  30.731   6.636   7.050
 6918POPC   C4A47106  30.720   6.596   7.350
 6918POPC   C1B47107  30.958   6.487   6.450
 6918POPC   C2B47108  30.937   6.547   6.750
 6918POPC   C3B47109  30.913   6.553   7.050
 6918POPC   C4B47110  30.919   6.565   7.350
 6919POPC   NC347111  15.134  26.839   5.550
 6919POPC   PO447112  15.136  26.865   5.850
 6919POPC   GL147113  15.161  26.770   6.150
 6919POPC   GL247114  15.233  26.919   6.150
 6919POPC   C1A47115  15.172  26.782   6.450
 6919POPC   D2A47116  15.221  26.862   6.750
 6919POPC   C3A47117  15.150  26.773   7.050
 6919POPC   C4A47118  15.166  26.859   7.350
 6919POPC   C1B47119  15.164  27.065   6.450
 6919POPC   C2B47120  15.162  27.074   6.750
 6919POPC   C3B47121  15.155  27.038   7.050
 6919POPC   C4B47122  15.165  27.032   7.350
 6920POPC   NC347123  43.064  22.941   5.550
 6920POPC   PO447124  43.069  22.941   5.850
 6920POPC   GL147125  43.134  22.935   6.150
 6920POPC   GL247126  43.182  22.836   6.150
 6920POPC   C1A47127  43.075  22.954   6.450
 6920POPC   D2A47128  43.073  22.980   6.750
 6920POPC   C3A47129  43.148  22.970   7.050
 6920POPC   C4A47130  43.092  22.976   7.350
 6920POPC   C1B47131  43.197  22.734   6.450
 6920POPC   C2B47132  43.143  22.655   6.750
 6920POPC   C3B47133  43.157  22.698   7.050
 6920POPC   C4B47134  43.193  22.737   7.350
 6921POPC   NC347135  19.024  33.763   5.550
 6921POPC   PO447136  19.028  33.823   5.850
 6921POPC   GL147137  19.056  33.842   6.150
 6921POPC   GL247138  19.037  33.645   6.150
 6921POPC   C1A47139  19.066  33.804   6.450
 6921POPC   D2A47140  19.035  33.804   6.750
 6921POPC   C3A47141  19.044  33.788   7.050
 6921POPC   C4A47142  19.056  33.759   7.350
 6921POPC   C1B47143  18.988  33.606   6.450
 6921POPC   C2B47144  18.980  33.526   6.750
 6921POPC   C3B47145  18.956  33.540   7.050
 6921POPC   C4B47146  18.953  33.597   7.350
 6922POPC   NC347147  29.927  41.590   5.550
 6922POPC   PO447148  29.935  41.564   5.850
 6922POPC   GL147149  29.909  41.525   6.150
 6922POPC   GL247150  29.814  41.680   6.150
 6922POPC   C1A47151  29.880  41.523   6.450
 6922POPC   D2A47152  29.965  41.512   6.750
 6922POPC   C3A47153  29.903  41.524   7.050
 6922POPC   C4A47154  29.880  41.539   7.350
 6922POPC   C1B47155  29.746  41.676   6.450
 6922POPC   C2B47156  29.755  41.766   6.750
 6922POPC   C3B47157  29.699  41.746   7.050
 6922POPC   C4B47158  29.747  41.768   7.350
 6923POPC   NC347159  39.967   4.334   5.550
 6923POPC   PO447160  39.999   4.308   5.850
 6923POPC   GL147161  40.011   4.342   6.150
 6923POPC   GL247162  39.877   4.396   6.150
 6923POPC   C1A47163  40.033   4.351   6.450
 6923POPC   D2A47164  40.000   4.274   6.750
 6923POPC   C3A47165  40.005   4.332   7.050
 6923POPC   C4A47166  39.965   4.365   7.350
 6923POPC   C1B47167  39.748   4.447   6.450
 6923POPC   C2B47168  39.747   4.365   6.750
 6923POPC   C3B47169  39.765   4.420   7.050
 6923POPC   C4B47170  39.805   4.448   7.350
 6924POPC   NC347171   8.180  37.686   5.550
 6924POPC   PO447172   8.164  37.640   5.850
 6924POPC   GL147173   8.230  37.651   6.150
 6924POPC   GL247174   8.139  37.789   6.150
 6924POPC   C1A47175   8.182  37.672   6.450
 6924POPC   D2A47176   8.203  37.680   6.750
 6924POPC   C3A47177   8.185  37.641   7.050
 6924POPC   C4A47178   8.201  37.643   7.350
 6924POPC   C1B47179   8.027  37.914   6.450
 6924POPC   C2B47180   7.997  37.883   6.750
 6924POPC   C3B47181   8.004  37.881   7.050
 6924POPC   C4B47182   8.063  37.835   7.350
 6925POPC   NC347183  10.522  43.925   5.550
 6925POPC   PO447184  10.487  43.902   5.850
 6925POPC   GL147185  10.544  43.851   6.150
 6925POPC   GL247186  10.579  44.013   6.150
 6925POPC   C1A47187  10.538  43.862   6.450
 6925POPC   D2A47188  10.541  43.837   6.750
 6925POPC   C3A47189  10.532  43.868   7.050
 6925POPC   C4A47190  10.563  43.901   7.350
 6925POPC   C1B47191  10.689  44.062   6.450
 6925POPC   C2B47192  10.652  44.099   6.750
 6925POPC   C3B47193  10.658  44.094   7.050
 6925POPC   C4B47194  10.678  44.088   7.350
 6926POPC   NC347195  36.949  23.674   5.550
 6926POPC   PO447196  36.914  23.698   5.850
 6926POPC   GL147197  36.861  23.714   6.150
 6926POPC   GL247198  37.051  23.730   6.150
 6926POPC   C1A47199  36.882  23.763   6.450
 6926POPC   D2A47200  36.896  23.725   6.750
 6926POPC   C3A47201  36.922  23.737   7.050
 6926POPC   C4A47202  36.873  23.758   7.350
 6926POPC   C1B47203  37.199  23.708   6.450
 6926POPC   C2B47204  37.144  23.685   6.750
 6926POPC   C3B47205  37.156  23.748   7.050
 6926POPC   C4B47206  37.194  23.701   7.350
 6927POPC   NC347207  39.996  32.267   5.550
 6927POPC   PO447208  40.044  32.237   5.850
 6927POPC   GL147209  40.015  32.220   6.150
 6927POPC   GL247210  40.043  32.363   6.150
 6927POPC   C1A47211  40.048  32.246   6.450
 6927POPC   D2A47212  39.959  32.272   6.750
 6927POPC   C3A47213  40.036  32.250   7.050
 6927POPC   C4A47214  40.029  32.263   7.350
 6927POPC   C1B47215  40.148  32.416   6.450
 6927POPC   C2B47216  40.133  32.483   6.750
 6927POPC   C3B47217  40.107  32.431   7.050
 6927POPC   C4B47218  40.162  32.447   7.350
 6928POPC   NC347219  27.636  29.938   5.550
 6928POPC   PO447220  27.576  29.961   5.850
 6928POPC   GL147221  27.555  29.889   6.150
 6928POPC   GL247222  27.682  29.854   6.150
 6928POPC   C1A47223  27.627  29.967   6.450
 6928POPC   D2A47224  27.608  29.902   6.750
 6928POPC   C3A47225  27.621  29.955   7.050
 6928POPC   C4A47226  27.607  29.922   7.350
 6928POPC   C1B47227  27.826  29.778   6.450
 6928POPC   C2B47228  27.854  29.792   6.750
 6928POPC   C3B47229  27.832  29.847   7.050
 6928POPC   C4B47230  27.776  29.770   7.350
 6929POPC   NC347231  36.910  14.399   5.550
 6929POPC   PO447232  36.862  14.405   5.850
 6929POPC   GL147233  36.906  14.452   6.150
 6929POPC   GL247234  36.850  14.302   6.150
 6929POPC   C1A47235  36.875  14.425   6.450
 6929POPC   D2A47236  36.860  14.371   6.750
 6929POPC   C3A47237  36.863  14.442   7.050
 6929POPC   C4A47238  36.928  14.372   7.350
 6929POPC   C1B47239  36.885  14.135   6.450
 6929POPC   C2B47240  36.883  14.124   6.750
 6929POPC   C3B47241  36.929  14.120   7.050
 6929POPC   C4B47242  36.849  14.128   7.350
 6930POPC   NC347243   9.701   3.511   5.550
 6930POPC   PO447244   9.720   3.541   5.850
 6930POPC   GL147245   9.765   3.497   6.150
 6930POPC   GL247246   9.698   3.412   6.150
 6930POPC   C1A47247   9.712   3.576   6.450
 6930POPC   D2A47248   9.740   3.529   6.750
 6930POPC   C3A47249   9.748   3.537   7.050
 6930POPC   C4A47250   9.760   3.574   7.350
 6930POPC   C1B47251   9.726   3.288   6.450
 6930POPC   C2B47252   9.635   3.325   6.750
 6930POPC   C3B47253   9.710   3.333   7.050
 6930POPC   C4B47254   9.673   3.255   7.350
 6931POPC   NC347255  32.257   6.665   5.550
 6931POPC   PO447256  32.204   6.653   5.850
 6931POPC   GL147257  32.215   6.615   6.150
 6931POPC   GL247258  32.353   6.757   6.150
 6931POPC   C1A47259  32.292   6.616   6.450
 6931POPC   D2A47260  32.282   6.680   6.750
 6931POPC   C3A47261  32.263   6.643   7.050
 6931POPC   C4A47262  32.256   6.677   7.350
 6931POPC   C1B47263  32.489   6.810   6.450
 6931POPC   C2B47264  32.454   6.849   6.750
 6931POPC   C3B47265  32.443   6.795   7.050
 6931POPC   C4B47266  32.445   6.809   7.350
 6932POPC   NC347267  37.703   9.748   5.550
 6932POPC   PO447268  37.682   9.759   5.850
 6932POPC   GL147269  37.655   9.716   6.150
 6932POPC   GL247270  37.714   9.656   6.150
 6932POPC   C1A47271  37.697   9.736   6.450
 6932POPC   D2A47272  37.672   9.760   6.750
 6932POPC   C3A47273  37.683   9.771   7.050
 6932POPC   C4A47274  37.685   9.753   7.350
 6932POPC   C1B47275  37.732   9.502   6.450
 6932POPC   C2B47276  37.794   9.528   6.750
 6932POPC   C3B47277  37.752   9.508   7.050
 6932POPC   C4B47278  37.732   9.542   7.350
 6933POPC   NC347279  31.506  25.993   5.550
 6933POPC   PO447280  31.438  26.086   5.850
 6933POPC   GL147281  31.439  26.068   6.150
 6933POPC   GL247282  31.352  25.988   6.150
 6933POPC   C1A47283  31.445  26.044   6.450
 6933POPC   D2A47284  31.439  26.075   6.750
 6933POPC   C3A47285  31.434  26.016   7.050
 6933POPC   C4A47286  31.445  25.997   7.350
 6933POPC   C1B47287  31.260  25.864   6.450
 6933POPC   C2B47288  31.246  25.864   6.750
 6933POPC   C3B47289  31.258  25.950   7.050
 6933POPC   C4B47290  31.269  25.949   7.350
 6934POPC   NC347291  20.576  24.520   5.550
 6934POPC   PO447292  20.629  24.465   5.850
 6934POPC   GL147293  20.647  24.524   6.150
 6934POPC   GL247294  20.528  24.437   6.150
 6934POPC   C1A47295  20.604  24.519   6.450
 6934POPC   D2A47296  20.573  24.453   6.750
 6934POPC   C3A47297  20.603  24.518   7.050
 6934POPC   C4A47298  20.640  24.497   7.350
 6934POPC   C1B47299  20.360  24.338   6.450
 6934POPC   C2B47300  20.406  24.339   6.750
 6934POPC   C3B47301  20.369  24.384   7.050
 6934POPC   C4B47302  20.387  24.336   7.350
 6935POPC   NC347303  29.162  27.604   5.550
 6935POPC   PO447304  29.109  27.621   5.850
 6935POPC   GL147305  29.168  27.637   6.150
 6935POPC   GL247306  29.175  27.739   6.150
 6935POPC   C1A47307  29.150  27.631   6.450
 6935POPC   D2A47308  29.188  27.612   6.750
 6935POPC   C3A47309  29.109  27.554   7.050
 6935POPC   C4A47310  29.147  27.602   7.350
 6935POPC   C1B47311  29.166  27.875   6.450
 6935POPC   C2B47312  29.225  27.866   6.750
 6935POPC   C3B47313  29.181  27.824   7.050
 6935POPC   C4B47314  29.151  27.800   7.350
 6936POPC   NC347315  29.187  43.157   5.550
 6936POPC   PO447316  29.099  43.106   5.850
 6936POPC   GL147317  29.101  43.138   6.150
 6936POPC   GL247318  29.139  42.951   6.150
 6936POPC   C1A47319  29.178  43.066   6.450
 6936POPC   D2A47320  29.125  43.127   6.750
 6936POPC   C3A47321  29.193  43.138   7.050
 6936POPC   C4A47322  29.188  43.072   7.350
 6936POPC   C1B47323  29.225  42.883   6.450
 6936POPC   C2B47324  29.233  42.823   6.750
 6936POPC   C3B47325  29.219  42.903   7.050
 6936POPC   C4B47326  29.205  42.871   7.350
 6937POPC   NC347327   6.689  23.674   5.550
 6937POPC   PO447328   6.607  23.682   5.850
 6937POPC   GL147329   6.648  23.746   6.150
 6937POPC   GL247330   6.521  23.630   6.150
 6937POPC   C1A47331   6.607  23.732   6.450
 6937POPC   D2A47332   6.618  23.760   6.750
 6937POPC   C3A47333   6.616  23.722   7.050
 6937POPC   C4A47334   6.628  23.719   7.350
 6937POPC   C1B47335   6.480  23.523   6.450
 6937POPC   C2B47336   6.528  23.526   6.750
 6937POPC   C3B47337   6.461  23.552   7.050
 6937POPC   C4B47338   6.478  23.546   7.350
 6938POPC   NC347339  37.643  28.320   5.550
 6938POPC   PO447340  37.678  28.388   5.850
 6938POPC   GL147341  37.704  28.340   6.150
 6938POPC   GL247342  37.790  28.457   6.150
 6938POPC   C1A47343  37.689  28.377   6.450
 6938POPC   D2A47344  37.682  28.331   6.750
 6938POPC   C3A47345  37.681  28.332   7.050
 6938POPC   C4A47346  37.680  28.338   7.350
 6938POPC   C1B47347  37.833  28.556   6.450
 6938POPC   C2B47348  37.773  28.578   6.750
 6938POPC   C3B47349  37.772  28.541   7.050
 6938POPC   C4B47350  37.798  28.552   7.350
 6939POPC   NC347351  33.768  19.041   5.550
 6939POPC   PO447352  33.787  19.086   5.850
 6939POPC   GL147353  33.787  19.045   6.150
 6939POPC   GL247354  33.858  18.986   6.150
 6939POPC   C1A47355  33.841  19.042   6.450
 6939POPC   D2A47356  33.776  19.053   6.750
 6939POPC   C3A47357  33.828  19.022   7.050
 6939POPC   C4A47358  33.803  19.064   7.350
 6939POPC   C1B47359  33.988  18.898   6.450
 6939POPC   C2B47360  33.971  18.889   6.750
 6939POPC   C3B47361  33.997  18.905   7.050
 6939POPC   C4B47362  33.995  18.889   7.350
 6940POPC   NC347363  36.863  34.535   5.550
 6940POPC   PO447364  36.922  34.595   5.850
 6940POPC   GL147365  36.905  34.611   6.150
 6940POPC   GL247366  36.932  34.693   6.150
 6940POPC   C1A47367  36.872  34.602   6.450
 6940POPC   D2A47368  36.935  34.595   6.750
 6940POPC   C3A47369  36.931  34.620   7.050
 6940POPC   C4A47370  36.953  34.584   7.350
 6940POPC   C1B47371  36.918  34.809   6.450
 6940POPC   C2B47372  36.981  34.813   6.750
 6940POPC   C3B47373  36.962  34.777   7.050
 6940POPC   C4B47374  36.939  34.786   7.350
 6941POPC   NC347375  20.620  26.009   5.550
 6941POPC   PO447376  20.596  25.994   5.850
 6941POPC   GL147377  20.637  26.030   6.150
 6941POPC   GL247378  20.494  26.171   6.150
 6941POPC   C1A47379  20.610  25.993   6.450
 6941POPC   D2A47380  20.660  26.023   6.750
 6941POPC   C3A47381  20.590  26.013   7.050
 6941POPC   C4A47382  20.658  26.067   7.350
 6941POPC   C1B47383  20.470  26.201   6.450
 6941POPC   C2B47384  20.408  26.268   6.750
 6941POPC   C3B47385  20.463  26.229   7.050
 6941POPC   C4B47386  20.445  26.208   7.350
 6942POPC   NC347387  43.865  44.631   5.550
 6942POPC   PO447388  43.892  44.686   5.850
 6942POPC   GL147389  43.871  44.640   6.150
 6942POPC   GL247390  43.843  44.732   6.150
 6942POPC   C1A47391  43.884  44.705   6.450
 6942POPC   D2A47392  43.918  44.673   6.750
 6942POPC   C3A47393  43.885  44.701   7.050
 6942POPC   C4A47394  43.874  44.670   7.350
 6942POPC   C1B47395  43.764  44.862   6.450
 6942POPC   C2B47396  43.793  44.894   6.750
 6942POPC   C3B47397  43.814  44.905   7.050
 6942POPC   C4B47398  43.848  44.874   7.350
 6943POPC   NC347399  29.938  40.031   5.550
 6943POPC   PO447400  29.903  40.033   5.850
 6943POPC   GL147401  29.873  40.024   6.150
 6943POPC   GL247402  29.940  40.134   6.150
 6943POPC   C1A47403  29.955  40.021   6.450
 6943POPC   D2A47404  29.944  40.057   6.750
 6943POPC   C3A47405  29.946  39.975   7.050
 6943POPC   C4A47406  29.933  39.973   7.350
 6943POPC   C1B47407  29.967  40.256   6.450
 6943POPC   C2B47408  29.968  40.241   6.750
 6943POPC   C3B47409  29.925  40.271   7.050
 6943POPC   C4B47410  29.979  40.301   7.350
 6944POPC   NC347411  12.842   8.187   5.550
 6944POPC   PO447412  12.859   8.205   5.850
 6944POPC   GL147413  12.850   8.227   6.150
 6944POPC   GL247414  12.937   8.090   6.150
 6944POPC   C1A47415  12.876   8.219   6.450
 6944POPC   D2A47416  12.837   8.194   6.750
 6944POPC   C3A47417  12.828   8.169   7.050
 6944POPC   C4A47418  12.873   8.240   7.350
 6944POPC   C1B47419  12.957   7.939   6.450
 6944POPC   C2B47420  12.921   7.937   6.750
 6944POPC   C3B47421  12.905   7.996   7.050
 6944POPC   C4B47422  12.986   7.965   7.350
 6945POPC   NC347423  28.377  18.320   5.550
 6945POPC   PO447424  28.398  18.318   5.850
 6945POPC   GL147425  28.319  18.327   6.150
 6945POPC   GL247426  28.260  18.299   6.150
 6945POPC   C1A47427  28.392  18.299   6.450
 6945POPC   D2A47428  28.332  18.321   6.750
 6945POPC   C3A47429  28.406  18.256   7.050
 6945POPC   C4A47430  28.380  18.235   7.350
 6945POPC   C1B47431  28.133  18.301   6.450
 6945POPC   C2B47432  28.153  18.276   6.750
 6945POPC   C3B47433  28.086  18.217   7.050
 6945POPC   C4B47434  28.076  18.275   7.350
 6946POPC   NC347435  20.636  14.396   5.550
 6946POPC   PO447436  20.589  14.449   5.850
 6946POPC   GL147437  20.604  14.416   6.150
 6946POPC   GL247438  20.487  14.468   6.150
 6946POPC   C1A47439  20.631  14.430   6.450
 6946POPC   D2A47440  20.653  14.377   6.750
 6946POPC   C3A47441  20.565  14.401   7.050
 6946POPC   C4A47442  20.606  14.362   7.350
 6946POPC   C1B47443  20.347  14.495   6.450
 6946POPC   C2B47444  20.431  14.460   6.750
 6946POPC   C3B47445  20.389  14.540   7.050
 6946POPC   C4B47446  20.416  14.490   7.350
 6947POPC   NC347447  14.367  42.292   5.550
 6947POPC   PO447448  14.435  42.345   5.850
 6947POPC   GL147449  14.434  42.333   6.150
 6947POPC   GL247450  14.561  42.293   6.150
 6947POPC   C1A47451  14.389  42.305   6.450
 6947POPC   D2A47452  14.437  42.350   6.750
 6947POPC   C3A47453  14.381  42.306   7.050
 6947POPC   C4A47454  14.400  42.384   7.350
 6947POPC   C1B47455  14.671  42.254   6.450
 6947POPC   C2B47456  14.611  42.213   6.750
 6947POPC   C3B47457  14.586  42.254   7.050
 6947POPC   C4B47458  14.659  42.190   7.350
 6948POPC   NC347459  34.573  43.870   5.550
 6948POPC   PO447460  34.583  43.932   5.850
 6948POPC   GL147461  34.573  43.901   6.150
 6948POPC   GL247462  34.668  43.840   6.150
 6948POPC   C1A47463  34.551  43.882   6.450
 6948POPC   D2A47464  34.593  43.914   6.750
 6948POPC   C3A47465  34.607  43.868   7.050
 6948POPC   C4A47466  34.592  43.907   7.350
 6948POPC   C1B47467  34.769  43.740   6.450
 6948POPC   C2B47468  34.768  43.699   6.750
 6948POPC   C3B47469  34.760  43.675   7.050
 6948POPC   C4B47470  34.717  43.750   7.350
 6949POPC   NC347471  43.936  29.902   5.550
 6949POPC   PO447472  43.847  29.891   5.850
 6949POPC   GL147473  43.852  29.966   6.150
 6949POPC   GL247474  44.030  29.942   6.150
 6949POPC   C1A47475  43.867  29.950   6.450
 6949POPC   D2A47476  43.894  29.903   6.750
 6949POPC   C3A47477  43.925  29.967   7.050
 6949POPC   C4A47478  43.913  29.888   7.350
 6949POPC   C1B47479  44.043  30.092   6.450
 6949POPC   C2B47480  44.129  30.094   6.750
 6949POPC   C3B47481  44.104  30.042   7.050
 6949POPC   C4B47482  44.054  30.050   7.350
 6950POPC   NC347483   8.184  14.391   5.550
 6950POPC   PO447484   8.192  14.404   5.850
 6950POPC   GL147485   8.206  14.389   6.150
 6950POPC   GL247486   8.364  14.376   6.150
 6950POPC   C1A47487   8.165  14.423   6.450
 6950POPC   D2A47488   8.192  14.441   6.750
 6950POPC   C3A47489   8.150  14.414   7.050
 6950POPC   C4A47490   8.196  14.384   7.350
 6950POPC   C1B47491   8.433  14.316   6.450
 6950POPC   C2B47492   8.398  14.337   6.750
 6950POPC   C3B47493   8.437  14.386   7.050
 6950POPC   C4B47494   8.416  14.401   7.350
 6951POPC   NC347495   2.720  33.009   5.550
 6951POPC   PO447496   2.751  33.067   5.850
 6951POPC   GL147497   2.773  32.995   6.150
 6951POPC   GL247498   2.834  32.949   6.150
 6951POPC   C1A47499   2.791  32.993   6.450
 6951POPC   D2A47500   2.716  33.056   6.750
 6951POPC   C3A47501   2.750  33.045   7.050
 6951POPC   C4A47502   2.771  33.051   7.350
 6951POPC   C1B47503   2.892  32.799   6.450
 6951POPC   C2B47504   2.935  32.847   6.750
 6951POPC   C3B47505   2.897  32.840   7.050
 6951POPC   C4B47506   2.911  32.804   7.350
 6952POPC   NC347507  15.176  20.616   5.550
 6952POPC   PO447508  15.139  20.567   5.850
 6952POPC   GL147509  15.184  20.596   6.150
 6952POPC   GL247510  15.208  20.689   6.150
 6952POPC   C1A47511  15.173  20.634   6.450
 6952POPC   D2A47512  15.167  20.636   6.750
 6952POPC   C3A47513  15.226  20.564   7.050
 6952POPC   C4A47514  15.176  20.632   7.350
 6952POPC   C1B47515  15.231  20.861   6.450
 6952POPC   C2B47516  15.201  20.828   6.750
 6952POPC   C3B47517  15.187  20.891   7.050
 6952POPC   C4B47518  15.174  20.884   7.350
 6953POPC   NC347519  10.565  41.527   5.550
 6953POPC   PO447520  10.540  41.586   5.850
 6953POPC   GL147521  10.546  41.569   6.150
 6953POPC   GL247522  10.678  41.553   6.150
 6953POPC   C1A47523  10.476  41.523   6.450
 6953POPC   D2A47524  10.507  41.513   6.750
 6953POPC   C3A47525  10.526  41.600   7.050
 6953POPC   C4A47526  10.498  41.581   7.350
 6953POPC   C1B47527  10.730  41.504   6.450
 6953POPC   C2B47528  10.801  41.575   6.750
 6953POPC   C3B47529  10.759  41.575   7.050
 6953POPC   C4B47530  10.773  41.526   7.350
 6954POPC   NC347531  33.839   3.563   5.550
 6954POPC   PO447532  33.806   3.534   5.850
 6954POPC   GL147533  33.799   3.582   6.150
 6954POPC   GL247534  33.914   3.570   6.150
 6954POPC   C1A47535  33.774   3.496   6.450
 6954POPC   D2A47536  33.841   3.535   6.750
 6954POPC   C3A47537  33.814   3.561   7.050
 6954POPC   C4A47538  33.841   3.557   7.350
 6954POPC   C1B47539  34.047   3.569   6.450
 6954POPC   C2B47540  34.089   3.584   6.750
 6954POPC   C3B47541  34.005   3.638   7.050
 6954POPC   C4B47542  34.037   3.622   7.350
 6955POPC   NC347543  40.740  14.385   5.550
 6955POPC   PO447544  40.768  14.418   5.850
 6955POPC   GL147545  40.749  14.429   6.150
 6955POPC   GL247546  40.684  14.337   6.150
 6955POPC   C1A47547  40.808  14.406   6.450
 6955POPC   D2A47548  40.812  14.378   6.750
 6955POPC   C3A47549  40.797  14.444   7.050
 6955POPC   C4A47550  40.831  14.416   7.350
 6955POPC   C1B47551  40.557  14.379   6.450
 6955POPC   C2B47552  40.489  14.347   6.750
 6955POPC   C3B47553  40.561  14.390   7.050
 6955POPC   C4B47554  40.573  14.392   7.350
 6956POPC   NC347555   9.021   5.838   5.550
 6956POPC   PO447556   8.956   5.851   5.850
 6956POPC   GL147557   8.984   5.849   6.150
 6956POPC   GL247558   8.814   5.825   6.150
 6956POPC   C1A47559   8.967   5.868   6.450
 6956POPC   D2A47560   8.955   5.868   6.750
 6956POPC   C3A47561   8.984   5.893   7.050
 6956POPC   C4A47562   8.997   5.858   7.350
 6956POPC   C1B47563   8.778   5.735   6.450
 6956POPC   C2B47564   8.693   5.819   6.750
 6956POPC   C3B47565   8.699   5.762   7.050
 6956POPC   C4B47566   8.782   5.733   7.350
 6957POPC   NC347567  38.440  39.998   5.550
 6957POPC   PO447568  38.503  40.004   5.850
 6957POPC   GL147569  38.486  39.957   6.150
 6957POPC   GL247570  38.373  40.067   6.150
 6957POPC   C1A47571  38.485  40.040   6.450
 6957POPC   D2A47572  38.461  40.023   6.750
 6957POPC   C3A47573  38.460  40.027   7.050
 6957POPC   C4A47574  38.468  40.053   7.350
 6957POPC   C1B47575  38.196  40.111   6.450
 6957POPC   C2B47576  38.268  40.170   6.750
 6957POPC   C3B47577  38.227  40.089   7.050
 6957POPC   C4B47578  38.211  40.123   7.350
 6958POPC   NC347579  35.316  10.500   5.550
 6958POPC   PO447580  35.396  10.527   5.850
 6958POPC   GL147581  35.397  10.560   6.150
 6958POPC   GL247582  35.466  10.506   6.150
 6958POPC   C1A47583  35.344  10.477   6.450
 6958POPC   D2A47584  35.304  10.479   6.750
 6958POPC   C3A47585  35.327  10.504   7.050
 6958POPC   C4A47586  35.307  10.563   7.350
 6958POPC   C1B47587  35.617  10.465   6.450
 6958POPC   C2B47588  35.559  10.455   6.750
 6958POPC   C3B47589  35.552  10.447   7.050
 6958POPC   C4B47590  35.572  10.464   7.350
 6959POPC   NC347591  26.858  29.145   5.550
 6959POPC   PO447592  26.806  29.134   5.850
 6959POPC   GL147593  26.819  29.174   6.150
 6959POPC   GL247594  26.867  29.028   6.150
 6959POPC   C1A47595  26.779  29.136   6.450
 6959POPC   D2A47596  26.788  29.149   6.750
 6959POPC   C3A47597  26.844  29.116   7.050
 6959POPC   C4A47598  26.803  29.151   7.350
 6959POPC   C1B47599  26.860  28.918   6.450
 6959POPC   C2B47600  26.878  28.904   6.750
 6959POPC   C3B47601  26.849  28.898   7.050
 6959POPC   C4B47602  26.853  28.922   7.350
 6960POPC   NC347603  14.430  18.261   5.550
 6960POPC   PO447604  14.390  18.330   5.850
 6960POPC   GL147605  14.433  18.293   6.150
 6960POPC   GL247606  14.554  18.218   6.150
 6960POPC   C1A47607  14.364  18.293   6.450
 6960POPC   D2A47608  14.399  18.290   6.750
 6960POPC   C3A47609  14.376  18.258   7.050
 6960POPC   C4A47610  14.374  18.321   7.350
 6960POPC   C1B47611  14.584  18.138   6.450
 6960POPC   C2B47612  14.662  18.122   6.750
 6960POPC   C3B47613  14.581  18.177   7.050
 6960POPC   C4B47614  14.634  18.160   7.350
 6961POPC   NC347615  40.044  41.532   5.550
 6961POPC   PO447616  40.039  41.598   5.850
 6961POPC   GL147617  40.035  41.560   6.150
 6961POPC   GL247618  39.986  41.692   6.150
 6961POPC   C1A47619  40.048  41.559   6.450
 6961POPC   D2A47620  39.989  41.558   6.750
 6961POPC   C3A47621  40.035  41.529   7.050
 6961POPC   C4A47622  39.959  41.563   7.350
 6961POPC   C1B47623  39.959  41.773   6.450
 6961POPC   C2B47624  39.948  41.788   6.750
 6961POPC   C3B47625  39.907  41.819   7.050
 6961POPC   C4B47626  39.918  41.815   7.350
 6962POPC   NC347627  27.546   2.750   5.550
 6962POPC   PO447628  27.551   2.754   5.850
 6962POPC   GL147629  27.577   2.734   6.150
 6962POPC   GL247630  27.673   2.843   6.150
 6962POPC   C1A47631  27.560   2.813   6.450
 6962POPC   D2A47632  27.558   2.760   6.750
 6962POPC   C3A47633  27.602   2.740   7.050
 6962POPC   C4A47634  27.628   2.780   7.350
 6962POPC   C1B47635  27.782   2.906   6.450
 6962POPC   C2B47636  27.861   2.825   6.750
 6962POPC   C3B47637  27.784   2.913   7.050
 6962POPC   C4B47638  27.827   2.825   7.350
 6963POPC   NC347639  15.172  22.898   5.550
 6963POPC   PO447640  15.177  22.898   5.850
 6963POPC   GL147641  15.220  22.930   6.150
 6963POPC   GL247642  15.315  23.055   6.150
 6963POPC   C1A47643  15.147  22.909   6.450
 6963POPC   D2A47644  15.158  22.966   6.750
 6963POPC   C3A47645  15.216  22.918   7.050
 6963POPC   C4A47646  15.209  22.943   7.350
 6963POPC   C1B47647  15.358  23.038   6.450
 6963POPC   C2B47648  15.338  23.116   6.750
 6963POPC   C3B47649  15.343  23.129   7.050
 6963POPC   C4B47650  15.426  23.098   7.350
 6964POPC   NC347651  29.131  40.803   5.550
 6964POPC   PO447652  29.185  40.738   5.850
 6964POPC   GL147653  29.163  40.738   6.150
 6964POPC   GL247654  29.216  40.682   6.150
 6964POPC   C1A47655  29.147  40.744   6.450
 6964POPC   D2A47656  29.125  40.756   6.750
 6964POPC   C3A47657  29.112  40.765   7.050
 6964POPC   C4A47658  29.105  40.789   7.350
 6964POPC   C1B47659  29.294  40.613   6.450
 6964POPC   C2B47660  29.322  40.638   6.750
 6964POPC   C3B47661  29.319  40.627   7.050
 6964POPC   C4B47662  29.277  40.593   7.350
 6965POPC   NC347663  24.489   5.902   5.550
 6965POPC   PO447664  24.506   5.881   5.850
 6965POPC   GL147665  24.503   5.914   6.150
 6965POPC   GL247666  24.384   5.938   6.150
 6965POPC   C1A47667  24.512   5.882   6.450
 6965POPC   D2A47668  24.466   5.887   6.750
 6965POPC   C3A47669  24.491   5.879   7.050
 6965POPC   C4A47670  24.440   5.907   7.350
 6965POPC   C1B47671  24.263   5.888   6.450
 6965POPC   C2B47672  24.208   5.917   6.750
 6965POPC   C3B47673  24.290   5.926   7.050
 6965POPC   C4B47674  24.280   5.938   7.350
 6966POPC   NC347675  12.089   3.500   5.550
 6966POPC   PO447676  12.098   3.550   5.850
 6966POPC   GL147677  12.116   3.546   6.150
 6966POPC   GL247678  12.095   3.433   6.150
 6966POPC   C1A47679  12.095   3.509   6.450
 6966POPC   D2A47680  12.067   3.556   6.750
 6966POPC   C3A47681  12.105   3.585   7.050
 6966POPC   C4A47682  12.035   3.583   7.350
 6966POPC   C1B47683  12.239   3.281   6.450
 6966POPC   C2B47684  12.174   3.307   6.750
 6966POPC   C3B47685  12.201   3.336   7.050
 6966POPC   C4B47686  12.202   3.308   7.350
 6967POPC   NC347687  44.615  12.082   5.550
 6967POPC   PO447688  44.645  12.087   5.850
 6967POPC   GL147689  44.626  12.122   6.150
 6967POPC   GL247690  44.769  12.043   6.150
 6967POPC   C1A47691  44.651  12.037   6.450
 6967POPC   D2A47692  44.669  12.042   6.750
 6967POPC   C3A47693  44.665  12.075   7.050
 6967POPC   C4A47694  44.690  12.115   7.350
 6967POPC   C1B47695  44.927  11.933   6.450
 6967POPC   C2B47696  44.927  11.977   6.750
 6967POPC   C3B47697  44.921  12.017   7.050
 6967POPC   C4B47698  44.920  11.947   7.350
 6968POPC   NC347699  41.547  31.444   5.550
 6968POPC   PO447700  41.576  31.438   5.850
 6968POPC   GL147701  41.554  31.509   6.150
 6968POPC   GL247702  41.388  31.492   6.150
 6968POPC   C1A47703  41.528  31.424   6.450
 6968POPC   D2A47704  41.515  31.493   6.750
 6968POPC   C3A47705  41.577  31.425   7.050
 6968POPC   C4A47706  41.574  31.467   7.350
 6968POPC   C1B47707  41.344  31.451   6.450
 6968POPC   C2B47708  41.321  31.489   6.750
 6968POPC   C3B47709  41.337  31.483   7.050
 6968POPC   C4B47710  41.291  31.535   7.350
 6969POPC   NC347711  15.990  15.153   5.550
 6969POPC   PO447712  15.919  15.129   5.850
 6969POPC   GL147713  15.949  15.159   6.150
 6969POPC   GL247714  15.975  15.332   6.150
 6969POPC   C1A47715  15.961  15.192   6.450
 6969POPC   D2A47716  15.956  15.162   6.750
 6969POPC   C3A47717  15.912  15.227   7.050
 6969POPC   C4A47718  15.961  15.208   7.350
 6969POPC   C1B47719  16.052  15.409   6.450
 6969POPC   C2B47720  16.103  15.401   6.750
 6969POPC   C3B47721  16.035  15.360   7.050
 6969POPC   C4B47722  16.096  15.422   7.350
 6970POPC   NC347723  36.102  26.068   5.550
 6970POPC   PO447724  36.134  26.084   5.850
 6970POPC   GL147725  36.150  26.018   6.150
 6970POPC   GL247726  36.246  26.011   6.150
 6970POPC   C1A47727  36.107  26.051   6.450
 6970POPC   D2A47728  36.096  26.067   6.750
 6970POPC   C3A47729  36.149  26.061   7.050
 6970POPC   C4A47730  36.134  26.024   7.350
 6970POPC   C1B47731  36.347  25.856   6.450
 6970POPC   C2B47732  36.290  25.929   6.750
 6970POPC   C3B47733  36.369  25.931   7.050
 6970POPC   C4B47734  36.296  25.946   7.350
 6971POPC   NC347735  40.783  32.229   5.550
 6971POPC   PO447736  40.752  32.199   5.850
 6971POPC   GL147737  40.744  32.296   6.150
 6971POPC   GL247738  40.919  32.222   6.150
 6971POPC   C1A47739  40.804  32.242   6.450
 6971POPC   D2A47740  40.737  32.240   6.750
 6971POPC   C3A47741  40.822  32.216   7.050
 6971POPC   C4A47742  40.764  32.281   7.350
 6971POPC   C1B47743  40.969  32.101   6.450
 6971POPC   C2B47744  41.035  32.113   6.750
 6971POPC   C3B47745  41.019  32.076   7.050
 6971POPC   C4B47746  41.015  32.060   7.350
 6972POPC   NC347747  25.265   2.717   5.550
 6972POPC   PO447748  25.308   2.744   5.850
 6972POPC   GL147749  25.266   2.765   6.150
 6972POPC   GL247750  25.149   2.781   6.150
 6972POPC   C1A47751  25.268   2.728   6.450
 6972POPC   D2A47752  25.235   2.775   6.750
 6972POPC   C3A47753  25.290   2.767   7.050
 6972POPC   C4A47754  25.220   2.794   7.350
 6972POPC   C1B47755  25.088   2.890   6.450
 6972POPC   C2B47756  25.046   2.882   6.750
 6972POPC   C3B47757  25.077   2.912   7.050
 6972POPC   C4B47758  25.071   2.899   7.350
 6973POPC   NC347759  12.832  38.488   5.550
 6973POPC   PO447760  12.803  38.441   5.850
 6973POPC   GL147761  12.881  38.502   6.150
 6973POPC   GL247762  12.976  38.513   6.150
 6973POPC   C1A47763  12.857  38.431   6.450
 6973POPC   D2A47764  12.805  38.475   6.750
 6973POPC   C3A47765  12.813  38.480   7.050
 6973POPC   C4A47766  12.834  38.432   7.350
 6973POPC   C1B47767  13.074  38.603   6.450
 6973POPC   C2B47768  13.023  38.601   6.750
 6973POPC   C3B47769  13.095  38.548   7.050
 6973POPC   C4B47770  13.121  38.585   7.350
 6974POPC   NC347771  43.908  22.950   5.550
 6974POPC   PO447772  43.852  22.961   5.850
 6974POPC   GL147773  43.923  22.922   6.150
 6974POPC   GL247774  43.963  22.912   6.150
 6974POPC   C1A47775  43.843  22.899   6.450
 6974POPC   D2A47776  43.901  22.897   6.750
 6974POPC   C3A47777  43.913  22.896   7.050
 6974POPC   C4A47778  43.841  22.961   7.350
 6974POPC   C1B47779  44.094  22.904   6.450
 6974POPC   C2B47780  44.156  22.829   6.750
 6974POPC   C3B47781  44.128  22.867   7.050
 6974POPC   C4B47782  44.137  22.811   7.350
 6975POPC   NC347783  26.074  44.708   5.550
 6975POPC   PO447784  25.997  44.704   5.850
 6975POPC   GL147785  26.005  44.655   6.150
 6975POPC   GL247786  26.191  44.674   6.150
 6975POPC   C1A47787  26.000  44.670   6.450
 6975POPC   D2A47788  26.080  44.710   6.750
 6975POPC   C3A47789  26.057  44.651   7.050
 6975POPC   C4A47790  26.053  44.673   7.350
 6975POPC   C1B47791  26.237  44.755   6.450
 6975POPC   C2B47792  26.304  44.829   6.750
 6975POPC   C3B47793  26.261  44.799   7.050
 6975POPC   C4B47794  26.308  44.816   7.350
 6976POPC   NC347795   2.749  24.441   5.550
 6976POPC   PO447796   2.727  24.519   5.850
 6976POPC   GL147797   2.750  24.450   6.150
 6976POPC   GL247798   2.870  24.430   6.150
 6976POPC   C1A47799   2.770  24.501   6.450
 6976POPC   D2A47800   2.795  24.495   6.750
 6976POPC   C3A47801   2.764  24.535   7.050
 6976POPC   C4A47802   2.815  24.508   7.350
 6976POPC   C1B47803   2.882  24.310   6.450
 6976POPC   C2B47804   2.926  24.231   6.750
 6976POPC   C3B47805   2.952  24.230   7.050
 6976POPC   C4B47806   2.927  24.290   7.350
 6977POPC   NC347807   8.945  13.617   5.550
 6977POPC   PO447808   8.935  13.604   5.850
 6977POPC   GL147809   9.008  13.593   6.150
 6977POPC   GL247810   8.923  13.512   6.150
 6977POPC   C1A47811   8.968  13.599   6.450
 6977POPC   D2A47812   8.966  13.665   6.750
 6977POPC   C3A47813   8.936  13.581   7.050
 6977POPC   C4A47814   8.944  13.647   7.350
 6977POPC   C1B47815   8.740  13.470   6.450
 6977POPC   C2B47816   8.777  13.429   6.750
 6977POPC   C3B47817   8.733  13.481   7.050
 6977POPC   C4B47818   8.730  13.511   7.350
 6978POPC   NC347819  40.813   3.563   5.550
 6978POPC   PO447820  40.798   3.518   5.850
 6978POPC   GL147821  40.751   3.567   6.150
 6978POPC   GL247822  40.830   3.394   6.150
 6978POPC   C1A47823  40.803   3.531   6.450
 6978POPC   D2A47824  40.809   3.527   6.750
 6978POPC   C3A47825  40.764   3.518   7.050
 6978POPC   C4A47826  40.796   3.539   7.350
 6978POPC   C1B47827  40.847   3.327   6.450
 6978POPC   C2B47828  40.814   3.312   6.750
 6978POPC   C3B47829  40.757   3.258   7.050
 6978POPC   C4B47830  40.799   3.315   7.350
 6979POPC   NC347831  36.170  25.300   5.550
 6979POPC   PO447832  36.141  25.245   5.850
 6979POPC   GL147833  36.111  25.223   6.150
 6979POPC   GL247834  36.246  25.260   6.150
 6979POPC   C1A47835  36.130  25.218   6.450
 6979POPC   D2A47836  36.160  25.301   6.750
 6979POPC   C3A47837  36.094  25.253   7.050
 6979POPC   C4A47838  36.162  25.299   7.350
 6979POPC   C1B47839  36.350  25.219   6.450
 6979POPC   C2B47840  36.362  25.172   6.750
 6979POPC   C3B47841  36.343  25.203   7.050
 6979POPC   C4B47842  36.330  25.243   7.350
 6980POPC   NC347843  40.759  42.285   5.550
 6980POPC   PO447844  40.772  42.366   5.850
 6980POPC   GL147845  40.785  42.376   6.150
 6980POPC   GL247846  40.689  42.215   6.150
 6980POPC   C1A47847  40.803  42.329   6.450
 6980POPC   D2A47848  40.768  42.382   6.750
 6980POPC   C3A47849  40.826  42.325   7.050
 6980POPC   C4A47850  40.760  42.285   7.350
 6980POPC   C1B47851  40.648  42.150   6.450
 6980POPC   C2B47852  40.706  42.134   6.750
 6980POPC   C3B47853  40.689  42.148   7.050
 6980POPC   C4B47854  40.695  42.067   7.350
 6981POPC   NC347855  18.294  42.381   5.550
 6981POPC   PO447856  18.302  42.325   5.850
 6981POPC   GL147857  18.322  42.317   6.150
 6981POPC   GL247858  18.248  42.224   6.150
 6981POPC   C1A47859  18.290  42.315   6.450
 6981POPC   D2A47860  18.272  42.381   6.750
 6981POPC   C3A47861  18.311  42.345   7.050
 6981POPC   C4A47862  18.316  42.324   7.350
 6981POPC   C1B47863  18.149  42.153   6.450
 6981POPC   C2B47864  18.176  42.108   6.750
 6981POPC   C3B47865  18.114  42.131   7.050
 6981POPC   C4B47866  18.166  42.155   7.350
 6982POPC   NC347867  10.519   5.121   5.550
 6982POPC   PO447868  10.502   5.097   5.850
 6982POPC   GL147869  10.521   5.073   6.150
 6982POPC   GL247870  10.629   5.112   6.150
 6982POPC   C1A47871  10.557   5.134   6.450
 6982POPC   D2A47872  10.478   5.064   6.750
 6982POPC   C3A47873  10.488   5.071   7.050
 6982POPC   C4A47874  10.482   5.070   7.350
 6982POPC   C1B47875  10.814   5.095   6.450
 6982POPC   C2B47876  10.796   5.049   6.750
 6982POPC   C3B47877  10.789   5.086   7.050
 6982POPC   C4B47878  10.773   5.100   7.350
 6983POPC   NC347879  13.590  26.831   5.550
 6983POPC   PO447880  13.673  26.844   5.850
 6983POPC   GL147881  13.595  26.770   6.150
 6983POPC   GL247882  13.517  26.735   6.150
 6983POPC   C1A47883  13.640  26.795   6.450
 6983POPC   D2A47884  13.649  26.780   6.750
 6983POPC   C3A47885  13.630  26.812   7.050
 6983POPC   C4A47886  13.620  26.836   7.350
 6983POPC   C1B47887  13.468  26.659   6.450
 6983POPC   C2B47888  13.453  26.717   6.750
 6983POPC   C3B47889  13.387  26.651   7.050
 6983POPC   C4B47890  13.424  26.676   7.350
 6984POPC   NC347891   0.465  29.104   5.550
 6984POPC   PO447892   0.459  29.097   5.850
 6984POPC   GL147893   0.417  29.182   6.150
 6984POPC   GL247894   0.385  29.039   6.150
 6984POPC   C1A47895   0.454  29.118   6.450
 6984POPC   D2A47896   0.412  29.176   6.750
 6984POPC   C3A47897   0.413  29.183   7.050
 6984POPC   C4A47898   0.483  29.114   7.350
 6984POPC   C1B47899   0.290  28.987   6.450
 6984POPC   C2B47900   0.291  28.908   6.750
 6984POPC   C3B47901   0.316  28.908   7.050
 6984POPC   C4B47902   0.247  28.985   7.350
 6985POPC   NC347903  18.247  15.172   5.550
 6985POPC   PO447904  18.324  15.202   5.850
 6985POPC   GL147905  18.271  15.156   6.150
 6985POPC   GL247906  18.355  15.011   6.150
 6985POPC   C1A47907  18.292  15.178   6.450
 6985POPC   D2A47908  18.251  15.221   6.750
 6985POPC   C3A47909  18.235  15.187   7.050
 6985POPC   C4A47910  18.315  15.226   7.350
 6985POPC   C1B47911  18.300  14.971   6.450
 6985POPC   C2B47912  18.312  14.884   6.750
 6985POPC   C3B47913  18.377  14.981   7.050
 6985POPC   C4B47914  18.354  14.974   7.350
 6986POPC   NC347915   4.330  41.511   5.550
 6986POPC   PO447916   4.274  41.603   5.850
 6986POPC   GL147917   4.366  41.603   6.150
 6986POPC   GL247918   4.210  41.620   6.150
 6986POPC   C1A47919   4.313  41.577   6.450
 6986POPC   D2A47920   4.339  41.597   6.750
 6986POPC   C3A47921   4.290  41.536   7.050
 6986POPC   C4A47922   4.302  41.526   7.350
 6986POPC   C1B47923   4.069  41.665   6.450
 6986POPC   C2B47924   4.158  41.672   6.750
 6986POPC   C3B47925   4.134  41.734   7.050
 6986POPC   C4B47926   4.145  41.752   7.350
 6987POPC   NC347927  33.812   5.872   5.550
 6987POPC   PO447928  33.802   5.895   5.850
 6987POPC   GL147929  33.789   5.859   6.150
 6987POPC   GL247930  33.940   5.884   6.150
 6987POPC   C1A47931  33.840   5.825   6.450
 6987POPC   D2A47932  33.762   5.852   6.750
 6987POPC   C3A47933  33.835   5.890   7.050
 6987POPC   C4A47934  33.849   5.841   7.350
 6987POPC   C1B47935  34.080   5.875   6.450
 6987POPC   C2B47936  34.063   5.874   6.750
 6987POPC   C3B47937  34.054   5.870   7.050
 6987POPC   C4B47938  34.048   5.820   7.350
 6988POPC   NC347939  42.306  30.721   5.550
 6988POPC   PO447940  42.352  30.696   5.850
 6988POPC   GL147941  42.359  30.729   6.150
 6988POPC   GL247942  42.424  30.587   6.150
 6988POPC   C1A47943  42.316  30.701   6.450
 6988POPC   D2A47944  42.340  30.660   6.750
 6988POPC   C3A47945  42.358  30.715   7.050
 6988POPC   C4A47946  42.302  30.650   7.350
 6988POPC   C1B47947  42.490  30.495   6.450
 6988POPC   C2B47948  42.544  30.498   6.750
 6988POPC   C3B47949  42.501  30.513   7.050
 6988POPC   C4B47950  42.495  30.471   7.350
 6989POPC   NC347951   2.784  43.906   5.550
 6989POPC   PO447952   2.799  43.896   5.850
 6989POPC   GL147953   2.735  43.855   6.150
 6989POPC   GL247954   2.885  43.988   6.150
 6989POPC   C1A47955   2.752  43.878   6.450
 6989POPC   D2A47956   2.769  43.876   6.750
 6989POPC   C3A47957   2.811  43.896   7.050
 6989POPC   C4A47958   2.780  43.871   7.350
 6989POPC   C1B47959   2.953  44.080   6.450
 6989POPC   C2B47960   2.883  44.045   6.750
 6989POPC   C3B47961   2.896  44.099   7.050
 6989POPC   C4B47962   2.929  44.068   7.350
 6990POPC   NC347963  29.181  42.306   5.550
 6990POPC   PO447964  29.144  42.309   5.850
 6990POPC   GL147965  29.153  42.361   6.150
 6990POPC   GL247966  29.166  42.216   6.150
 6990POPC   C1A47967  29.101  42.335   6.450
 6990POPC   D2A47968  29.193  42.370   6.750
 6990POPC   C3A47969  29.123  42.300   7.050
 6990POPC   C4A47970  29.098  42.292   7.350
 6990POPC   C1B47971  29.198  42.040   6.450
 6990POPC   C2B47972  29.164  42.132   6.750
 6990POPC   C3B47973  29.188  42.098   7.050
 6990POPC   C4B47974  29.151  42.049   7.350
 6991POPC   NC347975  38.486  22.908   5.550
 6991POPC   PO447976  38.495  22.899   5.850
 6991POPC   GL147977  38.470  22.935   6.150
 6991POPC   GL247978  38.306  22.887   6.150
 6991POPC   C1A47979  38.406  22.965   6.450
 6991POPC   D2A47980  38.482  22.937   6.750
 6991POPC   C3A47981  38.416  22.906   7.050
 6991POPC   C4A47982  38.449  22.889   7.350
 6991POPC   C1B47983  38.234  22.879   6.450
 6991POPC   C2B47984  38.208  22.902   6.750
 6991POPC   C3B47985  38.253  22.862   7.050
 6991POPC   C4B47986  38.184  22.896   7.350
 6992POPC   NC347987   5.835  12.058   5.550
 6992POPC   PO447988   5.832  12.030   5.850
 6992POPC   GL147989   5.909  12.031   6.150
 6992POPC   GL247990   5.746  12.036   6.150
 6992POPC   C1A47991   5.837  12.052   6.450
 6992POPC   D2A47992   5.868  12.088   6.750
 6992POPC   C3A47993   5.899  12.051   7.050
 6992POPC   C4A47994   5.910  12.056   7.350
 6992POPC   C1B47995   5.648  12.081   6.450
 6992POPC   C2B47996   5.619  12.059   6.750
 6992POPC   C3B47997   5.653  12.121   7.050
 6992POPC   C4B47998   5.663  12.118   7.350
 6993POPC   NC347999  29.877   7.468   5.550
 6993POPC   PO448000  29.939   7.386   5.850
 6993POPC   GL148001  29.970   7.452   6.150
 6993POPC   GL248002  29.821   7.314   6.150
 6993POPC   C1A48003  29.962   7.461   6.450
 6993POPC   D2A48004  29.907   7.449   6.750
 6993POPC   C3A48005  29.944   7.450   7.050
 6993POPC   C4A48006  29.962   7.427   7.350
 6993POPC   C1B48007  29.745   7.280   6.450
 6993POPC   C2B48008  29.709   7.234   6.750
 6993POPC   C3B48009  29.709   7.280   7.050
 6993POPC   C4B48010  29.727   7.278   7.350
 6994POPC   NC348011  13.592  43.102   5.550
 6994POPC   PO448012  13.601  43.095   5.850
 6994POPC   GL148013  13.677  43.120   6.150
 6994POPC   GL248014  13.745  43.203   6.150
 6994POPC   C1A48015  13.591  43.079   6.450
 6994POPC   D2A48016  13.655  43.157   6.750
 6994POPC   C3A48017  13.670  43.134   7.050
 6994POPC   C4A48018  13.589  43.103   7.350
 6994POPC   C1B48019  13.759  43.298   6.450
 6994POPC   C2B48020  13.748  43.340   6.750
 6994POPC   C3B48021  13.812  43.297   7.050
 6994POPC   C4B48022  13.798  43.269   7.350
 6995POPC   NC348023   5.849  12.856   5.550
 6995POPC   PO448024   5.902  12.834   5.850
 6995POPC   GL148025   5.867  12.891   6.150
 6995POPC   GL248026   5.778  12.910   6.150
 6995POPC   C1A48027   5.916  12.837   6.450
 6995POPC   D2A48028   5.851  12.866   6.750
 6995POPC   C3A48029   5.823  12.822   7.050
 6995POPC   C4A48030   5.905  12.857   7.350
 6995POPC   C1B48031   5.735  13.105   6.450
 6995POPC   C2B48032   5.727  13.021   6.750
 6995POPC   C3B48033   5.769  13.112   7.050
 6995POPC   C4B48034   5.745  13.081   7.350
 6996POPC   NC348035  22.980  38.497   5.550
 6996POPC   PO448036  22.898  38.430   5.850
 6996POPC   GL148037  22.947  38.460   6.150
 6996POPC   GL248038  22.964  38.593   6.150
 6996POPC   C1A48039  22.966  38.434   6.450
 6996POPC   D2A48040  22.905  38.444   6.750
 6996POPC   C3A48041  22.964  38.444   7.050
 6996POPC   C4A48042  22.896  38.477   7.350
 6996POPC   C1B48043  22.880  38.717   6.450
 6996POPC   C2B48044  22.889  38.730   6.750
 6996POPC   C3B48045  22.893  38.669   7.050
 6996POPC   C4B48046  22.927  38.665   7.350
 6997POPC   NC348047   7.411  22.903   5.550
 6997POPC   PO448048   7.458  22.951   5.850
 6997POPC   GL148049   7.395  22.955   6.150
 6997POPC   GL248050   7.306  22.977   6.150
 6997POPC   C1A48051   7.414  22.957   6.450
 6997POPC   D2A48052   7.452  22.957   6.750
 6997POPC   C3A48053   7.454  22.965   7.050
 6997POPC   C4A48054   7.416  22.908   7.350
 6997POPC   C1B48055   7.122  22.958   6.450
 6997POPC   C2B48056   7.184  22.896   6.750
 6997POPC   C3B48057   7.128  22.958   7.050
 6997POPC   C4B48058   7.134  22.959   7.350
 6998POPC   NC348059  33.004  17.467   5.550
 6998POPC   PO448060  32.984  17.490   5.850
 6998POPC   GL148061  33.005  17.532   6.150
 6998POPC   GL248062  32.866  17.516   6.150
 6998POPC   C1A48063  33.033  17.479   6.450
 6998POPC   D2A48064  33.016  17.481   6.750
 6998POPC   C3A48065  33.045  17.496   7.050
 6998POPC   C4A48066  33.063  17.467   7.350
 6998POPC   C1B48067  32.724  17.538   6.450
 6998POPC   C2B48068  32.762  17.560   6.750
 6998POPC   C3B48069  32.753  17.489   7.050
 6998POPC   C4B48070  32.793  17.483   7.350
 6999POPC   NC348071  40.751  17.486   5.550
 6999POPC   PO448072  40.829  17.516   5.850
 6999POPC   GL148073  40.777  17.458   6.150
 6999POPC   GL248074  40.848  17.486   6.150
 6999POPC   C1A48075  40.813  17.486   6.450
 6999POPC   D2A48076  40.754  17.469   6.750
 6999POPC   C3A48077  40.809  17.522   7.050
 6999POPC   C4A48078  40.767  17.477   7.350
 6999POPC   C1B48079  41.027  17.404   6.450
 6999POPC   C2B48080  40.978  17.382   6.750
 6999POPC   C3B48081  41.018  17.439   7.050
 6999POPC   C4B48082  41.046  17.442   7.350
 7000POPC   NC348083  43.858   5.826   5.550
 7000POPC   PO448084  43.889   5.872   5.850
 7000POPC   GL148085  43.855   5.899   6.150
 7000POPC   GL248086  43.756   5.735   6.150
 7000POPC   C1A48087  43.920   5.887   6.450
 7000POPC   D2A48088  43.870   5.911   6.750
 7000POPC   C3A48089  43.925   5.832   7.050
 7000POPC   C4A48090  43.921   5.879   7.350
 7000POPC   C1B48091  43.679   5.749   6.450
 7000POPC   C2B48092  43.688   5.675   6.750
 7000POPC   C3B48093  43.669   5.673   7.050
 7000POPC   C4B48094  43.733   5.722   7.350
 7001POPC   NC348095  35.337  36.169   5.550
 7001POPC   PO448096  35.322  36.104   5.850
 7001POPC   GL148097  35.355  36.130   6.150
 7001POPC   GL248098  35.516  36.123   6.150
 7001POPC   C1A48099  35.371  36.172   6.450
 7001POPC   D2A48100  35.387  36.119   6.750
 7001POPC   C3A48101  35.315  36.159   7.050
 7001POPC   C4A48102  35.304  36.110   7.350
 7001POPC   C1B48103  35.640  36.150   6.450
 7001POPC   C2B48104  35.648  36.189   6.750
 7001POPC   C3B48105  35.626  36.107   7.050
 7001POPC   C4B48106  35.566  36.125   7.350
 7002POPC   NC348107  26.016  12.869   5.550
 7002POPC   PO448108  26.000  12.863   5.850
 7002POPC   GL148109  26.007  12.843   6.150
 7002POPC   GL248110  26.064  12.687   6.150
 7002POPC   C1A48111  26.037  12.889   6.450
 7002POPC   D2A48112  26.004  12.854   6.750
 7002POPC   C3A48113  26.021  12.890   7.050
 7002POPC   C4A48114  26.041  12.837   7.350
 7002POPC   C1B48115  25.991  12.620   6.450
 7002POPC   C2B48116  25.977  12.560   6.750
 7002POPC   C3B48117  25.991  12.625   7.050
 7002POPC   C4B48118  26.010  12.575   7.350
 7003POPC   NC348119  31.474  40.008   5.550
 7003POPC   PO448120  31.490  40.029   5.850
 7003POPC   GL148121  31.487  39.969   6.150
 7003POPC   GL248122  31.394  39.994   6.150
 7003POPC   C1A48123  31.512  40.023   6.450
 7003POPC   D2A48124  31.441  39.962   6.750
 7003POPC   C3A48125  31.492  39.996   7.050
 7003POPC   C4A48126  31.485  39.964   7.350
 7003POPC   C1B48127  31.201  40.087   6.450
 7003POPC   C2B48128  31.273  40.084   6.750
 7003POPC   C3B48129  31.237  40.026   7.050
 7003POPC   C4B48130  31.220  40.086   7.350
 7004POPC   NC348131  32.264   8.214   5.550
 7004POPC   PO448132  32.296   8.161   5.850
 7004POPC   GL148133  32.228   8.154   6.150
 7004POPC   GL248134  32.145   8.141   6.150
 7004POPC   C1A48135  32.292   8.168   6.450
 7004POPC   D2A48136  32.217   8.241   6.750
 7004POPC   C3A48137  32.237   8.155   7.050
 7004POPC   C4A48138  32.286   8.230   7.350
 7004POPC   C1B48139  32.030   8.030   6.450
 7004POPC   C2B48140  32.089   8.051   6.750
 7004POPC   C3B48141  32.025   8.047   7.050
 7004POPC   C4B48142  32.016   8.021   7.350
 7005POPC   NC348143  32.981  42.354   5.550
 7005POPC   PO448144  33.042  42.289   5.850
 7005POPC   GL148145  33.073  42.302   6.150
 7005POPC   GL248146  33.073  42.415   6.150
 7005POPC   C1A48147  33.014  42.300   6.450
 7005POPC   D2A48148  33.057  42.286   6.750
 7005POPC   C3A48149  32.997  42.345   7.050
 7005POPC   C4A48150  33.007  42.300   7.350
 7005POPC   C1B48151  33.203  42.527   6.450
 7005POPC   C2B48152  33.242  42.561   6.750
 7005POPC   C3B48153  33.245  42.490   7.050
 7005POPC   C4B48154  33.178  42.500   7.350
 7006POPC   NC348155  16.726  17.463   5.550
 7006POPC   PO448156  16.763  17.513   5.850
 7006POPC   GL148157  16.694  17.504   6.150
 7006POPC   GL248158  16.669  17.581   6.150
 7006POPC   C1A48159  16.729  17.472   6.450
 7006POPC   D2A48160  16.769  17.465   6.750
 7006POPC   C3A48161  16.698  17.475   7.050
 7006POPC   C4A48162  16.746  17.548   7.350
 7006POPC   C1B48163  16.582  17.633   6.450
 7006POPC   C2B48164  16.535  17.712   6.750
 7006POPC   C3B48165  16.537  17.644   7.050
 7006POPC   C4B48166  16.560  17.626   7.350
 7007POPC   NC348167   6.640   4.345   5.550
 7007POPC   PO448168   6.689   4.311   5.850
 7007POPC   GL148169   6.645   4.364   6.150
 7007POPC   GL248170   6.808   4.290   6.150
 7007POPC   C1A48171   6.636   4.280   6.450
 7007POPC   D2A48172   6.673   4.326   6.750
 7007POPC   C3A48173   6.661   4.364   7.050
 7007POPC   C4A48174   6.690   4.276   7.350
 7007POPC   C1B48175   6.875   4.289   6.450
 7007POPC   C2B48176   6.868   4.314   6.750
 7007POPC   C3B48177   6.934   4.311   7.050
 7007POPC   C4B48178   6.868   4.249   7.350
 7008POPC   NC348179  17.555  37.694   5.550
 7008POPC   PO448180  17.479  37.724   5.850
 7008POPC   GL148181  17.469  37.705   6.150
 7008POPC   GL248182  17.590  37.756   6.150
 7008POPC   C1A48183  17.535  37.687   6.450
 7008POPC   D2A48184  17.494  37.723   6.750
 7008POPC   C3A48185  17.468  37.711   7.050
 7008POPC   C4A48186  17.461  37.640   7.350
 7008POPC   C1B48187  17.737  37.718   6.450
 7008POPC   C2B48188  17.779  37.713   6.750
 7008POPC   C3B48189  17.777  37.777   7.050
 7008POPC   C4B48190  17.729  37.741   7.350
 7009POPC   NC348191   5.829  27.608   5.550
 7009POPC   PO448192   5.903  27.583   5.850
 7009POPC   GL148193   5.901  27.614   6.150
 7009POPC   GL248194   5.905  27.431   6.150
 7009POPC   C1A48195   5.910  27.546   6.450
 7009POPC   D2A48196   5.890  27.641   6.750
 7009POPC   C3A48197   5.912  27.580   7.050
 7009POPC   C4A48198   5.890  27.621   7.350
 7009POPC   C1B48199   5.915  27.375   6.450
 7009POPC   C2B48200   5.888  27.356   6.750
 7009POPC   C3B48201   5.944  27.376   7.050
 7009POPC   C4B48202   5.946  27.382   7.350
 7010POPC   NC348203  23.702  31.478   5.550
 7010POPC   PO448204  23.715  31.469   5.850
 7010POPC   GL148205  23.691  31.462   6.150
 7010POPC   GL248206  23.669  31.322   6.150
 7010POPC   C1A48207  23.692  31.489   6.450
 7010POPC   D2A48208  23.704  31.446   6.750
 7010POPC   C3A48209  23.674  31.448   7.050
 7010POPC   C4A48210  23.716  31.479   7.350
 7010POPC   C1B48211  23.586  31.280   6.450
 7010POPC   C2B48212  23.589  31.205   6.750
 7010POPC   C3B48213  23.621  31.241   7.050
 7010POPC   C4B48214  23.599  31.292   7.350
 7011POPC   NC348215  44.699  19.106   5.550
 7011POPC   PO448216  44.664  19.012   5.850
 7011POPC   GL148217  44.639  19.012   6.150
 7011POPC   GL248218  44.700  19.126   6.150
 7011POPC   C1A48219  44.684  19.085   6.450
 7011POPC   D2A48220  44.710  19.045   6.750
 7011POPC   C3A48221  44.634  19.026   7.050
 7011POPC   C4A48222  44.666  19.026   7.350
 7011POPC   C1B48223  44.870  19.214   6.450
 7011POPC   C2B48224  44.873  19.252   6.750
 7011POPC   C3B48225  44.834  19.250   7.050
 7011POPC   C4B48226  44.872  19.225   7.350
 7012POPC   NC348227  15.991  12.083   5.550
 7012POPC   PO448228  15.912  12.063   5.850
 7012POPC   GL148229  15.911  12.029   6.150
 7012POPC   GL248230  16.045  12.196   6.150
 7012POPC   C1A48231  15.961  12.051   6.450
 7012POPC   D2A48232  15.991  12.082   6.750
 7012POPC   C3A48233  15.910  12.058   7.050
 7012POPC   C4A48234  15.916  12.103   7.350
 7012POPC   C1B48235  16.048  12.297   6.450
 7012POPC   C2B48236  16.040  12.284   6.750
 7012POPC   C3B48237  16.062  12.298   7.050
 7012POPC   C4B48238  16.044  12.280   7.350
 7013POPC   NC348239  40.734  23.723   5.550
 7013POPC   PO448240  40.818  23.712   5.850
 7013POPC   GL148241  40.765  23.731   6.150
 7013POPC   GL248242  40.819  23.810   6.150
 7013POPC   C1A48243  40.774  23.708   6.450
 7013POPC   D2A48244  40.762  23.758   6.750
 7013POPC   C3A48245  40.745  23.725   7.050
 7013POPC   C4A48246  40.736  23.691   7.350
 7013POPC   C1B48247  40.832  23.969   6.450
 7013POPC   C2B48248  40.798  23.960   6.750
 7013POPC   C3B48249  40.806  23.948   7.050
 7013POPC   C4B48250  40.881  23.931   7.350
 7014POPC   NC348251  33.755  13.643   5.550
 7014POPC   PO448252  33.805  13.612   5.850
 7014POPC   GL148253  33.791  13.669   6.150
 7014POPC   GL248254  33.892  13.628   6.150
 7014POPC   C1A48255  33.839  13.632   6.450
 7014POPC   D2A48256  33.809  13.599   6.750
 7014POPC   C3A48257  33.761  13.674   7.050
 7014POPC   C4A48258  33.833  13.612   7.350
 7014POPC   C1B48259  34.009  13.572   6.450
 7014POPC   C2B48260  34.068  13.533   6.750
 7014POPC   C3B48261  34.094  13.622   7.050
 7014POPC   C4B48262  34.017  13.555   7.350
 7015POPC   NC348263  36.176  40.011   5.550
 7015POPC   PO448264  36.161  40.041   5.850
 7015POPC   GL148265  36.150  40.037   6.150
 7015POPC   GL248266  36.185  40.173   6.150
 7015POPC   C1A48267  36.124  39.970   6.450
 7015POPC   D2A48268  36.130  40.004   6.750
 7015POPC   C3A48269  36.172  40.047   7.050
 7015POPC   C4A48270  36.178  40.017   7.350
 7015POPC   C1B48271  36.180  40.220   6.450
 7015POPC   C2B48272  36.222  40.213   6.750
 7015POPC   C3B48273  36.198  40.235   7.050
 7015POPC   C4B48274  36.247  40.226   7.350
 7016POPC   NC348275  14.446   5.842   5.550
 7016POPC   PO448276  14.397   5.872   5.850
 7016POPC   GL148277  14.373   5.910   6.150
 7016POPC   GL248278  14.519   5.945   6.150
 7016POPC   C1A48279  14.361   5.893   6.450
 7016POPC   D2A48280  14.375   5.897   6.750
 7016POPC   C3A48281  14.402   5.857   7.050
 7016POPC   C4A48282  14.382   5.916   7.350
 7016POPC   C1B48283  14.606   6.066   6.450
 7016POPC   C2B48284  14.647   5.980   6.750
 7016POPC   C3B48285  14.602   5.970   7.050
 7016POPC   C4B48286  14.621   5.985   7.350
 7017POPC   NC348287  34.602  41.572   5.550
 7017POPC   PO448288  34.567  41.562   5.850
 7017POPC   GL148289  34.608  41.580   6.150
 7017POPC   GL248290  34.630  41.428   6.150
 7017POPC   C1A48291  34.625  41.559   6.450
 7017POPC   D2A48292  34.561  41.561   6.750
 7017POPC   C3A48293  34.577  41.543   7.050
 7017POPC   C4A48294  34.607  41.528   7.350
 7017POPC   C1B48295  34.731  41.393   6.450
 7017POPC   C2B48296  34.783  41.412   6.750
 7017POPC   C3B48297  34.725  41.440   7.050
 7017POPC   C4B48298  34.756  41.406   7.350
 7018POPC   NC348299  22.192  15.161   5.550
 7018POPC   PO448300  22.142  15.137   5.850
 7018POPC   GL148301  22.132  15.193   6.150
 7018POPC   GL248302  22.204  15.078   6.150
 7018POPC   C1A48303  22.133  15.165   6.450
 7018POPC   D2A48304  22.175  15.178   6.750
 7018POPC   C3A48305  22.199  15.150   7.050
 7018POPC   C4A48306  22.211  15.190   7.350
 7018POPC   C1B48307  22.269  14.975   6.450
 7018POPC   C2B48308  22.254  14.954   6.750
 7018POPC   C3B48309  22.255  14.966   7.050
 7018POPC   C4B48310  22.312  14.938   7.350
 7019POPC   NC348311   8.236  26.088   5.550
 7019POPC   PO448312   8.168  26.076   5.850
 7019POPC   GL148313   8.205  26.049   6.150
 7019POPC   GL248314   8.340  26.073   6.150
 7019POPC   C1A48315   8.209  26.064   6.450
 7019POPC   D2A48316   8.217  26.014   6.750
 7019POPC   C3A48317   8.206  26.018   7.050
 7019POPC   C4A48318   8.210  26.029   7.350
 7019POPC   C1B48319   8.423  26.023   6.450
 7019POPC   C2B48320   8.467  26.048   6.750
 7019POPC   C3B48321   8.476  26.064   7.050
 7019POPC   C4B48322   8.442  26.018   7.350
 7020POPC   NC348323  36.888  33.056   5.550
 7020POPC   PO448324  36.917  33.003   5.850
 7020POPC   GL148325  36.901  33.040   6.150
 7020POPC   GL248326  36.850  33.074   6.150
 7020POPC   C1A48327  36.859  32.981   6.450
 7020POPC   D2A48328  36.899  33.026   6.750
 7020POPC   C3A48329  36.910  33.044   7.050
 7020POPC   C4A48330  36.894  33.030   7.350
 7020POPC   C1B48331  36.713  33.177   6.450
 7020POPC   C2B48332  36.774  33.264   6.750
 7020POPC   C3B48333  36.698  33.182   7.050
 7020POPC   C4B48334  36.766  33.196   7.350
 7021POPC   NC348335  44.666  28.357   5.550
 7021POPC   PO448336  44.628  28.400   5.850
 7021POPC   GL148337  44.694  28.368   6.150
 7021POPC   GL248338  44.623  28.541   6.150
 7021POPC   C1A48339  44.685  28.404   6.450
 7021POPC   D2A48340  44.654  28.354   6.750
 7021POPC   C3A48341  44.654  28.361   7.050
 7021POPC   C4A48342  44.688  28.391   7.350
 7021POPC   C1B48343  44.609  28.606   6.450
 7021POPC   C2B48344  44.648  28.632   6.750
 7021POPC   C3B48345  44.585  28.590   7.050
 7021POPC   C4B48346  44.572  28.650   7.350
 7022POPC   NC348347  43.150   7.436   5.550
 7022POPC   PO448348  43.081   7.403   5.850
 7022POPC   GL148349  43.117   7.394   6.150
 7022POPC   GL248350  43.011   7.355   6.150
 7022POPC   C1A48351  43.084   7.411   6.450
 7022POPC   D2A48352  43.107   7.412   6.750
 7022POPC   C3A48353  43.144   7.443   7.050
 7022POPC   C4A48354  43.118   7.467   7.350
 7022POPC   C1B48355  42.859   7.335   6.450
 7022POPC   C2B48356  42.897   7.294   6.750
 7022POPC   C3B48357  42.855   7.329   7.050
 7022POPC   C4B48358  42.906   7.325   7.350
 7023POPC   NC348359   6.673   1.981   5.550
 7023POPC   PO448360   6.642   1.950   5.850
 7023POPC   GL148361   6.670   1.965   6.150
 7023POPC   GL248362   6.660   2.143   6.150
 7023POPC   C1A48363   6.678   1.982   6.450
 7023POPC   D2A48364   6.630   2.019   6.750
 7023POPC   C3A48365   6.648   1.948   7.050
 7023POPC   C4A48366   6.634   2.014   7.350
 7023POPC   C1B48367   6.741   2.240   6.450
 7023POPC   C2B48368   6.778   2.242   6.750
 7023POPC   C3B48369   6.794   2.170   7.050
 7023POPC   C4B48370   6.772   2.170   7.350
 7024POPC   NC348371  29.910   1.210   5.550
 7024POPC   PO448372  29.949   1.235   5.850
 7024POPC   GL148373  29.911   1.255   6.150
 7024POPC   GL248374  29.879   1.367   6.150
 7024POPC   C1A48375  29.880   1.213   6.450
 7024POPC   D2A48376  29.910   1.248   6.750
 7024POPC   C3A48377  29.874   1.167   7.050
 7024POPC   C4A48378  29.880   1.217   7.350
 7024POPC   C1B48379  29.884   1.428   6.450
 7024POPC   C2B48380  29.882   1.465   6.750
 7024POPC   C3B48381  29.914   1.496   7.050
 7024POPC   C4B48382  29.913   1.479   7.350
 7025POPC   NC348383  41.555  44.679   5.550
 7025POPC   PO448384  41.555  44.658   5.850
 7025POPC   GL148385  41.605  44.667   6.150
 7025POPC   GL248386  41.474  44.727   6.150
 7025POPC   C1A48387  41.566  44.707   6.450
 7025POPC   D2A48388  41.565  44.620   6.750
 7025POPC   C3A48389  41.574  44.652   7.050
 7025POPC   C4A48390  41.550  44.661   7.350
 7025POPC   C1B48391  41.421  44.871   6.450
 7025POPC   C2B48392  41.396  44.916   6.750
 7025POPC   C3B48393  41.415  44.841   7.050
 7025POPC   C4B48394  41.436  44.912   7.350
 7026POPC   NC348395  34.528  22.914   5.550
 7026POPC   PO448396  34.600  22.941   5.850
 7026POPC   GL148397  34.548  22.943   6.150
 7026POPC   GL248398  34.667  22.940   6.150
 7026POPC   C1A48399  34.538  22.925   6.450
 7026POPC   D2A48400  34.597  22.952   6.750
 7026POPC   C3A48401  34.609  22.953   7.050
 7026POPC   C4A48402  34.574  22.955   7.350
 7026POPC   C1B48403  34.818  22.974   6.450
 7026POPC   C2B48404  34.848  22.966   6.750
 7026POPC   C3B48405  34.806  23.006   7.050
 7026POPC   C4B48406  34.793  22.984   7.350
 7027POPC   NC348407  39.233  36.929   5.550
 7027POPC   PO448408  39.187  36.891   5.850
 7027POPC   GL148409  39.250  36.933   6.150
 7027POPC   GL248410  39.109  37.021   6.150
 7027POPC   C1A48411  39.214  36.937   6.450
 7027POPC   D2A48412  39.280  36.860   6.750
 7027POPC   C3A48413  39.268  36.893   7.050
 7027POPC   C4A48414  39.215  36.893   7.350
 7027POPC   C1B48415  39.112  37.079   6.450
 7027POPC   C2B48416  39.077  37.124   6.750
 7027POPC   C3B48417  39.122  37.114   7.050
 7027POPC   C4B48418  39.050  37.151   7.350
 7028POPC   NC348419  20.598  12.097   5.550
 7028POPC   PO448420  20.631  12.104   5.850
 7028POPC   GL148421  20.602  12.073   6.150
 7028POPC   GL248422  20.457  12.058   6.150
 7028POPC   C1A48423  20.587  12.106   6.450
 7028POPC   D2A48424  20.589  12.106   6.750
 7028POPC   C3A48425  20.592  12.063   7.050
 7028POPC   C4A48426  20.564  12.067   7.350
 7028POPC   C1B48427  20.388  12.054   6.450
 7028POPC   C2B48428  20.318  12.052   6.750
 7028POPC   C3B48429  20.390  12.046   7.050
 7028POPC   C4B48430  20.374  12.071   7.350
 7029POPC   NC348431  44.644  26.866   5.550
 7029POPC   PO448432  44.688  26.768   5.850
 7029POPC   GL148433  44.653  26.776   6.150
 7029POPC   GL248434  44.613  26.738   6.150
 7029POPC   C1A48435  44.621  26.805   6.450
 7029POPC   D2A48436  44.665  26.788   6.750
 7029POPC   C3A48437  44.661  26.867   7.050
 7029POPC   C4A48438  44.678  26.781   7.350
 7029POPC   C1B48439  44.513  26.672   6.450
 7029POPC   C2B48440  44.436  26.604   6.750
 7029POPC   C3B48441  44.492  26.603   7.050
 7029POPC   C4B48442  44.527  26.631   7.350
 7030POPC   NC348443  38.460  40.754   5.550
 7030POPC   PO448444  38.503  40.780   5.850
 7030POPC   GL148445  38.501  40.818   6.150
 7030POPC   GL248446  38.505  40.897   6.150
 7030POPC   C1A48447  38.442  40.782   6.450
 7030POPC   D2A48448  38.490  40.756   6.750
 7030POPC   C3A48449  38.458  40.773   7.050
 7030POPC   C4A48450  38.470  40.756   7.350
 7030POPC   C1B48451  38.539  41.030   6.450
 7030POPC   C2B48452  38.512  41.039   6.750
 7030POPC   C3B48453  38.523  41.035   7.050
 7030POPC   C4B48454  38.550  41.037   7.350
 7031POPC   NC348455  27.641  13.603   5.550
 7031POPC   PO448456  27.594  13.641   5.850
 7031POPC   GL148457  27.560  13.583   6.150
 7031POPC   GL248458  27.701  13.724   6.150
 7031POPC   C1A48459  27.617  13.633   6.450
 7031POPC   D2A48460  27.570  13.678   6.750
 7031POPC   C3A48461  27.589  13.614   7.050
 7031POPC   C4A48462  27.582  13.659   7.350
 7031POPC   C1B48463  27.739  13.811   6.450
 7031POPC   C2B48464  27.809  13.834   6.750
 7031POPC   C3B48465  27.771  13.838   7.050
 7031POPC   C4B48466  27.804  13.761   7.350
 7032POPC   NC348467  43.127  31.430   5.550
 7032POPC   PO448468  43.090  31.472   5.850
 7032POPC   GL148469  43.065  31.485   6.150
 7032POPC   GL248470  43.053  31.568   6.150
 7032POPC   C1A48471  43.067  31.508   6.450
 7032POPC   D2A48472  43.129  31.491   6.750
 7032POPC   C3A48473  43.097  31.472   7.050
 7032POPC   C4A48474  43.120  31.460   7.350
 7032POPC   C1B48475  42.962  31.610   6.450
 7032POPC   C2B48476  42.885  31.665   6.750
 7032POPC   C3B48477  42.930  31.669   7.050
 7032POPC   C4B48478  42.900  31.625   7.350
 7033POPC   NC348479  22.967  19.090   5.550
 7033POPC   PO448480  22.915  19.035   5.850
 7033POPC   GL148481  22.973  19.107   6.150
 7033POPC   GL248482  22.850  19.204   6.150
 7033POPC   C1A48483  22.910  19.039   6.450
 7033POPC   D2A48484  22.906  19.067   6.750
 7033POPC   C3A48485  22.927  19.069   7.050
 7033POPC   C4A48486  22.933  19.044   7.350
 7033POPC   C1B48487  22.841  19.303   6.450
 7033POPC   C2B48488  22.867  19.251   6.750
 7033POPC   C3B48489  22.824  19.238   7.050
 7033POPC   C4B48490  22.808  19.290   7.350
 7034POPC   NC348491  24.462   8.940   5.550
 7034POPC   PO448492  24.508   8.965   5.850
 7034POPC   GL148493  24.477   8.939   6.150
 7034POPC   GL248494  24.632   9.029   6.150
 7034POPC   C1A48495  24.511   8.953   6.450
 7034POPC   D2A48496  24.523   8.984   6.750
 7034POPC   C3A48497  24.457   8.952   7.050
 7034POPC   C4A48498  24.537   9.016   7.350
 7034POPC   C1B48499  24.697   9.035   6.450
 7034POPC   C2B48500  24.763   9.100   6.750
 7034POPC   C3B48501  24.728   9.026   7.050
 7034POPC   C4B48502  24.683   9.076   7.350
 7035POPC   NC348503  24.464  43.873   5.550
 7035POPC   PO448504  24.457  43.867   5.850
 7035POPC   GL148505  24.457  43.858   6.150
 7035POPC   GL248506  24.453  43.725   6.150
 7035POPC   C1A48507  24.486  43.883   6.450
 7035POPC   D2A48508  24.446  43.932   6.750
 7035POPC   C3A48509  24.527  43.847   7.050
 7035POPC   C4A48510  24.453  43.900   7.350
 7035POPC   C1B48511  24.444  43.604   6.450
 7035POPC   C2B48512  24.446  43.639   6.750
 7035POPC   C3B48513  24.506  43.609   7.050
 7035POPC   C4B48514  24.480  43.661   7.350
 7036POPC   NC348515  21.363  41.526   5.550
 7036POPC   PO448516  21.414  41.543   5.850
 7036POPC   GL148517  21.348  41.535   6.150
 7036POPC   GL248518  21.279  41.542   6.150
 7036POPC   C1A48519  21.363  41.518   6.450
 7036POPC   D2A48520  21.376  41.545   6.750
 7036POPC   C3A48521  21.337  41.550   7.050
 7036POPC   C4A48522  21.434  41.560   7.350
 7036POPC   C1B48523  21.191  41.487   6.450
 7036POPC   C2B48524  21.108  41.465   6.750
 7036POPC   C3B48525  21.189  41.470   7.050
 7036POPC   C4B48526  21.170  41.517   7.350
 7037POPC   NC348527   8.153  33.044   5.550
 7037POPC   PO448528   8.189  33.019   5.850
 7037POPC   GL148529   8.206  33.066   6.150
 7037POPC   GL248530   8.035  33.002   6.150
 7037POPC   C1A48531   8.168  33.015   6.450
 7037POPC   D2A48532   8.237  33.066   6.750
 7037POPC   C3A48533   8.185  32.985   7.050
 7037POPC   C4A48534   8.246  33.036   7.350
 7037POPC   C1B48535   7.929  32.958   6.450
 7037POPC   C2B48536   7.908  32.996   6.750
 7037POPC   C3B48537   7.938  32.970   7.050
 7037POPC   C4B48538   7.954  32.998   7.350
 7038POPC   NC348539   9.750  20.569   5.550
 7038POPC   PO448540   9.759  20.596   5.850
 7038POPC   GL148541   9.711  20.649   6.150
 7038POPC   GL248542   9.820  20.488   6.150
 7038POPC   C1A48543   9.757  20.571   6.450
 7038POPC   D2A48544   9.772  20.655   6.750
 7038POPC   C3A48545   9.705  20.628   7.050
 7038POPC   C4A48546   9.716  20.576   7.350
 7038POPC   C1B48547   9.818  20.344   6.450
 7038POPC   C2B48548   9.823  20.412   6.750
 7038POPC   C3B48549   9.854  20.355   7.050
 7038POPC   C4B48550   9.852  20.357   7.350
 7039POPC   NC348551  27.635  21.363   5.550
 7039POPC   PO448552  27.594  21.367   5.850
 7039POPC   GL148553  27.608  21.375   6.150
 7039POPC   GL248554  27.555  21.248   6.150
 7039POPC   C1A48555  27.600  21.430   6.450
 7039POPC   D2A48556  27.544  21.385   6.750
 7039POPC   C3A48557  27.549  21.386   7.050
 7039POPC   C4A48558  27.580  21.343   7.350
 7039POPC   C1B48559  27.493  21.198   6.450
 7039POPC   C2B48560  27.506  21.127   6.750
 7039POPC   C3B48561  27.455  21.132   7.050
 7039POPC   C4B48562  27.482  21.206   7.350
 7040POPC   NC348563  44.652   7.375   5.550
 7040POPC   PO448564  44.653   7.462   5.850
 7040POPC   GL148565  44.623   7.393   6.150
 7040POPC   GL248566  44.566   7.343   6.150
 7040POPC   C1A48567  44.635   7.463   6.450
 7040POPC   D2A48568  44.631   7.411   6.750
 7040POPC   C3A48569  44.613   7.423   7.050
 7040POPC   C4A48570  44.625   7.411   7.350
 7040POPC   C1B48571  44.517   7.191   6.450
 7040POPC   C2B48572  44.487   7.176   6.750
 7040POPC   C3B48573  44.526   7.215   7.050
 7040POPC   C4B48574  44.502   7.228   7.350
 7041POPC   NC348575  39.256  20.610   5.550
 7041POPC   PO448576  39.188  20.654   5.850
 7041POPC   GL148577  39.257  20.567   6.150
 7041POPC   GL248578  39.252  20.467   6.150
 7041POPC   C1A48579  39.191  20.600   6.450
 7041POPC   D2A48580  39.209  20.624   6.750
 7041POPC   C3A48581  39.255  20.624   7.050
 7041POPC   C4A48582  39.230  20.606   7.350
 7041POPC   C1B48583  39.304  20.400   6.450
 7041POPC   C2B48584  39.358  20.416   6.750
 7041POPC   C3B48585  39.334  20.419   7.050
 7041POPC   C4B48586  39.373  20.411   7.350
 7042POPC   NC348587   2.001  43.112   5.550
 7042POPC   PO448588   2.023  43.088   5.850
 7042POPC   GL148589   1.974  43.085   6.150
 7042POPC   GL248590   1.926  42.994   6.150
 7042POPC   C1A48591   1.957  43.112   6.450
 7042POPC   D2A48592   2.030  43.067   6.750
 7042POPC   C3A48593   2.035  43.131   7.050
 7042POPC   C4A48594   2.039  43.099   7.350
 7042POPC   C1B48595   1.796  42.900   6.450
 7042POPC   C2B48596   1.806  42.873   6.750
 7042POPC   C3B48597   1.803  42.891   7.050
 7042POPC   C4B48598   1.843  42.888   7.350
 7043POPC   NC348599  13.652  33.753   5.550
 7043POPC   PO448600  13.631  33.756   5.850
 7043POPC   GL148601  13.640  33.783   6.150
 7043POPC   GL248602  13.537  33.691   6.150
 7043POPC   C1A48603  13.626  33.756   6.450
 7043POPC   D2A48604  13.659  33.793   6.750
 7043POPC   C3A48605  13.641  33.780   7.050
 7043POPC   C4A48606  13.622  33.789   7.350
 7043POPC   C1B48607  13.391  33.682   6.450
 7043POPC   C2B48608  13.404  33.698   6.750
 7043POPC   C3B48609  13.462  33.702   7.050
 7043POPC   C4B48610  13.385  33.641   7.350
 7044POPC   NC348611   6.596  15.171   5.550
 7044POPC   PO448612   6.653  15.163   5.850
 7044POPC   GL148613   6.654  15.135   6.150
 7044POPC   GL248614   6.764  15.117   6.150
 7044POPC   C1A48615   6.643  15.143   6.450
 7044POPC   D2A48616   6.616  15.163   6.750
 7044POPC   C3A48617   6.643  15.188   7.050
 7044POPC   C4A48618   6.613  15.220   7.350
 7044POPC   C1B48619   6.912  15.183   6.450
 7044POPC   C2B48620   6.931  15.172   6.750
 7044POPC   C3B48621   6.931  15.153   7.050
 7044POPC   C4B48622   6.870  15.170   7.350
 7045POPC   NC348623  21.415   5.052   5.550
 7045POPC   PO448624  21.373   5.138   5.850
 7045POPC   GL148625  21.351   5.107   6.150
 7045POPC   GL248626  21.483   5.171   6.150
 7045POPC   C1A48627  21.357   5.106   6.450
 7045POPC   D2A48628  21.417   5.093   6.750
 7045POPC   C3A48629  21.358   5.121   7.050
 7045POPC   C4A48630  21.371   5.120   7.350
 7045POPC   C1B48631  21.536   5.325   6.450
 7045POPC   C2B48632  21.572   5.284   6.750
 7045POPC   C3B48633  21.576   5.243   7.050
 7045POPC   C4B48634  21.566   5.280   7.350
 7046POPC   NC348635   3.540  26.021   5.550
 7046POPC   PO448636   3.514  26.078   5.850
 7046POPC   GL148637   3.510  26.048   6.150
 7046POPC   GL248638   3.552  26.177   6.150
 7046POPC   C1A48639   3.518  26.072   6.450
 7046POPC   D2A48640   3.530  26.076   6.750
 7046POPC   C3A48641   3.513  26.090   7.050
 7046POPC   C4A48642   3.574  26.008   7.350
 7046POPC   C1B48643   3.465  26.281   6.450
 7046POPC   C2B48644   3.487  26.280   6.750
 7046POPC   C3B48645   3.458  26.251   7.050
 7046POPC   C4B48646   3.522  26.249   7.350
 7047POPC   NC348647  32.219  43.925   5.550
 7047POPC   PO448648  32.222  43.878   5.850
 7047POPC   GL148649  32.265  43.883   6.150
 7047POPC   GL248650  32.127  43.972   6.150
 7047POPC   C1A48651  32.259  43.876   6.450
 7047POPC   D2A48652  32.208  43.881   6.750
 7047POPC   C3A48653  32.251  43.868   7.050
 7047POPC   C4A48654  32.204  43.923   7.350
 7047POPC   C1B48655  31.982  44.025   6.450
 7047POPC   C2B48656  31.987  44.041   6.750
 7047POPC   C3B48657  32.050  44.028   7.050
 7047POPC   C4B48658  32.075  43.962   7.350
 7048POPC   NC348659   1.245  40.032   5.550
 7048POPC   PO448660   1.208  40.044   5.850
 7048POPC   GL148661   1.232  40.014   6.150
 7048POPC   GL248662   1.086  39.951   6.150
 7048POPC   C1A48663   1.263  39.990   6.450
 7048POPC   D2A48664   1.219  39.963   6.750
 7048POPC   C3A48665   1.205  39.996   7.050
 7048POPC   C4A48666   1.191  40.051   7.350
 7048POPC   C1B48667   1.014  40.022   6.450
 7048POPC   C2B48668   0.996  39.955   6.750
 7048POPC   C3B48669   0.929  40.021   7.050
 7048POPC   C4B48670   0.988  40.027   7.350
 7049POPC   NC348671   1.942  29.096   5.550
 7049POPC   PO448672   1.942  29.113   5.850
 7049POPC   GL148673   1.964  29.102   6.150
 7049POPC   GL248674   2.072  29.193   6.150
 7049POPC   C1A48675   1.999  29.122   6.450
 7049POPC   D2A48676   2.030  29.121   6.750
 7049POPC   C3A48677   2.012  29.136   7.050
 7049POPC   C4A48678   1.997  29.114   7.350
 7049POPC   C1B48679   2.228  29.257   6.450
 7049POPC   C2B48680   2.192  29.307   6.750
 7049POPC   C3B48681   2.203  29.307   7.050
 7049POPC   C4B48682   2.188  29.261   7.350
 7050POPC   NC348683  41.578   5.088   5.550
 7050POPC   PO448684  41.564   5.047   5.850
 7050POPC   GL148685  41.600   5.105   6.150
 7050POPC   GL248686  41.601   5.184   6.150
 7050POPC   C1A48687  41.530   5.113   6.450
 7050POPC   D2A48688  41.577   5.054   6.750
 7050POPC   C3A48689  41.580   5.115   7.050
 7050POPC   C4A48690  41.540   5.046   7.350
 7050POPC   C1B48691  41.544   5.339   6.450
 7050POPC   C2B48692  41.526   5.318   6.750
 7050POPC   C3B48693  41.558   5.340   7.050
 7050POPC   C4B48694  41.550   5.350   7.350
 7051POPC   NC348695   0.418  20.653   5.550
 7051POPC   PO448696   0.465  20.616   5.850
 7051POPC   GL148697   0.487  20.635   6.150
 7051POPC   GL248698   0.370  20.709   6.150
 7051POPC   C1A48699   0.475  20.608   6.450
 7051POPC   D2A48700   0.488  20.638   6.750
 7051POPC   C3A48701   0.472  20.654   7.050
 7051POPC   C4A48702   0.438  20.623   7.350
 7051POPC   C1B48703   0.210  20.794   6.450
 7051POPC   C2B48704   0.261  20.736   6.750
 7051POPC   C3B48705   0.268  20.725   7.050
 7051POPC   C4B48706   0.237  20.734   7.350
 7052POPC   NC348707  28.333  26.834   5.550
 7052POPC   PO448708  28.341  26.779   5.850
 7052POPC   GL148709  28.329  26.854   6.150
 7052POPC   GL248710  28.329  26.867   6.150
 7052POPC   C1A48711  28.415  26.780   6.450
 7052POPC   D2A48712  28.393  26.832   6.750
 7052POPC   C3A48713  28.337  26.852   7.050
 7052POPC   C4A48714  28.356  26.817   7.350
 7052POPC   C1B48715  28.228  27.018   6.450
 7052POPC   C2B48716  28.196  27.054   6.750
 7052POPC   C3B48717  28.243  27.015   7.050
 7052POPC   C4B48718  28.231  27.003   7.350
 7053POPC   NC348719   6.682  19.040   5.550
 7053POPC   PO448720   6.621  19.105   5.850
 7053POPC   GL148721   6.683  19.042   6.150
 7053POPC   GL248722   6.557  19.098   6.150
 7053POPC   C1A48723   6.607  19.066   6.450
 7053POPC   D2A48724   6.610  19.047   6.750
 7053POPC   C3A48725   6.664  19.080   7.050
 7053POPC   C4A48726   6.682  19.102   7.350
 7053POPC   C1B48727   6.461  19.200   6.450
 7053POPC   C2B48728   6.495  19.199   6.750
 7053POPC   C3B48729   6.408  19.195   7.050
 7053POPC   C4B48730   6.434  19.257   7.350
 7054POPC   NC348731   7.392   9.785   5.550
 7054POPC   PO448732   7.454   9.732   5.850
 7054POPC   GL148733   7.397   9.721   6.150
 7054POPC   GL248734   7.347   9.676   6.150
 7054POPC   C1A48735   7.414   9.760   6.450
 7054POPC   D2A48736   7.445   9.781   6.750
 7054POPC   C3A48737   7.418   9.769   7.050
 7054POPC   C4A48738   7.426   9.790   7.350
 7054POPC   C1B48739   7.331   9.562   6.450
 7054POPC   C2B48740   7.280   9.525   6.750
 7054POPC   C3B48741   7.320   9.525   7.050
 7054POPC   C4B48742   7.326   9.480   7.350
 7055POPC   NC348743   3.533  28.369   5.550
 7055POPC   PO448744   3.572  28.412   5.850
 7055POPC   GL148745   3.580  28.417   6.150
 7055POPC   GL248746   3.665  28.336   6.150
 7055POPC   C1A48747   3.542  28.319   6.450
 7055POPC   D2A48748   3.512  28.372   6.750
 7055POPC   C3A48749   3.539  28.361   7.050
 7055POPC   C4A48750   3.510  28.396   7.350
 7055POPC   C1B48751   3.787  28.399   6.450
 7055POPC   C2B48752   3.742  28.413   6.750
 7055POPC   C3B48753   3.758  28.355   7.050
 7055POPC   C4B48754   3.766  28.333   7.350
 7056POPC   NC348755  31.480  40.795   5.550
 7056POPC   PO448756  31.464  40.759   5.850
 7056POPC   GL148757  31.521  40.784   6.150
 7056POPC   GL248758  31.306  40.808   6.150
 7056POPC   C1A48759  31.493  40.764   6.450
 7056POPC   D2A48760  31.485  40.792   6.750
 7056POPC   C3A48761  31.470  40.752   7.050
 7056POPC   C4A48762  31.430  40.788   7.350
 7056POPC   C1B48763  31.222  40.742   6.450
 7056POPC   C2B48764  31.179  40.821   6.750
 7056POPC   C3B48765  31.229  40.752   7.050
 7056POPC   C4B48766  31.244  40.791   7.350
 7057POPC   NC348767  39.274  16.773   5.550
 7057POPC   PO448768  39.241  16.698   5.850
 7057POPC   GL148769  39.221  16.686   6.150
 7057POPC   GL248770  39.100  16.659   6.150
 7057POPC   C1A48771  39.258  16.729   6.450
 7057POPC   D2A48772  39.199  16.721   6.750
 7057POPC   C3A48773  39.272  16.726   7.050
 7057POPC   C4A48774  39.206  16.683   7.350
 7057POPC   C1B48775  38.969  16.635   6.450
 7057POPC   C2B48776  39.022  16.694   6.750
 7057POPC   C3B48777  38.958  16.602   7.050
 7057POPC   C4B48778  38.974  16.607   7.350
 7058POPC   NC348779  44.665   5.044   5.550
 7058POPC   PO448780  44.689   5.085   5.850
 7058POPC   GL148781  44.667   5.115   6.150
 7058POPC   GL248782  44.512   5.137   6.150
 7058POPC   C1A48783  44.710   5.058   6.450
 7058POPC   D2A48784  44.642   5.057   6.750
 7058POPC   C3A48785  44.670   5.117   7.050
 7058POPC   C4A48786  44.676   5.050   7.350
 7058POPC   C1B48787  44.466   5.161   6.450
 7058POPC   C2B48788  44.395   5.162   6.750
 7058POPC   C3B48789  44.433   5.178   7.050
 7058POPC   C4B48790  44.460   5.196   7.350
 7059POPC   NC348791   1.183   2.770   5.550
 7059POPC   PO448792   1.205   2.767   5.850
 7059POPC   GL148793   1.167   2.791   6.150
 7059POPC   GL248794   1.203   2.866   6.150
 7059POPC   C1A48795   1.205   2.781   6.450
 7059POPC   D2A48796   1.207   2.742   6.750
 7059POPC   C3A48797   1.192   2.739   7.050
 7059POPC   C4A48798   1.166   2.809   7.350
 7059POPC   C1B48799   1.166   2.963   6.450
 7059POPC   C2B48800   1.154   2.970   6.750
 7059POPC   C3B48801   1.133   3.000   7.050
 7059POPC   C4B48802   1.177   2.975   7.350
 7060POPC   NC348803  11.256  25.290   5.550
 7060POPC   PO448804  11.311  25.268   5.850
 7060POPC   GL148805  11.299  25.272   6.150
 7060POPC   GL248806  11.162  25.355   6.150
 7060POPC   C1A48807  11.337  25.302   6.450
 7060POPC   D2A48808  11.294  25.273   6.750
 7060POPC   C3A48809  11.261  25.283   7.050
 7060POPC   C4A48810  11.309  25.276   7.350
 7060POPC   C1B48811  11.100  25.431   6.450
 7060POPC   C2B48812  11.144  25.435   6.750
 7060POPC   C3B48813  11.152  25.463   7.050
 7060POPC   C4B48814  11.090  25.455   7.350
 7061POPC   NC348815  38.432   8.950   5.550
 7061POPC   PO448816  38.423   8.973   5.850
 7061POPC   GL148817  38.413   9.014   6.150
 7061POPC   GL248818  38.339   8.872   6.150
 7061POPC   C1A48819  38.480   9.018   6.450
 7061POPC   D2A48820  38.475   9.022   6.750
 7061POPC   C3A48821  38.451   8.982   7.050
 7061POPC   C4A48822  38.418   8.957   7.350
 7061POPC   C1B48823  38.235   8.824   6.450
 7061POPC   C2B48824  38.253   8.841   6.750
 7061POPC   C3B48825  38.280   8.807   7.050
 7061POPC   C4B48826  38.252   8.848   7.350
 7062POPC   NC348827  26.043  35.360   5.550
 7062POPC   PO448828  26.082  35.359   5.850
 7062POPC   GL148829  26.036  35.319   6.150
 7062POPC   GL248830  26.162  35.237   6.150
 7062POPC   C1A48831  26.002  35.394   6.450
 7062POPC   D2A48832  26.026  35.381   6.750
 7062POPC   C3A48833  26.088  35.402   7.050
 7062POPC   C4A48834  25.995  35.315   7.350
 7062POPC   C1B48835  26.226  35.121   6.450
 7062POPC   C2B48836  26.233  35.178   6.750
 7062POPC   C3B48837  26.171  35.136   7.050
 7062POPC   C4B48838  26.179  35.205   7.350
 7063POPC   NC348839  43.138  36.123   5.550
 7063POPC   PO448840  43.134  36.085   5.850
 7063POPC   GL148841  43.066  36.112   6.150
 7063POPC   GL248842  43.126  36.042   6.150
 7063POPC   C1A48843  43.142  36.136   6.450
 7063POPC   D2A48844  43.152  36.127   6.750
 7063POPC   C3A48845  43.086  36.169   7.050
 7063POPC   C4A48846  43.153  36.161   7.350
 7063POPC   C1B48847  43.233  35.872   6.450
 7063POPC   C2B48848  43.189  35.844   6.750
 7063POPC   C3B48849  43.193  35.859   7.050
 7063POPC   C4B48850  43.146  35.847   7.350
 7064POPC   NC348851  40.748  33.808   5.550
 7064POPC   PO448852  40.736  33.785   5.850
 7064POPC   GL148853  40.829  33.829   6.150
 7064POPC   GL248854  40.895  33.757   6.150
 7064POPC   C1A48855  40.735  33.836   6.450
 7064POPC   D2A48856  40.805  33.770   6.750
 7064POPC   C3A48857  40.814  33.780   7.050
 7064POPC   C4A48858  40.792  33.804   7.350
 7064POPC   C1B48859  41.056  33.739   6.450
 7064POPC   C2B48860  41.079  33.739   6.750
 7064POPC   C3B48861  41.065  33.772   7.050
 7064POPC   C4B48862  41.002  33.794   7.350
 7065POPC   NC348863  42.307  24.486   5.550
 7065POPC   PO448864  42.373  24.473   5.850
 7065POPC   GL148865  42.356  24.472   6.150
 7065POPC   GL248866  42.431  24.567   6.150
 7065POPC   C1A48867  42.290  24.475   6.450
 7065POPC   D2A48868  42.384  24.524   6.750
 7065POPC   C3A48869  42.330  24.484   7.050
 7065POPC   C4A48870  42.352  24.475   7.350
 7065POPC   C1B48871  42.510  24.655   6.450
 7065POPC   C2B48872  42.511  24.604   6.750
 7065POPC   C3B48873  42.551  24.590   7.050
 7065POPC   C4B48874  42.524  24.606   7.350
 7066POPC   NC348875   2.757  40.734   5.550
 7066POPC   PO448876   2.724  40.826   5.850
 7066POPC   GL148877   2.804  40.736   6.150
 7066POPC   GL248878   2.818  40.881   6.150
 7066POPC   C1A48879   2.811  40.795   6.450
 7066POPC   D2A48880   2.771  40.818   6.750
 7066POPC   C3A48881   2.739  40.756   7.050
 7066POPC   C4A48882   2.812  40.803   7.350
 7066POPC   C1B48883   2.945  40.943   6.450
 7066POPC   C2B48884   2.898  40.995   6.750
 7066POPC   C3B48885   2.887  41.025   7.050
 7066POPC   C4B48886   2.884  41.016   7.350
 7067POPC   NC348887  28.394  39.965   5.550
 7067POPC   PO448888  28.385  39.968   5.850
 7067POPC   GL148889  28.415  40.012   6.150
 7067POPC   GL248890  28.224  39.909   6.150
 7067POPC   C1A48891  28.371  40.022   6.450
 7067POPC   D2A48892  28.351  40.014   6.750
 7067POPC   C3A48893  28.417  39.988   7.050
 7067POPC   C4A48894  28.398  39.994   7.350
 7067POPC   C1B48895  28.196  39.809   6.450
 7067POPC   C2B48896  28.224  39.888   6.750
 7067POPC   C3B48897  28.222  39.866   7.050
 7067POPC   C4B48898  28.157  39.859   7.350
 7068POPC   NC348899   5.889  34.536   5.550
 7068POPC   PO448900   5.876  34.574   5.850
 7068POPC   GL148901   5.863  34.616   6.150
 7068POPC   GL248902   5.759  34.466   6.150
 7068POPC   C1A48903   5.875  34.554   6.450
 7068POPC   D2A48904   5.848  34.563   6.750
 7068POPC   C3A48905   5.863  34.586   7.050
 7068POPC   C4A48906   5.882  34.558   7.350
 7068POPC   C1B48907   5.660  34.354   6.450
 7068POPC   C2B48908   5.681  34.345   6.750
 7068POPC   C3B48909   5.718  34.416   7.050
 7068POPC   C4B48910   5.727  34.375   7.350
 7069POPC   NC348911  29.139  17.523   5.550
 7069POPC   PO448912  29.179  17.519   5.850
 7069POPC   GL148913  29.119  17.551   6.150
 7069POPC   GL248914  29.157  17.355   6.150
 7069POPC   C1A48915  29.107  17.551   6.450
 7069POPC   D2A48916  29.120  17.495   6.750
 7069POPC   C3A48917  29.125  17.464   7.050
 7069POPC   C4A48918  29.140  17.486   7.350
 7069POPC   C1B48919  29.065  17.235   6.450
 7069POPC   C2B48920  29.125  17.218   6.750
 7069POPC   C3B48921  29.107  17.272   7.050
 7069POPC   C4B48922  29.041  17.276   7.350
 7070POPC   NC348923  37.687  17.518   5.550
 7070POPC   PO448924  37.700  17.493   5.850
 7070POPC   GL148925  37.658  17.532   6.150
 7070POPC   GL248926  37.782  17.599   6.150
 7070POPC   C1A48927  37.717  17.550   6.450
 7070POPC   D2A48928  37.663  17.509   6.750
 7070POPC   C3A48929  37.680  17.492   7.050
 7070POPC   C4A48930  37.685  17.470   7.350
 7070POPC   C1B48931  37.918  17.661   6.450
 7070POPC   C2B48932  37.933  17.637   6.750
 7070POPC   C3B48933  37.887  17.616   7.050
 7070POPC   C4B48934  37.863  17.591   7.350
 7071POPC   NC348935  32.982  24.441   5.550
 7071POPC   PO448936  33.014  24.495   5.850
 7071POPC   GL148937  33.020  24.485   6.150
 7071POPC   GL248938  33.011  24.584   6.150
 7071POPC   C1A48939  33.036  24.443   6.450
 7071POPC   D2A48940  32.981  24.507   6.750
 7071POPC   C3A48941  32.995  24.469   7.050
 7071POPC   C4A48942  33.057  24.514   7.350
 7071POPC   C1B48943  32.928  24.748   6.450
 7071POPC   C2B48944  32.986  24.711   6.750
 7071POPC   C3B48945  32.902  24.776   7.050
 7071POPC   C4B48946  32.946  24.748   7.350
 7072POPC   NC348947  40.817   2.751   5.550
 7072POPC   PO448948  40.799   2.814   5.850
 7072POPC   GL148949  40.804   2.783   6.150
 7072POPC   GL248950  40.863   2.685   6.150
 7072POPC   C1A48951  40.774   2.773   6.450
 7072POPC   D2A48952  40.773   2.730   6.750
 7072POPC   C3A48953  40.787   2.793   7.050
 7072POPC   C4A48954  40.810   2.737   7.350
 7072POPC   C1B48955  40.859   2.538   6.450
 7072POPC   C2B48956  40.823   2.493   6.750
 7072POPC   C3B48957  40.856   2.532   7.050
 7072POPC   C4B48958  40.900   2.542   7.350
 7073POPC   NC348959  39.972  11.280   5.550
 7073POPC   PO448960  40.033  11.280   5.850
 7073POPC   GL148961  39.963  11.271   6.150
 7073POPC   GL248962  40.129  11.260   6.150
 7073POPC   C1A48963  39.972  11.336   6.450
 7073POPC   D2A48964  40.008  11.281   6.750
 7073POPC   C3A48965  40.020  11.309   7.050
 7073POPC   C4A48966  39.966  11.291   7.350
 7073POPC   C1B48967  40.208  11.201   6.450
 7073POPC   C2B48968  40.252  11.146   6.750
 7073POPC   C3B48969  40.229  11.208   7.050
 7073POPC   C4B48970  40.197  11.163   7.350
 7074POPC   NC348971  12.878  29.915   5.550
 7074POPC   PO448972  12.861  29.905   5.850
 7074POPC   GL148973  12.812  29.929   6.150
 7074POPC   GL248974  12.776  29.993   6.150
 7074POPC   C1A48975  12.803  29.927   6.450
 7074POPC   D2A48976  12.884  29.884   6.750
 7074POPC   C3A48977  12.876  29.939   7.050
 7074POPC   C4A48978  12.879  29.922   7.350
 7074POPC   C1B48979  12.741  30.106   6.450
 7074POPC   C2B48980  12.756  30.181   6.750
 7074POPC   C3B48981  12.752  30.121   7.050
 7074POPC   C4B48982  12.741  30.124   7.350
 7075POPC   NC348983  42.320  26.838   5.550
 7075POPC   PO448984  42.345  26.850   5.850
 7075POPC   GL148985  42.358  26.810   6.150
 7075POPC   GL248986  42.374  26.702   6.150
 7075POPC   C1A48987  42.301  26.789   6.450
 7075POPC   D2A48988  42.309  26.838   6.750
 7075POPC   C3A48989  42.362  26.863   7.050
 7075POPC   C4A48990  42.377  26.832   7.350
 7075POPC   C1B48991  42.344  26.604   6.450
 7075POPC   C2B48992  42.365  26.520   6.750
 7075POPC   C3B48993  42.381  26.572   7.050
 7075POPC   C4B48994  42.362  26.597   7.350
 7076POPC   NC348995  30.687  26.863   5.550
 7076POPC   PO448996  30.688  26.838   5.850
 7076POPC   GL148997  30.680  26.837   6.150
 7076POPC   GL248998  30.646  26.874   6.150
 7076POPC   C1A48999  30.679  26.844   6.450
 7076POPC   D2A49000  30.734  26.769   6.750
 7076POPC   C3A49001  30.691  26.826   7.050
 7076POPC   C4A49002  30.670  26.847   7.350
 7076POPC   C1B49003  30.531  27.058   6.450
 7076POPC   C2B49004  30.523  27.022   6.750
 7076POPC   C3B49005  30.545  27.041   7.050
 7076POPC   C4B49006  30.575  27.041   7.350
 7077POPC   NC349007  40.016  12.105   5.550
 7077POPC   PO449008  40.020  12.027   5.850
 7077POPC   GL149009  39.995  12.097   6.150
 7077POPC   GL249010  39.837  12.003   6.150
 7077POPC   C1A49011  40.032  12.110   6.450
 7077POPC   D2A49012  39.982  12.038   6.750
 7077POPC   C3A49013  39.991  12.044   7.050
 7077POPC   C4A49014  39.993  12.074   7.350
 7077POPC   C1B49015  39.753  11.997   6.450
 7077POPC   C2B49016  39.753  11.983   6.750
 7077POPC   C3B49017  39.772  11.974   7.050
 7077POPC   C4B49018  39.773  12.005   7.350
 7078POPC   NC349019  18.299  43.118   5.550
 7078POPC   PO449020  18.291  43.090   5.850
 7078POPC   GL149021  18.326  43.072   6.150
 7078POPC   GL249022  18.185  43.068   6.150
 7078POPC   C1A49023  18.249  43.146   6.450
 7078POPC   D2A49024  18.267  43.103   6.750
 7078POPC   C3A49025  18.306  43.138   7.050
 7078POPC   C4A49026  18.309  43.150   7.350
 7078POPC   C1B49027  18.134  43.005   6.450
 7078POPC   C2B49028  18.093  42.931   6.750
 7078POPC   C3B49029  18.123  42.970   7.050
 7078POPC   C4B49030  18.090  42.939   7.350
 7079POPC   NC349031  38.467   0.399   5.550
 7079POPC   PO449032  38.425   0.485   5.850
 7079POPC   GL149033  38.499   0.469   6.150
 7079POPC   GL249034  38.330   0.480   6.150
 7079POPC   C1A49035  38.470   0.470   6.450
 7079POPC   D2A49036  38.473   0.459   6.750
 7079POPC   C3A49037  38.474   0.440   7.050
 7079POPC   C4A49038  38.449   0.468   7.350
 7079POPC   C1B49039  38.239   0.585   6.450
 7079POPC   C2B49040  38.246   0.551   6.750
 7079POPC   C3B49041  38.222   0.605   7.050
 7079POPC   C4B49042  38.253   0.555   7.350
 7080POPC   NC349043  25.308  19.080   5.550
 7080POPC   PO449044  25.220  19.019   5.850
 7080POPC   GL149045  25.315  19.069   6.150
 7080POPC   GL249046  25.425  19.042   6.150
 7080POPC   C1A49047  25.305  19.075   6.450
 7080POPC   D2A49048  25.294  19.044   6.750
 7080POPC   C3A49049  25.279  19.020   7.050
 7080POPC   C4A49050  25.263  19.107   7.350
 7080POPC   C1B49051  25.476  19.080   6.450
 7080POPC   C2B49052  25.554  19.041   6.750
 7080POPC   C3B49053  25.550  19.038   7.050
 7080POPC   C4B49054  25.506  19.007   7.350
 7081POPC   NC349055  16.737  40.819   5.550
 7081POPC   PO449056  16.707  40.756   5.850
 7081POPC   GL149057  16.703  40.737   6.150
 7081POPC   GL249058  16.786  40.675   6.150
 7081POPC   C1A49059  16.767  40.762   6.450
 7081POPC   D2A49060  16.710  40.765   6.750
 7081POPC   C3A49061  16.717  40.750   7.050
 7081POPC   C4A49062  16.709  40.761   7.350
 7081POPC   C1B49063  16.830  40.559   6.450
 7081POPC   C2B49064  16.817  40.545   6.750
 7081POPC   C3B49065  16.907  40.571   7.050
 7081POPC   C4B49066  16.911  40.620   7.350
 7082POPC   NC349067   7.470   5.066   5.550
 7082POPC   PO449068   7.428   5.078   5.850
 7082POPC   GL149069   7.403   5.111   6.150
 7082POPC   GL249070   7.351   5.164   6.150
 7082POPC   C1A49071   7.430   5.114   6.450
 7082POPC   D2A49072   7.421   5.101   6.750
 7082POPC   C3A49073   7.442   5.047   7.050
 7082POPC   C4A49074   7.468   5.073   7.350
 7082POPC   C1B49075   7.278   5.274   6.450
 7082POPC   C2B49076   7.285   5.255   6.750
 7082POPC   C3B49077   7.248   5.338   7.050
 7082POPC   C4B49078   7.221   5.294   7.350
 7083POPC   NC349079  31.448  16.760   5.550
 7083POPC   PO449080  31.506  16.748   5.850
 7083POPC   GL149081  31.504  16.736   6.150
 7083POPC   GL249082  31.488  16.852   6.150
 7083POPC   C1A49083  31.460  16.706   6.450
 7083POPC   D2A49084  31.472  16.698   6.750
 7083POPC   C3A49085  31.503  16.736   7.050
 7083POPC   C4A49086  31.501  16.735   7.350
 7083POPC   C1B49087  31.492  17.002   6.450
 7083POPC   C2B49088  31.488  16.989   6.750
 7083POPC   C3B49089  31.498  16.949   7.050
 7083POPC   C4B49090  31.416  16.987   7.350
 7084POPC   NC349091   8.182   4.277   5.550
 7084POPC   PO449092   8.213   4.268   5.850
 7084POPC   GL149093   8.178   4.318   6.150
 7084POPC   GL249094   8.225   4.164   6.150
 7084POPC   C1A49095   8.246   4.337   6.450
 7084POPC   D2A49096   8.199   4.353   6.750
 7084POPC   C3A49097   8.172   4.291   7.050
 7084POPC   C4A49098   8.158   4.343   7.350
 7084POPC   C1B49099   8.268   4.093   6.450
 7084POPC   C2B49100   8.214   4.098   6.750
 7084POPC   C3B49101   8.283   4.090   7.050
 7084POPC   C4B49102   8.281   4.050   7.350
 7085POPC   NC349103  41.512  34.587   5.550
 7085POPC   PO449104  41.553  34.623   5.850
 7085POPC   GL149105  41.537  34.611   6.150
 7085POPC   GL249106  41.535  34.478   6.150
 7085POPC   C1A49107  41.582  34.565   6.450
 7085POPC   D2A49108  41.510  34.568   6.750
 7085POPC   C3A49109  41.606  34.566   7.050
 7085POPC   C4A49110  41.573  34.579   7.350
 7085POPC   C1B49111  41.596  34.321   6.450
 7085POPC   C2B49112  41.625  34.356   6.750
 7085POPC   C3B49113  41.648  34.290   7.050
 7085POPC   C4B49114  41.594  34.362   7.350
 7086POPC   NC349115  12.104  16.753   5.550
 7086POPC   PO449116  12.072  16.738   5.850
 7086POPC   GL149117  12.034  16.719   6.150
 7086POPC   GL249118  12.152  16.831   6.150
 7086POPC   C1A49119  12.125  16.732   6.450
 7086POPC   D2A49120  12.067  16.762   6.750
 7086POPC   C3A49121  12.082  16.748   7.050
 7086POPC   C4A49122  12.044  16.724   7.350
 7086POPC   C1B49123  12.229  16.913   6.450
 7086POPC   C2B49124  12.309  16.913   6.750
 7086POPC   C3B49125  12.236  16.880   7.050
 7086POPC   C4B49126  12.272  16.935   7.350
 7087POPC   NC349127  17.547  32.247   5.550
 7087POPC   PO449128  17.544  32.266   5.850
 7087POPC   GL149129  17.511  32.239   6.150
 7087POPC   GL249130  17.600  32.246   6.150
 7087POPC   C1A49131  17.488  32.266   6.450
 7087POPC   D2A49132  17.477  32.226   6.750
 7087POPC   C3A49133  17.464  32.279   7.050
 7087POPC   C4A49134  17.517  32.243   7.350
 7087POPC   C1B49135  17.751  32.339   6.450
 7087POPC   C2B49136  17.727  32.353   6.750
 7087POPC   C3B49137  17.780  32.331   7.050
 7087POPC   C4B49138  17.762  32.346   7.350
 7088POPC   NC349139  13.663  16.745   5.550
 7088POPC   PO449140  13.640  16.705   5.850
 7088POPC   GL149141  13.580  16.759   6.150
 7088POPC   GL249142  13.551  16.814   6.150
 7088POPC   C1A49143  13.672  16.764   6.450
 7088POPC   D2A49144  13.602  16.713   6.750
 7088POPC   C3A49145  13.604  16.769   7.050
 7088POPC   C4A49146  13.675  16.772   7.350
 7088POPC   C1B49147  13.543  16.989   6.450
 7088POPC   C2B49148  13.566  16.961   6.750
 7088POPC   C3B49149  13.566  16.947   7.050
 7088POPC   C4B49150  13.551  16.927   7.350
 7089POPC   NC349151  29.191  13.673   5.550
 7089POPC   PO449152  29.121  13.613   5.850
 7089POPC   GL149153  29.175  13.618   6.150
 7089POPC   GL249154  29.038  13.606   6.150
 7089POPC   C1A49155  29.120  13.602   6.450
 7089POPC   D2A49156  29.113  13.587   6.750
 7089POPC   C3A49157  29.118  13.588   7.050
 7089POPC   C4A49158  29.121  13.667   7.350
 7089POPC   C1B49159  28.883  13.587   6.450
 7089POPC   C2B49160  28.941  13.542   6.750
 7089POPC   C3B49161  28.929  13.546   7.050
 7089POPC   C4B49162  28.921  13.562   7.350
 7090POPC   NC349163   3.587   1.213   5.550
 7090POPC   PO449164   3.515   1.230   5.850
 7090POPC   GL149165   3.501   1.246   6.150
 7090POPC   GL249166   3.506   1.362   6.150
 7090POPC   C1A49167   3.555   1.258   6.450
 7090POPC   D2A49168   3.531   1.234   6.750
 7090POPC   C3A49169   3.583   1.193   7.050
 7090POPC   C4A49170   3.538   1.179   7.350
 7090POPC   C1B49171   3.563   1.420   6.450
 7090POPC   C2B49172   3.569   1.453   6.750
 7090POPC   C3B49173   3.482   1.472   7.050
 7090POPC   C4B49174   3.534   1.512   7.350
 7091POPC   NC349175   4.297  15.135   5.550
 7091POPC   PO449176   4.270  15.141   5.850
 7091POPC   GL149177   4.279  15.188   6.150
 7091POPC   GL249178   4.193  15.180   6.150
 7091POPC   C1A49179   4.353  15.215   6.450
 7091POPC   D2A49180   4.312  15.207   6.750
 7091POPC   C3A49181   4.314  15.189   7.050
 7091POPC   C4A49182   4.293  15.183   7.350
 7091POPC   C1B49183   4.032  15.163   6.450
 7091POPC   C2B49184   4.122  15.091   6.750
 7091POPC   C3B49185   4.122  15.153   7.050
 7091POPC   C4B49186   4.045  15.085   7.350
 7092POPC   NC349187  24.535  15.169   5.550
 7092POPC   PO449188  24.483  15.143   5.850
 7092POPC   GL149189  24.442  15.136   6.150
 7092POPC   GL249190  24.493  15.098   6.150
 7092POPC   C1A49191  24.447  15.198   6.450
 7092POPC   D2A49192  24.458  15.200   6.750
 7092POPC   C3A49193  24.462  15.173   7.050
 7092POPC   C4A49194  24.450  15.222   7.350
 7092POPC   C1B49195  24.555  14.922   6.450
 7092POPC   C2B49196  24.545  14.960   6.750
 7092POPC   C3B49197  24.602  14.979   7.050
 7092POPC   C4B49198  24.596  14.974   7.350
 7093POPC   NC349199  12.847  13.608   5.550
 7093POPC   PO449200  12.860  13.650   5.850
 7093POPC   GL149201  12.879  13.603   6.150
 7093POPC   GL249202  12.979  13.637   6.150
 7093POPC   C1A49203  12.872  13.618   6.450
 7093POPC   D2A49204  12.845  13.596   6.750
 7093POPC   C3A49205  12.835  13.591   7.050
 7093POPC   C4A49206  12.819  13.629   7.350
 7093POPC   C1B49207  13.062  13.577   6.450
 7093POPC   C2B49208  13.119  13.598   6.750
 7093POPC   C3B49209  13.094  13.605   7.050
 7093POPC   C4B49210  13.123  13.568   7.350
 7094POPC   NC349211   0.403   8.177   5.550
 7094POPC   PO449212   0.449   8.174   5.850
 7094POPC   GL149213   0.406   8.184   6.150
 7094POPC   GL249214   0.324   8.319   6.150
 7094POPC   C1A49215   0.407   8.242   6.450
 7094POPC   D2A49216   0.434   8.211   6.750
 7094POPC   C3A49217   0.444   8.246   7.050
 7094POPC   C4A49218   0.450   8.190   7.350
 7094POPC   C1B49219   0.277   8.349   6.450
 7094POPC   C2B49220   0.298   8.336   6.750
 7094POPC   C3B49221   0.259   8.401   7.050
 7094POPC   C4B49222   0.303   8.378   7.350
 7095POPC   NC349223  24.504   7.449   5.550
 7095POPC   PO449224  24.512   7.441   5.850
 7095POPC   GL149225  24.524   7.388   6.150
 7095POPC   GL249226  24.579   7.544   6.150
 7095POPC   C1A49227  24.526   7.463   6.450
 7095POPC   D2A49228  24.496   7.406   6.750
 7095POPC   C3A49229  24.461   7.390   7.050
 7095POPC   C4A49230  24.487   7.441   7.350
 7095POPC   C1B49231  24.702   7.546   6.450
 7095POPC   C2B49232  24.661   7.623   6.750
 7095POPC   C3B49233  24.663   7.580   7.050
 7095POPC   C4B49234  24.695   7.582   7.350
 7096POPC   NC349235   9.707  15.959   5.550
 7096POPC   PO449236   9.709  15.993   5.850
 7096POPC   GL149237   9.738  15.948   6.150
 7096POPC   GL249238   9.787  16.098   6.150
 7096POPC   C1A49239   9.789  15.988   6.450
 7096POPC   D2A49240   9.754  15.915   6.750
 7096POPC   C3A49241   9.792  15.910   7.050
 7096POPC   C4A49242   9.757  15.938   7.350
 7096POPC   C1B49243   9.809  16.175   6.450
 7096POPC   C2B49244   9.832  16.207   6.750
 7096POPC   C3B49245   9.837  16.143   7.050
 7096POPC   C4B49246   9.905  16.223   7.350
 7097POPC   NC349247  19.807   5.075   5.550
 7097POPC   PO449248  19.793   5.051   5.850
 7097POPC   GL149249  19.791   5.110   6.150
 7097POPC   GL249250  19.773   4.985   6.150
 7097POPC   C1A49251  19.804   5.050   6.450
 7097POPC   D2A49252  19.852   5.084   6.750
 7097POPC   C3A49253  19.845   5.081   7.050
 7097POPC   C4A49254  19.868   5.072   7.350
 7097POPC   C1B49255  19.665   4.923   6.450
 7097POPC   C2B49256  19.726   4.923   6.750
 7097POPC   C3B49257  19.714   4.876   7.050
 7097POPC   C4B49258  19.677   4.848   7.350
 7098POPC   NC349259  27.591  26.794   5.550
 7098POPC   PO449260  27.632  26.833   5.850
 7098POPC   GL149261  27.597  26.812   6.150
 7098POPC   GL249262  27.733  26.820   6.150
 7098POPC   C1A49263  27.581  26.818   6.450
 7098POPC   D2A49264  27.576  26.838   6.750
 7098POPC   C3A49265  27.612  26.788   7.050
 7098POPC   C4A49266  27.634  26.850   7.350
 7098POPC   C1B49267  27.859  26.765   6.450
 7098POPC   C2B49268  27.854  26.813   6.750
 7098POPC   C3B49269  27.790  26.774   7.050
 7098POPC   C4B49270  27.835  26.794   7.350
 7099POPC   NC349271  22.205  40.821   5.550
 7099POPC   PO449272  22.142  40.830   5.850
 7099POPC   GL149273  22.126  40.734   6.150
 7099POPC   GL249274  22.034  40.889   6.150
 7099POPC   C1A49275  22.137  40.771   6.450
 7099POPC   D2A49276  22.156  40.765   6.750
 7099POPC   C3A49277  22.173  40.763   7.050
 7099POPC   C4A49278  22.196  40.798   7.350
 7099POPC   C1B49279  21.936  40.966   6.450
 7099POPC   C2B49280  21.932  40.925   6.750
 7099POPC   C3B49281  22.003  40.919   7.050
 7099POPC   C4B49282  21.932  40.949   7.350
 7100POPC   NC349283  17.482   0.446   5.550
 7100POPC   PO449284  17.547   0.451   5.850
 7100POPC   GL149285  17.476   0.390   6.150
 7100POPC   GL249286  17.436   0.473   6.150
 7100POPC   C1A49287  17.519   0.400   6.450
 7100POPC   D2A49288  17.457   0.437   6.750
 7100POPC   C3A49289  17.473   0.441   7.050
 7100POPC   C4A49290  17.478   0.421   7.350
 7100POPC   C1B49291  17.275   0.591   6.450
 7100POPC   C2B49292  17.282   0.593   6.750
 7100POPC   C3B49293  17.278   0.556   7.050
 7100POPC   C4B49294  17.327   0.579   7.350
 7101POPC   NC349295   7.425  36.098   5.550
 7101POPC   PO449296   7.413  36.122   5.850
 7101POPC   GL149297   7.396  36.161   6.150
 7101POPC   GL249298   7.368  36.061   6.150
 7101POPC   C1A49299   7.463  36.147   6.450
 7101POPC   D2A49300   7.394  36.097   6.750
 7101POPC   C3A49301   7.465  36.110   7.050
 7101POPC   C4A49302   7.378  36.104   7.350
 7101POPC   C1B49303   7.213  35.949   6.450
 7101POPC   C2B49304   7.273  35.952   6.750
 7101POPC   C3B49305   7.253  35.982   7.050
 7101POPC   C4B49306   7.236  36.001   7.350
 7102POPC   NC349307  23.738  20.611   5.550
 7102POPC   PO449308  23.733  20.620   5.850
 7102POPC   GL149309  23.762  20.587   6.150
 7102POPC   GL249310  23.772  20.744   6.150
 7102POPC   C1A49311  23.743  20.567   6.450
 7102POPC   D2A49312  23.725  20.580   6.750
 7102POPC   C3A49313  23.664  20.650   7.050
 7102POPC   C4A49314  23.725  20.584   7.350
 7102POPC   C1B49315  23.733  20.848   6.450
 7102POPC   C2B49316  23.733  20.897   6.750
 7102POPC   C3B49317  23.783  20.891   7.050
 7102POPC   C4B49318  23.808  20.867   7.350
 7103POPC   NC349319   1.209  36.116   5.550
 7103POPC   PO449320   1.238  36.088   5.850
 7103POPC   GL149321   1.253  36.151   6.150
 7103POPC   GL249322   1.170  36.231   6.150
 7103POPC   C1A49323   1.225  36.110   6.450
 7103POPC   D2A49324   1.185  36.105   6.750
 7103POPC   C3A49325   1.216  36.171   7.050
 7103POPC   C4A49326   1.173  36.119   7.350
 7103POPC   C1B49327   1.200  36.354   6.450
 7103POPC   C2B49328   1.147  36.327   6.750
 7103POPC   C3B49329   1.127  36.411   7.050
 7103POPC   C4B49330   1.222  36.382   7.350
 7104POPC   NC349331   9.798  22.903   5.550
 7104POPC   PO449332   9.732  22.955   5.850
 7104POPC   GL149333   9.753  22.969   6.150
 7104POPC   GL249334   9.628  23.026   6.150
 7104POPC   C1A49335   9.752  22.913   6.450
 7104POPC   D2A49336   9.798  22.921   6.750
 7104POPC   C3A49337   9.718  22.968   7.050
 7104POPC   C4A49338   9.720  22.937   7.350
 7104POPC   C1B49339   9.530  23.082   6.450
 7104POPC   C2B49340   9.607  23.128   6.750
 7104POPC   C3B49341   9.606  23.145   7.050
 7104POPC   C4B49342   9.580  23.091   7.350
 7105POPC   NC349343  32.261   7.469   5.550
 7105POPC   PO449344  32.281   7.404   5.850
 7105POPC   GL149345  32.296   7.452   6.150
 7105POPC   GL249346  32.161   7.480   6.150
 7105POPC   C1A49347  32.247   7.429   6.450
 7105POPC   D2A49348  32.243   7.457   6.750
 7105POPC   C3A49349  32.264   7.372   7.050
 7105POPC   C4A49350  32.233   7.387   7.350
 7105POPC   C1B49351  32.065   7.628   6.450
 7105POPC   C2B49352  32.024   7.553   6.750
 7105POPC   C3B49353  32.018   7.541   7.050
 7105POPC   C4B49354  32.091   7.596   7.350
 7106POPC   NC349355   5.916  18.286   5.550
 7106POPC   PO449356   5.834  18.290   5.850
 7106POPC   GL149357   5.851  18.325   6.150
 7106POPC   GL249358   5.795  18.282   6.150
 7106POPC   C1A49359   5.871  18.324   6.450
 7106POPC   D2A49360   5.918  18.317   6.750
 7106POPC   C3A49361   5.839  18.283   7.050
 7106POPC   C4A49362   5.889  18.308   7.350
 7106POPC   C1B49363   5.668  18.172   6.450
 7106POPC   C2B49364   5.607  18.168   6.750
 7106POPC   C3B49365   5.638  18.184   7.050
 7106POPC   C4B49366   5.618  18.146   7.350
 7107POPC   NC349367  41.593  22.890   5.550
 7107POPC   PO449368  41.574  22.906   5.850
 7107POPC   GL149369  41.534  22.937   6.150
 7107POPC   GL249370  41.680  23.042   6.150
 7107POPC   C1A49371  41.560  22.904   6.450
 7107POPC   D2A49372  41.519  22.939   6.750
 7107POPC   C3A49373  41.595  22.967   7.050
 7107POPC   C4A49374  41.557  22.979   7.350
 7107POPC   C1B49375  41.784  23.106   6.450
 7107POPC   C2B49376  41.706  23.094   6.750
 7107POPC   C3B49377  41.689  23.157   7.050
 7107POPC   C4B49378  41.733  23.138   7.350
 7108POPC   NC349379  14.365  10.557   5.550
 7108POPC   PO449380  14.411  10.529   5.850
 7108POPC   GL149381  14.389  10.529   6.150
 7108POPC   GL249382  14.554  10.510   6.150
 7108POPC   C1A49383  14.370  10.565   6.450
 7108POPC   D2A49384  14.417  10.492   6.750
 7108POPC   C3A49385  14.414  10.495   7.050
 7108POPC   C4A49386  14.427  10.528   7.350
 7108POPC   C1B49387  14.663  10.430   6.450
 7108POPC   C2B49388  14.686  10.473   6.750
 7108POPC   C3B49389  14.636  10.436   7.050
 7108POPC   C4B49390  14.644  10.512   7.350
 7109POPC   NC349391  27.643  29.098   5.550
 7109POPC   PO449392  27.618  29.160   5.850
 7109POPC   GL149393  27.623  29.095   6.150
 7109POPC   GL249394  27.445  29.170   6.150
 7109POPC   C1A49395  27.545  29.143   6.450
 7109POPC   D2A49396  27.577  29.140   6.750
 7109POPC   C3A49397  27.577  29.154   7.050
 7109POPC   C4A49398  27.627  29.145   7.350
 7109POPC   C1B49399  27.394  29.235   6.450
 7109POPC   C2B49400  27.396  29.293   6.750
 7109POPC   C3B49401  27.342  29.248   7.050
 7109POPC   C4B49402  27.404  29.230   7.350
 7110POPC   NC349403  18.258   8.202   5.550
 7110POPC   PO449404  18.294   8.234   5.850
 7110POPC   GL149405  18.318   8.179   6.150
 7110POPC   GL249406  18.168   8.135   6.150
 7110POPC   C1A49407  18.317   8.177   6.450
 7110POPC   D2A49408  18.293   8.188   6.750
 7110POPC   C3A49409  18.302   8.192   7.050
 7110POPC   C4A49410  18.249   8.220   7.350
 7110POPC   C1B49411  18.067   8.129   6.450
 7110POPC   C2B49412  18.024   8.214   6.750
 7110POPC   C3B49413  18.079   8.153   7.050
 7110POPC   C4B49414  18.031   8.175   7.350
 7111POPC   NC349415  40.015  39.250   5.550
 7111POPC   PO449416  40.021  39.259   5.850
 7111POPC   GL149417  39.984  39.228   6.150
 7111POPC   GL249418  40.142  39.176   6.150
 7111POPC   C1A49419  39.982  39.264   6.450
 7111POPC   D2A49420  40.010  39.249   6.750
 7111POPC   C3A49421  40.016  39.233   7.050
 7111POPC   C4A49422  39.982  39.192   7.350
 7111POPC   C1B49423  40.198  39.078   6.450
 7111POPC   C2B49424  40.160  39.016   6.750
 7111POPC   C3B49425  40.240  39.049   7.050
 7111POPC   C4B49426  40.235  39.083   7.350
 7112POPC   NC349427   5.877   9.754   5.550
 7112POPC   PO449428   5.913   9.786   5.850
 7112POPC   GL149429   5.851   9.751   6.150
 7112POPC   GL249430   5.989   9.824   6.150
 7112POPC   C1A49431   5.825   9.725   6.450
 7112POPC   D2A49432   5.859   9.773   6.750
 7112POPC   C3A49433   5.867   9.703   7.050
 7112POPC   C4A49434   5.882   9.736   7.350
 7112POPC   C1B49435   6.057   9.833   6.450
 7112POPC   C2B49436   6.101   9.846   6.750
 7112POPC   C3B49437   6.085   9.880   7.050
 7112POPC   C4B49438   6.150   9.826   7.350
 7113POPC   NC349439  39.183  26.027   5.550
 7113POPC   PO449440  39.232  26.056   5.850
 7113POPC   GL149441  39.263  26.037   6.150
 7113POPC   GL249442  39.247  25.884   6.150
 7113POPC   C1A49443  39.219  26.052   6.450
 7113POPC   D2A49444  39.215  26.016   6.750
 7113POPC   C3A49445  39.203  26.067   7.050
 7113POPC   C4A49446  39.237  26.053   7.350
 7113POPC   C1B49447  39.223  25.768   6.450
 7113POPC   C2B49448  39.212  25.772   6.750
 7113POPC   C3B49449  39.215  25.831   7.050
 7113POPC   C4B49450  39.226  25.783   7.350
 7114POPC   NC349451  36.855  31.477   5.550
 7114POPC   PO449452  36.873  31.469   5.850
 7114POPC   GL149453  36.921  31.426   6.150
 7114POPC   GL249454  36.929  31.629   6.150
 7114POPC   C1A49455  36.945  31.521   6.450
 7114POPC   D2A49456  36.903  31.432   6.750
 7114POPC   C3A49457  36.940  31.439   7.050
 7114POPC   C4A49458  36.869  31.508   7.350
 7114POPC   C1B49459  36.865  31.716   6.450
 7114POPC   C2B49460  36.853  31.717   6.750
 7114POPC   C3B49461  36.843  31.704   7.050
 7114POPC   C4B49462  36.918  31.686   7.350
 7115POPC   NC349463  10.493  29.177   5.550
 7115POPC   PO449464  10.571  29.173   5.850
 7115POPC   GL149465  10.507  29.190   6.150
 7115POPC   GL249466  10.625  29.157   6.150
 7115POPC   C1A49467  10.498  29.115   6.450
 7115POPC   D2A49468  10.537  29.189   6.750
 7115POPC   C3A49469  10.478  29.151   7.050
 7115POPC   C4A49470  10.533  29.194   7.350
 7115POPC   C1B49471  10.754  29.174   6.450
 7115POPC   C2B49472  10.721  29.144   6.750
 7115POPC   C3B49473  10.766  29.219   7.050
 7115POPC   C4B49474  10.804  29.206   7.350
 7116POPC   NC349475  36.946  19.013   5.550
 7116POPC   PO449476  36.900  19.044   5.850
 7116POPC   GL149477  36.884  19.108   6.150
 7116POPC   GL249478  36.938  19.162   6.150
 7116POPC   C1A49479  36.858  19.073   6.450
 7116POPC   D2A49480  36.866  19.034   6.750
 7116POPC   C3A49481  36.876  19.095   7.050
 7116POPC   C4A49482  36.902  19.081   7.350
 7116POPC   C1B49483  37.044  19.273   6.450
 7116POPC   C2B49484  36.988  19.306   6.750
 7116POPC   C3B49485  37.054  19.272   7.050
 7116POPC   C4B49486  37.001  19.317   7.350
 7117POPC   NC349487  40.751   9.757   5.550
 7117POPC   PO449488  40.827   9.759   5.850
 7117POPC   GL149489  40.823   9.718   6.150
 7117POPC   GL249490  40.768   9.857   6.150
 7117POPC   C1A49491  40.739   9.776   6.450
 7117POPC   D2A49492  40.797   9.764   6.750
 7117POPC   C3A49493  40.742   9.726   7.050
 7117POPC   C4A49494  40.798   9.771   7.350
 7117POPC   C1B49495  40.687   9.991   6.450
 7117POPC   C2B49496  40.698  10.010   6.750
 7117POPC   C3B49497  40.684   9.939   7.050
 7117POPC   C4B49498  40.747   9.981   7.350
 7118POPC   NC349499  31.437  29.119   5.550
 7118POPC   PO449500  31.476  29.140   5.850
 7118POPC   GL149501  31.479  29.153   6.150
 7118POPC   GL249502  31.382  29.018   6.150
 7118POPC   C1A49503  31.434  29.164   6.450
 7118POPC   D2A49504  31.459  29.178   6.750
 7118POPC   C3A49505  31.426  29.164   7.050
 7118POPC   C4A49506  31.481  29.154   7.350
 7118POPC   C1B49507  31.315  28.898   6.450
 7118POPC   C2B49508  31.367  28.912   6.750
 7118POPC   C3B49509  31.308  28.966   7.050
 7118POPC   C4B49510  31.300  28.927   7.350
 7119POPC   NC349511  27.593  19.879   5.550
 7119POPC   PO449512  27.550  19.795   5.850
 7119POPC   GL149513  27.621  19.870   6.150
 7119POPC   GL249514  27.515  19.902   6.150
 7119POPC   C1A49515  27.629  19.848   6.450
 7119POPC   D2A49516  27.608  19.864   6.750
 7119POPC   C3A49517  27.585  19.793   7.050
 7119POPC   C4A49518  27.584  19.873   7.350
 7119POPC   C1B49519  27.504  20.085   6.450
 7119POPC   C2B49520  27.505  20.081   6.750
 7119POPC   C3B49521  27.522  20.036   7.050
 7119POPC   C4B49522  27.482  20.042   7.350
 7120POPC   NC349523  17.458   7.445   5.550
 7120POPC   PO449524  17.524   7.386   5.850
 7120POPC   GL149525  17.547   7.387   6.150
 7120POPC   GL249526  17.421   7.349   6.150
 7120POPC   C1A49527  17.527   7.456   6.450
 7120POPC   D2A49528  17.482   7.408   6.750
 7120POPC   C3A49529  17.521   7.373   7.050
 7120POPC   C4A49530  17.479   7.451   7.350
 7120POPC   C1B49531  17.299   7.235   6.450
 7120POPC   C2B49532  17.320   7.257   6.750
 7120POPC   C3B49533  17.274   7.259   7.050
 7120POPC   C4B49534  17.350   7.287   7.350
 7121POPC   NC349535  35.304   9.707   5.550
 7121POPC   PO449536  35.401   9.767   5.850
 7121POPC   GL149537  35.339   9.791   6.150
 7121POPC   GL249538  35.292   9.920   6.150
 7121POPC   C1A49539  35.305   9.767   6.450
 7121POPC   D2A49540  35.332   9.746   6.750
 7121POPC   C3A49541  35.397   9.728   7.050
 7121POPC   C4A49542  35.344   9.725   7.350
 7121POPC   C1B49543  35.291   9.993   6.450
 7121POPC   C2B49544  35.317   9.958   6.750
 7121POPC   C3B49545  35.310   9.955   7.050
 7121POPC   C4B49546  35.365   9.967   7.350
 7122POPC   NC349547  43.898  11.310   5.550
 7122POPC   PO449548  43.861  11.340   5.850
 7122POPC   GL149549  43.928  11.332   6.150
 7122POPC   GL249550  43.934  11.366   6.150
 7122POPC   C1A49551  43.926  11.310   6.450
 7122POPC   D2A49552  43.837  11.286   6.750
 7122POPC   C3A49553  43.907  11.319   7.050
 7122POPC   C4A49554  43.931  11.284   7.350
 7122POPC   C1B49555  44.006  11.557   6.450
 7122POPC   C2B49556  44.036  11.546   6.750
 7122POPC   C3B49557  44.048  11.522   7.050
 7122POPC   C4B49558  44.031  11.477   7.350
 7123POPC   NC349559  43.075  14.384   5.550
 7123POPC   PO449560  43.116  14.372   5.850
 7123POPC   GL149561  43.090  14.367   6.150
 7123POPC   GL249562  43.048  14.326   6.150
 7123POPC   C1A49563  43.158  14.418   6.450
 7123POPC   D2A49564  43.071  14.363   6.750
 7123POPC   C3A49565  43.146  14.375   7.050
 7123POPC   C4A49566  43.113  14.367   7.350
 7123POPC   C1B49567  42.961  14.205   6.450
 7123POPC   C2B49568  43.053  14.191   6.750
 7123POPC   C3B49569  43.024  14.163   7.050
 7123POPC   C4B49570  43.049  14.157   7.350
 7124POPC   NC349571  34.584  35.303   5.550
 7124POPC   PO449572  34.603  35.305   5.850
 7124POPC   GL149573  34.607  35.334   6.150
 7124POPC   GL249574  34.477  35.433   6.150
 7124POPC   C1A49575  34.580  35.337   6.450
 7124POPC   D2A49576  34.598  35.325   6.750
 7124POPC   C3A49577  34.625  35.371   7.050
 7124POPC   C4A49578  34.590  35.335   7.350
 7124POPC   C1B49579  34.377  35.555   6.450
 7124POPC   C2B49580  34.436  35.504   6.750
 7124POPC   C3B49581  34.438  35.528   7.050
 7124POPC   C4B49582  34.424  35.508   7.350
 7125POPC   NC349583  19.819  13.584   5.550
 7125POPC   PO449584  19.881  13.631   5.850
 7125POPC   GL149585  19.867  13.605   6.150
 7125POPC   GL249586  19.772  13.510   6.150
 7125POPC   C1A49587  19.879  13.621   6.450
 7125POPC   D2A49588  19.828  13.658   6.750
 7125POPC   C3A49589  19.859  13.652   7.050
 7125POPC   C4A49590  19.812  13.625   7.350
 7125POPC   C1B49591  19.689  13.429   6.450
 7125POPC   C2B49592  19.761  13.430   6.750
 7125POPC   C3B49593  19.769  13.399   7.050
 7125POPC   C4B49594  19.698  13.442   7.350
 7126POPC   NC349595  20.600   3.535   5.550
 7126POPC   PO449596  20.646   3.562   5.850
 7126POPC   GL149597  20.643   3.587   6.150
 7126POPC   GL249598  20.470   3.444   6.150
 7126POPC   C1A49599  20.605   3.498   6.450
 7126POPC   D2A49600  20.594   3.498   6.750
 7126POPC   C3A49601  20.653   3.530   7.050
 7126POPC   C4A49602  20.628   3.511   7.350
 7126POPC   C1B49603  20.411   3.446   6.450
 7126POPC   C2B49604  20.443   3.390   6.750
 7126POPC   C3B49605  20.450   3.406   7.050
 7126POPC   C4B49606  20.435   3.377   7.350
 7127POPC   NC349607  42.335  20.620   5.550
 7127POPC   PO449608  42.309  20.569   5.850
 7127POPC   GL149609  42.323  20.601   6.150
 7127POPC   GL249610  42.238  20.526   6.150
 7127POPC   C1A49611  42.330  20.649   6.450
 7127POPC   D2A49612  42.372  20.601   6.750
 7127POPC   C3A49613  42.321  20.648   7.050
 7127POPC   C4A49614  42.363  20.612   7.350
 7127POPC   C1B49615  42.087  20.445   6.450
 7127POPC   C2B49616  42.100  20.511   6.750
 7127POPC   C3B49617  42.134  20.533   7.050
 7127POPC   C4B49618  42.153  20.468   7.350
 7128POPC   NC349619   8.962  42.380   5.550
 7128POPC   PO449620   8.983  42.309   5.850
 7128POPC   GL149621   8.984  42.295   6.150
 7128POPC   GL249622   9.007  42.411   6.150
 7128POPC   C1A49623   8.990  42.329   6.450
 7128POPC   D2A49624   8.999  42.285   6.750
 7128POPC   C3A49625   8.950  42.357   7.050
 7128POPC   C4A49626   8.956  42.377   7.350
 7128POPC   C1B49627   9.036  42.576   6.450
 7128POPC   C2B49628   9.058  42.584   6.750
 7128POPC   C3B49629   9.092  42.524   7.050
 7128POPC   C4B49630   9.014  42.542   7.350
 7129POPC   NC349631   5.909  39.239   5.550
 7129POPC   PO449632   5.861  39.217   5.850
 7129POPC   GL149633   5.847  39.219   6.150
 7129POPC   GL249634   5.778  39.234   6.150
 7129POPC   C1A49635   5.837  39.275   6.450
 7129POPC   D2A49636   5.863  39.211   6.750
 7129POPC   C3A49637   5.865  39.214   7.050
 7129POPC   C4A49638   5.875  39.209   7.350
 7129POPC   C1B49639   5.638  39.212   6.450
 7129POPC   C2B49640   5.606  39.224   6.750
 7129POPC   C3B49641   5.654  39.243   7.050
 7129POPC   C4B49642   5.589  39.267   7.350
 7130POPC   NC349643   6.657  26.057   5.550
 7130POPC   PO449644   6.606  26.037   5.850
 7130POPC   GL149645   6.629  26.040   6.150
 7130POPC   GL249646   6.795  26.068   6.150
 7130POPC   C1A49647   6.694  26.026   6.450
 7130POPC   D2A49648   6.682  26.064   6.750
 7130POPC   C3A49649   6.692  26.056   7.050
 7130POPC   C4A49650   6.603  26.006   7.350
 7130POPC   C1B49651   6.861  26.005   6.450
 7130POPC   C2B49652   6.887  26.020   6.750
 7130POPC   C3B49653   6.908  26.059   7.050
 7130POPC   C4B49654   6.939  26.090   7.350
 7131POPC   NC349655  36.083  31.467   5.550
 7131POPC   PO449656  36.156  31.484   5.850
 7131POPC   GL149657  36.107  31.448   6.150
 7131POPC   GL249658  36.086  31.563   6.150
 7131POPC   C1A49659  36.120  31.507   6.450
 7131POPC   D2A49660  36.131  31.456   6.750
 7131POPC   C3A49661  36.161  31.513   7.050
 7131POPC   C4A49662  36.166  31.499   7.350
 7131POPC   C1B49663  35.971  31.693   6.450
 7131POPC   C2B49664  35.986  31.625   6.750
 7131POPC   C3B49665  35.918  31.665   7.050
 7131POPC   C4B49666  35.944  31.624   7.350
 7132POPC   NC349667  19.825  26.781   5.550
 7132POPC   PO449668  19.831  26.787   5.850
 7132POPC   GL149669  19.835  26.821   6.150
 7132POPC   GL249670  19.928  26.669   6.150
 7132POPC   C1A49671  19.811  26.817   6.450
 7132POPC   D2A49672  19.797  26.805   6.750
 7132POPC   C3A49673  19.834  26.790   7.050
 7132POPC   C4A49674  19.881  26.769   7.350
 7132POPC   C1B49675  19.943  26.607   6.450
 7132POPC   C2B49676  19.940  26.569   6.750
 7132POPC   C3B49677  19.953  26.623   7.050
 7132POPC   C4B49678  19.913  26.555   7.350
 7133POPC   NC349679  33.032  29.925   5.550
 7133POPC   PO449680  33.041  29.909   5.850
 7133POPC   GL149681  33.066  29.893   6.150
 7133POPC   GL249682  33.103  29.811   6.150
 7133POPC   C1A49683  33.060  29.959   6.450
 7133POPC   D2A49684  33.017  29.956   6.750
 7133POPC   C3A49685  33.015  29.918   7.050
 7133POPC   C4A49686  33.008  29.942   7.350
 7133POPC   C1B49687  33.148  29.721   6.450
 7133POPC   C2B49688  33.190  29.693   6.750
 7133POPC   C3B49689  33.138  29.675   7.050
 7133POPC   C4B49690  33.183  29.747   7.350
 7134POPC   NC349691  38.460  29.103   5.550
 7134POPC   PO449692  38.420  29.194   5.850
 7134POPC   GL149693  38.438  29.148   6.150
 7134POPC   GL249694  38.513  29.277   6.150
 7134POPC   C1A49695  38.452  29.154   6.450
 7134POPC   D2A49696  38.473  29.140   6.750
 7134POPC   C3A49697  38.501  29.184   7.050
 7134POPC   C4A49698  38.483  29.153   7.350
 7134POPC   C1B49699  38.510  29.357   6.450
 7134POPC   C2B49700  38.556  29.392   6.750
 7134POPC   C3B49701  38.530  29.408   7.050
 7134POPC   C4B49702  38.526  29.404   7.350
 7135POPC   NC349703  37.680  26.045   5.550
 7135POPC   PO449704  37.696  26.055   5.850
 7135POPC   GL149705  37.717  26.029   6.150
 7135POPC   GL249706  37.660  25.932   6.150
 7135POPC   C1A49707  37.719  26.045   6.450
 7135POPC   D2A49708  37.723  26.057   6.750
 7135POPC   C3A49709  37.719  26.064   7.050
 7135POPC   C4A49710  37.719  26.006   7.350
 7135POPC   C1B49711  37.729  25.803   6.450
 7135POPC   C2B49712  37.715  25.808   6.750
 7135POPC   C3B49713  37.716  25.780   7.050
 7135POPC   C4B49714  37.778  25.765   7.350
 7136POPC   NC349715  12.875  19.797   5.550
 7136POPC   PO449716  12.900  19.853   5.850
 7136POPC   GL149717  12.814  19.793   6.150
 7136POPC   GL249718  12.711  19.700   6.150
 7136POPC   C1A49719  12.887  19.884   6.450
 7136POPC   D2A49720  12.829  19.801   6.750
 7136POPC   C3A49721  12.834  19.824   7.050
 7136POPC   C4A49722  12.870  19.823   7.350
 7136POPC   C1B49723  12.695  19.683   6.450
 7136POPC   C2B49724  12.659  19.708   6.750
 7136POPC   C3B49725  12.656  19.704   7.050
 7136POPC   C4B49726  12.715  19.648   7.350
 7137POPC   NC349727  39.999  44.700   5.550
 7137POPC   PO449728  40.046  44.695   5.850
 7137POPC   GL149729  39.962  44.649   6.150
 7137POPC   GL249730  39.841  44.634   6.150
 7137POPC   C1A49731  39.975  44.649   6.450
 7137POPC   D2A49732  39.978  44.650   6.750
 7137POPC   C3A49733  40.040  44.613   7.050
 7137POPC   C4A49734  39.963  44.658   7.350
 7137POPC   C1B49735  39.727  44.628   6.450
 7137POPC   C2B49736  39.781  44.699   6.750
 7137POPC   C3B49737  39.793  44.648   7.050
 7137POPC   C4B49738  39.806  44.631   7.350
 7138POPC   NC349739   9.778  24.443   5.550
 7138POPC   PO449740   9.723  24.527   5.850
 7138POPC   GL149741   9.713  24.468   6.150
 7138POPC   GL249742   9.721  24.370   6.150
 7138POPC   C1A49743   9.747  24.455   6.450
 7138POPC   D2A49744   9.716  24.463   6.750
 7138POPC   C3A49745   9.752  24.528   7.050
 7138POPC   C4A49746   9.700  24.509   7.350
 7138POPC   C1B49747   9.703  24.206   6.450
 7138POPC   C2B49748   9.678  24.217   6.750
 7138POPC   C3B49749   9.692  24.224   7.050
 7138POPC   C4B49750   9.651  24.247   7.350
 7139POPC   NC349751  40.735  44.673   5.550
 7139POPC   PO449752  40.792  44.648   5.850
 7139POPC   GL149753  40.821  44.674   6.150
 7139POPC   GL249754  40.651  44.642   6.150
 7139POPC   C1A49755  40.780  44.701   6.450
 7139POPC   D2A49756  40.806  44.694   6.750
 7139POPC   C3A49757  40.742  44.689   7.050
 7139POPC   C4A49758  40.783  44.669   7.350
 7139POPC   C1B49759  40.535  44.673   6.450
 7139POPC   C2B49760  40.525  44.633   6.750
 7139POPC   C3B49761  40.581  44.606   7.050
 7139POPC   C4B49762  40.533  44.645   7.350
 7140POPC   NC349763  12.029  22.926   5.550
 7140POPC   PO449764  12.057  22.967   5.850
 7140POPC   GL149765  12.032  22.904   6.150
 7140POPC   GL249766  12.064  22.868   6.150
 7140POPC   C1A49767  12.026  22.899   6.450
 7140POPC   D2A49768  12.101  22.980   6.750
 7140POPC   C3A49769  12.065  22.962   7.050
 7140POPC   C4A49770  12.041  22.952   7.350
 7140POPC   C1B49771  12.053  22.710   6.450
 7140POPC   C2B49772  12.028  22.688   6.750
 7140POPC   C3B49773  12.055  22.744   7.050
 7140POPC   C4B49774  11.997  22.675   7.350
 7141POPC   NC349775  25.283  33.829   5.550
 7141POPC   PO449776  25.308  33.773   5.850
 7141POPC   GL149777  25.233  33.776   6.150
 7141POPC   GL249778  25.194  33.863   6.150
 7141POPC   C1A49779  25.248  33.829   6.450
 7141POPC   D2A49780  25.221  33.846   6.750
 7141POPC   C3A49781  25.267  33.762   7.050
 7141POPC   C4A49782  25.286  33.762   7.350
 7141POPC   C1B49783  25.080  33.864   6.450
 7141POPC   C2B49784  25.084  33.944   6.750
 7141POPC   C3B49785  25.025  33.857   7.050
 7141POPC   C4B49786  25.005  33.876   7.350
 7142POPC   NC349787  44.662  14.404   5.550
 7142POPC   PO449788  44.664  14.391   5.850
 7142POPC   GL149789  44.631  14.382   6.150
 7142POPC   GL249790  44.815  14.432   6.150
 7142POPC   C1A49791  44.653  14.392   6.450
 7142POPC   D2A49792  44.660  14.422   6.750
 7142POPC   C3A49793  44.640  14.447   7.050
 7142POPC   C4A49794  44.615  14.398   7.350
 7142POPC   C1B49795  44.935  14.368   6.450
 7142POPC   C2B49796  44.869  14.387   6.750
 7142POPC   C3B49797  44.959  14.432   7.050
 7142POPC   C4B49798  44.906  14.363   7.350
 7143POPC   NC349799  15.955  19.102   5.550
 7143POPC   PO449800  15.965  19.075   5.850
 7143POPC   GL149801  15.926  19.083   6.150
 7143POPC   GL249802  16.024  19.163   6.150
 7143POPC   C1A49803  15.982  19.064   6.450
 7143POPC   D2A49804  15.921  19.090   6.750
 7143POPC   C3A49805  15.955  19.061   7.050
 7143POPC   C4A49806  15.907  19.094   7.350
 7143POPC   C1B49807  16.161  19.144   6.450
 7143POPC   C2B49808  16.200  19.142   6.750
 7143POPC   C3B49809  16.137  19.189   7.050
 7143POPC   C4B49810  16.216  19.230   7.350
 7144POPC   NC349811  33.776  15.976   5.550
 7144POPC   PO449812  33.844  15.940   5.850
 7144POPC   GL149813  33.784  15.972   6.150
 7144POPC   GL249814  33.703  16.039   6.150
 7144POPC   C1A49815  33.753  15.990   6.450
 7144POPC   D2A49816  33.841  15.993   6.750
 7144POPC   C3A49817  33.812  15.961   7.050
 7144POPC   C4A49818  33.780  15.991   7.350
 7144POPC   C1B49819  33.589  16.005   6.450
 7144POPC   C2B49820  33.552  16.013   6.750
 7144POPC   C3B49821  33.577  16.094   7.050
 7144POPC   C4B49822  33.559  16.033   7.350
 7145POPC   NC349823  19.063  13.600   5.550
 7145POPC   PO449824  19.078  13.580   5.850
 7145POPC   GL149825  19.014  13.601   6.150
 7145POPC   GL249826  18.973  13.738   6.150
 7145POPC   C1A49827  19.028  13.677   6.450
 7145POPC   D2A49828  19.010  13.634   6.750
 7145POPC   C3A49829  19.022  13.663   7.050
 7145POPC   C4A49830  19.065  13.631   7.350
 7145POPC   C1B49831  18.950  13.842   6.450
 7145POPC   C2B49832  18.962  13.898   6.750
 7145POPC   C3B49833  18.990  13.844   7.050
 7145POPC   C4B49834  18.986  13.812   7.350
 7146POPC   NC349835   2.729  22.170   5.550
 7146POPC   PO449836   2.790  22.166   5.850
 7146POPC   GL149837   2.746  22.207   6.150
 7146POPC   GL249838   2.657  22.228   6.150
 7146POPC   C1A49839   2.796  22.191   6.450
 7146POPC   D2A49840   2.789  22.193   6.750
 7146POPC   C3A49841   2.721  22.149   7.050
 7146POPC   C4A49842   2.791  22.113   7.350
 7146POPC   C1B49843   2.644  22.362   6.450
 7146POPC   C2B49844   2.622  22.376   6.750
 7146POPC   C3B49845   2.578  22.336   7.050
 7146POPC   C4B49846   2.626  22.385   7.350
 7147POPC   NC349847  29.112  35.304   5.550
 7147POPC   PO449848  29.104  35.372   5.850
 7147POPC   GL149849  29.137  35.328   6.150
 7147POPC   GL249850  29.221  35.279   6.150
 7147POPC   C1A49851  29.171  35.330   6.450
 7147POPC   D2A49852  29.155  35.334   6.750
 7147POPC   C3A49853  29.167  35.396   7.050
 7147POPC   C4A49854  29.111  35.307   7.350
 7147POPC   C1B49855  29.313  35.166   6.450
 7147POPC   C2B49856  29.382  35.158   6.750
 7147POPC   C3B49857  29.374  35.173   7.050
 7147POPC   C4B49858  29.301  35.175   7.350
 7148POPC   NC349859  30.680   4.357   5.550
 7148POPC   PO449860  30.743   4.327   5.850
 7148POPC   GL149861  30.740   4.338   6.150
 7148POPC   GL249862  30.715   4.415   6.150
 7148POPC   C1A49863  30.706   4.356   6.450
 7148POPC   D2A49864  30.678   4.292   6.750
 7148POPC   C3A49865  30.678   4.268   7.050
 7148POPC   C4A49866  30.676   4.311   7.350
 7148POPC   C1B49867  30.725   4.560   6.450
 7148POPC   C2B49868  30.674   4.524   6.750
 7148POPC   C3B49869  30.720   4.535   7.050
 7148POPC   C4B49870  30.678   4.613   7.350
 7149POPC   NC349871  31.486  33.056   5.550
 7149POPC   PO449872  31.471  33.018   5.850
 7149POPC   GL149873  31.481  33.069   6.150
 7149POPC   GL249874  31.446  32.946   6.150
 7149POPC   C1A49875  31.494  33.055   6.450
 7149POPC   D2A49876  31.459  33.066   6.750
 7149POPC   C3A49877  31.455  32.996   7.050
 7149POPC   C4A49878  31.517  32.999   7.350
 7149POPC   C1B49879  31.379  32.851   6.450
 7149POPC   C2B49880  31.330  32.818   6.750
 7149POPC   C3B49881  31.297  32.864   7.050
 7149POPC   C4B49882  31.311  32.815   7.350
 7150POPC   NC349883  13.665  32.986   5.550
 7150POPC   PO449884  13.672  33.072   5.850
 7150POPC   GL149885  13.624  32.989   6.150
 7150POPC   GL249886  13.628  33.112   6.150
 7150POPC   C1A49887  13.663  32.984   6.450
 7150POPC   D2A49888  13.646  33.057   6.750
 7150POPC   C3A49889  13.621  33.047   7.050
 7150POPC   C4A49890  13.600  33.012   7.350
 7150POPC   C1B49891  13.737  33.258   6.450
 7150POPC   C2B49892  13.729  33.227   6.750
 7150POPC   C3B49893  13.716  33.240   7.050
 7150POPC   C4B49894  13.686  33.295   7.350
 7151POPC   NC349895  12.901  11.326   5.550
 7151POPC   PO449896  12.887  11.291   5.850
 7151POPC   GL149897  12.883  11.292   6.150
 7151POPC   GL249898  12.722  11.389   6.150
 7151POPC   C1A49899  12.842  11.286   6.450
 7151POPC   D2A49900  12.856  11.278   6.750
 7151POPC   C3A49901  12.899  11.327   7.050
 7151POPC   C4A49902  12.812  11.306   7.350
 7151POPC   C1B49903  12.655  11.460   6.450
 7151POPC   C2B49904  12.632  11.449   6.750
 7151POPC   C3B49905  12.702  11.467   7.050
 7151POPC   C4B49906  12.703  11.462   7.350
 7152POPC   NC349907  44.706  42.310   5.550
 7152POPC   PO449908  44.708  42.296   5.850
 7152POPC   GL149909  44.677  42.343   6.150
 7152POPC   GL249910  44.667  42.413   6.150
 7152POPC   C1A49911  44.636  42.334   6.450
 7152POPC   D2A49912  44.640  42.314   6.750
 7152POPC   C3A49913  44.666  42.348   7.050
 7152POPC   C4A49914  44.668  42.298   7.350
 7152POPC   C1B49915  44.692  42.588   6.450
 7152POPC   C2B49916  44.723  42.619   6.750
 7152POPC   C3B49917  44.653  42.538   7.050
 7152POPC   C4B49918  44.688  42.625   7.350
 7153POPC   NC349919   1.241   7.414   5.550
 7153POPC   PO449920   1.238   7.446   5.850
 7153POPC   GL149921   1.194   7.416   6.150
 7153POPC   GL249922   1.266   7.536   6.150
 7153POPC   C1A49923   1.244   7.402   6.450
 7153POPC   D2A49924   1.256   7.384   6.750
 7153POPC   C3A49925   1.210   7.402   7.050
 7153POPC   C4A49926   1.230   7.446   7.350
 7153POPC   C1B49927   1.343   7.624   6.450
 7153POPC   C2B49928   1.333   7.571   6.750
 7153POPC   C3B49929   1.414   7.562   7.050
 7153POPC   C4B49930   1.396   7.638   7.350
 7154POPC   NC349931  15.133  29.138   5.550
 7154POPC   PO449932  15.218  29.176   5.850
 7154POPC   GL149933  15.173  29.155   6.150
 7154POPC   GL249934  15.032  29.168   6.150
 7154POPC   C1A49935  15.166  29.160   6.450
 7154POPC   D2A49936  15.149  29.145   6.750
 7154POPC   C3A49937  15.141  29.105   7.050
 7154POPC   C4A49938  15.152  29.122   7.350
 7154POPC   C1B49939  14.925  29.256   6.450
 7154POPC   C2B49940  14.967  29.335   6.750
 7154POPC   C3B49941  14.949  29.313   7.050
 7154POPC   C4B49942  14.938  29.260   7.350
 7155POPC   NC349943   0.415  41.596   5.550
 7155POPC   PO449944   0.414  41.581   5.850
 7155POPC   GL149945   0.458  41.594   6.150
 7155POPC   GL249946   0.343  41.694   6.150
 7155POPC   C1A49947   0.421  41.602   6.450
 7155POPC   D2A49948   0.399  41.517   6.750
 7155POPC   C3A49949   0.432  41.516   7.050
 7155POPC   C4A49950   0.480  41.510   7.350
 7155POPC   C1B49951   0.246  41.792   6.450
 7155POPC   C2B49952   0.246  41.712   6.750
 7155POPC   C3B49953   0.308  41.745   7.050
 7155POPC   C4B49954   0.294  41.788   7.350
 7156POPC   NC349955  22.970  42.380   5.550
 7156POPC   PO449956  22.939  42.292   5.850
 7156POPC   GL149957  22.956  42.366   6.150
 7156POPC   GL249958  23.094  42.382   6.150
 7156POPC   C1A49959  22.949  42.314   6.450
 7156POPC   D2A49960  22.954  42.329   6.750
 7156POPC   C3A49961  22.907  42.320   7.050
 7156POPC   C4A49962  22.918  42.339   7.350
 7156POPC   C1B49963  23.195  42.377   6.450
 7156POPC   C2B49964  23.206  42.350   6.750
 7156POPC   C3B49965  23.160  42.342   7.050
 7156POPC   C4B49966  23.156  42.345   7.350
 7157POPC   NC349967  12.817  40.736   5.550
 7157POPC   PO449968  12.861  40.822   5.850
 7157POPC   GL149969  12.848  40.798   6.150
 7157POPC   GL249970  12.826  40.919   6.150
 7157POPC   C1A49971  12.813  40.759   6.450
 7157POPC   D2A49972  12.848  40.746   6.750
 7157POPC   C3A49973  12.849  40.808   7.050
 7157POPC   C4A49974  12.846  40.741   7.350
 7157POPC   C1B49975  12.772  41.007   6.450
 7157POPC   C2B49976  12.762  41.004   6.750
 7157POPC   C3B49977  12.741  41.050   7.050
 7157POPC   C4B49978  12.752  41.009   7.350
 7158POPC   NC349979   7.384  19.858   5.550
 7158POPC   PO449980   7.433  19.837   5.850
 7158POPC   GL149981   7.427  19.801   6.150
 7158POPC   GL249982   7.356  19.709   6.150
 7158POPC   C1A49983   7.432  19.823   6.450
 7158POPC   D2A49984   7.384  19.824   6.750
 7158POPC   C3A49985   7.450  19.822   7.050
 7158POPC   C4A49986   7.410  19.883   7.350
 7158POPC   C1B49987   7.347  19.599   6.450
 7158POPC   C2B49988   7.363  19.541   6.750
 7158POPC   C3B49989   7.357  19.622   7.050
 7158POPC   C4B49990   7.338  19.560   7.350
 7159POPC   NC349991   5.844  26.076   5.550
 7159POPC   PO449992   5.850  26.061   5.850
 7159POPC   GL149993   5.894  26.040   6.150
 7159POPC   GL249994   5.934  25.983   6.150
 7159POPC   C1A49995   5.835  26.038   6.450
 7159POPC   D2A49996   5.915  26.028   6.750
 7159POPC   C3A49997   5.837  26.004   7.050
 7159POPC   C4A49998   5.825  26.065   7.350
 7159POPC   C1B49999   6.030  25.884   6.450
 7159POPC   C2B50000   6.057  25.890   6.750
 7159POPC   C3B50001   6.008  25.883   7.050
 7159POPC   C4B50002   6.039  25.829   7.350
 7160POPC   NC350003  34.618  12.813   5.550
 7160POPC   PO450004  34.591  12.803   5.850
 7160POPC   GL150005  34.577  12.896   6.150
 7160POPC   GL250006  34.601  12.970   6.150
 7160POPC   C1A50007  34.545  12.891   6.450
 7160POPC   D2A50008  34.542  12.809   6.750
 7160POPC   C3A50009  34.580  12.830   7.050
 7160POPC   C4A50010  34.570  12.898   7.350
 7160POPC   C1B50011  34.651  13.125   6.450
 7160POPC   C2B50012  34.694  13.044   6.750
 7160POPC   C3B50013  34.642  13.069   7.050
 7160POPC   C4B50014  34.607  13.121   7.350
 7161POPC   NC350015  35.366  17.521   5.550
 7161POPC   PO450016  35.314  17.469   5.850
 7161POPC   GL150017  35.321  17.550   6.150
 7161POPC   GL250018  35.325  17.632   6.150
 7161POPC   C1A50019  35.394  17.547   6.450
 7161POPC   D2A50020  35.332  17.479   6.750
 7161POPC   C3A50021  35.338  17.520   7.050
 7161POPC   C4A50022  35.338  17.501   7.350
 7161POPC   C1B50023  35.274  17.762   6.450
 7161POPC   C2B50024  35.221  17.726   6.750
 7161POPC   C3B50025  35.232  17.739   7.050
 7161POPC   C4B50026  35.194  17.692   7.350
 7162POPC   NC350027  17.532   8.147   5.550
 7162POPC   PO450028  17.473   8.172   5.850
 7162POPC   GL150029  17.472   8.151   6.150
 7162POPC   GL250030  17.445   8.097   6.150
 7162POPC   C1A50031  17.493   8.219   6.450
 7162POPC   D2A50032  17.500   8.170   6.750
 7162POPC   C3A50033  17.553   8.165   7.050
 7162POPC   C4A50034  17.486   8.213   7.350
 7162POPC   C1B50035  17.311   8.034   6.450
 7162POPC   C2B50036  17.361   8.037   6.750
 7162POPC   C3B50037  17.336   8.005   7.050
 7162POPC   C4B50038  17.320   7.996   7.350
 7163POPC   NC350039  29.110   4.346   5.550
 7163POPC   PO450040  29.163   4.330   5.850
 7163POPC   GL150041  29.160   4.271   6.150
 7163POPC   GL250042  29.243   4.217   6.150
 7163POPC   C1A50043  29.160   4.362   6.450
 7163POPC   D2A50044  29.127   4.318   6.750
 7163POPC   C3A50045  29.175   4.315   7.050
 7163POPC   C4A50046  29.155   4.324   7.350
 7163POPC   C1B50047  29.217   4.068   6.450
 7163POPC   C2B50048  29.223   4.086   6.750
 7163POPC   C3B50049  29.273   4.050   7.050
 7163POPC   C4B50050  29.279   4.125   7.350
 7164POPC   NC350051  15.164  43.898   5.550
 7164POPC   PO450052  15.139  43.909   5.850
 7164POPC   GL150053  15.149  43.883   6.150
 7164POPC   GL250054  15.148  44.034   6.150
 7164POPC   C1A50055  15.207  43.843   6.450
 7164POPC   D2A50056  15.185  43.885   6.750
 7164POPC   C3A50057  15.174  43.855   7.050
 7164POPC   C4A50058  15.170  43.888   7.350
 7164POPC   C1B50059  15.069  44.071   6.450
 7164POPC   C2B50060  15.010  44.074   6.750
 7164POPC   C3B50061  15.002  44.133   7.050
 7164POPC   C4B50062  15.002  44.125   7.350
 7165POPC   NC350063  21.419  11.343   5.550
 7165POPC   PO450064  21.350  11.293   5.850
 7165POPC   GL150065  21.393  11.305   6.150
 7165POPC   GL250066  21.366  11.376   6.150
 7165POPC   C1A50067  21.376  11.275   6.450
 7165POPC   D2A50068  21.399  11.316   6.750
 7165POPC   C3A50069  21.367  11.288   7.050
 7165POPC   C4A50070  21.354  11.343   7.350
 7165POPC   C1B50071  21.343  11.512   6.450
 7165POPC   C2B50072  21.340  11.516   6.750
 7165POPC   C3B50073  21.394  11.545   7.050
 7165POPC   C4B50074  21.349  11.512   7.350
 7166POPC   NC350075  35.357  11.298   5.550
 7166POPC   PO450076  35.394  11.334   5.850
 7166POPC   GL150077  35.328  11.283   6.150
 7166POPC   GL250078  35.364  11.458   6.150
 7166POPC   C1A50079  35.311  11.283   6.450
 7166POPC   D2A50080  35.332  11.348   6.750
 7166POPC   C3A50081  35.385  11.295   7.050
 7166POPC   C4A50082  35.380  11.270   7.350
 7166POPC   C1B50083  35.406  11.516   6.450
 7166POPC   C2B50084  35.457  11.527   6.750
 7166POPC   C3B50085  35.415  11.524   7.050
 7166POPC   C4B50086  35.466  11.555   7.350
 7167POPC   NC350087  15.985   0.465   5.550
 7167POPC   PO450088  15.927   0.450   5.850
 7167POPC   GL150089  15.995   0.463   6.150
 7167POPC   GL250090  15.904   0.364   6.150
 7167POPC   C1A50091  15.910   0.409   6.450
 7167POPC   D2A50092  15.939   0.457   6.750
 7167POPC   C3A50093  15.926   0.485   7.050
 7167POPC   C4A50094  15.906   0.424   7.350
 7167POPC   C1B50095  15.833   0.196   6.450
 7167POPC   C2B50096  15.839   0.197   6.750
 7167POPC   C3B50097  15.832   0.175   7.050
 7167POPC   C4B50098  15.826   0.263   7.350
 7168POPC   NC350099  42.328  29.176   5.550
 7168POPC   PO450100  42.298  29.159   5.850
 7168POPC   GL150101  42.368  29.187   6.150
 7168POPC   GL250102  42.223  29.107   6.150
 7168POPC   C1A50103  42.363  29.173   6.450
 7168POPC   D2A50104  42.295  29.111   6.750
 7168POPC   C3A50105  42.362  29.157   7.050
 7168POPC   C4A50106  42.352  29.185   7.350
 7168POPC   C1B50107  42.144  29.035   6.450
 7168POPC   C2B50108  42.148  29.029   6.750
 7168POPC   C3B50109  42.119  28.999   7.050
 7168POPC   C4B50110  42.105  28.973   7.350
 7169POPC   NC350111  44.639  44.632   5.550
 7169POPC   PO450112  44.631  44.712   5.850
 7169POPC   GL150113  44.646  44.617   6.150
 7169POPC   GL250114  44.658  44.489   6.150
 7169POPC   C1A50115  44.646  44.626   6.450
 7169POPC   D2A50116  44.639  44.658   6.750
 7169POPC   C3A50117  44.692  44.685   7.050
 7169POPC   C4A50118  44.691  44.637   7.350
 7169POPC   C1B50119  44.631  44.370   6.450
 7169POPC   C2B50120  44.598  44.410   6.750
 7169POPC   C3B50121  44.670  44.448   7.050
 7169POPC   C4B50122  44.683  44.427   7.350
 7170POPC   NC350123   8.165  29.879   5.550
 7170POPC   PO450124   8.244  29.920   5.850
 7170POPC   GL150125   8.190  29.915   6.150
 7170POPC   GL250126   8.191  29.787   6.150
 7170POPC   C1A50127   8.203  29.915   6.450
 7170POPC   D2A50128   8.201  29.900   6.750
 7170POPC   C3A50129   8.155  29.938   7.050
 7170POPC   C4A50130   8.172  29.970   7.350
 7170POPC   C1B50131   8.283  29.709   6.450
 7170POPC   C2B50132   8.271  29.692   6.750
 7170POPC   C3B50133   8.259  29.632   7.050
 7170POPC   C4B50134   8.268  29.713   7.350
 7171POPC   NC350135  37.695  15.984   5.550
 7171POPC   PO450136  37.651  15.931   5.850
 7171POPC   GL150137  37.667  15.958   6.150
 7171POPC   GL250138  37.647  16.067   6.150
 7171POPC   C1A50139  37.647  15.932   6.450
 7171POPC   D2A50140  37.673  15.992   6.750
 7171POPC   C3A50141  37.728  15.954   7.050
 7171POPC   C4A50142  37.638  15.915   7.350
 7171POPC   C1B50143  37.583  16.201   6.450
 7171POPC   C2B50144  37.548  16.171   6.750
 7171POPC   C3B50145  37.506  16.138   7.050
 7171POPC   C4B50146  37.556  16.186   7.350
 7172POPC   NC350147  11.264   6.643   5.550
 7172POPC   PO450148  11.323   6.608   5.850
 7172POPC   GL150149  11.301   6.658   6.150
 7172POPC   GL250150  11.436   6.643   6.150
 7172POPC   C1A50151  11.271   6.684   6.450
 7172POPC   D2A50152  11.310   6.636   6.750
 7172POPC   C3A50153  11.349   6.679   7.050
 7172POPC   C4A50154  11.300   6.610   7.350
 7172POPC   C1B50155  11.526   6.585   6.450
 7172POPC   C2B50156  11.550   6.561   6.750
 7172POPC   C3B50157  11.572   6.603   7.050
 7172POPC   C4B50158  11.516   6.526   7.350
 7173POPC   NC350159   0.390  36.130   5.550
 7173POPC   PO450160   0.449  36.161   5.850
 7173POPC   GL150161   0.445  36.130   6.150
 7173POPC   GL250162   0.478  36.020   6.150
 7173POPC   C1A50163   0.449  36.165   6.450
 7173POPC   D2A50164   0.474  36.159   6.750
 7173POPC   C3A50165   0.441  36.110   7.050
 7173POPC   C4A50166   0.455  36.089   7.350
 7173POPC   C1B50167   0.638  35.919   6.450
 7173POPC   C2B50168   0.615  35.933   6.750
 7173POPC   C3B50169   0.615  35.916   7.050
 7173POPC   C4B50170   0.580  35.933   7.350
 7174POPC   NC350171  19.034  19.813   5.550
 7174POPC   PO450172  19.044  19.844   5.850
 7174POPC   GL150173  19.083  19.821   6.150
 7174POPC   GL250174  19.196  19.948   6.150
 7174POPC   C1A50175  19.036  19.850   6.450
 7174POPC   D2A50176  19.012  19.878   6.750
 7174POPC   C3A50177  19.045  19.797   7.050
 7174POPC   C4A50178  19.099  19.880   7.350
 7174POPC   C1B50179  19.323  19.947   6.450
 7174POPC   C2B50180  19.267  19.924   6.750
 7174POPC   C3B50181  19.319  19.984   7.050
 7174POPC   C4B50182  19.246  19.963   7.350
 7175POPC   NC350183  35.387  43.158   5.550
 7175POPC   PO450184  35.327  43.069   5.850
 7175POPC   GL150185  35.312  43.114   6.150
 7175POPC   GL250186  35.426  43.223   6.150
 7175POPC   C1A50187  35.319  43.130   6.450
 7175POPC   D2A50188  35.342  43.141   6.750
 7175POPC   C3A50189  35.305  43.081   7.050
 7175POPC   C4A50190  35.392  43.152   7.350
 7175POPC   C1B50191  35.489  43.285   6.450
 7175POPC   C2B50192  35.486  43.336   6.750
 7175POPC   C3B50193  35.533  43.319   7.050
 7175POPC   C4B50194  35.479  43.301   7.350
 7176POPC   NC350195  15.145  19.093   5.550
 7176POPC   PO450196  15.194  19.024   5.850
 7176POPC   GL150197  15.168  19.090   6.150
 7176POPC   GL250198  15.120  18.893   6.150
 7176POPC   C1A50199  15.198  19.068   6.450
 7176POPC   D2A50200  15.169  19.100   6.750
 7176POPC   C3A50201  15.130  19.088   7.050
 7176POPC   C4A50202  15.164  19.038   7.350
 7176POPC   C1B50203  15.142  18.772   6.450
 7176POPC   C2B50204  15.103  18.814   6.750
 7176POPC   C3B50205  15.136  18.825   7.050
 7176POPC   C4B50206  15.135  18.834   7.350
 7177POPC   NC350207  32.293   3.495   5.550
 7177POPC   PO450208  32.211   3.545   5.850
 7177POPC   GL150209  32.282   3.584   6.150
 7177POPC   GL250210  32.169   3.641   6.150
 7177POPC   C1A50211  32.273   3.526   6.450
 7177POPC   D2A50212  32.262   3.526   6.750
 7177POPC   C3A50213  32.234   3.557   7.050
 7177POPC   C4A50214  32.206   3.542   7.350
 7177POPC   C1B50215  32.073   3.768   6.450
 7177POPC   C2B50216  32.081   3.686   6.750
 7177POPC   C3B50217  32.043   3.772   7.050
 7177POPC   C4B50218  32.048   3.720   7.350
 7178POPC   NC350219   5.918   5.082   5.550
 7178POPC   PO450220   5.842   5.050   5.850
 7178POPC   GL150221   5.821   5.121   6.150
 7178POPC   GL250222   5.962   5.023   6.150
 7178POPC   C1A50223   5.825   5.125   6.450
 7178POPC   D2A50224   5.839   5.084   6.750
 7178POPC   C3A50225   5.850   5.062   7.050
 7178POPC   C4A50226   5.888   5.083   7.350
 7178POPC   C1B50227   6.044   5.005   6.450
 7178POPC   C2B50228   6.044   4.941   6.750
 7178POPC   C3B50229   6.073   4.922   7.050
 7178POPC   C4B50230   6.127   4.921   7.350
 7179POPC   NC350231   2.020  13.658   5.550
 7179POPC   PO450232   1.957  13.648   5.850
 7179POPC   GL150233   1.997  13.616   6.150
 7179POPC   GL250234   1.858  13.585   6.150
 7179POPC   C1A50235   1.988  13.636   6.450
 7179POPC   D2A50236   1.952  13.591   6.750
 7179POPC   C3A50237   2.008  13.668   7.050
 7179POPC   C4A50238   2.020  13.610   7.350
 7179POPC   C1B50239   1.761  13.537   6.450
 7179POPC   C2B50240   1.698  13.561   6.750
 7179POPC   C3B50241   1.702  13.611   7.050
 7179POPC   C4B50242   1.784  13.559   7.350
 7180POPC   NC350243  37.658  40.792   5.550
 7180POPC   PO450244  37.686  40.760   5.850
 7180POPC   GL150245  37.684  40.765   6.150
 7180POPC   GL250246  37.690  40.667   6.150
 7180POPC   C1A50247  37.667  40.800   6.450
 7180POPC   D2A50248  37.705  40.826   6.750
 7180POPC   C3A50249  37.688  40.788   7.050
 7180POPC   C4A50250  37.636  40.807   7.350
 7180POPC   C1B50251  37.769  40.525   6.450
 7180POPC   C2B50252  37.782  40.586   6.750
 7180POPC   C3B50253  37.803  40.535   7.050
 7180POPC   C4B50254  37.819  40.536   7.350
 7181POPC   NC350255  24.493  19.862   5.550
 7181POPC   PO450256  24.482  19.794   5.850
 7181POPC   GL150257  24.488  19.828   6.150
 7181POPC   GL250258  24.376  19.796   6.150
 7181POPC   C1A50259  24.450  19.814   6.450
 7181POPC   D2A50260  24.463  19.880   6.750
 7181POPC   C3A50261  24.461  19.855   7.050
 7181POPC   C4A50262  24.520  19.863   7.350
 7181POPC   C1B50263  24.205  19.849   6.450
 7181POPC   C2B50264  24.244  19.793   6.750
 7181POPC   C3B50265  24.225  19.798   7.050
 7181POPC   C4B50266  24.260  19.812   7.350
 7182POPC   NC350267  19.088  12.111   5.550
 7182POPC   PO450268  19.067  12.079   5.850
 7182POPC   GL150269  19.081  12.083   6.150
 7182POPC   GL250270  18.945  12.154   6.150
 7182POPC   C1A50271  19.050  12.109   6.450
 7182POPC   D2A50272  19.051  12.117   6.750
 7182POPC   C3A50273  19.081  12.040   7.050
 7182POPC   C4A50274  19.103  12.071   7.350
 7182POPC   C1B50275  18.830  12.173   6.450
 7182POPC   C2B50276  18.816  12.129   6.750
 7182POPC   C3B50277  18.807  12.209   7.050
 7182POPC   C4B50278  18.822  12.210   7.350
 7183POPC   NC350279  17.538  19.023   5.550
 7183POPC   PO450280  17.523  19.028   5.850
 7183POPC   GL150281  17.536  19.095   6.150
 7183POPC   GL250282  17.521  19.172   6.150
 7183POPC   C1A50283  17.545  19.010   6.450
 7183POPC   D2A50284  17.545  19.027   6.750
 7183POPC   C3A50285  17.489  19.103   7.050
 7183POPC   C4A50286  17.506  19.105   7.350
 7183POPC   C1B50287  17.463  19.298   6.450
 7183POPC   C2B50288  17.404  19.323   6.750
 7183POPC   C3B50289  17.406  19.344   7.050
 7183POPC   C4B50290  17.433  19.254   7.350
 7184POPC   NC350291   5.878  36.155   5.550
 7184POPC   PO450292   5.862  36.094   5.850
 7184POPC   GL150293   5.869  36.100   6.150
 7184POPC   GL250294   5.991  36.082   6.150
 7184POPC   C1A50295   5.914  36.136   6.450
 7184POPC   D2A50296   5.911  36.128   6.750
 7184POPC   C3A50297   5.874  36.141   7.050
 7184POPC   C4A50298   5.878  36.107   7.350
 7184POPC   C1B50299   6.124  36.165   6.450
 7184POPC   C2B50300   6.130  36.120   6.750
 7184POPC   C3B50301   6.161  36.120   7.050
 7184POPC   C4B50302   6.116  36.138   7.350
 7185POPC   NC350303  25.285  26.007   5.550
 7185POPC   PO450304  25.296  26.008   5.850
 7185POPC   GL150305  25.253  26.052   6.150
 7185POPC   GL250306  25.138  26.009   6.150
 7185POPC   C1A50307  25.300  26.022   6.450
 7185POPC   D2A50308  25.285  26.038   6.750
 7185POPC   C3A50309  25.240  25.993   7.050
 7185POPC   C4A50310  25.299  26.043   7.350
 7185POPC   C1B50311  25.038  25.909   6.450
 7185POPC   C2B50312  25.043  25.917   6.750
 7185POPC   C3B50313  25.069  25.954   7.050
 7185POPC   C4B50314  24.996  25.909   7.350
 7186POPC   NC350315  15.221  11.326   5.550
 7186POPC   PO450316  15.206  11.349   5.850
 7186POPC   GL150317  15.165  11.347   6.150
 7186POPC   GL250318  15.312  11.294   6.150
 7186POPC   C1A50319  15.141  11.269   6.450
 7186POPC   D2A50320  15.151  11.270   6.750
 7186POPC   C3A50321  15.188  11.305   7.050
 7186POPC   C4A50322  15.226  11.274   7.350
 7186POPC   C1B50323  15.469  11.369   6.450
 7186POPC   C2B50324  15.446  11.322   6.750
 7186POPC   C3B50325  15.418  11.347   7.050
 7186POPC   C4B50326  15.404  11.310   7.350
 7187POPC   NC350327  43.904  43.838   5.550
 7187POPC   PO450328  43.931  43.865   5.850
 7187POPC   GL150329  43.921  43.871   6.150
 7187POPC   GL250330  43.856  43.763   6.150
 7187POPC   C1A50331  43.850  43.858   6.450
 7187POPC   D2A50332  43.879  43.906   6.750
 7187POPC   C3A50333  43.933  43.884   7.050
 7187POPC   C4A50334  43.864  43.852   7.350
 7187POPC   C1B50335  43.752  43.660   6.450
 7187POPC   C2B50336  43.800  43.667   6.750
 7187POPC   C3B50337  43.806  43.676   7.050
 7187POPC   C4B50338  43.772  43.646   7.350
 7188POPC   NC350339   8.183  22.888   5.550
 7188POPC   PO450340   8.167  22.960   5.850
 7188POPC   GL150341   8.243  22.891   6.150
 7188POPC   GL250342   8.299  23.003   6.150
 7188POPC   C1A50343   8.225  22.979   6.450
 7188POPC   D2A50344   8.244  22.895   6.750
 7188POPC   C3A50345   8.211  22.894   7.050
 7188POPC   C4A50346   8.206  22.927   7.350
 7188POPC   C1B50347   8.388  23.103   6.450
 7188POPC   C2B50348   8.378  23.134   6.750
 7188POPC   C3B50349   8.419  23.121   7.050
 7188POPC   C4B50350   8.329  23.087   7.350
 7189POPC   NC350351  23.693  16.747   5.550
 7189POPC   PO450352  23.684  16.774   5.850
 7189POPC   GL150353  23.729  16.780   6.150
 7189POPC   GL250354  23.782  16.779   6.150
 7189POPC   C1A50355  23.759  16.761   6.450
 7189POPC   D2A50356  23.683  16.744   6.750
 7189POPC   C3A50357  23.715  16.754   7.050
 7189POPC   C4A50358  23.698  16.715   7.350
 7189POPC   C1B50359  23.899  16.902   6.450
 7189POPC   C2B50360  23.935  16.828   6.750
 7189POPC   C3B50361  23.959  16.815   7.050
 7189POPC   C4B50362  23.958  16.825   7.350
 7190POPC   NC350363  36.102  26.841   5.550
 7190POPC   PO450364  36.106  26.812   5.850
 7190POPC   GL150365  36.156  26.857   6.150
 7190POPC   GL250366  35.955  26.763   6.150
 7190POPC   C1A50367  36.098  26.786   6.450
 7190POPC   D2A50368  36.110  26.843   6.750
 7190POPC   C3A50369  36.158  26.838   7.050
 7190POPC   C4A50370  36.094  26.787   7.350
 7190POPC   C1B50371  35.832  26.806   6.450
 7190POPC   C2B50372  35.921  26.747   6.750
 7190POPC   C3B50373  35.851  26.775   7.050
 7190POPC   C4B50374  35.872  26.758   7.350
 7191POPC   NC350375  42.352  27.617   5.550
 7191POPC   PO450376  42.365  27.592   5.850
 7191POPC   GL150377  42.368  27.569   6.150
 7191POPC   GL250378  42.365  27.462   6.150
 7191POPC   C1A50379  42.302  27.638   6.450
 7191POPC   D2A50380  42.373  27.599   6.750
 7191POPC   C3A50381  42.298  27.585   7.050
 7191POPC   C4A50382  42.366  27.555   7.350
 7191POPC   C1B50383  42.407  27.398   6.450
 7191POPC   C2B50384  42.472  27.373   6.750
 7191POPC   C3B50385  42.442  27.363   7.050
 7191POPC   C4B50386  42.407  27.402   7.350
 7192POPC   NC350387  38.471  11.348   5.550
 7192POPC   PO450388  38.406  11.306   5.850
 7192POPC   GL150389  38.453  11.251   6.150
 7192POPC   GL250390  38.607  11.318   6.150
 7192POPC   C1A50391  38.427  11.254   6.450
 7192POPC   D2A50392  38.505  11.297   6.750
 7192POPC   C3A50393  38.483  11.268   7.050
 7192POPC   C4A50394  38.498  11.275   7.350
 7192POPC   C1B50395  38.688  11.377   6.450
 7192POPC   C2B50396  38.678  11.357   6.750
 7192POPC   C3B50397  38.665  11.383   7.050
 7192POPC   C4B50398  38.725  11.298   7.350
 7193POPC   NC350399   0.419  44.684   5.550
 7193POPC   PO450400   0.445  44.616   5.850
 7193POPC   GL150401   0.435  44.710   6.150
 7193POPC   GL250402   0.528  44.729   6.150
 7193POPC   C1A50403   0.474  44.711   6.450
 7193POPC   D2A50404   0.410  44.622   6.750
 7193POPC   C3A50405   0.481  44.627   7.050
 7193POPC   C4A50406   0.426  44.650   7.350
 7193POPC   C1B50407   0.672  44.818   6.450
 7193POPC   C2B50408   0.618  44.790   6.750
 7193POPC   C3B50409   0.600  44.753   7.050
 7193POPC   C4B50410   0.625  44.778   7.350
 7194POPC   NC350411  12.037   8.241   5.550
 7194POPC   PO450412  12.075   8.212   5.850
 7194POPC   GL150413  12.097   8.223   6.150
 7194POPC   GL250414  11.995   8.235   6.150
 7194POPC   C1A50415  12.037   8.191   6.450
 7194POPC   D2A50416  12.116   8.245   6.750
 7194POPC   C3A50417  12.106   8.214   7.050
 7194POPC   C4A50418  12.049   8.243   7.350
 7194POPC   C1B50419  11.852   8.256   6.450
 7194POPC   C2B50420  11.860   8.255   6.750
 7194POPC   C3B50421  11.790   8.254   7.050
 7194POPC   C4B50422  11.835   8.281   7.350
 7195POPC   NC350423  28.320  26.004   5.550
 7195POPC   PO450424  28.358  26.028   5.850
 7195POPC   GL150425  28.360  25.999   6.150
 7195POPC   GL250426  28.485  25.995   6.150
 7195POPC   C1A50427  28.407  26.006   6.450
 7195POPC   D2A50428  28.411  26.058   6.750
 7195POPC   C3A50429  28.368  26.091   7.050
 7195POPC   C4A50430  28.418  26.045   7.350
 7195POPC   C1B50431  28.528  25.882   6.450
 7195POPC   C2B50432  28.605  25.862   6.750
 7195POPC   C3B50433  28.598  25.842   7.050
 7195POPC   C4B50434  28.520  25.918   7.350
 7196POPC   NC350435  15.924  33.071   5.550
 7196POPC   PO450436  15.996  33.053   5.850
 7196POPC   GL150437  15.943  33.072   6.150
 7196POPC   GL250438  15.945  32.932   6.150
 7196POPC   C1A50439  15.935  33.028   6.450
 7196POPC   D2A50440  15.943  33.070   6.750
 7196POPC   C3A50441  15.941  33.020   7.050
 7196POPC   C4A50442  15.974  33.011   7.350
 7196POPC   C1B50443  15.872  32.834   6.450
 7196POPC   C2B50444  15.835  32.794   6.750
 7196POPC   C3B50445  15.913  32.776   7.050
 7196POPC   C4B50446  15.876  32.822   7.350
 7197POPC   NC350447  15.229  19.862   5.550
 7197POPC   PO450448  15.180  19.815   5.850
 7197POPC   GL150449  15.154  19.810   6.150
 7197POPC   GL250450  15.269  19.747   6.150
 7197POPC   C1A50451  15.169  19.830   6.450
 7197POPC   D2A50452  15.216  19.814   6.750
 7197POPC   C3A50453  15.217  19.826   7.050
 7197POPC   C4A50454  15.137  19.853   7.350
 7197POPC   C1B50455  15.436  19.717   6.450
 7197POPC   C2B50456  15.434  19.710   6.750
 7197POPC   C3B50457  15.432  19.764   7.050
 7197POPC   C4B50458  15.440  19.763   7.350
 7198POPC   NC350459   8.201  39.206   5.550
 7198POPC   PO450460   8.237  39.199   5.850
 7198POPC   GL150461   8.152  39.225   6.150
 7198POPC   GL250462   8.269  39.250   6.150
 7198POPC   C1A50463   8.215  39.202   6.450
 7198POPC   D2A50464   8.223  39.193   6.750
 7198POPC   C3A50465   8.185  39.231   7.050
 7198POPC   C4A50466   8.221  39.203   7.350
 7198POPC   C1B50467   8.470  39.317   6.450
 7198POPC   C2B50468   8.424  39.364   6.750
 7198POPC   C3B50469   8.463  39.312   7.050
 7198POPC   C4B50470   8.397  39.338   7.350
 7199POPC   NC350471  34.547  22.189   5.550
 7199POPC   PO450472  34.543  22.134   5.850
 7199POPC   GL150473  34.548  22.157   6.150
 7199POPC   GL250474  34.489  22.166   6.150
 7199POPC   C1A50475  34.537  22.172   6.450
 7199POPC   D2A50476  34.529  22.128   6.750
 7199POPC   C3A50477  34.601  22.185   7.050
 7199POPC   C4A50478  34.578  22.156   7.350
 7199POPC   C1B50479  34.325  22.227   6.450
 7199POPC   C2B50480  34.310  22.216   6.750
 7199POPC   C3B50481  34.358  22.281   7.050
 7199POPC   C4B50482  34.312  22.237   7.350
 7200POPC   NC350483  16.701   5.856   5.550
 7200POPC   PO450484  16.743   5.906   5.850
 7200POPC   GL150485  16.734   5.841   6.150
 7200POPC   GL250486  16.789   5.964   6.150
 7200POPC   C1A50487  16.759   5.907   6.450
 7200POPC   D2A50488  16.767   5.835   6.750
 7200POPC   C3A50489  16.683   5.823   7.050
 7200POPC   C4A50490  16.707   5.876   7.350
 7200POPC   C1B50491  16.883   6.082   6.450
 7200POPC   C2B50492  16.877   6.119   6.750
 7200POPC   C3B50493  16.819   6.066   7.050
 7200POPC   C4B50494  16.824   6.076   7.350
 7201POPC   NC350495  26.839   2.748   5.550
 7201POPC   PO450496  26.851   2.748   5.850
 7201POPC   GL150497  26.821   2.735   6.150
 7201POPC   GL250498  26.860   2.844   6.150
 7201POPC   C1A50499  26.777   2.787   6.450
 7201POPC   D2A50500  26.770   2.718   6.750
 7201POPC   C3A50501  26.782   2.788   7.050
 7201POPC   C4A50502  26.866   2.782   7.350
 7201POPC   C1B50503  26.760   3.025   6.450
 7201POPC   C2B50504  26.800   3.052   6.750
 7201POPC   C3B50505  26.829   3.023   7.050
 7201POPC   C4B50506  26.788   3.060   7.350
 7202POPC   NC350507  15.914  30.730   5.550
 7202POPC   PO450508  15.949  30.719   5.850
 7202POPC   GL150509  15.914  30.672   6.150
 7202POPC   GL250510  16.038  30.722   6.150
 7202POPC   C1A50511  15.910  30.653   6.450
 7202POPC   D2A50512  15.926  30.709   6.750
 7202POPC   C3A50513  15.996  30.653   7.050
 7202POPC   C4A50514  15.992  30.694   7.350
 7202POPC   C1B50515  16.239  30.657   6.450
 7202POPC   C2B50516  16.182  30.713   6.750
 7202POPC   C3B50517  16.241  30.696   7.050
 7202POPC   C4B50518  16.220  30.662   7.350
 7203POPC   NC350519  29.159  10.523   5.550
 7203POPC   PO450520  29.177  10.567   5.850
 7203POPC   GL150521  29.118  10.507   6.150
 7203POPC   GL250522  29.023  10.496   6.150
 7203POPC   C1A50523  29.139  10.569   6.450
 7203POPC   D2A50524  29.122  10.573   6.750
 7203POPC   C3A50525  29.129  10.540   7.050
 7203POPC   C4A50526  29.104  10.561   7.350
 7203POPC   C1B50527  28.924  10.376   6.450
 7203POPC   C2B50528  28.883  10.451   6.750
 7203POPC   C3B50529  28.961  10.452   7.050
 7203POPC   C4B50530  28.892  10.465   7.350
 7204POPC   NC350531  43.076  10.549   5.550
 7204POPC   PO450532  43.086  10.481   5.850
 7204POPC   GL150533  43.089  10.543   6.150
 7204POPC   GL250534  43.039  10.566   6.150
 7204POPC   C1A50535  43.090  10.476   6.450
 7204POPC   D2A50536  43.071  10.546   6.750
 7204POPC   C3A50537  43.116  10.478   7.050
 7204POPC   C4A50538  43.064  10.523   7.350
 7204POPC   C1B50539  42.888  10.625   6.450
 7204POPC   C2B50540  42.891  10.592   6.750
 7204POPC   C3B50541  42.864  10.612   7.050
 7204POPC   C4B50542  42.838  10.612   7.350
 7205POPC   NC350543   5.856   8.242   5.550
 7205POPC   PO450544   5.823   8.208   5.850
 7205POPC   GL150545   5.883   8.151   6.150
 7205POPC   GL250546   5.816   8.142   6.150
 7205POPC   C1A50547   5.908   8.213   6.450
 7205POPC   D2A50548   5.858   8.225   6.750
 7205POPC   C3A50549   5.919   8.239   7.050
 7205POPC   C4A50550   5.894   8.187   7.350
 7205POPC   C1B50551   5.709   7.961   6.450
 7205POPC   C2B50552   5.678   8.046   6.750
 7205POPC   C3B50553   5.700   8.031   7.050
 7205POPC   C4B50554   5.743   7.962   7.350
 7206POPC   NC350555  37.720  27.565   5.550
 7206POPC   PO450556  37.689  27.573   5.850
 7206POPC   GL150557  37.678  27.586   6.150
 7206POPC   GL250558  37.730  27.464   6.150
 7206POPC   C1A50559  37.667  27.570   6.450
 7206POPC   D2A50560  37.658  27.570   6.750
 7206POPC   C3A50561  37.724  27.641   7.050
 7206POPC   C4A50562  37.711  27.624   7.350
 7206POPC   C1B50563  37.653  27.340   6.450
 7206POPC   C2B50564  37.655  27.322   6.750
 7206POPC   C3B50565  37.739  27.380   7.050
 7206POPC   C4B50566  37.697  27.305   7.350
 7207POPC   NC350567  39.982  30.684   5.550
 7207POPC   PO450568  39.979  30.697   5.850
 7207POPC   GL150569  39.977  30.713   6.150
 7207POPC   GL250570  40.166  30.619   6.150
 7207POPC   C1A50571  39.994  30.702   6.450
 7207POPC   D2A50572  40.042  30.655   6.750
 7207POPC   C3A50573  40.004  30.704   7.050
 7207POPC   C4A50574  40.002  30.710   7.350
 7207POPC   C1B50575  40.269  30.628   6.450
 7207POPC   C2B50576  40.207  30.605   6.750
 7207POPC   C3B50577  40.217  30.594   7.050
 7207POPC   C4B50578  40.286  30.605   7.350
 7208POPC   NC350579  35.344  24.514   5.550
 7208POPC   PO450580  35.372  24.495   5.850
 7208POPC   GL150581  35.313  24.509   6.150
 7208POPC   GL250582  35.222  24.408   6.150
 7208POPC   C1A50583  35.338  24.512   6.450
 7208POPC   D2A50584  35.344  24.479   6.750
 7208POPC   C3A50585  35.399  24.516   7.050
 7208POPC   C4A50586  35.356  24.501   7.350
 7208POPC   C1B50587  35.201  24.367   6.450
 7208POPC   C2B50588  35.151  24.300   6.750
 7208POPC   C3B50589  35.199  24.299   7.050
 7208POPC   C4B50590  35.188  24.328   7.350
 7209POPC   NC350591  42.355  18.237   5.550
 7209POPC   PO450592  42.302  18.293   5.850
 7209POPC   GL150593  42.327  18.305   6.150
 7209POPC   GL250594  42.202  18.411   6.150
 7209POPC   C1A50595  42.340  18.239   6.450
 7209POPC   D2A50596  42.372  18.317   6.750
 7209POPC   C3A50597  42.309  18.235   7.050
 7209POPC   C4A50598  42.309  18.243   7.350
 7209POPC   C1B50599  42.148  18.412   6.450
 7209POPC   C2B50600  42.110  18.436   6.750
 7209POPC   C3B50601  42.105  18.415   7.050
 7209POPC   C4B50602  42.147  18.406   7.350
 7210POPC   NC350603  17.482   3.555   5.550
 7210POPC   PO450604  17.527   3.582   5.850
 7210POPC   GL150605  17.464   3.564   6.150
 7210POPC   GL250606  17.439   3.633   6.150
 7210POPC   C1A50607  17.540   3.538   6.450
 7210POPC   D2A50608  17.495   3.520   6.750
 7210POPC   C3A50609  17.509   3.543   7.050
 7210POPC   C4A50610  17.464   3.550   7.350
 7210POPC   C1B50611  17.383   3.715   6.450
 7210POPC   C2B50612  17.419   3.794   6.750
 7210POPC   C3B50613  17.431   3.814   7.050
 7210POPC   C4B50614  17.345   3.798   7.350
 7211POPC   NC350615  34.529  44.692   5.550
 7211POPC   PO450616  34.609  44.615   5.850
 7211POPC   GL150617  34.600  44.651   6.150
 7211POPC   GL250618  34.527  44.743   6.150
 7211POPC   C1A50619  34.565  44.694   6.450
 7211POPC   D2A50620  34.591  44.672   6.750
 7211POPC   C3A50621  34.611  44.642   7.050
 7211POPC   C4A50622  34.573  44.629   7.350
 7211POPC   C1B50623  34.543  44.867   6.450
 7211POPC   C2B50624  34.527  44.936   6.750
 7211POPC   C3B50625  34.480  44.953   7.050
 7211POPC   C4B50626  34.510  44.904   7.350
 7212POPC   NC350627  21.406  22.919   5.550
 7212POPC   PO450628  21.394  22.946   5.850
 7212POPC   GL150629  21.396  22.970   6.150
 7212POPC   GL250630  21.470  22.778   6.150
 7212POPC   C1A50631  21.432  22.937   6.450
 7212POPC   D2A50632  21.350  22.916   6.750
 7212POPC   C3A50633  21.409  22.912   7.050
 7212POPC   C4A50634  21.359  22.906   7.350
 7212POPC   C1B50635  21.499  22.750   6.450
 7212POPC   C2B50636  21.438  22.671   6.750
 7212POPC   C3B50637  21.446  22.703   7.050
 7212POPC   C4B50638  21.474  22.691   7.350
 7213POPC   NC350639   5.097  15.170   5.550
 7213POPC   PO450640   5.070  15.183   5.850
 7213POPC   GL150641   5.100  15.182   6.150
 7213POPC   GL250642   4.934  15.180   6.150
 7213POPC   C1A50643   5.067  15.208   6.450
 7213POPC   D2A50644   5.055  15.156   6.750
 7213POPC   C3A50645   5.085  15.168   7.050
 7213POPC   C4A50646   5.044  15.218   7.350
 7213POPC   C1B50647   4.879  15.262   6.450
 7213POPC   C2B50648   4.834  15.312   6.750
 7213POPC   C3B50649   4.910  15.312   7.050
 7213POPC   C4B50650   4.820  15.316   7.350
 7214POPC   NC350651  38.464  10.518   5.550
 7214POPC   PO450652  38.500  10.528   5.850
 7214POPC   GL150653  38.486  10.562   6.150
 7214POPC   GL250654  38.517  10.413   6.150
 7214POPC   C1A50655  38.440  10.538   6.450
 7214POPC   D2A50656  38.407  10.486   6.750
 7214POPC   C3A50657  38.475  10.574   7.050
 7214POPC   C4A50658  38.432  10.550   7.350
 7214POPC   C1B50659  38.704  10.441   6.450
 7214POPC   C2B50660  38.666  10.419   6.750
 7214POPC   C3B50661  38.644  10.408   7.050
 7214POPC   C4B50662  38.714  10.445   7.350
 7215POPC   NC350663  26.004  36.892   5.550
 7215POPC   PO450664  26.022  36.920   5.850
 7215POPC   GL150665  26.065  36.929   6.150
 7215POPC   GL250666  26.098  36.862   6.150
 7215POPC   C1A50667  26.032  36.862   6.450
 7215POPC   D2A50668  26.047  36.876   6.750
 7215POPC   C3A50669  26.014  36.931   7.050
 7215POPC   C4A50670  26.039  36.928   7.350
 7215POPC   C1B50671  26.239  36.783   6.450
 7215POPC   C2B50672  26.280  36.739   6.750
 7215POPC   C3B50673  26.281  36.719   7.050
 7215POPC   C4B50674  26.279  36.788   7.350
 7216POPC   NC350675  26.057   0.455   5.550
 7216POPC   PO450676  26.039   0.465   5.850
 7216POPC   GL150677  26.033   0.479   6.150
 7216POPC   GL250678  25.954   0.443   6.150
 7216POPC   C1A50679  26.089   0.471   6.450
 7216POPC   D2A50680  26.071   0.464   6.750
 7216POPC   C3A50681  26.085   0.429   7.050
 7216POPC   C4A50682  26.026   0.389   7.350
 7216POPC   C1B50683  25.754   0.343   6.450
 7216POPC   C2B50684  25.810   0.420   6.750
 7216POPC   C3B50685  25.770   0.407   7.050
 7216POPC   C4B50686  25.755   0.373   7.350
 7217POPC   NC350687   4.274  29.920   5.550
 7217POPC   PO450688   4.315  29.872   5.850
 7217POPC   GL150689   4.343  29.942   6.150
 7217POPC   GL250690   4.363  30.039   6.150
 7217POPC   C1A50691   4.289  29.962   6.450
 7217POPC   D2A50692   4.317  29.907   6.750
 7217POPC   C3A50693   4.343  29.945   7.050
 7217POPC   C4A50694   4.343  29.918   7.350
 7217POPC   C1B50695   4.356  30.117   6.450
 7217POPC   C2B50696   4.436  30.153   6.750
 7217POPC   C3B50697   4.418  30.209   7.050
 7217POPC   C4B50698   4.413  30.137   7.350
 7218POPC   NC350699   8.959  36.103   5.550
 7218POPC   PO450700   8.989  36.085   5.850
 7218POPC   GL150701   8.925  36.108   6.150
 7218POPC   GL250702   8.944  36.186   6.150
 7218POPC   C1A50703   8.952  36.118   6.450
 7218POPC   D2A50704   9.012  36.166   6.750
 7218POPC   C3A50705   9.021  36.168   7.050
 7218POPC   C4A50706   8.928  36.128   7.350
 7218POPC   C1B50707   8.782  36.317   6.450
 7218POPC   C2B50708   8.825  36.343   6.750
 7218POPC   C3B50709   8.775  36.351   7.050
 7218POPC   C4B50710   8.810  36.305   7.350
 7219POPC   NC350711  43.097  33.068   5.550
 7219POPC   PO450712  43.159  33.012   5.850
 7219POPC   GL150713  43.127  32.976   6.150
 7219POPC   GL250714  43.175  33.185   6.150
 7219POPC   C1A50715  43.093  33.069   6.450
 7219POPC   D2A50716  43.127  32.985   6.750
 7219POPC   C3A50717  43.113  32.987   7.050
 7219POPC   C4A50718  43.115  33.004   7.350
 7219POPC   C1B50719  43.194  33.307   6.450
 7219POPC   C2B50720  43.206  33.294   6.750
 7219POPC   C3B50721  43.172  33.298   7.050
 7219POPC   C4B50722  43.172  33.240   7.350
 7220POPC   NC350723   4.317   8.198   5.550
 7220POPC   PO450724   4.270   8.246   5.850
 7220POPC   GL150725   4.364   8.170   6.150
 7220POPC   GL250726   4.462   8.199   6.150
 7220POPC   C1A50727   4.288   8.148   6.450
 7220POPC   D2A50728   4.327   8.185   6.750
 7220POPC   C3A50729   4.290   8.185   7.050
 7220POPC   C4A50730   4.320   8.234   7.350
 7220POPC   C1B50731   4.591   8.240   6.450
 7220POPC   C2B50732   4.590   8.288   6.750
 7220POPC   C3B50733   4.536   8.285   7.050
 7220POPC   C4B50734   4.593   8.209   7.350
 7221POPC   NC350735  38.448  43.132   5.550
 7221POPC   PO450736  38.410  43.132   5.850
 7221POPC   GL150737  38.436  43.062   6.150
 7221POPC   GL250738  38.436  43.250   6.150
 7221POPC   C1A50739  38.424  43.080   6.450
 7221POPC   D2A50740  38.447  43.075   6.750
 7221POPC   C3A50741  38.504  43.126   7.050
 7221POPC   C4A50742  38.493  43.158   7.350
 7221POPC   C1B50743  38.440  43.334   6.450
 7221POPC   C2B50744  38.452  43.345   6.750
 7221POPC   C3B50745  38.421  43.386   7.050
 7221POPC   C4B50746  38.480  43.314   7.350
 7222POPC   NC350747  36.910  32.288   5.550
 7222POPC   PO450748  36.873  32.243   5.850
 7222POPC   GL150749  36.892  32.243   6.150
 7222POPC   GL250750  37.053  32.288   6.150
 7222POPC   C1A50751  36.934  32.200   6.450
 7222POPC   D2A50752  36.907  32.217   6.750
 7222POPC   C3A50753  36.878  32.234   7.050
 7222POPC   C4A50754  36.928  32.204   7.350
 7222POPC   C1B50755  37.110  32.235   6.450
 7222POPC   C2B50756  37.123  32.246   6.750
 7222POPC   C3B50757  37.153  32.220   7.050
 7222POPC   C4B50758  37.143  32.298   7.350
 7223POPC   NC350759  42.376  19.884   5.550
 7223POPC   PO450760  42.361  19.804   5.850
 7223POPC   GL150761  42.335  19.846   6.150
 7223POPC   GL250762  42.409  19.727   6.150
 7223POPC   C1A50763  42.302  19.858   6.450
 7223POPC   D2A50764  42.345  19.802   6.750
 7223POPC   C3A50765  42.300  19.825   7.050
 7223POPC   C4A50766  42.361  19.830   7.350
 7223POPC   C1B50767  42.494  19.621   6.450
 7223POPC   C2B50768  42.445  19.603   6.750
 7223POPC   C3B50769  42.467  19.672   7.050
 7223POPC   C4B50770  42.508  19.603   7.350
 7224POPC   NC350771  12.036  44.706   5.550
 7224POPC   PO450772  12.109  44.639   5.850
 7224POPC   GL150773  12.088  44.628   6.150
 7224POPC   GL250774  12.157  44.574   6.150
 7224POPC   C1A50775  12.085  44.705   6.450
 7224POPC   D2A50776  12.082  44.698   6.750
 7224POPC   C3A50777  12.060  44.711   7.050
 7224POPC   C4A50778  12.106  44.676   7.350
 7224POPC   C1B50779  12.240  44.524   6.450
 7224POPC   C2B50780  12.328  44.496   6.750
 7224POPC   C3B50781  12.324  44.567   7.050
 7224POPC   C4B50782  12.264  44.524   7.350
 7225POPC   NC350783  23.751  32.975   5.550
 7225POPC   PO450784  23.727  33.026   5.850
 7225POPC   GL150785  23.753  32.989   6.150
 7225POPC   GL250786  23.741  32.875   6.150
 7225POPC   C1A50787  23.676  32.979   6.450
 7225POPC   D2A50788  23.667  33.030   6.750
 7225POPC   C3A50789  23.684  33.058   7.050
 7225POPC   C4A50790  23.664  32.996   7.350
 7225POPC   C1B50791  23.799  32.743   6.450
 7225POPC   C2B50792  23.852  32.808   6.750
 7225POPC   C3B50793  23.810  32.789   7.050
 7225POPC   C4B50794  23.806  32.821   7.350
 7226POPC   NC350795  36.903  28.413   5.550
 7226POPC   PO450796  36.916  28.320   5.850
 7226POPC   GL150797  36.948  28.388   6.150
 7226POPC   GL250798  36.933  28.540   6.150
 7226POPC   C1A50799  36.858  28.399   6.450
 7226POPC   D2A50800  36.887  28.373   6.750
 7226POPC   C3A50801  36.860  28.383   7.050
 7226POPC   C4A50802  36.908  28.403   7.350
 7226POPC   C1B50803  36.934  28.656   6.450
 7226POPC   C2B50804  36.956  28.589   6.750
 7226POPC   C3B50805  36.946  28.654   7.050
 7226POPC   C4B50806  36.881  28.625   7.350
 7227POPC   NC350807   9.021  34.549   5.550
 7227POPC   PO450808   8.996  34.599   5.850
 7227POPC   GL150809   9.019  34.595   6.150
 7227POPC   GL250810   8.994  34.445   6.150
 7227POPC   C1A50811   8.926  34.602   6.450
 7227POPC   D2A50812   8.980  34.570   6.750
 7227POPC   C3A50813   8.989  34.588   7.050
 7227POPC   C4A50814   8.956  34.619   7.350
 7227POPC   C1B50815   9.110  34.357   6.450
 7227POPC   C2B50816   9.095  34.306   6.750
 7227POPC   C3B50817   9.102  34.393   7.050
 7227POPC   C4B50818   9.093  34.377   7.350
 7228POPC   NC350819  32.233  15.992   5.550
 7228POPC   PO450820  32.256  15.927   5.850
 7228POPC   GL150821  32.283  15.929   6.150
 7228POPC   GL250822  32.334  15.993   6.150
 7228POPC   C1A50823  32.221  15.961   6.450
 7228POPC   D2A50824  32.199  15.941   6.750
 7228POPC   C3A50825  32.242  15.984   7.050
 7228POPC   C4A50826  32.285  15.979   7.350
 7228POPC   C1B50827  32.431  16.156   6.450
 7228POPC   C2B50828  32.397  16.099   6.750
 7228POPC   C3B50829  32.413  16.162   7.050
 7228POPC   C4B50830  32.467  16.069   7.350
 7229POPC   NC350831  23.675   4.367   5.550
 7229POPC   PO450832  23.712   4.334   5.850
 7229POPC   GL150833  23.744   4.308   6.150
 7229POPC   GL250834  23.845   4.380   6.150
 7229POPC   C1A50835  23.723   4.298   6.450
 7229POPC   D2A50836  23.747   4.327   6.750
 7229POPC   C3A50837  23.761   4.346   7.050
 7229POPC   C4A50838  23.670   4.366   7.350
 7229POPC   C1B50839  23.983   4.386   6.450
 7229POPC   C2B50840  23.946   4.452   6.750
 7229POPC   C3B50841  23.900   4.399   7.050
 7229POPC   C4B50842  23.970   4.372   7.350
 7230POPC   NC350843  39.972  36.910   5.550
 7230POPC   PO450844  39.970  36.868   5.850
 7230POPC   GL150845  40.000  36.872   6.150
 7230POPC   GL250846  39.913  36.782   6.150
 7230POPC   C1A50847  40.002  36.940   6.450
 7230POPC   D2A50848  40.002  36.916   6.750
 7230POPC   C3A50849  40.002  36.919   7.050
 7230POPC   C4A50850  40.034  36.912   7.350
 7230POPC   C1B50851  39.889  36.649   6.450
 7230POPC   C2B50852  39.925  36.643   6.750
 7230POPC   C3B50853  39.877  36.658   7.050
 7230POPC   C4B50854  39.850  36.688   7.350
 7231POPC   NC350855  42.305  22.960   5.550
 7231POPC   PO450856  42.346  22.903   5.850
 7231POPC   GL150857  42.309  22.915   6.150
 7231POPC   GL250858  42.229  22.950   6.150
 7231POPC   C1A50859  42.301  22.927   6.450
 7231POPC   D2A50860  42.301  22.932   6.750
 7231POPC   C3A50861  42.310  22.922   7.050
 7231POPC   C4A50862  42.351  22.978   7.350
 7231POPC   C1B50863  42.105  23.049   6.450
 7231POPC   C2B50864  42.076  22.995   6.750
 7231POPC   C3B50865  42.063  23.049   7.050
 7231POPC   C4B50866  42.125  23.080   7.350
 7232POPC   NC350867   9.754   2.750   5.550
 7232POPC   PO450868   9.734   2.739   5.850
 7232POPC   GL150869   9.722   2.743   6.150
 7232POPC   GL250870   9.695   2.680   6.150
 7232POPC   C1A50871   9.704   2.744   6.450
 7232POPC   D2A50872   9.754   2.781   6.750
 7232POPC   C3A50873   9.774   2.803   7.050
 7232POPC   C4A50874   9.757   2.752   7.350
 7232POPC   C1B50875   9.562   2.525   6.450
 7232POPC   C2B50876   9.581   2.607   6.750
 7232POPC   C3B50877   9.579   2.549   7.050
 7232POPC   C4B50878   9.620   2.595   7.350
 7233POPC   NC350879  44.682  24.455   5.550
 7233POPC   PO450880  44.710  24.510   5.850
 7233POPC   GL150881  44.699  24.468   6.150
 7233POPC   GL250882  44.613  24.657   6.150
 7233POPC   C1A50883  44.630  24.533   6.450
 7233POPC   D2A50884  44.633  24.520   6.750
 7233POPC   C3A50885  44.649  24.478   7.050
 7233POPC   C4A50886  44.687  24.443   7.350
 7233POPC   C1B50887  44.634  24.777   6.450
 7233POPC   C2B50888  44.547  24.752   6.750
 7233POPC   C3B50889  44.587  24.758   7.050
 7233POPC   C4B50890  44.580  24.766   7.350
 7234POPC   NC350891   7.466  12.045   5.550
 7234POPC   PO450892   7.391  12.028   5.850
 7234POPC   GL150893   7.435  12.055   6.150
 7234POPC   GL250894   7.540  12.131   6.150
 7234POPC   C1A50895   7.466  12.047   6.450
 7234POPC   D2A50896   7.419  12.075   6.750
 7234POPC   C3A50897   7.401  12.034   7.050
 7234POPC   C4A50898   7.450  12.075   7.350
 7234POPC   C1B50899   7.711  12.135   6.450
 7234POPC   C2B50900   7.659  12.122   6.750
 7234POPC   C3B50901   7.673  12.151   7.050
 7234POPC   C4B50902   7.667  12.148   7.350
 7235POPC   NC350903  44.641  23.676   5.550
 7235POPC   PO450904  44.662  23.717   5.850
 7235POPC   GL150905  44.678  23.700   6.150
 7235POPC   GL250906  44.609  23.822   6.150
 7235POPC   C1A50907  44.641  23.749   6.450
 7235POPC   D2A50908  44.631  23.685   6.750
 7235POPC   C3A50909  44.622  23.718   7.050
 7235POPC   C4A50910  44.620  23.703   7.350
 7235POPC   C1B50911  44.569  23.930   6.450
 7235POPC   C2B50912  44.516  23.959   6.750
 7235POPC   C3B50913  44.549  23.975   7.050
 7235POPC   C4B50914  44.501  23.951   7.350
 7236POPC   NC350915  40.753  22.157   5.550
 7236POPC   PO450916  40.792  22.143   5.850
 7236POPC   GL150917  40.767  22.142   6.150
 7236POPC   GL250918  40.899  22.174   6.150
 7236POPC   C1A50919  40.820  22.157   6.450
 7236POPC   D2A50920  40.773  22.206   6.750
 7236POPC   C3A50921  40.813  22.190   7.050
 7236POPC   C4A50922  40.748  22.157   7.350
 7236POPC   C1B50923  41.074  22.114   6.450
 7236POPC   C2B50924  41.046  22.081   6.750
 7236POPC   C3B50925  40.996  22.068   7.050
 7236POPC   C4B50926  41.048  22.151   7.350
 7237POPC   NC350927  40.794   5.095   5.550
 7237POPC   PO450928  40.751   5.056   5.850
 7237POPC   GL150929  40.773   5.048   6.150
 7237POPC   GL250930  40.757   4.940   6.150
 7237POPC   C1A50931  40.807   5.122   6.450
 7237POPC   D2A50932  40.778   5.096   6.750
 7237POPC   C3A50933  40.747   5.061   7.050
 7237POPC   C4A50934  40.746   5.084   7.350
 7237POPC   C1B50935  40.769   4.867   6.450
 7237POPC   C2B50936  40.756   4.808   6.750
 7237POPC   C3B50937  40.773   4.880   7.050
 7237POPC   C4B50938  40.800   4.886   7.350
 7238POPC   NC350939  32.267  15.211   5.550
 7238POPC   PO450940  32.229  15.150   5.850
 7238POPC   GL150941  32.221  15.228   6.150
 7238POPC   GL250942  32.366  15.148   6.150
 7238POPC   C1A50943  32.237  15.204   6.450
 7238POPC   D2A50944  32.273  15.161   6.750
 7238POPC   C3A50945  32.282  15.172   7.050
 7238POPC   C4A50946  32.244  15.132   7.350
 7238POPC   C1B50947  32.530  15.170   6.450
 7238POPC   C2B50948  32.543  15.105   6.750
 7238POPC   C3B50949  32.454  15.144   7.050
 7238POPC   C4B50950  32.485  15.194   7.350
 7239POPC   NC350951  19.844  14.441   5.550
 7239POPC   PO450952  19.809  14.431   5.850
 7239POPC   GL150953  19.857  14.407   6.150
 7239POPC   GL250954  19.916  14.275   6.150
 7239POPC   C1A50955  19.807  14.409   6.450
 7239POPC   D2A50956  19.840  14.421   6.750
 7239POPC   C3A50957  19.868  14.373   7.050
 7239POPC   C4A50958  19.831  14.415   7.350
 7239POPC   C1B50959  19.911  14.218   6.450
 7239POPC   C2B50960  19.917  14.130   6.750
 7239POPC   C3B50961  19.929  14.142   7.050
 7239POPC   C4B50962  19.976  14.169   7.350
 7240POPC   NC350963   2.022   5.865   5.550
 7240POPC   PO450964   1.979   5.833   5.850
 7240POPC   GL150965   1.998   5.880   6.150
 7240POPC   GL250966   1.913   5.744   6.150
 7240POPC   C1A50967   2.009   5.819   6.450
 7240POPC   D2A50968   1.951   5.875   6.750
 7240POPC   C3A50969   2.036   5.914   7.050
 7240POPC   C4A50970   1.955   5.820   7.350
 7240POPC   C1B50971   1.925   5.653   6.450
 7240POPC   C2B50972   1.893   5.617   6.750
 7240POPC   C3B50973   1.942   5.646   7.050
 7240POPC   C4B50974   1.943   5.629   7.350
 7241POPC   NC350975  44.631  36.919   5.550
 7241POPC   PO450976  44.670  36.870   5.850
 7241POPC   GL150977  44.617  36.919   6.150
 7241POPC   GL250978  44.621  36.978   6.150
 7241POPC   C1A50979  44.693  36.881   6.450
 7241POPC   D2A50980  44.684  36.898   6.750
 7241POPC   C3A50981  44.698  36.923   7.050
 7241POPC   C4A50982  44.700  36.903   7.350
 7241POPC   C1B50983  44.564  37.107   6.450
 7241POPC   C2B50984  44.569  37.124   6.750
 7241POPC   C3B50985  44.605  37.162   7.050
 7241POPC   C4B50986  44.595  37.121   7.350
 7242POPC   NC350987  22.156  25.225   5.550
 7242POPC   PO450988  22.157  25.251   5.850
 7242POPC   GL150989  22.187  25.236   6.150
 7242POPC   GL250990  22.030  25.224   6.150
 7242POPC   C1A50991  22.127  25.229   6.450
 7242POPC   D2A50992  22.127  25.252   6.750
 7242POPC   C3A50993  22.180  25.297   7.050
 7242POPC   C4A50994  22.206  25.304   7.350
 7242POPC   C1B50995  21.958  25.194   6.450
 7242POPC   C2B50996  21.916  25.211   6.750
 7242POPC   C3B50997  21.936  25.192   7.050
 7242POPC   C4B50998  21.906  25.250   7.350
 7243POPC   NC350999   9.724   9.757   5.550
 7243POPC   PO451000   9.767   9.728   5.850
 7243POPC   GL151001   9.774   9.793   6.150
 7243POPC   GL251002   9.887   9.740   6.150
 7243POPC   C1A51003   9.714   9.723   6.450
 7243POPC   D2A51004   9.764   9.781   6.750
 7243POPC   C3A51005   9.699   9.741   7.050
 7243POPC   C4A51006   9.789   9.723   7.350
 7243POPC   C1B51007  10.046   9.745   6.450
 7243POPC   C2B51008  10.032   9.689   6.750
 7243POPC   C3B51009   9.998   9.682   7.050
 7243POPC   C4B51010  10.009   9.688   7.350
 7244POPC   NC351011  12.854  26.824   5.550
 7244POPC   PO451012  12.818  26.783   5.850
 7244POPC   GL151013  12.883  26.829   6.150
 7244POPC   GL251014  12.932  26.925   6.150
 7244POPC   C1A51015  12.838  26.828   6.450
 7244POPC   D2A51016  12.838  26.787   6.750
 7244POPC   C3A51017  12.815  26.773   7.050
 7244POPC   C4A51018  12.900  26.831   7.350
 7244POPC   C1B51019  12.992  26.998   6.450
 7244POPC   C2B51020  13.006  27.086   6.750
 7244POPC   C3B51021  12.994  27.012   7.050
 7244POPC   C4B51022  12.933  27.051   7.350
 7245POPC   NC351023  35.377   4.288   5.550
 7245POPC   PO451024  35.388   4.325   5.850
 7245POPC   GL151025  35.398   4.291   6.150
 7245POPC   GL251026  35.469   4.365   6.150
 7245POPC   C1A51027  35.333   4.292   6.450
 7245POPC   D2A51028  35.333   4.298   6.750
 7245POPC   C3A51029  35.331   4.285   7.050
 7245POPC   C4A51030  35.304   4.284   7.350
 7245POPC   C1B51031  35.569   4.303   6.450
 7245POPC   C2B51032  35.628   4.351   6.750
 7245POPC   C3B51033  35.603   4.315   7.050
 7245POPC   C4B51034  35.552   4.272   7.350
 7246POPC   NC351035  43.116   2.766   5.550
 7246POPC   PO451036  43.090   2.804   5.850
 7246POPC   GL151037  43.129   2.779   6.150
 7246POPC   GL251038  43.030   2.765   6.150
 7246POPC   C1A51039  43.153   2.798   6.450
 7246POPC   D2A51040  43.064   2.733   6.750
 7246POPC   C3A51041  43.160   2.721   7.050
 7246POPC   C4A51042  43.132   2.756   7.350
 7246POPC   C1B51043  42.865   2.725   6.450
 7246POPC   C2B51044  42.903   2.750   6.750
 7246POPC   C3B51045  42.874   2.745   7.050
 7246POPC   C4B51046  42.846   2.742   7.350
 7247POPC   NC351047  18.329  10.533   5.550
 7247POPC   PO451048  18.270  10.529   5.850
 7247POPC   GL151049  18.318  10.517   6.150
 7247POPC   GL251050  18.173  10.445   6.150
 7247POPC   C1A51051  18.311  10.523   6.450
 7247POPC   D2A51052  18.271  10.478   6.750
 7247POPC   C3A51053  18.318  10.526   7.050
 7247POPC   C4A51054  18.312  10.478   7.350
 7247POPC   C1B51055  18.108  10.327   6.450
 7247POPC   C2B51056  18.081  10.392   6.750
 7247POPC   C3B51057  18.099  10.392   7.050
 7247POPC   C4B51058  18.077  10.322   7.350
 7248POPC   NC351059  12.031  13.635   5.550
 7248POPC   PO451060  12.031  13.629   5.850
 7248POPC   GL151061  12.076  13.583   6.150
 7248POPC   GL251062  12.028  13.701   6.150
 7248POPC   C1A51063  12.121  13.608   6.450
 7248POPC   D2A51064  12.062  13.631   6.750
 7248POPC   C3A51065  12.091  13.620   7.050
 7248POPC   C4A51066  12.030  13.633   7.350
 7248POPC   C1B51067  11.902  13.806   6.450
 7248POPC   C2B51068  11.880  13.769   6.750
 7248POPC   C3B51069  11.876  13.835   7.050
 7248POPC   C4B51070  11.876  13.761   7.350
 7249POPC   NC351071   5.065  25.254   5.550
 7249POPC   PO451072   5.063  25.222   5.850
 7249POPC   GL151073   5.092  25.231   6.150
 7249POPC   GL251074   5.084  25.356   6.150
 7249POPC   C1A51075   5.057  25.298   6.450
 7249POPC   D2A51076   5.108  25.275   6.750
 7249POPC   C3A51077   5.106  25.283   7.050
 7249POPC   C4A51078   5.054  25.276   7.350
 7249POPC   C1B51079   5.097  25.480   6.450
 7249POPC   C2B51080   5.116  25.542   6.750
 7249POPC   C3B51081   5.078  25.488   7.050
 7249POPC   C4B51082   5.130  25.520   7.350
 7250POPC   NC351083  10.560  15.210   5.550
 7250POPC   PO451084  10.484  15.137   5.850
 7250POPC   GL151085  10.530  15.145   6.150
 7250POPC   GL251086  10.428  15.182   6.150
 7250POPC   C1A51087  10.517  15.159   6.450
 7250POPC   D2A51088  10.526  15.134   6.750
 7250POPC   C3A51089  10.522  15.198   7.050
 7250POPC   C4A51090  10.496  15.132   7.350
 7250POPC   C1B51091  10.326  15.291   6.450
 7250POPC   C2B51092  10.252  15.294   6.750
 7250POPC   C3B51093  10.291  15.314   7.050
 7250POPC   C4B51094  10.267  15.315   7.350
 7251POPC   NC351095   6.644  30.707   5.550
 7251POPC   PO451096   6.692  30.652   5.850
 7251POPC   GL151097   6.621  30.733   6.150
 7251POPC   GL251098   6.720  30.752   6.150
 7251POPC   C1A51099   6.682  30.713   6.450
 7251POPC   D2A51100   6.629  30.746   6.750
 7251POPC   C3A51101   6.604  30.736   7.050
 7251POPC   C4A51102   6.689  30.661   7.350
 7251POPC   C1B51103   6.797  30.927   6.450
 7251POPC   C2B51104   6.798  30.923   6.750
 7251POPC   C3B51105   6.782  30.878   7.050
 7251POPC   C4B51106   6.826  30.865   7.350
 7252POPC   NC351107  25.276  25.315   5.550
 7252POPC   PO451108  25.249  25.277   5.850
 7252POPC   GL151109  25.294  25.313   6.150
 7252POPC   GL251110  25.246  25.341   6.150
 7252POPC   C1A51111  25.259  25.228   6.450
 7252POPC   D2A51112  25.309  25.264   6.750
 7252POPC   C3A51113  25.291  25.255   7.050
 7252POPC   C4A51114  25.233  25.291   7.350
 7252POPC   C1B51115  25.183  25.466   6.450
 7252POPC   C2B51116  25.189  25.523   6.750
 7252POPC   C3B51117  25.216  25.455   7.050
 7252POPC   C4B51118  25.181  25.518   7.350
 7253POPC   NC351119  33.022  33.758   5.550
 7253POPC   PO451120  33.021  33.782   5.850
 7253POPC   GL151121  33.022  33.821   6.150
 7253POPC   GL251122  33.081  33.679   6.150
 7253POPC   C1A51123  32.998  33.810   6.450
 7253POPC   D2A51124  33.038  33.799   6.750
 7253POPC   C3A51125  32.992  33.847   7.050
 7253POPC   C4A51126  33.012  33.764   7.350
 7253POPC   C1B51127  33.185  33.570   6.450
 7253POPC   C2B51128  33.117  33.604   6.750
 7253POPC   C3B51129  33.183  33.626   7.050
 7253POPC   C4B51130  33.137  33.606   7.350
 7254POPC   NC351131  12.091  42.360   5.550
 7254POPC   PO451132  12.087  42.349   5.850
 7254POPC   GL151133  12.111  42.365   6.150
 7254POPC   GL251134  12.232  42.308   6.150
 7254POPC   C1A51135  12.113  42.337   6.450
 7254POPC   D2A51136  12.114  42.377   6.750
 7254POPC   C3A51137  12.070  42.285   7.050
 7254POPC   C4A51138  12.105  42.376   7.350
 7254POPC   C1B51139  12.372  42.396   6.450
 7254POPC   C2B51140  12.333  42.369   6.750
 7254POPC   C3B51141  12.337  42.397   7.050
 7254POPC   C4B51142  12.308  42.353   7.350
 7255POPC   NC351143  36.895  35.316   5.550
 7255POPC   PO451144  36.891  35.302   5.850
 7255POPC   GL151145  36.941  35.378   6.150
 7255POPC   GL251146  36.999  35.353   6.150
 7255POPC   C1A51147  36.916  35.334   6.450
 7255POPC   D2A51148  36.943  35.383   6.750
 7255POPC   C3A51149  36.947  35.322   7.050
 7255POPC   C4A51150  36.862  35.326   7.350
 7255POPC   C1B51151  37.131  35.294   6.450
 7255POPC   C2B51152  37.182  35.249   6.750
 7255POPC   C3B51153  37.175  35.247   7.050
 7255POPC   C4B51154  37.108  35.301   7.350
 7256POPC   NC351155  34.535  11.345   5.550
 7256POPC   PO451156  34.601  11.278   5.850
 7256POPC   GL151157  34.552  11.315   6.150
 7256POPC   GL251158  34.654  11.366   6.150
 7256POPC   C1A51159  34.574  11.314   6.450
 7256POPC   D2A51160  34.531  11.337   6.750
 7256POPC   C3A51161  34.548  11.293   7.050
 7256POPC   C4A51162  34.563  11.296   7.350
 7256POPC   C1B51163  34.808  11.509   6.450
 7256POPC   C2B51164  34.760  11.443   6.750
 7256POPC   C3B51165  34.754  11.478   7.050
 7256POPC   C4B51166  34.804  11.489   7.350
 7257POPC   NC351167  43.855  21.392   5.550
 7257POPC   PO451168  43.922  21.379   5.850
 7257POPC   GL151169  43.836  21.378   6.150
 7257POPC   GL251170  43.792  21.523   6.150
 7257POPC   C1A51171  43.905  21.364   6.450
 7257POPC   D2A51172  43.899  21.407   6.750
 7257POPC   C3A51173  43.902  21.384   7.050
 7257POPC   C4A51174  43.903  21.374   7.350
 7257POPC   C1B51175  43.720  21.547   6.450
 7257POPC   C2B51176  43.696  21.624   6.750
 7257POPC   C3B51177  43.727  21.606   7.050
 7257POPC   C4B51178  43.752  21.575   7.350
 7258POPC   NC351179  38.501  19.857   5.550
 7258POPC   PO451180  38.467  19.790   5.850
 7258POPC   GL151181  38.456  19.808   6.150
 7258POPC   GL251182  38.555  19.862   6.150
 7258POPC   C1A51183  38.434  19.871   6.450
 7258POPC   D2A51184  38.487  19.876   6.750
 7258POPC   C3A51185  38.429  19.787   7.050
 7258POPC   C4A51186  38.408  19.795   7.350
 7258POPC   C1B51187  38.626  19.967   6.450
 7258POPC   C2B51188  38.701  19.992   6.750
 7258POPC   C3B51189  38.637  20.020   7.050
 7258POPC   C4B51190  38.641  19.934   7.350
 7259POPC   NC351191   6.601  15.956   5.550
 7259POPC   PO451192   6.637  15.927   5.850
 7259POPC   GL151193   6.601  15.963   6.150
 7259POPC   GL251194   6.672  15.819   6.150
 7259POPC   C1A51195   6.662  15.942   6.450
 7259POPC   D2A51196   6.613  15.958   6.750
 7259POPC   C3A51197   6.602  15.996   7.050
 7259POPC   C4A51198   6.658  15.969   7.350
 7259POPC   C1B51199   6.592  15.688   6.450
 7259POPC   C2B51200   6.580  15.728   6.750
 7259POPC   C3B51201   6.570  15.675   7.050
 7259POPC   C4B51202   6.573  15.718   7.350
 7260POPC   NC351203   8.990  23.746   5.550
 7260POPC   PO451204   8.944  23.681   5.850
 7260POPC   GL151205   8.929  23.681   6.150
 7260POPC   GL251206   9.050  23.750   6.150
 7260POPC   C1A51207   8.989  23.670   6.450
 7260POPC   D2A51208   8.943  23.738   6.750
 7260POPC   C3A51209   8.948  23.731   7.050
 7260POPC   C4A51210   9.006  23.673   7.350
 7260POPC   C1B51211   9.155  23.850   6.450
 7260POPC   C2B51212   9.215  23.815   6.750
 7260POPC   C3B51213   9.213  23.857   7.050
 7260POPC   C4B51214   9.216  23.886   7.350
 7261POPC   NC351215  13.640   4.312   5.550
 7261POPC   PO451216  13.634   4.332   5.850
 7261POPC   GL151217  13.616   4.333   6.150
 7261POPC   GL251218  13.759   4.244   6.150
 7261POPC   C1A51219  13.669   4.344   6.450
 7261POPC   D2A51220  13.637   4.267   6.750
 7261POPC   C3A51221  13.583   4.312   7.050
 7261POPC   C4A51222  13.673   4.288   7.350
 7261POPC   C1B51223  13.859   4.230   6.450
 7261POPC   C2B51224  13.852   4.301   6.750
 7261POPC   C3B51225  13.841   4.216   7.050
 7261POPC   C4B51226  13.849   4.210   7.350
 7262POPC   NC351227  34.582  29.942   5.550
 7262POPC   PO451228  34.589  29.952   5.850
 7262POPC   GL151229  34.581  29.896   6.150
 7262POPC   GL251230  34.641  30.002   6.150
 7262POPC   C1A51231  34.625  29.945   6.450
 7262POPC   D2A51232  34.533  29.945   6.750
 7262POPC   C3A51233  34.568  29.935   7.050
 7262POPC   C4A51234  34.612  29.914   7.350
 7262POPC   C1B51235  34.662  30.175   6.450
 7262POPC   C2B51236  34.692  30.169   6.750
 7262POPC   C3B51237  34.678  30.129   7.050
 7262POPC   C4B51238  34.619  30.142   7.350
 7263POPC   NC351239  33.847   9.719   5.550
 7263POPC   PO451240  33.819   9.741   5.850
 7263POPC   GL151241  33.754   9.786   6.150
 7263POPC   GL251242  33.919   9.621   6.150
 7263POPC   C1A51243  33.790   9.795   6.450
 7263POPC   D2A51244  33.776   9.707   6.750
 7263POPC   C3A51245  33.811   9.723   7.050
 7263POPC   C4A51246  33.846   9.753   7.350
 7263POPC   C1B51247  33.967   9.578   6.450
 7263POPC   C2B51248  33.941   9.537   6.750
 7263POPC   C3B51249  33.939   9.598   7.050
 7263POPC   C4B51250  33.939   9.569   7.350
 7264POPC   NC351251  13.626   3.521   5.550
 7264POPC   PO451252  13.655   3.527   5.850
 7264POPC   GL151253  13.588   3.575   6.150
 7264POPC   GL251254  13.726   3.412   6.150
 7264POPC   C1A51255  13.595   3.540   6.450
 7264POPC   D2A51256  13.671   3.572   6.750
 7264POPC   C3A51257  13.634   3.562   7.050
 7264POPC   C4A51258  13.598   3.540   7.350
 7264POPC   C1B51259  13.805   3.301   6.450
 7264POPC   C2B51260  13.810   3.308   6.750
 7264POPC   C3B51261  13.745   3.292   7.050
 7264POPC   C4B51262  13.807   3.320   7.350
 7265POPC   NC351263  38.420   3.564   5.550
 7265POPC   PO451264  38.483   3.519   5.850
 7265POPC   GL151265  38.458   3.548   6.150
 7265POPC   GL251266  38.336   3.578   6.150
 7265POPC   C1A51267  38.454   3.513   6.450
 7265POPC   D2A51268  38.431   3.557   6.750
 7265POPC   C3A51269  38.456   3.498   7.050
 7265POPC   C4A51270  38.433   3.572   7.350
 7265POPC   C1B51271  38.303   3.727   6.450
 7265POPC   C2B51272  38.255   3.695   6.750
 7265POPC   C3B51273  38.279   3.700   7.050
 7265POPC   C4B51274  38.259   3.680   7.350
 7266POPC   NC351275  42.328  16.771   5.550
 7266POPC   PO451276  42.329  16.682   5.850
 7266POPC   GL151277  42.309  16.744   6.150
 7266POPC   GL251278  42.189  16.750   6.150
 7266POPC   C1A51279  42.325  16.690   6.450
 7266POPC   D2A51280  42.323  16.763   6.750
 7266POPC   C3A51281  42.289  16.709   7.050
 7266POPC   C4A51282  42.361  16.766   7.350
 7266POPC   C1B51283  42.106  16.685   6.450
 7266POPC   C2B51284  42.042  16.660   6.750
 7266POPC   C3B51285  42.063  16.689   7.050
 7266POPC   C4B51286  42.062  16.718   7.350
 7267POPC   NC351287  11.332   0.389   5.550
 7267POPC   PO451288  11.349   0.475   5.850
 7267POPC   GL151289  11.302   0.473   6.150
 7267POPC   GL251290  11.262   0.327   6.150
 7267POPC   C1A51291  11.317   0.461   6.450
 7267POPC   D2A51292  11.276   0.408   6.750
 7267POPC   C3A51293  11.302   0.479   7.050
 7267POPC   C4A51294  11.296   0.461   7.350
 7267POPC   C1B51295  11.279   0.163   6.450
 7267POPC   C2B51296  11.254   0.194   6.750
 7267POPC   C3B51297  11.337   0.172   7.050
 7267POPC   C4B51298  11.305   0.219   7.350
 7268POPC   NC351299   6.645  41.536   5.550
 7268POPC   PO451300   6.647  41.519   5.850
 7268POPC   GL151301   6.627  41.592   6.150
 7268POPC   GL251302   6.776  41.594   6.150
 7268POPC   C1A51303   6.619  41.557   6.450
 7268POPC   D2A51304   6.607  41.547   6.750
 7268POPC   C3A51305   6.619  41.584   7.050
 7268POPC   C4A51306   6.657  41.599   7.350
 7268POPC   C1B51307   6.888  41.650   6.450
 7268POPC   C2B51308   6.893  41.624   6.750
 7268POPC   C3B51309   6.898  41.624   7.050
 7268POPC   C4B51310   6.893  41.644   7.350
 7269POPC   NC351311   4.348  27.547   5.550
 7269POPC   PO451312   4.338  27.591   5.850
 7269POPC   GL151313   4.327  27.563   6.150
 7269POPC   GL251314   4.337  27.499   6.150
 7269POPC   C1A51315   4.318  27.580   6.450
 7269POPC   D2A51316   4.320  27.611   6.750
 7269POPC   C3A51317   4.354  27.548   7.050
 7269POPC   C4A51318   4.304  27.609   7.350
 7269POPC   C1B51319   4.385  27.383   6.450
 7269POPC   C2B51320   4.359  27.355   6.750
 7269POPC   C3B51321   4.456  27.398   7.050
 7269POPC   C4B51322   4.422  27.321   7.350
 7270POPC   NC351323  41.600  28.347   5.550
 7270POPC   PO451324  41.552  28.417   5.850
 7270POPC   GL151325  41.600  28.377   6.150
 7270POPC   GL251326  41.487  28.289   6.150
 7270POPC   C1A51327  41.575  28.344   6.450
 7270POPC   D2A51328  41.581  28.327   6.750
 7270POPC   C3A51329  41.558  28.322   7.050
 7270POPC   C4A51330  41.588  28.401   7.350
 7270POPC   C1B51331  41.520  28.129   6.450
 7270POPC   C2B51332  41.555  28.166   6.750
 7270POPC   C3B51333  41.538  28.101   7.050
 7270POPC   C4B51334  41.548  28.135   7.350
 7271POPC   NC351335  36.953   9.752   5.550
 7271POPC   PO451336  36.921   9.705   5.850
 7271POPC   GL151337  36.895   9.772   6.150
 7271POPC   GL251338  36.905   9.840   6.150
 7271POPC   C1A51339  36.868   9.707   6.450
 7271POPC   D2A51340  36.902   9.710   6.750
 7271POPC   C3A51341  36.879   9.768   7.050
 7271POPC   C4A51342  36.873   9.758   7.350
 7271POPC   C1B51343  36.864   9.998   6.450
 7271POPC   C2B51344  36.826   9.990   6.750
 7271POPC   C3B51345  36.893   9.944   7.050
 7271POPC   C4B51346  36.831   9.995   7.350
 7272POPC   NC351347  32.237  29.918   5.550
 7272POPC   PO451348  32.208  29.953   5.850
 7272POPC   GL151349  32.245  29.948   6.150
 7272POPC   GL251350  32.192  30.003   6.150
 7272POPC   C1A51351  32.208  29.912   6.450
 7272POPC   D2A51352  32.271  29.963   6.750
 7272POPC   C3A51353  32.220  29.920   7.050
 7272POPC   C4A51354  32.259  29.954   7.350
 7272POPC   C1B51355  32.271  30.197   6.450
 7272POPC   C2B51356  32.204  30.139   6.750
 7272POPC   C3B51357  32.196  30.129   7.050
 7272POPC   C4B51358  32.209  30.177   7.350
 7273POPC   NC351359  33.061  25.218   5.550
 7273POPC   PO451360  33.062  25.227   5.850
 7273POPC   GL151361  33.064  25.293   6.150
 7273POPC   GL251362  32.996  25.388   6.150
 7273POPC   C1A51363  32.995  25.237   6.450
 7273POPC   D2A51364  33.044  25.294   6.750
 7273POPC   C3A51365  33.038  25.300   7.050
 7273POPC   C4A51366  33.046  25.245   7.350
 7273POPC   C1B51367  32.868  25.439   6.450
 7273POPC   C2B51368  32.900  25.463   6.750
 7273POPC   C3B51369  32.928  25.534   7.050
 7273POPC   C4B51370  32.907  25.446   7.350
 7274POPC   NC351371   5.837   1.181   5.550
 7274POPC   PO451372   5.863   1.232   5.850
 7274POPC   GL151373   5.832   1.196   6.150
 7274POPC   GL251374   5.992   1.176   6.150
 7274POPC   C1A51375   5.855   1.183   6.450
 7274POPC   D2A51376   5.911   1.253   6.750
 7274POPC   C3A51377   5.914   1.232   7.050
 7274POPC   C4A51378   5.913   1.209   7.350
 7274POPC   C1B51379   6.067   1.014   6.450
 7274POPC   C2B51380   6.094   1.021   6.750
 7274POPC   C3B51381   6.043   1.102   7.050
 7274POPC   C4B51382   6.030   1.081   7.350
 7275POPC   NC351383  16.726   8.210   5.550
 7275POPC   PO451384  16.718   8.184   5.850
 7275POPC   GL151385  16.780   8.173   6.150
 7275POPC   GL251386  16.613   8.202   6.150
 7275POPC   C1A51387  16.713   8.147   6.450
 7275POPC   D2A51388  16.691   8.176   6.750
 7275POPC   C3A51389  16.767   8.157   7.050
 7275POPC   C4A51390  16.706   8.163   7.350
 7275POPC   C1B51391  16.468   8.229   6.450
 7275POPC   C2B51392  16.512   8.247   6.750
 7275POPC   C3B51393  16.501   8.238   7.050
 7275POPC   C4B51394  16.517   8.252   7.350
 7276POPC   NC351395  24.492  11.276   5.550
 7276POPC   PO451396  24.440  11.287   5.850
 7276POPC   GL151397  24.509  11.336   6.150
 7276POPC   GL251398  24.380  11.376   6.150
 7276POPC   C1A51399  24.509  11.270   6.450
 7276POPC   D2A51400  24.484  11.282   6.750
 7276POPC   C3A51401  24.489  11.318   7.050
 7276POPC   C4A51402  24.496  11.339   7.350
 7276POPC   C1B51403  24.344  11.480   6.450
 7276POPC   C2B51404  24.339  11.476   6.750
 7276POPC   C3B51405  24.315  11.500   7.050
 7276POPC   C4B51406  24.282  11.418   7.350
 7277POPC   NC351407  34.573  42.331   5.550
 7277POPC   PO451408  34.603  42.362   5.850
 7277POPC   GL151409  34.589  42.342   6.150
 7277POPC   GL251410  34.447  42.351   6.150
 7277POPC   C1A51411  34.558  42.322   6.450
 7277POPC   D2A51412  34.599  42.351   6.750
 7277POPC   C3A51413  34.623  42.370   7.050
 7277POPC   C4A51414  34.604  42.376   7.350
 7277POPC   C1B51415  34.293  42.260   6.450
 7277POPC   C2B51416  34.325  42.334   6.750
 7277POPC   C3B51417  34.320  42.312   7.050
 7277POPC   C4B51418  34.372  42.288   7.350
 7278POPC   NC351419  27.637  40.781   5.550
 7278POPC   PO451420  27.559  40.771   5.850
 7278POPC   GL151421  27.569  40.762   6.150
 7278POPC   GL251422  27.443  40.768   6.150
 7278POPC   C1A51423  27.567  40.780   6.450
 7278POPC   D2A51424  27.561  40.769   6.750
 7278POPC   C3A51425  27.596  40.746   7.050
 7278POPC   C4A51426  27.592  40.803   7.350
 7278POPC   C1B51427  27.363  40.707   6.450
 7278POPC   C2B51428  27.341  40.698   6.750
 7278POPC   C3B51429  27.320  40.750   7.050
 7278POPC   C4B51430  27.362  40.715   7.350
 7279POPC   NC351431   8.153  33.787   5.550
 7279POPC   PO451432   8.231  33.832   5.850
 7279POPC   GL151433   8.166  33.770   6.150
 7279POPC   GL251434   8.226  33.851   6.150
 7279POPC   C1A51435   8.185  33.774   6.450
 7279POPC   D2A51436   8.185  33.823   6.750
 7279POPC   C3A51437   8.155  33.800   7.050
 7279POPC   C4A51438   8.207  33.816   7.350
 7279POPC   C1B51439   8.380  34.039   6.450
 7279POPC   C2B51440   8.379  33.992   6.750
 7279POPC   C3B51441   8.365  34.044   7.050
 7279POPC   C4B51442   8.403  34.037   7.350
 7280POPC   NC351443   5.847  19.855   5.550
 7280POPC   PO451444   5.908  19.810   5.850
 7280POPC   GL151445   5.914  19.821   6.150
 7280POPC   GL251446   5.707  19.818   6.150
 7280POPC   C1A51447   5.834  19.812   6.450
 7280POPC   D2A51448   5.852  19.791   6.750
 7280POPC   C3A51449   5.841  19.850   7.050
 7280POPC   C4A51450   5.861  19.868   7.350
 7280POPC   C1B51451   5.673  19.865   6.450
 7280POPC   C2B51452   5.644  19.854   6.750
 7280POPC   C3B51453   5.624  19.931   7.050
 7280POPC   C4B51454   5.601  19.918   7.350
 7281POPC   NC351455   2.803  41.600   5.550
 7281POPC   PO451456   2.793  41.567   5.850
 7281POPC   GL151457   2.791  41.536   6.150
 7281POPC   GL251458   2.917  41.563   6.150
 7281POPC   C1A51459   2.742  41.510   6.450
 7281POPC   D2A51460   2.733  41.518   6.750
 7281POPC   C3A51461   2.720  41.512   7.050
 7281POPC   C4A51462   2.729  41.541   7.350
 7281POPC   C1B51463   2.982  41.515   6.450
 7281POPC   C2B51464   3.003  41.580   6.750
 7281POPC   C3B51465   3.040  41.601   7.050
 7281POPC   C4B51466   2.991  41.578   7.350
 7282POPC   NC351467  31.498  12.037   5.550
 7282POPC   PO451468  31.423  12.043   5.850
 7282POPC   GL151469  31.434  12.077   6.150
 7282POPC   GL251470  31.346  12.131   6.150
 7282POPC   C1A51471  31.424  12.125   6.450
 7282POPC   D2A51472  31.519  12.115   6.750
 7282POPC   C3A51473  31.459  12.086   7.050
 7282POPC   C4A51474  31.493  12.113   7.350
 7282POPC   C1B51475  31.228  12.197   6.450
 7282POPC   C2B51476  31.255  12.180   6.750
 7282POPC   C3B51477  31.272  12.223   7.050
 7282POPC   C4B51478  31.257  12.223   7.350
 7283POPC   NC351479  26.832  20.654   5.550
 7283POPC   PO451480  26.851  20.610   5.850
 7283POPC   GL151481  26.837  20.607   6.150
 7283POPC   GL251482  26.776  20.525   6.150
 7283POPC   C1A51483  26.855  20.579   6.450
 7283POPC   D2A51484  26.853  20.657   6.750
 7283POPC   C3A51485  26.804  20.643   7.050
 7283POPC   C4A51486  26.838  20.622   7.350
 7283POPC   C1B51487  26.741  20.390   6.450
 7283POPC   C2B51488  26.758  20.369   6.750
 7283POPC   C3B51489  26.739  20.345   7.050
 7283POPC   C4B51490  26.752  20.400   7.350
 7284POPC   NC351491  44.662   2.743   5.550
 7284POPC   PO451492  44.683   2.776   5.850
 7284POPC   GL151493  44.615   2.787   6.150
 7284POPC   GL251494  44.613   2.674   6.150
 7284POPC   C1A51495  44.646   2.716   6.450
 7284POPC   D2A51496  44.613   2.751   6.750
 7284POPC   C3A51497  44.701   2.750   7.050
 7284POPC   C4A51498  44.697   2.774   7.350
 7284POPC   C1B51499  44.592   2.575   6.450
 7284POPC   C2B51500  44.545   2.522   6.750
 7284POPC   C3B51501  44.639   2.514   7.050
 7284POPC   C4B51502  44.611   2.535   7.350
 7285POPC   NC351503  24.471   1.991   5.550
 7285POPC   PO451504  24.455   1.943   5.850
 7285POPC   GL151505  24.475   2.039   6.150
 7285POPC   GL251506  24.576   1.934   6.150
 7285POPC   C1A51507  24.534   2.021   6.450
 7285POPC   D2A51508  24.464   2.001   6.750
 7285POPC   C3A51509  24.511   1.992   7.050
 7285POPC   C4A51510  24.444   1.994   7.350
 7285POPC   C1B51511  24.739   1.937   6.450
 7285POPC   C2B51512  24.769   1.973   6.750
 7285POPC   C3B51513  24.706   1.942   7.050
 7285POPC   C4B51514  24.772   1.903   7.350
 7286POPC   NC351515  24.471   2.748   5.550
 7286POPC   PO451516  24.524   2.721   5.850
 7286POPC   GL151517  24.496   2.803   6.150
 7286POPC   GL251518  24.330   2.741   6.150
 7286POPC   C1A51519  24.518   2.750   6.450
 7286POPC   D2A51520  24.457   2.729   6.750
 7286POPC   C3A51521  24.467   2.730   7.050
 7286POPC   C4A51522  24.526   2.734   7.350
 7286POPC   C1B51523  24.219   2.715   6.450
 7286POPC   C2B51524  24.264   2.712   6.750
 7286POPC   C3B51525  24.215   2.718   7.050
 7286POPC   C4B51526  24.304   2.655   7.350
 7287POPC   NC351527  19.847  36.127   5.550
 7287POPC   PO451528  19.799  36.173   5.850
 7287POPC   GL151529  19.857  36.098   6.150
 7287POPC   GL251530  19.890  36.067   6.150
 7287POPC   C1A51531  19.785  36.126   6.450
 7287POPC   D2A51532  19.853  36.093   6.750
 7287POPC   C3A51533  19.812  36.106   7.050
 7287POPC   C4A51534  19.857  36.106   7.350
 7287POPC   C1B51535  20.071  35.991   6.450
 7287POPC   C2B51536  20.005  35.966   6.750
 7287POPC   C3B51537  20.004  35.950   7.050
 7287POPC   C4B51538  20.052  36.007   7.350
 7288POPC   NC351539   2.005  22.965   5.550
 7288POPC   PO451540   1.961  22.891   5.850
 7288POPC   GL151541   2.027  22.959   6.150
 7288POPC   GL251542   2.150  22.906   6.150
 7288POPC   C1A51543   1.960  22.913   6.450
 7288POPC   D2A51544   1.981  22.932   6.750
 7288POPC   C3A51545   2.025  22.977   7.050
 7288POPC   C4A51546   1.978  22.933   7.350
 7288POPC   C1B51547   2.200  22.796   6.450
 7288POPC   C2B51548   2.234  22.847   6.750
 7288POPC   C3B51549   2.172  22.869   7.050
 7288POPC   C4B51550   2.219  22.795   7.350
 7289POPC   NC351551   4.295  34.613   5.550
 7289POPC   PO451552   4.343  34.542   5.850
 7289POPC   GL151553   4.365  34.526   6.150
 7289POPC   GL251554   4.228  34.627   6.150
 7289POPC   C1A51555   4.360  34.548   6.450
 7289POPC   D2A51556   4.337  34.565   6.750
 7289POPC   C3A51557   4.300  34.587   7.050
 7289POPC   C4A51558   4.326  34.598   7.350
 7289POPC   C1B51559   4.185  34.744   6.450
 7289POPC   C2B51560   4.126  34.752   6.750
 7289POPC   C3B51561   4.124  34.719   7.050
 7289POPC   C4B51562   4.131  34.716   7.350
 7290POPC   NC351563   5.872  35.319   5.550
 7290POPC   PO451564   5.858  35.367   5.850
 7290POPC   GL151565   5.853  35.360   6.150
 7290POPC   GL251566   5.790  35.268   6.150
 7290POPC   C1A51567   5.857  35.389   6.450
 7290POPC   D2A51568   5.909  35.358   6.750
 7290POPC   C3A51569   5.836  35.303   7.050
 7290POPC   C4A51570   5.919  35.346   7.350
 7290POPC   C1B51571   5.693  35.151   6.450
 7290POPC   C2B51572   5.657  35.114   6.750
 7290POPC   C3B51573   5.722  35.148   7.050
 7290POPC   C4B51574   5.687  35.209   7.350
 7291POPC   NC351575  14.444  19.876   5.550
 7291POPC   PO451576  14.385  19.882   5.850
 7291POPC   GL151577  14.420  19.851   6.150
 7291POPC   GL251578  14.290  19.856   6.150
 7291POPC   C1A51579  14.377  19.815   6.450
 7291POPC   D2A51580  14.436  19.800   6.750
 7291POPC   C3A51581  14.439  19.874   7.050
 7291POPC   C4A51582  14.418  19.870   7.350
 7291POPC   C1B51583  14.152  20.004   6.450
 7291POPC   C2B51584  14.185  19.975   6.750
 7291POPC   C3B51585  14.233  19.978   7.050
 7291POPC   C4B51586  14.152  19.938   7.350
 7292POPC   NC351587  28.353  43.891   5.550
 7292POPC   PO451588  28.321  43.924   5.850
 7292POPC   GL151589  28.329  43.849   6.150
 7292POPC   GL251590  28.533  43.842   6.150
 7292POPC   C1A51591  28.344  43.916   6.450
 7292POPC   D2A51592  28.400  43.916   6.750
 7292POPC   C3A51593  28.326  43.851   7.050
 7292POPC   C4A51594  28.401  43.936   7.350
 7292POPC   C1B51595  28.576  43.767   6.450
 7292POPC   C2B51596  28.640  43.760   6.750
 7292POPC   C3B51597  28.595  43.823   7.050
 7292POPC   C4B51598  28.623  43.738   7.350
 7293POPC   NC351599  15.136   0.407   5.550
 7293POPC   PO451600  15.179   0.410   5.850
 7293POPC   GL151601  15.171   0.448   6.150
 7293POPC   GL251602  15.257   0.431   6.150
 7293POPC   C1A51603  15.160   0.406   6.450
 7293POPC   D2A51604  15.189   0.456   6.750
 7293POPC   C3A51605  15.167   0.394   7.050
 7293POPC   C4A51606  15.160   0.478   7.350
 7293POPC   C1B51607  15.427   0.439   6.450
 7293POPC   C2B51608  15.472   0.465   6.750
 7293POPC   C3B51609  15.436   0.392   7.050
 7293POPC   C4B51610  15.437   0.447   7.350
 7294POPC   NC351611  41.575  40.044   5.550
 7294POPC   PO451612  41.590  40.052   5.850
 7294POPC   GL151613  41.537  40.020   6.150
 7294POPC   GL251614  41.549  39.868   6.150
 7294POPC   C1A51615  41.606  39.978   6.450
 7294POPC   D2A51616  41.533  40.020   6.750
 7294POPC   C3A51617  41.545  40.038   7.050
 7294POPC   C4A51618  41.525  40.043   7.350
 7294POPC   C1B51619  41.626  39.715   6.450
 7294POPC   C2B51620  41.576  39.775   6.750
 7294POPC   C3B51621  41.640  39.793   7.050
 7294POPC   C4B51622  41.645  39.730   7.350
 7295POPC   NC351623  36.908  15.191   5.550
 7295POPC   PO451624  36.950  15.215   5.850
 7295POPC   GL151625  36.896  15.172   6.150
 7295POPC   GL251626  37.032  15.105   6.150
 7295POPC   C1A51627  36.920  15.149   6.450
 7295POPC   D2A51628  36.937  15.209   6.750
 7295POPC   C3A51629  36.876  15.133   7.050
 7295POPC   C4A51630  36.946  15.139   7.350
 7295POPC   C1B51631  37.113  15.018   6.450
 7295POPC   C2B51632  37.131  15.012   6.750
 7295POPC   C3B51633  37.055  15.061   7.050
 7295POPC   C4B51634  37.101  15.017   7.350
 7296POPC   NC351635  19.883   0.428   5.550
 7296POPC   PO451636  19.828   0.396   5.850
 7296POPC   GL151637  19.868   0.417   6.150
 7296POPC   GL251638  19.807   0.357   6.150
 7296POPC   C1A51639  19.873   0.400   6.450
 7296POPC   D2A51640  19.874   0.458   6.750
 7296POPC   C3A51641  19.810   0.410   7.050
 7296POPC   C4A51642  19.822   0.466   7.350
 7296POPC   C1B51643  19.808   0.194   6.450
 7296POPC   C2B51644  19.819   0.155   6.750
 7296POPC   C3B51645  19.831   0.211   7.050
 7296POPC   C4B51646  19.820   0.155   7.350
 7297POPC   NC351647   5.087  22.174   5.550
 7297POPC   PO451648   5.053  22.198   5.850
 7297POPC   GL151649   5.087  22.157   6.150
 7297POPC   GL251650   5.183  22.061   6.150
 7297POPC   C1A51651   5.139  22.168   6.450
 7297POPC   D2A51652   5.063  22.125   6.750
 7297POPC   C3A51653   5.118  22.122   7.050
 7297POPC   C4A51654   5.063  22.179   7.350
 7297POPC   C1B51655   5.184  21.930   6.450
 7297POPC   C2B51656   5.205  21.918   6.750
 7297POPC   C3B51657   5.245  21.979   7.050
 7297POPC   C4B51658   5.257  21.974   7.350
 7298POPC   NC351659  13.665   5.139   5.550
 7298POPC   PO451660  13.578   5.140   5.850
 7298POPC   GL151661  13.634   5.100   6.150
 7298POPC   GL251662  13.783   5.083   6.150
 7298POPC   C1A51663  13.671   5.112   6.450
 7298POPC   D2A51664  13.605   5.064   6.750
 7298POPC   C3A51665  13.616   5.113   7.050
 7298POPC   C4A51666  13.592   5.046   7.350
 7298POPC   C1B51667  13.870   5.079   6.450
 7298POPC   C2B51668  13.829   5.108   6.750
 7298POPC   C3B51669  13.925   5.123   7.050
 7298POPC   C4B51670  13.872   5.124   7.350
 7299POPC   NC351671  10.571   5.847   5.550
 7299POPC   PO451672  10.492   5.829   5.850
 7299POPC   GL151673  10.519   5.887   6.150
 7299POPC   GL251674  10.388   5.796   6.150
 7299POPC   C1A51675  10.544   5.874   6.450
 7299POPC   D2A51676  10.542   5.901   6.750
 7299POPC   C3A51677  10.564   5.840   7.050
 7299POPC   C4A51678  10.558   5.833   7.350
 7299POPC   C1B51679  10.301   5.767   6.450
 7299POPC   C2B51680  10.273   5.799   6.750
 7299POPC   C3B51681  10.311   5.743   7.050
 7299POPC   C4B51682  10.291   5.800   7.350
 7300POPC   NC351683  37.670  34.546   5.550
 7300POPC   PO451684  37.641  34.608   5.850
 7300POPC   GL151685  37.677  34.534   6.150
 7300POPC   GL251686  37.779  34.663   6.150
 7300POPC   C1A51687  37.720  34.575   6.450
 7300POPC   D2A51688  37.670  34.537   6.750
 7300POPC   C3A51689  37.643  34.586   7.050
 7300POPC   C4A51690  37.673  34.549   7.350
 7300POPC   C1B51691  37.789  34.761   6.450
 7300POPC   C2B51692  37.846  34.816   6.750
 7300POPC   C3B51693  37.845  34.795   7.050
 7300POPC   C4B51694  37.817  34.761   7.350
 7301POPC   NC351695  19.048  36.885   5.550
 7301POPC   PO451696  19.029  36.945   5.850
 7301POPC   GL151697  19.098  36.863   6.150
 7301POPC   GL251698  19.167  36.840   6.150
 7301POPC   C1A51699  19.042  36.882   6.450
 7301POPC   D2A51700  19.019  36.855   6.750
 7301POPC   C3A51701  19.010  36.911   7.050
 7301POPC   C4A51702  19.036  36.940   7.350
 7301POPC   C1B51703  19.220  36.792   6.450
 7301POPC   C2B51704  19.290  36.728   6.750
 7301POPC   C3B51705  19.234  36.728   7.050
 7301POPC   C4B51706  19.260  36.790   7.350
 7302POPC   NC351707   0.457  23.699   5.550
 7302POPC   PO451708   0.430  23.735   5.850
 7302POPC   GL151709   0.454  23.744   6.150
 7302POPC   GL251710   0.589  23.738   6.150
 7302POPC   C1A51711   0.476  23.761   6.450
 7302POPC   D2A51712   0.454  23.696   6.750
 7302POPC   C3A51713   0.425  23.723   7.050
 7302POPC   C4A51714   0.453  23.740   7.350
 7302POPC   C1B51715   0.675  23.827   6.450
 7302POPC   C2B51716   0.716  23.851   6.750
 7302POPC   C3B51717   0.702  23.839   7.050
 7302POPC   C4B51718   0.622  23.790   7.350
 7303POPC   NC351719  39.185  39.225   5.550
 7303POPC   PO451720  39.197  39.270   5.850
 7303POPC   GL151721  39.268  39.247   6.150
 7303POPC   GL251722  39.298  39.149   6.150
 7303POPC   C1A51723  39.233  39.234   6.450
 7303POPC   D2A51724  39.203  39.217   6.750
 7303POPC   C3A51725  39.278  39.197   7.050
 7303POPC   C4A51726  39.192  39.225   7.350
 7303POPC   C1B51727  39.403  39.150   6.450
 7303POPC   C2B51728  39.458  39.103   6.750
 7303POPC   C3B51729  39.486  39.097   7.050
 7303POPC   C4B51730  39.425  39.114   7.350
 7304POPC   NC351731  15.998  24.471   5.550
 7304POPC   PO451732  15.906  24.511   5.850
 7304POPC   GL151733  15.906  24.517   6.150
 7304POPC   GL251734  15.912  24.370   6.150
 7304POPC   C1A51735  15.910  24.519   6.450
 7304POPC   D2A51736  15.972  24.494   6.750
 7304POPC   C3A51737  15.982  24.446   7.050
 7304POPC   C4A51738  15.991  24.538   7.350
 7304POPC   C1B51739  15.802  24.297   6.450
 7304POPC   C2B51740  15.800  24.362   6.750
 7304POPC   C3B51741  15.737  24.317   7.050
 7304POPC   C4B51742  15.725  24.320   7.350
 7305POPC   NC351743   9.727  43.929   5.550
 7305POPC   PO451744   9.754  43.908   5.850
 7305POPC   GL151745   9.776  43.855   6.150
 7305POPC   GL251746   9.893  43.942   6.150
 7305POPC   C1A51747   9.760  43.881   6.450
 7305POPC   D2A51748   9.715  43.886   6.750
 7305POPC   C3A51749   9.783  43.893   7.050
 7305POPC   C4A51750   9.782  43.888   7.350
 7305POPC   C1B51751   9.990  43.909   6.450
 7305POPC   C2B51752   9.951  43.949   6.750
 7305POPC   C3B51753  10.001  43.886   7.050
 7305POPC   C4B51754  10.020  43.883   7.350
 7306POPC   NC351755  26.049  42.295   5.550
 7306POPC   PO451756  26.079  42.352   5.850
 7306POPC   GL151757  26.020  42.331   6.150
 7306POPC   GL251758  25.908  42.413   6.150
 7306POPC   C1A51759  26.084  42.295   6.450
 7306POPC   D2A51760  26.031  42.366   6.750
 7306POPC   C3A51761  26.062  42.362   7.050
 7306POPC   C4A51762  26.006  42.345   7.350
 7306POPC   C1B51763  25.848  42.423   6.450
 7306POPC   C2B51764  25.852  42.422   6.750
 7306POPC   C3B51765  25.824  42.508   7.050
 7306POPC   C4B51766  25.826  42.449   7.350
 7307POPC   NC351767  41.518  11.312   5.550
 7307POPC   PO451768  41.596  11.297   5.850
 7307POPC   GL151769  41.598  11.260   6.150
 7307POPC   GL251770  41.639  11.223   6.150
 7307POPC   C1A51771  41.546  11.280   6.450
 7307POPC   D2A51772  41.567  11.275   6.750
 7307POPC   C3A51773  41.578  11.252   7.050
 7307POPC   C4A51774  41.596  11.348   7.350
 7307POPC   C1B51775  41.726  11.046   6.450
 7307POPC   C2B51776  41.653  11.123   6.750
 7307POPC   C3B51777  41.704  11.046   7.050
 7307POPC   C4B51778  41.679  11.104   7.350
 7308POPC   NC351779  40.809   1.952   5.550
 7308POPC   PO451780  40.790   1.997   5.850
 7308POPC   GL151781  40.805   1.944   6.150
 7308POPC   GL251782  40.811   2.143   6.150
 7308POPC   C1A51783  40.813   1.949   6.450
 7308POPC   D2A51784  40.771   1.980   6.750
 7308POPC   C3A51785  40.828   1.948   7.050
 7308POPC   C4A51786  40.806   2.012   7.350
 7308POPC   C1B51787  40.859   2.252   6.450
 7308POPC   C2B51788  40.774   2.199   6.750
 7308POPC   C3B51789  40.847   2.267   7.050
 7308POPC   C4B51790  40.866   2.232   7.350
 7309POPC   NC351791   0.408  38.491   5.550
 7309POPC   PO451792   0.402  38.427   5.850
 7309POPC   GL151793   0.393  38.460   6.150
 7309POPC   GL251794   0.504  38.360   6.150
 7309POPC   C1A51795   0.473  38.411   6.450
 7309POPC   D2A51796   0.405  38.422   6.750
 7309POPC   C3A51797   0.481  38.420   7.050
 7309POPC   C4A51798   0.430  38.444   7.350
 7309POPC   C1B51799   0.605  38.209   6.450
 7309POPC   C2B51800   0.620  38.261   6.750
 7309POPC   C3B51801   0.574  38.218   7.050
 7309POPC   C4B51802   0.552  38.283   7.350
 7310POPC   NC351803  26.799  34.615   5.550
 7310POPC   PO451804  26.811  34.544   5.850
 7310POPC   GL151805  26.847  34.581   6.150
 7310POPC   GL251806  26.905  34.527   6.150
 7310POPC   C1A51807  26.844  34.528   6.450
 7310POPC   D2A51808  26.798  34.564   6.750
 7310POPC   C3A51809  26.856  34.590   7.050
 7310POPC   C4A51810  26.815  34.532   7.350
 7310POPC   C1B51811  27.032  34.518   6.450
 7310POPC   C2B51812  27.071  34.513   6.750
 7310POPC   C3B51813  27.055  34.507   7.050
 7310POPC   C4B51814  27.010  34.513   7.350
 7311POPC   NC351815  13.626  41.574   5.550
 7311POPC   PO451816  13.584  41.593   5.850
 7311POPC   GL151817  13.594  41.590   6.150
 7311POPC   GL251818  13.581  41.663   6.150
 7311POPC   C1A51819  13.636  41.511   6.450
 7311POPC   D2A51820  13.649  41.541   6.750
 7311POPC   C3A51821  13.588  41.547   7.050
 7311POPC   C4A51822  13.635  41.592   7.350
 7311POPC   C1B51823  13.442  41.724   6.450
 7311POPC   C2B51824  13.484  41.724   6.750
 7311POPC   C3B51825  13.475  41.707   7.050
 7311POPC   C4B51826  13.393  41.763   7.350
 7312POPC   NC351827   9.747  41.517   5.550
 7312POPC   PO451828   9.704  41.573   5.850
 7312POPC   GL151829   9.756  41.559   6.150
 7312POPC   GL251830   9.719  41.656   6.150
 7312POPC   C1A51831   9.768  41.599   6.450
 7312POPC   D2A51832   9.796  41.590   6.750
 7312POPC   C3A51833   9.701  41.534   7.050
 7312POPC   C4A51834   9.754  41.523   7.350
 7312POPC   C1B51835   9.615  41.765   6.450
 7312POPC   C2B51836   9.573  41.799   6.750
 7312POPC   C3B51837   9.575  41.795   7.050
 7312POPC   C4B51838   9.590  41.743   7.350
 7313POPC   NC351839  23.723  17.499   5.550
 7313POPC   PO451840  23.726  17.516   5.850
 7313POPC   GL151841  23.747  17.470   6.150
 7313POPC   GL251842  23.799  17.401   6.150
 7313POPC   C1A51843  23.686  17.557   6.450
 7313POPC   D2A51844  23.675  17.459   6.750
 7313POPC   C3A51845  23.667  17.547   7.050
 7313POPC   C4A51846  23.719  17.518   7.350
 7313POPC   C1B51847  23.889  17.348   6.450
 7313POPC   C2B51848  23.929  17.345   6.750
 7313POPC   C3B51849  23.937  17.394   7.050
 7313POPC   C4B51850  23.914  17.363   7.350
 7314POPC   NC351851  21.342  20.633   5.550
 7314POPC   PO451852  21.396  20.562   5.850
 7314POPC   GL151853  21.361  20.562   6.150
 7314POPC   GL251854  21.487  20.556   6.150
 7314POPC   C1A51855  21.365  20.603   6.450
 7314POPC   D2A51856  21.404  20.646   6.750
 7314POPC   C3A51857  21.339  20.570   7.050
 7314POPC   C4A51858  21.387  20.598   7.350
 7314POPC   C1B51859  21.628  20.647   6.450
 7314POPC   C2B51860  21.610  20.625   6.750
 7314POPC   C3B51861  21.660  20.623   7.050
 7314POPC   C4B51862  21.627  20.604   7.350
 7315POPC   NC351863   8.223  35.321   5.550
 7315POPC   PO451864   8.159  35.337   5.850
 7315POPC   GL151865   8.227  35.395   6.150
 7315POPC   GL251866   8.287  35.391   6.150
 7315POPC   C1A51867   8.221  35.331   6.450
 7315POPC   D2A51868   8.202  35.364   6.750
 7315POPC   C3A51869   8.150  35.375   7.050
 7315POPC   C4A51870   8.205  35.385   7.350
 7315POPC   C1B51871   8.457  35.479   6.450
 7315POPC   C2B51872   8.451  35.473   6.750
 7315POPC   C3B51873   8.375  35.510   7.050
 7315POPC   C4B51874   8.468  35.478   7.350
 7316POPC   NC351875  26.074  18.296   5.550
 7316POPC   PO451876  26.025  18.275   5.850
 7316POPC   GL151877  26.002  18.309   6.150
 7316POPC   GL251878  26.071  18.111   6.150
 7316POPC   C1A51879  26.027  18.280   6.450
 7316POPC   D2A51880  26.054  18.302   6.750
 7316POPC   C3A51881  25.992  18.326   7.050
 7316POPC   C4A51882  26.061  18.322   7.350
 7316POPC   C1B51883  26.081  18.056   6.450
 7316POPC   C2B51884  26.060  18.013   6.750
 7316POPC   C3B51885  26.095  18.079   7.050
 7316POPC   C4B51886  26.014  17.997   7.350
 7317POPC   NC351887  43.873  25.295   5.550
 7317POPC   PO451888  43.918  25.285   5.850
 7317POPC   GL151889  43.917  25.311   6.150
 7317POPC   GL251890  43.972  25.341   6.150
 7317POPC   C1A51891  43.873  25.296   6.450
 7317POPC   D2A51892  43.880  25.252   6.750
 7317POPC   C3A51893  43.905  25.282   7.050
 7317POPC   C4A51894  43.886  25.241   7.350
 7317POPC   C1B51895  43.951  25.453   6.450
 7317POPC   C2B51896  43.951  25.543   6.750
 7317POPC   C3B51897  43.971  25.467   7.050
 7317POPC   C4B51898  43.976  25.452   7.350
 7318POPC   NC351899  29.174   6.627   5.550
 7318POPC   PO451900  29.112   6.614   5.850
 7318POPC   GL151901  29.171   6.651   6.150
 7318POPC   GL251902  29.070   6.688   6.150
 7318POPC   C1A51903  29.178   6.616   6.450
 7318POPC   D2A51904  29.127   6.684   6.750
 7318POPC   C3A51905  29.162   6.642   7.050
 7318POPC   C4A51906  29.135   6.659   7.350
 7318POPC   C1B51907  28.881   6.739   6.450
 7318POPC   C2B51908  28.894   6.702   6.750
 7318POPC   C3B51909  28.921   6.780   7.050
 7318POPC   C4B51910  28.885   6.772   7.350
 7319POPC   NC351911  16.781   2.034   5.550
 7319POPC   PO451912  16.694   1.949   5.850
 7319POPC   GL151913  16.752   1.975   6.150
 7319POPC   GL251914  16.659   1.886   6.150
 7319POPC   C1A51915  16.734   1.976   6.450
 7319POPC   D2A51916  16.701   2.007   6.750
 7319POPC   C3A51917  16.713   2.021   7.050
 7319POPC   C4A51918  16.748   2.013   7.350
 7319POPC   C1B51919  16.583   1.732   6.450
 7319POPC   C2B51920  16.563   1.786   6.750
 7319POPC   C3B51921  16.621   1.740   7.050
 7319POPC   C4B51922  16.629   1.746   7.350
 7320POPC   NC351923  15.190  16.775   5.550
 7320POPC   PO451924  15.227  16.755   5.850
 7320POPC   GL151925  15.214  16.724   6.150
 7320POPC   GL251926  15.095  16.634   6.150
 7320POPC   C1A51927  15.216  16.737   6.450
 7320POPC   D2A51928  15.207  16.721   6.750
 7320POPC   C3A51929  15.195  16.705   7.050
 7320POPC   C4A51930  15.167  16.720   7.350
 7320POPC   C1B51931  14.987  16.497   6.450
 7320POPC   C2B51932  14.988  16.562   6.750
 7320POPC   C3B51933  15.006  16.544   7.050
 7320POPC   C4B51934  15.027  16.554   7.350
 7321POPC   NC351935  32.297   0.404   5.550
 7321POPC   PO451936  32.201   0.403   5.850
 7321POPC   GL151937  32.282   0.436   6.150
 7321POPC   GL251938  32.323   0.522   6.150
 7321POPC   C1A51939  32.275   0.400   6.450
 7321POPC   D2A51940  32.221   0.398   6.750
 7321POPC   C3A51941  32.242   0.456   7.050
 7321POPC   C4A51942  32.288   0.463   7.350
 7321POPC   C1B51943  32.398   0.688   6.450
 7321POPC   C2B51944  32.333   0.688   6.750
 7321POPC   C3B51945  32.352   0.652   7.050
 7321POPC   C4B51946  32.400   0.601   7.350
 7322POPC   NC351947  22.115  31.471   5.550
 7322POPC   PO451948  22.129  31.483   5.850
 7322POPC   GL151949  22.163  31.468   6.150
 7322POPC   GL251950  22.198  31.631   6.150
 7322POPC   C1A51951  22.156  31.441   6.450
 7322POPC   D2A51952  22.156  31.476   6.750
 7322POPC   C3A51953  22.145  31.471   7.050
 7322POPC   C4A51954  22.177  31.457   7.350
 7322POPC   C1B51955  22.184  31.754   6.450
 7322POPC   C2B51956  22.191  31.753   6.750
 7322POPC   C3B51957  22.137  31.693   7.050
 7322POPC   C4B51958  22.135  31.680   7.350
 7323POPC   NC351959  39.959  12.867   5.550
 7323POPC   PO451960  39.979  12.871   5.850
 7323POPC   GL151961  40.033  12.845   6.150
 7323POPC   GL251962  40.163  12.813   6.150
 7323POPC   C1A51963  40.005  12.856   6.450
 7323POPC   D2A51964  40.000  12.859   6.750
 7323POPC   C3A51965  39.969  12.882   7.050
 7323POPC   C4A51966  39.979  12.851   7.350
 7323POPC   C1B51967  40.271  12.813   6.450
 7323POPC   C2B51968  40.286  12.757   6.750
 7323POPC   C3B51969  40.293  12.799   7.050
 7323POPC   C4B51970  40.244  12.792   7.350
 7324POPC   NC351971   2.015   8.231   5.550
 7324POPC   PO451972   2.006   8.216   5.850
 7324POPC   GL151973   1.968   8.200   6.150
 7324POPC   GL251974   1.920   8.255   6.150
 7324POPC   C1A51975   1.996   8.166   6.450
 7324POPC   D2A51976   1.944   8.180   6.750
 7324POPC   C3A51977   2.002   8.242   7.050
 7324POPC   C4A51978   1.962   8.206   7.350
 7324POPC   C1B51979   1.806   8.401   6.450
 7324POPC   C2B51980   1.802   8.357   6.750
 7324POPC   C3B51981   1.806   8.422   7.050
 7324POPC   C4B51982   1.843   8.369   7.350
 7325POPC   NC351983  10.501  40.742   5.550
 7325POPC   PO451984  10.487  40.824   5.850
 7325POPC   GL151985  10.540  40.773   6.150
 7325POPC   GL251986  10.417  40.788   6.150
 7325POPC   C1A51987  10.502  40.830   6.450
 7325POPC   D2A51988  10.481  40.740   6.750
 7325POPC   C3A51989  10.512  40.782   7.050
 7325POPC   C4A51990  10.535  40.779   7.350
 7325POPC   C1B51991  10.338  40.827   6.450
 7325POPC   C2B51992  10.306  40.822   6.750
 7325POPC   C3B51993  10.248  40.881   7.050
 7325POPC   C4B51994  10.270  40.889   7.350
 7326POPC   NC351995  31.519   4.288   5.550
 7326POPC   PO451996  31.514   4.327   5.850
 7326POPC   GL151997  31.478   4.333   6.150
 7326POPC   GL251998  31.360   4.386   6.150
 7326POPC   C1A51999  31.468   4.319   6.450
 7326POPC   D2A52000  31.483   4.331   6.750
 7326POPC   C3A52001  31.522   4.276   7.050
 7326POPC   C4A52002  31.468   4.267   7.350
 7326POPC   C1B52003  31.309   4.441   6.450
 7326POPC   C2B52004  31.246   4.469   6.750
 7326POPC   C3B52005  31.246   4.481   7.050
 7326POPC   C4B52006  31.275   4.478   7.350
 7327POPC   NC352007   4.352  26.860   5.550
 7327POPC   PO452008   4.320  26.823   5.850
 7327POPC   GL152009   4.306  26.816   6.150
 7327POPC   GL252010   4.441  26.920   6.150
 7327POPC   C1A52011   4.351  26.821   6.450
 7327POPC   D2A52012   4.347  26.845   6.750
 7327POPC   C3A52013   4.348  26.836   7.050
 7327POPC   C4A52014   4.269  26.795   7.350
 7327POPC   C1B52015   4.485  27.040   6.450
 7327POPC   C2B52016   4.462  26.973   6.750
 7327POPC   C3B52017   4.543  27.021   7.050
 7327POPC   C4B52018   4.532  26.950   7.350
 7328POPC   NC352019  34.589  10.492   5.550
 7328POPC   PO452020  34.536  10.490   5.850
 7328POPC   GL152021  34.569  10.523   6.150
 7328POPC   GL252022  34.619  10.602   6.150
 7328POPC   C1A52023  34.584  10.522   6.450
 7328POPC   D2A52024  34.568  10.546   6.750
 7328POPC   C3A52025  34.557  10.519   7.050
 7328POPC   C4A52026  34.560  10.506   7.350
 7328POPC   C1B52027  34.555  10.824   6.450
 7328POPC   C2B52028  34.554  10.790   6.750
 7328POPC   C3B52029  34.582  10.801   7.050
 7328POPC   C4B52030  34.518  10.749   7.350
 7329POPC   NC352031   0.462   0.450   5.550
 7329POPC   PO452032   0.475   0.446   5.850
 7329POPC   GL152033   0.460   0.482   6.150
 7329POPC   GL252034   0.462   0.548   6.150
 7329POPC   C1A52035   0.438   0.418   6.450
 7329POPC   D2A52036   0.448   0.479   6.750
 7329POPC   C3A52037   0.397   0.461   7.050
 7329POPC   C4A52038   0.427   0.391   7.350
 7329POPC   C1B52039   0.478   0.649   6.450
 7329POPC   C2B52040   0.493   0.719   6.750
 7329POPC   C3B52041   0.469   0.732   7.050
 7329POPC   C4B52042   0.409   0.712   7.350
 7330POPC   NC352043  15.946  18.256   5.550
 7330POPC   PO452044  15.941  18.311   5.850
 7330POPC   GL152045  15.989  18.297   6.150
 7330POPC   GL252046  15.796  18.247   6.150
 7330POPC   C1A52047  15.982  18.324   6.450
 7330POPC   D2A52048  15.933  18.285   6.750
 7330POPC   C3A52049  15.967  18.329   7.050
 7330POPC   C4A52050  15.920  18.290   7.350
 7330POPC   C1B52051  15.756  18.124   6.450
 7330POPC   C2B52052  15.769  18.143   6.750
 7330POPC   C3B52053  15.705  18.130   7.050
 7330POPC   C4B52054  15.687  18.155   7.350
 7331POPC   NC352055  10.505  25.266   5.550
 7331POPC   PO452056  10.488  25.273   5.850
 7331POPC   GL152057  10.485  25.260   6.150
 7331POPC   GL252058  10.440  25.301   6.150
 7331POPC   C1A52059  10.502  25.286   6.450
 7331POPC   D2A52060  10.494  25.309   6.750
 7331POPC   C3A52061  10.547  25.251   7.050
 7331POPC   C4A52062  10.497  25.304   7.350
 7331POPC   C1B52063  10.335  25.446   6.450
 7331POPC   C2B52064  10.306  25.419   6.750
 7331POPC   C3B52065  10.326  25.458   7.050
 7331POPC   C4B52066  10.360  25.451   7.350
 7332POPC   NC352067  39.989   0.419   5.550
 7332POPC   PO452068  40.053   0.427   5.850
 7332POPC   GL152069  39.990   0.477   6.150
 7332POPC   GL252070  39.966   0.581   6.150
 7332POPC   C1A52071  40.017   0.487   6.450
 7332POPC   D2A52072  40.019   0.441   6.750
 7332POPC   C3A52073  39.983   0.402   7.050
 7332POPC   C4A52074  40.026   0.459   7.350
 7332POPC   C1B52075  39.964   0.718   6.450
 7332POPC   C2B52076  40.028   0.663   6.750
 7332POPC   C3B52077  40.016   0.645   7.050
 7332POPC   C4B52078  39.988   0.735   7.350
 7333POPC   NC352079   6.597  37.674   5.550
 7333POPC   PO452080   6.647  37.639   5.850
 7333POPC   GL152081   6.621  37.678   6.150
 7333POPC   GL252082   6.731  37.626   6.150
 7333POPC   C1A52083   6.626  37.646   6.450
 7333POPC   D2A52084   6.600  37.649   6.750
 7333POPC   C3A52085   6.646  37.694   7.050
 7333POPC   C4A52086   6.690  37.684   7.350
 7333POPC   C1B52087   6.867  37.506   6.450
 7333POPC   C2B52088   6.813  37.568   6.750
 7333POPC   C3B52089   6.905  37.542   7.050
 7333POPC   C4B52090   6.823  37.594   7.350
 7334POPC   NC352091  31.435  24.484   5.550
 7334POPC   PO452092  31.475  24.465   5.850
 7334POPC   GL152093  31.497  24.491   6.150
 7334POPC   GL252094  31.368  24.517   6.150
 7334POPC   C1A52095  31.445  24.480   6.450
 7334POPC   D2A52096  31.456  24.505   6.750
 7334POPC   C3A52097  31.467  24.490   7.050
 7334POPC   C4A52098  31.452  24.486   7.350
 7334POPC   C1B52099  31.224  24.659   6.450
 7334POPC   C2B52100  31.259  24.574   6.750
 7334POPC   C3B52101  31.218  24.614   7.050
 7334POPC   C4B52102  31.209  24.642   7.350
 7335POPC   NC352103  27.640   8.238   5.550
 7335POPC   PO452104  27.612   8.196   5.850
 7335POPC   GL152105  27.561   8.223   6.150
 7335POPC   GL252106  27.497   8.112   6.150
 7335POPC   C1A52107  27.597   8.193   6.450
 7335POPC   D2A52108  27.552   8.214   6.750
 7335POPC   C3A52109  27.629   8.155   7.050
 7335POPC   C4A52110  27.557   8.211   7.350
 7335POPC   C1B52111  27.426   7.969   6.450
 7335POPC   C2B52112  27.473   7.948   6.750
 7335POPC   C3B52113  27.433   7.985   7.050
 7335POPC   C4B52114  27.469   8.032   7.350
 7336POPC   NC352115  31.475   3.589   5.550
 7336POPC   PO452116  31.522   3.550   5.850
 7336POPC   GL152117  31.460   3.544   6.150
 7336POPC   GL252118  31.481   3.374   6.150
 7336POPC   C1A52119  31.497   3.504   6.450
 7336POPC   D2A52120  31.465   3.516   6.750
 7336POPC   C3A52121  31.445   3.534   7.050
 7336POPC   C4A52122  31.468   3.537   7.350
 7336POPC   C1B52123  31.414   3.276   6.450
 7336POPC   C2B52124  31.419   3.263   6.750
 7336POPC   C3B52125  31.383   3.275   7.050
 7336POPC   C4B52126  31.382   3.301   7.350
 7337POPC   NC352127  19.099  31.504   5.550
 7337POPC   PO452128  19.034  31.436   5.850
 7337POPC   GL152129  19.102  31.509   6.150
 7337POPC   GL252130  19.127  31.544   6.150
 7337POPC   C1A52131  19.048  31.506   6.450
 7337POPC   D2A52132  19.108  31.520   6.750
 7337POPC   C3A52133  19.055  31.516   7.050
 7337POPC   C4A52134  19.050  31.426   7.350
 7337POPC   C1B52135  19.273  31.669   6.450
 7337POPC   C2B52136  19.271  31.653   6.750
 7337POPC   C3B52137  19.253  31.654   7.050
 7337POPC   C4B52138  19.254  31.642   7.350
 7338POPC   NC352139  29.968   2.765   5.550
 7338POPC   PO452140  29.905   2.802   5.850
 7338POPC   GL152141  29.953   2.780   6.150
 7338POPC   GL252142  29.966   2.880   6.150
 7338POPC   C1A52143  29.950   2.731   6.450
 7338POPC   D2A52144  29.970   2.798   6.750
 7338POPC   C3A52145  29.875   2.800   7.050
 7338POPC   C4A52146  29.922   2.739   7.350
 7338POPC   C1B52147  29.893   2.965   6.450
 7338POPC   C2B52148  29.940   2.986   6.750
 7338POPC   C3B52149  29.915   2.981   7.050
 7338POPC   C4B52150  29.954   3.051   7.350
 7339POPC   NC352151  21.426  38.501   5.550
 7339POPC   PO452152  21.372  38.458   5.850
 7339POPC   GL152153  21.354  38.412   6.150
 7339POPC   GL252154  21.393  38.579   6.150
 7339POPC   C1A52155  21.379  38.438   6.450
 7339POPC   D2A52156  21.362  38.477   6.750
 7339POPC   C3A52157  21.380  38.465   7.050
 7339POPC   C4A52158  21.374  38.477   7.350
 7339POPC   C1B52159  21.523  38.704   6.450
 7339POPC   C2B52160  21.522  38.686   6.750
 7339POPC   C3B52161  21.530  38.731   7.050
 7339POPC   C4B52162  21.489  38.713   7.350
 7340POPC   NC352163  34.615  13.585   5.550
 7340POPC   PO452164  34.587  13.667   5.850
 7340POPC   GL152165  34.614  13.627   6.150
 7340POPC   GL252166  34.492  13.624   6.150
 7340POPC   C1A52167  34.606  13.657   6.450
 7340POPC   D2A52168  34.576  13.590   6.750
 7340POPC   C3A52169  34.575  13.611   7.050
 7340POPC   C4A52170  34.592  13.586   7.350
 7340POPC   C1B52171  34.281  13.596   6.450
 7340POPC   C2B52172  34.346  13.650   6.750
 7340POPC   C3B52173  34.285  13.637   7.050
 7340POPC   C4B52174  34.348  13.625   7.350
 7341POPC   NC352175   9.723  39.968   5.550
 7341POPC   PO452176   9.726  39.984   5.850
 7341POPC   GL152177   9.738  40.048   6.150
 7341POPC   GL252178   9.881  40.044   6.150
 7341POPC   C1A52179   9.755  40.000   6.450
 7341POPC   D2A52180   9.701  40.006   6.750
 7341POPC   C3A52181   9.752  39.996   7.050
 7341POPC   C4A52182   9.726  40.006   7.350
 7341POPC   C1B52183   9.973  40.156   6.450
 7341POPC   C2B52184   9.995  40.156   6.750
 7341POPC   C3B52185   9.914  40.136   7.050
 7341POPC   C4B52186   9.918  40.092   7.350
 7342POPC   NC352187  27.587  20.590   5.550
 7342POPC   PO452188  27.569  20.587   5.850
 7342POPC   GL152189  27.555  20.623   6.150
 7342POPC   GL252190  27.694  20.494   6.150
 7342POPC   C1A52191  27.615  20.600   6.450
 7342POPC   D2A52192  27.614  20.602   6.750
 7342POPC   C3A52193  27.575  20.660   7.050
 7342POPC   C4A52194  27.587  20.577   7.350
 7342POPC   C1B52195  27.716  20.383   6.450
 7342POPC   C2B52196  27.800  20.462   6.750
 7342POPC   C3B52197  27.746  20.435   7.050
 7342POPC   C4B52198  27.715  20.412   7.350
 7343POPC   NC352199  10.571   7.451   5.550
 7343POPC   PO452200  10.521   7.396   5.850
 7343POPC   GL152201  10.485   7.447   6.150
 7343POPC   GL252202  10.586   7.471   6.150
 7343POPC   C1A52203  10.529   7.469   6.450
 7343POPC   D2A52204  10.499   7.442   6.750
 7343POPC   C3A52205  10.553   7.432   7.050
 7343POPC   C4A52206  10.551   7.437   7.350
 7343POPC   C1B52207  10.734   7.574   6.450
 7343POPC   C2B52208  10.720   7.659   6.750
 7343POPC   C3B52209  10.651   7.633   7.050
 7343POPC   C4B52210  10.675   7.639   7.350
 7344POPC   NC352211  43.853  26.042   5.550
 7344POPC   PO452212  43.933  26.022   5.850
 7344POPC   GL152213  43.936  26.016   6.150
 7344POPC   GL252214  44.012  26.116   6.150
 7344POPC   C1A52215  43.855  26.013   6.450
 7344POPC   D2A52216  43.887  26.040   6.750
 7344POPC   C3A52217  43.891  26.087   7.050
 7344POPC   C4A52218  43.897  26.025   7.350
 7344POPC   C1B52219  44.063  26.254   6.450
 7344POPC   C2B52220  44.074  26.204   6.750
 7344POPC   C3B52221  44.079  26.182   7.050
 7344POPC   C4B52222  44.019  26.192   7.350
 7345POPC   NC352223  39.244   1.258   5.550
 7345POPC   PO452224  39.207   1.260   5.850
 7345POPC   GL152225  39.203   1.174   6.150
 7345POPC   GL252226  39.322   1.104   6.150
 7345POPC   C1A52227  39.257   1.253   6.450
 7345POPC   D2A52228  39.278   1.214   6.750
 7345POPC   C3A52229  39.217   1.238   7.050
 7345POPC   C4A52230  39.221   1.219   7.350
 7345POPC   C1B52231  39.438   1.063   6.450
 7345POPC   C2B52232  39.460   1.033   6.750
 7345POPC   C3B52233  39.456   1.029   7.050
 7345POPC   C4B52234  39.459   1.018   7.350
 7346POPC   NC352235  27.556  26.029   5.550
 7346POPC   PO452236  27.605  26.004   5.850
 7346POPC   GL152237  27.575  26.090   6.150
 7346POPC   GL252238  27.486  26.025   6.150
 7346POPC   C1A52239  27.598  26.090   6.450
 7346POPC   D2A52240  27.586  25.998   6.750
 7346POPC   C3A52241  27.639  26.069   7.050
 7346POPC   C4A52242  27.567  26.068   7.350
 7346POPC   C1B52243  27.383  25.979   6.450
 7346POPC   C2B52244  27.392  25.903   6.750
 7346POPC   C3B52245  27.378  25.982   7.050
 7346POPC   C4B52246  27.410  25.900   7.350
 7347POPC   NC352247  14.416  21.350   5.550
 7347POPC   PO452248  14.400  21.369   5.850
 7347POPC   GL152249  14.430  21.349   6.150
 7347POPC   GL252250  14.423  21.232   6.150
 7347POPC   C1A52251  14.427  21.427   6.450
 7347POPC   D2A52252  14.407  21.339   6.750
 7347POPC   C3A52253  14.418  21.346   7.050
 7347POPC   C4A52254  14.355  21.364   7.350
 7347POPC   C1B52255  14.396  21.097   6.450
 7347POPC   C2B52256  14.425  21.172   6.750
 7347POPC   C3B52257  14.356  21.176   7.050
 7347POPC   C4B52258  14.344  21.157   7.350
 7348POPC   NC352259   1.257  43.093   5.550
 7348POPC   PO452260   1.183  43.136   5.850
 7348POPC   GL152261   1.256  43.120   6.150
 7348POPC   GL252262   1.249  43.213   6.150
 7348POPC   C1A52263   1.189  43.090   6.450
 7348POPC   D2A52264   1.259  43.146   6.750
 7348POPC   C3A52265   1.171  43.083   7.050
 7348POPC   C4A52266   1.252  43.160   7.350
 7348POPC   C1B52267   1.251  43.340   6.450
 7348POPC   C2B52268   1.225  43.324   6.750
 7348POPC   C3B52269   1.193  43.377   7.050
 7348POPC   C4B52270   1.240  43.399   7.350
 7349POPC   NC352271   4.283  44.687   5.550
 7349POPC   PO452272   4.273  44.689   5.850
 7349POPC   GL152273   4.324  44.671   6.150
 7349POPC   GL252274   4.415  44.525   6.150
 7349POPC   C1A52275   4.312  44.631   6.450
 7349POPC   D2A52276   4.304  44.688   6.750
 7349POPC   C3A52277   4.327  44.615   7.050
 7349POPC   C4A52278   4.332  44.625   7.350
 7349POPC   C1B52279   4.440  44.497   6.450
 7349POPC   C2B52280   4.499  44.438   6.750
 7349POPC   C3B52281   4.451  44.454   7.050
 7349POPC   C4B52282   4.493  44.450   7.350
 7350POPC   NC352283  22.977   6.615   5.550
 7350POPC   PO452284  22.936   6.638   5.850
 7350POPC   GL152285  22.979   6.616   6.150
 7350POPC   GL252286  23.027   6.781   6.150
 7350POPC   C1A52287  22.924   6.607   6.450
 7350POPC   D2A52288  22.903   6.645   6.750
 7350POPC   C3A52289  22.890   6.625   7.050
 7350POPC   C4A52290  22.968   6.677   7.350
 7350POPC   C1B52291  23.022   6.845   6.450
 7350POPC   C2B52292  23.023   6.900   6.750
 7350POPC   C3B52293  23.021   6.918   7.050
 7350POPC   C4B52294  23.033   6.917   7.350
 7351POPC   NC352295  40.764  25.274   5.550
 7351POPC   PO452296  40.777  25.314   5.850
 7351POPC   GL152297  40.807  25.288   6.150
 7351POPC   GL252298  40.666  25.331   6.150
 7351POPC   C1A52299  40.797  25.249   6.450
 7351POPC   D2A52300  40.824  25.287   6.750
 7351POPC   C3A52301  40.823  25.262   7.050
 7351POPC   C4A52302  40.772  25.267   7.350
 7351POPC   C1B52303  40.494  25.345   6.450
 7351POPC   C2B52304  40.540  25.326   6.750
 7351POPC   C3B52305  40.561  25.277   7.050
 7351POPC   C4B52306  40.549  25.316   7.350
 7352POPC   NC352307  23.742   1.956   5.550
 7352POPC   PO452308  23.751   1.946   5.850
 7352POPC   GL152309  23.721   1.973   6.150
 7352POPC   GL252310  23.644   1.832   6.150
 7352POPC   C1A52311  23.687   1.989   6.450
 7352POPC   D2A52312  23.729   2.012   6.750
 7352POPC   C3A52313  23.680   2.017   7.050
 7352POPC   C4A52314  23.697   1.950   7.350
 7352POPC   C1B52315  23.684   1.752   6.450
 7352POPC   C2B52316  23.612   1.718   6.750
 7352POPC   C3B52317  23.617   1.759   7.050
 7352POPC   C4B52318  23.672   1.746   7.350
 7353POPC   NC352319  26.809  42.318   5.550
 7353POPC   PO452320  26.833  42.333   5.850
 7353POPC   GL152321  26.812  42.343   6.150
 7353POPC   GL252322  26.968  42.282   6.150
 7353POPC   C1A52323  26.856  42.361   6.450
 7353POPC   D2A52324  26.814  42.346   6.750
 7353POPC   C3A52325  26.809  42.308   7.050
 7353POPC   C4A52326  26.824  42.303   7.350
 7353POPC   C1B52327  27.007  42.271   6.450
 7353POPC   C2B52328  27.016  42.218   6.750
 7353POPC   C3B52329  27.096  42.252   7.050
 7353POPC   C4B52330  27.069  42.287   7.350
 7354POPC   NC352331  22.174  22.132   5.550
 7354POPC   PO452332  22.180  22.115   5.850
 7354POPC   GL152333  22.140  22.132   6.150
 7354POPC   GL252334  22.241  22.285   6.150
 7354POPC   C1A52335  22.126  22.123   6.450
 7354POPC   D2A52336  22.147  22.181   6.750
 7354POPC   C3A52337  22.179  22.187   7.050
 7354POPC   C4A52338  22.137  22.183   7.350
 7354POPC   C1B52339  22.351  22.347   6.450
 7354POPC   C2B52340  22.326  22.338   6.750
 7354POPC   C3B52341  22.302  22.325   7.050
 7354POPC   C4B52342  22.338  22.291   7.350
 7355POPC   NC352343  16.696  16.741   5.550
 7355POPC   PO452344  16.700  16.691   5.850
 7355POPC   GL152345  16.740  16.764   6.150
 7355POPC   GL252346  16.619  16.635   6.150
 7355POPC   C1A52347  16.765  16.758   6.450
 7355POPC   D2A52348  16.735  16.775   6.750
 7355POPC   C3A52349  16.698  16.688   7.050
 7355POPC   C4A52350  16.701  16.760   7.350
 7355POPC   C1B52351  16.590  16.505   6.450
 7355POPC   C2B52352  16.528  16.502   6.750
 7355POPC   C3B52353  16.551  16.573   7.050
 7355POPC   C4B52354  16.595  16.592   7.350
 7356POPC   NC352355  40.777  28.361   5.550
 7356POPC   PO452356  40.749  28.406   5.850
 7356POPC   GL152357  40.755  28.337   6.150
 7356POPC   GL252358  40.791  28.446   6.150
 7356POPC   C1A52359  40.825  28.415   6.450
 7356POPC   D2A52360  40.742  28.324   6.750
 7356POPC   C3A52361  40.772  28.380   7.050
 7356POPC   C4A52362  40.805  28.330   7.350
 7356POPC   C1B52363  40.785  28.654   6.450
 7356POPC   C2B52364  40.721  28.633   6.750
 7356POPC   C3B52365  40.720  28.661   7.050
 7356POPC   C4B52366  40.712  28.639   7.350
 7357POPC   NC352367   5.139   1.998   5.550
 7357POPC   PO452368   5.138   1.978   5.850
 7357POPC   GL152369   5.094   2.006   6.150
 7357POPC   GL252370   4.981   2.068   6.150
 7357POPC   C1A52371   5.142   1.984   6.450
 7357POPC   D2A52372   5.133   1.988   6.750
 7357POPC   C3A52373   5.065   2.023   7.050
 7357POPC   C4A52374   5.131   1.966   7.350
 7357POPC   C1B52375   4.939   2.209   6.450
 7357POPC   C2B52376   4.931   2.163   6.750
 7357POPC   C3B52377   5.001   2.170   7.050
 7357POPC   C4B52378   4.928   2.175   7.350
 7358POPC   NC352379  37.676  43.885   5.550
 7358POPC   PO452380  37.682  43.867   5.850
 7358POPC   GL152381  37.718  43.889   6.150
 7358POPC   GL252382  37.766  43.772   6.150
 7358POPC   C1A52383  37.672  43.859   6.450
 7358POPC   D2A52384  37.667  43.922   6.750
 7358POPC   C3A52385  37.677  43.857   7.050
 7358POPC   C4A52386  37.728  43.895   7.350
 7358POPC   C1B52387  37.738  43.609   6.450
 7358POPC   C2B52388  37.737  43.604   6.750
 7358POPC   C3B52389  37.732  43.666   7.050
 7358POPC   C4B52390  37.741  43.668   7.350
 7359POPC   NC352391  11.335  36.147   5.550
 7359POPC   PO452392  11.303  36.103   5.850
 7359POPC   GL152393  11.344  36.095   6.150
 7359POPC   GL252394  11.218  36.011   6.150
 7359POPC   C1A52395  11.306  36.158   6.450
 7359POPC   D2A52396  11.307  36.098   6.750
 7359POPC   C3A52397  11.303  36.162   7.050
 7359POPC   C4A52398  11.291  36.157   7.350
 7359POPC   C1B52399  11.261  35.874   6.450
 7359POPC   C2B52400  11.166  35.922   6.750
 7359POPC   C3B52401  11.241  35.884   7.050
 7359POPC   C4B52402  11.173  35.922   7.350
 7360POPC   NC352403  37.642  41.568   5.550
 7360POPC   PO452404  37.680  41.544   5.850
 7360POPC   GL152405  37.699  41.522   6.150
 7360POPC   GL252406  37.775  41.439   6.150
 7360POPC   C1A52407  37.704  41.586   6.450
 7360POPC   D2A52408  37.721  41.547   6.750
 7360POPC   C3A52409  37.693  41.541   7.050
 7360POPC   C4A52410  37.652  41.574   7.350
 7360POPC   C1B52411  37.817  41.360   6.450
 7360POPC   C2B52412  37.812  41.398   6.750
 7360POPC   C3B52413  37.809  41.345   7.050
 7360POPC   C4B52414  37.776  41.391   7.350
 7361POPC   NC352415  30.709  38.466   5.550
 7361POPC   PO452416  30.743  38.504   5.850
 7361POPC   GL152417  30.706  38.475   6.150
 7361POPC   GL252418  30.741  38.349   6.150
 7361POPC   C1A52419  30.689  38.454   6.450
 7361POPC   D2A52420  30.649  38.435   6.750
 7361POPC   C3A52421  30.704  38.472   7.050
 7361POPC   C4A52422  30.697  38.429   7.350
 7361POPC   C1B52423  30.778  38.222   6.450
 7361POPC   C2B52424  30.852  38.217   6.750
 7361POPC   C3B52425  30.833  38.235   7.050
 7361POPC   C4B52426  30.804  38.274   7.350
 7362POPC   NC352427  36.154  35.342   5.550
 7362POPC   PO452428  36.176  35.354   5.850
 7362POPC   GL152429  36.114  35.354   6.150
 7362POPC   GL252430  36.151  35.281   6.150
 7362POPC   C1A52431  36.134  35.336   6.450
 7362POPC   D2A52432  36.088  35.389   6.750
 7362POPC   C3A52433  36.121  35.363   7.050
 7362POPC   C4A52434  36.131  35.359   7.350
 7362POPC   C1B52435  36.248  35.179   6.450
 7362POPC   C2B52436  36.244  35.125   6.750
 7362POPC   C3B52437  36.292  35.175   7.050
 7362POPC   C4B52438  36.254  35.162   7.350
 7363POPC   NC352439   0.481   7.459   5.550
 7363POPC   PO452440   0.402   7.407   5.850
 7363POPC   GL152441   0.438   7.446   6.150
 7363POPC   GL252442   0.366   7.450   6.150
 7363POPC   C1A52443   0.462   7.414   6.450
 7363POPC   D2A52444   0.477   7.424   6.750
 7363POPC   C3A52445   0.448   7.415   7.050
 7363POPC   C4A52446   0.462   7.413   7.350
 7363POPC   C1B52447   0.166   7.542   6.450
 7363POPC   C2B52448   0.248   7.491   6.750
 7363POPC   C3B52449   0.166   7.475   7.050
 7363POPC   C4B52450   0.214   7.490   7.350
 7364POPC   NC352451  39.193  21.352   5.550
 7364POPC   PO452452  39.280  21.422   5.850
 7364POPC   GL152453  39.258  21.400   6.150
 7364POPC   GL252454  39.229  21.533   6.150
 7364POPC   C1A52455  39.249  21.382   6.450
 7364POPC   D2A52456  39.203  21.394   6.750
 7364POPC   C3A52457  39.196  21.421   7.050
 7364POPC   C4A52458  39.201  21.348   7.350
 7364POPC   C1B52459  39.239  21.592   6.450
 7364POPC   C2B52460  39.258  21.625   6.750
 7364POPC   C3B52461  39.176  21.598   7.050
 7364POPC   C4B52462  39.237  21.608   7.350
 7365POPC   NC352463  44.625  15.136   5.550
 7365POPC   PO452464  44.653  15.169   5.850
 7365POPC   GL152465  44.683  15.131   6.150
 7365POPC   GL252466  44.765  15.248   6.150
 7365POPC   C1A52467  44.657  15.217   6.450
 7365POPC   D2A52468  44.630  15.147   6.750
 7365POPC   C3A52469  44.654  15.166   7.050
 7365POPC   C4A52470  44.686  15.130   7.350
 7365POPC   C1B52471  44.937  15.276   6.450
 7365POPC   C2B52472  44.859  15.282   6.750
 7365POPC   C3B52473  44.870  15.299   7.050
 7365POPC   C4B52474  44.943  15.257   7.350
 7366POPC   NC352475   7.459   7.398   5.550
 7366POPC   PO452476   7.464   7.454   5.850
 7366POPC   GL152477   7.406   7.447   6.150
 7366POPC   GL252478   7.546   7.516   6.150
 7366POPC   C1A52479   7.447   7.424   6.450
 7366POPC   D2A52480   7.440   7.426   6.750
 7366POPC   C3A52481   7.379   7.459   7.050
 7366POPC   C4A52482   7.466   7.426   7.350
 7366POPC   C1B52483   7.677   7.590   6.450
 7366POPC   C2B52484   7.680   7.568   6.750
 7366POPC   C3B52485   7.653   7.512   7.050
 7366POPC   C4B52486   7.588   7.586   7.350
 7367POPC   NC352487  30.719  36.863   5.550
 7367POPC   PO452488  30.702  36.903   5.850
 7367POPC   GL152489  30.655  36.907   6.150
 7367POPC   GL252490  30.601  36.986   6.150
 7367POPC   C1A52491  30.697  36.926   6.450
 7367POPC   D2A52492  30.734  36.952   6.750
 7367POPC   C3A52493  30.670  36.878   7.050
 7367POPC   C4A52494  30.664  36.929   7.350
 7367POPC   C1B52495  30.609  37.157   6.450
 7367POPC   C2B52496  30.646  37.114   6.750
 7367POPC   C3B52497  30.631  37.131   7.050
 7367POPC   C4B52498  30.577  37.138   7.350
 7368POPC   NC352499  14.412  13.594   5.550
 7368POPC   PO452500  14.437  13.614   5.850
 7368POPC   GL152501  14.408  13.666   6.150
 7368POPC   GL252502  14.277  13.537   6.150
 7368POPC   C1A52503  14.446  13.649   6.450
 7368POPC   D2A52504  14.381  13.625   6.750
 7368POPC   C3A52505  14.369  13.578   7.050
 7368POPC   C4A52506  14.379  13.661   7.350
 7368POPC   C1B52507  14.203  13.471   6.450
 7368POPC   C2B52508  14.222  13.449   6.750
 7368POPC   C3B52509  14.251  13.498   7.050
 7368POPC   C4B52510  14.206  13.458   7.350
 7369POPC   NC352511  19.054  15.977   5.550
 7369POPC   PO452512  19.091  16.000   5.850
 7369POPC   GL152513  19.029  15.968   6.150
 7369POPC   GL252514  18.991  15.901   6.150
 7369POPC   C1A52515  19.082  16.004   6.450
 7369POPC   D2A52516  19.106  15.924   6.750
 7369POPC   C3A52517  19.064  15.985   7.050
 7369POPC   C4A52518  19.069  15.984   7.350
 7369POPC   C1B52519  18.870  15.757   6.450
 7369POPC   C2B52520  18.879  15.780   6.750
 7369POPC   C3B52521  18.891  15.789   7.050
 7369POPC   C4B52522  18.929  15.789   7.350
 7370POPC   NC352523   1.188  31.443   5.550
 7370POPC   PO452524   1.260  31.496   5.850
 7370POPC   GL152525   1.216  31.478   6.150
 7370POPC   GL252526   1.093  31.513   6.150
 7370POPC   C1A52527   1.249  31.482   6.450
 7370POPC   D2A52528   1.217  31.433   6.750
 7370POPC   C3A52529   1.251  31.483   7.050
 7370POPC   C4A52530   1.243  31.509   7.350
 7370POPC   C1B52531   0.995  31.622   6.450
 7370POPC   C2B52532   0.957  31.614   6.750
 7370POPC   C3B52533   0.975  31.615   7.050
 7370POPC   C4B52534   0.944  31.626   7.350
 7371POPC   NC352535  13.598  23.672   5.550
 7371POPC   PO452536  13.606  23.681   5.850
 7371POPC   GL152537  13.671  23.753   6.150
 7371POPC   GL252538  13.656  23.845   6.150
 7371POPC   C1A52539  13.585  23.762   6.450
 7371POPC   D2A52540  13.588  23.724   6.750
 7371POPC   C3A52541  13.650  23.714   7.050
 7371POPC   C4A52542  13.660  23.676   7.350
 7371POPC   C1B52543  13.671  23.983   6.450
 7371POPC   C2B52544  13.700  24.001   6.750
 7371POPC   C3B52545  13.651  23.972   7.050
 7371POPC   C4B52546  13.708  23.967   7.350
 7372POPC   NC352547  31.458  30.741   5.550
 7372POPC   PO452548  31.462  30.728   5.850
 7372POPC   GL152549  31.433  30.685   6.150
 7372POPC   GL252550  31.565  30.658   6.150
 7372POPC   C1A52551  31.499  30.718   6.450
 7372POPC   D2A52552  31.448  30.689   6.750
 7372POPC   C3A52553  31.426  30.711   7.050
 7372POPC   C4A52554  31.423  30.740   7.350
 7372POPC   C1B52555  31.738  30.659   6.450
 7372POPC   C2B52556  31.755  30.651   6.750
 7372POPC   C3B52557  31.683  30.613   7.050
 7372POPC   C4B52558  31.721  30.638   7.350
 7373POPC   NC352559  44.637  33.772   5.550
 7373POPC   PO452560  44.669  33.823   5.850
 7373POPC   GL152561  44.659  33.839   6.150
 7373POPC   GL252562  44.565  33.744   6.150
 7373POPC   C1A52563  44.660  33.794   6.450
 7373POPC   D2A52564  44.682  33.840   6.750
 7373POPC   C3A52565  44.625  33.768   7.050
 7373POPC   C4A52566  44.672  33.789   7.350
 7373POPC   C1B52567  44.436  33.627   6.450
 7373POPC   C2B52568  44.427  33.663   6.750
 7373POPC   C3B52569  44.420  33.619   7.050
 7373POPC   C4B52570  44.436  33.611   7.350
 7374POPC   NC352571  43.927  33.018   5.550
 7374POPC   PO452572  43.845  33.027   5.850
 7374POPC   GL152573  43.919  33.035   6.150
 7374POPC   GL252574  43.940  33.150   6.150
 7374POPC   C1A52575  43.904  33.040   6.450
 7374POPC   D2A52576  43.927  32.999   6.750
 7374POPC   C3A52577  43.910  33.070   7.050
 7374POPC   C4A52578  43.855  33.073   7.350
 7374POPC   C1B52579  44.119  33.158   6.450
 7374POPC   C2B52580  44.077  33.127   6.750
 7374POPC   C3B52581  44.122  33.133   7.050
 7374POPC   C4B52582  44.040  33.187   7.350
 7375POPC   NC352583  25.267  43.904   5.550
 7375POPC   PO452584  25.277  43.864   5.850
 7375POPC   GL152585  25.248  43.885   6.150
 7375POPC   GL252586  25.404  43.825   6.150
 7375POPC   C1A52587  25.253  43.860   6.450
 7375POPC   D2A52588  25.239  43.916   6.750
 7375POPC   C3A52589  25.259  43.930   7.050
 7375POPC   C4A52590  25.259  43.898   7.350
 7375POPC   C1B52591  25.465  43.768   6.450
 7375POPC   C2B52592  25.455  43.775   6.750
 7375POPC   C3B52593  25.542  43.827   7.050
 7375POPC   C4B52594  25.523  43.822   7.350
 7376POPC   NC352595  17.521  18.319   5.550
 7376POPC   PO452596  17.489  18.256   5.850
 7376POPC   GL152597  17.556  18.301   6.150
 7376POPC   GL252598  17.643  18.214   6.150
 7376POPC   C1A52599  17.473  18.306   6.450
 7376POPC   D2A52600  17.531  18.328   6.750
 7376POPC   C3A52601  17.516  18.304   7.050
 7376POPC   C4A52602  17.508  18.281   7.350
 7376POPC   C1B52603  17.755  18.189   6.450
 7376POPC   C2B52604  17.735  18.170   6.750
 7376POPC   C3B52605  17.689  18.174   7.050
 7376POPC   C4B52606  17.687  18.219   7.350
 7377POPC   NC352607  31.446  35.318   5.550
 7377POPC   PO452608  31.448  35.304   5.850
 7377POPC   GL152609  31.430  35.322   6.150
 7377POPC   GL252610  31.531  35.332   6.150
 7377POPC   C1A52611  31.448  35.319   6.450
 7377POPC   D2A52612  31.495  35.329   6.750
 7377POPC   C3A52613  31.481  35.312   7.050
 7377POPC   C4A52614  31.483  35.316   7.350
 7377POPC   C1B52615  31.710  35.201   6.450
 7377POPC   C2B52616  31.690  35.249   6.750
 7377POPC   C3B52617  31.728  35.248   7.050
 7377POPC   C4B52618  31.719  35.172   7.350
 7378POPC   NC352619  36.155  33.017   5.550
 7378POPC   PO452620  36.102  32.990   5.850
 7378POPC   GL152621  36.110  33.042   6.150
 7378POPC   GL252622  36.216  32.926   6.150
 7378POPC   C1A52623  36.110  32.993   6.450
 7378POPC   D2A52624  36.097  33.011   6.750
 7378POPC   C3A52625  36.157  32.994   7.050
 7378POPC   C4A52626  36.095  33.064   7.350
 7378POPC   C1B52627  36.254  32.783   6.450
 7378POPC   C2B52628  36.288  32.849   6.750
 7378POPC   C3B52629  36.301  32.802   7.050
 7378POPC   C4B52630  36.276  32.801   7.350
 7379POPC   NC352631  43.874  30.696   5.550
 7379POPC   PO452632  43.875  30.648   5.850
 7379POPC   GL152633  43.912  30.732   6.150
 7379POPC   GL252634  43.901  30.561   6.150
 7379POPC   C1A52635  43.857  30.650   6.450
 7379POPC   D2A52636  43.912  30.658   6.750
 7379POPC   C3A52637  43.925  30.675   7.050
 7379POPC   C4A52638  43.914  30.738   7.350
 7379POPC   C1B52639  43.945  30.488   6.450
 7379POPC   C2B52640  44.017  30.470   6.750
 7379POPC   C3B52641  43.953  30.424   7.050
 7379POPC   C4B52642  44.035  30.440   7.350
 7380POPC   NC352643  41.582  27.594   5.550
 7380POPC   PO452644  41.553  27.558   5.850
 7380POPC   GL152645  41.551  27.616   6.150
 7380POPC   GL252646  41.675  27.661   6.150
 7380POPC   C1A52647  41.580  27.627   6.450
 7380POPC   D2A52648  41.571  27.545   6.750
 7380POPC   C3A52649  41.570  27.596   7.050
 7380POPC   C4A52650  41.569  27.572   7.350
 7380POPC   C1B52651  41.792  27.674   6.450
 7380POPC   C2B52652  41.808  27.709   6.750
 7380POPC   C3B52653  41.740  27.713   7.050
 7380POPC   C4B52654  41.796  27.658   7.350
 7381POPC   NC352655  31.522  29.883   5.550
 7381POPC   PO452656  31.464  29.903   5.850
 7381POPC   GL152657  31.427  29.899   6.150
 7381POPC   GL252658  31.598  29.917   6.150
 7381POPC   C1A52659  31.433  29.942   6.450
 7381POPC   D2A52660  31.453  29.956   6.750
 7381POPC   C3A52661  31.481  29.958   7.050
 7381POPC   C4A52662  31.518  29.905   7.350
 7381POPC   C1B52663  31.726  29.950   6.450
 7381POPC   C2B52664  31.677  29.910   6.750
 7381POPC   C3B52665  31.768  29.937   7.050
 7381POPC   C4B52666  31.700  29.995   7.350
 7382POPC   NC352667  42.341  38.415   5.550
 7382POPC   PO452668  42.288  38.436   5.850
 7382POPC   GL152669  42.353  38.419   6.150
 7382POPC   GL252670  42.442  38.569   6.150
 7382POPC   C1A52671  42.285  38.466   6.450
 7382POPC   D2A52672  42.320  38.505   6.750
 7382POPC   C3A52673  42.370  38.467   7.050
 7382POPC   C4A52674  42.309  38.442   7.350
 7382POPC   C1B52675  42.518  38.622   6.450
 7382POPC   C2B52676  42.434  38.634   6.750
 7382POPC   C3B52677  42.478  38.625   7.050
 7382POPC   C4B52678  42.461  38.654   7.350
 7383POPC   NC352679  12.093  15.165   5.550
 7383POPC   PO452680  12.104  15.218   5.850
 7383POPC   GL152681  12.108  15.139   6.150
 7383POPC   GL252682  12.107  15.019   6.150
 7383POPC   C1A52683  12.111  15.221   6.450
 7383POPC   D2A52684  12.034  15.142   6.750
 7383POPC   C3A52685  12.059  15.202   7.050
 7383POPC   C4A52686  12.060  15.215   7.350
 7383POPC   C1B52687  12.050  14.944   6.450
 7383POPC   C2B52688  12.120  14.977   6.750
 7383POPC   C3B52689  12.101  14.978   7.050
 7383POPC   C4B52690  12.085  14.956   7.350
 7384POPC   NC352691  11.273  40.748   5.550
 7384POPC   PO452692  11.280  40.787   5.850
 7384POPC   GL152693  11.287  40.817   6.150
 7384POPC   GL252694  11.164  40.854   6.150
 7384POPC   C1A52695  11.328  40.817   6.450
 7384POPC   D2A52696  11.323  40.830   6.750
 7384POPC   C3A52697  11.288  40.780   7.050
 7384POPC   C4A52698  11.288  40.768   7.350
 7384POPC   C1B52699  11.075  40.846   6.450
 7384POPC   C2B52700  11.021  40.823   6.750
 7384POPC   C3B52701  11.013  40.822   7.050
 7384POPC   C4B52702  11.087  40.792   7.350
 7385POPC   NC352703  42.314  12.121   5.550
 7385POPC   PO452704  42.354  12.109   5.850
 7385POPC   GL152705  42.297  12.119   6.150
 7385POPC   GL252706  42.268  11.987   6.150
 7385POPC   C1A52707  42.354  12.033   6.450
 7385POPC   D2A52708  42.348  12.102   6.750
 7385POPC   C3A52709  42.349  12.056   7.050
 7385POPC   C4A52710  42.350  12.036   7.350
 7385POPC   C1B52711  42.109  11.951   6.450
 7385POPC   C2B52712  42.147  12.024   6.750
 7385POPC   C3B52713  42.105  11.938   7.050
 7385POPC   C4B52714  42.082  11.977   7.350
 7386POPC   NC352715  10.493  14.440   5.550
 7386POPC   PO452716  10.543  14.360   5.850
 7386POPC   GL152717  10.476  14.435   6.150
 7386POPC   GL252718  10.541  14.299   6.150
 7386POPC   C1A52719  10.476  14.411   6.450
 7386POPC   D2A52720  10.487  14.389   6.750
 7386POPC   C3A52721  10.545  14.416   7.050
 7386POPC   C4A52722  10.532  14.445   7.350
 7386POPC   C1B52723  10.508  14.123   6.450
 7386POPC   C2B52724  10.475  14.164   6.750
 7386POPC   C3B52725  10.485  14.154   7.050
 7386POPC   C4B52726  10.463  14.189   7.350
 7387POPC   NC352727  14.423   5.095   5.550
 7387POPC   PO452728  14.409   5.077   5.850
 7387POPC   GL152729  14.355   5.121   6.150
 7387POPC   GL252730  14.381   5.198   6.150
 7387POPC   C1A52731  14.416   5.043   6.450
 7387POPC   D2A52732  14.370   5.060   6.750
 7387POPC   C3A52733  14.384   5.089   7.050
 7387POPC   C4A52734  14.368   5.109   7.350
 7387POPC   C1B52735  14.420   5.324   6.450
 7387POPC   C2B52736  14.456   5.321   6.750
 7387POPC   C3B52737  14.424   5.358   7.050
 7387POPC   C4B52738  14.460   5.308   7.350
 7388POPC   NC352739  34.579  20.574   5.550
 7388POPC   PO452740  34.590  20.591   5.850
 7388POPC   GL152741  34.594  20.622   6.150
 7388POPC   GL252742  34.502  20.670   6.150
 7388POPC   C1A52743  34.569  20.568   6.450
 7388POPC   D2A52744  34.562  20.563   6.750
 7388POPC   C3A52745  34.607  20.609   7.050
 7388POPC   C4A52746  34.607  20.564   7.350
 7388POPC   C1B52747  34.393  20.775   6.450
 7388POPC   C2B52748  34.383  20.794   6.750
 7388POPC   C3B52749  34.401  20.776   7.050
 7388POPC   C4B52750  34.423  20.820   7.350
 7389POPC   NC352751  33.023  40.012   5.550
 7389POPC   PO452752  32.995  40.004   5.850
 7389POPC   GL152753  32.981  40.012   6.150
 7389POPC   GL252754  33.001  40.174   6.150
 7389POPC   C1A52755  33.001  40.016   6.450
 7389POPC   D2A52756  33.037  39.988   6.750
 7389POPC   C3A52757  33.016  40.031   7.050
 7389POPC   C4A52758  33.027  39.989   7.350
 7389POPC   C1B52759  32.985  40.273   6.450
 7389POPC   C2B52760  33.053  40.280   6.750
 7389POPC   C3B52761  33.050  40.293   7.050
 7389POPC   C4B52762  33.016  40.300   7.350
 7390POPC   NC352763   1.966  12.884   5.550
 7390POPC   PO452764   1.941  12.831   5.850
 7390POPC   GL152765   1.981  12.864   6.150
 7390POPC   GL252766   1.862  12.825   6.150
 7390POPC   C1A52767   2.000  12.895   6.450
 7390POPC   D2A52768   1.995  12.805   6.750
 7390POPC   C3A52769   1.997  12.806   7.050
 7390POPC   C4A52770   1.989  12.871   7.350
 7390POPC   C1B52771   1.797  12.733   6.450
 7390POPC   C2B52772   1.814  12.714   6.750
 7390POPC   C3B52773   1.779  12.769   7.050
 7390POPC   C4B52774   1.788  12.726   7.350
 7391POPC   NC352775  26.812  14.427   5.550
 7391POPC   PO452776  26.814  14.407   5.850
 7391POPC   GL152777  26.791  14.373   6.150
 7391POPC   GL252778  26.749  14.444   6.150
 7391POPC   C1A52779  26.768  14.426   6.450
 7391POPC   D2A52780  26.802  14.424   6.750
 7391POPC   C3A52781  26.785  14.367   7.050
 7391POPC   C4A52782  26.791  14.445   7.350
 7391POPC   C1B52783  26.613  14.488   6.450
 7391POPC   C2B52784  26.636  14.483   6.750
 7391POPC   C3B52785  26.547  14.549   7.050
 7391POPC   C4B52786  26.621  14.532   7.350
 7392POPC   NC352787  44.634   1.974   5.550
 7392POPC   PO452788  44.651   2.027   5.850
 7392POPC   GL152789  44.661   1.964   6.150
 7392POPC   GL252790  44.582   2.084   6.150
 7392POPC   C1A52791  44.650   2.025   6.450
 7392POPC   D2A52792  44.659   1.994   6.750
 7392POPC   C3A52793  44.668   1.957   7.050
 7392POPC   C4A52794  44.669   1.971   7.350
 7392POPC   C1B52795  44.469   2.125   6.450
 7392POPC   C2B52796  44.452   2.072   6.750
 7392POPC   C3B52797  44.397   2.078   7.050
 7392POPC   C4B52798  44.426   2.065   7.350
 7393POPC   NC352799  26.812  36.941   5.550
 7393POPC   PO452800  26.813  36.869   5.850
 7393POPC   GL152801  26.782  36.900   6.150
 7393POPC   GL252802  26.910  37.056   6.150
 7393POPC   C1A52803  26.806  36.923   6.450
 7393POPC   D2A52804  26.820  36.896   6.750
 7393POPC   C3A52805  26.781  36.859   7.050
 7393POPC   C4A52806  26.793  36.869   7.350
 7393POPC   C1B52807  26.983  37.147   6.450
 7393POPC   C2B52808  26.928  37.148   6.750
 7393POPC   C3B52809  26.998  37.127   7.050
 7393POPC   C4B52810  26.952  37.098   7.350
 7394POPC   NC352811  42.319  40.743   5.550
 7394POPC   PO452812  42.320  40.740   5.850
 7394POPC   GL152813  42.314  40.772   6.150
 7394POPC   GL252814  42.422  40.837   6.150
 7394POPC   C1A52815  42.320  40.830   6.450
 7394POPC   D2A52816  42.377  40.827   6.750
 7394POPC   C3A52817  42.380  40.789   7.050
 7394POPC   C4A52818  42.302  40.772   7.350
 7394POPC   C1B52819  42.593  40.837   6.450
 7394POPC   C2B52820  42.537  40.853   6.750
 7394POPC   C3B52821  42.556  40.869   7.050
 7394POPC   C4B52822  42.627  40.788   7.350
 7395POPC   NC352823  28.352   1.219   5.550
 7395POPC   PO452824  28.338   1.175   5.850
 7395POPC   GL152825  28.411   1.213   6.150
 7395POPC   GL252826  28.338   1.044   6.150
 7395POPC   C1A52827  28.391   1.183   6.450
 7395POPC   D2A52828  28.415   1.186   6.750
 7395POPC   C3A52829  28.395   1.204   7.050
 7395POPC   C4A52830  28.371   1.218   7.350
 7395POPC   C1B52831  28.396   0.991   6.450
 7395POPC   C2B52832  28.328   0.971   6.750
 7395POPC   C3B52833  28.424   0.941   7.050
 7395POPC   C4B52834  28.408   0.998   7.350
 7396POPC   NC352835  12.858  16.771   5.550
 7396POPC   PO452836  12.820  16.765   5.850
 7396POPC   GL152837  12.849  16.707   6.150
 7396POPC   GL252838  12.936  16.652   6.150
 7396POPC   C1A52839  12.836  16.777   6.450
 7396POPC   D2A52840  12.900  16.690   6.750
 7396POPC   C3A52841  12.809  16.737   7.050
 7396POPC   C4A52842  12.871  16.715   7.350
 7396POPC   C1B52843  12.928  16.505   6.450
 7396POPC   C2B52844  12.872  16.541   6.750
 7396POPC   C3B52845  12.888  16.462   7.050
 7396POPC   C4B52846  12.904  16.455   7.350
 7397POPC   NC352847  40.776   1.165   5.550
 7397POPC   PO452848  40.758   1.188   5.850
 7397POPC   GL152849  40.799   1.181   6.150
 7397POPC   GL252850  40.772   1.283   6.150
 7397POPC   C1A52851  40.793   1.177   6.450
 7397POPC   D2A52852  40.829   1.245   6.750
 7397POPC   C3A52853  40.767   1.199   7.050
 7397POPC   C4A52854  40.803   1.219   7.350
 7397POPC   C1B52855  40.736   1.449   6.450
 7397POPC   C2B52856  40.660   1.487   6.750
 7397POPC   C3B52857  40.721   1.495   7.050
 7397POPC   C4B52858  40.742   1.486   7.350
 7398POPC   NC352859  17.512   9.764   5.550
 7398POPC   PO452860  17.550   9.703   5.850
 7398POPC   GL152861  17.535   9.739   6.150
 7398POPC   GL252862  17.476   9.653   6.150
 7398POPC   C1A52863  17.458   9.761   6.450
 7398POPC   D2A52864  17.528   9.791   6.750
 7398POPC   C3A52865  17.465   9.789   7.050
 7398POPC   C4A52866  17.516   9.779   7.350
 7398POPC   C1B52867  17.505   9.455   6.450
 7398POPC   C2B52868  17.548   9.460   6.750
 7398POPC   C3B52869  17.529   9.538   7.050
 7398POPC   C4B52870  17.556   9.530   7.350
 7399POPC   NC352871  43.152   5.889   5.550
 7399POPC   PO452872  43.076   5.901   5.850
 7399POPC   GL152873  43.133   5.840   6.150
 7399POPC   GL252874  43.196   5.932   6.150
 7399POPC   C1A52875  43.141   5.890   6.450
 7399POPC   D2A52876  43.147   5.882   6.750
 7399POPC   C3A52877  43.158   5.865   7.050
 7399POPC   C4A52878  43.101   5.891   7.350
 7399POPC   C1B52879  43.169   6.058   6.450
 7399POPC   C2B52880  43.254   6.136   6.750
 7399POPC   C3B52881  43.243   6.139   7.050
 7399POPC   C4B52882  43.206   6.134   7.350
 7400POPC   NC352883  10.489  20.615   5.550
 7400POPC   PO452884  10.548  20.621   5.850
 7400POPC   GL152885  10.566  20.578   6.150
 7400POPC   GL252886  10.500  20.437   6.150
 7400POPC   C1A52887  10.563  20.652   6.450
 7400POPC   D2A52888  10.561  20.639   6.750
 7400POPC   C3A52889  10.483  20.562   7.050
 7400POPC   C4A52890  10.573  20.645   7.350
 7400POPC   C1B52891  10.503  20.351   6.450
 7400POPC   C2B52892  10.578  20.392   6.750
 7400POPC   C3B52893  10.502  20.354   7.050
 7400POPC   C4B52894  10.593  20.332   7.350
 7401POPC   NC352895  10.493   6.630   5.550
 7401POPC   PO452896  10.556   6.637   5.850
 7401POPC   GL152897  10.510   6.654   6.150
 7401POPC   GL252898  10.530   6.752   6.150
 7401POPC   C1A52899  10.568   6.598   6.450
 7401POPC   D2A52900  10.527   6.646   6.750
 7401POPC   C3A52901  10.566   6.618   7.050
 7401POPC   C4A52902  10.562   6.659   7.350
 7401POPC   C1B52903  10.576   6.857   6.450
 7401POPC   C2B52904  10.544   6.890   6.750
 7401POPC   C3B52905  10.521   6.873   7.050
 7401POPC   C4B52906  10.566   6.880   7.350
 7402POPC   NC352907   4.272   2.018   5.550
 7402POPC   PO452908   4.320   1.989   5.850
 7402POPC   GL152909   4.344   1.977   6.150
 7402POPC   GL252910   4.404   2.031   6.150
 7402POPC   C1A52911   4.353   2.006   6.450
 7402POPC   D2A52912   4.340   1.944   6.750
 7402POPC   C3A52913   4.367   1.999   7.050
 7402POPC   C4A52914   4.303   1.980   7.350
 7402POPC   C1B52915   4.507   2.164   6.450
 7402POPC   C2B52916   4.516   2.157   6.750
 7402POPC   C3B52917   4.464   2.170   7.050
 7402POPC   C4B52918   4.453   2.173   7.350
 7403POPC   NC352919  33.820  29.932   5.550
 7403POPC   PO452920  33.817  29.893   5.850
 7403POPC   GL152921  33.842  29.914   6.150
 7403POPC   GL252922  33.932  30.023   6.150
 7403POPC   C1A52923  33.825  29.881   6.450
 7403POPC   D2A52924  33.833  29.939   6.750
 7403POPC   C3A52925  33.809  29.967   7.050
 7403POPC   C4A52926  33.841  29.902   7.350
 7403POPC   C1B52927  33.972  30.112   6.450
 7403POPC   C2B52928  33.981  30.065   6.750
 7403POPC   C3B52929  34.021  30.095   7.050
 7403POPC   C4B52930  33.941  30.098   7.350
 7404POPC   NC352931  35.351   7.418   5.550
 7404POPC   PO452932  35.358   7.397   5.850
 7404POPC   GL152933  35.315   7.458   6.150
 7404POPC   GL252934  35.465   7.569   6.150
 7404POPC   C1A52935  35.342   7.462   6.450
 7404POPC   D2A52936  35.347   7.431   6.750
 7404POPC   C3A52937  35.366   7.381   7.050
 7404POPC   C4A52938  35.376   7.470   7.350
 7404POPC   C1B52939  35.540   7.615   6.450
 7404POPC   C2B52940  35.508   7.619   6.750
 7404POPC   C3B52941  35.462   7.653   7.050
 7404POPC   C4B52942  35.476   7.632   7.350
 7405POPC   NC352943  20.585  22.964   5.550
 7405POPC   PO452944  20.588  22.971   5.850
 7405POPC   GL152945  20.605  22.953   6.150
 7405POPC   GL252946  20.726  22.922   6.150
 7405POPC   C1A52947  20.625  22.968   6.450
 7405POPC   D2A52948  20.629  22.933   6.750
 7405POPC   C3A52949  20.569  22.957   7.050
 7405POPC   C4A52950  20.627  22.908   7.350
 7405POPC   C1B52951  20.868  22.815   6.450
 7405POPC   C2B52952  20.862  22.772   6.750
 7405POPC   C3B52953  20.870  22.829   7.050
 7405POPC   C4B52954  20.856  22.849   7.350
 7406POPC   NC352955  36.151  13.606   5.550
 7406POPC   PO452956  36.099  13.658   5.850
 7406POPC   GL152957  36.167  13.670   6.150
 7406POPC   GL252958  35.975  13.524   6.150
 7406POPC   C1A52959  36.155  13.671   6.450
 7406POPC   D2A52960  36.124  13.637   6.750
 7406POPC   C3A52961  36.092  13.628   7.050
 7406POPC   C4A52962  36.129  13.579   7.350
 7406POPC   C1B52963  35.953  13.532   6.450
 7406POPC   C2B52964  35.889  13.498   6.750
 7406POPC   C3B52965  35.868  13.479   7.050
 7406POPC   C4B52966  35.886  13.467   7.350
 7407POPC   NC352967   2.733  25.250   5.550
 7407POPC   PO452968   2.809  25.307   5.850
 7407POPC   GL152969   2.761  25.246   6.150
 7407POPC   GL252970   2.874  25.288   6.150
 7407POPC   C1A52971   2.796  25.254   6.450
 7407POPC   D2A52972   2.741  25.264   6.750
 7407POPC   C3A52973   2.718  25.249   7.050
 7407POPC   C4A52974   2.804  25.235   7.350
 7407POPC   C1B52975   3.039  25.223   6.450
 7407POPC   C2B52976   3.024  25.272   6.750
 7407POPC   C3B52977   3.030  25.264   7.050
 7407POPC   C4B52978   3.065  25.245   7.350
 7408POPC   NC352979  24.494  38.458   5.550
 7408POPC   PO452980  24.532  38.436   5.850
 7408POPC   GL152981  24.506  38.406   6.150
 7408POPC   GL252982  24.619  38.438   6.150
 7408POPC   C1A52983  24.475  38.458   6.450
 7408POPC   D2A52984  24.517  38.484   6.750
 7408POPC   C3A52985  24.533  38.492   7.050
 7408POPC   C4A52986  24.478  38.451   7.350
 7408POPC   C1B52987  24.666  38.313   6.450
 7408POPC   C2B52988  24.697  38.339   6.750
 7408POPC   C3B52989  24.742  38.355   7.050
 7408POPC   C4B52990  24.752  38.327   7.350
 7409POPC   NC352991   5.122   6.648   5.550
 7409POPC   PO452992   5.135   6.618   5.850
 7409POPC   GL152993   5.049   6.660   6.150
 7409POPC   GL252994   5.260   6.674   6.150
 7409POPC   C1A52995   5.079   6.646   6.450
 7409POPC   D2A52996   5.051   6.675   6.750
 7409POPC   C3A52997   5.060   6.647   7.050
 7409POPC   C4A52998   5.106   6.688   7.350
 7409POPC   C1B52999   5.380   6.742   6.450
 7409POPC   C2B53000   5.325   6.664   6.750
 7409POPC   C3B53001   5.333   6.690   7.050
 7409POPC   C4B53002   5.293   6.653   7.350
 7410POPC   NC353003  35.351  19.071   5.550
 7410POPC   PO453004  35.350  19.015   5.850
 7410POPC   GL153005  35.400  19.037   6.150
 7410POPC   GL253006  35.338  18.977   6.150
 7410POPC   C1A53007  35.378  19.054   6.450
 7410POPC   D2A53008  35.362  19.070   6.750
 7410POPC   C3A53009  35.394  19.099   7.050
 7410POPC   C4A53010  35.382  19.055   7.350
 7410POPC   C1B53011  35.308  18.851   6.450
 7410POPC   C2B53012  35.313  18.767   6.750
 7410POPC   C3B53013  35.365  18.855   7.050
 7410POPC   C4B53014  35.376  18.764   7.350
 7411POPC   NC353015  25.298  40.009   5.550
 7411POPC   PO453016  25.242  39.961   5.850
 7411POPC   GL153017  25.285  39.985   6.150
 7411POPC   GL253018  25.233  39.921   6.150
 7411POPC   C1A53019  25.315  40.047   6.450
 7411POPC   D2A53020  25.278  39.975   6.750
 7411POPC   C3A53021  25.235  39.999   7.050
 7411POPC   C4A53022  25.308  39.958   7.350
 7411POPC   C1B53023  25.191  39.731   6.450
 7411POPC   C2B53024  25.201  39.709   6.750
 7411POPC   C3B53025  25.252  39.776   7.050
 7411POPC   C4B53026  25.222  39.765   7.350
 7412POPC   NC353027  28.337  41.536   5.550
 7412POPC   PO453028  28.345  41.524   5.850
 7412POPC   GL153029  28.362  41.571   6.150
 7412POPC   GL253030  28.336  41.445   6.150
 7412POPC   C1A53031  28.381  41.582   6.450
 7412POPC   D2A53032  28.398  41.540   6.750
 7412POPC   C3A53033  28.405  41.563   7.050
 7412POPC   C4A53034  28.416  41.591   7.350
 7412POPC   C1B53035  28.357  41.274   6.450
 7412POPC   C2B53036  28.354  41.348   6.750
 7412POPC   C3B53037  28.350  41.342   7.050
 7412POPC   C4B53038  28.282  41.340   7.350
 7413POPC   NC353039  15.138  33.832   5.550
 7413POPC   PO453040  15.139  33.848   5.850
 7413POPC   GL153041  15.227  33.832   6.150
 7413POPC   GL253042  15.187  33.634   6.150
 7413POPC   C1A53043  15.225  33.790   6.450
 7413POPC   D2A53044  15.139  33.808   6.750
 7413POPC   C3A53045  15.169  33.760   7.050
 7413POPC   C4A53046  15.191  33.818   7.350
 7413POPC   C1B53047  15.185  33.513   6.450
 7413POPC   C2B53048  15.236  33.591   6.750
 7413POPC   C3B53049  15.247  33.511   7.050
 7413POPC   C4B53050  15.179  33.533   7.350
 7414POPC   NC353051  24.525  37.661   5.550
 7414POPC   PO453052  24.440  37.691   5.850
 7414POPC   GL153053  24.470  37.659   6.150
 7414POPC   GL253054  24.487  37.821   6.150
 7414POPC   C1A53055  24.525  37.665   6.450
 7414POPC   D2A53056  24.441  37.645   6.750
 7414POPC   C3A53057  24.475  37.631   7.050
 7414POPC   C4A53058  24.497  37.661   7.350
 7414POPC   C1B53059  24.499  37.899   6.450
 7414POPC   C2B53060  24.518  37.919   6.750
 7414POPC   C3B53061  24.544  37.963   7.050
 7414POPC   C4B53062  24.517  37.937   7.350
 7415POPC   NC353063  37.651   5.133   5.550
 7415POPC   PO453064  37.643   5.092   5.850
 7415POPC   GL153065  37.725   5.108   6.150
 7415POPC   GL253066  37.737   5.027   6.150
 7415POPC   C1A53067  37.682   5.052   6.450
 7415POPC   D2A53068  37.697   5.127   6.750
 7415POPC   C3A53069  37.633   5.070   7.050
 7415POPC   C4A53070  37.706   5.135   7.350
 7415POPC   C1B53071  37.749   4.904   6.450
 7415POPC   C2B53072  37.831   4.873   6.750
 7415POPC   C3B53073  37.770   4.910   7.050
 7415POPC   C4B53074  37.788   4.900   7.350
 7416POPC   NC353075  22.182  21.340   5.550
 7416POPC   PO453076  22.171  21.432   5.850
 7416POPC   GL153077  22.193  21.368   6.150
 7416POPC   GL253078  22.135  21.465   6.150
 7416POPC   C1A53079  22.120  21.340   6.450
 7416POPC   D2A53080  22.144  21.381   6.750
 7416POPC   C3A53081  22.135  21.346   7.050
 7416POPC   C4A53082  22.181  21.420   7.350
 7416POPC   C1B53083  22.161  21.590   6.450
 7416POPC   C2B53084  22.172  21.599   6.750
 7416POPC   C3B53085  22.174  21.669   7.050
 7416POPC   C4B53086  22.147  21.598   7.350
 7417POPC   NC353087   5.873  32.211   5.550
 7417POPC   PO453088   5.821  32.292   5.850
 7417POPC   GL153089   5.825  32.238   6.150
 7417POPC   GL253090   5.825  32.164   6.150
 7417POPC   C1A53091   5.855  32.260   6.450
 7417POPC   D2A53092   5.899  32.237   6.750
 7417POPC   C3A53093   5.884  32.263   7.050
 7417POPC   C4A53094   5.909  32.293   7.350
 7417POPC   C1B53095   5.746  32.076   6.450
 7417POPC   C2B53096   5.742  31.985   6.750
 7417POPC   C3B53097   5.767  32.041   7.050
 7417POPC   C4B53098   5.793  31.980   7.350
 7418POPC   NC353099  25.309  44.638   5.550
 7418POPC   PO453100  25.224  44.668   5.850
 7418POPC   GL153101  25.222  44.682   6.150
 7418POPC   GL253102  25.182  44.741   6.150
 7418POPC   C1A53103  25.287  44.633   6.450
 7418POPC   D2A53104  25.273  44.625   6.750
 7418POPC   C3A53105  25.247  44.648   7.050
 7418POPC   C4A53106  25.304  44.691   7.350
 7418POPC   C1B53107  24.995  44.688   6.450
 7418POPC   C2B53108  25.041  44.717   6.750
 7418POPC   C3B53109  25.051  44.725   7.050
 7418POPC   C4B53110  25.038  44.706   7.350
 7419POPC   NC353111  22.978  33.050   5.550
 7419POPC   PO453112  22.914  33.070   5.850
 7419POPC   GL153113  22.917  33.068   6.150
 7419POPC   GL253114  22.839  33.092   6.150
 7419POPC   C1A53115  22.931  33.012   6.450
 7419POPC   D2A53116  22.962  33.025   6.750
 7419POPC   C3A53117  22.944  33.050   7.050
 7419POPC   C4A53118  22.966  33.065   7.350
 7419POPC   C1B53119  22.814  33.224   6.450
 7419POPC   C2B53120  22.758  33.217   6.750
 7419POPC   C3B53121  22.822  33.201   7.050
 7419POPC   C4B53122  22.820  33.236   7.350
 7420POPC   NC353123  32.295  38.463   5.550
 7420POPC   PO453124  32.241  38.471   5.850
 7420POPC   GL153125  32.290  38.447   6.150
 7420POPC   GL253126  32.149  38.528   6.150
 7420POPC   C1A53127  32.223  38.499   6.450
 7420POPC   D2A53128  32.212  38.442   6.750
 7420POPC   C3A53129  32.265  38.502   7.050
 7420POPC   C4A53130  32.229  38.408   7.350
 7420POPC   C1B53131  32.018  38.550   6.450
 7420POPC   C2B53132  32.037  38.579   6.750
 7420POPC   C3B53133  31.987  38.557   7.050
 7420POPC   C4B53134  32.047  38.553   7.350
 7421POPC   NC353135   5.055  29.877   5.550
 7421POPC   PO453136   5.112  29.876   5.850
 7421POPC   GL153137   5.082  29.886   6.150
 7421POPC   GL253138   4.995  29.937   6.150
 7421POPC   C1A53139   5.064  29.940   6.450
 7421POPC   D2A53140   5.082  29.954   6.750
 7421POPC   C3A53141   5.066  29.881   7.050
 7421POPC   C4A53142   5.126  29.926   7.350
 7421POPC   C1B53143   4.901  29.994   6.450
 7421POPC   C2B53144   4.909  30.010   6.750
 7421POPC   C3B53145   4.860  29.977   7.050
 7421POPC   C4B53146   4.819  29.984   7.350
 7422POPC   NC353147  27.550  41.549   5.550
 7422POPC   PO453148  27.598  41.573   5.850
 7422POPC   GL153149  27.597  41.520   6.150
 7422POPC   GL253150  27.717  41.605   6.150
 7422POPC   C1A53151  27.630  41.511   6.450
 7422POPC   D2A53152  27.604  41.554   6.750
 7422POPC   C3A53153  27.546  41.603   7.050
 7422POPC   C4A53154  27.570  41.526   7.350
 7422POPC   C1B53155  27.777  41.688   6.450
 7422POPC   C2B53156  27.828  41.660   6.750
 7422POPC   C3B53157  27.782  41.611   7.050
 7422POPC   C4B53158  27.867  41.700   7.350
 7423POPC   NC353159  34.597  33.752   5.550
 7423POPC   PO453160  34.591  33.767   5.850
 7423POPC   GL153161  34.582  33.799   6.150
 7423POPC   GL253162  34.405  33.772   6.150
 7423POPC   C1A53163  34.603  33.846   6.450
 7423POPC   D2A53164  34.544  33.781   6.750
 7423POPC   C3A53165  34.586  33.780   7.050
 7423POPC   C4A53166  34.599  33.783   7.350
 7423POPC   C1B53167  34.342  33.724   6.450
 7423POPC   C2B53168  34.347  33.709   6.750
 7423POPC   C3B53169  34.334  33.751   7.050
 7423POPC   C4B53170  34.365  33.781   7.350
 7424POPC   NC353171  37.709  32.231   5.550
 7424POPC   PO453172  37.702  32.201   5.850
 7424POPC   GL153173  37.645  32.215   6.150
 7424POPC   GL253174  37.785  32.165   6.150
 7424POPC   C1A53175  37.695  32.248   6.450
 7424POPC   D2A53176  37.649  32.261   6.750
 7424POPC   C3A53177  37.670  32.283   7.050
 7424POPC   C4A53178  37.702  32.206   7.350
 7424POPC   C1B53179  37.882  32.076   6.450
 7424POPC   C2B53180  37.866  32.041   6.750
 7424POPC   C3B53181  37.876  32.039   7.050
 7424POPC   C4B53182  37.867  32.040   7.350
 7425POPC   NC353183  35.392  28.372   5.550
 7425POPC   PO453184  35.396  28.335   5.850
 7425POPC   GL153185  35.303  28.377   6.150
 7425POPC   GL253186  35.336  28.296   6.150
 7425POPC   C1A53187  35.396  28.333   6.450
 7425POPC   D2A53188  35.349  28.371   6.750
 7425POPC   C3A53189  35.392  28.411   7.050
 7425POPC   C4A53190  35.358  28.388   7.350
 7425POPC   C1B53191  35.270  28.152   6.450
 7425POPC   C2B53192  35.319  28.112   6.750
 7425POPC   C3B53193  35.328  28.152   7.050
 7425POPC   C4B53194  35.242  28.120   7.350
 7426POPC   NC353195   1.225  30.679   5.550
 7426POPC   PO453196   1.244  30.680   5.850
 7426POPC   GL153197   1.191  30.665   6.150
 7426POPC   GL253198   1.044  30.717   6.150
 7426POPC   C1A53199   1.233  30.700   6.450
 7426POPC   D2A53200   1.219  30.663   6.750
 7426POPC   C3A53201   1.257  30.679   7.050
 7426POPC   C4A53202   1.193  30.727   7.350
 7426POPC   C1B53203   1.001  30.746   6.450
 7426POPC   C2B53204   0.968  30.697   6.750
 7426POPC   C3B53205   0.961  30.693   7.050
 7426POPC   C4B53206   0.987  30.696   7.350
 7427POPC   NC353207   7.381  33.758   5.550
 7427POPC   PO453208   7.464  33.750   5.850
 7427POPC   GL153209   7.470  33.827   6.150
 7427POPC   GL253210   7.282  33.828   6.150
 7427POPC   C1A53211   7.470  33.777   6.450
 7427POPC   D2A53212   7.450  33.779   6.750
 7427POPC   C3A53213   7.372  33.783   7.050
 7427POPC   C4A53214   7.458  33.759   7.350
 7427POPC   C1B53215   7.127  33.773   6.450
 7427POPC   C2B53216   7.173  33.816   6.750
 7427POPC   C3B53217   7.122  33.818   7.050
 7427POPC   C4B53218   7.201  33.766   7.350
 7428POPC   NC353219  17.538  39.203   5.550
 7428POPC   PO453220  17.460  39.227   5.850
 7428POPC   GL153221  17.537  39.280   6.150
 7428POPC   GL253222  17.598  39.150   6.150
 7428POPC   C1A53223  17.540  39.193   6.450
 7428POPC   D2A53224  17.517  39.271   6.750
 7428POPC   C3A53225  17.490  39.220   7.050
 7428POPC   C4A53226  17.546  39.194   7.350
 7428POPC   C1B53227  17.599  38.995   6.450
 7428POPC   C2B53228  17.552  39.009   6.750
 7428POPC   C3B53229  17.548  39.016   7.050
 7428POPC   C4B53230  17.561  39.010   7.350
 7429POPC   NC353231   7.453  22.140   5.550
 7429POPC   PO453232   7.466  22.174   5.850
 7429POPC   GL153233   7.430  22.183   6.150
 7429POPC   GL253234   7.519  22.039   6.150
 7429POPC   C1A53235   7.462  22.157   6.450
 7429POPC   D2A53236   7.401  22.157   6.750
 7429POPC   C3A53237   7.470  22.172   7.050
 7429POPC   C4A53238   7.459  22.132   7.350
 7429POPC   C1B53239   7.573  21.969   6.450
 7429POPC   C2B53240   7.604  21.950   6.750
 7429POPC   C3B53241   7.610  22.019   7.050
 7429POPC   C4B53242   7.549  21.960   7.350
 7430POPC   NC353243   1.945  21.387   5.550
 7430POPC   PO453244   1.975  21.419   5.850
 7430POPC   GL153245   1.965  21.403   6.150
 7430POPC   GL253246   2.147  21.477   6.150
 7430POPC   C1A53247   1.999  21.358   6.450
 7430POPC   D2A53248   1.997  21.386   6.750
 7430POPC   C3A53249   1.960  21.395   7.050
 7430POPC   C4A53250   2.014  21.353   7.350
 7430POPC   C1B53251   2.261  21.495   6.450
 7430POPC   C2B53252   2.244  21.457   6.750
 7430POPC   C3B53253   2.261  21.498   7.050
 7430POPC   C4B53254   2.231  21.531   7.350
 7431POPC   NC353255  30.738   5.069   5.550
 7431POPC   PO453256  30.656   5.138   5.850
 7431POPC   GL153257  30.706   5.070   6.150
 7431POPC   GL253258  30.695   5.194   6.150
 7431POPC   C1A53259  30.726   5.102   6.450
 7431POPC   D2A53260  30.655   5.075   6.750
 7431POPC   C3A53261  30.671   5.085   7.050
 7431POPC   C4A53262  30.670   5.069   7.350
 7431POPC   C1B53263  30.634   5.341   6.450
 7431POPC   C2B53264  30.571   5.286   6.750
 7431POPC   C3B53265  30.612   5.305   7.050
 7431POPC   C4B53266  30.598   5.344   7.350
 7432POPC   NC353267   8.192  26.823   5.550
 7432POPC   PO453268   8.159  26.851   5.850
 7432POPC   GL153269   8.210  26.853   6.150
 7432POPC   GL253270   8.262  26.705   6.150
 7432POPC   C1A53271   8.216  26.787   6.450
 7432POPC   D2A53272   8.173  26.837   6.750
 7432POPC   C3A53273   8.168  26.857   7.050
 7432POPC   C4A53274   8.203  26.804   7.350
 7432POPC   C1B53275   8.353  26.656   6.450
 7432POPC   C2B53276   8.359  26.622   6.750
 7432POPC   C3B53277   8.310  26.614   7.050
 7432POPC   C4B53278   8.321  26.655   7.350
 7433POPC   NC353279  10.557  18.323   5.550
 7433POPC   PO453280  10.478  18.331   5.850
 7433POPC   GL153281  10.536  18.320   6.150
 7433POPC   GL253282  10.414  18.140   6.150
 7433POPC   C1A53283  10.510  18.322   6.450
 7433POPC   D2A53284  10.536  18.315   6.750
 7433POPC   C3A53285  10.569  18.251   7.050
 7433POPC   C4A53286  10.477  18.241   7.350
 7433POPC   C1B53287  10.451  18.101   6.450
 7433POPC   C2B53288  10.430  18.025   6.750
 7433POPC   C3B53289  10.453  18.093   7.050
 7433POPC   C4B53290  10.383  18.096   7.350
 7434POPC   NC353291   5.119  32.254   5.550
 7434POPC   PO453292   5.082  32.253   5.850
 7434POPC   GL153293   5.101  32.239   6.150
 7434POPC   GL253294   4.956  32.162   6.150
 7434POPC   C1A53295   5.099  32.298   6.450
 7434POPC   D2A53296   5.072  32.238   6.750
 7434POPC   C3A53297   5.077  32.214   7.050
 7434POPC   C4A53298   5.106  32.200   7.350
 7434POPC   C1B53299   4.904  32.134   6.450
 7434POPC   C2B53300   4.837  32.098   6.750
 7434POPC   C3B53301   4.850  32.114   7.050
 7434POPC   C4B53302   4.901  32.137   7.350
 7435POPC   NC353303  19.035  21.351   5.550
 7435POPC   PO453304  19.064  21.370   5.850
 7435POPC   GL153305  19.072  21.395   6.150
 7435POPC   GL253306  19.200  21.494   6.150
 7435POPC   C1A53307  19.092  21.337   6.450
 7435POPC   D2A53308  19.015  21.342   6.750
 7435POPC   C3A53309  19.066  21.406   7.050
 7435POPC   C4A53310  19.077  21.347   7.350
 7435POPC   C1B53311  19.270  21.509   6.450
 7435POPC   C2B53312  19.258  21.497   6.750
 7435POPC   C3B53313  19.312  21.499   7.050
 7435POPC   C4B53314  19.310  21.546   7.350
 7436POPC   NC353315  36.148   7.427   5.550
 7436POPC   PO453316  36.139   7.390   5.850
 7436POPC   GL153317  36.174   7.447   6.150
 7436POPC   GL253318  36.301   7.435   6.150
 7436POPC   C1A53319  36.111   7.433   6.450
 7436POPC   D2A53320  36.159   7.398   6.750
 7436POPC   C3A53321  36.097   7.430   7.050
 7436POPC   C4A53322  36.135   7.407   7.350
 7436POPC   C1B53323  36.425   7.385   6.450
 7436POPC   C2B53324  36.425   7.391   6.750
 7436POPC   C3B53325  36.388   7.395   7.050
 7436POPC   C4B53326  36.365   7.437   7.350
 7437POPC   NC353327  12.108  26.857   5.550
 7437POPC   PO453328  12.125  26.783   5.850
 7437POPC   GL153329  12.092  26.813   6.150
 7437POPC   GL253330  11.977  26.770   6.150
 7437POPC   C1A53331  12.053  26.845   6.450
 7437POPC   D2A53332  12.087  26.826   6.750
 7437POPC   C3A53333  12.026  26.782   7.050
 7437POPC   C4A53334  12.105  26.800   7.350
 7437POPC   C1B53335  11.795  26.735   6.450
 7437POPC   C2B53336  11.793  26.709   6.750
 7437POPC   C3B53337  11.854  26.682   7.050
 7437POPC   C4B53338  11.820  26.738   7.350
 7438POPC   NC353339   3.566   2.766   5.550
 7438POPC   PO453340   3.514   2.801   5.850
 7438POPC   GL153341   3.550   2.733   6.150
 7438POPC   GL253342   3.493   2.922   6.150
 7438POPC   C1A53343   3.560   2.794   6.450
 7438POPC   D2A53344   3.579   2.792   6.750
 7438POPC   C3A53345   3.509   2.742   7.050
 7438POPC   C4A53346   3.561   2.785   7.350
 7438POPC   C1B53347   3.494   3.041   6.450
 7438POPC   C2B53348   3.491   3.020   6.750
 7438POPC   C3B53349   3.487   2.985   7.050
 7438POPC   C4B53350   3.448   3.045   7.350
 7439POPC   NC353351  43.931  42.310   5.550
 7439POPC   PO453352  43.904  42.366   5.850
 7439POPC   GL153353  43.840  42.357   6.150
 7439POPC   GL253354  43.860  42.184   6.150
 7439POPC   C1A53355  43.847  42.346   6.450
 7439POPC   D2A53356  43.856  42.336   6.750
 7439POPC   C3A53357  43.936  42.305   7.050
 7439POPC   C4A53358  43.919  42.293   7.350
 7439POPC   C1B53359  43.907  42.058   6.450
 7439POPC   C2B53360  43.888  42.128   6.750
 7439POPC   C3B53361  43.852  42.082   7.050
 7439POPC   C4B53362  43.904  42.039   7.350
 7440POPC   NC353363   3.501  14.404   5.550
 7440POPC   PO453364   3.502  14.367   5.850
 7440POPC   GL153365   3.539  14.392   6.150
 7440POPC   GL253366   3.488  14.242   6.150
 7440POPC   C1A53367   3.554  14.429   6.450
 7440POPC   D2A53368   3.502  14.416   6.750
 7440POPC   C3A53369   3.500  14.452   7.050
 7440POPC   C4A53370   3.560  14.426   7.350
 7440POPC   C1B53371   3.485  14.154   6.450
 7440POPC   C2B53372   3.446  14.149   6.750
 7440POPC   C3B53373   3.508  14.182   7.050
 7440POPC   C4B53374   3.440  14.120   7.350
 7441POPC   NC353375  28.375  44.619   5.550
 7441POPC   PO453376  28.417  44.693   5.850
 7441POPC   GL153377  28.372  44.696   6.150
 7441POPC   GL253378  28.351  44.792   6.150
 7441POPC   C1A53379  28.345  44.692   6.450
 7441POPC   D2A53380  28.417  44.679   6.750
 7441POPC   C3A53381  28.401  44.673   7.050
 7441POPC   C4A53382  28.381  44.704   7.350
 7441POPC   C1B53383  28.321  44.908   6.450
 7441POPC   C2B53384  28.342  44.933   6.750
 7441POPC   C3B53385  28.320  44.878   7.050
 7441POPC   C4B53386  28.369  44.897   7.350
 7442POPC   NC353387  38.492  36.948   5.550
 7442POPC   PO453388  38.477  36.925   5.850
 7442POPC   GL153389  38.474  36.938   6.150
 7442POPC   GL253390  38.522  36.834   6.150
 7442POPC   C1A53391  38.446  36.883   6.450
 7442POPC   D2A53392  38.424  36.868   6.750
 7442POPC   C3A53393  38.496  36.908   7.050
 7442POPC   C4A53394  38.448  36.932   7.350
 7442POPC   C1B53395  38.709  36.803   6.450
 7442POPC   C2B53396  38.700  36.742   6.750
 7442POPC   C3B53397  38.634  36.783   7.050
 7442POPC   C4B53398  38.620  36.818   7.350
 7443POPC   NC353399  23.667  39.184   5.550
 7443POPC   PO453400  23.716  39.256   5.850
 7443POPC   GL153401  23.752  39.189   6.150
 7443POPC   GL253402  23.737  39.369   6.150
 7443POPC   C1A53403  23.723  39.262   6.450
 7443POPC   D2A53404  23.686  39.231   6.750
 7443POPC   C3A53405  23.740  39.279   7.050
 7443POPC   C4A53406  23.700  39.199   7.350
 7443POPC   C1B53407  23.826  39.463   6.450
 7443POPC   C2B53408  23.881  39.438   6.750
 7443POPC   C3B53409  23.866  39.484   7.050
 7443POPC   C4B53410  23.848  39.448   7.350
 7444POPC   NC353411  11.301  12.827   5.550
 7444POPC   PO453412  11.252  12.837   5.850
 7444POPC   GL153413  11.256  12.868   6.150
 7444POPC   GL253414  11.378  12.813   6.150
 7444POPC   C1A53415  11.326  12.869   6.450
 7444POPC   D2A53416  11.313  12.857   6.750
 7444POPC   C3A53417  11.250  12.871   7.050
 7444POPC   C4A53418  11.323  12.831   7.350
 7444POPC   C1B53419  11.531  12.838   6.450
 7444POPC   C2B53420  11.585  12.803   6.750
 7444POPC   C3B53421  11.542  12.785   7.050
 7444POPC   C4B53422  11.532  12.871   7.350
 7445POPC   NC353423  26.017  26.850   5.550
 7445POPC   PO453424  26.055  26.776   5.850
 7445POPC   GL153425  26.080  26.852   6.150
 7445POPC   GL253426  26.015  26.939   6.150
 7445POPC   C1A53427  26.062  26.831   6.450
 7445POPC   D2A53428  26.014  26.783   6.750
 7445POPC   C3A53429  26.026  26.854   7.050
 7445POPC   C4A53430  26.017  26.844   7.350
 7445POPC   C1B53431  25.917  26.969   6.450
 7445POPC   C2B53432  25.899  27.004   6.750
 7445POPC   C3B53433  25.880  27.069   7.050
 7445POPC   C4B53434  25.885  27.041   7.350
 7446POPC   NC353435  38.464  16.720   5.550
 7446POPC   PO453436  38.490  16.757   5.850
 7446POPC   GL153437  38.445  16.728   6.150
 7446POPC   GL253438  38.575  16.632   6.150
 7446POPC   C1A53439  38.457  16.730   6.450
 7446POPC   D2A53440  38.486  16.733   6.750
 7446POPC   C3A53441  38.482  16.691   7.050
 7446POPC   C4A53442  38.503  16.773   7.350
 7446POPC   C1B53443  38.711  16.552   6.450
 7446POPC   C2B53444  38.697  16.605   6.750
 7446POPC   C3B53445  38.668  16.624   7.050
 7446POPC   C4B53446  38.707  16.637   7.350
 7447POPC   NC353447   2.787  22.949   5.550
 7447POPC   PO453448   2.731  22.918   5.850
 7447POPC   GL153449   2.748  22.969   6.150
 7447POPC   GL253450   2.889  23.002   6.150
 7447POPC   C1A53451   2.780  22.972   6.450
 7447POPC   D2A53452   2.753  22.902   6.750
 7447POPC   C3A53453   2.802  22.922   7.050
 7447POPC   C4A53454   2.801  22.907   7.350
 7447POPC   C1B53455   2.966  23.076   6.450
 7447POPC   C2B53456   2.959  23.116   6.750
 7447POPC   C3B53457   2.984  23.083   7.050
 7447POPC   C4B53458   3.010  23.028   7.350
 7448POPC   NC353459  31.512  37.680   5.550
 7448POPC   PO453460  31.428  37.638   5.850
 7448POPC   GL153461  31.470  37.660   6.150
 7448POPC   GL253462  31.576  37.654   6.150
 7448POPC   C1A53463  31.462  37.641   6.450
 7448POPC   D2A53464  31.475  37.630   6.750
 7448POPC   C3A53465  31.475  37.721   7.050
 7448POPC   C4A53466  31.457  37.647   7.350
 7448POPC   C1B53467  31.758  37.607   6.450
 7448POPC   C2B53468  31.703  37.610   6.750
 7448POPC   C3B53469  31.738  37.658   7.050
 7448POPC   C4B53470  31.765  37.654   7.350
 7449POPC   NC353471   2.013  15.192   5.550
 7449POPC   PO453472   2.020  15.151   5.850
 7449POPC   GL153473   1.989  15.173   6.150
 7449POPC   GL253474   1.922  15.299   6.150
 7449POPC   C1A53475   2.026  15.211   6.450
 7449POPC   D2A53476   1.948  15.145   6.750
 7449POPC   C3A53477   2.001  15.151   7.050
 7449POPC   C4A53478   1.946  15.145   7.350
 7449POPC   C1B53479   1.929  15.458   6.450
 7449POPC   C2B53480   1.916  15.454   6.750
 7449POPC   C3B53481   1.942  15.440   7.050
 7449POPC   C4B53482   1.951  15.440   7.350
 7450POPC   NC353483   8.214  28.352   5.550
 7450POPC   PO453484   8.189  28.329   5.850
 7450POPC   GL153485   8.244  28.382   6.150
 7450POPC   GL253486   8.145  28.472   6.150
 7450POPC   C1A53487   8.188  28.352   6.450
 7450POPC   D2A53488   8.188  28.354   6.750
 7450POPC   C3A53489   8.154  28.331   7.050
 7450POPC   C4A53490   8.233  28.359   7.350
 7450POPC   C1B53491   7.995  28.513   6.450
 7450POPC   C2B53492   8.054  28.600   6.750
 7450POPC   C3B53493   7.978  28.584   7.050
 7450POPC   C4B53494   8.051  28.501   7.350
 7451POPC   NC353495  21.377   2.725   5.550
 7451POPC   PO453496  21.384   2.790   5.850
 7451POPC   GL153497  21.414   2.778   6.150
 7451POPC   GL253498  21.469   2.651   6.150
 7451POPC   C1A53499  21.432   2.723   6.450
 7451POPC   D2A53500  21.351   2.796   6.750
 7451POPC   C3A53501  21.356   2.756   7.050
 7451POPC   C4A53502  21.402   2.741   7.350
 7451POPC   C1B53503  21.436   2.526   6.450
 7451POPC   C2B53504  21.455   2.522   6.750
 7451POPC   C3B53505  21.508   2.529   7.050
 7451POPC   C4B53506  21.501   2.579   7.350
 7452POPC   NC353507   0.405  15.183   5.550
 7452POPC   PO453508   0.427  15.219   5.850
 7452POPC   GL153509   0.457  15.204   6.150
 7452POPC   GL253510   0.438  15.029   6.150
 7452POPC   C1A53511   0.429  15.228   6.450
 7452POPC   D2A53512   0.482  15.170   6.750
 7452POPC   C3A53513   0.437  15.166   7.050
 7452POPC   C4A53514   0.401  15.208   7.350
 7452POPC   C1B53515   0.385  14.931   6.450
 7452POPC   C2B53516   0.440  14.974   6.750
 7452POPC   C3B53517   0.414  14.967   7.050
 7452POPC   C4B53518   0.443  14.969   7.350
 7453POPC   NC353519  11.267  26.010   5.550
 7453POPC   PO453520  11.334  26.001   5.850
 7453POPC   GL153521  11.293  26.039   6.150
 7453POPC   GL253522  11.249  25.959   6.150
 7453POPC   C1A53523  11.303  26.088   6.450
 7453POPC   D2A53524  11.319  26.000   6.750
 7453POPC   C3A53525  11.345  26.067   7.050
 7453POPC   C4A53526  11.276  26.036   7.350
 7453POPC   C1B53527  11.243  25.818   6.450
 7453POPC   C2B53528  11.240  25.777   6.750
 7453POPC   C3B53529  11.264  25.781   7.050
 7453POPC   C4B53530  11.241  25.842   7.350
 7454POPC   NC353531  40.821  19.053   5.550
 7454POPC   PO453532  40.780  19.023   5.850
 7454POPC   GL153533  40.766  19.060   6.150
 7454POPC   GL253534  40.687  18.984   6.150
 7454POPC   C1A53535  40.798  19.024   6.450
 7454POPC   D2A53536  40.820  19.092   6.750
 7454POPC   C3A53537  40.810  19.059   7.050
 7454POPC   C4A53538  40.823  19.043   7.350
 7454POPC   C1B53539  40.607  18.861   6.450
 7454POPC   C2B53540  40.602  18.954   6.750
 7454POPC   C3B53541  40.633  18.861   7.050
 7454POPC   C4B53542  40.550  18.863   7.350
 7455POPC   NC353543  32.999  31.456   5.550
 7455POPC   PO453544  33.030  31.496   5.850
 7455POPC   GL153545  33.064  31.456   6.150
 7455POPC   GL253546  33.115  31.422   6.150
 7455POPC   C1A53547  32.975  31.504   6.450
 7455POPC   D2A53548  33.073  31.482   6.750
 7455POPC   C3A53549  33.060  31.479   7.050
 7455POPC   C4A53550  32.995  31.498   7.350
 7455POPC   C1B53551  33.165  31.337   6.450
 7455POPC   C2B53552  33.187  31.281   6.750
 7455POPC   C3B53553  33.222  31.302   7.050
 7455POPC   C4B53554  33.173  31.350   7.350
 7456POPC   NC353555  34.530   4.325   5.550
 7456POPC   PO453556  34.575   4.268   5.850
 7456POPC   GL153557  34.568   4.318   6.150
 7456POPC   GL253558  34.653   4.452   6.150
 7456POPC   C1A53559  34.600   4.347   6.450
 7456POPC   D2A53560  34.621   4.361   6.750
 7456POPC   C3A53561  34.562   4.285   7.050
 7456POPC   C4A53562  34.554   4.302   7.350
 7456POPC   C1B53563  34.743   4.552   6.450
 7456POPC   C2B53564  34.691   4.555   6.750
 7456POPC   C3B53565  34.760   4.490   7.050
 7456POPC   C4B53566  34.717   4.521   7.350
 7457POPC   NC353567   5.849  22.918   5.550
 7457POPC   PO453568   5.880  22.913   5.850
 7457POPC   GL153569   5.906  22.901   6.150
 7457POPC   GL253570   5.799  22.904   6.150
 7457POPC   C1A53571   5.914  22.967   6.450
 7457POPC   D2A53572   5.908  22.907   6.750
 7457POPC   C3A53573   5.918  22.974   7.050
 7457POPC   C4A53574   5.881  22.966   7.350
 7457POPC   C1B53575   5.683  22.791   6.450
 7457POPC   C2B53576   5.639  22.845   6.750
 7457POPC   C3B53577   5.688  22.847   7.050
 7457POPC   C4B53578   5.683  22.798   7.350
 7458POPC   NC353579  39.274  22.145   5.550
 7458POPC   PO453580  39.272  22.175   5.850
 7458POPC   GL153581  39.202  22.210   6.150
 7458POPC   GL253582  39.312  22.036   6.150
 7458POPC   C1A53583  39.245  22.188   6.450
 7458POPC   D2A53584  39.230  22.189   6.750
 7458POPC   C3A53585  39.262  22.179   7.050
 7458POPC   C4A53586  39.186  22.192   7.350
 7458POPC   C1B53587  39.278  21.945   6.450
 7458POPC   C2B53588  39.355  21.954   6.750
 7458POPC   C3B53589  39.353  21.889   7.050
 7458POPC   C4B53590  39.327  21.924   7.350
 7459POPC   NC353591  19.104  11.291   5.550
 7459POPC   PO453592  19.094  11.323   5.850
 7459POPC   GL153593  19.052  11.256   6.150
 7459POPC   GL253594  18.998  11.383   6.150
 7459POPC   C1A53595  19.010  11.318   6.450
 7459POPC   D2A53596  19.029  11.258   6.750
 7459POPC   C3A53597  19.047  11.327   7.050
 7459POPC   C4A53598  19.103  11.339   7.350
 7459POPC   C1B53599  18.950  11.508   6.450
 7459POPC   C2B53600  18.887  11.505   6.750
 7459POPC   C3B53601  18.912  11.510   7.050
 7459POPC   C4B53602  18.938  11.550   7.350
 7460POPC   NC353603  36.943  10.535   5.550
 7460POPC   PO453604  36.854  10.560   5.850
 7460POPC   GL153605  36.935  10.512   6.150
 7460POPC   GL253606  37.008  10.598   6.150
 7460POPC   C1A53607  36.871  10.480   6.450
 7460POPC   D2A53608  36.941  10.508   6.750
 7460POPC   C3A53609  36.887  10.480   7.050
 7460POPC   C4A53610  36.896  10.477   7.350
 7460POPC   C1B53611  37.170  10.570   6.450
 7460POPC   C2B53612  37.094  10.627   6.750
 7460POPC   C3B53613  37.178  10.593   7.050
 7460POPC   C4B53614  37.175  10.557   7.350
 7461POPC   NC353615  26.046   6.667   5.550
 7461POPC   PO453616  26.074   6.673   5.850
 7461POPC   GL153617  26.056   6.603   6.150
 7461POPC   GL253618  26.059   6.488   6.150
 7461POPC   C1A53619  26.020   6.644   6.450
 7461POPC   D2A53620  26.037   6.643   6.750
 7461POPC   C3A53621  26.082   6.668   7.050
 7461POPC   C4A53622  26.060   6.611   7.350
 7461POPC   C1B53623  25.960   6.372   6.450
 7461POPC   C2B53624  25.987   6.361   6.750
 7461POPC   C3B53625  26.026   6.429   7.050
 7461POPC   C4B53626  26.036   6.390   7.350
 7462POPC   NC353627  31.464  11.261   5.550
 7462POPC   PO453628  31.474  11.325   5.850
 7462POPC   GL153629  31.477  11.322   6.150
 7462POPC   GL253630  31.585  11.366   6.150
 7462POPC   C1A53631  31.462  11.326   6.450
 7462POPC   D2A53632  31.488  11.293   6.750
 7462POPC   C3A53633  31.453  11.278   7.050
 7462POPC   C4A53634  31.477  11.287   7.350
 7462POPC   C1B53635  31.648  11.519   6.450
 7462POPC   C2B53636  31.589  11.515   6.750
 7462POPC   C3B53637  31.558  11.496   7.050
 7462POPC   C4B53638  31.577  11.470   7.350
 7463POPC   NC353639  18.281  43.868   5.550
 7463POPC   PO453640  18.275  43.874   5.850
 7463POPC   GL153641  18.258  43.860   6.150
 7463POPC   GL253642  18.229  43.986   6.150
 7463POPC   C1A53643  18.301  43.855   6.450
 7463POPC   D2A53644  18.329  43.891   6.750
 7463POPC   C3A53645  18.309  43.924   7.050
 7463POPC   C4A53646  18.242  43.842   7.350
 7463POPC   C1B53647  18.254  44.136   6.450
 7463POPC   C2B53648  18.250  44.108   6.750
 7463POPC   C3B53649  18.228  44.176   7.050
 7463POPC   C4B53650  18.182  44.096   7.350
 7464POPC   NC353651   2.744   2.772   5.550
 7464POPC   PO453652   2.801   2.749   5.850
 7464POPC   GL153653   2.784   2.746   6.150
 7464POPC   GL253654   2.748   2.663   6.150
 7464POPC   C1A53655   2.763   2.757   6.450
 7464POPC   D2A53656   2.740   2.759   6.750
 7464POPC   C3A53657   2.768   2.804   7.050
 7464POPC   C4A53658   2.809   2.788   7.350
 7464POPC   C1B53659   2.609   2.573   6.450
 7464POPC   C2B53660   2.615   2.528   6.750
 7464POPC   C3B53661   2.675   2.534   7.050
 7464POPC   C4B53662   2.658   2.557   7.350
 7465POPC   NC353663  39.248  19.071   5.550
 7465POPC   PO453664  39.237  19.080   5.850
 7465POPC   GL153665  39.196  19.040   6.150
 7465POPC   GL253666  39.299  19.169   6.150
 7465POPC   C1A53667  39.231  19.067   6.450
 7465POPC   D2A53668  39.228  19.058   6.750
 7465POPC   C3A53669  39.205  19.028   7.050
 7465POPC   C4A53670  39.245  19.085   7.350
 7465POPC   C1B53671  39.430  19.243   6.450
 7465POPC   C2B53672  39.407  19.198   6.750
 7465POPC   C3B53673  39.374  19.259   7.050
 7465POPC   C4B53674  39.447  19.220   7.350
 7466POPC   NC353675  28.379  13.653   5.550
 7466POPC   PO453676  28.395  13.646   5.850
 7466POPC   GL153677  28.415  13.617   6.150
 7466POPC   GL253678  28.308  13.480   6.150
 7466POPC   C1A53679  28.400  13.578   6.450
 7466POPC   D2A53680  28.415  13.599   6.750
 7466POPC   C3A53681  28.400  13.607   7.050
 7466POPC   C4A53682  28.351  13.661   7.350
 7466POPC   C1B53683  28.177  13.460   6.450
 7466POPC   C2B53684  28.235  13.459   6.750
 7466POPC   C3B53685  28.205  13.395   7.050
 7466POPC   C4B53686  28.224  13.375   7.350
 7467POPC   NC353687   5.096  26.003   5.550
 7467POPC   PO453688   5.099  26.042   5.850
 7467POPC   GL153689   5.099  26.017   6.150
 7467POPC   GL253690   5.070  25.883   6.150
 7467POPC   C1A53691   5.139  26.042   6.450
 7467POPC   D2A53692   5.098  26.047   6.750
 7467POPC   C3A53693   5.063  26.000   7.050
 7467POPC   C4A53694   5.106  26.071   7.350
 7467POPC   C1B53695   5.050  25.765   6.450
 7467POPC   C2B53696   4.980  25.767   6.750
 7467POPC   C3B53697   4.962  25.806   7.050
 7467POPC   C4B53698   4.956  25.796   7.350
 7468POPC   NC353699  19.861   2.780   5.550
 7468POPC   PO453700  19.818   2.768   5.850
 7468POPC   GL153701  19.826   2.815   6.150
 7468POPC   GL253702  19.670   2.773   6.150
 7468POPC   C1A53703  19.882   2.764   6.450
 7468POPC   D2A53704  19.883   2.720   6.750
 7468POPC   C3A53705  19.817   2.782   7.050
 7468POPC   C4A53706  19.844   2.767   7.350
 7468POPC   C1B53707  19.554   2.684   6.450
 7468POPC   C2B53708  19.626   2.716   6.750
 7468POPC   C3B53709  19.641   2.652   7.050
 7468POPC   C4B53710  19.628   2.729   7.350
 7469POPC   NC353711   1.966   2.786   5.550
 7469POPC   PO453712   2.017   2.798   5.850
 7469POPC   GL153713   1.942   2.773   6.150
 7469POPC   GL253714   2.076   2.754   6.150
 7469POPC   C1A53715   2.019   2.731   6.450
 7469POPC   D2A53716   1.982   2.778   6.750
 7469POPC   C3A53717   1.963   2.719   7.050
 7469POPC   C4A53718   2.010   2.787   7.350
 7469POPC   C1B53719   2.204   2.665   6.450
 7469POPC   C2B53720   2.201   2.698   6.750
 7469POPC   C3B53721   2.173   2.633   7.050
 7469POPC   C4B53722   2.254   2.624   7.350
 7470POPC   NC353723  42.325   8.960   5.550
 7470POPC   PO453724  42.294   8.928   5.850
 7470POPC   GL153725  42.340   8.997   6.150
 7470POPC   GL253726  42.260   8.896   6.150
 7470POPC   C1A53727  42.285   8.968   6.450
 7470POPC   D2A53728  42.294   9.003   6.750
 7470POPC   C3A53729  42.330   9.012   7.050
 7470POPC   C4A53730  42.377   9.020   7.350
 7470POPC   C1B53731  42.312   8.733   6.450
 7470POPC   C2B53732  42.237   8.767   6.750
 7470POPC   C3B53733  42.290   8.714   7.050
 7470POPC   C4B53734  42.302   8.734   7.350
 7471POPC   NC353735  42.375  37.715   5.550
 7471POPC   PO453736  42.350  37.633   5.850
 7471POPC   GL153737  42.343  37.645   6.150
 7471POPC   GL253738  42.356  37.536   6.150
 7471POPC   C1A53739  42.303  37.666   6.450
 7471POPC   D2A53740  42.287  37.693   6.750
 7471POPC   C3A53741  42.325  37.655   7.050
 7471POPC   C4A53742  42.332  37.700   7.350
 7471POPC   C1B53743  42.516  37.456   6.450
 7471POPC   C2B53744  42.431  37.486   6.750
 7471POPC   C3B53745  42.484  37.435   7.050
 7471POPC   C4B53746  42.506  37.441   7.350
 7472POPC   NC353747  12.878  15.970   5.550
 7472POPC   PO453748  12.867  15.954   5.850
 7472POPC   GL153749  12.821  15.907   6.150
 7472POPC   GL253750  12.761  15.970   6.150
 7472POPC   C1A53751  12.844  15.963   6.450
 7472POPC   D2A53752  12.895  15.973   6.750
 7472POPC   C3A53753  12.815  15.966   7.050
 7472POPC   C4A53754  12.865  15.992   7.350
 7472POPC   C1B53755  12.638  15.928   6.450
 7472POPC   C2B53756  12.563  15.946   6.750
 7472POPC   C3B53757  12.637  15.980   7.050
 7472POPC   C4B53758  12.599  15.919   7.350
 7473POPC   NC353759  42.351  41.594   5.550
 7473POPC   PO453760  42.359  41.605   5.850
 7473POPC   GL153761  42.365  41.523   6.150
 7473POPC   GL253762  42.239  41.537   6.150
 7473POPC   C1A53763  42.300  41.560   6.450
 7473POPC   D2A53764  42.318  41.559   6.750
 7473POPC   C3A53765  42.298  41.529   7.050
 7473POPC   C4A53766  42.342  41.564   7.350
 7473POPC   C1B53767  42.039  41.624   6.450
 7473POPC   C2B53768  42.061  41.599   6.750
 7473POPC   C3B53769  42.093  41.583   7.050
 7473POPC   C4B53770  42.101  41.575   7.350
 7474POPC   NC353771  41.531  39.233   5.550
 7474POPC   PO453772  41.573  39.222   5.850
 7474POPC   GL153773  41.566  39.226   6.150
 7474POPC   GL253774  41.634  39.175   6.150
 7474POPC   C1A53775  41.528  39.194   6.450
 7474POPC   D2A53776  41.569  39.183   6.750
 7474POPC   C3A53777  41.569  39.198   7.050
 7474POPC   C4A53778  41.525  39.251   7.350
 7474POPC   C1B53779  41.665  38.980   6.450
 7474POPC   C2B53780  41.677  39.077   6.750
 7474POPC   C3B53781  41.694  39.040   7.050
 7474POPC   C4B53782  41.714  39.020   7.350
 7475POPC   NC353783  15.964   1.986   5.550
 7475POPC   PO453784  15.912   2.009   5.850
 7475POPC   GL153785  15.930   1.948   6.150
 7475POPC   GL253786  15.867   2.062   6.150
 7475POPC   C1A53787  15.907   1.989   6.450
 7475POPC   D2A53788  15.983   1.981   6.750
 7475POPC   C3A53789  15.933   2.035   7.050
 7475POPC   C4A53790  15.961   1.965   7.350
 7475POPC   C1B53791  15.714   1.998   6.450
 7475POPC   C2B53792  15.734   2.000   6.750
 7475POPC   C3B53793  15.674   2.018   7.050
 7475POPC   C4B53794  15.676   2.009   7.350
 7476POPC   NC353795  22.175   3.513   5.550
 7476POPC   PO453796  22.146   3.537   5.850
 7476POPC   GL153797  22.139   3.498   6.150
 7476POPC   GL253798  22.312   3.478   6.150
 7476POPC   C1A53799  22.153   3.531   6.450
 7476POPC   D2A53800  22.186   3.507   6.750
 7476POPC   C3A53801  22.155   3.570   7.050
 7476POPC   C4A53802  22.163   3.525   7.350
 7476POPC   C1B53803  22.364   3.474   6.450
 7476POPC   C2B53804  22.372   3.496   6.750
 7476POPC   C3B53805  22.442   3.470   7.050
 7476POPC   C4B53806  22.372   3.511   7.350
 7477POPC   NC353807  10.532  42.295   5.550
 7477POPC   PO453808  10.506  42.289   5.850
 7477POPC   GL153809  10.568  42.297   6.150
 7477POPC   GL253810  10.640  42.285   6.150
 7477POPC   C1A53811  10.555  42.316   6.450
 7477POPC   D2A53812  10.504  42.363   6.750
 7477POPC   C3A53813  10.542  42.290   7.050
 7477POPC   C4A53814  10.536  42.321   7.350
 7477POPC   C1B53815  10.730  42.267   6.450
 7477POPC   C2B53816  10.774  42.258   6.750
 7477POPC   C3B53817  10.702  42.271   7.050
 7477POPC   C4B53818  10.761  42.269   7.350
 7478POPC   NC353819   0.425  12.060   5.550
 7478POPC   PO453820   0.428  12.047   5.850
 7478POPC   GL153821   0.464  12.041   6.150
 7478POPC   GL253822   0.308  12.065   6.150
 7478POPC   C1A53823   0.430  12.062   6.450
 7478POPC   D2A53824   0.416  12.041   6.750
 7478POPC   C3A53825   0.465  12.126   7.050
 7478POPC   C4A53826   0.421  12.089   7.350
 7478POPC   C1B53827   0.181  12.017   6.450
 7478POPC   C2B53828   0.221  11.938   6.750
 7478POPC   C3B53829   0.248  11.946   7.050
 7478POPC   C4B53830   0.225  12.011   7.350
 7479POPC   NC353831  33.771  16.742   5.550
 7479POPC   PO453832  33.764  16.773   5.850
 7479POPC   GL153833  33.791  16.762   6.150
 7479POPC   GL253834  33.744  16.858   6.150
 7479POPC   C1A53835  33.821  16.681   6.450
 7479POPC   D2A53836  33.812  16.773   6.750
 7479POPC   C3A53837  33.786  16.713   7.050
 7479POPC   C4A53838  33.761  16.779   7.350
 7479POPC   C1B53839  33.604  16.963   6.450
 7479POPC   C2B53840  33.598  16.951   6.750
 7479POPC   C3B53841  33.657  16.902   7.050
 7479POPC   C4B53842  33.586  16.948   7.350
 7480POPC   NC353843  33.793  27.628   5.550
 7480POPC   PO453844  33.833  27.552   5.850
 7480POPC   GL153845  33.768  27.545   6.150
 7480POPC   GL253846  33.868  27.646   6.150
 7480POPC   C1A53847  33.768  27.618   6.450
 7480POPC   D2A53848  33.756  27.569   6.750
 7480POPC   C3A53849  33.773  27.582   7.050
 7480POPC   C4A53850  33.768  27.574   7.350
 7480POPC   C1B53851  33.997  27.694   6.450
 7480POPC   C2B53852  34.073  27.723   6.750
 7480POPC   C3B53853  34.015  27.676   7.050
 7480POPC   C4B53854  34.019  27.652   7.350
 7481POPC   NC353855  41.514  15.192   5.550
 7481POPC   PO453856  41.591  15.157   5.850
 7481POPC   GL153857  41.510  15.203   6.150
 7481POPC   GL253858  41.655  15.058   6.150
 7481POPC   C1A53859  41.523  15.175   6.450
 7481POPC   D2A53860  41.565  15.216   6.750
 7481POPC   C3A53861  41.596  15.184   7.050
 7481POPC   C4A53862  41.519  15.228   7.350
 7481POPC   C1B53863  41.693  14.950   6.450
 7481POPC   C2B53864  41.700  14.969   6.750
 7481POPC   C3B53865  41.652  14.991   7.050
 7481POPC   C4B53866  41.631  14.984   7.350
 7482POPC   NC353867  15.179  17.537   5.550
 7482POPC   PO453868  15.222  17.466   5.850
 7482POPC   GL153869  15.162  17.496   6.150
 7482POPC   GL253870  15.170  17.404   6.150
 7482POPC   C1A53871  15.222  17.551   6.450
 7482POPC   D2A53872  15.174  17.470   6.750
 7482POPC   C3A53873  15.218  17.489   7.050
 7482POPC   C4A53874  15.168  17.556   7.350
 7482POPC   C1B53875  15.216  17.270   6.450
 7482POPC   C2B53876  15.166  17.299   6.750
 7482POPC   C3B53877  15.127  17.211   7.050
 7482POPC   C4B53878  15.142  17.306   7.350
 7483POPC   NC353879  23.695  32.263   5.550
 7483POPC   PO453880  23.735  32.232   5.850
 7483POPC   GL153881  23.703  32.271   6.150
 7483POPC   GL253882  23.697  32.417   6.150
 7483POPC   C1A53883  23.720  32.206   6.450
 7483POPC   D2A53884  23.711  32.247   6.750
 7483POPC   C3A53885  23.681  32.244   7.050
 7483POPC   C4A53886  23.730  32.277   7.350
 7483POPC   C1B53887  23.738  32.523   6.450
 7483POPC   C2B53888  23.735  32.510   6.750
 7483POPC   C3B53889  23.773  32.467   7.050
 7483POPC   C4B53890  23.796  32.476   7.350
 7484POPC   NC353891  21.344  33.815   5.550
 7484POPC   PO453892  21.390  33.792   5.850
 7484POPC   GL153893  21.432  33.820   6.150
 7484POPC   GL253894  21.379  33.891   6.150
 7484POPC   C1A53895  21.374  33.831   6.450
 7484POPC   D2A53896  21.383  33.810   6.750
 7484POPC   C3A53897  21.363  33.786   7.050
 7484POPC   C4A53898  21.409  33.774   7.350
 7484POPC   C1B53899  21.273  34.050   6.450
 7484POPC   C2B53900  21.250  34.041   6.750
 7484POPC   C3B53901  21.333  34.053   7.050
 7484POPC   C4B53902  21.256  33.986   7.350
 7485POPC   NC353903  44.621  19.824   5.550
 7485POPC   PO453904  44.630  19.882   5.850
 7485POPC   GL153905  44.677  19.838   6.150
 7485POPC   GL253906  44.790  19.769   6.150
 7485POPC   C1A53907  44.663  19.819   6.450
 7485POPC   D2A53908  44.634  19.862   6.750
 7485POPC   C3A53909  44.668  19.785   7.050
 7485POPC   C4A53910  44.613  19.792   7.350
 7485POPC   C1B53911  44.796  19.606   6.450
 7485POPC   C2B53912  44.776  19.633   6.750
 7485POPC   C3B53913  44.864  19.598   7.050
 7485POPC   C4B53914  44.821  19.593   7.350
 7486POPC   NC353915  31.502   2.717   5.550
 7486POPC   PO453916  31.450   2.804   5.850
 7486POPC   GL153917  31.462   2.768   6.150
 7486POPC   GL253918  31.346   2.658   6.150
 7486POPC   C1A53919  31.441   2.728   6.450
 7486POPC   D2A53920  31.439   2.775   6.750
 7486POPC   C3A53921  31.510   2.773   7.050
 7486POPC   C4A53922  31.511   2.749   7.350
 7486POPC   C1B53923  31.293   2.597   6.450
 7486POPC   C2B53924  31.212   2.624   6.750
 7486POPC   C3B53925  31.257   2.626   7.050
 7486POPC   C4B53926  31.308   2.640   7.350
 7487POPC   NC353927  35.374   0.414   5.550
 7487POPC   PO453928  35.369   0.415   5.850
 7487POPC   GL153929  35.315   0.437   6.150
 7487POPC   GL253930  35.327   0.351   6.150
 7487POPC   C1A53931  35.389   0.482   6.450
 7487POPC   D2A53932  35.378   0.462   6.750
 7487POPC   C3A53933  35.379   0.462   7.050
 7487POPC   C4A53934  35.390   0.471   7.350
 7487POPC   C1B53935  35.391   0.167   6.450
 7487POPC   C2B53936  35.382   0.156   6.750
 7487POPC   C3B53937  35.364   0.181   7.050
 7487POPC   C4B53938  35.431   0.143   7.350
 7488POPC   NC353939  22.894  15.973   5.550
 7488POPC   PO453940  22.901  15.958   5.850
 7488POPC   GL153941  22.936  15.912   6.150
 7488POPC   GL253942  22.853  16.051   6.150
 7488POPC   C1A53943  22.912  15.912   6.450
 7488POPC   D2A53944  22.909  15.944   6.750
 7488POPC   C3A53945  22.930  15.959   7.050
 7488POPC   C4A53946  22.914  15.979   7.350
 7488POPC   C1B53947  22.854  16.141   6.450
 7488POPC   C2B53948  22.841  16.198   6.750
 7488POPC   C3B53949  22.825  16.204   7.050
 7488POPC   C4B53950  22.830  16.201   7.350
 7489POPC   NC353951  26.087  21.412   5.550
 7489POPC   PO453952  26.013  21.345   5.850
 7489POPC   GL153953  26.001  21.382   6.150
 7489POPC   GL253954  26.138  21.374   6.150
 7489POPC   C1A53955  26.003  21.399   6.450
 7489POPC   D2A53956  25.997  21.350   6.750
 7489POPC   C3A53957  26.012  21.430   7.050
 7489POPC   C4A53958  26.037  21.369   7.350
 7489POPC   C1B53959  26.280  21.452   6.450
 7489POPC   C2B53960  26.338  21.421   6.750
 7489POPC   C3B53961  26.251  21.408   7.050
 7489POPC   C4B53962  26.263  21.405   7.350
 7490POPC   NC353963   0.411  13.671   5.550
 7490POPC   PO453964   0.400  13.638   5.850
 7490POPC   GL153965   0.416  13.604   6.150
 7490POPC   GL253966   0.579  13.667   6.150
 7490POPC   C1A53967   0.399  13.603   6.450
 7490POPC   D2A53968   0.429  13.622   6.750
 7490POPC   C3A53969   0.425  13.589   7.050
 7490POPC   C4A53970   0.409  13.587   7.350
 7490POPC   C1B53971   0.708  13.630   6.450
 7490POPC   C2B53972   0.696  13.633   6.750
 7490POPC   C3B53973   0.643  13.698   7.050
 7490POPC   C4B53974   0.728  13.687   7.350
 7491POPC   NC353975  18.332  13.658   5.550
 7491POPC   PO453976  18.252  13.634   5.850
 7491POPC   GL153977  18.272  13.677   6.150
 7491POPC   GL253978  18.331  13.522   6.150
 7491POPC   C1A53979  18.319  13.651   6.450
 7491POPC   D2A53980  18.238  13.590   6.750
 7491POPC   C3A53981  18.288  13.655   7.050
 7491POPC   C4A53982  18.323  13.615   7.350
 7491POPC   C1B53983  18.453  13.463   6.450
 7491POPC   C2B53984  18.454  13.448   6.750
 7491POPC   C3B53985  18.438  13.425   7.050
 7491POPC   C4B53986  18.395  13.411   7.350
 7492POPC   NC353987  15.224  41.561   5.550
 7492POPC   PO453988  15.191  41.605   5.850
 7492POPC   GL153989  15.159  41.561   6.150
 7492POPC   GL253990  15.185  41.457   6.150
 7492POPC   C1A53991  15.149  41.588   6.450
 7492POPC   D2A53992  15.174  41.564   6.750
 7492POPC   C3A53993  15.162  41.531   7.050
 7492POPC   C4A53994  15.187  41.566   7.350
 7492POPC   C1B53995  15.185  41.307   6.450
 7492POPC   C2B53996  15.211  41.315   6.750
 7492POPC   C3B53997  15.173  41.359   7.050
 7492POPC   C4B53998  15.217  41.355   7.350
 7493POPC   NC353999   5.114   8.182   5.550
 7493POPC   PO454000   5.070   8.151   5.850
 7493POPC   GL154001   5.104   8.246   6.150
 7493POPC   GL254002   5.090   8.123   6.150
 7493POPC   C1A54003   5.071   8.191   6.450
 7493POPC   D2A54004   5.084   8.174   6.750
 7493POPC   C3A54005   5.093   8.193   7.050
 7493POPC   C4A54006   5.060   8.188   7.350
 7493POPC   C1B54007   5.101   7.938   6.450
 7493POPC   C2B54008   5.196   7.993   6.750
 7493POPC   C3B54009   5.161   7.905   7.050
 7493POPC   C4B54010   5.146   7.940   7.350
 7494POPC   NC354011  30.680  40.766   5.550
 7494POPC   PO454012  30.689  40.788   5.850
 7494POPC   GL154013  30.689  40.751   6.150
 7494POPC   GL254014  30.664  40.635   6.150
 7494POPC   C1A54015  30.658  40.793   6.450
 7494POPC   D2A54016  30.664  40.823   6.750
 7494POPC   C3A54017  30.714  40.819   7.050
 7494POPC   C4A54018  30.693  40.772   7.350
 7494POPC   C1B54019  30.609  40.570   6.450
 7494POPC   C2B54020  30.667  40.497   6.750
 7494POPC   C3B54021  30.610  40.523   7.050
 7494POPC   C4B54022  30.605  40.550   7.350
 7495POPC   NC354023  35.362   8.968   5.550
 7495POPC   PO454024  35.355   8.932   5.850
 7495POPC   GL154025  35.376   8.997   6.150
 7495POPC   GL254026  35.236   9.093   6.150
 7495POPC   C1A54027  35.341   8.944   6.450
 7495POPC   D2A54028  35.323   9.006   6.750
 7495POPC   C3A54029  35.305   8.986   7.050
 7495POPC   C4A54030  35.387   8.957   7.350
 7495POPC   C1B54031  35.210   9.135   6.450
 7495POPC   C2B54032  35.163   9.172   6.750
 7495POPC   C3B54033  35.173   9.145   7.050
 7495POPC   C4B54034  35.194   9.102   7.350
 7496POPC   NC354035  14.445   2.019   5.550
 7496POPC   PO454036  14.411   1.985   5.850
 7496POPC   GL154037  14.442   1.990   6.150
 7496POPC   GL254038  14.269   2.031   6.150
 7496POPC   C1A54039  14.383   1.948   6.450
 7496POPC   D2A54040  14.442   2.037   6.750
 7496POPC   C3A54041  14.368   1.940   7.050
 7496POPC   C4A54042  14.441   2.009   7.350
 7496POPC   C1B54043  14.161   2.102   6.450
 7496POPC   C2B54044  14.167   2.062   6.750
 7496POPC   C3B54045  14.133   2.059   7.050
 7496POPC   C4B54046  14.212   2.078   7.350
 7497POPC   NC354047   7.460  32.992   5.550
 7497POPC   PO454048   7.382  33.051   5.850
 7497POPC   GL154049   7.377  33.073   6.150
 7497POPC   GL254050   7.280  33.063   6.150
 7497POPC   C1A54051   7.399  33.046   6.450
 7497POPC   D2A54052   7.373  33.051   6.750
 7497POPC   C3A54053   7.431  32.999   7.050
 7497POPC   C4A54054   7.422  33.048   7.350
 7497POPC   C1B54055   7.185  33.082   6.450
 7497POPC   C2B54056   7.168  33.039   6.750
 7497POPC   C3B54057   7.135  33.010   7.050
 7497POPC   C4B54058   7.220  33.038   7.350
 7498POPC   NC354059  35.315  43.850   5.550
 7498POPC   PO454060  35.305  43.840   5.850
 7498POPC   GL154061  35.371  43.874   6.150
 7498POPC   GL254062  35.352  43.779   6.150
 7498POPC   C1A54063  35.340  43.884   6.450
 7498POPC   D2A54064  35.401  43.867   6.750
 7498POPC   C3A54065  35.321  43.884   7.050
 7498POPC   C4A54066  35.390  43.919   7.350
 7498POPC   C1B54067  35.420  43.701   6.450
 7498POPC   C2B54068  35.441  43.671   6.750
 7498POPC   C3B54069  35.399  43.672   7.050
 7498POPC   C4B54070  35.421  43.691   7.350
 7499POPC   NC354071   8.973   1.987   5.550
 7499POPC   PO454072   8.965   1.946   5.850
 7499POPC   GL154073   9.014   2.032   6.150
 7499POPC   GL254074   8.958   2.065   6.150
 7499POPC   C1A54075   8.923   1.998   6.450
 7499POPC   D2A54076   8.987   1.974   6.750
 7499POPC   C3A54077   8.953   1.995   7.050
 7499POPC   C4A54078   8.986   1.955   7.350
 7499POPC   C1B54079   8.850   2.258   6.450
 7499POPC   C2B54080   8.868   2.264   6.750
 7499POPC   C3B54081   8.868   2.228   7.050
 7499POPC   C4B54082   8.909   2.190   7.350
 7500POPC   NC354083  29.127  24.527   5.550
 7500POPC   PO454084  29.135  24.467   5.850
 7500POPC   GL154085  29.116  24.515   6.150
 7500POPC   GL254086  29.168  24.651   6.150
 7500POPC   C1A54087  29.135  24.459   6.450
 7500POPC   D2A54088  29.167  24.450   6.750
 7500POPC   C3A54089  29.186  24.476   7.050
 7500POPC   C4A54090  29.190  24.535   7.350
 7500POPC   C1B54091  29.214  24.763   6.450
 7500POPC   C2B54092  29.157  24.694   6.750
 7500POPC   C3B54093  29.126  24.697   7.050
 7500POPC   C4B54094  29.149  24.741   7.350
 7501POPC   NC354095   4.291   5.905   5.550
 7501POPC   PO454096   4.278   5.876   5.850
 7501POPC   GL154097   4.299   5.825   6.150
 7501POPC   GL254098   4.277   5.955   6.150
 7501POPC   C1A54099   4.325   5.845   6.450
 7501POPC   D2A54100   4.285   5.837   6.750
 7501POPC   C3A54101   4.365   5.887   7.050
 7501POPC   C4A54102   4.312   5.866   7.350
 7501POPC   C1B54103   4.359   6.102   6.450
 7501POPC   C2B54104   4.352   6.132   6.750
 7501POPC   C3B54105   4.317   6.102   7.050
 7501POPC   C4B54106   4.369   6.081   7.350
 7502POPC   NC354107  32.292   5.093   5.550
 7502POPC   PO454108  32.269   5.057   5.850
 7502POPC   GL154109  32.288   5.103   6.150
 7502POPC   GL254110  32.162   5.213   6.150
 7502POPC   C1A54111  32.207   5.072   6.450
 7502POPC   D2A54112  32.236   5.119   6.750
 7502POPC   C3A54113  32.247   5.139   7.050
 7502POPC   C4A54114  32.251   5.134   7.350
 7502POPC   C1B54115  32.057   5.264   6.450
 7502POPC   C2B54116  32.044   5.237   6.750
 7502POPC   C3B54117  32.082   5.261   7.050
 7502POPC   C4B54118  32.106   5.284   7.350
 7503POPC   NC354119   2.745  14.403   5.550
 7503POPC   PO454120   2.737  14.402   5.850
 7503POPC   GL154121   2.742  14.386   6.150
 7503POPC   GL254122   2.646  14.377   6.150
 7503POPC   C1A54123   2.770  14.405   6.450
 7503POPC   D2A54124   2.762  14.451   6.750
 7503POPC   C3A54125   2.764  14.419   7.050
 7503POPC   C4A54126   2.757  14.354   7.350
 7503POPC   C1B54127   2.531  14.346   6.450
 7503POPC   C2B54128   2.557  14.272   6.750
 7503POPC   C3B54129   2.560  14.331   7.050
 7503POPC   C4B54130   2.524  14.320   7.350
 7504POPC   NC354131  15.206   5.043   5.550
 7504POPC   PO454132  15.195   5.094   5.850
 7504POPC   GL154133  15.161   5.098   6.150
 7504POPC   GL254134  15.015   5.020   6.150
 7504POPC   C1A54135  15.134   5.097   6.450
 7504POPC   D2A54136  15.139   5.100   6.750
 7504POPC   C3A54137  15.188   5.097   7.050
 7504POPC   C4A54138  15.130   5.097   7.350
 7504POPC   C1B54139  14.986   4.995   6.450
 7504POPC   C2B54140  14.985   4.972   6.750
 7504POPC   C3B54141  14.895   4.993   7.050
 7504POPC   C4B54142  14.978   4.960   7.350
 7505POPC   NC354143  22.929  33.836   5.550
 7505POPC   PO454144  22.970  33.758   5.850
 7505POPC   GL154145  22.949  33.822   6.150
 7505POPC   GL254146  22.883  33.679   6.150
 7505POPC   C1A54147  22.921  33.789   6.450
 7505POPC   D2A54148  22.923  33.788   6.750
 7505POPC   C3A54149  22.894  33.754   7.050
 7505POPC   C4A54150  22.933  33.835   7.350
 7505POPC   C1B54151  22.695  33.619   6.450
 7505POPC   C2B54152  22.723  33.661   6.750
 7505POPC   C3B54153  22.715  33.609   7.050
 7505POPC   C4B54154  22.718  33.698   7.350
 7506POPC   NC354155  25.281   7.470   5.550
 7506POPC   PO454156  25.277   7.428   5.850
 7506POPC   GL154157  25.275   7.436   6.150
 7506POPC   GL254158  25.126   7.343   6.150
 7506POPC   C1A54159  25.297   7.400   6.450
 7506POPC   D2A54160  25.313   7.441   6.750
 7506POPC   C3A54161  25.280   7.434   7.050
 7506POPC   C4A54162  25.245   7.397   7.350
 7506POPC   C1B54163  25.066   7.308   6.450
 7506POPC   C2B54164  25.047   7.316   6.750
 7506POPC   C3B54165  25.062   7.237   7.050
 7506POPC   C4B54166  25.103   7.254   7.350
 7507POPC   NC354167  42.352  43.084   5.550
 7507POPC   PO454168  42.289  43.104   5.850
 7507POPC   GL154169  42.287  43.062   6.150
 7507POPC   GL254170  42.363  43.029   6.150
 7507POPC   C1A54171  42.286  43.131   6.450
 7507POPC   D2A54172  42.313  43.133   6.750
 7507POPC   C3A54173  42.293  43.148   7.050
 7507POPC   C4A54174  42.349  43.131   7.350
 7507POPC   C1B54175  42.431  42.871   6.450
 7507POPC   C2B54176  42.385  42.894   6.750
 7507POPC   C3B54177  42.409  42.863   7.050
 7507POPC   C4B54178  42.467  42.882   7.350
 7508POPC   NC354179  41.584   8.176   5.550
 7508POPC   PO454180  41.559   8.229   5.850
 7508POPC   GL154181  41.575   8.175   6.150
 7508POPC   GL254182  41.646   8.112   6.150
 7508POPC   C1A54183  41.531   8.170   6.450
 7508POPC   D2A54184  41.528   8.199   6.750
 7508POPC   C3A54185  41.556   8.188   7.050
 7508POPC   C4A54186  41.581   8.220   7.350
 7508POPC   C1B54187  41.778   8.121   6.450
 7508POPC   C2B54188  41.807   8.064   6.750
 7508POPC   C3B54189  41.779   8.073   7.050
 7508POPC   C4B54190  41.777   8.101   7.350
 7509POPC   NC354191  41.589  43.147   5.550
 7509POPC   PO454192  41.545  43.064   5.850
 7509POPC   GL154193  41.532  43.064   6.150
 7509POPC   GL254194  41.475  43.098   6.150
 7509POPC   C1A54195  41.576  43.136   6.450
 7509POPC   D2A54196  41.524  43.146   6.750
 7509POPC   C3A54197  41.527  43.114   7.050
 7509POPC   C4A54198  41.546  43.139   7.350
 7509POPC   C1B54199  41.320  42.979   6.450
 7509POPC   C2B54200  41.303  42.952   6.750
 7509POPC   C3B54201  41.317  43.042   7.050
 7509POPC   C4B54202  41.298  42.965   7.350
 7510POPC   NC354203  20.622  37.632   5.550
 7510POPC   PO454204  20.576  37.656   5.850
 7510POPC   GL154205  20.616  37.700   6.150
 7510POPC   GL254206  20.481  37.769   6.150
 7510POPC   C1A54207  20.608  37.658   6.450
 7510POPC   D2A54208  20.619  37.720   6.750
 7510POPC   C3A54209  20.609  37.695   7.050
 7510POPC   C4A54210  20.591  37.641   7.350
 7510POPC   C1B54211  20.405  37.747   6.450
 7510POPC   C2B54212  20.362  37.829   6.750
 7510POPC   C3B54213  20.340  37.815   7.050
 7510POPC   C4B54214  20.381  37.784   7.350
 7511POPC   NC354215  37.711  14.382   5.550
 7511POPC   PO454216  37.724  14.383   5.850
 7511POPC   GL154217  37.716  14.419   6.150
 7511POPC   GL254218  37.730  14.270   6.150
 7511POPC   C1A54219  37.647  14.436   6.450
 7511POPC   D2A54220  37.688  14.371   6.750
 7511POPC   C3A54221  37.648  14.452   7.050
 7511POPC   C4A54222  37.719  14.434   7.350
 7511POPC   C1B54223  37.785  14.166   6.450
 7511POPC   C2B54224  37.773  14.135   6.750
 7511POPC   C3B54225  37.744  14.198   7.050
 7511POPC   C4B54226  37.747  14.130   7.350
 7512POPC   NC354227  31.474  26.865   5.550
 7512POPC   PO454228  31.433  26.823   5.850
 7512POPC   GL154229  31.492  26.796   6.150
 7512POPC   GL254230  31.388  26.754   6.150
 7512POPC   C1A54231  31.432  26.813   6.450
 7512POPC   D2A54232  31.472  26.847   6.750
 7512POPC   C3A54233  31.460  26.860   7.050
 7512POPC   C4A54234  31.444  26.800   7.350
 7512POPC   C1B54235  31.219  26.801   6.450
 7512POPC   C2B54236  31.184  26.785   6.750
 7512POPC   C3B54237  31.195  26.787   7.050
 7512POPC   C4B54238  31.187  26.747   7.350
 7513POPC   NC354239  20.608  10.528   5.550
 7513POPC   PO454240  20.577  10.526   5.850
 7513POPC   GL154241  20.593  10.568   6.150
 7513POPC   GL254242  20.730  10.561   6.150
 7513POPC   C1A54243  20.634  10.509   6.450
 7513POPC   D2A54244  20.626  10.517   6.750
 7513POPC   C3A54245  20.635  10.522   7.050
 7513POPC   C4A54246  20.600  10.549   7.350
 7513POPC   C1B54247  20.754  10.733   6.450
 7513POPC   C2B54248  20.749  10.730   6.750
 7513POPC   C3B54249  20.833  10.683   7.050
 7513POPC   C4B54250  20.805  10.736   7.350
 7514POPC   NC354251   3.551  30.729   5.550
 7514POPC   PO454252   3.589  30.648   5.850
 7514POPC   GL154253   3.533  30.735   6.150
 7514POPC   GL254254   3.621  30.693   6.150
 7514POPC   C1A54255   3.537  30.688   6.450
 7514POPC   D2A54256   3.511  30.672   6.750
 7514POPC   C3A54257   3.575  30.691   7.050
 7514POPC   C4A54258   3.503  30.746   7.350
 7514POPC   C1B54259   3.823  30.615   6.450
 7514POPC   C2B54260   3.819  30.671   6.750
 7514POPC   C3B54261   3.776  30.577   7.050
 7514POPC   C4B54262   3.796  30.626   7.350
 7515POPC   NC354263  29.904  15.909   5.550
 7515POPC   PO454264  29.942  15.938   5.850
 7515POPC   GL154265  29.898  15.960   6.150
 7515POPC   GL254266  29.785  15.943   6.150
 7515POPC   C1A54267  29.941  15.923   6.450
 7515POPC   D2A54268  29.929  15.974   6.750
 7515POPC   C3A54269  29.907  15.994   7.050
 7515POPC   C4A54270  29.882  15.912   7.350
 7515POPC   C1B54271  29.675  15.932   6.450
 7515POPC   C2B54272  29.672  15.870   6.750
 7515POPC   C3B54273  29.707  15.863   7.050
 7515POPC   C4B54274  29.715  15.882   7.350
 7516POPC   NC354275  33.774  32.242   5.550
 7516POPC   PO454276  33.823  32.273   5.850
 7516POPC   GL154277  33.839  32.283   6.150
 7516POPC   GL254278  33.900  32.368   6.150
 7516POPC   C1A54279  33.788  32.279   6.450
 7516POPC   D2A54280  33.780  32.213   6.750
 7516POPC   C3A54281  33.822  32.246   7.050
 7516POPC   C4A54282  33.809  32.245   7.350
 7516POPC   C1B54283  33.945  32.449   6.450
 7516POPC   C2B54284  33.953  32.423   6.750
 7516POPC   C3B54285  34.005  32.392   7.050
 7516POPC   C4B54286  33.930  32.449   7.350
 7517POPC   NC354287   7.437  17.476   5.550
 7517POPC   PO454288   7.437  17.541   5.850
 7517POPC   GL154289   7.377  17.512   6.150
 7517POPC   GL254290   7.253  17.430   6.150
 7517POPC   C1A54291   7.387  17.501   6.450
 7517POPC   D2A54292   7.470  17.476   6.750
 7517POPC   C3A54293   7.405  17.509   7.050
 7517POPC   C4A54294   7.466  17.458   7.350
 7517POPC   C1B54295   7.173  17.434   6.450
 7517POPC   C2B54296   7.177  17.429   6.750
 7517POPC   C3B54297   7.184  17.425   7.050
 7517POPC   C4B54298   7.196  17.426   7.350
 7518POPC   NC354299   8.233  38.468   5.550
 7518POPC   PO454300   8.162  38.488   5.850
 7518POPC   GL154301   8.226  38.463   6.150
 7518POPC   GL254302   8.096  38.437   6.150
 7518POPC   C1A54303   8.182  38.429   6.450
 7518POPC   D2A54304   8.209  38.496   6.750
 7518POPC   C3A54305   8.194  38.452   7.050
 7518POPC   C4A54306   8.234  38.503   7.350
 7518POPC   C1B54307   7.901  38.501   6.450
 7518POPC   C2B54308   7.994  38.541   6.750
 7518POPC   C3B54309   7.913  38.493   7.050
 7518POPC   C4B54310   7.979  38.545   7.350
 7519POPC   NC354311  44.652   1.179   5.550
 7519POPC   PO454312  44.708   1.255   5.850
 7519POPC   GL154313  44.658   1.243   6.150
 7519POPC   GL254314  44.640   1.088   6.150
 7519POPC   C1A54315  44.696   1.227   6.450
 7519POPC   D2A54316  44.688   1.225   6.750
 7519POPC   C3A54317  44.623   1.217   7.050
 7519POPC   C4A54318  44.619   1.262   7.350
 7519POPC   C1B54319  44.521   1.024   6.450
 7519POPC   C2B54320  44.587   0.963   6.750
 7519POPC   C3B54321  44.550   1.026   7.050
 7519POPC   C4B54322  44.588   0.934   7.350
 7520POPC   NC354323  26.854  22.975   5.550
 7520POPC   PO454324  26.801  22.944   5.850
 7520POPC   GL154325  26.852  22.976   6.150
 7520POPC   GL254326  26.886  22.836   6.150
 7520POPC   C1A54327  26.786  22.899   6.450
 7520POPC   D2A54328  26.810  22.964   6.750
 7520POPC   C3A54329  26.821  22.985   7.050
 7520POPC   C4A54330  26.771  22.946   7.350
 7520POPC   C1B54331  26.900  22.714   6.450
 7520POPC   C2B54332  26.986  22.688   6.750
 7520POPC   C3B54333  26.928  22.730   7.050
 7520POPC   C4B54334  26.957  22.759   7.350
 7521POPC   NC354335  26.018  19.065   5.550
 7521POPC   PO454336  25.996  19.057   5.850
 7521POPC   GL154337  26.007  19.012   6.150
 7521POPC   GL254338  26.067  18.935   6.150
 7521POPC   C1A54339  26.012  19.020   6.450
 7521POPC   D2A54340  26.068  19.037   6.750
 7521POPC   C3A54341  26.054  19.060   7.050
 7521POPC   C4A54342  26.065  19.082   7.350
 7521POPC   C1B54343  26.079  18.780   6.450
 7521POPC   C2B54344  26.056  18.769   6.750
 7521POPC   C3B54345  26.017  18.804   7.050
 7521POPC   C4B54346  26.093  18.804   7.350
 7522POPC   NC354347  11.290  41.568   5.550
 7522POPC   PO454348  11.271  41.577   5.850
 7522POPC   GL154349  11.285  41.552   6.150
 7522POPC   GL254350  11.404  41.482   6.150
 7522POPC   C1A54351  11.331  41.534   6.450
 7522POPC   D2A54352  11.344  41.579   6.750
 7522POPC   C3A54353  11.293  41.589   7.050
 7522POPC   C4A54354  11.301  41.510   7.350
 7522POPC   C1B54355  11.571  41.555   6.450
 7522POPC   C2B54356  11.560  41.533   6.750
 7522POPC   C3B54357  11.555  41.544   7.050
 7522POPC   C4B54358  11.535  41.498   7.350
 7523POPC   NC354359   2.745  15.153   5.550
 7523POPC   PO454360   2.809  15.224   5.850
 7523POPC   GL154361   2.754  15.201   6.150
 7523POPC   GL254362   2.708  15.091   6.150
 7523POPC   C1A54363   2.739  15.205   6.450
 7523POPC   D2A54364   2.808  15.202   6.750
 7523POPC   C3A54365   2.815  15.152   7.050
 7523POPC   C4A54366   2.763  15.211   7.350
 7523POPC   C1B54367   2.643  14.936   6.450
 7523POPC   C2B54368   2.629  14.950   6.750
 7523POPC   C3B54369   2.639  14.955   7.050
 7523POPC   C4B54370   2.685  14.957   7.350
 7524POPC   NC354371  12.831   5.109   5.550
 7524POPC   PO454372  12.839   5.114   5.850
 7524POPC   GL154373  12.844   5.069   6.150
 7524POPC   GL254374  12.773   5.148   6.150
 7524POPC   C1A54375  12.842   5.069   6.450
 7524POPC   D2A54376  12.807   5.052   6.750
 7524POPC   C3A54377  12.821   5.128   7.050
 7524POPC   C4A54378  12.837   5.054   7.350
 7524POPC   C1B54379  12.610   5.225   6.450
 7524POPC   C2B54380  12.600   5.253   6.750
 7524POPC   C3B54381  12.684   5.204   7.050
 7524POPC   C4B54382  12.633   5.196   7.350
 7525POPC   NC354383  13.675  30.739   5.550
 7525POPC   PO454384  13.605  30.735   5.850
 7525POPC   GL154385  13.608  30.658   6.150
 7525POPC   GL254386  13.585  30.623   6.150
 7525POPC   C1A54387  13.660  30.685   6.450
 7525POPC   D2A54388  13.597  30.702   6.750
 7525POPC   C3A54389  13.617  30.726   7.050
 7525POPC   C4A54390  13.657  30.711   7.350
 7525POPC   C1B54391  13.423  30.523   6.450
 7525POPC   C2B54392  13.401  30.517   6.750
 7525POPC   C3B54393  13.413  30.518   7.050
 7525POPC   C4B54394  13.486  30.505   7.350
 7526POPC   NC354395   9.774   8.174   5.550
 7526POPC   PO454396   9.789   8.215   5.850
 7526POPC   GL154397   9.714   8.193   6.150
 7526POPC   GL254398   9.774   8.094   6.150
 7526POPC   C1A54399   9.784   8.188   6.450
 7526POPC   D2A54400   9.730   8.198   6.750
 7526POPC   C3A54401   9.738   8.216   7.050
 7526POPC   C4A54402   9.789   8.164   7.350
 7526POPC   C1B54403   9.836   7.948   6.450
 7526POPC   C2B54404   9.861   7.962   6.750
 7526POPC   C3B54405   9.895   7.981   7.050
 7526POPC   C4B54406   9.855   7.971   7.350
 7527POPC   NC354407  12.035  12.813   5.550
 7527POPC   PO454408  12.066  12.856   5.850
 7527POPC   GL154409  12.030  12.898   6.150
 7527POPC   GL254410  12.179  12.915   6.150
 7527POPC   C1A54411  12.084  12.851   6.450
 7527POPC   D2A54412  12.122  12.818   6.750
 7527POPC   C3A54413  12.106  12.863   7.050
 7527POPC   C4A54414  12.104  12.838   7.350
 7527POPC   C1B54415  12.274  13.056   6.450
 7527POPC   C2B54416  12.276  13.052   6.750
 7527POPC   C3B54417  12.283  13.062   7.050
 7527POPC   C4B54418  12.275  13.078   7.350
 7528POPC   NC354419  34.607   8.963   5.550
 7528POPC   PO454420  34.530   8.937   5.850
 7528POPC   GL154421  34.606   8.969   6.150
 7528POPC   GL254422  34.466   8.933   6.150
 7528POPC   C1A54423  34.542   8.949   6.450
 7528POPC   D2A54424  34.527   8.967   6.750
 7528POPC   C3A54425  34.567   8.947   7.050
 7528POPC   C4A54426  34.601   8.982   7.350
 7528POPC   C1B54427  34.361   8.907   6.450
 7528POPC   C2B54428  34.301   8.913   6.750
 7528POPC   C3B54429  34.353   8.887   7.050
 7528POPC   C4B54430  34.321   8.873   7.350
 7529POPC   NC354431  39.191  30.695   5.550
 7529POPC   PO454432  39.185  30.654   5.850
 7529POPC   GL154433  39.272  30.647   6.150
 7529POPC   GL254434  39.306  30.613   6.150
 7529POPC   C1A54435  39.261  30.691   6.450
 7529POPC   D2A54436  39.195  30.716   6.750
 7529POPC   C3A54437  39.212  30.730   7.050
 7529POPC   C4A54438  39.256  30.721   7.350
 7529POPC   C1B54439  39.353  30.477   6.450
 7529POPC   C2B54440  39.342  30.507   6.750
 7529POPC   C3B54441  39.400  30.492   7.050
 7529POPC   C4B54442  39.383  30.532   7.350
 7530POPC   NC354443  12.109  36.861   5.550
 7530POPC   PO454444  12.086  36.930   5.850
 7530POPC   GL154445  12.074  36.866   6.150
 7530POPC   GL254446  12.065  36.782   6.150
 7530POPC   C1A54447  12.064  36.913   6.450
 7530POPC   D2A54448  12.093  36.911   6.750
 7530POPC   C3A54449  12.079  36.904   7.050
 7530POPC   C4A54450  12.122  36.887   7.350
 7530POPC   C1B54451  12.029  36.613   6.450
 7530POPC   C2B54452  12.014  36.697   6.750
 7530POPC   C3B54453  12.026  36.610   7.050
 7530POPC   C4B54454  12.019  36.648   7.350
 7531POPC   NC354455  23.720   5.844   5.550
 7531POPC   PO454456  23.730   5.869   5.850
 7531POPC   GL154457  23.676   5.861   6.150
 7531POPC   GL254458  23.846   5.925   6.150
 7531POPC   C1A54459  23.704   5.900   6.450
 7531POPC   D2A54460  23.733   5.878   6.750
 7531POPC   C3A54461  23.744   5.860   7.050
 7531POPC   C4A54462  23.694   5.872   7.350
 7531POPC   C1B54463  23.938   6.010   6.450
 7531POPC   C2B54464  23.889   5.990   6.750
 7531POPC   C3B54465  23.943   5.977   7.050
 7531POPC   C4B54466  23.866   6.030   7.350
 7532POPC   NC354467   7.389  24.492   5.550
 7532POPC   PO454468   7.461  24.470   5.850
 7532POPC   GL154469   7.389  24.479   6.150
 7532POPC   GL254470   7.536  24.469   6.150
 7532POPC   C1A54471   7.462  24.537   6.450
 7532POPC   D2A54472   7.443  24.527   6.750
 7532POPC   C3A54473   7.432  24.535   7.050
 7532POPC   C4A54474   7.449  24.487   7.350
 7532POPC   C1B54475   7.700  24.498   6.450
 7532POPC   C2B54476   7.700  24.492   6.750
 7532POPC   C3B54477   7.646  24.520   7.050
 7532POPC   C4B54478   7.651  24.542   7.350
 7533POPC   NC354479  33.752  31.513   5.550
 7533POPC   PO454480  33.822  31.451   5.850
 7533POPC   GL154481  33.774  31.508   6.150
 7533POPC   GL254482  33.755  31.626   6.150
 7533POPC   C1A54483  33.758  31.463   6.450
 7533POPC   D2A54484  33.821  31.463   6.750
 7533POPC   C3A54485  33.821  31.498   7.050
 7533POPC   C4A54486  33.832  31.493   7.350
 7533POPC   C1B54487  33.766  31.688   6.450
 7533POPC   C2B54488  33.795  31.710   6.750
 7533POPC   C3B54489  33.751  31.755   7.050
 7533POPC   C4B54490  33.750  31.751   7.350
 7534POPC   NC354491  33.774   1.999   5.550
 7534POPC   PO454492  33.765   1.979   5.850
 7534POPC   GL154493  33.800   2.018   6.150
 7534POPC   GL254494  33.738   2.073   6.150
 7534POPC   C1A54495  33.784   1.988   6.450
 7534POPC   D2A54496  33.845   1.990   6.750
 7534POPC   C3A54497  33.788   1.981   7.050
 7534POPC   C4A54498  33.849   1.951   7.350
 7534POPC   C1B54499  33.656   2.158   6.450
 7534POPC   C2B54500  33.584   2.122   6.750
 7534POPC   C3B54501  33.651   2.127   7.050
 7534POPC   C4B54502  33.575   2.127   7.350
 7535POPC   NC354503   2.802  16.766   5.550
 7535POPC   PO454504   2.798  16.708   5.850
 7535POPC   GL154505   2.779  16.690   6.150
 7535POPC   GL254506   2.652  16.600   6.150
 7535POPC   C1A54507   2.749  16.762   6.450
 7535POPC   D2A54508   2.741  16.724   6.750
 7535POPC   C3A54509   2.777  16.698   7.050
 7535POPC   C4A54510   2.757  16.689   7.350
 7535POPC   C1B54511   2.642  16.559   6.450
 7535POPC   C2B54512   2.572  16.575   6.750
 7535POPC   C3B54513   2.566  16.587   7.050
 7535POPC   C4B54514   2.623  16.527   7.350
 7536POPC   NC354515   3.566  22.141   5.550
 7536POPC   PO454516   3.539  22.175   5.850
 7536POPC   GL154517   3.502  22.190   6.150
 7536POPC   GL254518   3.674  22.167   6.150
 7536POPC   C1A54519   3.545  22.184   6.450
 7536POPC   D2A54520   3.528  22.154   6.750
 7536POPC   C3A54521   3.527  22.138   7.050
 7536POPC   C4A54522   3.510  22.151   7.350
 7536POPC   C1B54523   3.820  22.210   6.450
 7536POPC   C2B54524   3.781  22.183   6.750
 7536POPC   C3B54525   3.752  22.170   7.050
 7536POPC   C4B54526   3.752  22.173   7.350
 7537POPC   NC354527  25.260  19.793   5.550
 7537POPC   PO454528  25.289  19.787   5.850
 7537POPC   GL154529  25.294  19.807   6.150
 7537POPC   GL254530  25.091  19.789   6.150
 7537POPC   C1A54531  25.256  19.807   6.450
 7537POPC   D2A54532  25.297  19.846   6.750
 7537POPC   C3A54533  25.302  19.796   7.050
 7537POPC   C4A54534  25.272  19.883   7.350
 7537POPC   C1B54535  24.993  19.779   6.450
 7537POPC   C2B54536  25.016  19.787   6.750
 7537POPC   C3B54537  25.022  19.808   7.050
 7537POPC   C4B54538  24.994  19.860   7.350
 7538POPC   NC354539  35.337  32.234   5.550
 7538POPC   PO454540  35.332  32.239   5.850
 7538POPC   GL154541  35.386  32.263   6.150
 7538POPC   GL254542  35.253  32.319   6.150
 7538POPC   C1A54543  35.359  32.284   6.450
 7538POPC   D2A54544  35.328  32.293   6.750
 7538POPC   C3A54545  35.351  32.222   7.050
 7538POPC   C4A54546  35.351  32.224   7.350
 7538POPC   C1B54547  35.149  32.377   6.450
 7538POPC   C2B54548  35.147  32.392   6.750
 7538POPC   C3B54549  35.160  32.352   7.050
 7538POPC   C4B54550  35.159  32.407   7.350
 7539POPC   NC354551  22.114  20.616   5.550
 7539POPC   PO454552  22.124  20.641   5.850
 7539POPC   GL154553  22.121  20.637   6.150
 7539POPC   GL254554  22.079  20.696   6.150
 7539POPC   C1A54555  22.142  20.652   6.450
 7539POPC   D2A54556  22.196  20.618   6.750
 7539POPC   C3A54557  22.187  20.644   7.050
 7539POPC   C4A54558  22.149  20.588   7.350
 7539POPC   C1B54559  21.940  20.736   6.450
 7539POPC   C2B54560  21.946  20.712   6.750
 7539POPC   C3B54561  21.907  20.757   7.050
 7539POPC   C4B54562  21.990  20.777   7.350
 7540POPC   NC354563  43.892  17.492   5.550
 7540POPC   PO454564  43.850  17.531   5.850
 7540POPC   GL154565  43.846  17.489   6.150
 7540POPC   GL254566  43.933  17.419   6.150
 7540POPC   C1A54567  43.881  17.523   6.450
 7540POPC   D2A54568  43.847  17.495   6.750
 7540POPC   C3A54569  43.848  17.459   7.050
 7540POPC   C4A54570  43.889  17.530   7.350
 7540POPC   C1B54571  44.020  17.281   6.450
 7540POPC   C2B54572  44.065  17.268   6.750
 7540POPC   C3B54573  44.045  17.266   7.050
 7540POPC   C4B54574  44.056  17.313   7.350
 7541POPC   NC354575  16.748   4.327   5.550
 7541POPC   PO454576  16.750   4.277   5.850
 7541POPC   GL154577  16.736   4.322   6.150
 7541POPC   GL254578  16.656   4.176   6.150
 7541POPC   C1A54579  16.686   4.337   6.450
 7541POPC   D2A54580  16.744   4.330   6.750
 7541POPC   C3A54581  16.753   4.334   7.050
 7541POPC   C4A54582  16.719   4.319   7.350
 7541POPC   C1B54583  16.719   4.041   6.450
 7541POPC   C2B54584  16.667   4.120   6.750
 7541POPC   C3B54585  16.693   4.099   7.050
 7541POPC   C4B54586  16.702   4.105   7.350
 7542POPC   NC354587   2.015  24.482   5.550
 7542POPC   PO454588   2.009  24.491   5.850
 7542POPC   GL154589   2.025  24.473   6.150
 7542POPC   GL254590   1.966  24.595   6.150
 7542POPC   C1A54591   1.993  24.454   6.450
 7542POPC   D2A54592   1.962  24.482   6.750
 7542POPC   C3A54593   1.975  24.528   7.050
 7542POPC   C4A54594   1.971  24.531   7.350
 7542POPC   C1B54595   1.867  24.708   6.450
 7542POPC   C2B54596   1.904  24.655   6.750
 7542POPC   C3B54597   1.903  24.715   7.050
 7542POPC   C4B54598   1.833  24.664   7.350
 7543POPC   NC354599  12.030  40.809   5.550
 7543POPC   PO454600  12.045  40.766   5.850
 7543POPC   GL154601  12.059  40.791   6.150
 7543POPC   GL254602  11.998  40.694   6.150
 7543POPC   C1A54603  12.098  40.808   6.450
 7543POPC   D2A54604  12.064  40.733   6.750
 7543POPC   C3A54605  12.070  40.759   7.050
 7543POPC   C4A54606  12.056  40.748   7.350
 7543POPC   C1B54607  11.962  40.554   6.450
 7543POPC   C2B54608  11.960  40.578   6.750
 7543POPC   C3B54609  11.982  40.573   7.050
 7543POPC   C4B54610  11.977  40.525   7.350
 7544POPC   NC354611  22.892   1.947   5.550
 7544POPC   PO454612  22.975   1.989   5.850
 7544POPC   GL154613  22.945   2.010   6.150
 7544POPC   GL254614  22.986   2.069   6.150
 7544POPC   C1A54615  22.968   1.975   6.450
 7544POPC   D2A54616  22.985   2.011   6.750
 7544POPC   C3A54617  22.964   1.961   7.050
 7544POPC   C4A54618  22.942   1.996   7.350
 7544POPC   C1B54619  23.021   2.252   6.450
 7544POPC   C2B54620  22.965   2.274   6.750
 7544POPC   C3B54621  22.996   2.209   7.050
 7544POPC   C4B54622  22.947   2.203   7.350
 7545POPC   NC354623  29.170  14.447   5.550
 7545POPC   PO454624  29.161  14.391   5.850
 7545POPC   GL154625  29.123  14.376   6.150
 7545POPC   GL254626  29.272  14.371   6.150
 7545POPC   C1A54627  29.176  14.358   6.450
 7545POPC   D2A54628  29.189  14.398   6.750
 7545POPC   C3A54629  29.191  14.440   7.050
 7545POPC   C4A54630  29.148  14.393   7.350
 7545POPC   C1B54631  29.389  14.345   6.450
 7545POPC   C2B54632  29.397  14.341   6.750
 7545POPC   C3B54633  29.428  14.334   7.050
 7545POPC   C4B54634  29.439  14.409   7.350
 7546POPC   NC354635  40.048  43.110   5.550
 7546POPC   PO454636  40.025  43.152   5.850
 7546POPC   GL154637  40.006  43.120   6.150
 7546POPC   GL254638  39.979  43.027   6.150
 7546POPC   C1A54639  39.987  43.157   6.450
 7546POPC   D2A54640  39.967  43.128   6.750
 7546POPC   C3A54641  40.056  43.094   7.050
 7546POPC   C4A54642  39.961  43.105   7.350
 7546POPC   C1B54643  39.818  42.862   6.450
 7546POPC   C2B54644  39.825  42.950   6.750
 7546POPC   C3B54645  39.867  42.917   7.050
 7546POPC   C4B54646  39.815  42.916   7.350
 7547POPC   NC354647  43.131  41.532   5.550
 7547POPC   PO454648  43.099  41.592   5.850
 7547POPC   GL154649  43.078  41.518   6.150
 7547POPC   GL254650  43.223  41.421   6.150
 7547POPC   C1A54651  43.117  41.597   6.450
 7547POPC   D2A54652  43.105  41.553   6.750
 7547POPC   C3A54653  43.077  41.585   7.050
 7547POPC   C4A54654  43.127  41.524   7.350
 7547POPC   C1B54655  43.220  41.307   6.450
 7547POPC   C2B54656  43.251  41.330   6.750
 7547POPC   C3B54657  43.212  41.299   7.050
 7547POPC   C4B54658  43.258  41.367   7.350
 7548POPC   NC354659  40.756  37.680   5.550
 7548POPC   PO454660  40.734  37.632   5.850
 7548POPC   GL154661  40.781  37.661   6.150
 7548POPC   GL254662  40.658  37.717   6.150
 7548POPC   C1A54663  40.814  37.705   6.450
 7548POPC   D2A54664  40.786  37.655   6.750
 7548POPC   C3A54665  40.802  37.658   7.050
 7548POPC   C4A54666  40.800  37.687   7.350
 7548POPC   C1B54667  40.536  37.819   6.450
 7548POPC   C2B54668  40.513  37.820   6.750
 7548POPC   C3B54669  40.562  37.795   7.050
 7548POPC   C4B54670  40.523  37.816   7.350
 7549POPC   NC354671  36.864   8.186   5.550
 7549POPC   PO454672  36.855   8.193   5.850
 7549POPC   GL154673  36.875   8.152   6.150
 7549POPC   GL254674  36.964   8.122   6.150
 7549POPC   C1A54675  36.864   8.173   6.450
 7549POPC   D2A54676  36.902   8.183   6.750
 7549POPC   C3A54677  36.886   8.239   7.050
 7549POPC   C4A54678  36.946   8.192   7.350
 7549POPC   C1B54679  36.990   7.973   6.450
 7549POPC   C2B54680  36.987   7.909   6.750
 7549POPC   C3B54681  36.944   7.936   7.050
 7549POPC   C4B54682  36.963   7.948   7.350
 7550POPC   NC354683  26.807   8.214   5.550
 7550POPC   PO454684  26.800   8.216   5.850
 7550POPC   GL154685  26.815   8.158   6.150
 7550POPC   GL254686  26.964   8.234   6.150
 7550POPC   C1A54687  26.848   8.163   6.450
 7550POPC   D2A54688  26.822   8.239   6.750
 7550POPC   C3A54689  26.831   8.156   7.050
 7550POPC   C4A54690  26.828   8.173   7.350
 7550POPC   C1B54691  27.032   8.141   6.450
 7550POPC   C2B54692  27.051   8.214   6.750
 7550POPC   C3B54693  27.101   8.221   7.050
 7550POPC   C4B54694  27.082   8.141   7.350
 7551POPC   NC354695  43.153  18.237   5.550
 7551POPC   PO454696  43.135  18.308   5.850
 7551POPC   GL154697  43.112  18.253   6.150
 7551POPC   GL254698  43.020  18.199   6.150
 7551POPC   C1A54699  43.146  18.271   6.450
 7551POPC   D2A54700  43.144  18.287   6.750
 7551POPC   C3A54701  43.132  18.302   7.050
 7551POPC   C4A54702  43.080  18.301   7.350
 7551POPC   C1B54703  42.960  18.074   6.450
 7551POPC   C2B54704  42.987  18.030   6.750
 7551POPC   C3B54705  43.014  18.049   7.050
 7551POPC   C4B54706  43.001  18.117   7.350
 7552POPC   NC354707  24.485  29.876   5.550
 7552POPC   PO454708  24.517  29.937   5.850
 7552POPC   GL154709  24.450  29.915   6.150
 7552POPC   GL254710  24.604  29.984   6.150
 7552POPC   C1A54711  24.504  29.964   6.450
 7552POPC   D2A54712  24.444  29.961   6.750
 7552POPC   C3A54713  24.483  29.955   7.050
 7552POPC   C4A54714  24.479  29.942   7.350
 7552POPC   C1B54715  24.724  30.001   6.450
 7552POPC   C2B54716  24.766  30.071   6.750
 7552POPC   C3B54717  24.702  30.069   7.050
 7552POPC   C4B54718  24.689  30.014   7.350
 7553POPC   NC354719  40.027  15.987   5.550
 7553POPC   PO454720  39.971  15.905   5.850
 7553POPC   GL154721  40.044  15.940   6.150
 7553POPC   GL254722  40.067  16.018   6.150
 7553POPC   C1A54723  40.031  15.961   6.450
 7553POPC   D2A54724  39.976  15.989   6.750
 7553POPC   C3A54725  39.992  15.962   7.050
 7553POPC   C4A54726  40.029  15.921   7.350
 7553POPC   C1B54727  40.204  16.175   6.450
 7553POPC   C2B54728  40.139  16.136   6.750
 7553POPC   C3B54729  40.220  16.164   7.050
 7553POPC   C4B54730  40.211  16.081   7.350
 7554POPC   NC354731  25.261  33.017   5.550
 7554POPC   PO454732  25.314  33.055   5.850
 7554POPC   GL154733  25.230  33.070   6.150
 7554POPC   GL254734  25.211  32.893   6.150
 7554POPC   C1A54735  25.282  33.057   6.450
 7554POPC   D2A54736  25.273  33.033   6.750
 7554POPC   C3A54737  25.231  33.040   7.050
 7554POPC   C4A54738  25.254  33.058   7.350
 7554POPC   C1B54739  25.092  32.862   6.450
 7554POPC   C2B54740  25.118  32.793   6.750
 7554POPC   C3B54741  25.167  32.806   7.050
 7554POPC   C4B54742  25.128  32.797   7.350
 7555POPC   NC354743  18.233  33.773   5.550
 7555POPC   PO454744  18.235  33.821   5.850
 7555POPC   GL154745  18.243  33.784   6.150
 7555POPC   GL254746  18.196  33.746   6.150
 7555POPC   C1A54747  18.285  33.795   6.450
 7555POPC   D2A54748  18.275  33.811   6.750
 7555POPC   C3A54749  18.285  33.796   7.050
 7555POPC   C4A54750  18.276  33.785   7.350
 7555POPC   C1B54751  18.112  33.675   6.450
 7555POPC   C2B54752  18.099  33.606   6.750
 7555POPC   C3B54753  18.069  33.664   7.050
 7555POPC   C4B54754  18.113  33.623   7.350
 7556POPC   NC354755  43.140  40.812   5.550
 7556POPC   PO454756  43.112  40.812   5.850
 7556POPC   GL154757  43.098  40.792   6.150
 7556POPC   GL254758  43.002  40.749   6.150
 7556POPC   C1A54759  43.154  40.763   6.450
 7556POPC   D2A54760  43.102  40.753   6.750
 7556POPC   C3A54761  43.107  40.795   7.050
 7556POPC   C4A54762  43.111  40.790   7.350
 7556POPC   C1B54763  42.857  40.782   6.450
 7556POPC   C2B54764  42.885  40.802   6.750
 7556POPC   C3B54765  42.857  40.845   7.050
 7556POPC   C4B54766  42.871  40.844   7.350
 7557POPC   NC354767  29.102   2.776   5.550
 7557POPC   PO454768  29.138   2.730   5.850
 7557POPC   GL154769  29.166   2.769   6.150
 7557POPC   GL254770  29.307   2.692   6.150
 7557POPC   C1A54771  29.173   2.766   6.450
 7557POPC   D2A54772  29.194   2.756   6.750
 7557POPC   C3A54773  29.190   2.787   7.050
 7557POPC   C4A54774  29.167   2.720   7.350
 7557POPC   C1B54775  29.413   2.707   6.450
 7557POPC   C2B54776  29.361   2.629   6.750
 7557POPC   C3B54777  29.344   2.703   7.050
 7557POPC   C4B54778  29.366   2.627   7.350
 7558POPC   NC354779  17.485  20.625   5.550
 7558POPC   PO454780  17.477  20.636   5.850
 7558POPC   GL154781  17.498  20.633   6.150
 7558POPC   GL254782  17.468  20.560   6.150
 7558POPC   C1A54783  17.526  20.576   6.450
 7558POPC   D2A54784  17.501  20.635   6.750
 7558POPC   C3A54785  17.519  20.594   7.050
 7558POPC   C4A54786  17.509  20.653   7.350
 7558POPC   C1B54787  17.349  20.394   6.450
 7558POPC   C2B54788  17.317  20.474   6.750
 7558POPC   C3B54789  17.360  20.434   7.050
 7558POPC   C4B54790  17.348  20.462   7.350
 7559POPC   NC354791  35.327  18.325   5.550
 7559POPC   PO454792  35.376  18.283   5.850
 7559POPC   GL154793  35.354  18.277   6.150
 7559POPC   GL254794  35.224  18.288   6.150
 7559POPC   C1A54795  35.379  18.286   6.450
 7559POPC   D2A54796  35.308  18.268   6.750
 7559POPC   C3A54797  35.392  18.324   7.050
 7559POPC   C4A54798  35.320  18.271   7.350
 7559POPC   C1B54799  35.062  18.258   6.450
 7559POPC   C2B54800  35.123  18.193   6.750
 7559POPC   C3B54801  35.137  18.259   7.050
 7559POPC   C4B54802  35.075  18.192   7.350
 7560POPC   NC354803   5.827   1.943   5.550
 7560POPC   PO454804   5.899   1.996   5.850
 7560POPC   GL154805   5.833   2.030   6.150
 7560POPC   GL254806   5.778   2.044   6.150
 7560POPC   C1A54807   5.877   2.037   6.450
 7560POPC   D2A54808   5.860   2.015   6.750
 7560POPC   C3A54809   5.907   2.015   7.050
 7560POPC   C4A54810   5.867   2.023   7.350
 7560POPC   C1B54811   5.689   2.161   6.450
 7560POPC   C2B54812   5.701   2.205   6.750
 7560POPC   C3B54813   5.752   2.135   7.050
 7560POPC   C4B54814   5.705   2.199   7.350
 7561POPC   NC354815  44.636   0.462   5.550
 7561POPC   PO454816  44.623   0.395   5.850
 7561POPC   GL154817  44.616   0.439   6.150
 7561POPC   GL254818  44.744   0.425   6.150
 7561POPC   C1A54819  44.644   0.461   6.450
 7561POPC   D2A54820  44.691   0.442   6.750
 7561POPC   C3A54821  44.646   0.427   7.050
 7561POPC   C4A54822  44.675   0.402   7.350
 7561POPC   C1B54823  44.893   0.423   6.450
 7561POPC   C2B54824  44.881   0.485   6.750
 7561POPC   C3B54825  44.948   0.455   7.050
 7561POPC   C4B54826  44.933   0.463   7.350
 7562POPC   NC354827   5.073   8.962   5.550
 7562POPC   PO454828   5.061   8.979   5.850
 7562POPC   GL154829   5.092   8.940   6.150
 7562POPC   GL254830   5.261   8.952   6.150
 7562POPC   C1A54831   5.099   8.986   6.450
 7562POPC   D2A54832   5.078   8.924   6.750
 7562POPC   C3A54833   5.079   8.962   7.050
 7562POPC   C4A54834   5.094   8.961   7.350
 7562POPC   C1B54835   5.337   8.977   6.450
 7562POPC   C2B54836   5.386   9.020   6.750
 7562POPC   C3B54837   5.387   8.988   7.050
 7562POPC   C4B54838   5.324   9.043   7.350
 7563POPC   NC354839   0.402  21.390   5.550
 7563POPC   PO454840   0.464  21.355   5.850
 7563POPC   GL154841   0.408  21.391   6.150
 7563POPC   GL254842   0.397  21.242   6.150
 7563POPC   C1A54843   0.399  21.386   6.450
 7563POPC   D2A54844   0.397  21.408   6.750
 7563POPC   C3A54845   0.423  21.434   7.050
 7563POPC   C4A54846   0.452  21.363   7.350
 7563POPC   C1B54847   0.382  21.109   6.450
 7563POPC   C2B54848   0.382  21.120   6.750
 7563POPC   C3B54849   0.389  21.180   7.050
 7563POPC   C4B54850   0.390  21.153   7.350
 7564POPC   NC354851  18.300  17.498   5.550
 7564POPC   PO454852  18.292  17.492   5.850
 7564POPC   GL154853  18.320  17.540   6.150
 7564POPC   GL254854  18.292  17.361   6.150
 7564POPC   C1A54855  18.307  17.476   6.450
 7564POPC   D2A54856  18.234  17.476   6.750
 7564POPC   C3A54857  18.323  17.481   7.050
 7564POPC   C4A54858  18.271  17.545   7.350
 7564POPC   C1B54859  18.234  17.281   6.450
 7564POPC   C2B54860  18.250  17.273   6.750
 7564POPC   C3B54861  18.238  17.287   7.050
 7564POPC   C4B54862  18.204  17.215   7.350
 7565POPC   NC354863  39.219   4.278   5.550
 7565POPC   PO454864  39.221   4.288   5.850
 7565POPC   GL154865  39.281   4.298   6.150
 7565POPC   GL254866  39.092   4.261   6.150
 7565POPC   C1A54867  39.256   4.297   6.450
 7565POPC   D2A54868  39.264   4.293   6.750
 7565POPC   C3A54869  39.262   4.343   7.050
 7565POPC   C4A54870  39.215   4.287   7.350
 7565POPC   C1B54871  39.046   4.178   6.450
 7565POPC   C2B54872  39.015   4.208   6.750
 7565POPC   C3B54873  39.009   4.202   7.050
 7565POPC   C4B54874  39.053   4.134   7.350
 7566POPC   NC354875  16.728  38.407   5.550
 7566POPC   PO454876  16.707  38.505   5.850
 7566POPC   GL154877  16.745  38.455   6.150
 7566POPC   GL254878  16.811  38.473   6.150
 7566POPC   C1A54879  16.776  38.492   6.450
 7566POPC   D2A54880  16.759  38.503   6.750
 7566POPC   C3A54881  16.693  38.427   7.050
 7566POPC   C4A54882  16.712  38.480   7.350
 7566POPC   C1B54883  16.909  38.577   6.450
 7566POPC   C2B54884  16.939  38.569   6.750
 7566POPC   C3B54885  16.938  38.558   7.050
 7566POPC   C4B54886  16.988  38.576   7.350
 7567POPC   NC354887  19.076  41.516   5.550
 7567POPC   PO454888  19.099  41.576   5.850
 7567POPC   GL154889  19.061  41.519   6.150
 7567POPC   GL254890  18.980  41.485   6.150
 7567POPC   C1A54891  19.084  41.573   6.450
 7567POPC   D2A54892  19.105  41.551   6.750
 7567POPC   C3A54893  19.024  41.536   7.050
 7567POPC   C4A54894  19.028  41.513   7.350
 7567POPC   C1B54895  18.837  41.454   6.450
 7567POPC   C2B54896  18.777  41.469   6.750
 7567POPC   C3B54897  18.844  41.457   7.050
 7567POPC   C4B54898  18.817  41.429   7.350
 7568POPC   NC354899  30.650  44.633   5.550
 7568POPC   PO454900  30.733  44.633   5.850
 7568POPC   GL154901  30.700  44.682   6.150
 7568POPC   GL254902  30.583  44.685   6.150
 7568POPC   C1A54903  30.662  44.661   6.450
 7568POPC   D2A54904  30.743  44.667   6.750
 7568POPC   C3A54905  30.656  44.705   7.050
 7568POPC   C4A54906  30.674  44.697   7.350
 7568POPC   C1B54907  30.485  44.747   6.450
 7568POPC   C2B54908  30.480  44.669   6.750
 7568POPC   C3B54909  30.487  44.729   7.050
 7568POPC   C4B54910  30.472  44.739   7.350
 7569POPC   NC354911  42.329  35.347   5.550
 7569POPC   PO454912  42.326  35.352   5.850
 7569POPC   GL154913  42.319  35.377   6.150
 7569POPC   GL254914  42.227  35.296   6.150
 7569POPC   C1A54915  42.338  35.315   6.450
 7569POPC   D2A54916  42.365  35.342   6.750
 7569POPC   C3A54917  42.373  35.355   7.050
 7569POPC   C4A54918  42.322  35.401   7.350
 7569POPC   C1B54919  42.139  35.344   6.450
 7569POPC   C2B54920  42.119  35.301   6.750
 7569POPC   C3B54921  42.078  35.263   7.050
 7569POPC   C4B54922  42.064  35.285   7.350
 7570POPC   NC354923  20.602  39.243   5.550
 7570POPC   PO454924  20.618  39.281   5.850
 7570POPC   GL154925  20.579  39.270   6.150
 7570POPC   GL254926  20.723  39.222   6.150
 7570POPC   C1A54927  20.597  39.213   6.450
 7570POPC   D2A54928  20.562  39.262   6.750
 7570POPC   C3A54929  20.607  39.276   7.050
 7570POPC   C4A54930  20.602  39.215   7.350
 7570POPC   C1B54931  20.846  39.142   6.450
 7570POPC   C2B54932  20.883  39.226   6.750
 7570POPC   C3B54933  20.844  39.219   7.050
 7570POPC   C4B54934  20.886  39.217   7.350
 7571POPC   NC354935  17.522  27.606   5.550
 7571POPC   PO454936  17.492  27.572   5.850
 7571POPC   GL154937  17.551  27.566   6.150
 7571POPC   GL254938  17.551  27.442   6.150
 7571POPC   C1A54939  17.515  27.561   6.450
 7571POPC   D2A54940  17.511  27.581   6.750
 7571POPC   C3A54941  17.530  27.565   7.050
 7571POPC   C4A54942  17.510  27.587   7.350
 7571POPC   C1B54943  17.490  27.318   6.450
 7571POPC   C2B54944  17.509  27.307   6.750
 7571POPC   C3B54945  17.528  27.373   7.050
 7571POPC   C4B54946  17.547  27.387   7.350
 7572POPC   NC354947  41.543  32.218   5.550
 7572POPC   PO454948  41.525  32.216   5.850
 7572POPC   GL154949  41.568  32.273   6.150
 7572POPC   GL254950  41.542  32.371   6.150
 7572POPC   C1A54951  41.543  32.246   6.450
 7572POPC   D2A54952  41.584  32.239   6.750
 7572POPC   C3A54953  41.527  32.210   7.050
 7572POPC   C4A54954  41.552  32.241   7.350
 7572POPC   C1B54955  41.612  32.482   6.450
 7572POPC   C2B54956  41.605  32.509   6.750
 7572POPC   C3B54957  41.658  32.520   7.050
 7572POPC   C4B54958  41.607  32.467   7.350
 7573POPC   NC354959  36.933  11.320   5.550
 7573POPC   PO454960  36.866  11.258   5.850
 7573POPC   GL154961  36.888  11.272   6.150
 7573POPC   GL254962  36.979  11.396   6.150
 7573POPC   C1A54963  36.870  11.304   6.450
 7573POPC   D2A54964  36.875  11.342   6.750
 7573POPC   C3A54965  36.891  11.296   7.050
 7573POPC   C4A54966  36.927  11.346   7.350
 7573POPC   C1B54967  37.032  11.477   6.450
 7573POPC   C2B54968  37.130  11.517   6.750
 7573POPC   C3B54969  37.110  11.490   7.050
 7573POPC   C4B54970  37.063  11.482   7.350
 7574POPC   NC354971  32.223  32.221   5.550
 7574POPC   PO454972  32.259  32.264   5.850
 7574POPC   GL154973  32.251  32.215   6.150
 7574POPC   GL254974  32.077  32.270   6.150
 7574POPC   C1A54975  32.243  32.242   6.450
 7574POPC   D2A54976  32.203  32.280   6.750
 7574POPC   C3A54977  32.241  32.230   7.050
 7574POPC   C4A54978  32.262  32.280   7.350
 7574POPC   C1B54979  32.031  32.260   6.450
 7574POPC   C2B54980  32.031  32.296   6.750
 7574POPC   C3B54981  32.010  32.325   7.050
 7574POPC   C4B54982  31.985  32.297   7.350
 7575POPC   NC354983  41.590   9.753   5.550
 7575POPC   PO454984  41.568   9.789   5.850
 7575POPC   GL154985  41.605   9.769   6.150
 7575POPC   GL254986  41.681   9.662   6.150
 7575POPC   C1A54987  41.550   9.698   6.450
 7575POPC   D2A54988  41.592   9.768   6.750
 7575POPC   C3A54989  41.535   9.773   7.050
 7575POPC   C4A54990  41.559   9.702   7.350
 7575POPC   C1B54991  41.763   9.589   6.450
 7575POPC   C2B54992  41.749   9.568   6.750
 7575POPC   C3B54993  41.753   9.607   7.050
 7575POPC   C4B54994  41.763   9.529   7.350
 7576POPC   NC354995  24.536  15.941   5.550
 7576POPC   PO454996  24.520  15.932   5.850
 7576POPC   GL154997  24.453  15.989   6.150
 7576POPC   GL254998  24.598  15.952   6.150
 7576POPC   C1A54999  24.519  15.999   6.450
 7576POPC   D2A55000  24.480  15.992   6.750
 7576POPC   C3A55001  24.499  15.954   7.050
 7576POPC   C4A55002  24.510  15.956   7.350
 7576POPC   C1B55003  24.716  16.062   6.450
 7576POPC   C2B55004  24.738  16.040   6.750
 7576POPC   C3B55005  24.775  15.994   7.050
 7576POPC   C4B55006  24.696  16.015   7.350
 7577POPC   NC355007  36.906   0.443   5.550
 7577POPC   PO455008  36.927   0.424   5.850
 7577POPC   GL155009  36.874   0.442   6.150
 7577POPC   GL255010  36.906   0.349   6.150
 7577POPC   C1A55011  36.912   0.411   6.450
 7577POPC   D2A55012  36.910   0.393   6.750
 7577POPC   C3A55013  36.912   0.477   7.050
 7577POPC   C4A55014  36.893   0.455   7.350
 7577POPC   C1B55015  36.879   0.192   6.450
 7577POPC   C2B55016  36.825   0.202   6.750
 7577POPC   C3B55017  36.798   0.181   7.050
 7577POPC   C4B55018  36.807   0.170   7.350
 7578POPC   NC355019  31.458  36.906   5.550
 7578POPC   PO455020  31.433  36.881   5.850
 7578POPC   GL155021  31.479  36.920   6.150
 7578POPC   GL255022  31.299  36.923   6.150
 7578POPC   C1A55023  31.504  36.930   6.450
 7578POPC   D2A55024  31.493  36.857   6.750
 7578POPC   C3A55025  31.494  36.868   7.050
 7578POPC   C4A55026  31.448  36.923   7.350
 7578POPC   C1B55027  31.204  36.938   6.450
 7578POPC   C2B55028  31.205  36.962   6.750
 7578POPC   C3B55029  31.181  36.944   7.050
 7578POPC   C4B55030  31.243  36.975   7.350
 7579POPC   NC355031  15.944  41.584   5.550
 7579POPC   PO455032  15.979  41.544   5.850
 7579POPC   GL155033  15.984  41.589   6.150
 7579POPC   GL255034  16.020  41.714   6.150
 7579POPC   C1A55035  15.976  41.563   6.450
 7579POPC   D2A55036  15.919  41.553   6.750
 7579POPC   C3A55037  15.958  41.578   7.050
 7579POPC   C4A55038  15.915  41.565   7.350
 7579POPC   C1B55039  16.053  41.830   6.450
 7579POPC   C2B55040  16.042  41.755   6.750
 7579POPC   C3B55041  16.017  41.806   7.050
 7579POPC   C4B55042  15.982  41.757   7.350
 7580POPC   NC355043  31.512  23.697   5.550
 7580POPC   PO455044  31.518  23.755   5.850
 7580POPC   GL155045  31.433  23.721   6.150
 7580POPC   GL255046  31.302  23.760   6.150
 7580POPC   C1A55047  31.454  23.707   6.450
 7580POPC   D2A55048  31.470  23.754   6.750
 7580POPC   C3A55049  31.487  23.667   7.050
 7580POPC   C4A55050  31.515  23.702   7.350
 7580POPC   C1B55051  31.208  23.716   6.450
 7580POPC   C2B55052  31.225  23.773   6.750
 7580POPC   C3B55053  31.176  23.717   7.050
 7580POPC   C4B55054  31.187  23.763   7.350
 7581POPC   NC355055  10.528  33.811   5.550
 7581POPC   PO455056  10.507  33.759   5.850
 7581POPC   GL155057  10.563  33.827   6.150
 7581POPC   GL255058  10.577  33.857   6.150
 7581POPC   C1A55059  10.483  33.786   6.450
 7581POPC   D2A55060  10.511  33.759   6.750
 7581POPC   C3A55061  10.490  33.819   7.050
 7581POPC   C4A55062  10.515  33.850   7.350
 7581POPC   C1B55063  10.683  34.012   6.450
 7581POPC   C2B55064  10.653  33.943   6.750
 7581POPC   C3B55065  10.702  33.966   7.050
 7581POPC   C4B55066  10.657  33.951   7.350
 7582POPC   NC355067  42.360   1.187   5.550
 7582POPC   PO455068  42.361   1.256   5.850
 7582POPC   GL155069  42.352   1.243   6.150
 7582POPC   GL255070  42.209   1.121   6.150
 7582POPC   C1A55071  42.290   1.167   6.450
 7582POPC   D2A55072  42.308   1.261   6.750
 7582POPC   C3A55073  42.311   1.234   7.050
 7582POPC   C4A55074  42.306   1.227   7.350
 7582POPC   C1B55075  42.137   1.019   6.450
 7582POPC   C2B55076  42.160   1.094   6.750
 7582POPC   C3B55077  42.096   1.099   7.050
 7582POPC   C4B55078  42.117   1.042   7.350
 7583POPC   NC355079  16.690  43.101   5.550
 7583POPC   PO455080  16.704  43.156   5.850
 7583POPC   GL155081  16.723  43.091   6.150
 7583POPC   GL255082  16.906  43.072   6.150
 7583POPC   C1A55083  16.756  43.148   6.450
 7583POPC   D2A55084  16.724  43.081   6.750
 7583POPC   C3A55085  16.735  43.086   7.050
 7583POPC   C4A55086  16.687  43.118   7.350
 7583POPC   C1B55087  16.950  43.141   6.450
 7583POPC   C2B55088  16.986  43.139   6.750
 7583POPC   C3B55089  16.996  43.134   7.050
 7583POPC   C4B55090  16.939  43.069   7.350
 7584POPC   NC355091  42.383   7.413   5.550
 7584POPC   PO455092  42.291   7.409   5.850
 7584POPC   GL155093  42.302   7.439   6.150
 7584POPC   GL255094  42.453   7.471   6.150
 7584POPC   C1A55095  42.323   7.383   6.450
 7584POPC   D2A55096  42.319   7.417   6.750
 7584POPC   C3A55097  42.324   7.377   7.050
 7584POPC   C4A55098  42.316   7.421   7.350
 7584POPC   C1B55099  42.603   7.471   6.450
 7584POPC   C2B55100  42.579   7.375   6.750
 7584POPC   C3B55101  42.586   7.401   7.050
 7584POPC   C4B55102  42.622   7.466   7.350
 7585POPC   NC355103  12.902  20.595   5.550
 7585POPC   PO455104  12.896  20.638   5.850
 7585POPC   GL155105  12.806  20.587   6.150
 7585POPC   GL255106  12.930  20.622   6.150
 7585POPC   C1A55107  12.830  20.581   6.450
 7585POPC   D2A55108  12.807  20.657   6.750
 7585POPC   C3A55109  12.872  20.647   7.050
 7585POPC   C4A55110  12.837  20.566   7.350
 7585POPC   C1B55111  13.095  20.589   6.450
 7585POPC   C2B55112  13.068  20.678   6.750
 7585POPC   C3B55113  13.135  20.617   7.050
 7585POPC   C4B55114  13.086  20.639   7.350
 7586POPC   NC355115  13.641  32.285   5.550
 7586POPC   PO455116  13.596  32.231   5.850
 7586POPC   GL155117  13.599  32.267   6.150
 7586POPC   GL255118  13.770  32.175   6.150
 7586POPC   C1A55119  13.593  32.222   6.450
 7586POPC   D2A55120  13.635  32.286   6.750
 7586POPC   C3A55121  13.636  32.206   7.050
 7586POPC   C4A55122  13.607  32.205   7.350
 7586POPC   C1B55123  13.879  32.058   6.450
 7586POPC   C2B55124  13.854  32.145   6.750
 7586POPC   C3B55125  13.803  32.142   7.050
 7586POPC   C4B55126  13.828  32.131   7.350
 7587POPC   NC355127  34.555   6.662   5.550
 7587POPC   PO455128  34.569   6.628   5.850
 7587POPC   GL155129  34.566   6.694   6.150
 7587POPC   GL255130  34.558   6.759   6.150
 7587POPC   C1A55131  34.553   6.643   6.450
 7587POPC   D2A55132  34.549   6.692   6.750
 7587POPC   C3A55133  34.543   6.604   7.050
 7587POPC   C4A55134  34.608   6.645   7.350
 7587POPC   C1B55135  34.543   6.924   6.450
 7587POPC   C2B55136  34.561   6.928   6.750
 7587POPC   C3B55137  34.495   6.891   7.050
 7587POPC   C4B55138  34.578   6.922   7.350
 7588POPC   NC355139  22.113  42.371   5.550
 7588POPC   PO455140  22.175  42.353   5.850
 7588POPC   GL155141  22.170  42.294   6.150
 7588POPC   GL255142  22.279  42.302   6.150
 7588POPC   C1A55143  22.184  42.382   6.450
 7588POPC   D2A55144  22.126  42.319   6.750
 7588POPC   C3A55145  22.201  42.322   7.050
 7588POPC   C4A55146  22.174  42.312   7.350
 7588POPC   C1B55147  22.411  42.332   6.450
 7588POPC   C2B55148  22.391  42.326   6.750
 7588POPC   C3B55149  22.421  42.320   7.050
 7588POPC   C4B55150  22.398  42.347   7.350
 7589POPC   NC355151   1.187  43.903   5.550
 7589POPC   PO455152   1.253  43.847   5.850
 7589POPC   GL155153   1.180  43.886   6.150
 7589POPC   GL255154   1.178  43.992   6.150
 7589POPC   C1A55155   1.192  43.890   6.450
 7589POPC   D2A55156   1.245  43.913   6.750
 7589POPC   C3A55157   1.184  43.929   7.050
 7589POPC   C4A55158   1.185  43.872   7.350
 7589POPC   C1B55159   1.238  44.170   6.450
 7589POPC   C2B55160   1.170  44.097   6.750
 7589POPC   C3B55161   1.174  44.168   7.050
 7589POPC   C4B55162   1.203  44.096   7.350
 7590POPC   NC355163  17.489  28.338   5.550
 7590POPC   PO455164  17.465  28.337   5.850
 7590POPC   GL155165  17.460  28.374   6.150
 7590POPC   GL255166  17.597  28.414   6.150
 7590POPC   C1A55167  17.473  28.332   6.450
 7590POPC   D2A55168  17.539  28.402   6.750
 7590POPC   C3A55169  17.527  28.374   7.050
 7590POPC   C4A55170  17.492  28.403   7.350
 7590POPC   C1B55171  17.729  28.417   6.450
 7590POPC   C2B55172  17.771  28.396   6.750
 7590POPC   C3B55173  17.728  28.368   7.050
 7590POPC   C4B55174  17.777  28.400   7.350
 7591POPC   NC355175  16.003  29.910   5.550
 7591POPC   PO455176  15.972  29.873   5.850
 7591POPC   GL155177  15.969  29.926   6.150
 7591POPC   GL255178  16.001  30.030   6.150
 7591POPC   C1A55179  15.974  29.967   6.450
 7591POPC   D2A55180  15.990  29.950   6.750
 7591POPC   C3A55181  15.994  29.953   7.050
 7591POPC   C4A55182  15.967  29.902   7.350
 7591POPC   C1B55183  15.988  30.169   6.450
 7591POPC   C2B55184  15.986  30.198   6.750
 7591POPC   C3B55185  16.014  30.161   7.050
 7591POPC   C4B55186  16.049  30.209   7.350
 7592POPC   NC355187  37.657   2.719   5.550
 7592POPC   PO455188  37.724   2.780   5.850
 7592POPC   GL155189  37.729   2.753   6.150
 7592POPC   GL255190  37.714   2.853   6.150
 7592POPC   C1A55191  37.697   2.746   6.450
 7592POPC   D2A55192  37.715   2.767   6.750
 7592POPC   C3A55193  37.652   2.771   7.050
 7592POPC   C4A55194  37.640   2.747   7.350
 7592POPC   C1B55195  37.813   2.934   6.450
 7592POPC   C2B55196  37.851   2.968   6.750
 7592POPC   C3B55197  37.839   3.014   7.050
 7592POPC   C4B55198  37.816   2.978   7.350
 7593POPC   NC355199  36.877  36.922   5.550
 7593POPC   PO455200  36.922  36.905   5.850
 7593POPC   GL155201  36.919  36.936   6.150
 7593POPC   GL255202  36.822  37.022   6.150
 7593POPC   C1A55203  36.893  36.929   6.450
 7593POPC   D2A55204  36.945  36.863   6.750
 7593POPC   C3A55205  36.945  36.902   7.050
 7593POPC   C4A55206  36.888  36.864   7.350
 7593POPC   C1B55207  36.758  37.117   6.450
 7593POPC   C2B55208  36.687  37.062   6.750
 7593POPC   C3B55209  36.766  37.114   7.050
 7593POPC   C4B55210  36.732  37.073   7.350
 7594POPC   NC355211  22.910  25.278   5.550
 7594POPC   PO455212  22.977  25.296   5.850
 7594POPC   GL155213  22.917  25.229   6.150
 7594POPC   GL255214  22.956  25.112   6.150
 7594POPC   C1A55215  22.919  25.237   6.450
 7594POPC   D2A55216  22.976  25.259   6.750
 7594POPC   C3A55217  22.905  25.315   7.050
 7594POPC   C4A55218  22.894  25.249   7.350
 7594POPC   C1B55219  22.956  25.065   6.450
 7594POPC   C2B55220  22.983  24.969   6.750
 7594POPC   C3B55221  23.000  25.027   7.050
 7594POPC   C4B55222  22.959  24.968   7.350
 7595POPC   NC355223   7.381  43.848   5.550
 7595POPC   PO455224   7.420  43.855   5.850
 7595POPC   GL155225   7.429  43.903   6.150
 7595POPC   GL255226   7.489  43.753   6.150
 7595POPC   C1A55227   7.393  43.887   6.450
 7595POPC   D2A55228   7.398  43.875   6.750
 7595POPC   C3A55229   7.378  43.875   7.050
 7595POPC   C4A55230   7.410  43.899   7.350
 7595POPC   C1B55231   7.491  43.657   6.450
 7595POPC   C2B55232   7.491  43.627   6.750
 7595POPC   C3B55233   7.509  43.669   7.050
 7595POPC   C4B55234   7.502  43.624   7.350
 7596POPC   NC355235  43.136  30.707   5.550
 7596POPC   PO455236  43.081  30.648   5.850
 7596POPC   GL155237  43.137  30.660   6.150
 7596POPC   GL255238  43.132  30.600   6.150
 7596POPC   C1A55239  43.111  30.650   6.450
 7596POPC   D2A55240  43.063  30.676   6.750
 7596POPC   C3A55241  43.063  30.647   7.050
 7596POPC   C4A55242  43.097  30.696   7.350
 7596POPC   C1B55243  43.245  30.460   6.450
 7596POPC   C2B55244  43.197  30.483   6.750
 7596POPC   C3B55245  43.272  30.515   7.050
 7596POPC   C4B55246  43.269  30.498   7.350
 7597POPC   NC355247  15.184  32.978   5.550
 7597POPC   PO455248  15.174  33.045   5.850
 7597POPC   GL155249  15.145  33.023   6.150
 7597POPC   GL255250  15.057  33.118   6.150
 7597POPC   C1A55251  15.191  33.035   6.450
 7597POPC   D2A55252  15.206  33.022   6.750
 7597POPC   C3A55253  15.187  33.004   7.050
 7597POPC   C4A55254  15.207  32.982   7.350
 7597POPC   C1B55255  14.996  33.141   6.450
 7597POPC   C2B55256  14.925  33.130   6.750
 7597POPC   C3B55257  15.006  33.141   7.050
 7597POPC   C4B55258  14.997  33.129   7.350
 7598POPC   NC355259   6.659  27.575   5.550
 7598POPC   PO455260   6.656  27.586   5.850
 7598POPC   GL155261   6.676  27.594   6.150
 7598POPC   GL255262   6.516  27.619   6.150
 7598POPC   C1A55263   6.679  27.602   6.450
 7598POPC   D2A55264   6.633  27.631   6.750
 7598POPC   C3A55265   6.628  27.583   7.050
 7598POPC   C4A55266   6.690  27.629   7.350
 7598POPC   C1B55267   6.414  27.787   6.450
 7598POPC   C2B55268   6.456  27.737   6.750
 7598POPC   C3B55269   6.479  27.693   7.050
 7598POPC   C4B55270   6.453  27.731   7.350
 7599POPC   NC355271  44.660  30.668   5.550
 7599POPC   PO455272  44.649  30.709   5.850
 7599POPC   GL155273  44.695  30.662   6.150
 7599POPC   GL255274  44.570  30.664   6.150
 7599POPC   C1A55275  44.628  30.658   6.450
 7599POPC   D2A55276  44.672  30.691   6.750
 7599POPC   C3A55277  44.670  30.717   7.050
 7599POPC   C4A55278  44.637  30.670   7.350
 7599POPC   C1B55279  44.396  30.622   6.450
 7599POPC   C2B55280  44.452  30.610   6.750
 7599POPC   C3B55281  44.373  30.620   7.050
 7599POPC   C4B55282  44.404  30.682   7.350
 7600POPC   NC355283   2.744   9.775   5.550
 7600POPC   PO455284   2.743   9.775   5.850
 7600POPC   GL155285   2.802   9.759   6.150
 7600POPC   GL255286   2.662   9.820   6.150
 7600POPC   C1A55287   2.815   9.726   6.450
 7600POPC   D2A55288   2.804   9.743   6.750
 7600POPC   C3A55289   2.736   9.708   7.050
 7600POPC   C4A55290   2.773   9.745   7.350
 7600POPC   C1B55291   2.613   9.941   6.450
 7600POPC   C2B55292   2.661   9.900   6.750
 7600POPC   C3B55293   2.636   9.937   7.050
 7600POPC   C4B55294   2.662   9.912   7.350
 7601POPC   NC355295  30.731   9.018   5.550
 7601POPC   PO455296  30.671   8.941   5.850
 7601POPC   GL155297  30.736   8.968   6.150
 7601POPC   GL255298  30.838   8.975   6.150
 7601POPC   C1A55299  30.718   8.934   6.450
 7601POPC   D2A55300  30.651   9.018   6.750
 7601POPC   C3A55301  30.669   8.943   7.050
 7601POPC   C4A55302  30.697   8.977   7.350
 7601POPC   C1B55303  30.936   8.974   6.450
 7601POPC   C2B55304  30.990   8.998   6.750
 7601POPC   C3B55305  30.902   8.990   7.050
 7601POPC   C4B55306  30.951   9.048   7.350
 7602POPC   NC355307   2.001  30.699   5.550
 7602POPC   PO455308   1.941  30.689   5.850
 7602POPC   GL155309   1.991  30.676   6.150
 7602POPC   GL255310   2.068  30.737   6.150
 7602POPC   C1A55311   2.007  30.694   6.450
 7602POPC   D2A55312   1.951  30.696   6.750
 7602POPC   C3A55313   2.031  30.690   7.050
 7602POPC   C4A55314   2.031  30.680   7.350
 7602POPC   C1B55315   2.194  30.795   6.450
 7602POPC   C2B55316   2.244  30.756   6.750
 7602POPC   C3B55317   2.224  30.723   7.050
 7602POPC   C4B55318   2.214  30.746   7.350
 7603POPC   NC355319   3.513   9.716   5.550
 7603POPC   PO455320   3.544   9.701   5.850
 7603POPC   GL155321   3.587   9.721   6.150
 7603POPC   GL255322   3.397   9.843   6.150
 7603POPC   C1A55323   3.581   9.764   6.450
 7603POPC   D2A55324   3.585   9.744   6.750
 7603POPC   C3A55325   3.530   9.698   7.050
 7603POPC   C4A55326   3.496   9.707   7.350
 7603POPC   C1B55327   3.366   9.912   6.450
 7603POPC   C2B55328   3.383   9.851   6.750
 7603POPC   C3B55329   3.354   9.893   7.050
 7603POPC   C4B55330   3.332   9.931   7.350
 7604POPC   NC355331  39.974  40.769   5.550
 7604POPC   PO455332  40.010  40.815   5.850
 7604POPC   GL155333  40.003  40.746   6.150
 7604POPC   GL255334  39.971  40.923   6.150
 7604POPC   C1A55335  40.008  40.772   6.450
 7604POPC   D2A55336  39.990  40.825   6.750
 7604POPC   C3A55337  40.031  40.817   7.050
 7604POPC   C4A55338  39.972  40.831   7.350
 7604POPC   C1B55339  39.968  41.070   6.450
 7604POPC   C2B55340  39.996  41.009   6.750
 7604POPC   C3B55341  39.989  41.024   7.050
 7604POPC   C4B55342  39.977  41.056   7.350
 7605POPC   NC355343  26.007   8.205   5.550
 7605POPC   PO455344  26.037   8.196   5.850
 7605POPC   GL155345  26.009   8.183   6.150
 7605POPC   GL255346  26.140   8.131   6.150
 7605POPC   C1A55347  26.060   8.161   6.450
 7605POPC   D2A55348  26.026   8.152   6.750
 7605POPC   C3A55349  26.067   8.190   7.050
 7605POPC   C4A55350  26.074   8.148   7.350
 7605POPC   C1B55351  26.228   8.004   6.450
 7605POPC   C2B55352  26.204   7.965   6.750
 7605POPC   C3B55353  26.230   8.026   7.050
 7605POPC   C4B55354  26.177   8.029   7.350
 7606POPC   NC355355  30.696  26.084   5.550
 7606POPC   PO455356  30.647  26.049   5.850
 7606POPC   GL155357  30.728  26.047   6.150
 7606POPC   GL255358  30.551  26.133   6.150
 7606POPC   C1A55359  30.679  26.082   6.450
 7606POPC   D2A55360  30.716  26.048   6.750
 7606POPC   C3A55361  30.668  25.998   7.050
 7606POPC   C4A55362  30.668  26.018   7.350
 7606POPC   C1B55363  30.493  26.127   6.450
 7606POPC   C2B55364  30.499  26.174   6.750
 7606POPC   C3B55365  30.429  26.161   7.050
 7606POPC   C4B55366  30.454  26.178   7.350
 7607POPC   NC355367  30.691   0.432   5.550
 7607POPC   PO455368  30.661   0.450   5.850
 7607POPC   GL155369  30.698   0.436   6.150
 7607POPC   GL255370  30.654   0.545   6.150
 7607POPC   C1A55371  30.736   0.471   6.450
 7607POPC   D2A55372  30.680   0.404   6.750
 7607POPC   C3A55373  30.737   0.458   7.050
 7607POPC   C4A55374  30.699   0.403   7.350
 7607POPC   C1B55375  30.678   0.724   6.450
 7607POPC   C2B55376  30.723   0.681   6.750
 7607POPC   C3B55377  30.735   0.710   7.050
 7607POPC   C4B55378  30.667   0.664   7.350
 7608POPC   NC355379  33.845  43.115   5.550
 7608POPC   PO455380  33.774  43.102   5.850
 7608POPC   GL155381  33.794  43.072   6.150
 7608POPC   GL255382  33.716  43.007   6.150
 7608POPC   C1A55383  33.760  43.147   6.450
 7608POPC   D2A55384  33.846  43.105   6.750
 7608POPC   C3A55385  33.833  43.139   7.050
 7608POPC   C4A55386  33.804  43.154   7.350
 7608POPC   C1B55387  33.710  42.896   6.450
 7608POPC   C2B55388  33.674  42.913   6.750
 7608POPC   C3B55389  33.638  42.944   7.050
 7608POPC   C4B55390  33.637  42.864   7.350
 7609POPC   NC355391  30.742  36.170   5.550
 7609POPC   PO455392  30.653  36.166   5.850
 7609POPC   GL155393  30.659  36.153   6.150
 7609POPC   GL255394  30.713  36.286   6.150
 7609POPC   C1A55395  30.667  36.168   6.450
 7609POPC   D2A55396  30.649  36.138   6.750
 7609POPC   C3A55397  30.689  36.146   7.050
 7609POPC   C4A55398  30.725  36.168   7.350
 7609POPC   C1B55399  30.715  36.367   6.450
 7609POPC   C2B55400  30.630  36.356   6.750
 7609POPC   C3B55401  30.682  36.393   7.050
 7609POPC   C4B55402  30.630  36.389   7.350
 7610POPC   NC355403  25.234  15.935   5.550
 7610POPC   PO455404  25.236  15.927   5.850
 7610POPC   GL155405  25.276  15.935   6.150
 7610POPC   GL255406  25.380  15.844   6.150
 7610POPC   C1A55407  25.235  15.985   6.450
 7610POPC   D2A55408  25.226  15.926   6.750
 7610POPC   C3A55409  25.217  15.949   7.050
 7610POPC   C4A55410  25.298  15.945   7.350
 7610POPC   C1B55411  25.470  15.781   6.450
 7610POPC   C2B55412  25.473  15.789   6.750
 7610POPC   C3B55413  25.436  15.795   7.050
 7610POPC   C4B55414  25.444  15.779   7.350
 7611POPC   NC355415  19.877  40.746   5.550
 7611POPC   PO455416  19.796  40.806   5.850
 7611POPC   GL155417  19.823  40.823   6.150
 7611POPC   GL255418  19.944  40.716   6.150
 7611POPC   C1A55419  19.859  40.733   6.450
 7611POPC   D2A55420  19.850  40.800   6.750
 7611POPC   C3A55421  19.795  40.740   7.050
 7611POPC   C4A55422  19.853  40.766   7.350
 7611POPC   C1B55423  20.082  40.673   6.450
 7611POPC   C2B55424  20.041  40.656   6.750
 7611POPC   C3B55425  20.023  40.651   7.050
 7611POPC   C4B55426  20.084  40.652   7.350
 7612POPC   NC355427  22.976  43.154   5.550
 7612POPC   PO455428  22.971  43.109   5.850
 7612POPC   GL155429  22.918  43.115   6.150
 7612POPC   GL255430  22.946  43.217   6.150
 7612POPC   C1A55431  22.934  43.116   6.450
 7612POPC   D2A55432  22.935  43.093   6.750
 7612POPC   C3A55433  22.902  43.113   7.050
 7612POPC   C4A55434  22.913  43.108   7.350
 7612POPC   C1B55435  22.855  43.397   6.450
 7612POPC   C2B55436  22.832  43.312   6.750
 7612POPC   C3B55437  22.863  43.361   7.050
 7612POPC   C4B55438  22.862  43.346   7.350
 7613POPC   NC355439  13.654   5.910   5.550
 7613POPC   PO455440  13.651   5.907   5.850
 7613POPC   GL155441  13.663   5.824   6.150
 7613POPC   GL255442  13.533   5.792   6.150
 7613POPC   C1A55443  13.643   5.856   6.450
 7613POPC   D2A55444  13.602   5.887   6.750
 7613POPC   C3A55445  13.634   5.848   7.050
 7613POPC   C4A55446  13.588   5.879   7.350
 7613POPC   C1B55447  13.473   5.637   6.450
 7613POPC   C2B55448  13.511   5.638   6.750
 7613POPC   C3B55449  13.455   5.638   7.050
 7613POPC   C4B55450  13.510   5.663   7.350
 7614POPC   NC355451  43.885   7.379   5.550
 7614POPC   PO455452  43.921   7.455   5.850
 7614POPC   GL155453  43.931   7.459   6.150
 7614POPC   GL255454  43.784   7.323   6.150
 7614POPC   C1A55455  43.903   7.448   6.450
 7614POPC   D2A55456  43.915   7.429   6.750
 7614POPC   C3A55457  43.935   7.425   7.050
 7614POPC   C4A55458  43.886   7.440   7.350
 7614POPC   C1B55459  43.661   7.259   6.450
 7614POPC   C2B55460  43.706   7.253   6.750
 7614POPC   C3B55461  43.667   7.214   7.050
 7614POPC   C4B55462  43.703   7.230   7.350
 7615POPC   NC355463   4.329  43.932   5.550
 7615POPC   PO455464   4.289  43.927   5.850
 7615POPC   GL155465   4.311  43.929   6.150
 7615POPC   GL255466   4.208  43.850   6.150
 7615POPC   C1A55467   4.332  43.860   6.450
 7615POPC   D2A55468   4.305  43.892   6.750
 7615POPC   C3A55469   4.314  43.916   7.050
 7615POPC   C4A55470   4.305  43.869   7.350
 7615POPC   C1B55471   4.118  43.791   6.450
 7615POPC   C2B55472   4.072  43.772   6.750
 7615POPC   C3B55473   4.053  43.743   7.050
 7615POPC   C4B55474   4.070  43.805   7.350
 7616POPC   NC355475   9.793  44.632   5.550
 7616POPC   PO455476   9.734  44.667   5.850
 7616POPC   GL155477   9.754  44.692   6.150
 7616POPC   GL255478   9.880  44.687   6.150
 7616POPC   C1A55479   9.713  44.616   6.450
 7616POPC   D2A55480   9.718  44.680   6.750
 7616POPC   C3A55481   9.732  44.621   7.050
 7616POPC   C4A55482   9.759  44.681   7.350
 7616POPC   C1B55483   9.937  44.766   6.450
 7616POPC   C2B55484   9.979  44.743   6.750
 7616POPC   C3B55485   9.950  44.816   7.050
 7616POPC   C4B55486   9.967  44.795   7.350
 7617POPC   NC355487  10.490  27.554   5.550
 7617POPC   PO455488  10.501  27.578   5.850
 7617POPC   GL155489  10.498  27.562   6.150
 7617POPC   GL255490  10.546  27.468   6.150
 7617POPC   C1A55491  10.505  27.626   6.450
 7617POPC   D2A55492  10.528  27.571   6.750
 7617POPC   C3A55493  10.572  27.618   7.050
 7617POPC   C4A55494  10.554  27.566   7.350
 7617POPC   C1B55495  10.618  27.350   6.450
 7617POPC   C2B55496  10.574  27.349   6.750
 7617POPC   C3B55497  10.556  27.375   7.050
 7617POPC   C4B55498  10.565  27.397   7.350
 7618POPC   NC355499  14.369   2.729   5.550
 7618POPC   PO455500  14.416   2.779   5.850
 7618POPC   GL155501  14.370   2.761   6.150
 7618POPC   GL255502  14.567   2.724   6.150
 7618POPC   C1A55503  14.425   2.776   6.450
 7618POPC   D2A55504  14.414   2.782   6.750
 7618POPC   C3A55505  14.447   2.733   7.050
 7618POPC   C4A55506  14.437   2.727   7.350
 7618POPC   C1B55507  14.594   2.692   6.450
 7618POPC   C2B55508  14.643   2.644   6.750
 7618POPC   C3B55509  14.666   2.672   7.050
 7618POPC   C4B55510  14.620   2.678   7.350
 7619POPC   NC355511  25.245  28.397   5.550
 7619POPC   PO455512  25.259  28.365   5.850
 7619POPC   GL155513  25.235  28.376   6.150
 7619POPC   GL255514  25.166  28.350   6.150
 7619POPC   C1A55515  25.228  28.402   6.450
 7619POPC   D2A55516  25.307  28.361   6.750
 7619POPC   C3A55517  25.237  28.400   7.050
 7619POPC   C4A55518  25.227  28.328   7.350
 7619POPC   C1B55519  25.009  28.334   6.450
 7619POPC   C2B55520  25.039  28.339   6.750
 7619POPC   C3B55521  25.033  28.406   7.050
 7619POPC   C4B55522  25.062  28.364   7.350
 7620POPC   NC355523  24.501   3.521   5.550
 7620POPC   PO455524  24.529   3.546   5.850
 7620POPC   GL155525  24.533   3.580   6.150
 7620POPC   GL255526  24.374   3.487   6.150
 7620POPC   C1A55527  24.532   3.507   6.450
 7620POPC   D2A55528  24.515   3.526   6.750
 7620POPC   C3A55529  24.505   3.532   7.050
 7620POPC   C4A55530  24.449   3.541   7.350
 7620POPC   C1B55531  24.289   3.559   6.450
 7620POPC   C2B55532  24.268   3.531   6.750
 7620POPC   C3B55533  24.255   3.487   7.050
 7620POPC   C4B55534  24.240   3.539   7.350
 7621POPC   NC355535  33.059  38.490   5.550
 7621POPC   PO455536  33.005  38.455   5.850
 7621POPC   GL155537  33.011  38.440   6.150
 7621POPC   GL255538  33.071  38.508   6.150
 7621POPC   C1A55539  33.056  38.432   6.450
 7621POPC   D2A55540  33.002  38.482   6.750
 7621POPC   C3A55541  33.030  38.457   7.050
 7621POPC   C4A55542  33.036  38.438   7.350
 7621POPC   C1B55543  33.240  38.662   6.450
 7621POPC   C2B55544  33.235  38.655   6.750
 7621POPC   C3B55545  33.231  38.569   7.050
 7621POPC   C4B55546  33.245  38.611   7.350
 7622POPC   NC355547  26.001  30.697   5.550
 7622POPC   PO455548  26.040  30.689   5.850
 7622POPC   GL155549  26.005  30.692   6.150
 7622POPC   GL255550  25.954  30.621   6.150
 7622POPC   C1A55551  26.078  30.664   6.450
 7622POPC   D2A55552  26.003  30.739   6.750
 7622POPC   C3A55553  26.036  30.732   7.050
 7622POPC   C4A55554  26.056  30.687   7.350
 7622POPC   C1B55555  25.974  30.440   6.450
 7622POPC   C2B55556  25.919  30.445   6.750
 7622POPC   C3B55557  25.938  30.468   7.050
 7622POPC   C4B55558  25.993  30.454   7.350
 7623POPC   NC355559  44.676  34.559   5.550
 7623POPC   PO455560  44.701  34.601   5.850
 7623POPC   GL155561  44.660  34.602   6.150
 7623POPC   GL255562  44.582  34.462   6.150
 7623POPC   C1A55563  44.664  34.540   6.450
 7623POPC   D2A55564  44.680  34.593   6.750
 7623POPC   C3A55565  44.627  34.538   7.050
 7623POPC   C4A55566  44.710  34.539   7.350
 7623POPC   C1B55567  44.429  34.431   6.450
 7623POPC   C2B55568  44.440  34.426   6.750
 7623POPC   C3B55569  44.473  34.425   7.050
 7623POPC   C4B55570  44.422  34.431   7.350
 7624POPC   NC355571  36.100  28.360   5.550
 7624POPC   PO455572  36.151  28.330   5.850
 7624POPC   GL155573  36.126  28.328   6.150
 7624POPC   GL255574  36.103  28.498   6.150
 7624POPC   C1A55575  36.163  28.326   6.450
 7624POPC   D2A55576  36.153  28.386   6.750
 7624POPC   C3A55577  36.086  28.332   7.050
 7624POPC   C4A55578  36.099  28.344   7.350
 7624POPC   C1B55579  35.983  28.593   6.450
 7624POPC   C2B55580  36.016  28.576   6.750
 7624POPC   C3B55581  36.010  28.626   7.050
 7624POPC   C4B55582  35.961  28.579   7.350
 7625POPC   NC355583  22.983  31.490   5.550
 7625POPC   PO455584  22.889  31.454   5.850
 7625POPC   GL155585  22.985  31.498   6.150
 7625POPC   GL255586  22.853  31.391   6.150
 7625POPC   C1A55587  22.984  31.425   6.450
 7625POPC   D2A55588  22.910  31.467   6.750
 7625POPC   C3A55589  22.899  31.512   7.050
 7625POPC   C4A55590  22.921  31.474   7.350
 7625POPC   C1B55591  22.721  31.294   6.450
 7625POPC   C2B55592  22.714  31.304   6.750
 7625POPC   C3B55593  22.753  31.347   7.050
 7625POPC   C4B55594  22.717  31.332   7.350
 7626POPC   NC355595  32.282  41.597   5.550
 7626POPC   PO455596  32.216  41.585   5.850
 7626POPC   GL155597  32.238  41.586   6.150
 7626POPC   GL255598  32.092  41.562   6.150
 7626POPC   C1A55599  32.240  41.592   6.450
 7626POPC   D2A55600  32.296  41.527   6.750
 7626POPC   C3A55601  32.275  41.518   7.050
 7626POPC   C4A55602  32.241  41.563   7.350
 7626POPC   C1B55603  31.961  41.591   6.450
 7626POPC   C2B55604  32.001  41.599   6.750
 7626POPC   C3B55605  31.978  41.575   7.050
 7626POPC   C4B55606  32.000  41.535   7.350
 7627POPC   NC355607   2.005  27.602   5.550
 7627POPC   PO455608   1.997  27.608   5.850
 7627POPC   GL155609   2.039  27.565   6.150
 7627POPC   GL255610   1.948  27.750   6.150
 7627POPC   C1A55611   2.010  27.640   6.450
 7627POPC   D2A55612   1.980  27.562   6.750
 7627POPC   C3A55613   1.942  27.634   7.050
 7627POPC   C4A55614   1.968  27.640   7.350
 7627POPC   C1B55615   1.935  27.830   6.450
 7627POPC   C2B55616   1.885  27.792   6.750
 7627POPC   C3B55617   1.929  27.837   7.050
 7627POPC   C4B55618   1.935  27.819   7.350
 7628POPC   NC355619  22.118  12.086   5.550
 7628POPC   PO455620  22.133  12.050   5.850
 7628POPC   GL155621  22.184  12.048   6.150
 7628POPC   GL255622  22.137  11.968   6.150
 7628POPC   C1A55623  22.150  12.099   6.450
 7628POPC   D2A55624  22.181  12.073   6.750
 7628POPC   C3A55625  22.186  12.070   7.050
 7628POPC   C4A55626  22.154  12.051   7.350
 7628POPC   C1B55627  22.194  11.801   6.450
 7628POPC   C2B55628  22.207  11.848   6.750
 7628POPC   C3B55629  22.153  11.802   7.050
 7628POPC   C4B55630  22.176  11.781   7.350
 7629POPC   NC355631  20.593  21.434   5.550
 7629POPC   PO455632  20.583  21.418   5.850
 7629POPC   GL155633  20.653  21.380   6.150
 7629POPC   GL255634  20.488  21.347   6.150
 7629POPC   C1A55635  20.652  21.384   6.450
 7629POPC   D2A55636  20.644  21.413   6.750
 7629POPC   C3A55637  20.580  21.380   7.050
 7629POPC   C4A55638  20.584  21.362   7.350
 7629POPC   C1B55639  20.361  21.208   6.450
 7629POPC   C2B55640  20.430  21.271   6.750
 7629POPC   C3B55641  20.431  21.215   7.050
 7629POPC   C4B55642  20.451  21.194   7.350
 7630POPC   NC355643  31.467  17.506   5.550
 7630POPC   PO455644  31.432  17.518   5.850
 7630POPC   GL155645  31.518  17.469   6.150
 7630POPC   GL255646  31.395  17.560   6.150
 7630POPC   C1A55647  31.481  17.482   6.450
 7630POPC   D2A55648  31.442  17.497   6.750
 7630POPC   C3A55649  31.428  17.501   7.050
 7630POPC   C4A55650  31.453  17.551   7.350
 7630POPC   C1B55651  31.336  17.673   6.450
 7630POPC   C2B55652  31.254  17.654   6.750
 7630POPC   C3B55653  31.297  17.719   7.050
 7630POPC   C4B55654  31.301  17.661   7.350
 7631POPC   NC355655  41.540   1.978   5.550
 7631POPC   PO455656  41.562   1.950   5.850
 7631POPC   GL155657  41.513   2.033   6.150
 7631POPC   GL255658  41.438   2.001   6.150
 7631POPC   C1A55659  41.544   1.959   6.450
 7631POPC   D2A55660  41.602   1.982   6.750
 7631POPC   C3A55661  41.510   2.030   7.050
 7631POPC   C4A55662  41.535   2.031   7.350
 7631POPC   C1B55663  41.272   2.037   6.450
 7631POPC   C2B55664  41.347   2.042   6.750
 7631POPC   C3B55665  41.334   2.036   7.050
 7631POPC   C4B55666  41.295   2.075   7.350
 7632POPC   NC355667  43.074  19.071   5.550
 7632POPC   PO455668  43.101  19.050   5.850
 7632POPC   GL155669  43.093  19.081   6.150
 7632POPC   GL255670  43.015  19.135   6.150
 7632POPC   C1A55671  43.160  19.010   6.450
 7632POPC   D2A55672  43.093  19.102   6.750
 7632POPC   C3A55673  43.090  19.081   7.050
 7632POPC   C4A55674  43.097  19.086   7.350
 7632POPC   C1B55675  42.841  19.171   6.450
 7632POPC   C2B55676  42.893  19.113   6.750
 7632POPC   C3B55677  42.903  19.200   7.050
 7632POPC   C4B55678  42.889  19.180   7.350
 7633POPC   NC355679  31.457   5.139   5.550
 7633POPC   PO455680  31.442   5.064   5.850
 7633POPC   GL155681  31.450   5.085   6.150
 7633POPC   GL255682  31.444   5.222   6.150
 7633POPC   C1A55683  31.443   5.113   6.450
 7633POPC   D2A55684  31.522   5.132   6.750
 7633POPC   C3A55685  31.518   5.128   7.050
 7633POPC   C4A55686  31.478   5.066   7.350
 7633POPC   C1B55687  31.357   5.369   6.450
 7633POPC   C2B55688  31.365   5.335   6.750
 7633POPC   C3B55689  31.391   5.347   7.050
 7633POPC   C4B55690  31.382   5.339   7.350
 7634POPC   NC355691  14.403  40.750   5.550
 7634POPC   PO455692  14.423  40.770   5.850
 7634POPC   GL155693  14.358  40.779   6.150
 7634POPC   GL255694  14.517  40.840   6.150
 7634POPC   C1A55695  14.445  40.803   6.450
 7634POPC   D2A55696  14.379  40.810   6.750
 7634POPC   C3A55697  14.412  40.768   7.050
 7634POPC   C4A55698  14.410  40.798   7.350
 7634POPC   C1B55699  14.622  40.861   6.450
 7634POPC   C2B55700  14.650  40.841   6.750
 7634POPC   C3B55701  14.618  40.876   7.050
 7634POPC   C4B55702  14.584  40.882   7.350
 7635POPC   NC355703  33.020  23.696   5.550
 7635POPC   PO455704  33.050  23.670   5.850
 7635POPC   GL155705  33.016  23.756   6.150
 7635POPC   GL255706  32.912  23.779   6.150
 7635POPC   C1A55707  33.014  23.727   6.450
 7635POPC   D2A55708  33.038  23.727   6.750
 7635POPC   C3A55709  32.980  23.702   7.050
 7635POPC   C4A55710  33.013  23.733   7.350
 7635POPC   C1B55711  32.737  23.760   6.450
 7635POPC   C2B55712  32.754  23.756   6.750
 7635POPC   C3B55713  32.751  23.761   7.050
 7635POPC   C4B55714  32.789  23.756   7.350
 7636POPC   NC355715  26.087  23.738   5.550
 7636POPC   PO455716  26.043  23.683   5.850
 7636POPC   GL155717  26.014  23.694   6.150
 7636POPC   GL255718  26.141  23.706   6.150
 7636POPC   C1A55719  26.040  23.749   6.450
 7636POPC   D2A55720  26.029  23.705   6.750
 7636POPC   C3A55721  26.051  23.697   7.050
 7636POPC   C4A55722  26.023  23.714   7.350
 7636POPC   C1B55723  26.329  23.811   6.450
 7636POPC   C2B55724  26.230  23.753   6.750
 7636POPC   C3B55725  26.315  23.817   7.050
 7636POPC   C4B55726  26.248  23.837   7.350
 7637POPC   NC355727  40.750  10.481   5.550
 7637POPC   PO455728  40.831  10.570   5.850
 7637POPC   GL155729  40.743  10.560   6.150
 7637POPC   GL255730  40.837  10.691   6.150
 7637POPC   C1A55731  40.795  10.514   6.450
 7637POPC   D2A55732  40.802  10.485   6.750
 7637POPC   C3A55733  40.744  10.558   7.050
 7637POPC   C4A55734  40.776  10.557   7.350
 7637POPC   C1B55735  40.807  10.814   6.450
 7637POPC   C2B55736  40.794  10.804   6.750
 7637POPC   C3B55737  40.813  10.739   7.050
 7637POPC   C4B55738  40.847  10.751   7.350
 7638POPC   NC355739  19.062   6.618   5.550
 7638POPC   PO455740  19.071   6.678   5.850
 7638POPC   GL155741  19.078   6.685   6.150
 7638POPC   GL255742  19.205   6.619   6.150
 7638POPC   C1A55743  19.047   6.624   6.450
 7638POPC   D2A55744  19.094   6.637   6.750
 7638POPC   C3A55745  19.009   6.682   7.050
 7638POPC   C4A55746  19.023   6.603   7.350
 7638POPC   C1B55747  19.231   6.524   6.450
 7638POPC   C2B55748  19.314   6.496   6.750
 7638POPC   C3B55749  19.321   6.542   7.050
 7638POPC   C4B55750  19.315   6.501   7.350
 7639POPC   NC355751  36.903   5.876   5.550
 7639POPC   PO455752  36.909   5.908   5.850
 7639POPC   GL155753  36.905   5.879   6.150
 7639POPC   GL255754  36.979   5.936   6.150
 7639POPC   C1A55755  36.929   5.854   6.450
 7639POPC   D2A55756  36.898   5.834   6.750
 7639POPC   C3A55757  36.858   5.823   7.050
 7639POPC   C4A55758  36.900   5.842   7.350
 7639POPC   C1B55759  37.096   5.930   6.450
 7639POPC   C2B55760  37.165   5.942   6.750
 7639POPC   C3B55761  37.178   5.999   7.050
 7639POPC   C4B55762  37.135   5.928   7.350
 7640POPC   NC355763  36.925  30.745   5.550
 7640POPC   PO455764  36.907  30.681   5.850
 7640POPC   GL155765  36.908  30.708   6.150
 7640POPC   GL255766  36.790  30.590   6.150
 7640POPC   C1A55767  36.909  30.742   6.450
 7640POPC   D2A55768  36.948  30.712   6.750
 7640POPC   C3A55769  36.950  30.671   7.050
 7640POPC   C4A55770  36.898  30.705   7.350
 7640POPC   C1B55771  36.656  30.563   6.450
 7640POPC   C2B55772  36.639  30.625   6.750
 7640POPC   C3B55773  36.712  30.615   7.050
 7640POPC   C4B55774  36.656  30.589   7.350
 7641POPC   NC355775  27.554  22.948   5.550
 7641POPC   PO455776  27.574  22.919   5.850
 7641POPC   GL155777  27.553  22.957   6.150
 7641POPC   GL255778  27.690  22.964   6.150
 7641POPC   C1A55779  27.628  22.941   6.450
 7641POPC   D2A55780  27.575  22.926   6.750
 7641POPC   C3A55781  27.622  22.944   7.050
 7641POPC   C4A55782  27.594  22.973   7.350
 7641POPC   C1B55783  27.819  23.017   6.450
 7641POPC   C2B55784  27.858  23.102   6.750
 7641POPC   C3B55785  27.781  23.022   7.050
 7641POPC   C4B55786  27.853  23.007   7.350
 7642POPC   NC355787  39.226   9.719   5.550
 7642POPC   PO455788  39.199   9.769   5.850
 7642POPC   GL155789  39.222   9.757   6.150
 7642POPC   GL255790  39.363   9.775   6.150
 7642POPC   C1A55791  39.265   9.769   6.450
 7642POPC   D2A55792  39.192   9.792   6.750
 7642POPC   C3A55793  39.241   9.786   7.050
 7642POPC   C4A55794  39.203   9.753   7.350
 7642POPC   C1B55795  39.496   9.835   6.450
 7642POPC   C2B55796  39.418   9.801   6.750
 7642POPC   C3B55797  39.482   9.881   7.050
 7642POPC   C4B55798  39.415   9.880   7.350
 7643POPC   NC355799  24.521   0.448   5.550
 7643POPC   PO455800  24.499   0.472   5.850
 7643POPC   GL155801  24.455   0.487   6.150
 7643POPC   GL255802  24.634   0.483   6.150
 7643POPC   C1A55803  24.511   0.408   6.450
 7643POPC   D2A55804  24.504   0.476   6.750
 7643POPC   C3A55805  24.527   0.484   7.050
 7643POPC   C4A55806  24.515   0.393   7.350
 7643POPC   C1B55807  24.717   0.557   6.450
 7643POPC   C2B55808  24.717   0.516   6.750
 7643POPC   C3B55809  24.765   0.523   7.050
 7643POPC   C4B55810  24.749   0.542   7.350
 7644POPC   NC355811  22.209  26.773   5.550
 7644POPC   PO455812  22.188  26.773   5.850
 7644POPC   GL155813  22.206  26.772   6.150
 7644POPC   GL255814  21.998  26.838   6.150
 7644POPC   C1A55815  22.198  26.775   6.450
 7644POPC   D2A55816  22.124  26.805   6.750
 7644POPC   C3A55817  22.158  26.801   7.050
 7644POPC   C4A55818  22.138  26.783   7.350
 7644POPC   C1B55819  21.881  26.832   6.450
 7644POPC   C2B55820  21.947  26.829   6.750
 7644POPC   C3B55821  21.881  26.820   7.050
 7644POPC   C4B55822  21.928  26.781   7.350
 7645POPC   NC355823  36.096  40.736   5.550
 7645POPC   PO455824  36.166  40.816   5.850
 7645POPC   GL155825  36.154  40.790   6.150
 7645POPC   GL255826  36.222  40.904   6.150
 7645POPC   C1A55827  36.174  40.767   6.450
 7645POPC   D2A55828  36.079  40.738   6.750
 7645POPC   C3A55829  36.174  40.823   7.050
 7645POPC   C4A55830  36.104  40.809   7.350
 7645POPC   C1B55831  36.235  41.023   6.450
 7645POPC   C2B55832  36.186  41.032   6.750
 7645POPC   C3B55833  36.187  40.980   7.050
 7645POPC   C4B55834  36.207  40.964   7.350
 7646POPC   NC355835  17.483  43.104   5.550
 7646POPC   PO455836  17.486  43.129   5.850
 7646POPC   GL155837  17.529  43.099   6.150
 7646POPC   GL255838  17.542  43.247   6.150
 7646POPC   C1A55839  17.545  43.149   6.450
 7646POPC   D2A55840  17.527  43.116   6.750
 7646POPC   C3A55841  17.531  43.113   7.050
 7646POPC   C4A55842  17.555  43.141   7.350
 7646POPC   C1B55843  17.673  43.288   6.450
 7646POPC   C2B55844  17.665  43.308   6.750
 7646POPC   C3B55845  17.607  43.311   7.050
 7646POPC   C4B55846  17.668  43.378   7.350
 7647POPC   NC355847  34.533  32.989   5.550
 7647POPC   PO455848  34.590  33.067   5.850
 7647POPC   GL155849  34.611  32.985   6.150
 7647POPC   GL255850  34.551  32.879   6.150
 7647POPC   C1A55851  34.566  33.007   6.450
 7647POPC   D2A55852  34.591  33.025   6.750
 7647POPC   C3A55853  34.577  33.018   7.050
 7647POPC   C4A55854  34.558  33.031   7.350
 7647POPC   C1B55855  34.472  32.814   6.450
 7647POPC   C2B55856  34.433  32.838   6.750
 7647POPC   C3B55857  34.398  32.791   7.050
 7647POPC   C4B55858  34.422  32.793   7.350
 7648POPC   NC355859  35.371  39.971   5.550
 7648POPC   PO455860  35.347  40.033   5.850
 7648POPC   GL155861  35.336  40.043   6.150
 7648POPC   GL255862  35.186  39.986   6.150
 7648POPC   C1A55863  35.348  40.019   6.450
 7648POPC   D2A55864  35.312  39.985   6.750
 7648POPC   C3A55865  35.316  40.027   7.050
 7648POPC   C4A55866  35.357  40.002   7.350
 7648POPC   C1B55867  35.108  40.023   6.450
 7648POPC   C2B55868  35.147  40.088   6.750
 7648POPC   C3B55869  35.077  39.990   7.050
 7648POPC   C4B55870  35.073  40.034   7.350
 7649POPC   NC355871  23.715  11.332   5.550
 7649POPC   PO455872  23.738  11.322   5.850
 7649POPC   GL155873  23.698  11.321   6.150
 7649POPC   GL255874  23.752  11.464   6.150
 7649POPC   C1A55875  23.727  11.314   6.450
 7649POPC   D2A55876  23.681  11.253   6.750
 7649POPC   C3A55877  23.742  11.266   7.050
 7649POPC   C4A55878  23.669  11.291   7.350
 7649POPC   C1B55879  23.736  11.515   6.450
 7649POPC   C2B55880  23.719  11.564   6.750
 7649POPC   C3B55881  23.742  11.508   7.050
 7649POPC   C4B55882  23.680  11.558   7.350
 7650POPC   NC355883  29.109  26.080   5.550
 7650POPC   PO455884  29.109  26.085   5.850
 7650POPC   GL155885  29.168  26.004   6.150
 7650POPC   GL255886  29.190  25.965   6.150
 7650POPC   C1A55887  29.166  26.006   6.450
 7650POPC   D2A55888  29.146  26.042   6.750
 7650POPC   C3A55889  29.112  26.065   7.050
 7650POPC   C4A55890  29.182  26.089   7.350
 7650POPC   C1B55891  29.239  25.829   6.450
 7650POPC   C2B55892  29.147  25.816   6.750
 7650POPC   C3B55893  29.228  25.817   7.050
 7650POPC   C4B55894  29.145  25.819   7.350
 7651POPC   NC355895   8.171   9.718   5.550
 7651POPC   PO455896   8.244   9.772   5.850
 7651POPC   GL155897   8.203   9.760   6.150
 7651POPC   GL255898   8.213   9.858   6.150
 7651POPC   C1A55899   8.164   9.713   6.450
 7651POPC   D2A55900   8.233   9.748   6.750
 7651POPC   C3A55901   8.183   9.725   7.050
 7651POPC   C4A55902   8.167   9.736   7.350
 7651POPC   C1B55903   8.269   9.923   6.450
 7651POPC   C2B55904   8.275  10.008   6.750
 7651POPC   C3B55905   8.264  10.017   7.050
 7651POPC   C4B55906   8.288   9.967   7.350
 7652POPC   NC355907  27.611  34.569   5.550
 7652POPC   PO455908  27.598  34.605   5.850
 7652POPC   GL155909  27.551  34.587   6.150
 7652POPC   GL255910  27.495  34.560   6.150
 7652POPC   C1A55911  27.582  34.586   6.450
 7652POPC   D2A55912  27.590  34.596   6.750
 7652POPC   C3A55913  27.563  34.570   7.050
 7652POPC   C4A55914  27.642  34.595   7.350
 7652POPC   C1B55915  27.407  34.509   6.450
 7652POPC   C2B55916  27.401  34.512   6.750
 7652POPC   C3B55917  27.324  34.477   7.050
 7652POPC   C4B55918  27.332  34.433   7.350
 7653POPC   NC355919  17.475  10.498   5.550
 7653POPC   PO455920  17.536  10.509   5.850
 7653POPC   GL155921  17.466  10.518   6.150
 7653POPC   GL255922  17.583  10.361   6.150
 7653POPC   C1A55923  17.475  10.490   6.450
 7653POPC   D2A55924  17.514  10.481   6.750
 7653POPC   C3A55925  17.517  10.560   7.050
 7653POPC   C4A55926  17.531  10.543   7.350
 7653POPC   C1B55927  17.584  10.333   6.450
 7653POPC   C2B55928  17.543  10.323   6.750
 7653POPC   C3B55929  17.619  10.302   7.050
 7653POPC   C4B55930  17.626  10.253   7.350
 7654POPC   NC355931  33.840  26.013   5.550
 7654POPC   PO455932  33.800  26.021   5.850
 7654POPC   GL155933  33.762  26.053   6.150
 7654POPC   GL255934  33.870  26.099   6.150
 7654POPC   C1A55935  33.841  26.039   6.450
 7654POPC   D2A55936  33.839  26.078   6.750
 7654POPC   C3A55937  33.804  26.072   7.050
 7654POPC   C4A55938  33.812  26.075   7.350
 7654POPC   C1B55939  33.974  26.275   6.450
 7654POPC   C2B55940  33.979  26.243   6.750
 7654POPC   C3B55941  33.941  26.189   7.050
 7654POPC   C4B55942  33.998  26.193   7.350
 7655POPC   NC355943   5.877  40.029   5.550
 7655POPC   PO455944   5.915  39.976   5.850
 7655POPC   GL155945   5.831  39.988   6.150
 7655POPC   GL255946   5.920  39.878   6.150
 7655POPC   C1A55947   5.833  40.051   6.450
 7655POPC   D2A55948   5.897  39.996   6.750
 7655POPC   C3A55949   5.875  40.001   7.050
 7655POPC   C4A55950   5.829  39.982   7.350
 7655POPC   C1B55951   5.981  39.794   6.450
 7655POPC   C2B55952   6.000  39.742   6.750
 7655POPC   C3B55953   5.970  39.818   7.050
 7655POPC   C4B55954   5.970  39.747   7.350
 7656POPC   NC355955  33.778  26.818   5.550
 7656POPC   PO455956  33.765  26.791   5.850
 7656POPC   GL155957  33.786  26.796   6.150
 7656POPC   GL255958  33.891  26.814   6.150
 7656POPC   C1A55959  33.762  26.816   6.450
 7656POPC   D2A55960  33.790  26.783   6.750
 7656POPC   C3A55961  33.817  26.816   7.050
 7656POPC   C4A55962  33.820  26.797   7.350
 7656POPC   C1B55963  34.056  26.759   6.450
 7656POPC   C2B55964  34.087  26.774   6.750
 7656POPC   C3B55965  34.057  26.800   7.050
 7656POPC   C4B55966  34.041  26.817   7.350
 7657POPC   NC355967  25.276   0.427   5.550
 7657POPC   PO455968  25.293   0.466   5.850
 7657POPC   GL155969  25.309   0.482   6.150
 7657POPC   GL255970  25.343   0.467   6.150
 7657POPC   C1A55971  25.240   0.450   6.450
 7657POPC   D2A55972  25.271   0.409   6.750
 7657POPC   C3A55973  25.272   0.459   7.050
 7657POPC   C4A55974  25.267   0.418   7.350
 7657POPC   C1B55975  25.462   0.453   6.450
 7657POPC   C2B55976  25.496   0.491   6.750
 7657POPC   C3B55977  25.516   0.509   7.050
 7657POPC   C4B55978  25.466   0.479   7.350
 7658POPC   NC355979  12.815   0.461   5.550
 7658POPC   PO455980  12.820   0.437   5.850
 7658POPC   GL155981  12.866   0.443   6.150
 7658POPC   GL255982  12.780   0.421   6.150
 7658POPC   C1A55983  12.879   0.416   6.450
 7658POPC   D2A55984  12.803   0.409   6.750
 7658POPC   C3A55985  12.848   0.431   7.050
 7658POPC   C4A55986  12.823   0.431   7.350
 7658POPC   C1B55987  12.615   0.380   6.450
 7658POPC   C2B55988  12.595   0.322   6.750
 7658POPC   C3B55989  12.659   0.390   7.050
 7658POPC   C4B55990  12.625   0.347   7.350
 7659POPC   NC355991  41.549   6.596   5.550
 7659POPC   PO455992  41.571   6.614   5.850
 7659POPC   GL155993  41.549   6.600   6.150
 7659POPC   GL255994  41.572   6.579   6.150
 7659POPC   C1A55995  41.564   6.615   6.450
 7659POPC   D2A55996  41.569   6.677   6.750
 7659POPC   C3A55997  41.584   6.690   7.050
 7659POPC   C4A55998  41.565   6.608   7.350
 7659POPC   C1B55999  41.662   6.452   6.450
 7659POPC   C2B56000  41.714   6.422   6.750
 7659POPC   C3B56001  41.674   6.441   7.050
 7659POPC   C4B56002  41.628   6.422   7.350
 7660POPC   NC356003  20.620  12.866   5.550
 7660POPC   PO456004  20.620  12.814   5.850
 7660POPC   GL156005  20.566  12.832   6.150
 7660POPC   GL256006  20.698  12.858   6.150
 7660POPC   C1A56007  20.604  12.896   6.450
 7660POPC   D2A56008  20.605  12.832   6.750
 7660POPC   C3A56009  20.641  12.821   7.050
 7660POPC   C4A56010  20.609  12.856   7.350
 7660POPC   C1B56011  20.841  12.912   6.450
 7660POPC   C2B56012  20.809  12.978   6.750
 7660POPC   C3B56013  20.817  12.992   7.050
 7660POPC   C4B56014  20.874  12.964   7.350
 7661POPC   NC356015  40.763  24.516   5.550
 7661POPC   PO456016  40.792  24.530   5.850
 7661POPC   GL156017  40.744  24.441   6.150
 7661POPC   GL256018  40.769  24.621   6.150
 7661POPC   C1A56019  40.776  24.472   6.450
 7661POPC   D2A56020  40.831  24.521   6.750
 7661POPC   C3A56021  40.745  24.468   7.050
 7661POPC   C4A56022  40.772  24.515   7.350
 7661POPC   C1B56023  40.761  24.703   6.450
 7661POPC   C2B56024  40.722  24.756   6.750
 7661POPC   C3B56025  40.683  24.735   7.050
 7661POPC   C4B56026  40.701  24.683   7.350
 7662POPC   NC356027  43.106  26.826   5.550
 7662POPC   PO456028  43.110  26.830   5.850
 7662POPC   GL156029  43.078  26.845   6.150
 7662POPC   GL256030  43.234  26.789   6.150
 7662POPC   C1A56031  43.147  26.783   6.450
 7662POPC   D2A56032  43.071  26.856   6.750
 7662POPC   C3A56033  43.094  26.788   7.050
 7662POPC   C4A56034  43.103  26.828   7.350
 7662POPC   C1B56035  43.397  26.756   6.450
 7662POPC   C2B56036  43.351  26.798   6.750
 7662POPC   C3B56037  43.314  26.785   7.050
 7662POPC   C4B56038  43.309  26.800   7.350
 7663POPC   NC356039  14.428  43.930   5.550
 7663POPC   PO456040  14.398  43.841   5.850
 7663POPC   GL156041  14.361  43.872   6.150
 7663POPC   GL256042  14.503  43.822   6.150
 7663POPC   C1A56043  14.403  43.898   6.450
 7663POPC   D2A56044  14.431  43.852   6.750
 7663POPC   C3A56045  14.414  43.913   7.050
 7663POPC   C4A56046  14.410  43.839   7.350
 7663POPC   C1B56047  14.590  43.673   6.450
 7663POPC   C2B56048  14.574  43.741   6.750
 7663POPC   C3B56049  14.521  43.715   7.050
 7663POPC   C4B56050  14.580  43.688   7.350
 7664POPC   NC356051  28.374   2.013   5.550
 7664POPC   PO456052  28.344   1.995   5.850
 7664POPC   GL156053  28.353   2.037   6.150
 7664POPC   GL256054  28.470   2.023   6.150
 7664POPC   C1A56055  28.339   1.995   6.450
 7664POPC   D2A56056  28.352   1.974   6.750
 7664POPC   C3A56057  28.351   1.948   7.050
 7664POPC   C4A56058  28.376   1.955   7.350
 7664POPC   C1B56059  28.637   2.107   6.450
 7664POPC   C2B56060  28.585   2.011   6.750
 7664POPC   C3B56061  28.640   2.085   7.050
 7664POPC   C4B56062  28.620   2.086   7.350
 7665POPC   NC356063   4.293  19.880   5.550
 7665POPC   PO456064   4.268  19.847   5.850
 7665POPC   GL156065   4.334  19.791   6.150
 7665POPC   GL256066   4.386  19.722   6.150
 7665POPC   C1A56067   4.313  19.820   6.450
 7665POPC   D2A56068   4.300  19.847   6.750
 7665POPC   C3A56069   4.348  19.792   7.050
 7665POPC   C4A56070   4.307  19.841   7.350
 7665POPC   C1B56071   4.476  19.633   6.450
 7665POPC   C2B56072   4.490  19.607   6.750
 7665POPC   C3B56073   4.461  19.623   7.050
 7665POPC   C4B56074   4.519  19.622   7.350
 7666POPC   NC356075  33.804  36.904   5.550
 7666POPC   PO456076  33.850  36.900   5.850
 7666POPC   GL156077  33.815  36.862   6.150
 7666POPC   GL256078  33.649  36.921   6.150
 7666POPC   C1A56079  33.772  36.921   6.450
 7666POPC   D2A56080  33.753  36.940   6.750
 7666POPC   C3A56081  33.831  36.950   7.050
 7666POPC   C4A56082  33.800  36.918   7.350
 7666POPC   C1B56083  33.562  36.828   6.450
 7666POPC   C2B56084  33.566  36.847   6.750
 7666POPC   C3B56085  33.589  36.839   7.050
 7666POPC   C4B56086  33.583  36.869   7.350
 7667POPC   NC356087  43.148  13.590   5.550
 7667POPC   PO456088  43.081  13.581   5.850
 7667POPC   GL156089  43.138  13.660   6.150
 7667POPC   GL256090  43.151  13.725   6.150
 7667POPC   C1A56091  43.089  13.580   6.450
 7667POPC   D2A56092  43.099  13.619   6.750
 7667POPC   C3A56093  43.076  13.622   7.050
 7667POPC   C4A56094  43.129  13.616   7.350
 7667POPC   C1B56095  43.254  13.840   6.450
 7667POPC   C2B56096  43.259  13.892   6.750
 7667POPC   C3B56097  43.188  13.843   7.050
 7667POPC   C4B56098  43.242  13.816   7.350
 7668POPC   NC356099  39.981  20.603   5.550
 7668POPC   PO456100  40.054  20.588   5.850
 7668POPC   GL156101  39.959  20.639   6.150
 7668POPC   GL256102  40.113  20.571   6.150
 7668POPC   C1A56103  40.011  20.589   6.450
 7668POPC   D2A56104  40.013  20.602   6.750
 7668POPC   C3A56105  40.030  20.573   7.050
 7668POPC   C4A56106  39.967  20.575   7.350
 7668POPC   C1B56107  40.258  20.491   6.450
 7668POPC   C2B56108  40.185  20.518   6.750
 7668POPC   C3B56109  40.278  20.491   7.050
 7668POPC   C4B56110  40.215  20.527   7.350
 7669POPC   NC356111  37.684   3.532   5.550
 7669POPC   PO456112  37.640   3.573   5.850
 7669POPC   GL156113  37.718   3.576   6.150
 7669POPC   GL256114  37.513   3.574   6.150
 7669POPC   C1A56115  37.719   3.519   6.450
 7669POPC   D2A56116  37.706   3.587   6.750
 7669POPC   C3A56117  37.685   3.564   7.050
 7669POPC   C4A56118  37.704   3.509   7.350
 7669POPC   C1B56119  37.438   3.547   6.450
 7669POPC   C2B56120  37.479   3.571   6.750
 7669POPC   C3B56121  37.392   3.589   7.050
 7669POPC   C4B56122  37.388   3.506   7.350
 7670POPC   NC356123  36.106   0.474   5.550
 7670POPC   PO456124  36.092   0.474   5.850
 7670POPC   GL156125  36.150   0.400   6.150
 7670POPC   GL256126  36.194   0.343   6.150
 7670POPC   C1A56127  36.103   0.475   6.450
 7670POPC   D2A56128  36.134   0.456   6.750
 7670POPC   C3A56129  36.099   0.475   7.050
 7670POPC   C4A56130  36.133   0.429   7.350
 7670POPC   C1B56131  36.361   0.279   6.450
 7670POPC   C2B56132  36.375   0.260   6.750
 7670POPC   C3B56133  36.353   0.324   7.050
 7670POPC   C4B56134  36.324   0.302   7.350
 7671POPC   NC356135  10.503  21.434   5.550
 7671POPC   PO456136  10.551  21.433   5.850
 7671POPC   GL156137  10.525  21.345   6.150
 7671POPC   GL256138  10.512  21.483   6.150
 7671POPC   C1A56139  10.569  21.353   6.450
 7671POPC   D2A56140  10.526  21.405   6.750
 7671POPC   C3A56141  10.519  21.392   7.050
 7671POPC   C4A56142  10.508  21.393   7.350
 7671POPC   C1B56143  10.447  21.603   6.450
 7671POPC   C2B56144  10.415  21.600   6.750
 7671POPC   C3B56145  10.467  21.563   7.050
 7671POPC   C4B56146  10.448  21.570   7.350
 7672POPC   NC356147  14.365  12.845   5.550
 7672POPC   PO456148  14.384  12.875   5.850
 7672POPC   GL156149  14.371  12.833   6.150
 7672POPC   GL256150  14.486  12.976   6.150
 7672POPC   C1A56151  14.392  12.861   6.450
 7672POPC   D2A56152  14.417  12.884   6.750
 7672POPC   C3A56153  14.360  12.804   7.050
 7672POPC   C4A56154  14.430  12.836   7.350
 7672POPC   C1B56155  14.601  13.037   6.450
 7672POPC   C2B56156  14.579  13.028   6.750
 7672POPC   C3B56157  14.558  13.054   7.050
 7672POPC   C4B56158  14.532  13.004   7.350
 7673POPC   NC356159  12.898   3.533   5.550
 7673POPC   PO456160  12.826   3.540   5.850
 7673POPC   GL156161  12.854   3.590   6.150
 7673POPC   GL256162  12.769   3.527   6.150
 7673POPC   C1A56163  12.809   3.576   6.450
 7673POPC   D2A56164  12.850   3.507   6.750
 7673POPC   C3A56165  12.808   3.548   7.050
 7673POPC   C4A56166  12.819   3.568   7.350
 7673POPC   C1B56167  12.579   3.596   6.450
 7673POPC   C2B56168  12.642   3.574   6.750
 7673POPC   C3B56169  12.637   3.531   7.050
 7673POPC   C4B56170  12.630   3.599   7.350
 7674POPC   NC356171  43.097   4.291   5.550
 7674POPC   PO456172  43.131   4.275   5.850
 7674POPC   GL156173  43.140   4.305   6.150
 7674POPC   GL256174  43.275   4.314   6.150
 7674POPC   C1A56175  43.095   4.324   6.450
 7674POPC   D2A56176  43.141   4.331   6.750
 7674POPC   C3A56177  43.136   4.321   7.050
 7674POPC   C4A56178  43.082   4.303   7.350
 7674POPC   C1B56179  43.324   4.264   6.450
 7674POPC   C2B56180  43.362   4.202   6.750
 7674POPC   C3B56181  43.322   4.286   7.050
 7674POPC   C4B56182  43.340   4.278   7.350
 7675POPC   NC356183  43.097  36.913   5.550
 7675POPC   PO456184  43.124  36.892   5.850
 7675POPC   GL156185  43.128  36.874   6.150
 7675POPC   GL256186  43.042  36.776   6.150
 7675POPC   C1A56187  43.085  36.953   6.450
 7675POPC   D2A56188  43.104  36.894   6.750
 7675POPC   C3A56189  43.069  36.931   7.050
 7675POPC   C4A56190  43.099  36.918   7.350
 7675POPC   C1B56191  42.961  36.636   6.450
 7675POPC   C2B56192  43.017  36.728   6.750
 7675POPC   C3B56193  42.994  36.676   7.050
 7675POPC   C4B56194  43.038  36.661   7.350
 7676POPC   NC356195   9.015  21.340   5.550
 7676POPC   PO456196   8.977  21.425   5.850
 7676POPC   GL156197   8.952  21.361   6.150
 7676POPC   GL256198   8.949  21.527   6.150
 7676POPC   C1A56199   8.937  21.421   6.450
 7676POPC   D2A56200   9.013  21.377   6.750
 7676POPC   C3A56201   8.985  21.380   7.050
 7676POPC   C4A56202   9.015  21.389   7.350
 7676POPC   C1B56203   8.956  21.622   6.450
 7676POPC   C2B56204   8.955  21.659   6.750
 7676POPC   C3B56205   8.929  21.673   7.050
 7676POPC   C4B56206   8.964  21.683   7.350
 7677POPC   NC356207  19.789  21.378   5.550
 7677POPC   PO456208  19.862  21.435   5.850
 7677POPC   GL156209  19.857  21.416   6.150
 7677POPC   GL256210  19.851  21.304   6.150
 7677POPC   C1A56211  19.829  21.408   6.450
 7677POPC   D2A56212  19.817  21.371   6.750
 7677POPC   C3A56213  19.872  21.357   7.050
 7677POPC   C4A56214  19.829  21.365   7.350
 7677POPC   C1B56215  19.857  21.167   6.450
 7677POPC   C2B56216  19.858  21.154   6.750
 7677POPC   C3B56217  19.803  21.140   7.050
 7677POPC   C4B56218  19.879  21.142   7.350
 7678POPC   NC356219   0.452  26.790   5.550
 7678POPC   PO456220   0.453  26.827   5.850
 7678POPC   GL156221   0.390  26.854   6.150
 7678POPC   GL256222   0.511  26.935   6.150
 7678POPC   C1A56223   0.390  26.823   6.450
 7678POPC   D2A56224   0.403  26.824   6.750
 7678POPC   C3A56225   0.437  26.818   7.050
 7678POPC   C4A56226   0.462  26.837   7.350
 7678POPC   C1B56227   0.554  26.992   6.450
 7678POPC   C2B56228   0.605  27.072   6.750
 7678POPC   C3B56229   0.625  26.998   7.050
 7678POPC   C4B56230   0.537  27.074   7.350
 7679POPC   NC356231  25.255  16.688   5.550
 7679POPC   PO456232  25.234  16.753   5.850
 7679POPC   GL156233  25.246  16.711   6.150
 7679POPC   GL256234  25.147  16.703   6.150
 7679POPC   C1A56235  25.227  16.697   6.450
 7679POPC   D2A56236  25.301  16.737   6.750
 7679POPC   C3A56237  25.270  16.765   7.050
 7679POPC   C4A56238  25.274  16.762   7.350
 7679POPC   C1B56239  24.976  16.775   6.450
 7679POPC   C2B56240  25.043  16.714   6.750
 7679POPC   C3B56241  24.967  16.764   7.050
 7679POPC   C4B56242  24.973  16.749   7.350
 7680POPC   NC356243  32.223   9.787   5.550
 7680POPC   PO456244  32.295   9.753   5.850
 7680POPC   GL156245  32.224   9.766   6.150
 7680POPC   GL256246  32.280   9.624   6.150
 7680POPC   C1A56247  32.281   9.704   6.450
 7680POPC   D2A56248  32.225   9.781   6.750
 7680POPC   C3A56249  32.244   9.744   7.050
 7680POPC   C4A56250  32.280   9.798   7.350
 7680POPC   C1B56251  32.295   9.510   6.450
 7680POPC   C2B56252  32.287   9.505   6.750
 7680POPC   C3B56253  32.334   9.547   7.050
 7680POPC   C4B56254  32.276   9.502   7.350
 7681POPC   NC356255  16.004   8.941   5.550
 7681POPC   PO456256  15.933   8.989   5.850
 7681POPC   GL156257  15.953   8.923   6.150
 7681POPC   GL256258  15.789   9.027   6.150
 7681POPC   C1A56259  15.946   8.947   6.450
 7681POPC   D2A56260  15.907   8.924   6.750
 7681POPC   C3A56261  16.003   8.971   7.050
 7681POPC   C4A56262  15.993   8.936   7.350
 7681POPC   C1B56263  15.679   9.095   6.450
 7681POPC   C2B56264  15.704   9.082   6.750
 7681POPC   C3B56265  15.754   9.003   7.050
 7681POPC   C4B56266  15.767   9.065   7.350
 7682POPC   NC356267  35.373  29.181   5.550
 7682POPC   PO456268  35.329  29.152   5.850
 7682POPC   GL156269  35.315  29.159   6.150
 7682POPC   GL256270  35.308  29.202   6.150
 7682POPC   C1A56271  35.319  29.104   6.450
 7682POPC   D2A56272  35.348  29.186   6.750
 7682POPC   C3A56273  35.331  29.108   7.050
 7682POPC   C4A56274  35.355  29.193   7.350
 7682POPC   C1B56275  35.173  29.346   6.450
 7682POPC   C2B56276  35.152  29.345   6.750
 7682POPC   C3B56277  35.201  29.331   7.050
 7682POPC   C4B56278  35.208  29.329   7.350
 7683POPC   NC356279  22.153  22.965   5.550
 7683POPC   PO456280  22.182  22.896   5.850
 7683POPC   GL156281  22.165  22.973   6.150
 7683POPC   GL256282  22.178  23.055   6.150
 7683POPC   C1A56283  22.151  22.915   6.450
 7683POPC   D2A56284  22.195  22.911   6.750
 7683POPC   C3A56285  22.169  22.893   7.050
 7683POPC   C4A56286  22.210  22.975   7.350
 7683POPC   C1B56287  22.121  23.150   6.450
 7683POPC   C2B56288  22.133  23.224   6.750
 7683POPC   C3B56289  22.104  23.159   7.050
 7683POPC   C4B56290  22.074  23.224   7.350
 7684POPC   NC356291  29.131  15.182   5.550
 7684POPC   PO456292  29.168  15.181   5.850
 7684POPC   GL156293  29.148  15.151   6.150
 7684POPC   GL256294  29.244  15.121   6.150
 7684POPC   C1A56295  29.193  15.206   6.450
 7684POPC   D2A56296  29.110  15.198   6.750
 7684POPC   C3A56297  29.096  15.221   7.050
 7684POPC   C4A56298  29.101  15.196   7.350
 7684POPC   C1B56299  29.339  15.084   6.450
 7684POPC   C2B56300  29.379  15.080   6.750
 7684POPC   C3B56301  29.339  15.075   7.050
 7684POPC   C4B56302  29.353  15.098   7.350
 7685POPC   NC356303   2.788  26.011   5.550
 7685POPC   PO456304   2.789  26.034   5.850
 7685POPC   GL156305   2.791  26.054   6.150
 7685POPC   GL256306   2.734  25.963   6.150
 7685POPC   C1A56307   2.729  26.064   6.450
 7685POPC   D2A56308   2.803  26.002   6.750
 7685POPC   C3A56309   2.771  26.090   7.050
 7685POPC   C4A56310   2.745  26.067   7.350
 7685POPC   C1B56311   2.752  25.832   6.450
 7685POPC   C2B56312   2.755  25.832   6.750
 7685POPC   C3B56313   2.702  25.834   7.050
 7685POPC   C4B56314   2.763  25.795   7.350
 7686POPC   NC356315  42.381  36.091   5.550
 7686POPC   PO456316  42.339  36.122   5.850
 7686POPC   GL156317  42.291  36.097   6.150
 7686POPC   GL256318  42.343  36.267   6.150
 7686POPC   C1A56319  42.333  36.115   6.450
 7686POPC   D2A56320  42.309  36.168   6.750
 7686POPC   C3A56321  42.323  36.146   7.050
 7686POPC   C4A56322  42.286  36.158   7.350
 7686POPC   C1B56323  42.235  36.364   6.450
 7686POPC   C2B56324  42.204  36.327   6.750
 7686POPC   C3B56325  42.264  36.379   7.050
 7686POPC   C4B56326  42.212  36.360   7.350
 7687POPC   NC356327  31.450  36.175   5.550
 7687POPC   PO456328  31.447  36.097   5.850
 7687POPC   GL156329  31.457  36.144   6.150
 7687POPC   GL256330  31.381  36.063   6.150
 7687POPC   C1A56331  31.510  36.080   6.450
 7687POPC   D2A56332  31.433  36.153   6.750
 7687POPC   C3A56333  31.492  36.170   7.050
 7687POPC   C4A56334  31.446  36.171   7.350
 7687POPC   C1B56335  31.315  35.997   6.450
 7687POPC   C2B56336  31.255  36.007   6.750
 7687POPC   C3B56337  31.251  35.940   7.050
 7687POPC   C4B56338  31.236  35.973   7.350
 7688POPC   NC356339  12.810  28.356   5.550
 7688POPC   PO456340  12.872  28.396   5.850
 7688POPC   GL156341  12.861  28.394   6.150
 7688POPC   GL256342  12.805  28.293   6.150
 7688POPC   C1A56343  12.871  28.390   6.450
 7688POPC   D2A56344  12.815  28.363   6.750
 7688POPC   C3A56345  12.840  28.363   7.050
 7688POPC   C4A56346  12.865  28.403   7.350
 7688POPC   C1B56347  12.736  28.156   6.450
 7688POPC   C2B56348  12.723  28.119   6.750
 7688POPC   C3B56349  12.700  28.194   7.050
 7688POPC   C4B56350  12.699  28.140   7.350
 7689POPC   NC356351  13.643  40.775   5.550
 7689POPC   PO456352  13.604  40.780   5.850
 7689POPC   GL156353  13.642  40.773   6.150
 7689POPC   GL256354  13.601  40.701   6.150
 7689POPC   C1A56355  13.654  40.774   6.450
 7689POPC   D2A56356  13.634  40.805   6.750
 7689POPC   C3A56357  13.625  40.737   7.050
 7689POPC   C4A56358  13.579  40.771   7.350
 7689POPC   C1B56359  13.522  40.578   6.450
 7689POPC   C2B56360  13.463  40.525   6.750
 7689POPC   C3B56361  13.494  40.598   7.050
 7689POPC   C4B56362  13.510  40.521   7.350
 7690POPC   NC356363  32.976   2.024   5.550
 7690POPC   PO456364  33.048   2.007   5.850
 7690POPC   GL156365  33.032   1.944   6.150
 7690POPC   GL256366  32.911   2.013   6.150
 7690POPC   C1A56367  32.981   1.987   6.450
 7690POPC   D2A56368  33.047   2.010   6.750
 7690POPC   C3A56369  33.037   2.034   7.050
 7690POPC   C4A56370  33.000   1.955   7.350
 7690POPC   C1B56371  32.788   1.913   6.450
 7690POPC   C2B56372  32.750   1.940   6.750
 7690POPC   C3B56373  32.740   2.009   7.050
 7690POPC   C4B56374  32.793   1.917   7.350
 7691POPC   NC356375  36.876  22.140   5.550
 7691POPC   PO456376  36.867  22.159   5.850
 7691POPC   GL156377  36.917  22.157   6.150
 7691POPC   GL256378  37.009  22.163   6.150
 7691POPC   C1A56379  36.896  22.193   6.450
 7691POPC   D2A56380  36.918  22.187   6.750
 7691POPC   C3A56381  36.919  22.146   7.050
 7691POPC   C4A56382  36.901  22.204   7.350
 7691POPC   C1B56383  37.137  22.137   6.450
 7691POPC   C2B56384  37.197  22.131   6.750
 7691POPC   C3B56385  37.108  22.219   7.050
 7691POPC   C4B56386  37.165  22.150   7.350
 7692POPC   NC356387  15.960  13.587   5.550
 7692POPC   PO456388  15.932  13.631   5.850
 7692POPC   GL156389  15.961  13.601   6.150
 7692POPC   GL256390  15.908  13.735   6.150
 7692POPC   C1A56391  15.987  13.657   6.450
 7692POPC   D2A56392  15.976  13.591   6.750
 7692POPC   C3A56393  15.917  13.638   7.050
 7692POPC   C4A56394  15.906  13.657   7.350
 7692POPC   C1B56395  15.852  13.826   6.450
 7692POPC   C2B56396  15.918  13.826   6.750
 7692POPC   C3B56397  15.831  13.871   7.050
 7692POPC   C4B56398  15.854  13.867   7.350
 7693POPC   NC356399  38.480  44.704   5.550
 7693POPC   PO456400  38.428  44.641   5.850
 7693POPC   GL156401  38.447  44.684   6.150
 7693POPC   GL256402  38.297  44.605   6.150
 7693POPC   C1A56403  38.470  44.681   6.450
 7693POPC   D2A56404  38.443  44.648   6.750
 7693POPC   C3A56405  38.468  44.614   7.050
 7693POPC   C4A56406  38.416  44.663   7.350
 7693POPC   C1B56407  38.169  44.616   6.450
 7693POPC   C2B56408  38.207  44.644   6.750
 7693POPC   C3B56409  38.161  44.628   7.050
 7693POPC   C4B56410  38.249  44.601   7.350
 7694POPC   NC356411   1.966  22.150   5.550
 7694POPC   PO456412   2.002  22.204   5.850
 7694POPC   GL156413   1.942  22.119   6.150
 7694POPC   GL256414   1.852  22.188   6.150
 7694POPC   C1A56415   2.000  22.180   6.450
 7694POPC   D2A56416   2.002  22.140   6.750
 7694POPC   C3A56417   1.969  22.120   7.050
 7694POPC   C4A56418   2.000  22.185   7.350
 7694POPC   C1B56419   1.734  22.243   6.450
 7694POPC   C2B56420   1.764  22.254   6.750
 7694POPC   C3B56421   1.714  22.271   7.050
 7694POPC   C4B56422   1.750  22.263   7.350
 7695POPC   NC356423   7.465   6.603   5.550
 7695POPC   PO456424   7.458   6.682   5.850
 7695POPC   GL156425   7.404   6.680   6.150
 7695POPC   GL256426   7.385   6.719   6.150
 7695POPC   C1A56427   7.451   6.624   6.450
 7695POPC   D2A56428   7.402   6.637   6.750
 7695POPC   C3A56429   7.440   6.621   7.050
 7695POPC   C4A56430   7.445   6.626   7.350
 7695POPC   C1B56431   7.309   6.868   6.450
 7695POPC   C2B56432   7.360   6.899   6.750
 7695POPC   C3B56433   7.347   6.849   7.050
 7695POPC   C4B56434   7.324   6.863   7.350
 7696POPC   NC356435  19.010   1.990   5.550
 7696POPC   PO456436  19.089   1.985   5.850
 7696POPC   GL156437  19.057   1.992   6.150
 7696POPC   GL256438  19.115   1.833   6.150
 7696POPC   C1A56439  19.043   1.970   6.450
 7696POPC   D2A56440  19.028   1.994   6.750
 7696POPC   C3A56441  19.106   1.980   7.050
 7696POPC   C4A56442  19.046   1.979   7.350
 7696POPC   C1B56443  19.071   1.780   6.450
 7696POPC   C2B56444  19.078   1.709   6.750
 7696POPC   C3B56445  19.112   1.751   7.050
 7696POPC   C4B56446  19.107   1.738   7.350
 7697POPC   NC356447   9.787  39.196   5.550
 7697POPC   PO456448   9.744  39.245   5.850
 7697POPC   GL156449   9.785  39.189   6.150
 7697POPC   GL256450   9.674  39.181   6.150
 7697POPC   C1A56451   9.789  39.197   6.450
 7697POPC   D2A56452   9.767  39.254   6.750
 7697POPC   C3A56453   9.782  39.245   7.050
 7697POPC   C4A56454   9.758  39.210   7.350
 7697POPC   C1B56455   9.542  39.059   6.450
 7697POPC   C2B56456   9.609  39.070   6.750
 7697POPC   C3B56457   9.556  39.056   7.050
 7697POPC   C4B56458   9.585  39.075   7.350
 7698POPC   NC356459  12.112  15.988   5.550
 7698POPC   PO456460  12.035  15.937   5.850
 7698POPC   GL156461  12.113  15.943   6.150
 7698POPC   GL256462  11.961  15.877   6.150
 7698POPC   C1A56463  12.087  15.984   6.450
 7698POPC   D2A56464  12.031  15.994   6.750
 7698POPC   C3A56465  12.057  15.916   7.050
 7698POPC   C4A56466  12.046  16.005   7.350
 7698POPC   C1B56467  11.844  15.840   6.450
 7698POPC   C2B56468  11.875  15.860   6.750
 7698POPC   C3B56469  11.881  15.897   7.050
 7698POPC   C4B56470  11.818  15.878   7.350
 7699POPC   NC356471   5.843  36.875   5.550
 7699POPC   PO456472   5.874  36.935   5.850
 7699POPC   GL156473   5.905  36.871   6.150
 7699POPC   GL256474   5.924  37.014   6.150
 7699POPC   C1A56475   5.869  36.886   6.450
 7699POPC   D2A56476   5.827  36.947   6.750
 7699POPC   C3A56477   5.834  36.940   7.050
 7699POPC   C4A56478   5.911  36.932   7.350
 7699POPC   C1B56479   5.902  37.196   6.450
 7699POPC   C2B56480   5.858  37.138   6.750
 7699POPC   C3B56481   5.861  37.113   7.050
 7699POPC   C4B56482   5.932  37.195   7.350
 7700POPC   NC356483  24.520  23.745   5.550
 7700POPC   PO456484  24.484  23.702   5.850
 7700POPC   GL156485  24.499  23.763   6.150
 7700POPC   GL256486  24.629  23.634   6.150
 7700POPC   C1A56487  24.480  23.672   6.450
 7700POPC   D2A56488  24.509  23.734   6.750
 7700POPC   C3A56489  24.482  23.731   7.050
 7700POPC   C4A56490  24.532  23.699   7.350
 7700POPC   C1B56491  24.744  23.657   6.450
 7700POPC   C2B56492  24.721  23.606   6.750
 7700POPC   C3B56493  24.711  23.684   7.050
 7700POPC   C4B56494  24.781  23.622   7.350
 7701POPC   NC356495  43.100   6.695   5.550
 7701POPC   PO456496  43.074   6.681   5.850
 7701POPC   GL156497  43.108   6.630   6.150
 7701POPC   GL256498  43.246   6.665   6.150
 7701POPC   C1A56499  43.157   6.623   6.450
 7701POPC   D2A56500  43.103   6.604   6.750
 7701POPC   C3A56501  43.085   6.679   7.050
 7701POPC   C4A56502  43.143   6.604   7.350
 7701POPC   C1B56503  43.321   6.722   6.450
 7701POPC   C2B56504  43.322   6.792   6.750
 7701POPC   C3B56505  43.300   6.795   7.050
 7701POPC   C4B56506  43.365   6.782   7.350
 7702POPC   NC356507  25.308   3.548   5.550
 7702POPC   PO456508  25.309   3.566   5.850
 7702POPC   GL156509  25.313   3.523   6.150
 7702POPC   GL256510  25.364   3.619   6.150
 7702POPC   C1A56511  25.224   3.531   6.450
 7702POPC   D2A56512  25.284   3.523   6.750
 7702POPC   C3A56513  25.296   3.508   7.050
 7702POPC   C4A56514  25.224   3.523   7.350
 7702POPC   C1B56515  25.511   3.606   6.450
 7702POPC   C2B56516  25.473   3.693   6.750
 7702POPC   C3B56517  25.452   3.628   7.050
 7702POPC   C4B56518  25.505   3.639   7.350
 7703POPC   NC356519  33.068  20.607   5.550
 7703POPC   PO456520  32.996  20.634   5.850
 7703POPC   GL156521  33.001  20.628   6.150
 7703POPC   GL256522  33.119  20.679   6.150
 7703POPC   C1A56523  33.044  20.599   6.450
 7703POPC   D2A56524  33.047  20.632   6.750
 7703POPC   C3A56525  32.983  20.643   7.050
 7703POPC   C4A56526  33.006  20.625   7.350
 7703POPC   C1B56527  33.195  20.759   6.450
 7703POPC   C2B56528  33.159  20.814   6.750
 7703POPC   C3B56529  33.173  20.816   7.050
 7703POPC   C4B56530  33.185  20.834   7.350
 7704POPC   NC356531  14.389  15.907   5.550
 7704POPC   PO456532  14.379  15.920   5.850
 7704POPC   GL156533  14.399  15.994   6.150
 7704POPC   GL256534  14.353  16.033   6.150
 7704POPC   C1A56535  14.354  15.996   6.450
 7704POPC   D2A56536  14.432  15.907   6.750
 7704POPC   C3A56537  14.440  15.947   7.050
 7704POPC   C4A56538  14.381  15.907   7.350
 7704POPC   C1B56539  14.276  16.117   6.450
 7704POPC   C2B56540  14.213  16.173   6.750
 7704POPC   C3B56541  14.272  16.110   7.050
 7704POPC   C4B56542  14.265  16.151   7.350
 7705POPC   NC356543  29.899  24.514   5.550
 7705POPC   PO456544  29.893  24.448   5.850
 7705POPC   GL156545  29.967  24.446   6.150
 7705POPC   GL256546  30.035  24.417   6.150
 7705POPC   C1A56547  29.896  24.467   6.450
 7705POPC   D2A56548  29.890  24.488   6.750
 7705POPC   C3A56549  29.965  24.504   7.050
 7705POPC   C4A56550  29.909  24.453   7.350
 7705POPC   C1B56551  30.100  24.365   6.450
 7705POPC   C2B56552  30.181  24.372   6.750
 7705POPC   C3B56553  30.154  24.383   7.050
 7705POPC   C4B56554  30.097  24.317   7.350
 7706POPC   NC356555   3.553  12.892   5.550
 7706POPC   PO456556   3.501  12.808   5.850
 7706POPC   GL156557   3.559  12.831   6.150
 7706POPC   GL256558   3.631  12.806   6.150
 7706POPC   C1A56559   3.557  12.822   6.450
 7706POPC   D2A56560   3.582  12.822   6.750
 7706POPC   C3A56561   3.584  12.864   7.050
 7706POPC   C4A56562   3.586  12.847   7.350
 7706POPC   C1B56563   3.773  12.768   6.450
 7706POPC   C2B56564   3.805  12.788   6.750
 7706POPC   C3B56565   3.781  12.692   7.050
 7706POPC   C4B56566   3.720  12.745   7.350
 7707POPC   NC356567  15.209  26.023   5.550
 7707POPC   PO456568  15.209  26.078   5.850
 7707POPC   GL156569  15.172  26.088   6.150
 7707POPC   GL256570  15.273  26.027   6.150
 7707POPC   C1A56571  15.227  26.002   6.450
 7707POPC   D2A56572  15.155  26.028   6.750
 7707POPC   C3A56573  15.200  26.087   7.050
 7707POPC   C4A56574  15.141  26.075   7.350
 7707POPC   C1B56575  15.397  25.938   6.450
 7707POPC   C2B56576  15.382  25.951   6.750
 7707POPC   C3B56577  15.429  25.895   7.050
 7707POPC   C4B56578  15.415  25.916   7.350
 7708POPC   NC356579   4.317  40.824   5.550
 7708POPC   PO456580   4.343  40.768   5.850
 7708POPC   GL156581   4.326  40.735   6.150
 7708POPC   GL256582   4.181  40.878   6.150
 7708POPC   C1A56583   4.310  40.750   6.450
 7708POPC   D2A56584   4.358  40.826   6.750
 7708POPC   C3A56585   4.285  40.796   7.050
 7708POPC   C4A56586   4.306  40.744   7.350
 7708POPC   C1B56587   4.125  40.916   6.450
 7708POPC   C2B56588   4.086  40.931   6.750
 7708POPC   C3B56589   4.144  40.869   7.050
 7708POPC   C4B56590   4.081  40.932   7.350
 7709POPC   NC356591  33.846   6.670   5.550
 7709POPC   PO456592  33.754   6.635   5.850
 7709POPC   GL156593  33.844   6.640   6.150
 7709POPC   GL256594  33.839   6.537   6.150
 7709POPC   C1A56595  33.824   6.595   6.450
 7709POPC   D2A56596  33.800   6.635   6.750
 7709POPC   C3A56597  33.814   6.606   7.050
 7709POPC   C4A56598  33.755   6.610   7.350
 7709POPC   C1B56599  33.841   6.442   6.450
 7709POPC   C2B56600  33.777   6.362   6.750
 7709POPC   C3B56601  33.786   6.356   7.050
 7709POPC   C4B56602  33.774   6.374   7.350
 7710POPC   NC356603  10.519  29.882   5.550
 7710POPC   PO456604  10.518  29.968   5.850
 7710POPC   GL156605  10.536  29.926   6.150
 7710POPC   GL256606  10.584  29.842   6.150
 7710POPC   C1A56607  10.491  29.933   6.450
 7710POPC   D2A56608  10.493  29.923   6.750
 7710POPC   C3A56609  10.477  29.900   7.050
 7710POPC   C4A56610  10.495  29.954   7.350
 7710POPC   C1B56611  10.546  29.633   6.450
 7710POPC   C2B56612  10.594  29.652   6.750
 7710POPC   C3B56613  10.575  29.677   7.050
 7710POPC   C4B56614  10.575  29.672   7.350
 7711POPC   NC356615  11.289  13.636   5.550
 7711POPC   PO456616  11.253  13.661   5.850
 7711POPC   GL156617  11.315  13.647   6.150
 7711POPC   GL256618  11.401  13.633   6.150
 7711POPC   C1A56619  11.280  13.664   6.450
 7711POPC   D2A56620  11.335  13.652   6.750
 7711POPC   C3A56621  11.285  13.627   7.050
 7711POPC   C4A56622  11.335  13.674   7.350
 7711POPC   C1B56623  11.562  13.662   6.450
 7711POPC   C2B56624  11.565  13.752   6.750
 7711POPC   C3B56625  11.586  13.743   7.050
 7711POPC   C4B56626  11.584  13.684   7.350
 7712POPC   NC356627  39.245  27.604   5.550
 7712POPC   PO456628  39.238  27.638   5.850
 7712POPC   GL156629  39.261  27.612   6.150
 7712POPC   GL256630  39.164  27.552   6.150
 7712POPC   C1A56631  39.200  27.595   6.450
 7712POPC   D2A56632  39.254  27.546   6.750
 7712POPC   C3A56633  39.258  27.634   7.050
 7712POPC   C4A56634  39.192  27.589   7.350
 7712POPC   C1B56635  39.073  27.469   6.450
 7712POPC   C2B56636  39.029  27.418   6.750
 7712POPC   C3B56637  39.082  27.443   7.050
 7712POPC   C4B56638  39.044  27.424   7.350
 7713POPC   NC356639  44.684  16.729   5.550
 7713POPC   PO456640  44.639  16.746   5.850
 7713POPC   GL156641  44.616  16.747   6.150
 7713POPC   GL256642  44.641  16.616   6.150
 7713POPC   C1A56643  44.628  16.690   6.450
 7713POPC   D2A56644  44.618  16.753   6.750
 7713POPC   C3A56645  44.672  16.693   7.050
 7713POPC   C4A56646  44.614  16.733   7.350
 7713POPC   C1B56647  44.598  16.450   6.450
 7713POPC   C2B56648  44.621  16.461   6.750
 7713POPC   C3B56649  44.592  16.464   7.050
 7713POPC   C4B56650  44.601  16.489   7.350
 7714POPC   NC356651   8.997  24.501   5.550
 7714POPC   PO456652   8.975  24.456   5.850
 7714POPC   GL156653   8.961  24.503   6.150
 7714POPC   GL256654   8.890  24.513   6.150
 7714POPC   C1A56655   8.960  24.462   6.450
 7714POPC   D2A56656   8.988  24.497   6.750
 7714POPC   C3A56657   8.937  24.467   7.050
 7714POPC   C4A56658   8.989  24.486   7.350
 7714POPC   C1B56659   8.711  24.497   6.450
 7714POPC   C2B56660   8.734  24.488   6.750
 7714POPC   C3B56661   8.758  24.498   7.050
 7714POPC   C4B56662   8.718  24.479   7.350
 7715POPC   NC356663  30.703  31.502   5.550
 7715POPC   PO456664  30.730  31.446   5.850
 7715POPC   GL156665  30.672  31.499   6.150
 7715POPC   GL256666  30.798  31.558   6.150
 7715POPC   C1A56667  30.741  31.487   6.450
 7715POPC   D2A56668  30.670  31.509   6.750
 7715POPC   C3A56669  30.667  31.477   7.050
 7715POPC   C4A56670  30.656  31.432   7.350
 7715POPC   C1B56671  30.928  31.531   6.450
 7715POPC   C2B56672  30.899  31.575   6.750
 7715POPC   C3B56673  30.925  31.585   7.050
 7715POPC   C4B56674  30.971  31.548   7.350
 7716POPC   NC356675   4.297  19.016   5.550
 7716POPC   PO456676   4.315  19.042   5.850
 7716POPC   GL156677   4.353  19.073   6.150
 7716POPC   GL256678   4.220  19.094   6.150
 7716POPC   C1A56679   4.332  19.082   6.450
 7716POPC   D2A56680   4.316  19.039   6.750
 7716POPC   C3A56681   4.314  19.075   7.050
 7716POPC   C4A56682   4.283  19.090   7.350
 7716POPC   C1B56683   4.118  19.154   6.450
 7716POPC   C2B56684   4.068  19.222   6.750
 7716POPC   C3B56685   4.081  19.137   7.050
 7716POPC   C4B56686   4.064  19.168   7.350
 7717POPC   NC356687  39.201  38.465   5.550
 7717POPC   PO456688  39.251  38.484   5.850
 7717POPC   GL156689  39.250  38.427   6.150
 7717POPC   GL256690  39.263  38.528   6.150
 7717POPC   C1A56691  39.231  38.427   6.450
 7717POPC   D2A56692  39.245  38.496   6.750
 7717POPC   C3A56693  39.202  38.414   7.050
 7717POPC   C4A56694  39.281  38.495   7.350
 7717POPC   C1B56695  39.302  38.672   6.450
 7717POPC   C2B56696  39.328  38.640   6.750
 7717POPC   C3B56697  39.322  38.679   7.050
 7717POPC   C4B56698  39.327  38.689   7.350
 7718POPC   NC356699  25.282  15.199   5.550
 7718POPC   PO456700  25.234  15.216   5.850
 7718POPC   GL156701  25.233  15.221   6.150
 7718POPC   GL256702  25.204  15.087   6.150
 7718POPC   C1A56703  25.254  15.215   6.450
 7718POPC   D2A56704  25.252  15.159   6.750
 7718POPC   C3A56705  25.245  15.184   7.050
 7718POPC   C4A56706  25.281  15.140   7.350
 7718POPC   C1B56707  25.016  15.078   6.450
 7718POPC   C2B56708  25.094  15.023   6.750
 7718POPC   C3B56709  25.065  15.028   7.050
 7718POPC   C4B56710  25.023  15.095   7.350
 7719POPC   NC356711  39.205  26.799   5.550
 7719POPC   PO456712  39.261  26.830   5.850
 7719POPC   GL156713  39.218  26.858   6.150
 7719POPC   GL256714  39.260  26.946   6.150
 7719POPC   C1A56715  39.241  26.856   6.450
 7719POPC   D2A56716  39.186  26.832   6.750
 7719POPC   C3A56717  39.195  26.833   7.050
 7719POPC   C4A56718  39.185  26.783   7.350
 7719POPC   C1B56719  39.383  26.977   6.450
 7719POPC   C2B56720  39.411  27.045   6.750
 7719POPC   C3B56721  39.395  26.968   7.050
 7719POPC   C4B56722  39.433  27.015   7.350
 7720POPC   NC356723   6.673  17.556   5.550
 7720POPC   PO456724   6.637  17.490   5.850
 7720POPC   GL156725   6.633  17.469   6.150
 7720POPC   GL256726   6.613  17.354   6.150
 7720POPC   C1A56727   6.646  17.459   6.450
 7720POPC   D2A56728   6.667  17.488   6.750
 7720POPC   C3A56729   6.607  17.465   7.050
 7720POPC   C4A56730   6.626  17.466   7.350
 7720POPC   C1B56731   6.543  17.261   6.450
 7720POPC   C2B56732   6.548  17.306   6.750
 7720POPC   C3B56733   6.575  17.255   7.050
 7720POPC   C4B56734   6.490  17.258   7.350
 7721POPC   NC356735  29.133   5.082   5.550
 7721POPC   PO456736  29.167   5.066   5.850
 7721POPC   GL156737  29.163   5.055   6.150
 7721POPC   GL256738  29.271   5.112   6.150
 7721POPC   C1A56739  29.185   5.096   6.450
 7721POPC   D2A56740  29.172   5.112   6.750
 7721POPC   C3A56741  29.167   5.091   7.050
 7721POPC   C4A56742  29.166   5.131   7.350
 7721POPC   C1B56743  29.346   5.133   6.450
 7721POPC   C2B56744  29.343   5.082   6.750
 7721POPC   C3B56745  29.412   5.110   7.050
 7721POPC   C4B56746  29.365   5.148   7.350
 7722POPC   NC356747   1.215  37.705   5.550
 7722POPC   PO456748   1.168  37.718   5.850
 7722POPC   GL156749   1.212  37.660   6.150
 7722POPC   GL256750   1.328  37.703   6.150
 7722POPC   C1A56751   1.166  37.666   6.450
 7722POPC   D2A56752   1.171  37.646   6.750
 7722POPC   C3A56753   1.211  37.699   7.050
 7722POPC   C4A56754   1.204  37.724   7.350
 7722POPC   C1B56755   1.448  37.786   6.450
 7722POPC   C2B56756   1.437  37.828   6.750
 7722POPC   C3B56757   1.454  37.771   7.050
 7722POPC   C4B56758   1.488  37.821   7.350
 7723POPC   NC356759  38.433  35.381   5.550
 7723POPC   PO456760  38.498  35.366   5.850
 7723POPC   GL156761  38.408  35.323   6.150
 7723POPC   GL256762  38.546  35.423   6.150
 7723POPC   C1A56763  38.444  35.370   6.450
 7723POPC   D2A56764  38.436  35.349   6.750
 7723POPC   C3A56765  38.490  35.360   7.050
 7723POPC   C4A56766  38.425  35.397   7.350
 7723POPC   C1B56767  38.695  35.515   6.450
 7723POPC   C2B56768  38.620  35.476   6.750
 7723POPC   C3B56769  38.631  35.489   7.050
 7723POPC   C4B56770  38.678  35.552   7.350
 7724POPC   NC356771   5.128   7.385   5.550
 7724POPC   PO456772   5.129   7.391   5.850
 7724POPC   GL156773   5.102   7.448   6.150
 7724POPC   GL256774   4.973   7.275   6.150
 7724POPC   C1A56775   5.122   7.378   6.450
 7724POPC   D2A56776   5.132   7.391   6.750
 7724POPC   C3A56777   5.054   7.375   7.050
 7724POPC   C4A56778   5.128   7.453   7.350
 7724POPC   C1B56779   4.886   7.270   6.450
 7724POPC   C2B56780   4.955   7.222   6.750
 7724POPC   C3B56781   4.943   7.205   7.050
 7724POPC   C4B56782   4.971   7.235   7.350
 7725POPC   NC356783   5.869  19.035   5.550
 7725POPC   PO456784   5.869  19.019   5.850
 7725POPC   GL156785   5.877  19.062   6.150
 7725POPC   GL256786   5.987  19.019   6.150
 7725POPC   C1A56787   5.909  19.066   6.450
 7725POPC   D2A56788   5.823  19.025   6.750
 7725POPC   C3A56789   5.823  19.095   7.050
 7725POPC   C4A56790   5.844  19.063   7.350
 7725POPC   C1B56791   6.133  18.960   6.450
 7725POPC   C2B56792   6.098  19.003   6.750
 7725POPC   C3B56793   6.110  18.973   7.050
 7725POPC   C4B56794   6.141  18.947   7.350
 7726POPC   NC356795  34.573   8.158   5.550
 7726POPC   PO456796  34.561   8.239   5.850
 7726POPC   GL156797  34.540   8.230   6.150
 7726POPC   GL256798  34.482   8.135   6.150
 7726POPC   C1A56799  34.544   8.147   6.450
 7726POPC   D2A56800  34.608   8.230   6.750
 7726POPC   C3A56801  34.597   8.198   7.050
 7726POPC   C4A56802  34.537   8.194   7.350
 7726POPC   C1B56803  34.372   8.050   6.450
 7726POPC   C2B56804  34.349   8.087   6.750
 7726POPC   C3B56805  34.398   8.035   7.050
 7726POPC   C4B56806  34.332   8.091   7.350
 7727POPC   NC356807  18.262  36.922   5.550
 7727POPC   PO456808  18.323  36.870   5.850
 7727POPC   GL156809  18.246  36.917   6.150
 7727POPC   GL256810  18.350  36.997   6.150
 7727POPC   C1A56811  18.244  36.864   6.450
 7727POPC   D2A56812  18.265  36.897   6.750
 7727POPC   C3A56813  18.276  36.924   7.050
 7727POPC   C4A56814  18.270  36.918   7.350
 7727POPC   C1B56815  18.301  37.150   6.450
 7727POPC   C2B56816  18.298  37.138   6.750
 7727POPC   C3B56817  18.339  37.132   7.050
 7727POPC   C4B56818  18.286  37.120   7.350
 7728POPC   NC356819  12.061  17.529   5.550
 7728POPC   PO456820  12.047  17.512   5.850
 7728POPC   GL156821  12.044  17.506   6.150
 7728POPC   GL256822  12.128  17.663   6.150
 7728POPC   C1A56823  12.076  17.464   6.450
 7728POPC   D2A56824  12.115  17.470   6.750
 7728POPC   C3A56825  12.090  17.504   7.050
 7728POPC   C4A56826  12.053  17.501   7.350
 7728POPC   C1B56827  12.117  17.730   6.450
 7728POPC   C2B56828  12.112  17.731   6.750
 7728POPC   C3B56829  12.059  17.760   7.050
 7728POPC   C4B56830  12.063  17.710   7.350
 7729POPC   NC356831  27.577  40.037   5.550
 7729POPC   PO456832  27.564  39.988   5.850
 7729POPC   GL156833  27.613  40.014   6.150
 7729POPC   GL256834  27.672  40.084   6.150
 7729POPC   C1A56835  27.627  40.043   6.450
 7729POPC   D2A56836  27.636  40.010   6.750
 7729POPC   C3A56837  27.551  40.002   7.050
 7729POPC   C4A56838  27.563  40.041   7.350
 7729POPC   C1B56839  27.817  40.166   6.450
 7729POPC   C2B56840  27.806  40.164   6.750
 7729POPC   C3B56841  27.809  40.205   7.050
 7729POPC   C4B56842  27.792  40.127   7.350
 7730POPC   NC356843  34.580  34.539   5.550
 7730POPC   PO456844  34.565  34.556   5.850
 7730POPC   GL156845  34.578  34.548   6.150
 7730POPC   GL256846  34.452  34.643   6.150
 7730POPC   C1A56847  34.612  34.626   6.450
 7730POPC   D2A56848  34.619  34.584   6.750
 7730POPC   C3A56849  34.557  34.591   7.050
 7730POPC   C4A56850  34.526  34.574   7.350
 7730POPC   C1B56851  34.413  34.731   6.450
 7730POPC   C2B56852  34.428  34.752   6.750
 7730POPC   C3B56853  34.414  34.822   7.050
 7730POPC   C4B56854  34.404  34.804   7.350
 7731POPC   NC356855   1.978  11.331   5.550
 7731POPC   PO456856   1.951  11.321   5.850
 7731POPC   GL156857   1.983  11.300   6.150
 7731POPC   GL256858   1.917  11.349   6.150
 7731POPC   C1A56859   2.007  11.327   6.450
 7731POPC   D2A56860   1.947  11.341   6.750
 7731POPC   C3A56861   1.941  11.309   7.050
 7731POPC   C4A56862   1.954  11.295   7.350
 7731POPC   C1B56863   1.808  11.435   6.450
 7731POPC   C2B56864   1.743  11.398   6.750
 7731POPC   C3B56865   1.802  11.475   7.050
 7731POPC   C4B56866   1.789  11.401   7.350
 7732POPC   NC356867  29.117  44.629   5.550
 7732POPC   PO456868  29.107  44.649   5.850
 7732POPC   GL156869  29.181  44.702   6.150
 7732POPC   GL256870  29.081  44.563   6.150
 7732POPC   C1A56871  29.113  44.680   6.450
 7732POPC   D2A56872  29.132  44.657   6.750
 7732POPC   C3A56873  29.140  44.624   7.050
 7732POPC   C4A56874  29.152  44.625   7.350
 7732POPC   C1B56875  28.900  44.501   6.450
 7732POPC   C2B56876  28.937  44.510   6.750
 7732POPC   C3B56877  28.974  44.542   7.050
 7732POPC   C4B56878  28.964  44.506   7.350
 7733POPC   NC356879   4.269  22.921   5.550
 7733POPC   PO456880   4.345  22.912   5.850
 7733POPC   GL156881   4.324  22.915   6.150
 7733POPC   GL256882   4.242  23.017   6.150
 7733POPC   C1A56883   4.303  22.960   6.450
 7733POPC   D2A56884   4.276  22.977   6.750
 7733POPC   C3A56885   4.333  22.960   7.050
 7733POPC   C4A56886   4.344  22.968   7.350
 7733POPC   C1B56887   4.071  23.055   6.450
 7733POPC   C2B56888   4.072  23.057   6.750
 7733POPC   C3B56889   4.073  23.059   7.050
 7733POPC   C4B56890   4.122  23.128   7.350
 7734POPC   NC356891  15.951  40.758   5.550
 7734POPC   PO456892  15.955  40.747   5.850
 7734POPC   GL156893  15.954  40.749   6.150
 7734POPC   GL256894  15.830  40.768   6.150
 7734POPC   C1A56895  15.910  40.740   6.450
 7734POPC   D2A56896  15.970  40.819   6.750
 7734POPC   C3A56897  15.954  40.741   7.050
 7734POPC   C4A56898  15.988  40.737   7.350
 7734POPC   C1B56899  15.729  40.795   6.450
 7734POPC   C2B56900  15.690  40.764   6.750
 7734POPC   C3B56901  15.740  40.849   7.050
 7734POPC   C4B56902  15.675  40.762   7.350
 7735POPC   NC356903   8.149   3.551   5.550
 7735POPC   PO456904   8.154   3.541   5.850
 7735POPC   GL156905   8.164   3.534   6.150
 7735POPC   GL256906   8.295   3.404   6.150
 7735POPC   C1A56907   8.210   3.535   6.450
 7735POPC   D2A56908   8.242   3.525   6.750
 7735POPC   C3A56909   8.230   3.552   7.050
 7735POPC   C4A56910   8.189   3.586   7.350
 7735POPC   C1B56911   8.335   3.295   6.450
 7735POPC   C2B56912   8.353   3.372   6.750
 7735POPC   C3B56913   8.346   3.318   7.050
 7735POPC   C4B56914   8.352   3.289   7.350
 7736POPC   NC356915  40.765  16.707   5.550
 7736POPC   PO456916  40.790  16.734   5.850
 7736POPC   GL156917  40.797  16.753   6.150
 7736POPC   GL256918  40.669  16.819   6.150
 7736POPC   C1A56919  40.818  16.760   6.450
 7736POPC   D2A56920  40.795  16.764   6.750
 7736POPC   C3A56921  40.768  16.719   7.050
 7736POPC   C4A56922  40.825  16.681   7.350
 7736POPC   C1B56923  40.616  16.860   6.450
 7736POPC   C2B56924  40.542  16.849   6.750
 7736POPC   C3B56925  40.605  16.870   7.050
 7736POPC   C4B56926  40.585  16.810   7.350
 7737POPC   NC356927   6.672  21.393   5.550
 7737POPC   PO456928   6.609  21.364   5.850
 7737POPC   GL156929   6.646  21.379   6.150
 7737POPC   GL256930   6.766  21.467   6.150
 7737POPC   C1A56931   6.601  21.411   6.450
 7737POPC   D2A56932   6.618  21.406   6.750
 7737POPC   C3A56933   6.666  21.392   7.050
 7737POPC   C4A56934   6.649  21.384   7.350
 7737POPC   C1B56935   6.892  21.465   6.450
 7737POPC   C2B56936   6.825  21.477   6.750
 7737POPC   C3B56937   6.840  21.549   7.050
 7737POPC   C4B56938   6.835  21.557   7.350
 7738POPC   NC356939  16.750  39.207   5.550
 7738POPC   PO456940  16.694  39.245   5.850
 7738POPC   GL156941  16.696  39.243   6.150
 7738POPC   GL256942  16.817  39.162   6.150
 7738POPC   C1A56943  16.718  39.205   6.450
 7738POPC   D2A56944  16.741  39.183   6.750
 7738POPC   C3A56945  16.741  39.222   7.050
 7738POPC   C4A56946  16.743  39.242   7.350
 7738POPC   C1B56947  17.005  39.208   6.450
 7738POPC   C2B56948  16.964  39.146   6.750
 7738POPC   C3B56949  16.951  39.239   7.050
 7738POPC   C4B56950  16.977  39.177   7.350
 7739POPC   NC356951  26.001  43.109   5.550
 7739POPC   PO456952  26.040  43.102   5.850
 7739POPC   GL156953  26.061  43.142   6.150
 7739POPC   GL256954  26.168  43.169   6.150
 7739POPC   C1A56955  26.025  43.137   6.450
 7739POPC   D2A56956  26.013  43.140   6.750
 7739POPC   C3A56957  26.018  43.084   7.050
 7739POPC   C4A56958  26.091  43.063   7.350
 7739POPC   C1B56959  26.306  43.260   6.450
 7739POPC   C2B56960  26.302  43.202   6.750
 7739POPC   C3B56961  26.240  43.172   7.050
 7739POPC   C4B56962  26.253  43.222   7.350
 7740POPC   NC356963  23.677   3.568   5.550
 7740POPC   PO456964  23.721   3.539   5.850
 7740POPC   GL156965  23.732   3.557   6.150
 7740POPC   GL256966  23.624   3.655   6.150
 7740POPC   C1A56967  23.671   3.511   6.450
 7740POPC   D2A56968  23.743   3.583   6.750
 7740POPC   C3A56969  23.732   3.537   7.050
 7740POPC   C4A56970  23.668   3.565   7.350
 7740POPC   C1B56971  23.548   3.741   6.450
 7740POPC   C2B56972  23.538   3.711   6.750
 7740POPC   C3B56973  23.557   3.765   7.050
 7740POPC   C4B56974  23.556   3.791   7.350
 7741POPC   NC356975  36.914  43.123   5.550
 7741POPC   PO456976  36.900  43.061   5.850
 7741POPC   GL156977  36.861  43.083   6.150
 7741POPC   GL256978  36.834  43.221   6.150
 7741POPC   C1A56979  36.903  43.083   6.450
 7741POPC   D2A56980  36.859  43.160   6.750
 7741POPC   C3A56981  36.855  43.134   7.050
 7741POPC   C4A56982  36.890  43.113   7.350
 7741POPC   C1B56983  36.690  43.274   6.450
 7741POPC   C2B56984  36.662  43.243   6.750
 7741POPC   C3B56985  36.717  43.222   7.050
 7741POPC   C4B56986  36.726  43.279   7.350
 7742POPC   NC356987  35.361  27.581   5.550
 7742POPC   PO456988  35.350  27.631   5.850
 7742POPC   GL156989  35.395  27.569   6.150
 7742POPC   GL256990  35.294  27.478   6.150
 7742POPC   C1A56991  35.303  27.625   6.450
 7742POPC   D2A56992  35.373  27.581   6.750
 7742POPC   C3A56993  35.332  27.583   7.050
 7742POPC   C4A56994  35.364  27.611   7.350
 7742POPC   C1B56995  35.179  27.459   6.450
 7742POPC   C2B56996  35.197  27.422   6.750
 7742POPC   C3B56997  35.107  27.471   7.050
 7742POPC   C4B56998  35.178  27.394   7.350
 7743POPC   NC356999  43.143  39.275   5.550
 7743POPC   PO457000  43.149  39.187   5.850
 7743POPC   GL157001  43.083  39.220   6.150
 7743POPC   GL257002  43.221  39.139   6.150
 7743POPC   C1A57003  43.065  39.232   6.450
 7743POPC   D2A57004  43.129  39.233   6.750
 7743POPC   C3A57005  43.155  39.200   7.050
 7743POPC   C4A57006  43.114  39.214   7.350
 7743POPC   C1B57007  43.261  39.029   6.450
 7743POPC   C2B57008  43.247  39.019   6.750
 7743POPC   C3B57009  43.252  39.106   7.050
 7743POPC   C4B57010  43.342  39.058   7.350
 7744POPC   NC357011   5.872   2.730   5.550
 7744POPC   PO457012   5.888   2.788   5.850
 7744POPC   GL157013   5.877   2.767   6.150
 7744POPC   GL257014   5.918   2.606   6.150
 7744POPC   C1A57015   5.822   2.716   6.450
 7744POPC   D2A57016   5.861   2.808   6.750
 7744POPC   C3A57017   5.841   2.771   7.050
 7744POPC   C4A57018   5.832   2.776   7.350
 7744POPC   C1B57019   5.903   2.495   6.450
 7744POPC   C2B57020   5.839   2.559   6.750
 7744POPC   C3B57021   5.928   2.528   7.050
 7744POPC   C4B57022   5.863   2.519   7.350
 7745POPC   NC357023   1.177  28.381   5.550
 7745POPC   PO457024   1.250  28.409   5.850
 7745POPC   GL157025   1.198  28.415   6.150
 7745POPC   GL257026   1.256  28.525   6.150
 7745POPC   C1A57027   1.219  28.328   6.450
 7745POPC   D2A57028   1.201  28.378   6.750
 7745POPC   C3A57029   1.190  28.376   7.050
 7745POPC   C4A57030   1.243  28.390   7.350
 7745POPC   C1B57031   1.276  28.635   6.450
 7745POPC   C2B57032   1.198  28.626   6.750
 7745POPC   C3B57033   1.217  28.613   7.050
 7745POPC   C4B57034   1.247  28.587   7.350
 7746POPC   NC357035   9.724  10.526   5.550
 7746POPC   PO457036   9.703  10.542   5.850
 7746POPC   GL157037   9.757  10.563   6.150
 7746POPC   GL257038   9.866  10.434   6.150
 7746POPC   C1A57039   9.766  10.508   6.450
 7746POPC   D2A57040   9.739  10.534   6.750
 7746POPC   C3A57041   9.735  10.528   7.050
 7746POPC   C4A57042   9.731  10.479   7.350
 7746POPC   C1B57043   9.947  10.287   6.450
 7746POPC   C2B57044   9.861  10.306   6.750
 7746POPC   C3B57045   9.925  10.378   7.050
 7746POPC   C4B57046   9.929  10.299   7.350
 7747POPC   NC357047  39.964  43.915   5.550
 7747POPC   PO457048  40.020  43.861   5.850
 7747POPC   GL157049  39.988  43.851   6.150
 7747POPC   GL257050  40.065  43.958   6.150
 7747POPC   C1A57051  40.036  43.903   6.450
 7747POPC   D2A57052  40.015  43.917   6.750
 7747POPC   C3A57053  40.048  43.874   7.050
 7747POPC   C4A57054  39.981  43.923   7.350
 7747POPC   C1B57055  40.071  44.160   6.450
 7747POPC   C2B57056  40.070  44.136   6.750
 7747POPC   C3B57057  40.117  44.096   7.050
 7747POPC   C4B57058  40.112  44.080   7.350
 7748POPC   NC357059  33.817  35.394   5.550
 7748POPC   PO457060  33.820  35.329   5.850
 7748POPC   GL157061  33.822  35.344   6.150
 7748POPC   GL257062  33.819  35.189   6.150
 7748POPC   C1A57063  33.810  35.302   6.450
 7748POPC   D2A57064  33.798  35.362   6.750
 7748POPC   C3A57065  33.788  35.322   7.050
 7748POPC   C4A57066  33.848  35.349   7.350
 7748POPC   C1B57067  33.804  35.139   6.450
 7748POPC   C2B57068  33.773  35.071   6.750
 7748POPC   C3B57069  33.809  35.107   7.050
 7748POPC   C4B57070  33.806  35.092   7.350
 7749POPC   NC357071   4.284  16.768   5.550
 7749POPC   PO457072   4.307  16.754   5.850
 7749POPC   GL157073   4.317  16.739   6.150
 7749POPC   GL257074   4.402  16.678   6.150
 7749POPC   C1A57075   4.282  16.696   6.450
 7749POPC   D2A57076   4.326  16.749   6.750
 7749POPC   C3A57077   4.304  16.692   7.050
 7749POPC   C4A57078   4.272  16.691   7.350
 7749POPC   C1B57079   4.579  16.689   6.450
 7749POPC   C2B57080   4.599  16.693   6.750
 7749POPC   C3B57081   4.517  16.666   7.050
 7749POPC   C4B57082   4.571  16.729   7.350
 7750POPC   NC357083  15.153  27.572   5.550
 7750POPC   PO457084  15.139  27.613   5.850
 7750POPC   GL157085  15.161  27.612   6.150
 7750POPC   GL257086  15.173  27.745   6.150
 7750POPC   C1A57087  15.189  27.608   6.450
 7750POPC   D2A57088  15.147  27.639   6.750
 7750POPC   C3A57089  15.216  27.582   7.050
 7750POPC   C4A57090  15.192  27.623   7.350
 7750POPC   C1B57091  15.170  27.794   6.450
 7750POPC   C2B57092  15.129  27.843   6.750
 7750POPC   C3B57093  15.116  27.869   7.050
 7750POPC   C4B57094  15.124  27.882   7.350
 7751POPC   NC357095   7.445  29.171   5.550
 7751POPC   PO457096   7.388  29.149   5.850
 7751POPC   GL157097   7.374  29.184   6.150
 7751POPC   GL257098   7.372  29.201   6.150
 7751POPC   C1A57099   7.434  29.185   6.450
 7751POPC   D2A57100   7.413  29.127   6.750
 7751POPC   C3A57101   7.422  29.109   7.050
 7751POPC   C4A57102   7.406  29.099   7.350
 7751POPC   C1B57103   7.240  29.303   6.450
 7751POPC   C2B57104   7.229  29.347   6.750
 7751POPC   C3B57105   7.239  29.325   7.050
 7751POPC   C4B57106   7.239  29.377   7.350
 7752POPC   NC357107  27.594   3.527   5.550
 7752POPC   PO457108  27.555   3.500   5.850
 7752POPC   GL157109  27.580   3.591   6.150
 7752POPC   GL257110  27.700   3.592   6.150
 7752POPC   C1A57111  27.566   3.518   6.450
 7752POPC   D2A57112  27.624   3.513   6.750
 7752POPC   C3A57113  27.617   3.590   7.050
 7752POPC   C4A57114  27.605   3.551   7.350
 7752POPC   C1B57115  27.864   3.551   6.450
 7752POPC   C2B57116  27.836   3.623   6.750
 7752POPC   C3B57117  27.855   3.590   7.050
 7752POPC   C4B57118  27.825   3.627   7.350
 7753POPC   NC357119  12.080  12.064   5.550
 7753POPC   PO457120  12.082  12.115   5.850
 7753POPC   GL157121  12.064  12.121   6.150
 7753POPC   GL257122  11.987  12.161   6.150
 7753POPC   C1A57123  12.054  12.121   6.450
 7753POPC   D2A57124  12.116  12.056   6.750
 7753POPC   C3A57125  12.064  12.095   7.050
 7753POPC   C4A57126  12.040  12.050   7.350
 7753POPC   C1B57127  11.931  12.221   6.450
 7753POPC   C2B57128  11.940  12.301   6.750
 7753POPC   C3B57129  11.927  12.273   7.050
 7753POPC   C4B57130  11.910  12.237   7.350
 7754POPC   NC357131  29.876  12.802   5.550
 7754POPC   PO457132  29.960  12.873   5.850
 7754POPC   GL157133  29.919  12.812   6.150
 7754POPC   GL257134  30.034  12.916   6.150
 7754POPC   C1A57135  29.905  12.886   6.450
 7754POPC   D2A57136  29.942  12.813   6.750
 7754POPC   C3A57137  29.916  12.898   7.050
 7754POPC   C4A57138  29.889  12.872   7.350
 7754POPC   C1B57139  30.055  13.018   6.450
 7754POPC   C2B57140  30.101  13.046   6.750
 7754POPC   C3B57141  30.039  13.027   7.050
 7754POPC   C4B57142  30.054  13.025   7.350
 7755POPC   NC357143  24.537  26.075   5.550
 7755POPC   PO457144  24.520  26.056   5.850
 7755POPC   GL157145  24.515  26.066   6.150
 7755POPC   GL257146  24.430  26.121   6.150
 7755POPC   C1A57147  24.442  26.011   6.450
 7755POPC   D2A57148  24.449  26.038   6.750
 7755POPC   C3A57149  24.511  26.039   7.050
 7755POPC   C4A57150  24.452  25.993   7.350
 7755POPC   C1B57151  24.438  26.238   6.450
 7755POPC   C2B57152  24.422  26.273   6.750
 7755POPC   C3B57153  24.490  26.270   7.050
 7755POPC   C4B57154  24.404  26.312   7.350
 7756POPC   NC357155   2.736  12.070   5.550
 7756POPC   PO457156   2.723  12.027   5.850
 7756POPC   GL157157   2.787  12.076   6.150
 7756POPC   GL257158   2.854  12.133   6.150
 7756POPC   C1A57159   2.785  12.071   6.450
 7756POPC   D2A57160   2.740  12.033   6.750
 7756POPC   C3A57161   2.812  12.087   7.050
 7756POPC   C4A57162   2.743  12.083   7.350
 7756POPC   C1B57163   2.938  12.210   6.450
 7756POPC   C2B57164   2.935  12.193   6.750
 7756POPC   C3B57165   2.969  12.224   7.050
 7756POPC   C4B57166   2.969  12.192   7.350
 7757POPC   NC357167  33.058   8.974   5.550
 7757POPC   PO457168  33.003   8.977   5.850
 7757POPC   GL157169  33.042   8.999   6.150
 7757POPC   GL257170  32.939   9.057   6.150
 7757POPC   C1A57171  33.001   8.947   6.450
 7757POPC   D2A57172  33.026   9.002   6.750
 7757POPC   C3A57173  32.984   8.960   7.050
 7757POPC   C4A57174  33.067   8.997   7.350
 7757POPC   C1B57175  32.751   9.047   6.450
 7757POPC   C2B57176  32.799   9.076   6.750
 7757POPC   C3B57177  32.765   9.026   7.050
 7757POPC   C4B57178  32.780   9.081   7.350
 7758POPC   NC357179  24.491   4.337   5.550
 7758POPC   PO457180  24.511   4.315   5.850
 7758POPC   GL157181  24.482   4.324   6.150
 7758POPC   GL257182  24.473   4.426   6.150
 7758POPC   C1A57183  24.528   4.343   6.450
 7758POPC   D2A57184  24.492   4.361   6.750
 7758POPC   C3A57185  24.494   4.359   7.050
 7758POPC   C4A57186  24.457   4.280   7.350
 7758POPC   C1B57187  24.455   4.518   6.450
 7758POPC   C2B57188  24.383   4.539   6.750
 7758POPC   C3B57189  24.429   4.530   7.050
 7758POPC   C4B57190  24.469   4.563   7.350
 7759POPC   NC357191  31.453  39.188   5.550
 7759POPC   PO457192  31.514  39.232   5.850
 7759POPC   GL157193  31.462  39.188   6.150
 7759POPC   GL257194  31.333  39.181   6.150
 7759POPC   C1A57195  31.490  39.249   6.450
 7759POPC   D2A57196  31.432  39.258   6.750
 7759POPC   C3A57197  31.487  39.278   7.050
 7759POPC   C4A57198  31.496  39.222   7.350
 7759POPC   C1B57199  31.287  39.057   6.450
 7759POPC   C2B57200  31.256  39.022   6.750
 7759POPC   C3B57201  31.271  39.087   7.050
 7759POPC   C4B57202  31.275  39.053   7.350
 7760POPC   NC357203  33.821  30.729   5.550
 7760POPC   PO457204  33.760  30.702   5.850
 7760POPC   GL157205  33.804  30.661   6.150
 7760POPC   GL257206  33.859  30.601   6.150
 7760POPC   C1A57207  33.810  30.710   6.450
 7760POPC   D2A57208  33.807  30.739   6.750
 7760POPC   C3A57209  33.818  30.714   7.050
 7760POPC   C4A57210  33.829  30.666   7.350
 7760POPC   C1B57211  33.983  30.496   6.450
 7760POPC   C2B57212  33.899  30.535   6.750
 7760POPC   C3B57213  33.967  30.508   7.050
 7760POPC   C4B57214  33.958  30.519   7.350
 7761POPC   NC357215  16.700  32.270   5.550
 7761POPC   PO457216  16.744  32.271   5.850
 7761POPC   GL157217  16.685  32.245   6.150
 7761POPC   GL257218  16.613  32.217   6.150
 7761POPC   C1A57219  16.731  32.259   6.450
 7761POPC   D2A57220  16.717  32.231   6.750
 7761POPC   C3A57221  16.761  32.238   7.050
 7761POPC   C4A57222  16.724  32.210   7.350
 7761POPC   C1B57223  16.446  32.270   6.450
 7761POPC   C2B57224  16.475  32.230   6.750
 7761POPC   C3B57225  16.472  32.273   7.050
 7761POPC   C4B57226  16.520  32.251   7.350
 7762POPC   NC357227  31.449   8.198   5.550
 7762POPC   PO457228  31.522   8.198   5.850
 7762POPC   GL157229  31.455   8.179   6.150
 7762POPC   GL257230  31.540   8.127   6.150
 7762POPC   C1A57231  31.455   8.167   6.450
 7762POPC   D2A57232  31.470   8.161   6.750
 7762POPC   C3A57233  31.445   8.156   7.050
 7762POPC   C4A57234  31.491   8.151   7.350
 7762POPC   C1B57235  31.562   7.965   6.450
 7762POPC   C2B57236  31.642   7.998   6.750
 7762POPC   C3B57237  31.569   7.980   7.050
 7762POPC   C4B57238  31.573   8.003   7.350
 7763POPC   NC357239  12.036  33.033   5.550
 7763POPC   PO457240  12.031  32.976   5.850
 7763POPC   GL157241  12.035  33.021   6.150
 7763POPC   GL257242  12.085  32.888   6.150
 7763POPC   C1A57243  12.065  33.045   6.450
 7763POPC   D2A57244  12.032  33.036   6.750
 7763POPC   C3A57245  12.043  32.987   7.050
 7763POPC   C4A57246  12.045  33.030   7.350
 7763POPC   C1B57247  12.029  32.745   6.450
 7763POPC   C2B57248  12.063  32.770   6.750
 7763POPC   C3B57249  12.053  32.792   7.050
 7763POPC   C4B57250  12.047  32.774   7.350
 7764POPC   NC357251  30.662  18.247   5.550
 7764POPC   PO457252  30.688  18.274   5.850
 7764POPC   GL157253  30.732  18.321   6.150
 7764POPC   GL257254  30.669  18.189   6.150
 7764POPC   C1A57255  30.661  18.256   6.450
 7764POPC   D2A57256  30.666  18.312   6.750
 7764POPC   C3A57257  30.732  18.249   7.050
 7764POPC   C4A57258  30.746  18.319   7.350
 7764POPC   C1B57259  30.753  18.072   6.450
 7764POPC   C2B57260  30.733  18.028   6.750
 7764POPC   C3B57261  30.687  18.068   7.050
 7764POPC   C4B57262  30.697  18.050   7.350
 7765POPC   NC357263   3.535  17.496   5.550
 7765POPC   PO457264   3.566  17.477   5.850
 7765POPC   GL157265   3.564  17.553   6.150
 7765POPC   GL257266   3.610  17.429   6.150
 7765POPC   C1A57267   3.523  17.466   6.450
 7765POPC   D2A57268   3.590  17.544   6.750
 7765POPC   C3A57269   3.512  17.468   7.050
 7765POPC   C4A57270   3.590  17.518   7.350
 7765POPC   C1B57271   3.650  17.272   6.450
 7765POPC   C2B57272   3.699  17.266   6.750
 7765POPC   C3B57273   3.679  17.324   7.050
 7765POPC   C4B57274   3.685  17.310   7.350
 7766POPC   NC357275  24.471  26.831   5.550
 7766POPC   PO457276  24.527  26.778   5.850
 7766POPC   GL157277  24.504  26.851   6.150
 7766POPC   GL257278  24.426  26.888   6.150
 7766POPC   C1A57279  24.491  26.798   6.450
 7766POPC   D2A57280  24.489  26.860   6.750
 7766POPC   C3A57281  24.529  26.781   7.050
 7766POPC   C4A57282  24.460  26.836   7.350
 7766POPC   C1B57283  24.381  27.094   6.450
 7766POPC   C2B57284  24.371  27.055   6.750
 7766POPC   C3B57285  24.379  27.094   7.050
 7766POPC   C4B57286  24.388  27.095   7.350
 7767POPC   NC357287  37.725  22.124   5.550
 7767POPC   PO457288  37.704  22.209   5.850
 7767POPC   GL157289  37.721  22.198   6.150
 7767POPC   GL257290  37.704  22.044   6.150
 7767POPC   C1A57291  37.676  22.195   6.450
 7767POPC   D2A57292  37.672  22.145   6.750
 7767POPC   C3A57293  37.683  22.153   7.050
 7767POPC   C4A57294  37.706  22.135   7.350
 7767POPC   C1B57295  37.801  21.928   6.450
 7767POPC   C2B57296  37.769  22.003   6.750
 7767POPC   C3B57297  37.861  21.941   7.050
 7767POPC   C4B57298  37.785  21.906   7.350
 7768POPC   NC357299  42.307  17.533   5.550
 7768POPC   PO457300  42.310  17.485   5.850
 7768POPC   GL157301  42.384  17.474   6.150
 7768POPC   GL257302  42.299  17.439   6.150
 7768POPC   C1A57303  42.350  17.527   6.450
 7768POPC   D2A57304  42.369  17.544   6.750
 7768POPC   C3A57305  42.308  17.485   7.050
 7768POPC   C4A57306  42.296  17.459   7.350
 7768POPC   C1B57307  42.174  17.300   6.450
 7768POPC   C2B57308  42.122  17.321   6.750
 7768POPC   C3B57309  42.127  17.313   7.050
 7768POPC   C4B57310  42.191  17.296   7.350
 7769POPC   NC357311   7.428  37.652   5.550
 7769POPC   PO457312   7.403  37.716   5.850
 7769POPC   GL157313   7.371  37.681   6.150
 7769POPC   GL257314   7.390  37.769   6.150
 7769POPC   C1A57315   7.460  37.642   6.450
 7769POPC   D2A57316   7.394  37.671   6.750
 7769POPC   C3A57317   7.397  37.676   7.050
 7769POPC   C4A57318   7.401  37.646   7.350
 7769POPC   C1B57319   7.359  37.936   6.450
 7769POPC   C2B57320   7.394  37.962   6.750
 7769POPC   C3B57321   7.361  37.947   7.050
 7769POPC   C4B57322   7.365  37.905   7.350
 7770POPC   NC357323  18.326  44.620   5.550
 7770POPC   PO457324  18.328  44.659   5.850
 7770POPC   GL157325  18.308  44.618   6.150
 7770POPC   GL257326  18.167  44.648   6.150
 7770POPC   C1A57327  18.270  44.613   6.450
 7770POPC   D2A57328  18.240  44.650   6.750
 7770POPC   C3A57329  18.258  44.675   7.050
 7770POPC   C4A57330  18.320  44.662   7.350
 7770POPC   C1B57331  18.066  44.578   6.450
 7770POPC   C2B57332  18.022  44.609   6.750
 7770POPC   C3B57333  18.037  44.531   7.050
 7770POPC   C4B57334  18.008  44.525   7.350
 7771POPC   NC357335  23.724  15.156   5.550
 7771POPC   PO457336  23.679  15.225   5.850
 7771POPC   GL157337  23.665  15.191   6.150
 7771POPC   GL257338  23.822  15.137   6.150
 7771POPC   C1A57339  23.690  15.134   6.450
 7771POPC   D2A57340  23.709  15.138   6.750
 7771POPC   C3A57341  23.762  15.214   7.050
 7771POPC   C4A57342  23.732  15.228   7.350
 7771POPC   C1B57343  23.941  15.086   6.450
 7771POPC   C2B57344  23.913  15.104   6.750
 7771POPC   C3B57345  23.976  15.081   7.050
 7771POPC   C4B57346  23.940  15.126   7.350
 7772POPC   NC357347  11.292  38.484   5.550
 7772POPC   PO457348  11.276  38.441   5.850
 7772POPC   GL157349  11.317  38.456   6.150
 7772POPC   GL257350  11.155  38.507   6.150
 7772POPC   C1A57351  11.303  38.480   6.450
 7772POPC   D2A57352  11.265  38.459   6.750
 7772POPC   C3A57353  11.345  38.488   7.050
 7772POPC   C4A57354  11.257  38.425   7.350
 7772POPC   C1B57355  11.045  38.494   6.450
 7772POPC   C2B57356  11.010  38.506   6.750
 7772POPC   C3B57357  11.066  38.529   7.050
 7772POPC   C4B57358  11.034  38.464   7.350
 7773POPC   NC357359  36.107   1.240   5.550
 7773POPC   PO457360  36.106   1.207   5.850
 7773POPC   GL157361  36.099   1.211   6.150
 7773POPC   GL257362  36.035   1.263   6.150
 7773POPC   C1A57363  36.105   1.211   6.450
 7773POPC   D2A57364  36.086   1.187   6.750
 7773POPC   C3A57365  36.083   1.237   7.050
 7773POPC   C4A57366  36.147   1.165   7.350
 7773POPC   C1B57367  35.939   1.386   6.450
 7773POPC   C2B57368  35.960   1.396   6.750
 7773POPC   C3B57369  35.894   1.423   7.050
 7773POPC   C4B57370  35.973   1.375   7.350
 7774POPC   NC357371   2.772   1.978   5.550
 7774POPC   PO457372   2.724   1.996   5.850
 7774POPC   GL157373   2.720   1.969   6.150
 7774POPC   GL257374   2.729   2.118   6.150
 7774POPC   C1A57375   2.732   1.981   6.450
 7774POPC   D2A57376   2.758   1.977   6.750
 7774POPC   C3A57377   2.789   1.962   7.050
 7774POPC   C4A57378   2.745   2.026   7.350
 7774POPC   C1B57379   2.750   2.278   6.450
 7774POPC   C2B57380   2.809   2.267   6.750
 7774POPC   C3B57381   2.785   2.248   7.050
 7774POPC   C4B57382   2.737   2.274   7.350
 7775POPC   NC357383  44.683  36.134   5.550
 7775POPC   PO457384  44.627  36.175   5.850
 7775POPC   GL157385  44.631  36.085   6.150
 7775POPC   GL257386  44.628  36.233   6.150
 7775POPC   C1A57387  44.691  36.094   6.450
 7775POPC   D2A57388  44.649  36.103   6.750
 7775POPC   C3A57389  44.639  36.090   7.050
 7775POPC   C4A57390  44.706  36.173   7.350
 7775POPC   C1B57391  44.563  36.390   6.450
 7775POPC   C2B57392  44.569  36.403   6.750
 7775POPC   C3B57393  44.553  36.325   7.050
 7775POPC   C4B57394  44.559  36.357   7.350
 7776POPC   NC357395   1.957  25.251   5.550
 7776POPC   PO457396   2.034  25.289   5.850
 7776POPC   GL157397   2.003  25.260   6.150
 7776POPC   GL257398   2.071  25.196   6.150
 7776POPC   C1A57399   1.976  25.300   6.450
 7776POPC   D2A57400   1.988  25.260   6.750
 7776POPC   C3A57401   2.030  25.268   7.050
 7776POPC   C4A57402   1.957  25.286   7.350
 7776POPC   C1B57403   2.110  25.077   6.450
 7776POPC   C2B57404   2.094  25.009   6.750
 7776POPC   C3B57405   2.071  24.995   7.050
 7776POPC   C4B57406   2.107  25.001   7.350
 7777POPC   NC357407   2.019  41.510   5.550
 7777POPC   PO457408   2.030  41.580   5.850
 7777POPC   GL157409   1.997  41.563   6.150
 7777POPC   GL257410   1.996  41.710   6.150
 7777POPC   C1A57411   1.976  41.579   6.450
 7777POPC   D2A57412   1.984  41.544   6.750
 7777POPC   C3A57413   2.015  41.598   7.050
 7777POPC   C4A57414   2.003  41.602   7.350
 7777POPC   C1B57415   2.028  41.775   6.450
 7777POPC   C2B57416   2.005  41.818   6.750
 7777POPC   C3B57417   2.073  41.832   7.050
 7777POPC   C4B57418   2.063  41.761   7.350
 7778POPC   NC357419  14.402   8.246   5.550
 7778POPC   PO457420  14.442   8.225   5.850
 7778POPC   GL157421  14.379   8.189   6.150
 7778POPC   GL257422  14.339   8.267   6.150
 7778POPC   C1A57423  14.366   8.194   6.450
 7778POPC   D2A57424  14.434   8.163   6.750
 7778POPC   C3A57425  14.356   8.244   7.050
 7778POPC   C4A57426  14.447   8.245   7.350
 7778POPC   C1B57427  14.237   8.281   6.450
 7778POPC   C2B57428  14.161   8.313   6.750
 7778POPC   C3B57429  14.214   8.315   7.050
 7778POPC   C4B57430  14.231   8.318   7.350
 7779POPC   NC357431  23.727  40.762   5.550
 7779POPC   PO457432  23.730  40.768   5.850
 7779POPC   GL157433  23.731  40.783   6.150
 7779POPC   GL257434  23.647  40.869   6.150
 7779POPC   C1A57435  23.729  40.739   6.450
 7779POPC   D2A57436  23.692  40.747   6.750
 7779POPC   C3A57437  23.700  40.770   7.050
 7779POPC   C4A57438  23.758  40.771   7.350
 7779POPC   C1B57439  23.677  41.029   6.450
 7779POPC   C2B57440  23.652  41.022   6.750
 7779POPC   C3B57441  23.625  41.029   7.050
 7779POPC   C4B57442  23.669  41.069   7.350
 7780POPC   NC357443  44.628   8.971   5.550
 7780POPC   PO457444  44.701   9.021   5.850
 7780POPC   GL157445  44.618   9.002   6.150
 7780POPC   GL257446  44.693   9.072   6.150
 7780POPC   C1A57447  44.694   8.925   6.450
 7780POPC   D2A57448  44.631   8.966   6.750
 7780POPC   C3A57449  44.655   8.927   7.050
 7780POPC   C4A57450  44.671   8.979   7.350
 7780POPC   C1B57451  44.626   9.257   6.450
 7780POPC   C2B57452  44.635   9.206   6.750
 7780POPC   C3B57453  44.667   9.234   7.050
 7780POPC   C4B57454  44.670   9.272   7.350
 7781POPC   NC357455   2.745  18.279   5.550
 7781POPC   PO457456   2.813  18.269   5.850
 7781POPC   GL157457   2.795  18.259   6.150
 7781POPC   GL257458   2.920  18.224   6.150
 7781POPC   C1A57459   2.744  18.300   6.450
 7781POPC   D2A57460   2.780  18.319   6.750
 7781POPC   C3A57461   2.772  18.248   7.050
 7781POPC   C4A57462   2.807  18.272   7.350
 7781POPC   C1B57463   2.957  18.178   6.450
 7781POPC   C2B57464   3.018  18.154   6.750
 7781POPC   C3B57465   3.016  18.159   7.050
 7781POPC   C4B57466   2.959  18.192   7.350
 7782POPC   NC357467  15.182  23.734   5.550
 7782POPC   PO457468  15.152  23.689   5.850
 7782POPC   GL157469  15.217  23.690   6.150
 7782POPC   GL257470  15.042  23.756   6.150
 7782POPC   C1A57471  15.217  23.701   6.450
 7782POPC   D2A57472  15.175  23.734   6.750
 7782POPC   C3A57473  15.206  23.753   7.050
 7782POPC   C4A57474  15.187  23.682   7.350
 7782POPC   C1B57475  14.957  23.663   6.450
 7782POPC   C2B57476  14.973  23.733   6.750
 7782POPC   C3B57477  14.896  23.742   7.050
 7782POPC   C4B57478  14.918  23.687   7.350
 7783POPC   NC357479  12.083  41.528   5.550
 7783POPC   PO457480  12.092  41.544   5.850
 7783POPC   GL157481  12.066  41.590   6.150
 7783POPC   GL257482  12.187  41.452   6.150
 7783POPC   C1A57483  12.045  41.538   6.450
 7783POPC   D2A57484  12.034  41.596   6.750
 7783POPC   C3A57485  12.113  41.541   7.050
 7783POPC   C4A57486  12.119  41.599   7.350
 7783POPC   C1B57487  12.259  41.354   6.450
 7783POPC   C2B57488  12.242  41.373   6.750
 7783POPC   C3B57489  12.201  41.325   7.050
 7783POPC   C4B57490  12.196  41.376   7.350
 7784POPC   NC357491  17.512  29.969   5.550
 7784POPC   PO457492  17.460  29.965   5.850
 7784POPC   GL157493  17.520  29.954   6.150
 7784POPC   GL257494  17.601  29.914   6.150
 7784POPC   C1A57495  17.545  29.952   6.450
 7784POPC   D2A57496  17.549  29.955   6.750
 7784POPC   C3A57497  17.496  29.879   7.050
 7784POPC   C4A57498  17.494  29.893   7.350
 7784POPC   C1B57499  17.740  29.998   6.450
 7784POPC   C2B57500  17.789  29.997   6.750
 7784POPC   C3B57501  17.792  30.025   7.050
 7784POPC   C4B57502  17.740  29.972   7.350
 7785POPC   NC357503  40.043   1.262   5.550
 7785POPC   PO457504  39.979   1.222   5.850
 7785POPC   GL157505  40.030   1.172   6.150
 7785POPC   GL257506  40.065   1.118   6.150
 7785POPC   C1A57507  39.996   1.222   6.450
 7785POPC   D2A57508  40.037   1.228   6.750
 7785POPC   C3A57509  40.003   1.223   7.050
 7785POPC   C4A57510  40.008   1.245   7.350
 7785POPC   C1B57511  40.135   1.043   6.450
 7785POPC   C2B57512  40.122   0.999   6.750
 7785POPC   C3B57513  40.175   1.004   7.050
 7785POPC   C4B57514  40.088   0.982   7.350
 7786POPC   NC357515  36.085   5.892   5.550
 7786POPC   PO457516  36.144   5.859   5.850
 7786POPC   GL157517  36.080   5.862   6.150
 7786POPC   GL257518  36.012   5.928   6.150
 7786POPC   C1A57519  36.101   5.853   6.450
 7786POPC   D2A57520  36.110   5.900   6.750
 7786POPC   C3A57521  36.081   5.859   7.050
 7786POPC   C4A57522  36.149   5.889   7.350
 7786POPC   C1B57523  36.001   6.103   6.450
 7786POPC   C2B57524  36.021   6.056   6.750
 7786POPC   C3B57525  35.983   6.117   7.050
 7786POPC   C4B57526  35.967   6.083   7.350
 7787POPC   NC357527  19.876  20.654   5.550
 7787POPC   PO457528  19.878  20.626   5.850
 7787POPC   GL157529  19.809  20.599   6.150
 7787POPC   GL257530  19.954  20.641   6.150
 7787POPC   C1A57531  19.800  20.651   6.450
 7787POPC   D2A57532  19.861  20.617   6.750
 7787POPC   C3A57533  19.793  20.606   7.050
 7787POPC   C4A57534  19.810  20.620   7.350
 7787POPC   C1B57535  20.060  20.705   6.450
 7787POPC   C2B57536  20.019  20.800   6.750
 7787POPC   C3B57537  20.021  20.776   7.050
 7787POPC   C4B57538  20.088  20.706   7.350
 7788POPC   NC357539  26.029  43.876   5.550
 7788POPC   PO457540  26.091  43.913   5.850
 7788POPC   GL157541  26.080  43.865   6.150
 7788POPC   GL257542  25.962  43.850   6.150
 7788POPC   C1A57543  26.032  43.842   6.450
 7788POPC   D2A57544  25.996  43.861   6.750
 7788POPC   C3A57545  26.013  43.874   7.050
 7788POPC   C4A57546  26.011  43.868   7.350
 7788POPC   C1B57547  25.804  43.747   6.450
 7788POPC   C2B57548  25.872  43.777   6.750
 7788POPC   C3B57549  25.809  43.727   7.050
 7788POPC   C4B57550  25.803  43.759   7.350
 7789POPC   NC357551  37.633  13.618   5.550
 7789POPC   PO457552  37.652  13.658   5.850
 7789POPC   GL157553  37.651  13.617   6.150
 7789POPC   GL257554  37.727  13.706   6.150
 7789POPC   C1A57555  37.673  13.588   6.450
 7789POPC   D2A57556  37.666  13.584   6.750
 7789POPC   C3A57557  37.676  13.643   7.050
 7789POPC   C4A57558  37.657  13.595   7.350
 7789POPC   C1B57559  37.769  13.888   6.450
 7789POPC   C2B57560  37.771  13.905   6.750
 7789POPC   C3B57561  37.735  13.893   7.050
 7789POPC   C4B57562  37.756  13.831   7.350
 7790POPC   NC357563   9.003  14.384   5.550
 7790POPC   PO457564   9.020  14.390   5.850
 7790POPC   GL157565   8.939  14.358   6.150
 7790POPC   GL257566   9.024  14.359   6.150
 7790POPC   C1A57567   8.928  14.435   6.450
 7790POPC   D2A57568   8.958  14.425   6.750
 7790POPC   C3A57569   8.996  14.394   7.050
 7790POPC   C4A57570   8.992  14.400   7.350
 7790POPC   C1B57571   9.182  14.190   6.450
 7790POPC   C2B57572   9.124  14.260   6.750
 7790POPC   C3B57573   9.158  14.219   7.050
 7790POPC   C4B57574   9.129  14.233   7.350
 7791POPC   NC357575  22.910  23.731   5.550
 7791POPC   PO457576  22.957  23.755   5.850
 7791POPC   GL157577  22.972  23.710   6.150
 7791POPC   GL257578  22.782  23.646   6.150
 7791POPC   C1A57579  22.940  23.669   6.450
 7791POPC   D2A57580  22.966  23.726   6.750
 7791POPC   C3A57581  22.947  23.682   7.050
 7791POPC   C4A57582  22.982  23.729   7.350
 7791POPC   C1B57583  22.741  23.701   6.450
 7791POPC   C2B57584  22.687  23.716   6.750
 7791POPC   C3B57585  22.643  23.712   7.050
 7791POPC   C4B57586  22.651  23.696   7.350
 7792POPC   NC357587   2.720  44.617   5.550
 7792POPC   PO457588   2.771  44.650   5.850
 7792POPC   GL157589   2.807  44.703   6.150
 7792POPC   GL257590   2.900  44.577   6.150
 7792POPC   C1A57591   2.751  44.659   6.450
 7792POPC   D2A57592   2.759  44.701   6.750
 7792POPC   C3A57593   2.738  44.686   7.050
 7792POPC   C4A57594   2.741  44.680   7.350
 7792POPC   C1B57595   2.991  44.521   6.450
 7792POPC   C2B57596   2.991  44.553   6.750
 7792POPC   C3B57597   2.995  44.548   7.050
 7792POPC   C4B57598   3.011  44.503   7.350
 7793POPC   NC357599  32.998  14.444   5.550
 7793POPC   PO457600  33.063  14.390   5.850
 7793POPC   GL157601  32.983  14.394   6.150
 7793POPC   GL257602  32.940  14.464   6.150
 7793POPC   C1A57603  33.010  14.424   6.450
 7793POPC   D2A57604  33.042  14.418   6.750
 7793POPC   C3A57605  32.978  14.393   7.050
 7793POPC   C4A57606  32.983  14.372   7.350
 7793POPC   C1B57607  32.772  14.524   6.450
 7793POPC   C2B57608  32.850  14.583   6.750
 7793POPC   C3B57609  32.844  14.542   7.050
 7793POPC   C4B57610  32.826  14.525   7.350
 7794POPC   NC357611  23.743  38.494   5.550
 7794POPC   PO457612  23.713  38.493   5.850
 7794POPC   GL157613  23.681  38.445   6.150
 7794POPC   GL257614  23.733  38.376   6.150
 7794POPC   C1A57615  23.674  38.451   6.450
 7794POPC   D2A57616  23.753  38.497   6.750
 7794POPC   C3A57617  23.735  38.504   7.050
 7794POPC   C4A57618  23.714  38.480   7.350
 7794POPC   C1B57619  23.686  38.204   6.450
 7794POPC   C2B57620  23.743  38.239   6.750
 7794POPC   C3B57621  23.701  38.228   7.050
 7794POPC   C4B57622  23.691  38.235   7.350
 7795POPC   NC357623  13.670  12.095   5.550
 7795POPC   PO457624  13.634  12.060   5.850
 7795POPC   GL157625  13.667  12.046   6.150
 7795POPC   GL257626  13.748  12.004   6.150
 7795POPC   C1A57627  13.617  12.087   6.450
 7795POPC   D2A57628  13.660  12.032   6.750
 7795POPC   C3A57629  13.588  12.077   7.050
 7795POPC   C4A57630  13.668  12.084   7.350
 7795POPC   C1B57631  13.838  11.977   6.450
 7795POPC   C2B57632  13.823  11.939   6.750
 7795POPC   C3B57633  13.870  11.931   7.050
 7795POPC   C4B57634  13.871  11.984   7.350
 7796POPC   NC357635   0.436   6.598   5.550
 7796POPC   PO457636   0.391   6.609   5.850
 7796POPC   GL157637   0.401   6.688   6.150
 7796POPC   GL257638   0.283   6.692   6.150
 7796POPC   C1A57639   0.413   6.686   6.450
 7796POPC   D2A57640   0.469   6.627   6.750
 7796POPC   C3A57641   0.483   6.612   7.050
 7796POPC   C4A57642   0.476   6.671   7.350
 7796POPC   C1B57643   0.244   6.769   6.450
 7796POPC   C2B57644   0.255   6.797   6.750
 7796POPC   C3B57645   0.182   6.751   7.050
 7796POPC   C4B57646   0.165   6.745   7.350
 7797POPC   NC357647  31.428  31.467   5.550
 7797POPC   PO457648  31.432  31.464   5.850
 7797POPC   GL157649  31.502  31.449   6.150
 7797POPC   GL257650  31.343  31.516   6.150
 7797POPC   C1A57651  31.434  31.516   6.450
 7797POPC   D2A57652  31.425  31.443   6.750
 7797POPC   C3A57653  31.522  31.507   7.050
 7797POPC   C4A57654  31.464  31.518   7.350
 7797POPC   C1B57655  31.269  31.539   6.450
 7797POPC   C2B57656  31.287  31.604   6.750
 7797POPC   C3B57657  31.257  31.549   7.050
 7797POPC   C4B57658  31.244  31.608   7.350
 7798POPC   NC357659  43.122  24.472   5.550
 7798POPC   PO457660  43.112  24.472   5.850
 7798POPC   GL157661  43.132  24.466   6.150
 7798POPC   GL257662  43.170  24.620   6.150
 7798POPC   C1A57663  43.078  24.485   6.450
 7798POPC   D2A57664  43.127  24.536   6.750
 7798POPC   C3A57665  43.086  24.531   7.050
 7798POPC   C4A57666  43.082  24.537   7.350
 7798POPC   C1B57667  43.183  24.755   6.450
 7798POPC   C2B57668  43.230  24.750   6.750
 7798POPC   C3B57669  43.190  24.738   7.050
 7798POPC   C4B57670  43.200  24.739   7.350
 7799POPC   NC357671  20.597  23.729   5.550
 7799POPC   PO457672  20.562  23.717   5.850
 7799POPC   GL157673  20.654  23.700   6.150
 7799POPC   GL257674  20.539  23.629   6.150
 7799POPC   C1A57675  20.658  23.683   6.450
 7799POPC   D2A57676  20.578  23.682   6.750
 7799POPC   C3A57677  20.611  23.715   7.050
 7799POPC   C4A57678  20.645  23.680   7.350
 7799POPC   C1B57679  20.556  23.507   6.450
 7799POPC   C2B57680  20.547  23.432   6.750
 7799POPC   C3B57681  20.587  23.474   7.050
 7799POPC   C4B57682  20.505  23.468   7.350
 7800POPC   NC357683  36.112  15.966   5.550
 7800POPC   PO457684  36.097  15.999   5.850
 7800POPC   GL157685  36.085  15.930   6.150
 7800POPC   GL257686  36.213  16.059   6.150
 7800POPC   C1A57687  36.128  15.946   6.450
 7800POPC   D2A57688  36.124  15.978   6.750
 7800POPC   C3A57689  36.164  15.909   7.050
 7800POPC   C4A57690  36.156  15.932   7.350
 7800POPC   C1B57691  36.292  16.168   6.450
 7800POPC   C2B57692  36.230  16.160   6.750
 7800POPC   C3B57693  36.225  16.213   7.050
 7800POPC   C4B57694  36.292  16.193   7.350
 7801POPC   NC357695   5.085  19.043   5.550
 7801POPC   PO457696   5.096  19.076   5.850
 7801POPC   GL157697   5.094  19.100   6.150
 7801POPC   GL257698   5.019  18.911   6.150
 7801POPC   C1A57699   5.143  19.009   6.450
 7801POPC   D2A57700   5.138  19.025   6.750
 7801POPC   C3A57701   5.053  19.018   7.050
 7801POPC   C4A57702   5.054  19.079   7.350
 7801POPC   C1B57703   4.957  18.868   6.450
 7801POPC   C2B57704   4.996  18.807   6.750
 7801POPC   C3B57705   5.025  18.813   7.050
 7801POPC   C4B57706   5.027  18.821   7.350
 7802POPC   NC357707   5.889  44.695   5.550
 7802POPC   PO457708   5.831  44.700   5.850
 7802POPC   GL157709   5.832  44.683   6.150
 7802POPC   GL257710   5.788  44.545   6.150
 7802POPC   C1A57711   5.879  44.708   6.450
 7802POPC   D2A57712   5.836  44.682   6.750
 7802POPC   C3A57713   5.831  44.615   7.050
 7802POPC   C4A57714   5.857  44.675   7.350
 7802POPC   C1B57715   5.652  44.559   6.450
 7802POPC   C2B57716   5.712  44.523   6.750
 7802POPC   C3B57717   5.637  44.480   7.050
 7802POPC   C4B57718   5.666  44.503   7.350
 7803POPC   NC357719  10.541  19.790   5.550
 7803POPC   PO457720  10.504  19.821   5.850
 7803POPC   GL157721  10.565  19.841   6.150
 7803POPC   GL257722  10.441  19.744   6.150
 7803POPC   C1A57723  10.529  19.791   6.450
 7803POPC   D2A57724  10.484  19.843   6.750
 7803POPC   C3A57725  10.520  19.840   7.050
 7803POPC   C4A57726  10.555  19.817   7.350
 7803POPC   C1B57727  10.396  19.594   6.450
 7803POPC   C2B57728  10.390  19.628   6.750
 7803POPC   C3B57729  10.396  19.659   7.050
 7803POPC   C4B57730  10.319  19.611   7.350
 7804POPC   NC357731  42.377  29.922   5.550
 7804POPC   PO457732  42.377  29.947   5.850
 7804POPC   GL157733  42.373  29.945   6.150
 7804POPC   GL257734  42.466  29.948   6.150
 7804POPC   C1A57735  42.305  29.937   6.450
 7804POPC   D2A57736  42.328  29.955   6.750
 7804POPC   C3A57737  42.314  29.872   7.050
 7804POPC   C4A57738  42.337  29.920   7.350
 7804POPC   C1B57739  42.521  30.033   6.450
 7804POPC   C2B57740  42.520  30.015   6.750
 7804POPC   C3B57741  42.614  30.047   7.050
 7804POPC   C4B57742  42.572  29.978   7.350
 7805POPC   NC357743  23.692  12.066   5.550
 7805POPC   PO457744  23.696  12.092   5.850
 7805POPC   GL157745  23.746  12.060   6.150
 7805POPC   GL257746  23.632  11.960   6.150
 7805POPC   C1A57747  23.697  12.064   6.450
 7805POPC   D2A57748  23.729  12.101   6.750
 7805POPC   C3A57749  23.691  12.094   7.050
 7805POPC   C4A57750  23.705  12.114   7.350
 7805POPC   C1B57751  23.537  11.874   6.450
 7805POPC   C2B57752  23.520  11.869   6.750
 7805POPC   C3B57753  23.566  11.851   7.050
 7805POPC   C4B57754  23.533  11.913   7.350
 7806POPC   NC357755   4.275  13.654   5.550
 7806POPC   PO457756   4.317  13.674   5.850
 7806POPC   GL157757   4.345  13.649   6.150
 7806POPC   GL257758   4.406  13.560   6.150
 7806POPC   C1A57759   4.281  13.632   6.450
 7806POPC   D2A57760   4.296  13.619   6.750
 7806POPC   C3A57761   4.293  13.656   7.050
 7806POPC   C4A57762   4.284  13.581   7.350
 7806POPC   C1B57763   4.530  13.506   6.450
 7806POPC   C2B57764   4.498  13.475   6.750
 7806POPC   C3B57765   4.506  13.448   7.050
 7806POPC   C4B57766   4.536  13.474   7.350
 7807POPC   NC357767  24.510  39.964   5.550
 7807POPC   PO457768  24.495  40.024   5.850
 7807POPC   GL157769  24.449  39.961   6.150
 7807POPC   GL257770  24.385  39.998   6.150
 7807POPC   C1A57771  24.471  40.048   6.450
 7807POPC   D2A57772  24.506  40.022   6.750
 7807POPC   C3A57773  24.515  40.009   7.050
 7807POPC   C4A57774  24.522  40.009   7.350
 7807POPC   C1B57775  24.206  39.983   6.450
 7807POPC   C2B57776  24.217  40.002   6.750
 7807POPC   C3B57777  24.203  39.981   7.050
 7807POPC   C4B57778  24.239  39.961   7.350
 7808POPC   NC357779  41.548  24.512   5.550
 7808POPC   PO457780  41.572  24.485   5.850
 7808POPC   GL157781  41.541  24.449   6.150
 7808POPC   GL257782  41.710  24.582   6.150
 7808POPC   C1A57783  41.512  24.494   6.450
 7808POPC   D2A57784  41.600  24.464   6.750
 7808POPC   C3A57785  41.534  24.454   7.050
 7808POPC   C4A57786  41.574  24.459   7.350
 7808POPC   C1B57787  41.800  24.626   6.450
 7808POPC   C2B57788  41.759  24.658   6.750
 7808POPC   C3B57789  41.805  24.611   7.050
 7808POPC   C4B57790  41.750  24.595   7.350
 7809POPC   NC357791   8.233   7.468   5.550
 7809POPC   PO457792   8.211   7.396   5.850
 7809POPC   GL157793   8.191   7.465   6.150
 7809POPC   GL257794   8.176   7.256   6.150
 7809POPC   C1A57795   8.198   7.448   6.450
 7809POPC   D2A57796   8.176   7.386   6.750
 7809POPC   C3A57797   8.239   7.393   7.050
 7809POPC   C4A57798   8.245   7.427   7.350
 7809POPC   C1B57799   8.176   7.175   6.450
 7809POPC   C2B57800   8.220   7.175   6.750
 7809POPC   C3B57801   8.243   7.160   7.050
 7809POPC   C4B57802   8.249   7.149   7.350
 7810POPC   NC357803  20.564  25.219   5.550
 7810POPC   PO457804  20.645  25.273   5.850
 7810POPC   GL157805  20.641  25.265   6.150
 7810POPC   GL257806  20.681  25.222   6.150
 7810POPC   C1A57807  20.596  25.286   6.450
 7810POPC   D2A57808  20.630  25.300   6.750
 7810POPC   C3A57809  20.628  25.257   7.050
 7810POPC   C4A57810  20.627  25.305   7.350
 7810POPC   C1B57811  20.815  25.111   6.450
 7810POPC   C2B57812  20.768  25.146   6.750
 7810POPC   C3B57813  20.831  25.052   7.050
 7810POPC   C4B57814  20.845  25.105   7.350
 7811POPC   NC357815  36.900  18.269   5.550
 7811POPC   PO457816  36.929  18.282   5.850
 7811POPC   GL157817  36.921  18.304   6.150
 7811POPC   GL257818  36.829  18.314   6.150
 7811POPC   C1A57819  36.941  18.250   6.450
 7811POPC   D2A57820  36.886  18.266   6.750
 7811POPC   C3A57821  36.912  18.312   7.050
 7811POPC   C4A57822  36.879  18.259   7.350
 7811POPC   C1B57823  36.688  18.358   6.450
 7811POPC   C2B57824  36.696  18.357   6.750
 7811POPC   C3B57825  36.704  18.443   7.050
 7811POPC   C4B57826  36.695  18.442   7.350
 7812POPC   NC357827   7.371  16.684   5.550
 7812POPC   PO457828   7.463  16.761   5.850
 7812POPC   GL157829   7.414  16.732   6.150
 7812POPC   GL257830   7.470  16.580   6.150
 7812POPC   C1A57831   7.404  16.766   6.450
 7812POPC   D2A57832   7.460  16.777   6.750
 7812POPC   C3A57833   7.404  16.759   7.050
 7812POPC   C4A57834   7.457  16.759   7.350
 7812POPC   C1B57835   7.501  16.499   6.450
 7812POPC   C2B57836   7.444  16.527   6.750
 7812POPC   C3B57837   7.486  16.505   7.050
 7812POPC   C4B57838   7.494  16.518   7.350
 7813POPC   NC357839  24.445  30.729   5.550
 7813POPC   PO457840  24.475  30.667   5.850
 7813POPC   GL157841  24.522  30.649   6.150
 7813POPC   GL257842  24.444  30.766   6.150
 7813POPC   C1A57843  24.504  30.737   6.450
 7813POPC   D2A57844  24.441  30.680   6.750
 7813POPC   C3A57845  24.502  30.723   7.050
 7813POPC   C4A57846  24.523  30.698   7.350
 7813POPC   C1B57847  24.351  30.848   6.450
 7813POPC   C2B57848  24.268  30.905   6.750
 7813POPC   C3B57849  24.268  30.886   7.050
 7813POPC   C4B57850  24.298  30.837   7.350
 7814POPC   NC357851  21.352   0.454   5.550
 7814POPC   PO457852  21.401   0.464   5.850
 7814POPC   GL157853  21.376   0.457   6.150
 7814POPC   GL257854  21.410   0.305   6.150
 7814POPC   C1A57855  21.400   0.422   6.450
 7814POPC   D2A57856  21.379   0.461   6.750
 7814POPC   C3A57857  21.384   0.476   7.050
 7814POPC   C4A57858  21.398   0.478   7.350
 7814POPC   C1B57859  21.294   0.192   6.450
 7814POPC   C2B57860  21.363   0.171   6.750
 7814POPC   C3B57861  21.382   0.179   7.050
 7814POPC   C4B57862  21.361   0.165   7.350
 7815POPC   NC357863   9.798  36.080   5.550
 7815POPC   PO457864   9.778  36.172   5.850
 7815POPC   GL157865   9.700  36.135   6.150
 7815POPC   GL257866   9.765  36.226   6.150
 7815POPC   C1A57867   9.751  36.148   6.450
 7815POPC   D2A57868   9.745  36.175   6.750
 7815POPC   C3A57869   9.753  36.089   7.050
 7815POPC   C4A57870   9.741  36.168   7.350
 7815POPC   C1B57871   9.728  36.385   6.450
 7815POPC   C2B57872   9.784  36.366   6.750
 7815POPC   C3B57873   9.782  36.385   7.050
 7815POPC   C4B57874   9.781  36.397   7.350
 7816POPC   NC357875  13.661  36.116   5.550
 7816POPC   PO457876  13.585  36.157   5.850
 7816POPC   GL157877  13.634  36.109   6.150
 7816POPC   GL257878  13.756  36.057   6.150
 7816POPC   C1A57879  13.614  36.145   6.450
 7816POPC   D2A57880  13.580  36.087   6.750
 7816POPC   C3A57881  13.621  36.168   7.050
 7816POPC   C4A57882  13.672  36.143   7.350
 7816POPC   C1B57883  13.815  35.992   6.450
 7816POPC   C2B57884  13.807  35.991   6.750
 7816POPC   C3B57885  13.849  35.951   7.050
 7816POPC   C4B57886  13.843  35.981   7.350
 7817POPC   NC357887  13.677  21.394   5.550
 7817POPC   PO457888  13.651  21.387   5.850
 7817POPC   GL157889  13.599  21.364   6.150
 7817POPC   GL257890  13.769  21.322   6.150
 7817POPC   C1A57891  13.640  21.402   6.450
 7817POPC   D2A57892  13.668  21.376   6.750
 7817POPC   C3A57893  13.624  21.402   7.050
 7817POPC   C4A57894  13.624  21.436   7.350
 7817POPC   C1B57895  13.856  21.243   6.450
 7817POPC   C2B57896  13.853  21.260   6.750
 7817POPC   C3B57897  13.798  21.222   7.050
 7817POPC   C4B57898  13.802  21.201   7.350
 7818POPC   NC357899  43.905  15.204   5.550
 7818POPC   PO457900  43.891  15.221   5.850
 7818POPC   GL157901  43.838  15.153   6.150
 7818POPC   GL257902  43.846  15.080   6.150
 7818POPC   C1A57903  43.844  15.220   6.450
 7818POPC   D2A57904  43.875  15.211   6.750
 7818POPC   C3A57905  43.867  15.227   7.050
 7818POPC   C4A57906  43.838  15.184   7.350
 7818POPC   C1B57907  43.827  14.931   6.450
 7818POPC   C2B57908  43.829  14.895   6.750
 7818POPC   C3B57909  43.880  14.922   7.050
 7818POPC   C4B57910  43.895  14.941   7.350
 7819POPC   NC357911  23.702  43.907   5.550
 7819POPC   PO457912  23.670  43.877   5.850
 7819POPC   GL157913  23.696  43.854   6.150
 7819POPC   GL257914  23.731  43.742   6.150
 7819POPC   C1A57915  23.754  43.891   6.450
 7819POPC   D2A57916  23.741  43.849   6.750
 7819POPC   C3A57917  23.737  43.903   7.050
 7819POPC   C4A57918  23.667  43.879   7.350
 7819POPC   C1B57919  23.656  43.650   6.450
 7819POPC   C2B57920  23.675  43.635   6.750
 7819POPC   C3B57921  23.704  43.640   7.050
 7819POPC   C4B57922  23.694  43.651   7.350
 7820POPC   NC357923  16.740   6.607   5.550
 7820POPC   PO457924  16.701   6.682   5.850
 7820POPC   GL157925  16.761   6.656   6.150
 7820POPC   GL257926  16.681   6.491   6.150
 7820POPC   C1A57927  16.736   6.648   6.450
 7820POPC   D2A57928  16.698   6.665   6.750
 7820POPC   C3A57929  16.741   6.634   7.050
 7820POPC   C4A57930  16.733   6.608   7.350
 7820POPC   C1B57931  16.682   6.403   6.450
 7820POPC   C2B57932  16.691   6.358   6.750
 7820POPC   C3B57933  16.628   6.411   7.050
 7820POPC   C4B57934  16.650   6.365   7.350
 7821POPC   NC357935   8.224  40.744   5.550
 7821POPC   PO457936   8.182  40.760   5.850
 7821POPC   GL157937   8.235  40.816   6.150
 7821POPC   GL257938   8.139  40.670   6.150
 7821POPC   C1A57939   8.195  40.782   6.450
 7821POPC   D2A57940   8.155  40.818   6.750
 7821POPC   C3A57941   8.177  40.751   7.050
 7821POPC   C4A57942   8.217  40.787   7.350
 7821POPC   C1B57943   8.044  40.524   6.450
 7821POPC   C2B57944   8.078  40.557   6.750
 7821POPC   C3B57945   8.026  40.517   7.050
 7821POPC   C4B57946   8.116  40.596   7.350
 7822POPC   NC357947  19.023  26.768   5.550
 7822POPC   PO457948  19.031  26.822   5.850
 7822POPC   GL157949  19.062  26.864   6.150
 7822POPC   GL257950  18.892  26.839   6.150
 7822POPC   C1A57951  19.061  26.851   6.450
 7822POPC   D2A57952  19.035  26.822   6.750
 7822POPC   C3A57953  19.010  26.787   7.050
 7822POPC   C4A57954  19.055  26.791   7.350
 7822POPC   C1B57955  18.808  26.780   6.450
 7822POPC   C2B57956  18.775  26.758   6.750
 7822POPC   C3B57957  18.785  26.774   7.050
 7822POPC   C4B57958  18.806  26.827   7.350
 7823POPC   NC357959  32.240  16.738   5.550
 7823POPC   PO457960  32.244  16.778   5.850
 7823POPC   GL157961  32.256  16.738   6.150
 7823POPC   GL257962  32.175  16.876   6.150
 7823POPC   C1A57963  32.261  16.726   6.450
 7823POPC   D2A57964  32.272  16.737   6.750
 7823POPC   C3A57965  32.201  16.705   7.050
 7823POPC   C4A57966  32.280  16.747   7.350
 7823POPC   C1B57967  32.124  16.926   6.450
 7823POPC   C2B57968  32.137  16.898   6.750
 7823POPC   C3B57969  32.079  16.963   7.050
 7823POPC   C4B57970  32.073  16.961   7.350
 7824POPC   NC357971   8.946  22.194   5.550
 7824POPC   PO457972   8.978  22.143   5.850
 7824POPC   GL157973   8.953  22.155   6.150
 7824POPC   GL257974   8.981  22.032   6.150
 7824POPC   C1A57975   8.964  22.165   6.450
 7824POPC   D2A57976   8.957  22.180   6.750
 7824POPC   C3A57977   8.991  22.134   7.050
 7824POPC   C4A57978   9.018  22.203   7.350
 7824POPC   C1B57979   8.922  21.874   6.450
 7824POPC   C2B57980   8.936  21.945   6.750
 7824POPC   C3B57981   8.955  21.894   7.050
 7824POPC   C4B57982   8.898  21.889   7.350
 7825POPC   NC357983  10.569  32.276   5.550
 7825POPC   PO457984  10.502  32.276   5.850
 7825POPC   GL157985  10.528  32.199   6.150
 7825POPC   GL257986  10.502  32.149   6.150
 7825POPC   C1A57987  10.494  32.219   6.450
 7825POPC   D2A57988  10.481  32.247   6.750
 7825POPC   C3A57989  10.486  32.220   7.050
 7825POPC   C4A57990  10.559  32.208   7.350
 7825POPC   C1B57991  10.586  32.001   6.450
 7825POPC   C2B57992  10.563  32.021   6.750
 7825POPC   C3B57993  10.598  32.020   7.050
 7825POPC   C4B57994  10.565  32.022   7.350
 7826POPC   NC357995   0.476   3.510   5.550
 7826POPC   PO457996   0.430   3.554   5.850
 7826POPC   GL157997   0.463   3.579   6.150
 7826POPC   GL257998   0.507   3.671   6.150
 7826POPC   C1A57999   0.457   3.494   6.450
 7826POPC   D2A58000   0.444   3.589   6.750
 7826POPC   C3A58001   0.476   3.562   7.050
 7826POPC   C4A58002   0.445   3.590   7.350
 7826POPC   C1B58003   0.566   3.705   6.450
 7826POPC   C2B58004   0.626   3.787   6.750
 7826POPC   C3B58005   0.606   3.762   7.050
 7826POPC   C4B58006   0.549   3.781   7.350
 7827POPC   NC358007  27.611  36.163   5.550
 7827POPC   PO458008  27.548  36.078   5.850
 7827POPC   GL158009  27.638  36.148   6.150
 7827POPC   GL258010  27.537  36.049   6.150
 7827POPC   C1A58011  27.555  36.132   6.450
 7827POPC   D2A58012  27.632  36.117   6.750
 7827POPC   C3A58013  27.549  36.107   7.050
 7827POPC   C4A58014  27.553  36.080   7.350
 7827POPC   C1B58015  27.502  35.852   6.450
 7827POPC   C2B58016  27.512  35.886   6.750
 7827POPC   C3B58017  27.510  35.842   7.050
 7827POPC   C4B58018  27.538  35.836   7.350
 7828POPC   NC358019  35.366   2.807   5.550
 7828POPC   PO458020  35.367   2.808   5.850
 7828POPC   GL158021  35.315   2.749   6.150
 7828POPC   GL258022  35.499   2.680   6.150
 7828POPC   C1A58023  35.345   2.768   6.450
 7828POPC   D2A58024  35.393   2.739   6.750
 7828POPC   C3A58025  35.366   2.788   7.050
 7828POPC   C4A58026  35.324   2.806   7.350
 7828POPC   C1B58027  35.572   2.724   6.450
 7828POPC   C2B58028  35.614   2.740   6.750
 7828POPC   C3B58029  35.547   2.691   7.050
 7828POPC   C4B58030  35.552   2.722   7.350
 7829POPC   NC358031  27.571   5.823   5.550
 7829POPC   PO458032  27.617   5.875   5.850
 7829POPC   GL158033  27.617   5.828   6.150
 7829POPC   GL258034  27.428   5.807   6.150
 7829POPC   C1A58035  27.609   5.834   6.450
 7829POPC   D2A58036  27.620   5.860   6.750
 7829POPC   C3A58037  27.621   5.839   7.050
 7829POPC   C4A58038  27.563   5.871   7.350
 7829POPC   C1B58039  27.322   5.849   6.450
 7829POPC   C2B58040  27.376   5.792   6.750
 7829POPC   C3B58041  27.399   5.768   7.050
 7829POPC   C4B58042  27.360   5.779   7.350
 7830POPC   NC358043  26.827   5.066   5.550
 7830POPC   PO458044  26.781   5.134   5.850
 7830POPC   GL158045  26.863   5.052   6.150
 7830POPC   GL258046  26.796   4.946   6.150
 7830POPC   C1A58047  26.860   5.134   6.450
 7830POPC   D2A58048  26.797   5.103   6.750
 7830POPC   C3A58049  26.827   5.100   7.050
 7830POPC   C4A58050  26.817   5.103   7.350
 7830POPC   C1B58051  26.647   4.904   6.450
 7830POPC   C2B58052  26.679   4.878   6.750
 7830POPC   C3B58053  26.699   4.921   7.050
 7830POPC   C4B58054  26.646   4.843   7.350
 7831POPC   NC358055  26.768  23.712   5.550
 7831POPC   PO458056  26.823  23.684   5.850
 7831POPC   GL158057  26.787  23.742   6.150
 7831POPC   GL258058  26.707  23.650   6.150
 7831POPC   C1A58059  26.805  23.708   6.450
 7831POPC   D2A58060  26.860  23.700   6.750
 7831POPC   C3A58061  26.845  23.685   7.050
 7831POPC   C4A58062  26.852  23.671   7.350
 7831POPC   C1B58063  26.668  23.565   6.450
 7831POPC   C2B58064  26.652  23.513   6.750
 7831POPC   C3B58065  26.638  23.579   7.050
 7831POPC   C4B58066  26.650  23.482   7.350
 7832POPC   NC358067  24.509   5.093   5.550
 7832POPC   PO458068  24.474   5.044   5.850
 7832POPC   GL158069  24.525   5.094   6.150
 7832POPC   GL258070  24.494   4.981   6.150
 7832POPC   C1A58071  24.446   5.055   6.450
 7832POPC   D2A58072  24.479   5.093   6.750
 7832POPC   C3A58073  24.516   5.128   7.050
 7832POPC   C4A58074  24.477   5.142   7.350
 7832POPC   C1B58075  24.509   4.879   6.450
 7832POPC   C2B58076  24.445   4.818   6.750
 7832POPC   C3B58077  24.486   4.844   7.050
 7832POPC   C4B58078  24.447   4.825   7.350
 7833POPC   NC358079  19.856  38.478   5.550
 7833POPC   PO458080  19.846  38.476   5.850
 7833POPC   GL158081  19.788  38.409   6.150
 7833POPC   GL258082  19.662  38.452   6.150
 7833POPC   C1A58083  19.837  38.451   6.450
 7833POPC   D2A58084  19.876  38.470   6.750
 7833POPC   C3A58085  19.799  38.437   7.050
 7833POPC   C4A58086  19.869  38.418   7.350
 7833POPC   C1B58087  19.572  38.398   6.450
 7833POPC   C2B58088  19.567  38.383   6.750
 7833POPC   C3B58089  19.568  38.392   7.050
 7833POPC   C4B58090  19.610  38.465   7.350
 7834POPC   NC358091  40.758  40.770   5.550
 7834POPC   PO458092  40.775  40.754   5.850
 7834POPC   GL158093  40.822  40.747   6.150
 7834POPC   GL258094  40.794  40.896   6.150
 7834POPC   C1A58095  40.755  40.740   6.450
 7834POPC   D2A58096  40.740  40.801   6.750
 7834POPC   C3A58097  40.770  40.771   7.050
 7834POPC   C4A58098  40.755  40.817   7.350
 7834POPC   C1B58099  40.719  41.015   6.450
 7834POPC   C2B58100  40.708  41.045   6.750
 7834POPC   C3B58101  40.706  40.988   7.050
 7834POPC   C4B58102  40.708  41.067   7.350
 7835POPC   NC358103  14.448  27.629   5.550
 7835POPC   PO458104  14.433  27.603   5.850
 7835POPC   GL158105  14.410  27.581   6.150
 7835POPC   GL258106  14.311  27.635   6.150
 7835POPC   C1A58107  14.401  27.616   6.450
 7835POPC   D2A58108  14.397  27.572   6.750
 7835POPC   C3A58109  14.362  27.621   7.050
 7835POPC   C4A58110  14.426  27.641   7.350
 7835POPC   C1B58111  14.199  27.756   6.450
 7835POPC   C2B58112  14.229  27.711   6.750
 7835POPC   C3B58113  14.195  27.740   7.050
 7835POPC   C4B58114  14.230  27.739   7.350
 7836POPC   NC358115  25.994  15.921   5.550
 7836POPC   PO458116  26.004  15.927   5.850
 7836POPC   GL158117  26.033  15.994   6.150
 7836POPC   GL258118  25.921  15.989   6.150
 7836POPC   C1A58119  26.063  15.980   6.450
 7836POPC   D2A58120  26.058  16.001   6.750
 7836POPC   C3A58121  26.044  15.977   7.050
 7836POPC   C4A58122  26.070  15.935   7.350
 7836POPC   C1B58123  25.794  16.119   6.450
 7836POPC   C2B58124  25.889  16.065   6.750
 7836POPC   C3B58125  25.883  16.124   7.050
 7836POPC   C4B58126  25.865  16.115   7.350
 7837POPC   NC358127   5.843  15.986   5.550
 7837POPC   PO458128   5.872  16.003   5.850
 7837POPC   GL158129   5.905  15.977   6.150
 7837POPC   GL258130   5.785  15.791   6.150
 7837POPC   C1A58131   5.886  16.001   6.450
 7837POPC   D2A58132   5.871  15.943   6.750
 7837POPC   C3A58133   5.854  15.935   7.050
 7837POPC   C4A58134   5.850  15.920   7.350
 7837POPC   C1B58135   5.807  15.714   6.450
 7837POPC   C2B58136   5.736  15.712   6.750
 7837POPC   C3B58137   5.778  15.717   7.050
 7837POPC   C4B58138   5.737  15.707   7.350
 7838POPC   NC358139  41.539  16.716   5.550
 7838POPC   PO458140  41.579  16.780   5.850
 7838POPC   GL158141  41.532  16.702   6.150
 7838POPC   GL258142  41.550  16.660   6.150
 7838POPC   C1A58143  41.601  16.778   6.450
 7838POPC   D2A58144  41.579  16.775   6.750
 7838POPC   C3A58145  41.554  16.713   7.050
 7838POPC   C4A58146  41.549  16.770   7.350
 7838POPC   C1B58147  41.458  16.464   6.450
 7838POPC   C2B58148  41.415  16.514   6.750
 7838POPC   C3B58149  41.425  16.546   7.050
 7838POPC   C4B58150  41.477  16.501   7.350
 7839POPC   NC358151  20.601  32.263   5.550
 7839POPC   PO458152  20.570  32.225   5.850
 7839POPC   GL158153  20.599  32.297   6.150
 7839POPC   GL258154  20.532  32.238   6.150
 7839POPC   C1A58155  20.658  32.238   6.450
 7839POPC   D2A58156  20.621  32.238   6.750
 7839POPC   C3A58157  20.620  32.281   7.050
 7839POPC   C4A58158  20.649  32.207   7.350
 7839POPC   C1B58159  20.328  32.192   6.450
 7839POPC   C2B58160  20.411  32.131   6.750
 7839POPC   C3B58161  20.388  32.182   7.050
 7839POPC   C4B58162  20.370  32.163   7.350
 7840POPC   NC358163  15.216  30.716   5.550
 7840POPC   PO458164  15.136  30.738   5.850
 7840POPC   GL158165  15.216  30.697   6.150
 7840POPC   GL258166  15.183  30.841   6.150
 7840POPC   C1A58167  15.145  30.665   6.450
 7840POPC   D2A58168  15.203  30.685   6.750
 7840POPC   C3A58169  15.145  30.708   7.050
 7840POPC   C4A58170  15.203  30.732   7.350
 7840POPC   C1B58171  15.125  30.916   6.450
 7840POPC   C2B58172  15.140  30.987   6.750
 7840POPC   C3B58173  15.121  30.990   7.050
 7840POPC   C4B58174  15.092  30.977   7.350
 7841POPC   NC358175  16.003  39.251   5.550
 7841POPC   PO458176  15.939  39.231   5.850
 7841POPC   GL158177  15.976  39.232   6.150
 7841POPC   GL258178  15.985  39.134   6.150
 7841POPC   C1A58179  15.971  39.272   6.450
 7841POPC   D2A58180  15.954  39.246   6.750
 7841POPC   C3A58181  15.962  39.237   7.050
 7841POPC   C4A58182  15.999  39.196   7.350
 7841POPC   C1B58183  15.895  39.027   6.450
 7841POPC   C2B58184  15.904  39.026   6.750
 7841POPC   C3B58185  15.895  38.935   7.050
 7841POPC   C4B58186  15.962  39.008   7.350
 7842POPC   NC358187  12.845  14.373   5.550
 7842POPC   PO458188  12.851  14.412   5.850
 7842POPC   GL158189  12.897  14.449   6.150
 7842POPC   GL258190  12.958  14.462   6.150
 7842POPC   C1A58191  12.872  14.394   6.450
 7842POPC   D2A58192  12.836  14.376   6.750
 7842POPC   C3A58193  12.824  14.364   7.050
 7842POPC   C4A58194  12.814  14.361   7.350
 7842POPC   C1B58195  13.057  14.535   6.450
 7842POPC   C2B58196  13.107  14.486   6.750
 7842POPC   C3B58197  13.061  14.496   7.050
 7842POPC   C4B58198  13.119  14.550   7.350
 7843POPC   NC358199  41.526  30.672   5.550
 7843POPC   PO458200  41.564  30.707   5.850
 7843POPC   GL158201  41.567  30.675   6.150
 7843POPC   GL258202  41.669  30.728   6.150
 7843POPC   C1A58203  41.581  30.731   6.450
 7843POPC   D2A58204  41.593  30.741   6.750
 7843POPC   C3A58205  41.603  30.707   7.050
 7843POPC   C4A58206  41.554  30.687   7.350
 7843POPC   C1B58207  41.734  30.804   6.450
 7843POPC   C2B58208  41.767  30.863   6.750
 7843POPC   C3B58209  41.764  30.824   7.050
 7843POPC   C4B58210  41.765  30.815   7.350
 7844POPC   NC358211   1.242  25.253   5.550
 7844POPC   PO458212   1.183  25.262   5.850
 7844POPC   GL158213   1.257  25.229   6.150
 7844POPC   GL258214   1.163  25.416   6.150
 7844POPC   C1A58215   1.181  25.277   6.450
 7844POPC   D2A58216   1.243  25.252   6.750
 7844POPC   C3A58217   1.214  25.220   7.050
 7844POPC   C4A58218   1.204  25.287   7.350
 7844POPC   C1B58219   1.185  25.554   6.450
 7844POPC   C2B58220   1.183  25.458   6.750
 7844POPC   C3B58221   1.157  25.510   7.050
 7844POPC   C4B58222   1.162  25.525   7.350
 7845POPC   NC358223  39.191  13.590   5.550
 7845POPC   PO458224  39.219  13.647   5.850
 7845POPC   GL158225  39.230  13.655   6.150
 7845POPC   GL258226  39.127  13.645   6.150
 7845POPC   C1A58227  39.274  13.613   6.450
 7845POPC   D2A58228  39.229  13.612   6.750
 7845POPC   C3A58229  39.241  13.615   7.050
 7845POPC   C4A58230  39.191  13.649   7.350
 7845POPC   C1B58231  38.952  13.618   6.450
 7845POPC   C2B58232  39.006  13.578   6.750
 7845POPC   C3B58233  38.975  13.580   7.050
 7845POPC   C4B58234  39.023  13.607   7.350
 7846POPC   NC358235   3.505   8.245   5.550
 7846POPC   PO458236   3.568   8.171   5.850
 7846POPC   GL158237   3.539   8.239   6.150
 7846POPC   GL258238   3.645   8.274   6.150
 7846POPC   C1A58239   3.522   8.164   6.450
 7846POPC   D2A58240   3.565   8.235   6.750
 7846POPC   C3A58241   3.521   8.183   7.050
 7846POPC   C4A58242   3.531   8.234   7.350
 7846POPC   C1B58243   3.719   8.388   6.450
 7846POPC   C2B58244   3.726   8.422   6.750
 7846POPC   C3B58245   3.686   8.433   7.050
 7846POPC   C4B58246   3.686   8.447   7.350
 7847POPC   NC358247   7.383   4.275   5.550
 7847POPC   PO458248   7.451   4.296   5.850
 7847POPC   GL158249   7.435   4.357   6.150
 7847POPC   GL258250   7.568   4.258   6.150
 7847POPC   C1A58251   7.397   4.328   6.450
 7847POPC   D2A58252   7.456   4.338   6.750
 7847POPC   C3A58253   7.426   4.294   7.050
 7847POPC   C4A58254   7.374   4.292   7.350
 7847POPC   C1B58255   7.701   4.259   6.450
 7847POPC   C2B58256   7.657   4.234   6.750
 7847POPC   C3B58257   7.699   4.267   7.050
 7847POPC   C4B58258   7.698   4.267   7.350
 7848POPC   NC358259   8.244  18.317   5.550
 7848POPC   PO458260   8.200  18.265   5.850
 7848POPC   GL158261   8.231  18.284   6.150
 7848POPC   GL258262   8.143  18.432   6.150
 7848POPC   C1A58263   8.233  18.305   6.450
 7848POPC   D2A58264   8.162  18.255   6.750
 7848POPC   C3A58265   8.185  18.321   7.050
 7848POPC   C4A58266   8.216  18.311   7.350
 7848POPC   C1B58267   8.167  18.500   6.450
 7848POPC   C2B58268   8.193  18.571   6.750
 7848POPC   C3B58269   8.167  18.533   7.050
 7848POPC   C4B58270   8.223  18.490   7.350
 7849POPC   NC358271   3.500  29.193   5.550
 7849POPC   PO458272   3.552  29.170   5.850
 7849POPC   GL158273   3.505  29.185   6.150
 7849POPC   GL258274   3.413  29.149   6.150
 7849POPC   C1A58275   3.588  29.099   6.450
 7849POPC   D2A58276   3.539  29.117   6.750
 7849POPC   C3A58277   3.531  29.101   7.050
 7849POPC   C4A58278   3.578  29.170   7.350
 7849POPC   C1B58279   3.299  29.234   6.450
 7849POPC   C2B58280   3.338  29.170   6.750
 7849POPC   C3B58281   3.296  29.218   7.050
 7849POPC   C4B58282   3.298  29.147   7.350
 7850POPC   NC358283  23.730  29.193   5.550
 7850POPC   PO458284  23.762  29.104   5.850
 7850POPC   GL158285  23.710  29.109   6.150
 7850POPC   GL258286  23.863  29.144   6.150
 7850POPC   C1A58287  23.689  29.117   6.450
 7850POPC   D2A58288  23.674  29.097   6.750
 7850POPC   C3A58289  23.711  29.135   7.050
 7850POPC   C4A58290  23.693  29.174   7.350
 7850POPC   C1B58291  23.918  29.208   6.450
 7850POPC   C2B58292  23.955  29.219   6.750
 7850POPC   C3B58293  23.935  29.259   7.050
 7850POPC   C4B58294  23.995  29.199   7.350
 7851POPC   NC358295   6.629   5.906   5.550
 7851POPC   PO458296   6.671   5.856   5.850
 7851POPC   GL158297   6.677   5.869   6.150
 7851POPC   GL258298   6.802   5.857   6.150
 7851POPC   C1A58299   6.627   5.829   6.450
 7851POPC   D2A58300   6.678   5.840   6.750
 7851POPC   C3A58301   6.672   5.911   7.050
 7851POPC   C4A58302   6.679   5.912   7.350
 7851POPC   C1B58303   6.847   5.858   6.450
 7851POPC   C2B58304   6.883   5.825   6.750
 7851POPC   C3B58305   6.910   5.846   7.050
 7851POPC   C4B58306   6.868   5.807   7.350
 7852POPC   NC358307   1.186  19.821   5.550
 7852POPC   PO458308   1.209  19.840   5.850
 7852POPC   GL158309   1.225  19.813   6.150
 7852POPC   GL258310   1.385  19.868   6.150
 7852POPC   C1A58311   1.171  19.799   6.450
 7852POPC   D2A58312   1.204  19.825   6.750
 7852POPC   C3A58313   1.171  19.802   7.050
 7852POPC   C4A58314   1.240  19.811   7.350
 7852POPC   C1B58315   1.471  19.850   6.450
 7852POPC   C2B58316   1.499  19.815   6.750
 7852POPC   C3B58317   1.471  19.817   7.050
 7852POPC   C4B58318   1.492  19.797   7.350
 7853POPC   NC358319   6.615  25.300   5.550
 7853POPC   PO458320   6.630  25.254   5.850
 7853POPC   GL158321   6.689  25.276   6.150
 7853POPC   GL258322   6.594  25.421   6.150
 7853POPC   C1A58323   6.604  25.247   6.450
 7853POPC   D2A58324   6.668  25.231   6.750
 7853POPC   C3A58325   6.604  25.246   7.050
 7853POPC   C4A58326   6.676  25.261   7.350
 7853POPC   C1B58327   6.512  25.529   6.450
 7853POPC   C2B58328   6.557  25.505   6.750
 7853POPC   C3B58329   6.500  25.444   7.050
 7853POPC   C4B58330   6.547  25.451   7.350
 7854POPC   NC358331  29.141  29.939   5.550
 7854POPC   PO458332  29.156  29.883   5.850
 7854POPC   GL158333  29.116  29.957   6.150
 7854POPC   GL258334  29.264  29.944   6.150
 7854POPC   C1A58335  29.100  29.968   6.450
 7854POPC   D2A58336  29.112  29.956   6.750
 7854POPC   C3A58337  29.119  29.891   7.050
 7854POPC   C4A58338  29.161  29.970   7.350
 7854POPC   C1B58339  29.374  29.927   6.450
 7854POPC   C2B58340  29.409  29.923   6.750
 7854POPC   C3B58341  29.381  29.924   7.050
 7854POPC   C4B58342  29.370  29.952   7.350
 7855POPC   NC358343  18.240   0.464   5.550
 7855POPC   PO458344  18.245   0.488   5.850
 7855POPC   GL158345  18.322   0.402   6.150
 7855POPC   GL258346  18.412   0.447   6.150
 7855POPC   C1A58347  18.295   0.410   6.450
 7855POPC   D2A58348  18.260   0.448   6.750
 7855POPC   C3A58349  18.270   0.482   7.050
 7855POPC   C4A58350  18.275   0.444   7.350
 7855POPC   C1B58351  18.574   0.474   6.450
 7855POPC   C2B58352  18.486   0.510   6.750
 7855POPC   C3B58353  18.523   0.524   7.050
 7855POPC   C4B58354  18.508   0.510   7.350
 7856POPC   NC358355  15.959  19.806   5.550
 7856POPC   PO458356  15.945  19.877   5.850
 7856POPC   GL158357  15.918  19.815   6.150
 7856POPC   GL258358  15.824  19.834   6.150
 7856POPC   C1A58359  15.983  19.880   6.450
 7856POPC   D2A58360  15.921  19.808   6.750
 7856POPC   C3A58361  16.003  19.788   7.050
 7856POPC   C4A58362  15.912  19.870   7.350
 7856POPC   C1B58363  15.748  19.942   6.450
 7856POPC   C2B58364  15.722  19.924   6.750
 7856POPC   C3B58365  15.718  19.970   7.050
 7856POPC   C4B58366  15.699  19.971   7.350
 7857POPC   NC358367  31.460  27.620   5.550
 7857POPC   PO458368  31.482  27.577   5.850
 7857POPC   GL158369  31.424  27.633   6.150
 7857POPC   GL258370  31.545  27.688   6.150
 7857POPC   C1A58371  31.427  27.560   6.450
 7857POPC   D2A58372  31.483  27.641   6.750
 7857POPC   C3A58373  31.442  27.564   7.050
 7857POPC   C4A58374  31.456  27.547   7.350
 7857POPC   C1B58375  31.674  27.657   6.450
 7857POPC   C2B58376  31.659  27.641   6.750
 7857POPC   C3B58377  31.655  27.704   7.050
 7857POPC   C4B58378  31.690  27.720   7.350
 7858POPC   NC358379  29.926  16.705   5.550
 7858POPC   PO458380  29.956  16.716   5.850
 7858POPC   GL158381  29.956  16.779   6.150
 7858POPC   GL258382  30.024  16.744   6.150
 7858POPC   C1A58383  29.962  16.721   6.450
 7858POPC   D2A58384  29.883  16.735   6.750
 7858POPC   C3A58385  29.875  16.683   7.050
 7858POPC   C4A58386  29.881  16.698   7.350
 7858POPC   C1B58387  30.123  16.655   6.450
 7858POPC   C2B58388  30.131  16.689   6.750
 7858POPC   C3B58389  30.165  16.647   7.050
 7858POPC   C4B58390  30.145  16.643   7.350
 7859POPC   NC358391  42.316   2.036   5.550
 7859POPC   PO458392  42.375   1.988   5.850
 7859POPC   GL158393  42.340   2.002   6.150
 7859POPC   GL258394  42.219   1.876   6.150
 7859POPC   C1A58395  42.348   1.956   6.450
 7859POPC   D2A58396  42.349   1.957   6.750
 7859POPC   C3A58397  42.370   1.976   7.050
 7859POPC   C4A58398  42.322   1.963   7.350
 7859POPC   C1B58399  42.229   1.828   6.450
 7859POPC   C2B58400  42.195   1.804   6.750
 7859POPC   C3B58401  42.173   1.833   7.050
 7859POPC   C4B58402  42.236   1.822   7.350
 7860POPC   NC358403  41.585   2.787   5.550
 7860POPC   PO458404  41.550   2.756   5.850
 7860POPC   GL158405  41.539   2.756   6.150
 7860POPC   GL258406  41.629   2.861   6.150
 7860POPC   C1A58407  41.568   2.748   6.450
 7860POPC   D2A58408  41.602   2.784   6.750
 7860POPC   C3A58409  41.556   2.793   7.050
 7860POPC   C4A58410  41.548   2.784   7.350
 7860POPC   C1B58411  41.711   2.994   6.450
 7860POPC   C2B58412  41.713   2.929   6.750
 7860POPC   C3B58413  41.661   2.921   7.050
 7860POPC   C4B58414  41.674   2.985   7.350
 7861POPC   NC358415  25.298  43.160   5.550
 7861POPC   PO458416  25.244  43.081   5.850
 7861POPC   GL158417  25.302  43.081   6.150
 7861POPC   GL258418  25.344  43.068   6.150
 7861POPC   C1A58419  25.267  43.083   6.450
 7861POPC   D2A58420  25.314  43.089   6.750
 7861POPC   C3A58421  25.290  43.149   7.050
 7861POPC   C4A58422  25.267  43.062   7.350
 7861POPC   C1B58423  25.498  43.053   6.450
 7861POPC   C2B58424  25.463  43.052   6.750
 7861POPC   C3B58425  25.518  43.045   7.050
 7861POPC   C4B58426  25.538  43.041   7.350
 7862POPC   NC358427  38.425  19.081   5.550
 7862POPC   PO458428  38.426  19.072   5.850
 7862POPC   GL158429  38.413  19.083   6.150
 7862POPC   GL258430  38.398  18.907   6.150
 7862POPC   C1A58431  38.495  19.078   6.450
 7862POPC   D2A58432  38.474  19.014   6.750
 7862POPC   C3A58433  38.464  19.108   7.050
 7862POPC   C4A58434  38.420  19.009   7.350
 7862POPC   C1B58435  38.403  18.819   6.450
 7862POPC   C2B58436  38.391  18.796   6.750
 7862POPC   C3B58437  38.399  18.774   7.050
 7862POPC   C4B58438  38.385  18.802   7.350
 7863POPC   NC358439  28.325   0.419   5.550
 7863POPC   PO458440  28.408   0.419   5.850
 7863POPC   GL158441  28.319   0.474   6.150
 7863POPC   GL258442  28.243   0.401   6.150
 7863POPC   C1A58443  28.361   0.390   6.450
 7863POPC   D2A58444  28.391   0.437   6.750
 7863POPC   C3A58445  28.326   0.435   7.050
 7863POPC   C4A58446  28.327   0.405   7.350
 7863POPC   C1B58447  28.071   0.375   6.450
 7863POPC   C2B58448  28.080   0.420   6.750
 7863POPC   C3B58449  28.167   0.392   7.050
 7863POPC   C4B58450  28.089   0.382   7.350
 7864POPC   NC358451  40.762  30.685   5.550
 7864POPC   PO458452  40.802  30.653   5.850
 7864POPC   GL158453  40.766  30.702   6.150
 7864POPC   GL258454  40.693  30.770   6.150
 7864POPC   C1A58455  40.769  30.663   6.450
 7864POPC   D2A58456  40.809  30.658   6.750
 7864POPC   C3A58457  40.805  30.682   7.050
 7864POPC   C4A58458  40.833  30.719   7.350
 7864POPC   C1B58459  40.496  30.745   6.450
 7864POPC   C2B58460  40.550  30.702   6.750
 7864POPC   C3B58461  40.492  30.733   7.050
 7864POPC   C4B58462  40.574  30.715   7.350
 7865POPC   NC358463   8.924  22.974   5.550
 7865POPC   PO458464   9.019  22.904   5.850
 7865POPC   GL158465   9.008  22.941   6.150
 7865POPC   GL258466   9.066  23.006   6.150
 7865POPC   C1A58467   8.957  22.967   6.450
 7865POPC   D2A58468   9.021  22.952   6.750
 7865POPC   C3A58469   8.931  22.924   7.050
 7865POPC   C4A58470   9.014  22.894   7.350
 7865POPC   C1B58471   9.123  23.140   6.450
 7865POPC   C2B58472   9.088  23.123   6.750
 7865POPC   C3B58473   9.070  23.202   7.050
 7865POPC   C4B58474   9.118  23.157   7.350
 7866POPC   NC358475   8.955  12.884   5.550
 7866POPC   PO458476   8.961  12.836   5.850
 7866POPC   GL158477   9.016  12.833   6.150
 7866POPC   GL258478   9.063  12.733   6.150
 7866POPC   C1A58479   8.960  12.849   6.450
 7866POPC   D2A58480   8.939  12.840   6.750
 7866POPC   C3A58481   8.935  12.891   7.050
 7866POPC   C4A58482   8.933  12.887   7.350
 7866POPC   C1B58483   9.119  12.618   6.450
 7866POPC   C2B58484   9.088  12.631   6.750
 7866POPC   C3B58485   9.148  12.706   7.050
 7866POPC   C4B58486   9.185  12.699   7.350
 7867POPC   NC358487  30.666   5.880   5.550
 7867POPC   PO458488  30.697   5.872   5.850
 7867POPC   GL158489  30.658   5.829   6.150
 7867POPC   GL258490  30.559   5.910   6.150
 7867POPC   C1A58491  30.744   5.896   6.450
 7867POPC   D2A58492  30.711   5.882   6.750
 7867POPC   C3A58493  30.648   5.889   7.050
 7867POPC   C4A58494  30.677   5.830   7.350
 7867POPC   C1B58495  30.461   6.034   6.450
 7867POPC   C2B58496  30.483   5.965   6.750
 7867POPC   C3B58497  30.479   5.978   7.050
 7867POPC   C4B58498  30.525   5.971   7.350
 7868POPC   NC358499  37.722  43.158   5.550
 7868POPC   PO458500  37.685  43.067   5.850
 7868POPC   GL158501  37.687  43.141   6.150
 7868POPC   GL258502  37.598  43.261   6.150
 7868POPC   C1A58503  37.652  43.076   6.450
 7868POPC   D2A58504  37.699  43.089   6.750
 7868POPC   C3A58505  37.637  43.100   7.050
 7868POPC   C4A58506  37.711  43.120   7.350
 7868POPC   C1B58507  37.568  43.321   6.450
 7868POPC   C2B58508  37.585  43.323   6.750
 7868POPC   C3B58509  37.554  43.323   7.050
 7868POPC   C4B58510  37.594  43.368   7.350
 7869POPC   NC358511  43.861  28.363   5.550
 7869POPC   PO458512  43.904  28.335   5.850
 7869POPC   GL158513  43.908  28.397   6.150
 7869POPC   GL258514  43.965  28.299   6.150
 7869POPC   C1A58515  43.847  28.342   6.450
 7869POPC   D2A58516  43.915  28.324   6.750
 7869POPC   C3A58517  43.901  28.354   7.050
 7869POPC   C4A58518  43.926  28.411   7.350
 7869POPC   C1B58519  44.111  28.203   6.450
 7869POPC   C2B58520  44.135  28.214   6.750
 7869POPC   C3B58521  44.063  28.223   7.050
 7869POPC   C4B58522  44.073  28.241   7.350
 7870POPC   NC358523  30.664  39.191   5.550
 7870POPC   PO458524  30.659  39.246   5.850
 7870POPC   GL158525  30.716  39.211   6.150
 7870POPC   GL258526  30.658  39.131   6.150
 7870POPC   C1A58527  30.740  39.242   6.450
 7870POPC   D2A58528  30.688  39.208   6.750
 7870POPC   C3A58529  30.676  39.206   7.050
 7870POPC   C4A58530  30.709  39.246   7.350
 7870POPC   C1B58531  30.587  39.068   6.450
 7870POPC   C2B58532  30.571  39.013   6.750
 7870POPC   C3B58533  30.578  39.047   7.050
 7870POPC   C4B58534  30.560  39.013   7.350
 7871POPC   NC358535   2.009  14.389   5.550
 7871POPC   PO458536   1.940  14.429   5.850
 7871POPC   GL158537   2.013  14.411   6.150
 7871POPC   GL258538   1.958  14.516   6.150
 7871POPC   C1A58539   1.944  14.400   6.450
 7871POPC   D2A58540   1.996  14.385   6.750
 7871POPC   C3A58541   2.029  14.394   7.050
 7871POPC   C4A58542   2.004  14.431   7.350
 7871POPC   C1B58543   2.022  14.695   6.450
 7871POPC   C2B58544   2.056  14.612   6.750
 7871POPC   C3B58545   2.053  14.630   7.050
 7871POPC   C4B58546   2.001  14.602   7.350
 7872POPC   NC358547   2.755   5.896   5.550
 7872POPC   PO458548   2.777   5.916   5.850
 7872POPC   GL158549   2.747   5.902   6.150
 7872POPC   GL258550   2.875   5.918   6.150
 7872POPC   C1A58551   2.801   5.880   6.450
 7872POPC   D2A58552   2.785   5.831   6.750
 7872POPC   C3A58553   2.766   5.872   7.050
 7872POPC   C4A58554   2.772   5.831   7.350
 7872POPC   C1B58555   2.928   6.062   6.450
 7872POPC   C2B58556   2.910   5.997   6.750
 7872POPC   C3B58557   2.987   6.060   7.050
 7872POPC   C4B58558   2.969   6.070   7.350
 7873POPC   NC358559  19.880  10.500   5.550
 7873POPC   PO458560  19.836  10.511   5.850
 7873POPC   GL158561  19.830  10.569   6.150
 7873POPC   GL258562  19.927  10.468   6.150
 7873POPC   C1A58563  19.820  10.502   6.450
 7873POPC   D2A58564  19.823  10.483   6.750
 7873POPC   C3A58565  19.860  10.541   7.050
 7873POPC   C4A58566  19.855  10.476   7.350
 7873POPC   C1B58567  20.089  10.406   6.450
 7873POPC   C2B58568  20.098  10.373   6.750
 7873POPC   C3B58569  20.105  10.424   7.050
 7873POPC   C4B58570  20.043  10.403   7.350
 7874POPC   NC358571   5.117  23.745   5.550
 7874POPC   PO458572   5.083  23.681   5.850
 7874POPC   GL158573   5.126  23.733   6.150
 7874POPC   GL258574   5.106  23.645   6.150
 7874POPC   C1A58575   5.082  23.723   6.450
 7874POPC   D2A58576   5.054  23.673   6.750
 7874POPC   C3A58577   5.102  23.666   7.050
 7874POPC   C4A58578   5.085  23.733   7.350
 7874POPC   C1B58579   5.243  23.466   6.450
 7874POPC   C2B58580   5.205  23.514   6.750
 7874POPC   C3B58581   5.170  23.508   7.050
 7874POPC   C4B58582   5.214  23.510   7.350
 7875POPC   NC358583  29.956  36.131   5.550
 7875POPC   PO458584  29.887  36.103   5.850
 7875POPC   GL158585  29.873  36.094   6.150
 7875POPC   GL258586  29.835  36.002   6.150
 7875POPC   C1A58587  29.924  36.136   6.450
 7875POPC   D2A58588  29.899  36.174   6.750
 7875POPC   C3A58589  29.968  36.116   7.050
 7875POPC   C4A58590  29.886  36.120   7.350
 7875POPC   C1B58591  29.787  35.922   6.450
 7875POPC   C2B58592  29.753  35.900   6.750
 7875POPC   C3B58593  29.802  35.948   7.050
 7875POPC   C4B58594  29.762  35.887   7.350
 7876POPC   NC358595   0.440  25.289   5.550
 7876POPC   PO458596   0.486  25.224   5.850
 7876POPC   GL158597   0.411  25.274   6.150
 7876POPC   GL258598   0.544  25.242   6.150
 7876POPC   C1A58599   0.425  25.270   6.450
 7876POPC   D2A58600   0.475  25.273   6.750
 7876POPC   C3A58601   0.458  25.265   7.050
 7876POPC   C4A58602   0.479  25.279   7.350
 7876POPC   C1B58603   0.654  25.203   6.450
 7876POPC   C2B58604   0.652  25.262   6.750
 7876POPC   C3B58605   0.645  25.216   7.050
 7876POPC   C4B58606   0.687  25.196   7.350
 7877POPC   NC358607  29.896  42.306   5.550
 7877POPC   PO458608  29.959  42.328   5.850
 7877POPC   GL158609  29.951  42.321   6.150
 7877POPC   GL258610  29.907  42.447   6.150
 7877POPC   C1A58611  29.916  42.329   6.450
 7877POPC   D2A58612  29.908  42.366   6.750
 7877POPC   C3A58613  29.886  42.365   7.050
 7877POPC   C4A58614  29.942  42.329   7.350
 7877POPC   C1B58615  29.966  42.588   6.450
 7877POPC   C2B58616  29.943  42.554   6.750
 7877POPC   C3B58617  29.953  42.558   7.050
 7877POPC   C4B58618  29.953  42.531   7.350
 7878POPC   NC358619   7.381   9.012   5.550
 7878POPC   PO458620   7.466   8.988   5.850
 7878POPC   GL158621   7.440   9.017   6.150
 7878POPC   GL258622   7.400   8.823   6.150
 7878POPC   C1A58623   7.470   8.971   6.450
 7878POPC   D2A58624   7.399   9.011   6.750
 7878POPC   C3A58625   7.459   8.952   7.050
 7878POPC   C4A58626   7.437   8.974   7.350
 7878POPC   C1B58627   7.482   8.692   6.450
 7878POPC   C2B58628   7.423   8.763   6.750
 7878POPC   C3B58629   7.501   8.762   7.050
 7878POPC   C4B58630   7.405   8.737   7.350
 7879POPC   NC358631  29.887  35.400   5.550
 7879POPC   PO458632  29.903  35.399   5.850
 7879POPC   GL158633  29.882  35.401   6.150
 7879POPC   GL258634  29.993  35.270   6.150
 7879POPC   C1A58635  29.933  35.356   6.450
 7879POPC   D2A58636  29.880  35.346   6.750
 7879POPC   C3A58637  29.878  35.375   7.050
 7879POPC   C4A58638  29.919  35.315   7.350
 7879POPC   C1B58639  30.130  35.195   6.450
 7879POPC   C2B58640  30.078  35.132   6.750
 7879POPC   C3B58641  30.123  35.177   7.050
 7879POPC   C4B58642  30.120  35.182   7.350
 7880POPC   NC358643   4.297  23.737   5.550
 7880POPC   PO458644   4.322  23.706   5.850
 7880POPC   GL158645   4.307  23.728   6.150
 7880POPC   GL258646   4.262  23.855   6.150
 7880POPC   C1A58647   4.362  23.754   6.450
 7880POPC   D2A58648   4.279  23.707   6.750
 7880POPC   C3A58649   4.346  23.731   7.050
 7880POPC   C4A58650   4.361  23.758   7.350
 7880POPC   C1B58651   4.300  23.916   6.450
 7880POPC   C2B58652   4.240  23.963   6.750
 7880POPC   C3B58653   4.263  23.976   7.050
 7880POPC   C4B58654   4.294  23.999   7.350
 7881POPC   NC358655  20.604  11.276   5.550
 7881POPC   PO458656  20.600  11.265   5.850
 7881POPC   GL158657  20.563  11.297   6.150
 7881POPC   GL258658  20.642  11.205   6.150
 7881POPC   C1A58659  20.647  11.327   6.450
 7881POPC   D2A58660  20.632  11.258   6.750
 7881POPC   C3A58661  20.619  11.343   7.050
 7881POPC   C4A58662  20.620  11.345   7.350
 7881POPC   C1B58663  20.571  11.037   6.450
 7881POPC   C2B58664  20.593  11.053   6.750
 7881POPC   C3B58665  20.585  11.070   7.050
 7881POPC   C4B58666  20.606  11.008   7.350
 7882POPC   NC358667   1.258  32.237   5.550
 7882POPC   PO458668   1.211  32.230   5.850
 7882POPC   GL158669   1.214  32.202   6.150
 7882POPC   GL258670   1.252  32.347   6.150
 7882POPC   C1A58671   1.244  32.212   6.450
 7882POPC   D2A58672   1.247  32.254   6.750
 7882POPC   C3A58673   1.236  32.278   7.050
 7882POPC   C4A58674   1.175  32.214   7.350
 7882POPC   C1B58675   1.321  32.465   6.450
 7882POPC   C2B58676   1.322  32.514   6.750
 7882POPC   C3B58677   1.291  32.438   7.050
 7882POPC   C4B58678   1.323  32.447   7.350
 7883POPC   NC358679  19.832   3.509   5.550
 7883POPC   PO458680  19.808   3.533   5.850
 7883POPC   GL158681  19.859   3.494   6.150
 7883POPC   GL258682  19.893   3.693   6.150
 7883POPC   C1A58683  19.832   3.525   6.450
 7883POPC   D2A58684  19.833   3.549   6.750
 7883POPC   C3A58685  19.788   3.573   7.050
 7883POPC   C4A58686  19.884   3.581   7.350
 7883POPC   C1B58687  19.922   3.729   6.450
 7883POPC   C2B58688  19.948   3.779   6.750
 7883POPC   C3B58689  19.898   3.752   7.050
 7883POPC   C4B58690  19.972   3.778   7.350
 7884POPC   NC358691  22.897  36.880   5.550
 7884POPC   PO458692  22.971  36.862   5.850
 7884POPC   GL158693  22.930  36.871   6.150
 7884POPC   GL258694  22.852  36.923   6.150
 7884POPC   C1A58695  22.905  36.856   6.450
 7884POPC   D2A58696  22.924  36.859   6.750
 7884POPC   C3A58697  22.968  36.952   7.050
 7884POPC   C4A58698  22.922  36.920   7.350
 7884POPC   C1B58699  22.707  36.980   6.450
 7884POPC   C2B58700  22.689  37.000   6.750
 7884POPC   C3B58701  22.745  36.984   7.050
 7884POPC   C4B58702  22.673  37.007   7.350
 7885POPC   NC358703  28.405  17.505   5.550
 7885POPC   PO458704  28.388  17.551   5.850
 7885POPC   GL158705  28.378  17.530   6.150
 7885POPC   GL258706  28.214  17.503   6.150
 7885POPC   C1A58707  28.340  17.525   6.450
 7885POPC   D2A58708  28.335  17.507   6.750
 7885POPC   C3A58709  28.323  17.538   7.050
 7885POPC   C4A58710  28.339  17.542   7.350
 7885POPC   C1B58711  28.150  17.572   6.450
 7885POPC   C2B58712  28.144  17.599   6.750
 7885POPC   C3B58713  28.094  17.533   7.050
 7885POPC   C4B58714  28.108  17.589   7.350
 7886POPC   NC358715   5.870  43.933   5.550
 7886POPC   PO458716   5.839  43.876   5.850
 7886POPC   GL158717   5.862  43.935   6.150
 7886POPC   GL258718   5.875  43.772   6.150
 7886POPC   C1A58719   5.837  43.856   6.450
 7886POPC   D2A58720   5.899  43.892   6.750
 7886POPC   C3A58721   5.850  43.884   7.050
 7886POPC   C4A58722   5.848  43.932   7.350
 7886POPC   C1B58723   5.900  43.624   6.450
 7886POPC   C2B58724   5.907  43.659   6.750
 7886POPC   C3B58725   5.956  43.615   7.050
 7886POPC   C4B58726   5.970  43.633   7.350
 7887POPC   NC358727  17.542  15.907   5.550
 7887POPC   PO458728  17.457  15.994   5.850
 7887POPC   GL158729  17.458  15.976   6.150
 7887POPC   GL258730  17.634  15.924   6.150
 7887POPC   C1A58731  17.480  15.915   6.450
 7887POPC   D2A58732  17.510  15.977   6.750
 7887POPC   C3A58733  17.497  15.979   7.050
 7887POPC   C4A58734  17.483  15.922   7.350
 7887POPC   C1B58735  17.750  15.896   6.450
 7887POPC   C2B58736  17.783  15.872   6.750
 7887POPC   C3B58737  17.769  15.828   7.050
 7887POPC   C4B58738  17.701  15.866   7.350
 7888POPC   NC358739   6.655  12.901   5.550
 7888POPC   PO458740   6.634  12.852   5.850
 7888POPC   GL158741   6.669  12.803   6.150
 7888POPC   GL258742   6.601  12.977   6.150
 7888POPC   C1A58743   6.600  12.833   6.450
 7888POPC   D2A58744   6.671  12.895   6.750
 7888POPC   C3A58745   6.629  12.857   7.050
 7888POPC   C4A58746   6.668  12.863   7.350
 7888POPC   C1B58747   6.449  13.092   6.450
 7888POPC   C2B58748   6.446  13.033   6.750
 7888POPC   C3B58749   6.454  13.066   7.050
 7888POPC   C4B58750   6.517  13.032   7.350
 7889POPC   NC358751  37.640   8.941   5.550
 7889POPC   PO458752  37.670   9.021   5.850
 7889POPC   GL158753  37.639   8.969   6.150
 7889POPC   GL258754  37.734   8.909   6.150
 7889POPC   C1A58755  37.632   8.966   6.450
 7889POPC   D2A58756  37.682   8.937   6.750
 7889POPC   C3A58757  37.682   8.970   7.050
 7889POPC   C4A58758  37.636   8.951   7.350
 7889POPC   C1B58759  37.768   8.746   6.450
 7889POPC   C2B58760  37.801   8.756   6.750
 7889POPC   C3B58761  37.821   8.790   7.050
 7889POPC   C4B58762  37.818   8.724   7.350
 7890POPC   NC358763  43.904  41.567   5.550
 7890POPC   PO458764  43.850  41.525   5.850
 7890POPC   GL158765  43.872  41.555   6.150
 7890POPC   GL258766  43.869  41.444   6.150
 7890POPC   C1A58767  43.860  41.568   6.450
 7890POPC   D2A58768  43.878  41.548   6.750
 7890POPC   C3A58769  43.850  41.606   7.050
 7890POPC   C4A58770  43.891  41.562   7.350
 7890POPC   C1B58771  43.926  41.295   6.450
 7890POPC   C2B58772  43.925  41.339   6.750
 7890POPC   C3B58773  43.864  41.301   7.050
 7890POPC   C4B58774  43.844  41.356   7.350
 7891POPC   NC358775   7.453  13.628   5.550
 7891POPC   PO458776   7.447  13.592   5.850
 7891POPC   GL158777   7.409  13.615   6.150
 7891POPC   GL258778   7.352  13.755   6.150
 7891POPC   C1A58779   7.379  13.650   6.450
 7891POPC   D2A58780   7.455  13.599   6.750
 7891POPC   C3A58781   7.457  13.641   7.050
 7891POPC   C4A58782   7.416  13.671   7.350
 7891POPC   C1B58783   7.240  13.812   6.450
 7891POPC   C2B58784   7.249  13.790   6.750
 7891POPC   C3B58785   7.223  13.824   7.050
 7891POPC   C4B58786   7.201  13.764   7.350
 7892POPC   NC358787  10.547  31.483   5.550
 7892POPC   PO458788  10.538  31.462   5.850
 7892POPC   GL158789  10.483  31.506   6.150
 7892POPC   GL258790  10.593  31.457   6.150
 7892POPC   C1A58791  10.507  31.474   6.450
 7892POPC   D2A58792  10.513  31.489   6.750
 7892POPC   C3A58793  10.560  31.510   7.050
 7892POPC   C4A58794  10.511  31.505   7.350
 7892POPC   C1B58795  10.754  31.345   6.450
 7892POPC   C2B58796  10.761  31.342   6.750
 7892POPC   C3B58797  10.785  31.347   7.050
 7892POPC   C4B58798  10.786  31.357   7.350
 7893POPC   NC358799  24.469  27.607   5.550
 7893POPC   PO458800  24.465  27.572   5.850
 7893POPC   GL158801  24.498  27.587   6.150
 7893POPC   GL258802  24.492  27.752   6.150
 7893POPC   C1A58803  24.525  27.560   6.450
 7893POPC   D2A58804  24.449  27.622   6.750
 7893POPC   C3A58805  24.508  27.597   7.050
 7893POPC   C4A58806  24.467  27.580   7.350
 7893POPC   C1B58807  24.446  27.817   6.450
 7893POPC   C2B58808  24.421  27.829   6.750
 7893POPC   C3B58809  24.471  27.889   7.050
 7893POPC   C4B58810  24.460  27.795   7.350
 7894POPC   NC358811  39.209  37.640   5.550
 7894POPC   PO458812  39.207  37.709   5.850
 7894POPC   GL158813  39.203  37.650   6.150
 7894POPC   GL258814  39.121  37.679   6.150
 7894POPC   C1A58815  39.224  37.705   6.450
 7894POPC   D2A58816  39.271  37.663   6.750
 7894POPC   C3A58817  39.252  37.661   7.050
 7894POPC   C4A58818  39.268  37.675   7.350
 7894POPC   C1B58819  38.992  37.687   6.450
 7894POPC   C2B58820  38.951  37.717   6.750
 7894POPC   C3B58821  39.015  37.726   7.050
 7894POPC   C4B58822  38.998  37.714   7.350
 7895POPC   NC358823  12.035  29.879   5.550
 7895POPC   PO458824  12.045  29.878   5.850
 7895POPC   GL158825  12.119  29.910   6.150
 7895POPC   GL258826  12.200  29.947   6.150
 7895POPC   C1A58827  12.056  29.926   6.450
 7895POPC   D2A58828  12.067  29.917   6.750
 7895POPC   C3A58829  12.084  29.888   7.050
 7895POPC   C4A58830  12.044  29.933   7.350
 7895POPC   C1B58831  12.335  30.071   6.450
 7895POPC   C2B58832  12.245  30.036   6.750
 7895POPC   C3B58833  12.269  30.064   7.050
 7895POPC   C4B58834  12.261  30.045   7.350
 7896POPC   NC358835   0.449  40.826   5.550
 7896POPC   PO458836   0.408  40.825   5.850
 7896POPC   GL158837   0.466  40.798   6.150
 7896POPC   GL258838   0.479  40.918   6.150
 7896POPC   C1A58839   0.424  40.809   6.450
 7896POPC   D2A58840   0.467  40.829   6.750
 7896POPC   C3A58841   0.477  40.744   7.050
 7896POPC   C4A58842   0.416  40.756   7.350
 7896POPC   C1B58843   0.469  40.977   6.450
 7896POPC   C2B58844   0.539  41.033   6.750
 7896POPC   C3B58845   0.546  41.071   7.050
 7896POPC   C4B58846   0.506  41.020   7.350
 7897POPC   NC358847  14.447   4.271   5.550
 7897POPC   PO458848  14.418   4.328   5.850
 7897POPC   GL158849  14.369   4.346   6.150
 7897POPC   GL258850  14.578   4.316   6.150
 7897POPC   C1A58851  14.410   4.272   6.450
 7897POPC   D2A58852  14.444   4.325   6.750
 7897POPC   C3A58853  14.375   4.269   7.050
 7897POPC   C4A58854  14.410   4.282   7.350
 7897POPC   C1B58855  14.639   4.291   6.450
 7897POPC   C2B58856  14.672   4.360   6.750
 7897POPC   C3B58857  14.686   4.358   7.050
 7897POPC   C4B58858  14.652   4.287   7.350
 7898POPC   NC358859  30.742  17.523   5.550
 7898POPC   PO458860  30.700  17.523   5.850
 7898POPC   GL158861  30.664  17.551   6.150
 7898POPC   GL258862  30.548  17.531   6.150
 7898POPC   C1A58863  30.739  17.501   6.450
 7898POPC   D2A58864  30.686  17.482   6.750
 7898POPC   C3A58865  30.670  17.498   7.050
 7898POPC   C4A58866  30.709  17.493   7.350
 7898POPC   C1B58867  30.429  17.520   6.450
 7898POPC   C2B58868  30.432  17.544   6.750
 7898POPC   C3B58869  30.453  17.484   7.050
 7898POPC   C4B58870  30.403  17.577   7.350
 7899POPC   NC358871  37.689  19.863   5.550
 7899POPC   PO458872  37.665  19.789   5.850
 7899POPC   GL158873  37.699  19.881   6.150
 7899POPC   GL258874  37.735  19.897   6.150
 7899POPC   C1A58875  37.650  19.854   6.450
 7899POPC   D2A58876  37.648  19.876   6.750
 7899POPC   C3A58877  37.680  19.841   7.050
 7899POPC   C4A58878  37.639  19.833   7.350
 7899POPC   C1B58879  37.754  20.085   6.450
 7899POPC   C2B58880  37.780  20.074   6.750
 7899POPC   C3B58881  37.791  20.105   7.050
 7899POPC   C4B58882  37.769  20.070   7.350
 7900POPC   NC358883   3.535  39.965   5.550
 7900POPC   PO458884   3.561  40.047   5.850
 7900POPC   GL158885   3.582  39.999   6.150
 7900POPC   GL258886   3.706  40.015   6.150
 7900POPC   C1A58887   3.553  40.039   6.450
 7900POPC   D2A58888   3.548  40.011   6.750
 7900POPC   C3A58889   3.545  39.988   7.050
 7900POPC   C4A58890   3.547  39.994   7.350
 7900POPC   C1B58891   3.742  40.058   6.450
 7900POPC   C2B58892   3.813  40.040   6.750
 7900POPC   C3B58893   3.752  40.051   7.050
 7900POPC   C4B58894   3.792  40.069   7.350
 7901POPC   NC358895  33.787  12.880   5.550
 7901POPC   PO458896  33.793  12.837   5.850
 7901POPC   GL158897  33.821  12.810   6.150
 7901POPC   GL258898  33.638  12.865   6.150
 7901POPC   C1A58899  33.767  12.899   6.450
 7901POPC   D2A58900  33.824  12.812   6.750
 7901POPC   C3A58901  33.799  12.850   7.050
 7901POPC   C4A58902  33.836  12.861   7.350
 7901POPC   C1B58903  33.602  12.782   6.450
 7901POPC   C2B58904  33.590  12.805   6.750
 7901POPC   C3B58905  33.513  12.781   7.050
 7901POPC   C4B58906  33.547  12.807   7.350
 7902POPC   NC358907  33.789   8.246   5.550
 7902POPC   PO458908  33.791   8.170   5.850
 7902POPC   GL158909  33.762   8.175   6.150
 7902POPC   GL258910  33.869   8.086   6.150
 7902POPC   C1A58911  33.843   8.181   6.450
 7902POPC   D2A58912  33.816   8.158   6.750
 7902POPC   C3A58913  33.805   8.171   7.050
 7902POPC   C4A58914  33.764   8.201   7.350
 7902POPC   C1B58915  33.845   7.934   6.450
 7902POPC   C2B58916  33.829   7.984   6.750
 7902POPC   C3B58917  33.833   7.977   7.050
 7902POPC   C4B58918  33.899   7.961   7.350
 7903POPC   NC358919  14.424  28.348   5.550
 7903POPC   PO458920  14.417  28.401   5.850
 7903POPC   GL158921  14.366  28.338   6.150
 7903POPC   GL258922  14.486  28.427   6.150
 7903POPC   C1A58923  14.401  28.349   6.450
 7903POPC   D2A58924  14.395  28.356   6.750
 7903POPC   C3A58925  14.431  28.379   7.050
 7903POPC   C4A58926  14.427  28.368   7.350
 7903POPC   C1B58927  14.597  28.538   6.450
 7903POPC   C2B58928  14.515  28.615   6.750
 7903POPC   C3B58929  14.540  28.610   7.050
 7903POPC   C4B58930  14.557  28.605   7.350
 7904POPC   NC358931   0.481   2.030   5.550
 7904POPC   PO458932   0.463   1.992   5.850
 7904POPC   GL158933   0.395   1.944   6.150
 7904POPC   GL258934   0.309   2.068   6.150
 7904POPC   C1A58935   0.480   1.961   6.450
 7904POPC   D2A58936   0.440   2.032   6.750
 7904POPC   C3A58937   0.439   2.013   7.050
 7904POPC   C4A58938   0.427   2.037   7.350
 7904POPC   C1B58939   0.201   2.117   6.450
 7904POPC   C2B58940   0.285   2.162   6.750
 7904POPC   C3B58941   0.229   2.198   7.050
 7904POPC   C4B58942   0.239   2.159   7.350
 7905POPC   NC358943  19.848  27.609   5.550
 7905POPC   PO458944  19.816  27.612   5.850
 7905POPC   GL158945  19.832  27.558   6.150
 7905POPC   GL258946  19.729  27.465   6.150
 7905POPC   C1A58947  19.803  27.598   6.450
 7905POPC   D2A58948  19.799  27.636   6.750
 7905POPC   C3A58949  19.832  27.609   7.050
 7905POPC   C4A58950  19.852  27.560   7.350
 7905POPC   C1B58951  19.682  27.459   6.450
 7905POPC   C2B58952  19.690  27.392   6.750
 7905POPC   C3B58953  19.675  27.374   7.050
 7905POPC   C4B58954  19.636  27.388   7.350
 7906POPC   NC358955  38.479  14.451   5.550
 7906POPC   PO458956  38.426  14.375   5.850
 7906POPC   GL158957  38.479  14.417   6.150
 7906POPC   GL258958  38.463  14.494   6.150
 7906POPC   C1A58959  38.488  14.361   6.450
 7906POPC   D2A58960  38.474  14.417   6.750
 7906POPC   C3A58961  38.465  14.442   7.050
 7906POPC   C4A58962  38.473  14.390   7.350
 7906POPC   C1B58963  38.513  14.652   6.450
 7906POPC   C2B58964  38.490  14.664   6.750
 7906POPC   C3B58965  38.517  14.689   7.050
 7906POPC   C4B58966  38.536  14.660   7.350
 7907POPC   NC358967  32.283  36.157   5.550
 7907POPC   PO458968  32.254  36.123   5.850
 7907POPC   GL158969  32.215  36.119   6.150
 7907POPC   GL258970  32.280  35.960   6.150
 7907POPC   C1A58971  32.241  36.173   6.450
 7907POPC   D2A58972  32.271  36.115   6.750
 7907POPC   C3A58973  32.284  36.102   7.050
 7907POPC   C4A58974  32.245  36.156   7.350
 7907POPC   C1B58975  32.238  35.883   6.450
 7907POPC   C2B58976  32.229  35.852   6.750
 7907POPC   C3B58977  32.263  35.849   7.050
 7907POPC   C4B58978  32.229  35.863   7.350
 7908POPC   NC358979  26.001   1.254   5.550
 7908POPC   PO458980  26.053   1.254   5.850
 7908POPC   GL158981  25.998   1.195   6.150
 7908POPC   GL258982  26.069   1.105   6.150
 7908POPC   C1A58983  26.089   1.260   6.450
 7908POPC   D2A58984  26.032   1.209   6.750
 7908POPC   C3A58985  26.082   1.247   7.050
 7908POPC   C4A58986  26.018   1.217   7.350
 7908POPC   C1B58987  26.041   0.961   6.450
 7908POPC   C2B58988  25.953   0.973   6.750
 7908POPC   C3B58989  26.034   0.972   7.050
 7908POPC   C4B58990  25.975   0.991   7.350
 7909POPC   NC358991  35.382   6.675   5.550
 7909POPC   PO458992  35.332   6.695   5.850
 7909POPC   GL158993  35.351   6.619   6.150
 7909POPC   GL258994  35.374   6.803   6.150
 7909POPC   C1A58995  35.361   6.679   6.450
 7909POPC   D2A58996  35.309   6.616   6.750
 7909POPC   C3A58997  35.343   6.655   7.050
 7909POPC   C4A58998  35.352   6.676   7.350
 7909POPC   C1B58999  35.421   6.890   6.450
 7909POPC   C2B59000  35.436   6.933   6.750
 7909POPC   C3B59001  35.353   6.869   7.050
 7909POPC   C4B59002  35.400   6.933   7.350
 7910POPC   NC359003  32.224  13.581   5.550
 7910POPC   PO459004  32.267  13.652   5.850
 7910POPC   GL159005  32.240  13.634   6.150
 7910POPC   GL259006  32.377  13.532   6.150
 7910POPC   C1A59007  32.206  13.658   6.450
 7910POPC   D2A59008  32.199  13.595   6.750
 7910POPC   C3A59009  32.199  13.620   7.050
 7910POPC   C4A59010  32.294  13.587   7.350
 7910POPC   C1B59011  32.450  13.434   6.450
 7910POPC   C2B59012  32.408  13.490   6.750
 7910POPC   C3B59013  32.498  13.506   7.050
 7910POPC   C4B59014  32.477  13.505   7.350
 7911POPC   NC359015  27.619  14.443   5.550
 7911POPC   PO459016  27.575  14.407   5.850
 7911POPC   GL159017  27.610  14.369   6.150
 7911POPC   GL259018  27.642  14.265   6.150
 7911POPC   C1A59019  27.598  14.363   6.450
 7911POPC   D2A59020  27.614  14.453   6.750
 7911POPC   C3A59021  27.607  14.412   7.050
 7911POPC   C4A59022  27.638  14.436   7.350
 7911POPC   C1B59023  27.734  14.213   6.450
 7911POPC   C2B59024  27.694  14.186   6.750
 7911POPC   C3B59025  27.659  14.155   7.050
 7911POPC   C4B59026  27.666  14.179   7.350
 7912POPC   NC359027  34.554  31.461   5.550
 7912POPC   PO459028  34.560  31.447   5.850
 7912POPC   GL159029  34.625  31.511   6.150
 7912POPC   GL259030  34.504  31.614   6.150
 7912POPC   C1A59031  34.540  31.509   6.450
 7912POPC   D2A59032  34.564  31.490   6.750
 7912POPC   C3A59033  34.610  31.427   7.050
 7912POPC   C4A59034  34.529  31.500   7.350
 7912POPC   C1B59035  34.377  31.638   6.450
 7912POPC   C2B59036  34.394  31.685   6.750
 7912POPC   C3B59037  34.411  31.635   7.050
 7912POPC   C4B59038  34.391  31.692   7.350
 7913POPC   NC359039  22.159  33.777   5.550
 7913POPC   PO459040  22.200  33.824   5.850
 7913POPC   GL159041  22.122  33.834   6.150
 7913POPC   GL259042  22.027  33.766   6.150
 7913POPC   C1A59043  22.150  33.753   6.450
 7913POPC   D2A59044  22.194  33.759   6.750
 7913POPC   C3A59045  22.189  33.823   7.050
 7913POPC   C4A59046  22.209  33.750   7.350
 7913POPC   C1B59047  21.971  33.667   6.450
 7913POPC   C2B59048  21.995  33.662   6.750
 7913POPC   C3B59049  21.926  33.623   7.050
 7913POPC   C4B59050  22.001  33.655   7.350
 7914POPC   NC359051  17.487   6.622   5.550
 7914POPC   PO459052  17.478   6.693   5.850
 7914POPC   GL159053  17.501   6.601   6.150
 7914POPC   GL259054  17.397   6.651   6.150
 7914POPC   C1A59055  17.457   6.674   6.450
 7914POPC   D2A59056  17.546   6.615   6.750
 7914POPC   C3A59057  17.537   6.638   7.050
 7914POPC   C4A59058  17.531   6.612   7.350
 7914POPC   C1B59059  17.210   6.671   6.450
 7914POPC   C2B59060  17.280   6.593   6.750
 7914POPC   C3B59061  17.273   6.625   7.050
 7914POPC   C4B59062  17.295   6.593   7.350
 7915POPC   NC359063  37.694  39.228   5.550
 7915POPC   PO459064  37.712  39.230   5.850
 7915POPC   GL159065  37.684  39.232   6.150
 7915POPC   GL259066  37.646  39.391   6.150
 7915POPC   C1A59067  37.678  39.281   6.450
 7915POPC   D2A59068  37.636  39.279   6.750
 7915POPC   C3A59069  37.649  39.211   7.050
 7915POPC   C4A59070  37.709  39.228   7.350
 7915POPC   C1B59071  37.659  39.510   6.450
 7915POPC   C2B59072  37.640  39.495   6.750
 7915POPC   C3B59073  37.656  39.531   7.050
 7915POPC   C4B59074  37.677  39.470   7.350
 7916POPC   NC359075  25.270  24.502   5.550
 7916POPC   PO459076  25.272  24.484   5.850
 7916POPC   GL159077  25.257  24.448   6.150
 7916POPC   GL259078  25.277  24.323   6.150
 7916POPC   C1A59079  25.249  24.525   6.450
 7916POPC   D2A59080  25.227  24.537   6.750
 7916POPC   C3A59081  25.246  24.467   7.050
 7916POPC   C4A59082  25.277  24.520   7.350
 7916POPC   C1B59083  25.306  24.211   6.450
 7916POPC   C2B59084  25.369  24.237   6.750
 7916POPC   C3B59085  25.383  24.289   7.050
 7916POPC   C4B59086  25.366  24.212   7.350
 7917POPC   NC359087   2.783   8.221   5.550
 7917POPC   PO459088   2.721   8.154   5.850
 7917POPC   GL159089   2.740   8.208   6.150
 7917POPC   GL259090   2.814   8.325   6.150
 7917POPC   C1A59091   2.786   8.216   6.450
 7917POPC   D2A59092   2.758   8.196   6.750
 7917POPC   C3A59093   2.762   8.188   7.050
 7917POPC   C4A59094   2.783   8.218   7.350
 7917POPC   C1B59095   2.848   8.431   6.450
 7917POPC   C2B59096   2.808   8.447   6.750
 7917POPC   C3B59097   2.896   8.453   7.050
 7917POPC   C4B59098   2.900   8.432   7.350
 7918POPC   NC359099  34.582  36.888   5.550
 7918POPC   PO459100  34.528  36.899   5.850
 7918POPC   GL159101  34.539  36.909   6.150
 7918POPC   GL259102  34.673  36.895   6.150
 7918POPC   C1A59103  34.556  36.924   6.450
 7918POPC   D2A59104  34.606  36.886   6.750
 7918POPC   C3A59105  34.599  36.885   7.050
 7918POPC   C4A59106  34.569  36.953   7.350
 7918POPC   C1B59107  34.835  36.807   6.450
 7918POPC   C2B59108  34.828  36.792   6.750
 7918POPC   C3B59109  34.771  36.816   7.050
 7918POPC   C4B59110  34.800  36.841   7.350
 7919POPC   NC359111   9.729  37.716   5.550
 7919POPC   PO459112   9.770  37.671   5.850
 7919POPC   GL159113   9.764  37.696   6.150
 7919POPC   GL259114   9.712  37.589   6.150
 7919POPC   C1A59115   9.748  37.716   6.450
 7919POPC   D2A59116   9.775  37.678   6.750
 7919POPC   C3A59117   9.703  37.726   7.050
 7919POPC   C4A59118   9.723  37.669   7.350
 7919POPC   C1B59119   9.641  37.489   6.450
 7919POPC   C2B59120   9.616  37.457   6.750
 7919POPC   C3B59121   9.612  37.423   7.050
 7919POPC   C4B59122   9.660  37.439   7.350
 7920POPC   NC359123   1.955  40.813   5.550
 7920POPC   PO459124   1.969  40.770   5.850
 7920POPC   GL159125   2.034  40.823   6.150
 7920POPC   GL259126   1.973  40.918   6.150
 7920POPC   C1A59127   2.018  40.756   6.450
 7920POPC   D2A59128   2.025  40.760   6.750
 7920POPC   C3A59129   1.972  40.819   7.050
 7920POPC   C4A59130   1.991  40.832   7.350
 7920POPC   C1B59131   1.848  40.970   6.450
 7920POPC   C2B59132   1.904  40.966   6.750
 7920POPC   C3B59133   1.908  40.986   7.050
 7920POPC   C4B59134   1.884  40.958   7.350
 7921POPC   NC359135  19.103  15.198   5.550
 7921POPC   PO459136  19.088  15.195   5.850
 7921POPC   GL159137  19.051  15.192   6.150
 7921POPC   GL259138  19.120  15.277   6.150
 7921POPC   C1A59139  19.016  15.142   6.450
 7921POPC   D2A59140  19.071  15.159   6.750
 7921POPC   C3A59141  19.030  15.137   7.050
 7921POPC   C4A59142  19.088  15.218   7.350
 7921POPC   C1B59143  19.165  15.406   6.450
 7921POPC   C2B59144  19.114  15.430   6.750
 7921POPC   C3B59145  19.148  15.462   7.050
 7921POPC   C4B59146  19.138  15.368   7.350
 7922POPC   NC359147  27.568  22.182   5.550
 7922POPC   PO459148  27.556  22.150   5.850
 7922POPC   GL159149  27.571  22.128   6.150
 7922POPC   GL259150  27.499  22.127   6.150
 7922POPC   C1A59151  27.602  22.211   6.450
 7922POPC   D2A59152  27.565  22.133   6.750
 7922POPC   C3A59153  27.598  22.131   7.050
 7922POPC   C4A59154  27.620  22.205   7.350
 7922POPC   C1B59155  27.389  22.101   6.450
 7922POPC   C2B59156  27.355  22.158   6.750
 7922POPC   C3B59157  27.365  22.140   7.050
 7922POPC   C4B59158  27.328  22.099   7.350
 7923POPC   NC359159   0.413  12.894   5.550
 7923POPC   PO459160   0.471  12.867   5.850
 7923POPC   GL159161   0.417  12.865   6.150
 7923POPC   GL259162   0.367  12.757   6.150
 7923POPC   C1A59163   0.472  12.817   6.450
 7923POPC   D2A59164   0.461  12.831   6.750
 7923POPC   C3A59165   0.446  12.825   7.050
 7923POPC   C4A59166   0.434  12.813   7.350
 7923POPC   C1B59167   0.360  12.600   6.450
 7923POPC   C2B59168   0.343  12.649   6.750
 7923POPC   C3B59169   0.410  12.640   7.050
 7923POPC   C4B59170   0.410  12.564   7.350
 7924POPC   NC359171  36.144  19.875   5.550
 7924POPC   PO459172  36.084  19.789   5.850
 7924POPC   GL159173  36.086  19.800   6.150
 7924POPC   GL259174  36.247  19.738   6.150
 7924POPC   C1A59175  36.082  19.865   6.450
 7924POPC   D2A59176  36.093  19.827   6.750
 7924POPC   C3A59177  36.093  19.859   7.050
 7924POPC   C4A59178  36.129  19.866   7.350
 7924POPC   C1B59179  36.324  19.675   6.450
 7924POPC   C2B59180  36.284  19.663   6.750
 7924POPC   C3B59181  36.327  19.649   7.050
 7924POPC   C4B59182  36.310  19.691   7.350
 7925POPC   NC359183   8.960  29.879   5.550
 7925POPC   PO459184   8.953  29.910   5.850
 7925POPC   GL159185   8.998  29.885   6.150
 7925POPC   GL259186   9.032  29.802   6.150
 7925POPC   C1A59187   8.961  29.949   6.450
 7925POPC   D2A59188   8.996  29.948   6.750
 7925POPC   C3A59189   8.984  29.946   7.050
 7925POPC   C4A59190   8.924  29.909   7.350
 7925POPC   C1B59191   9.124  29.668   6.450
 7925POPC   C2B59192   9.061  29.750   6.750
 7925POPC   C3B59193   9.057  29.698   7.050
 7925POPC   C4B59194   9.072  29.724   7.350
 7926POPC   NC359195  39.198   0.477   5.550
 7926POPC   PO459196  39.200   0.406   5.850
 7926POPC   GL159197  39.279   0.428   6.150
 7926POPC   GL259198  39.364   0.428   6.150
 7926POPC   C1A59199  39.228   0.466   6.450
 7926POPC   D2A59200  39.186   0.435   6.750
 7926POPC   C3A59201  39.263   0.434   7.050
 7926POPC   C4A59202  39.183   0.442   7.350
 7926POPC   C1B59203  39.423   0.516   6.450
 7926POPC   C2B59204  39.505   0.548   6.750
 7926POPC   C3B59205  39.449   0.490   7.050
 7926POPC   C4B59206  39.494   0.465   7.350
 7927POPC   NC359207  15.917  11.334   5.550
 7927POPC   PO459208  15.914  11.310   5.850
 7927POPC   GL159209  15.991  11.259   6.150
 7927POPC   GL259210  15.828  11.367   6.150
 7927POPC   C1A59211  15.960  11.329   6.450
 7927POPC   D2A59212  15.972  11.308   6.750
 7927POPC   C3A59213  15.931  11.323   7.050
 7927POPC   C4A59214  15.961  11.264   7.350
 7927POPC   C1B59215  15.750  11.486   6.450
 7927POPC   C2B59216  15.735  11.456   6.750
 7927POPC   C3B59217  15.766  11.448   7.050
 7927POPC   C4B59218  15.736  11.415   7.350
 7928POPC   NC359219  35.340  35.366   5.550
 7928POPC   PO459220  35.318  35.351   5.850
 7928POPC   GL159221  35.313  35.336   6.150
 7928POPC   GL259222  35.377  35.493   6.150
 7928POPC   C1A59223  35.311  35.303   6.450
 7928POPC   D2A59224  35.351  35.392   6.750
 7928POPC   C3A59225  35.335  35.374   7.050
 7928POPC   C4A59226  35.324  35.333   7.350
 7928POPC   C1B59227  35.363  35.566   6.450
 7928POPC   C2B59228  35.381  35.621   6.750
 7928POPC   C3B59229  35.423  35.637   7.050
 7928POPC   C4B59230  35.366  35.619   7.350
 7929POPC   NC359231   8.194  11.342   5.550
 7929POPC   PO459232   8.223  11.304   5.850
 7929POPC   GL159233   8.214  11.295   6.150
 7929POPC   GL259234   8.145  11.220   6.150
 7929POPC   C1A59235   8.211  11.308   6.450
 7929POPC   D2A59236   8.220  11.279   6.750
 7929POPC   C3A59237   8.187  11.260   7.050
 7929POPC   C4A59238   8.218  11.280   7.350
 7929POPC   C1B59239   8.051  11.049   6.450
 7929POPC   C2B59240   8.052  11.078   6.750
 7929POPC   C3B59241   8.055  11.106   7.050
 7929POPC   C4B59242   8.031  11.085   7.350
 7930POPC   NC359243  40.000  29.889   5.550
 7930POPC   PO459244  39.963  29.947   5.850
 7930POPC   GL159245  39.982  29.875   6.150
 7930POPC   GL259246  40.144  29.883   6.150
 7930POPC   C1A59247  39.998  29.956   6.450
 7930POPC   D2A59248  39.967  29.940   6.750
 7930POPC   C3A59249  39.968  29.949   7.050
 7930POPC   C4A59250  39.972  29.904   7.350
 7930POPC   C1B59251  40.155  29.796   6.450
 7930POPC   C2B59252  40.195  29.797   6.750
 7930POPC   C3B59253  40.205  29.733   7.050
 7930POPC   C4B59254  40.225  29.773   7.350
 7931POPC   NC359255   3.492  12.062   5.550
 7931POPC   PO459256   3.584  12.049   5.850
 7931POPC   GL159257   3.544  12.076   6.150
 7931POPC   GL259258   3.402  12.013   6.150
 7931POPC   C1A59259   3.525  12.057   6.450
 7931POPC   D2A59260   3.502  12.037   6.750
 7931POPC   C3A59261   3.563  12.116   7.050
 7931POPC   C4A59262   3.521  12.039   7.350
 7931POPC   C1B59263   3.320  11.999   6.450
 7931POPC   C2B59264   3.289  12.061   6.750
 7931POPC   C3B59265   3.254  12.029   7.050
 7931POPC   C4B59266   3.302  12.059   7.350
 7932POPC   NC359267  35.371  12.037   5.550
 7932POPC   PO459268  35.351  12.080   5.850
 7932POPC   GL159269  35.380  12.087   6.150
 7932POPC   GL259270  35.277  12.019   6.150
 7932POPC   C1A59271  35.306  12.053   6.450
 7932POPC   D2A59272  35.382  12.073   6.750
 7932POPC   C3A59273  35.312  12.028   7.050
 7932POPC   C4A59274  35.358  12.101   7.350
 7932POPC   C1B59275  35.159  11.887   6.450
 7932POPC   C2B59276  35.173  11.891   6.750
 7932POPC   C3B59277  35.139  11.962   7.050
 7932POPC   C4B59278  35.114  11.949   7.350
 7933POPC   NC359279  39.240  25.295   5.550
 7933POPC   PO459280  39.257  25.255   5.850
 7933POPC   GL159281  39.195  25.281   6.150
 7933POPC   GL259282  39.292  25.352   6.150
 7933POPC   C1A59283  39.207  25.299   6.450
 7933POPC   D2A59284  39.250  25.262   6.750
 7933POPC   C3A59285  39.265  25.309   7.050
 7933POPC   C4A59286  39.269  25.277   7.350
 7933POPC   C1B59287  39.381  25.387   6.450
 7933POPC   C2B59288  39.379  25.405   6.750
 7933POPC   C3B59289  39.401  25.478   7.050
 7933POPC   C4B59290  39.382  25.430   7.350
 7934POPC   NC359291  15.202   3.541   5.550
 7934POPC   PO459292  15.167   3.519   5.850
 7934POPC   GL159293  15.139   3.505   6.150
 7934POPC   GL259294  15.150   3.417   6.150
 7934POPC   C1A59295  15.163   3.544   6.450
 7934POPC   D2A59296  15.201   3.509   6.750
 7934POPC   C3A59297  15.169   3.588   7.050
 7934POPC   C4A59298  15.229   3.527   7.350
 7934POPC   C1B59299  15.026   3.338   6.450
 7934POPC   C2B59300  15.060   3.298   6.750
 7934POPC   C3B59301  15.006   3.354   7.050
 7934POPC   C4B59302  15.084   3.302   7.350
 7935POPC   NC359303  36.119   8.233   5.550
 7935POPC   PO459304  36.085   8.148   5.850
 7935POPC   GL159305  36.095   8.199   6.150
 7935POPC   GL259306  36.065   8.076   6.150
 7935POPC   C1A59307  36.141   8.201   6.450
 7935POPC   D2A59308  36.131   8.242   6.750
 7935POPC   C3A59309  36.113   8.167   7.050
 7935POPC   C4A59310  36.097   8.233   7.350
 7935POPC   C1B59311  36.072   7.954   6.450
 7935POPC   C2B59312  36.015   7.909   6.750
 7935POPC   C3B59313  36.067   7.986   7.050
 7935POPC   C4B59314  36.008   7.910   7.350
 7936POPC   NC359315   6.693   9.778   5.550
 7936POPC   PO459316   6.628   9.714   5.850
 7936POPC   GL159317   6.639   9.740   6.150
 7936POPC   GL259318   6.570   9.694   6.150
 7936POPC   C1A59319   6.625   9.703   6.450
 7936POPC   D2A59320   6.643   9.732   6.750
 7936POPC   C3A59321   6.691   9.794   7.050
 7936POPC   C4A59322   6.611   9.778   7.350
 7936POPC   C1B59323   6.392   9.570   6.450
 7936POPC   C2B59324   6.449   9.656   6.750
 7936POPC   C3B59325   6.409   9.648   7.050
 7936POPC   C4B59326   6.405   9.591   7.350
 7937POPC   NC359327   8.168  23.677   5.550
 7937POPC   PO459328   8.149  23.747   5.850
 7937POPC   GL159329   8.165  23.684   6.150
 7937POPC   GL259330   8.095  23.602   6.150
 7937POPC   C1A59331   8.148  23.737   6.450
 7937POPC   D2A59332   8.211  23.716   6.750
 7937POPC   C3A59333   8.211  23.733   7.050
 7937POPC   C4A59334   8.220  23.707   7.350
 7937POPC   C1B59335   8.003  23.593   6.450
 7937POPC   C2B59336   7.993  23.611   6.750
 7937POPC   C3B59337   8.026  23.531   7.050
 7937POPC   C4B59338   7.969  23.536   7.350
 7938POPC   NC359339  16.760  41.549   5.550
 7938POPC   PO459340  16.705  41.576   5.850
 7938POPC   GL159341  16.720  41.551   6.150
 7938POPC   GL259342  16.823  41.432   6.150
 7938POPC   C1A59343  16.692  41.563   6.450
 7938POPC   D2A59344  16.764  41.589   6.750
 7938POPC   C3A59345  16.717  41.602   7.050
 7938POPC   C4A59346  16.708  41.576   7.350
 7938POPC   C1B59347  16.940  41.393   6.450
 7938POPC   C2B59348  16.884  41.414   6.750
 7938POPC   C3B59349  16.884  41.378   7.050
 7938POPC   C4B59350  16.937  41.375   7.350
 7939POPC   NC359351   6.631  34.556   5.550
 7939POPC   PO459352   6.622  34.531   5.850
 7939POPC   GL159353   6.650  34.598   6.150
 7939POPC   GL259354   6.790  34.608   6.150
 7939POPC   C1A59355   6.641  34.614   6.450
 7939POPC   D2A59356   6.691  34.620   6.750
 7939POPC   C3A59357   6.680  34.550   7.050
 7939POPC   C4A59358   6.656  34.533   7.350
 7939POPC   C1B59359   6.909  34.565   6.450
 7939POPC   C2B59360   6.943  34.623   6.750
 7939POPC   C3B59361   6.898  34.580   7.050
 7939POPC   C4B59362   6.887  34.570   7.350
 7940POPC   NC359363  36.152   4.311   5.550
 7940POPC   PO459364  36.177   4.359   5.850
 7940POPC   GL159365  36.134   4.321   6.150
 7940POPC   GL259366  36.264   4.344   6.150
 7940POPC   C1A59367  36.151   4.316   6.450
 7940POPC   D2A59368  36.104   4.315   6.750
 7940POPC   C3A59369  36.128   4.350   7.050
 7940POPC   C4A59370  36.140   4.298   7.350
 7940POPC   C1B59371  36.291   4.440   6.450
 7940POPC   C2B59372  36.336   4.405   6.750
 7940POPC   C3B59373  36.293   4.437   7.050
 7940POPC   C4B59374  36.380   4.402   7.350
 7941POPC   NC359375   6.597  40.742   5.550
 7941POPC   PO459376   6.636  40.804   5.850
 7941POPC   GL159377   6.617  40.751   6.150
 7941POPC   GL259378   6.484  40.758   6.150
 7941POPC   C1A59379   6.693  40.827   6.450
 7941POPC   D2A59380   6.634  40.803   6.750
 7941POPC   C3A59381   6.649  40.739   7.050
 7941POPC   C4A59382   6.686  40.772   7.350
 7941POPC   C1B59383   6.376  40.763   6.450
 7941POPC   C2B59384   6.403  40.788   6.750
 7941POPC   C3B59385   6.366  40.761   7.050
 7941POPC   C4B59386   6.359  40.732   7.350
 7942POPC   NC359387   5.100  18.284   5.550
 7942POPC   PO459388   5.046  18.239   5.850
 7942POPC   GL159389   5.111  18.241   6.150
 7942POPC   GL259390   5.186  18.334   6.150
 7942POPC   C1A59391   5.047  18.265   6.450
 7942POPC   D2A59392   5.086  18.330   6.750
 7942POPC   C3A59393   5.071  18.238   7.050
 7942POPC   C4A59394   5.110  18.245   7.350
 7942POPC   C1B59395   5.266  18.494   6.450
 7942POPC   C2B59396   5.265  18.512   6.750
 7942POPC   C3B59397   5.235  18.459   7.050
 7942POPC   C4B59398   5.234  18.428   7.350
 7943POPC   NC359399  36.947  12.086   5.550
 7943POPC   PO459400  36.854  12.046   5.850
 7943POPC   GL159401  36.944  12.031   6.150
 7943POPC   GL259402  36.970  12.208   6.150
 7943POPC   C1A59403  36.914  12.104   6.450
 7943POPC   D2A59404  36.932  12.117   6.750
 7943POPC   C3A59405  36.888  12.054   7.050
 7943POPC   C4A59406  36.885  12.029   7.350
 7943POPC   C1B59407  36.942  12.356   6.450
 7943POPC   C2B59408  36.994  12.314   6.750
 7943POPC   C3B59409  36.915  12.283   7.050
 7943POPC   C4B59410  36.972  12.326   7.350
 7944POPC   NC359411   7.427   5.894   5.550
 7944POPC   PO459412   7.400   5.890   5.850
 7944POPC   GL159413   7.459   5.862   6.150
 7944POPC   GL259414   7.449   5.700   6.150
 7944POPC   C1A59415   7.466   5.856   6.450
 7944POPC   D2A59416   7.452   5.893   6.750
 7944POPC   C3A59417   7.437   5.908   7.050
 7944POPC   C4A59418   7.390   5.900   7.350
 7944POPC   C1B59419   7.462   5.629   6.450
 7944POPC   C2B59420   7.482   5.602   6.750
 7944POPC   C3B59421   7.461   5.625   7.050
 7944POPC   C4B59422   7.471   5.593   7.350
 7945POPC   NC359423  32.292  30.702   5.550
 7945POPC   PO459424  32.278  30.731   5.850
 7945POPC   GL159425  32.221  30.702   6.150
 7945POPC   GL259426  32.139  30.803   6.150
 7945POPC   C1A59427  32.293  30.693   6.450
 7945POPC   D2A59428  32.290  30.737   6.750
 7945POPC   C3A59429  32.264  30.651   7.050
 7945POPC   C4A59430  32.260  30.737   7.350
 7945POPC   C1B59431  32.077  30.874   6.450
 7945POPC   C2B59432  32.062  30.882   6.750
 7945POPC   C3B59433  32.154  30.872   7.050
 7945POPC   C4B59434  32.103  30.864   7.350
 7946POPC   NC359435  10.475  24.524   5.550
 7946POPC   PO459436  10.510  24.463   5.850
 7946POPC   GL159437  10.574  24.467   6.150
 7946POPC   GL259438  10.642  24.414   6.150
 7946POPC   C1A59439  10.537  24.452   6.450
 7946POPC   D2A59440  10.564  24.531   6.750
 7946POPC   C3A59441  10.531  24.483   7.050
 7946POPC   C4A59442  10.565  24.513   7.350
 7946POPC   C1B59443  10.753  24.359   6.450
 7946POPC   C2B59444  10.685  24.374   6.750
 7946POPC   C3B59445  10.676  24.289   7.050
 7946POPC   C4B59446  10.697  24.376   7.350
 7947POPC   NC359447   9.746   6.663   5.550
 7947POPC   PO459448   9.719   6.625   5.850
 7947POPC   GL159449   9.728   6.651   6.150
 7947POPC   GL259450   9.724   6.521   6.150
 7947POPC   C1A59451   9.759   6.665   6.450
 7947POPC   D2A59452   9.767   6.636   6.750
 7947POPC   C3A59453   9.765   6.674   7.050
 7947POPC   C4A59454   9.780   6.638   7.350
 7947POPC   C1B59455   9.691   6.397   6.450
 7947POPC   C2B59456   9.721   6.450   6.750
 7947POPC   C3B59457   9.688   6.394   7.050
 7947POPC   C4B59458   9.658   6.391   7.350
 7948POPC   NC359459  40.826  34.602   5.550
 7948POPC   PO459460  40.789  34.595   5.850
 7948POPC   GL159461  40.767  34.574   6.150
 7948POPC   GL259462  40.656  34.452   6.150
 7948POPC   C1A59463  40.733  34.617   6.450
 7948POPC   D2A59464  40.756  34.540   6.750
 7948POPC   C3A59465  40.832  34.556   7.050
 7948POPC   C4A59466  40.818  34.530   7.350
 7948POPC   C1B59467  40.644  34.363   6.450
 7948POPC   C2B59468  40.615  34.445   6.750
 7948POPC   C3B59469  40.618  34.358   7.050
 7948POPC   C4B59470  40.625  34.413   7.350
 7949POPC   NC359471  43.110  17.485   5.550
 7949POPC   PO459472  43.148  17.521   5.850
 7949POPC   GL159473  43.134  17.527   6.150
 7949POPC   GL259474  43.071  17.398   6.150
 7949POPC   C1A59475  43.152  17.517   6.450
 7949POPC   D2A59476  43.068  17.542   6.750
 7949POPC   C3A59477  43.131  17.537   7.050
 7949POPC   C4A59478  43.119  17.539   7.350
 7949POPC   C1B59479  42.960  17.299   6.450
 7949POPC   C2B59480  42.974  17.287   6.750
 7949POPC   C3B59481  43.032  17.308   7.050
 7949POPC   C4B59482  42.967  17.337   7.350
 7950POPC   NC359483  39.262   2.808   5.550
 7950POPC   PO459484  39.219   2.773   5.850
 7950POPC   GL159485  39.277   2.799   6.150
 7950POPC   GL259486  39.392   2.755   6.150
 7950POPC   C1A59487  39.219   2.722   6.450
 7950POPC   D2A59488  39.241   2.729   6.750
 7950POPC   C3A59489  39.275   2.815   7.050
 7950POPC   C4A59490  39.232   2.716   7.350
 7950POPC   C1B59491  39.520   2.773   6.450
 7950POPC   C2B59492  39.518   2.784   6.750
 7950POPC   C3B59493  39.436   2.819   7.050
 7950POPC   C4B59494  39.461   2.793   7.350
 7951POPC   NC359495  18.275  19.799   5.550
 7951POPC   PO459496  18.238  19.842   5.850
 7951POPC   GL159497  18.327  19.801   6.150
 7951POPC   GL259498  18.302  19.725   6.150
 7951POPC   C1A59499  18.267  19.860   6.450
 7951POPC   D2A59500  18.253  19.856   6.750
 7951POPC   C3A59501  18.238  19.829   7.050
 7951POPC   C4A59502  18.249  19.820   7.350
 7951POPC   C1B59503  18.212  19.562   6.450
 7951POPC   C2B59504  18.259  19.592   6.750
 7951POPC   C3B59505  18.199  19.538   7.050
 7951POPC   C4B59506  18.263  19.604   7.350
 7952POPC   NC359507  38.435  26.823   5.550
 7952POPC   PO459508  38.468  26.836   5.850
 7952POPC   GL159509  38.496  26.817   6.150
 7952POPC   GL259510  38.406  26.904   6.150
 7952POPC   C1A59511  38.432  26.791   6.450
 7952POPC   D2A59512  38.500  26.785   6.750
 7952POPC   C3A59513  38.496  26.791   7.050
 7952POPC   C4A59514  38.458  26.845   7.350
 7952POPC   C1B59515  38.268  26.967   6.450
 7952POPC   C2B59516  38.283  27.010   6.750
 7952POPC   C3B59517  38.229  27.030   7.050
 7952POPC   C4B59518  38.280  26.967   7.350
 7953POPC   NC359519  29.956  27.606   5.550
 7953POPC   PO459520  29.880  27.598   5.850
 7953POPC   GL159521  29.885  27.584   6.150
 7953POPC   GL259522  29.921  27.428   6.150
 7953POPC   C1A59523  29.910  27.591   6.450
 7953POPC   D2A59524  29.877  27.544   6.750
 7953POPC   C3A59525  29.917  27.598   7.050
 7953POPC   C4A59526  29.903  27.637   7.350
 7953POPC   C1B59527  29.990  27.319   6.450
 7953POPC   C2B59528  29.983  27.296   6.750
 7953POPC   C3B59529  29.977  27.332   7.050
 7953POPC   C4B59530  29.943  27.317   7.350
 7954POPC   NC359531  20.596  13.607   5.550
 7954POPC   PO459532  20.624  13.639   5.850
 7954POPC   GL159533  20.635  13.596   6.150
 7954POPC   GL259534  20.508  13.701   6.150
 7954POPC   C1A59535  20.583  13.629   6.450
 7954POPC   D2A59536  20.570  13.613   6.750
 7954POPC   C3A59537  20.619  13.612   7.050
 7954POPC   C4A59538  20.594  13.667   7.350
 7954POPC   C1B59539  20.373  13.765   6.450
 7954POPC   C2B59540  20.431  13.738   6.750
 7954POPC   C3B59541  20.418  13.737   7.050
 7954POPC   C4B59542  20.355  13.740   7.350
 7955POPC   NC359543   8.942  10.546   5.550
 7955POPC   PO459544   8.938  10.536   5.850
 7955POPC   GL159545   8.984  10.507   6.150
 7955POPC   GL259546   8.833  10.443   6.150
 7955POPC   C1A59547   8.956  10.478   6.450
 7955POPC   D2A59548   8.959  10.505   6.750
 7955POPC   C3A59549   8.975  10.562   7.050
 7955POPC   C4A59550   8.958  10.490   7.350
 7955POPC   C1B59551   8.745  10.454   6.450
 7955POPC   C2B59552   8.779  10.412   6.750
 7955POPC   C3B59553   8.699  10.382   7.050
 7955POPC   C4B59554   8.737  10.422   7.350
 7956POPC   NC359555  18.242  40.023   5.550
 7956POPC   PO459556  18.303  39.993   5.850
 7956POPC   GL159557  18.299  40.024   6.150
 7956POPC   GL259558  18.225  40.137   6.150
 7956POPC   C1A59559  18.265  40.051   6.450
 7956POPC   D2A59560  18.327  39.962   6.750
 7956POPC   C3A59561  18.305  39.987   7.050
 7956POPC   C4A59562  18.319  39.998   7.350
 7956POPC   C1B59563  18.189  40.222   6.450
 7956POPC   C2B59564  18.163  40.265   6.750
 7956POPC   C3B59565  18.215  40.260   7.050
 7956POPC   C4B59566  18.228  40.293   7.350
 7957POPC   NC359567  10.489  38.430   5.550
 7957POPC   PO459568  10.546  38.491   5.850
 7957POPC   GL159569  10.547  38.455   6.150
 7957POPC   GL259570  10.698  38.460   6.150
 7957POPC   C1A59571  10.517  38.492   6.450
 7957POPC   D2A59572  10.510  38.444   6.750
 7957POPC   C3A59573  10.557  38.490   7.050
 7957POPC   C4A59574  10.561  38.446   7.350
 7957POPC   C1B59575  10.751  38.394   6.450
 7957POPC   C2B59576  10.763  38.434   6.750
 7957POPC   C3B59577  10.791  38.445   7.050
 7957POPC   C4B59578  10.808  38.445   7.350
 7958POPC   NC359579  43.906  35.343   5.550
 7958POPC   PO459580  43.900  35.333   5.850
 7958POPC   GL159581  43.862  35.372   6.150
 7958POPC   GL259582  43.962  35.300   6.150
 7958POPC   C1A59583  43.861  35.340   6.450
 7958POPC   D2A59584  43.844  35.317   6.750
 7958POPC   C3A59585  43.866  35.317   7.050
 7958POPC   C4A59586  43.861  35.303   7.350
 7958POPC   C1B59587  44.132  35.232   6.450
 7958POPC   C2B59588  44.153  35.278   6.750
 7958POPC   C3B59589  44.096  35.242   7.050
 7958POPC   C4B59590  44.150  35.239   7.350
 7959POPC   NC359591   3.530   4.305   5.550
 7959POPC   PO459592   3.511   4.275   5.850
 7959POPC   GL159593   3.516   4.298   6.150
 7959POPC   GL259594   3.518   4.439   6.150
 7959POPC   C1A59595   3.569   4.275   6.450
 7959POPC   D2A59596   3.582   4.269   6.750
 7959POPC   C3A59597   3.536   4.300   7.050
 7959POPC   C4A59598   3.587   4.282   7.350
 7959POPC   C1B59599   3.552   4.527   6.450
 7959POPC   C2B59600   3.567   4.522   6.750
 7959POPC   C3B59601   3.576   4.578   7.050
 7959POPC   C4B59602   3.567   4.555   7.350
 7960POPC   NC359603   3.566  22.927   5.550
 7960POPC   PO459604   3.511  22.907   5.850
 7960POPC   GL159605   3.572  22.889   6.150
 7960POPC   GL259606   3.644  22.845   6.150
 7960POPC   C1A59607   3.530  22.962   6.450
 7960POPC   D2A59608   3.523  22.919   6.750
 7960POPC   C3A59609   3.582  22.946   7.050
 7960POPC   C4A59610   3.569  22.906   7.350
 7960POPC   C1B59611   3.707  22.740   6.450
 7960POPC   C2B59612   3.670  22.729   6.750
 7960POPC   C3B59613   3.749  22.724   7.050
 7960POPC   C4B59614   3.765  22.748   7.350
 7961POPC   NC359615   0.400  42.327   5.550
 7961POPC   PO459616   0.422  42.311   5.850
 7961POPC   GL159617   0.479  42.331   6.150
 7961POPC   GL259618   0.369  42.437   6.150
 7961POPC   C1A59619   0.401  42.299   6.450
 7961POPC   D2A59620   0.450  42.351   6.750
 7961POPC   C3A59621   0.412  42.297   7.050
 7961POPC   C4A59622   0.470  42.352   7.350
 7961POPC   C1B59623   0.248  42.584   6.450
 7961POPC   C2B59624   0.253  42.519   6.750
 7961POPC   C3B59625   0.252  42.516   7.050
 7961POPC   C4B59626   0.332  42.502   7.350
 7962POPC   NC359627   0.449  29.890   5.550
 7962POPC   PO459628   0.468  29.901   5.850
 7962POPC   GL159629   0.482  29.881   6.150
 7962POPC   GL259630   0.442  30.049   6.150
 7962POPC   C1A59631   0.455  29.921   6.450
 7962POPC   D2A59632   0.451  29.907   6.750
 7962POPC   C3A59633   0.437  29.905   7.050
 7962POPC   C4A59634   0.417  29.954   7.350
 7962POPC   C1B59635   0.391  30.210   6.450
 7962POPC   C2B59636   0.395  30.204   6.750
 7962POPC   C3B59637   0.409  30.184   7.050
 7962POPC   C4B59638   0.345  30.119   7.350
 7963POPC   NC359639  43.140   3.588   5.550
 7963POPC   PO459640  43.104   3.539   5.850
 7963POPC   GL159641  43.073   3.555   6.150
 7963POPC   GL259642  43.159   3.450   6.150
 7963POPC   C1A59643  43.092   3.566   6.450
 7963POPC   D2A59644  43.160   3.541   6.750
 7963POPC   C3A59645  43.066   3.521   7.050
 7963POPC   C4A59646  43.156   3.496   7.350
 7963POPC   C1B59647  43.321   3.421   6.450
 7963POPC   C2B59648  43.256   3.357   6.750
 7963POPC   C3B59649  43.326   3.395   7.050
 7963POPC   C4B59650  43.309   3.348   7.350
 7964POPC   NC359651  39.991   9.793   5.550
 7964POPC   PO459652  39.976   9.782   5.850
 7964POPC   GL159653  39.963   9.726   6.150
 7964POPC   GL259654  40.003   9.843   6.150
 7964POPC   C1A59655  40.038   9.729   6.450
 7964POPC   D2A59656  40.023   9.750   6.750
 7964POPC   C3A59657  40.022   9.769   7.050
 7964POPC   C4A59658  40.022   9.781   7.350
 7964POPC   C1B59659  39.892   9.932   6.450
 7964POPC   C2B59660  39.882   9.977   6.750
 7964POPC   C3B59661  39.896   9.950   7.050
 7964POPC   C4B59662  39.948   9.978   7.350
 7965POPC   NC359663   3.546  26.867   5.550
 7965POPC   PO459664   3.516  26.804   5.850
 7965POPC   GL159665   3.578  26.796   6.150
 7965POPC   GL259666   3.409  26.730   6.150
 7965POPC   C1A59667   3.499  26.840   6.450
 7965POPC   D2A59668   3.494  26.801   6.750
 7965POPC   C3A59669   3.571  26.808   7.050
 7965POPC   C4A59670   3.542  26.818   7.350
 7965POPC   C1B59671   3.290  26.760   6.450
 7965POPC   C2B59672   3.268  26.755   6.750
 7965POPC   C3B59673   3.316  26.783   7.050
 7965POPC   C4B59674   3.289  26.738   7.350
 7966POPC   NC359675  40.773  26.030   5.550
 7966POPC   PO459676  40.748  26.066   5.850
 7966POPC   GL159677  40.793  26.062   6.150
 7966POPC   GL259678  40.726  26.125   6.150
 7966POPC   C1A59679  40.816  25.997   6.450
 7966POPC   D2A59680  40.799  26.028   6.750
 7966POPC   C3A59681  40.794  26.054   7.050
 7966POPC   C4A59682  40.768  26.015   7.350
 7966POPC   C1B59683  40.626  26.238   6.450
 7966POPC   C2B59684  40.692  26.232   6.750
 7966POPC   C3B59685  40.668  26.230   7.050
 7966POPC   C4B59686  40.701  26.304   7.350
 7967POPC   NC359687  29.927  18.269   5.550
 7967POPC   PO459688  29.968  18.262   5.850
 7967POPC   GL159689  29.888  18.267   6.150
 7967POPC   GL259690  29.834  18.211   6.150
 7967POPC   C1A59691  29.900  18.239   6.450
 7967POPC   D2A59692  29.955  18.308   6.750
 7967POPC   C3A59693  29.951  18.249   7.050
 7967POPC   C4A59694  29.948  18.323   7.350
 7967POPC   C1B59695  29.644  18.256   6.450
 7967POPC   C2B59696  29.727  18.253   6.750
 7967POPC   C3B59697  29.667  18.215   7.050
 7967POPC   C4B59698  29.656  18.183   7.350
 7968POPC   NC359699  26.057  13.648   5.550
 7968POPC   PO459700  26.021  13.582   5.850
 7968POPC   GL159701  26.083  13.639   6.150
 7968POPC   GL259702  26.120  13.533   6.150
 7968POPC   C1A59703  26.068  13.629   6.450
 7968POPC   D2A59704  26.052  13.602   6.750
 7968POPC   C3A59705  26.071  13.641   7.050
 7968POPC   C4A59706  26.015  13.650   7.350
 7968POPC   C1B59707  26.120  13.393   6.450
 7968POPC   C2B59708  26.106  13.399   6.750
 7968POPC   C3B59709  26.130  13.377   7.050
 7968POPC   C4B59710  26.132  13.363   7.350
 7969POPC   NC359711  26.805  30.713   5.550
 7969POPC   PO459712  26.858  30.726   5.850
 7969POPC   GL159713  26.826  30.700   6.150
 7969POPC   GL259714  26.774  30.545   6.150
 7969POPC   C1A59715  26.770  30.734   6.450
 7969POPC   D2A59716  26.805  30.665   6.750
 7969POPC   C3A59717  26.853  30.715   7.050
 7969POPC   C4A59718  26.794  30.739   7.350
 7969POPC   C1B59719  26.722  30.460   6.450
 7969POPC   C2B59720  26.697  30.501   6.750
 7969POPC   C3B59721  26.727  30.496   7.050
 7969POPC   C4B59722  26.720  30.524   7.350
 7970POPC   NC359723  22.120  15.962   5.550
 7970POPC   PO459724  22.138  15.990   5.850
 7970POPC   GL159725  22.144  15.917   6.150
 7970POPC   GL259726  22.010  15.909   6.150
 7970POPC   C1A59727  22.204  15.991   6.450
 7970POPC   D2A59728  22.149  15.922   6.750
 7970POPC   C3A59729  22.168  15.925   7.050
 7970POPC   C4A59730  22.121  15.926   7.350
 7970POPC   C1B59731  21.937  15.907   6.450
 7970POPC   C2B59732  21.958  15.899   6.750
 7970POPC   C3B59733  21.948  15.823   7.050
 7970POPC   C4B59734  21.934  15.881   7.350
 7971POPC   NC359735  23.680  22.147   5.550
 7971POPC   PO459736  23.732  22.113   5.850
 7971POPC   GL159737  23.692  22.128   6.150
 7971POPC   GL259738  23.822  22.247   6.150
 7971POPC   C1A59739  23.707  22.121   6.450
 7971POPC   D2A59740  23.672  22.144   6.750
 7971POPC   C3A59741  23.706  22.124   7.050
 7971POPC   C4A59742  23.688  22.182   7.350
 7971POPC   C1B59743  23.821  22.329   6.450
 7971POPC   C2B59744  23.892  22.417   6.750
 7971POPC   C3B59745  23.866  22.358   7.050
 7971POPC   C4B59746  23.850  22.412   7.350
 7972POPC   NC359747  14.425  14.415   5.550
 7972POPC   PO459748  14.444  14.429   5.850
 7972POPC   GL159749  14.415  14.436   6.150
 7972POPC   GL259750  14.408  14.491   6.150
 7972POPC   C1A59751  14.385  14.426   6.450
 7972POPC   D2A59752  14.415  14.383   6.750
 7972POPC   C3A59753  14.357  14.449   7.050
 7972POPC   C4A59754  14.431  14.367   7.350
 7972POPC   C1B59755  14.492  14.609   6.450
 7972POPC   C2B59756  14.494  14.659   6.750
 7972POPC   C3B59757  14.494  14.608   7.050
 7972POPC   C4B59758  14.453  14.632   7.350
 7973POPC   NC359759  38.433  36.089   5.550
 7973POPC   PO459760  38.447  36.169   5.850
 7973POPC   GL159761  38.437  36.167   6.150
 7973POPC   GL259762  38.354  36.061   6.150
 7973POPC   C1A59763  38.474  36.089   6.450
 7973POPC   D2A59764  38.429  36.092   6.750
 7973POPC   C3A59765  38.502  36.103   7.050
 7973POPC   C4A59766  38.490  36.158   7.350
 7973POPC   C1B59767  38.318  35.949   6.450
 7973POPC   C2B59768  38.274  35.925   6.750
 7973POPC   C3B59769  38.319  35.878   7.050
 7973POPC   C4B59770  38.327  35.957   7.350
 7974POPC   NC359771  15.988  16.759   5.550
 7974POPC   PO459772  15.968  16.738   5.850
 7974POPC   GL159773  15.975  16.770   6.150
 7974POPC   GL259774  15.837  16.823   6.150
 7974POPC   C1A59775  15.999  16.720   6.450
 7974POPC   D2A59776  15.956  16.685   6.750
 7974POPC   C3A59777  15.920  16.762   7.050
 7974POPC   C4A59778  15.916  16.729   7.350
 7974POPC   C1B59779  15.834  16.958   6.450
 7974POPC   C2B59780  15.836  16.985   6.750
 7974POPC   C3B59781  15.784  16.983   7.050
 7974POPC   C4B59782  15.798  16.930   7.350
 7975POPC   NC359783  10.522  43.088   5.550
 7975POPC   PO459784  10.562  43.133   5.850
 7975POPC   GL159785  10.536  43.135   6.150
 7975POPC   GL259786  10.521  42.941   6.150
 7975POPC   C1A59787  10.557  43.082   6.450
 7975POPC   D2A59788  10.514  43.148   6.750
 7975POPC   C3A59789  10.520  43.103   7.050
 7975POPC   C4A59790  10.503  43.068   7.350
 7975POPC   C1B59791  10.626  42.857   6.450
 7975POPC   C2B59792  10.589  42.897   6.750
 7975POPC   C3B59793  10.623  42.831   7.050
 7975POPC   C4B59794  10.581  42.825   7.350
 7976POPC   NC359795  43.154  28.337   5.550
 7976POPC   PO459796  43.104  28.404   5.850
 7976POPC   GL159797  43.141  28.380   6.150
 7976POPC   GL259798  42.989  28.402   6.150
 7976POPC   C1A59799  43.118  28.355   6.450
 7976POPC   D2A59800  43.147  28.370   6.750
 7976POPC   C3A59801  43.109  28.406   7.050
 7976POPC   C4A59802  43.062  28.369   7.350
 7976POPC   C1B59803  42.932  28.433   6.450
 7976POPC   C2B59804  42.839  28.444   6.750
 7976POPC   C3B59805  42.886  28.479   7.050
 7976POPC   C4B59806  42.844  28.507   7.350
 7977POPC   NC359807  40.735  31.481   5.550
 7977POPC   PO459808  40.819  31.507   5.850
 7977POPC   GL159809  40.738  31.441   6.150
 7977POPC   GL259810  40.876  31.501   6.150
 7977POPC   C1A59811  40.830  31.504   6.450
 7977POPC   D2A59812  40.764  31.454   6.750
 7977POPC   C3A59813  40.805  31.506   7.050
 7977POPC   C4A59814  40.815  31.512   7.350
 7977POPC   C1B59815  41.054  31.498   6.450
 7977POPC   C2B59816  40.982  31.576   6.750
 7977POPC   C3B59817  41.058  31.518   7.050
 7977POPC   C4B59818  41.029  31.500   7.350
 7978POPC   NC359819  33.057   5.075   5.550
 7978POPC   PO459820  33.006   5.054   5.850
 7978POPC   GL159821  33.071   5.070   6.150
 7978POPC   GL259822  32.939   5.125   6.150
 7978POPC   C1A59823  33.036   5.128   6.450
 7978POPC   D2A59824  33.038   5.125   6.750
 7978POPC   C3A59825  33.002   5.142   7.050
 7978POPC   C4A59826  33.011   5.120   7.350
 7978POPC   C1B59827  32.790   5.122   6.450
 7978POPC   C2B59828  32.800   5.153   6.750
 7978POPC   C3B59829  32.808   5.154   7.050
 7978POPC   C4B59830  32.745   5.129   7.350
 7979POPC   NC359831  29.906  12.060   5.550
 7979POPC   PO459832  29.915  12.052   5.850
 7979POPC   GL159833  29.948  12.076   6.150
 7979POPC   GL259834  29.963  11.927   6.150
 7979POPC   C1A59835  29.941  12.114   6.450
 7979POPC   D2A59836  29.949  12.100   6.750
 7979POPC   C3A59837  29.884  12.087   7.050
 7979POPC   C4A59838  29.939  12.071   7.350
 7979POPC   C1B59839  30.063  11.896   6.450
 7979POPC   C2B59840  29.992  11.885   6.750
 7979POPC   C3B59841  29.983  11.841   7.050
 7979POPC   C4B59842  30.032  11.891   7.350
 7980POPC   NC359843   2.749  23.695   5.550
 7980POPC   PO459844   2.774  23.701   5.850
 7980POPC   GL159845   2.779  23.756   6.150
 7980POPC   GL259846   2.911  23.812   6.150
 7980POPC   C1A59847   2.733  23.675   6.450
 7980POPC   D2A59848   2.809  23.700   6.750
 7980POPC   C3A59849   2.807  23.669   7.050
 7980POPC   C4A59850   2.723  23.741   7.350
 7980POPC   C1B59851   2.957  23.841   6.450
 7980POPC   C2B59852   3.006  23.794   6.750
 7980POPC   C3B59853   2.984  23.821   7.050
 7980POPC   C4B59854   3.008  23.789   7.350
 7981POPC   NC359855   0.443  17.526   5.550
 7981POPC   PO459856   0.460  17.482   5.850
 7981POPC   GL159857   0.457  17.458   6.150
 7981POPC   GL259858   0.388  17.650   6.150
 7981POPC   C1A59859   0.402  17.489   6.450
 7981POPC   D2A59860   0.406  17.509   6.750
 7981POPC   C3A59861   0.486  17.525   7.050
 7981POPC   C4A59862   0.431  17.549   7.350
 7981POPC   C1B59863   0.323  17.680   6.450
 7981POPC   C2B59864   0.271  17.673   6.750
 7981POPC   C3B59865   0.243  17.706   7.050
 7981POPC   C4B59866   0.315  17.722   7.350
 7982POPC   NC359867  27.601  35.309   5.550
 7982POPC   PO459868  27.554  35.312   5.850
 7982POPC   GL159869  27.635  35.401   6.150
 7982POPC   GL259870  27.499  35.296   6.150
 7982POPC   C1A59871  27.566  35.393   6.450
 7982POPC   D2A59872  27.613  35.355   6.750
 7982POPC   C3A59873  27.577  35.379   7.050
 7982POPC   C4A59874  27.607  35.321   7.350
 7982POPC   C1B59875  27.344  35.212   6.450
 7982POPC   C2B59876  27.387  35.202   6.750
 7982POPC   C3B59877  27.433  35.225   7.050
 7982POPC   C4B59878  27.361  35.243   7.350
 7983POPC   NC359879  15.953  43.883   5.550
 7983POPC   PO459880  15.914  43.925   5.850
 7983POPC   GL159881  15.916  43.898   6.150
 7983POPC   GL259882  15.928  43.796   6.150
 7983POPC   C1A59883  15.938  43.868   6.450
 7983POPC   D2A59884  15.940  43.852   6.750
 7983POPC   C3A59885  15.984  43.871   7.050
 7983POPC   C4A59886  15.988  43.927   7.350
 7983POPC   C1B59887  15.891  43.679   6.450
 7983POPC   C2B59888  15.862  43.639   6.750
 7983POPC   C3B59889  15.905  43.620   7.050
 7983POPC   C4B59890  15.929  43.688   7.350
 7984POPC   NC359891   7.409   0.434   5.550
 7984POPC   PO459892   7.376   0.485   5.850
 7984POPC   GL159893   7.444   0.400   6.150
 7984POPC   GL259894   7.466   0.308   6.150
 7984POPC   C1A59895   7.402   0.439   6.450
 7984POPC   D2A59896   7.390   0.448   6.750
 7984POPC   C3A59897   7.436   0.437   7.050
 7984POPC   C4A59898   7.465   0.398   7.350
 7984POPC   C1B59899   7.429   0.201   6.450
 7984POPC   C2B59900   7.461   0.174   6.750
 7984POPC   C3B59901   7.421   0.209   7.050
 7984POPC   C4B59902   7.454   0.138   7.350
 7985POPC   NC359903   7.470  31.460   5.550
 7985POPC   PO459904   7.470  31.488   5.850
 7985POPC   GL159905   7.431  31.474   6.150
 7985POPC   GL259906   7.559  31.549   6.150
 7985POPC   C1A59907   7.440  31.440   6.450
 7985POPC   D2A59908   7.470  31.447   6.750
 7985POPC   C3A59909   7.448  31.472   7.050
 7985POPC   C4A59910   7.396  31.518   7.350
 7985POPC   C1B59911   7.612  31.603   6.450
 7985POPC   C2B59912   7.653  31.569   6.750
 7985POPC   C3B59913   7.677  31.561   7.050
 7985POPC   C4B59914   7.666  31.637   7.350
 7986POPC   NC359915  40.001  21.339   5.550
 7986POPC   PO459916  40.044  21.434   5.850
 7986POPC   GL159917  40.016  21.419   6.150
 7986POPC   GL259918  40.063  21.537   6.150
 7986POPC   C1A59919  39.978  21.394   6.450
 7986POPC   D2A59920  39.977  21.388   6.750
 7986POPC   C3A59921  40.037  21.379   7.050
 7986POPC   C4A59922  39.975  21.360   7.350
 7986POPC   C1B59923  40.150  21.559   6.450
 7986POPC   C2B59924  40.174  21.613   6.750
 7986POPC   C3B59925  40.124  21.590   7.050
 7986POPC   C4B59926  40.183  21.602   7.350
 7987POPC   NC359927  33.809   1.215   5.550
 7987POPC   PO459928  33.797   1.232   5.850
 7987POPC   GL159929  33.842   1.228   6.150
 7987POPC   GL259930  33.739   1.276   6.150
 7987POPC   C1A59931  33.783   1.215   6.450
 7987POPC   D2A59932  33.752   1.208   6.750
 7987POPC   C3A59933  33.844   1.251   7.050
 7987POPC   C4A59934  33.777   1.169   7.350
 7987POPC   C1B59935  33.601   1.330   6.450
 7987POPC   C2B59936  33.587   1.404   6.750
 7987POPC   C3B59937  33.592   1.316   7.050
 7987POPC   C4B59938  33.593   1.407   7.350
 7988POPC   NC359939  18.276  31.446   5.550
 7988POPC   PO459940  18.292  31.504   5.850
 7988POPC   GL159941  18.291  31.496   6.150
 7988POPC   GL259942  18.350  31.569   6.150
 7988POPC   C1A59943  18.265  31.508   6.450
 7988POPC   D2A59944  18.329  31.455   6.750
 7988POPC   C3A59945  18.313  31.493   7.050
 7988POPC   C4A59946  18.255  31.469   7.350
 7988POPC   C1B59947  18.318  31.671   6.450
 7988POPC   C2B59948  18.314  31.724   6.750
 7988POPC   C3B59949  18.374  31.720   7.050
 7988POPC   C4B59950  18.357  31.710   7.350
 7989POPC   NC359951  44.668  21.341   5.550
 7989POPC   PO459952  44.696  21.342   5.850
 7989POPC   GL159953  44.674  21.390   6.150
 7989POPC   GL259954  44.544  21.443   6.150
 7989POPC   C1A59955  44.637  21.408   6.450
 7989POPC   D2A59956  44.653  21.348   6.750
 7989POPC   C3A59957  44.699  21.395   7.050
 7989POPC   C4A59958  44.641  21.373   7.350
 7989POPC   C1B59959  44.399  21.496   6.450
 7989POPC   C2B59960  44.386  21.508   6.750
 7989POPC   C3B59961  44.476  21.485   7.050
 7989POPC   C4B59962  44.395  21.479   7.350
 7990POPC   NC359963  33.828  12.063   5.550
 7990POPC   PO459964  33.816  12.070   5.850
 7990POPC   GL159965  33.822  12.028   6.150
 7990POPC   GL259966  33.898  12.130   6.150
 7990POPC   C1A59967  33.751  12.051   6.450
 7990POPC   D2A59968  33.840  12.039   6.750
 7990POPC   C3A59969  33.823  12.107   7.050
 7990POPC   C4A59970  33.808  12.109   7.350
 7990POPC   C1B59971  34.022  12.085   6.450
 7990POPC   C2B59972  34.045  12.129   6.750
 7990POPC   C3B59973  34.028  12.097   7.050
 7990POPC   C4B59974  34.070  12.110   7.350
 7991POPC   NC359975  44.689  39.197   5.550
 7991POPC   PO459976  44.653  39.264   5.850
 7991POPC   GL159977  44.696  39.233   6.150
 7991POPC   GL259978  44.574  39.312   6.150
 7991POPC   C1A59979  44.669  39.249   6.450
 7991POPC   D2A59980  44.707  39.219   6.750
 7991POPC   C3A59981  44.710  39.253   7.050
 7991POPC   C4A59982  44.642  39.281   7.350
 7991POPC   C1B59983  44.409  39.338   6.450
 7991POPC   C2B59984  44.474  39.317   6.750
 7991POPC   C3B59985  44.443  39.329   7.050
 7991POPC   C4B59986  44.400  39.279   7.350
 7992POPC   NC359987  43.137  34.545   5.550
 7992POPC   PO459988  43.135  34.591   5.850
 7992POPC   GL159989  43.114  34.612   6.150
 7992POPC   GL259990  43.244  34.573   6.150
 7992POPC   C1A59991  43.063  34.552   6.450
 7992POPC   D2A59992  43.063  34.584   6.750
 7992POPC   C3A59993  43.140  34.539   7.050
 7992POPC   C4A59994  43.078  34.587   7.350
 7992POPC   C1B59995  43.396  34.623   6.450
 7992POPC   C2B59996  43.369  34.627   6.750
 7992POPC   C3B59997  43.374  34.615   7.050
 7992POPC   C4B59998  43.352  34.629   7.350
 7993POPC   NC359999  26.843  35.324   5.550
 7993POPC   PO460000  26.838  35.305   5.850
 7993POPC   GL160001  26.803  35.386   6.150
 7993POPC   GL260002  26.692  35.317   6.150
 7993POPC   C1A60003  26.801  35.319   6.450
 7993POPC   D2A60004  26.845  35.382   6.750
 7993POPC   C3A60005  26.833  35.348   7.050
 7993POPC   C4A60006  26.787  35.367   7.350
 7993POPC   C1B60007  26.627  35.195   6.450
 7993POPC   C2B60008  26.623  35.260   6.750
 7993POPC   C3B60009  26.548  35.216   7.050
 7993POPC   C4B60010  26.550  35.236   7.350
 7994POPC   NC360011  19.096   8.216   5.550
 7994POPC   PO460012  19.072   8.215   5.850
 7994POPC   GL160013  19.011   8.205   6.150
 7994POPC   GL260014  18.974   8.141   6.150
 7994POPC   C1A60015  19.043   8.207   6.450
 7994POPC   D2A60016  19.026   8.200   6.750
 7994POPC   C3A60017  19.056   8.204   7.050
 7994POPC   C4A60018  19.010   8.165   7.350
 7994POPC   C1B60019  18.878   8.104   6.450
 7994POPC   C2B60020  18.860   8.106   6.750
 7994POPC   C3B60021  18.864   8.094   7.050
 7994POPC   C4B60022  18.830   8.135   7.350
 7995POPC   NC360023  26.838   5.901   5.550
 7995POPC   PO460024  26.842   5.866   5.850
 7995POPC   GL160025  26.827   5.887   6.150
 7995POPC   GL260026  26.937   5.849   6.150
 7995POPC   C1A60027  26.857   5.829   6.450
 7995POPC   D2A60028  26.794   5.848   6.750
 7995POPC   C3A60029  26.827   5.834   7.050
 7995POPC   C4A60030  26.808   5.831   7.350
 7995POPC   C1B60031  27.032   5.928   6.450
 7995POPC   C2B60032  27.029   5.842   6.750
 7995POPC   C3B60033  27.083   5.925   7.050
 7995POPC   C4B60034  27.029   5.884   7.350
 7996POPC   NC360035  43.920  31.505   5.550
 7996POPC   PO460036  43.934  31.424   5.850
 7996POPC   GL160037  43.864  31.486   6.150
 7996POPC   GL260038  43.906  31.622   6.150
 7996POPC   C1A60039  43.909  31.503   6.450
 7996POPC   D2A60040  43.843  31.515   6.750
 7996POPC   C3A60041  43.847  31.458   7.050
 7996POPC   C4A60042  43.864  31.453   7.350
 7996POPC   C1B60043  43.928  31.679   6.450
 7996POPC   C2B60044  43.982  31.690   6.750
 7996POPC   C3B60045  43.999  31.754   7.050
 7996POPC   C4B60046  43.969  31.742   7.350
 7997POPC   NC360047   1.168  11.332   5.550
 7997POPC   PO460048   1.181  11.338   5.850
 7997POPC   GL160049   1.213  11.335   6.150
 7997POPC   GL260050   1.202  11.201   6.150
 7997POPC   C1A60051   1.188  11.311   6.450
 7997POPC   D2A60052   1.167  11.276   6.750
 7997POPC   C3A60053   1.256  11.271   7.050
 7997POPC   C4A60054   1.178  11.293   7.350
 7997POPC   C1B60055   1.247  11.096   6.450
 7997POPC   C2B60056   1.211  11.010   6.750
 7997POPC   C3B60057   1.170  11.024   7.050
 7997POPC   C4B60058   1.164  11.064   7.350
 7998POPC   NC360059  20.658  43.080   5.550
 7998POPC   PO460060  20.613  43.108   5.850
 7998POPC   GL160061  20.574  43.081   6.150
 7998POPC   GL260062  20.677  42.992   6.150
 7998POPC   C1A60063  20.634  43.140   6.450
 7998POPC   D2A60064  20.639  43.152   6.750
 7998POPC   C3A60065  20.638  43.097   7.050
 7998POPC   C4A60066  20.620  43.091   7.350
 7998POPC   C1B60067  20.710  42.922   6.450
 7998POPC   C2B60068  20.661  42.884   6.750
 7998POPC   C3B60069  20.707  42.835   7.050
 7998POPC   C4B60070  20.741  42.864   7.350
 7999POPC   NC360071  12.826  31.477   5.550
 7999POPC   PO460072  12.881  31.459   5.850
 7999POPC   GL160073  12.824  31.503   6.150
 7999POPC   GL260074  12.929  31.554   6.150
 7999POPC   C1A60075  12.863  31.520   6.450
 7999POPC   D2A60076  12.829  31.457   6.750
 7999POPC   C3A60077  12.803  31.501   7.050
 7999POPC   C4A60078  12.870  31.465   7.350
 7999POPC   C1B60079  12.942  31.743   6.450
 7999POPC   C2B60080  12.959  31.647   6.750
 7999POPC   C3B60081  13.009  31.670   7.050
 7999POPC   C4B60082  12.999  31.696   7.350
 8000POPC   NC360083  17.488  19.854   5.550
 8000POPC   PO460084  17.537  19.825   5.850
 8000POPC   GL160085  17.543  19.833   6.150
 8000POPC   GL260086  17.619  19.726   6.150
 8000POPC   C1A60087  17.490  19.809   6.450
 8000POPC   D2A60088  17.490  19.853   6.750
 8000POPC   C3A60089  17.518  19.829   7.050
 8000POPC   C4A60090  17.504  19.848   7.350
 8000POPC   C1B60091  17.640  19.685   6.450
 8000POPC   C2B60092  17.654  19.624   6.750
 8000POPC   C3B60093  17.630  19.664   7.050
 8000POPC   C4B60094  17.693  19.649   7.350
 8001POPC   NC360095  23.733  35.331   5.550
 8001POPC   PO460096  23.699  35.365   5.850
 8001POPC   GL160097  23.734  35.391   6.150
 8001POPC   GL260098  23.652  35.277   6.150
 8001POPC   C1A60099  23.757  35.389   6.450
 8001POPC   D2A60100  23.707  35.396   6.750
 8001POPC   C3A60101  23.747  35.332   7.050
 8001POPC   C4A60102  23.684  35.339   7.350
 8001POPC   C1B60103  23.587  35.084   6.450
 8001POPC   C2B60104  23.643  35.103   6.750
 8001POPC   C3B60105  23.625  35.090   7.050
 8001POPC   C4B60106  23.576  35.095   7.350
 8002POPC   NC360107  36.102  12.825   5.550
 8002POPC   PO460108  36.132  12.860   5.850
 8002POPC   GL160109  36.085  12.822   6.150
 8002POPC   GL260110  36.182  12.775   6.150
 8002POPC   C1A60111  36.110  12.897   6.450
 8002POPC   D2A60112  36.135  12.807   6.750
 8002POPC   C3A60113  36.098  12.857   7.050
 8002POPC   C4A60114  36.098  12.879   7.350
 8002POPC   C1B60115  36.285  12.643   6.450
 8002POPC   C2B60116  36.297  12.685   6.750
 8002POPC   C3B60117  36.256  12.650   7.050
 8002POPC   C4B60118  36.314  12.646   7.350
 8003POPC   NC360119  15.979   5.073   5.550
 8003POPC   PO460120  15.939   5.130   5.850
 8003POPC   GL160121  16.001   5.064   6.150
 8003POPC   GL260122  15.943   4.946   6.150
 8003POPC   C1A60123  15.967   5.088   6.450
 8003POPC   D2A60124  15.986   5.105   6.750
 8003POPC   C3A60125  15.960   5.093   7.050
 8003POPC   C4A60126  15.990   5.091   7.350
 8003POPC   C1B60127  15.959   4.799   6.450
 8003POPC   C2B60128  15.949   4.818   6.750
 8003POPC   C3B60129  15.997   4.876   7.050
 8003POPC   C4B60130  15.903   4.829   7.350
 8004POPC   NC360131   8.965  15.183   5.550
 8004POPC   PO460132   8.926  15.205   5.850
 8004POPC   GL160133   9.015  15.183   6.150
 8004POPC   GL260134   9.047  15.092   6.150
 8004POPC   C1A60135   8.940  15.149   6.450
 8004POPC   D2A60136   8.968  15.163   6.750
 8004POPC   C3A60137   8.929  15.209   7.050
 8004POPC   C4A60138   8.951  15.171   7.350
 8004POPC   C1B60139   9.034  14.972   6.450
 8004POPC   C2B60140   9.073  14.971   6.750
 8004POPC   C3B60141   9.040  14.901   7.050
 8004POPC   C4B60142   9.063  14.990   7.350
 8005POPC   NC360143  36.081  21.402   5.550
 8005POPC   PO460144  36.158  21.366   5.850
 8005POPC   GL160145  36.149  21.415   6.150
 8005POPC   GL260146  35.980  21.303   6.150
 8005POPC   C1A60147  36.152  21.386   6.450
 8005POPC   D2A60148  36.099  21.410   6.750
 8005POPC   C3A60149  36.117  21.389   7.050
 8005POPC   C4A60150  36.154  21.360   7.350
 8005POPC   C1B60151  35.949  21.292   6.450
 8005POPC   C2B60152  35.933  21.208   6.750
 8005POPC   C3B60153  35.891  21.231   7.050
 8005POPC   C4B60154  35.898  21.262   7.350
 8006POPC   NC360155   7.371  12.886   5.550
 8006POPC   PO460156   7.391  12.859   5.850
 8006POPC   GL160157   7.446  12.861   6.150
 8006POPC   GL260158   7.462  12.759   6.150
 8006POPC   C1A60159   7.459  12.877   6.450
 8006POPC   D2A60160   7.413  12.806   6.750
 8006POPC   C3A60161   7.459  12.867   7.050
 8006POPC   C4A60162   7.414  12.817   7.350
 8006POPC   C1B60163   7.575  12.639   6.450
 8006POPC   C2B60164   7.533  12.599   6.750
 8006POPC   C3B60165   7.518  12.588   7.050
 8006POPC   C4B60166   7.585  12.637   7.350
 8007POPC   NC360167  31.423   1.183   5.550
 8007POPC   PO460168  31.479   1.215   5.850
 8007POPC   GL160169  31.445   1.258   6.150
 8007POPC   GL260170  31.515   1.345   6.150
 8007POPC   C1A60171  31.423   1.199   6.450
 8007POPC   D2A60172  31.485   1.184   6.750
 8007POPC   C3A60173  31.425   1.218   7.050
 8007POPC   C4A60174  31.429   1.233   7.350
 8007POPC   C1B60175  31.667   1.369   6.450
 8007POPC   C2B60176  31.671   1.425   6.750
 8007POPC   C3B60177  31.592   1.451   7.050
 8007POPC   C4B60178  31.649   1.426   7.350
 8008POPC   NC360179  29.157  22.908   5.550
 8008POPC   PO460180  29.143  22.922   5.850
 8008POPC   GL160181  29.165  22.969   6.150
 8008POPC   GL260182  29.237  22.821   6.150
 8008POPC   C1A60183  29.161  22.935   6.450
 8008POPC   D2A60184  29.160  22.908   6.750
 8008POPC   C3A60185  29.132  22.987   7.050
 8008POPC   C4A60186  29.101  22.898   7.350
 8008POPC   C1B60187  29.376  22.750   6.450
 8008POPC   C2B60188  29.345  22.748   6.750
 8008POPC   C3B60189  29.343  22.754   7.050
 8008POPC   C4B60190  29.337  22.791   7.350
 8009POPC   NC360191  28.394  22.157   5.550
 8009POPC   PO460192  28.368  22.169   5.850
 8009POPC   GL160193  28.347  22.177   6.150
 8009POPC   GL260194  28.463  22.046   6.150
 8009POPC   C1A60195  28.350  22.165   6.450
 8009POPC   D2A60196  28.323  22.194   6.750
 8009POPC   C3A60197  28.417  22.161   7.050
 8009POPC   C4A60198  28.346  22.138   7.350
 8009POPC   C1B60199  28.583  22.025   6.450
 8009POPC   C2B60200  28.606  21.994   6.750
 8009POPC   C3B60201  28.577  21.972   7.050
 8009POPC   C4B60202  28.548  22.024   7.350
 8010POPC   NC360203  39.226  24.468   5.550
 8010POPC   PO460204  39.194  24.533   5.850
 8010POPC   GL160205  39.277  24.534   6.150
 8010POPC   GL260206  39.271  24.546   6.150
 8010POPC   C1A60207  39.267  24.504   6.450
 8010POPC   D2A60208  39.280  24.466   6.750
 8010POPC   C3A60209  39.182  24.498   7.050
 8010POPC   C4A60210  39.184  24.487   7.350
 8010POPC   C1B60211  39.411  24.728   6.450
 8010POPC   C2B60212  39.393  24.729   6.750
 8010POPC   C3B60213  39.388  24.717   7.050
 8010POPC   C4B60214  39.328  24.669   7.350
 8011POPC   NC360215  22.956  21.426   5.550
 8011POPC   PO460216  22.935  21.420   5.850
 8011POPC   GL160217  22.899  21.344   6.150
 8011POPC   GL260218  22.782  21.342   6.150
 8011POPC   C1A60219  22.890  21.386   6.450
 8011POPC   D2A60220  22.903  21.374   6.750
 8011POPC   C3A60221  22.964  21.387   7.050
 8011POPC   C4A60222  22.984  21.428   7.350
 8011POPC   C1B60223  22.743  21.266   6.450
 8011POPC   C2B60224  22.686  21.293   6.750
 8011POPC   C3B60225  22.673  21.347   7.050
 8011POPC   C4B60226  22.731  21.331   7.350
 8012POPC   NC360227  27.627   6.599   5.550
 8012POPC   PO460228  27.631   6.605   5.850
 8012POPC   GL160229  27.551   6.656   6.150
 8012POPC   GL260230  27.592   6.814   6.150
 8012POPC   C1A60231  27.591   6.602   6.450
 8012POPC   D2A60232  27.547   6.688   6.750
 8012POPC   C3A60233  27.616   6.615   7.050
 8012POPC   C4A60234  27.561   6.626   7.350
 8012POPC   C1B60235  27.618   6.885   6.450
 8012POPC   C2B60236  27.565   6.939   6.750
 8012POPC   C3B60237  27.585   6.852   7.050
 8012POPC   C4B60238  27.600   6.861   7.350
 8013POPC   NC360239  28.401  23.693   5.550
 8013POPC   PO460240  28.418  23.747   5.850
 8013POPC   GL160241  28.334  23.666   6.150
 8013POPC   GL260242  28.389  23.576   6.150
 8013POPC   C1A60243  28.368  23.674   6.450
 8013POPC   D2A60244  28.409  23.738   6.750
 8013POPC   C3A60245  28.337  23.736   7.050
 8013POPC   C4A60246  28.368  23.677   7.350
 8013POPC   C1B60247  28.303  23.450   6.450
 8013POPC   C2B60248  28.328  23.447   6.750
 8013POPC   C3B60249  28.329  23.462   7.050
 8013POPC   C4B60250  28.361  23.478   7.350
 8014POPC   NC360251  29.115   5.896   5.550
 8014POPC   PO460252  29.126   5.841   5.850
 8014POPC   GL160253  29.095   5.845   6.150
 8014POPC   GL260254  29.035   5.888   6.150
 8014POPC   C1A60255  29.147   5.876   6.450
 8014POPC   D2A60256  29.178   5.845   6.750
 8014POPC   C3A60257  29.097   5.831   7.050
 8014POPC   C4A60258  29.115   5.881   7.350
 8014POPC   C1B60259  28.881   5.952   6.450
 8014POPC   C2B60260  28.883   5.978   6.750
 8014POPC   C3B60261  28.891   5.912   7.050
 8014POPC   C4B60262  28.869   5.942   7.350
 8015POPC   NC360263  16.769  14.386   5.550
 8015POPC   PO460264  16.744  14.453   5.850
 8015POPC   GL160265  16.733  14.443   6.150
 8015POPC   GL260266  16.873  14.328   6.150
 8015POPC   C1A60267  16.743  14.421   6.450
 8015POPC   D2A60268  16.688  14.424   6.750
 8015POPC   C3A60269  16.711  14.438   7.050
 8015POPC   C4A60270  16.746  14.444   7.350
 8015POPC   C1B60271  16.961  14.268   6.450
 8015POPC   C2B60272  16.977  14.275   6.750
 8015POPC   C3B60273  16.930  14.316   7.050
 8015POPC   C4B60274  17.005  14.344   7.350
 8016POPC   NC360275  12.892   5.878   5.550
 8016POPC   PO460276  12.850   5.903   5.850
 8016POPC   GL160277  12.862   5.886   6.150
 8016POPC   GL260278  12.956   5.947   6.150
 8016POPC   C1A60279  12.840   5.909   6.450
 8016POPC   D2A60280  12.828   5.883   6.750
 8016POPC   C3A60281  12.871   5.840   7.050
 8016POPC   C4A60282  12.815   5.876   7.350
 8016POPC   C1B60283  12.978   6.051   6.450
 8016POPC   C2B60284  13.025   6.084   6.750
 8016POPC   C3B60285  12.952   6.035   7.050
 8016POPC   C4B60286  13.032   6.116   7.350
 8017POPC   NC360287  39.249  11.322   5.550
 8017POPC   PO460288  39.222  11.301   5.850
 8017POPC   GL160289  39.193  11.287   6.150
 8017POPC   GL260290  39.265  11.211   6.150
 8017POPC   C1A60291  39.206  11.303   6.450
 8017POPC   D2A60292  39.187  11.252   6.750
 8017POPC   C3A60293  39.210  11.348   7.050
 8017POPC   C4A60294  39.199  11.300   7.350
 8017POPC   C1B60295  39.303  11.017   6.450
 8017POPC   C2B60296  39.297  11.107   6.750
 8017POPC   C3B60297  39.314  11.036   7.050
 8017POPC   C4B60298  39.316  11.022   7.350
 8018POPC   NC360299  18.264   2.738   5.550
 8018POPC   PO460300  18.274   2.814   5.850
 8018POPC   GL160301  18.250   2.725   6.150
 8018POPC   GL260302  18.337   2.603   6.150
 8018POPC   C1A60303  18.319   2.716   6.450
 8018POPC   D2A60304  18.234   2.808   6.750
 8018POPC   C3A60305  18.331   2.763   7.050
 8018POPC   C4A60306  18.243   2.804   7.350
 8018POPC   C1B60307  18.360   2.508   6.450
 8018POPC   C2B60308  18.387   2.555   6.750
 8018POPC   C3B60309  18.317   2.548   7.050
 8018POPC   C4B60310  18.367   2.540   7.350
 8019POPC   NC360311  30.684  29.925   5.550
 8019POPC   PO460312  30.728  29.939   5.850
 8019POPC   GL160313  30.654  29.960   6.150
 8019POPC   GL260314  30.545  29.917   6.150
 8019POPC   C1A60315  30.706  29.939   6.450
 8019POPC   D2A60316  30.696  29.948   6.750
 8019POPC   C3A60317  30.733  29.929   7.050
 8019POPC   C4A60318  30.654  29.969   7.350
 8019POPC   C1B60319  30.458  29.909   6.450
 8019POPC   C2B60320  30.448  29.902   6.750
 8019POPC   C3B60321  30.426  29.858   7.050
 8019POPC   C4B60322  30.471  29.844   7.350
 8020POPC   NC360323  15.953   9.718   5.550
 8020POPC   PO460324  15.918   9.732   5.850
 8020POPC   GL160325  15.961   9.700   6.150
 8020POPC   GL260326  15.837   9.735   6.150
 8020POPC   C1A60327  15.992   9.790   6.450
 8020POPC   D2A60328  15.987   9.782   6.750
 8020POPC   C3A60329  15.953   9.730   7.050
 8020POPC   C4A60330  15.916   9.764   7.350
 8020POPC   C1B60331  15.695   9.642   6.450
 8020POPC   C2B60332  15.735   9.646   6.750
 8020POPC   C3B60333  15.758   9.637   7.050
 8020POPC   C4B60334  15.761   9.680   7.350
 8021POPC   NC360335  15.142  10.541   5.550
 8021POPC   PO460336  15.194  10.486   5.850
 8021POPC   GL160337  15.159  10.558   6.150
 8021POPC   GL260338  15.260  10.670   6.150
 8021POPC   C1A60339  15.191  10.498   6.450
 8021POPC   D2A60340  15.205  10.541   6.750
 8021POPC   C3A60341  15.149  10.525   7.050
 8021POPC   C4A60342  15.144  10.536   7.350
 8021POPC   C1B60343  15.313  10.705   6.450
 8021POPC   C2B60344  15.300  10.719   6.750
 8021POPC   C3B60345  15.313  10.775   7.050
 8021POPC   C4B60346  15.342  10.716   7.350
 8022POPC   NC360347  25.304   9.013   5.550
 8022POPC   PO460348  25.244   9.013   5.850
 8022POPC   GL160349  25.308   8.966   6.150
 8022POPC   GL260350  25.176   9.062   6.150
 8022POPC   C1A60351  25.270   9.004   6.450
 8022POPC   D2A60352  25.286   8.951   6.750
 8022POPC   C3A60353  25.245   9.019   7.050
 8022POPC   C4A60354  25.313   8.925   7.350
 8022POPC   C1B60355  25.112   9.092   6.450
 8022POPC   C2B60356  25.055   9.115   6.750
 8022POPC   C3B60357  25.079   9.090   7.050
 8022POPC   C4B60358  25.110   9.160   7.350
 8023POPC   NC360359  33.043  18.239   5.550
 8023POPC   PO460360  33.024  18.329   5.850
 8023POPC   GL160361  33.044  18.281   6.150
 8023POPC   GL260362  33.108  18.182   6.150
 8023POPC   C1A60363  33.064  18.299   6.450
 8023POPC   D2A60364  33.071  18.235   6.750
 8023POPC   C3A60365  32.996  18.299   7.050
 8023POPC   C4A60366  33.043  18.309   7.350
 8023POPC   C1B60367  33.173  18.089   6.450
 8023POPC   C2B60368  33.162  18.070   6.750
 8023POPC   C3B60369  33.150  18.069   7.050
 8023POPC   C4B60370  33.142  18.046   7.350
 8024POPC   NC360371  38.442   9.748   5.550
 8024POPC   PO460372  38.471   9.722   5.850
 8024POPC   GL160373  38.414   9.706   6.150
 8024POPC   GL260374  38.443   9.876   6.150
 8024POPC   C1A60375  38.469   9.766   6.450
 8024POPC   D2A60376  38.497   9.747   6.750
 8024POPC   C3A60377  38.416   9.770   7.050
 8024POPC   C4A60378  38.445   9.732   7.350
 8024POPC   C1B60379  38.406  10.039   6.450
 8024POPC   C2B60380  38.468   9.972   6.750
 8024POPC   C3B60381  38.401   9.972   7.050
 8024POPC   C4B60382  38.481   9.967   7.350
 8025POPC   NC360383  22.149  23.760   5.550
 8025POPC   PO460384  22.156  23.677   5.850
 8025POPC   GL160385  22.118  23.722   6.150
 8025POPC   GL260386  22.094  23.811   6.150
 8025POPC   C1A60387  22.190  23.719   6.450
 8025POPC   D2A60388  22.114  23.700   6.750
 8025POPC   C3A60389  22.151  23.728   7.050
 8025POPC   C4A60390  22.131  23.760   7.350
 8025POPC   C1B60391  22.011  23.903   6.450
 8025POPC   C2B60392  21.995  23.885   6.750
 8025POPC   C3B60393  22.007  23.849   7.050
 8025POPC   C4B60394  21.977  23.901   7.350
 8026POPC   NC360395  16.745  19.033   5.550
 8026POPC   PO460396  16.723  19.087   5.850
 8026POPC   GL160397  16.752  19.085   6.150
 8026POPC   GL260398  16.883  19.032   6.150
 8026POPC   C1A60399  16.749  19.089   6.450
 8026POPC   D2A60400  16.687  19.046   6.750
 8026POPC   C3A60401  16.684  19.077   7.050
 8026POPC   C4A60402  16.693  19.053   7.350
 8026POPC   C1B60403  16.940  19.134   6.450
 8026POPC   C2B60404  16.977  19.072   6.750
 8026POPC   C3B60405  16.987  19.125   7.050
 8026POPC   C4B60406  16.994  19.099   7.350
 8027POPC   NC360407   8.178  15.169   5.550
 8027POPC   PO460408   8.176  15.140   5.850
 8027POPC   GL160409   8.159  15.157   6.150
 8027POPC   GL260410   8.070  15.313   6.150
 8027POPC   C1A60411   8.175  15.191   6.450
 8027POPC   D2A60412   8.242  15.217   6.750
 8027POPC   C3A60413   8.206  15.192   7.050
 8027POPC   C4A60414   8.205  15.155   7.350
 8027POPC   C1B60415   8.018  15.392   6.450
 8027POPC   C2B60416   7.986  15.341   6.750
 8027POPC   C3B60417   7.996  15.337   7.050
 8027POPC   C4B60418   8.002  15.363   7.350
 8028POPC   NC360419  13.594  19.805   5.550
 8028POPC   PO460420  13.637  19.833   5.850
 8028POPC   GL160421  13.611  19.883   6.150
 8028POPC   GL260422  13.467  19.805   6.150
 8028POPC   C1A60423  13.600  19.804   6.450
 8028POPC   D2A60424  13.654  19.861   6.750
 8028POPC   C3A60425  13.673  19.788   7.050
 8028POPC   C4A60426  13.622  19.824   7.350
 8028POPC   C1B60427  13.415  19.725   6.450
 8028POPC   C2B60428  13.352  19.767   6.750
 8028POPC   C3B60429  13.395  19.716   7.050
 8028POPC   C4B60430  13.398  19.761   7.350
 8029POPC   NC360431  30.717   3.570   5.550
 8029POPC   PO460432  30.719   3.582   5.850
 8029POPC   GL160433  30.735   3.566   6.150
 8029POPC   GL260434  30.592   3.503   6.150
 8029POPC   C1A60435  30.687   3.564   6.450
 8029POPC   D2A60436  30.692   3.535   6.750
 8029POPC   C3A60437  30.651   3.560   7.050
 8029POPC   C4A60438  30.654   3.553   7.350
 8029POPC   C1B60439  30.480   3.467   6.450
 8029POPC   C2B60440  30.500   3.377   6.750
 8029POPC   C3B60441  30.523   3.378   7.050
 8029POPC   C4B60442  30.519   3.466   7.350
 8030POPC   NC360443  11.309  43.078   5.550
 8030POPC   PO460444  11.283  43.103   5.850
 8030POPC   GL160445  11.282  43.075   6.150
 8030POPC   GL260446  11.417  43.230   6.150
 8030POPC   C1A60447  11.283  43.158   6.450
 8030POPC   D2A60448  11.253  43.111   6.750
 8030POPC   C3A60449  11.252  43.092   7.050
 8030POPC   C4A60450  11.334  43.088   7.350
 8030POPC   C1B60451  11.508  43.264   6.450
 8030POPC   C2B60452  11.456  43.280   6.750
 8030POPC   C3B60453  11.479  43.231   7.050
 8030POPC   C4B60454  11.520  43.226   7.350
 8031POPC   NC360455  19.883  15.218   5.550
 8031POPC   PO460456  19.792  15.205   5.850
 8031POPC   GL160457  19.861  15.199   6.150
 8031POPC   GL260458  19.925  15.224   6.150
 8031POPC   C1A60459  19.854  15.204   6.450
 8031POPC   D2A60460  19.864  15.133   6.750
 8031POPC   C3A60461  19.811  15.135   7.050
 8031POPC   C4A60462  19.786  15.201   7.350
 8031POPC   C1B60463  20.045  15.261   6.450
 8031POPC   C2B60464  20.048  15.331   6.750
 8031POPC   C3B60465  20.050  15.280   7.050
 8031POPC   C4B60466  20.098  15.272   7.350
 8032POPC   NC360467   9.766  29.874   5.550
 8032POPC   PO460468   9.753  29.946   5.850
 8032POPC   GL160469   9.713  29.909   6.150
 8032POPC   GL260470   9.661  29.941   6.150
 8032POPC   C1A60471   9.746  29.919   6.450
 8032POPC   D2A60472   9.798  29.899   6.750
 8032POPC   C3A60473   9.764  29.935   7.050
 8032POPC   C4A60474   9.786  29.895   7.350
 8032POPC   C1B60475   9.503  29.943   6.450
 8032POPC   C2B60476   9.515  29.934   6.750
 8032POPC   C3B60477   9.535  29.940   7.050
 8032POPC   C4B60478   9.497  29.917   7.350
 8033POPC   NC360479  35.338  40.759   5.550
 8033POPC   PO460480  35.392  40.765   5.850
 8033POPC   GL160481  35.341  40.751   6.150
 8033POPC   GL260482  35.447  40.827   6.150
 8033POPC   C1A60483  35.354  40.763   6.450
 8033POPC   D2A60484  35.389  40.825   6.750
 8033POPC   C3A60485  35.355  40.770   7.050
 8033POPC   C4A60486  35.356  40.787   7.350
 8033POPC   C1B60487  35.534  40.955   6.450
 8033POPC   C2B60488  35.548  41.006   6.750
 8033POPC   C3B60489  35.510  40.973   7.050
 8033POPC   C4B60490  35.503  40.993   7.350
 8034POPC   NC360491  25.222  17.531   5.550
 8034POPC   PO460492  25.302  17.468   5.850
 8034POPC   GL160493  25.228  17.460   6.150
 8034POPC   GL260494  25.385  17.523   6.150
 8034POPC   C1A60495  25.260  17.488   6.450
 8034POPC   D2A60496  25.261  17.470   6.750
 8034POPC   C3A60497  25.267  17.530   7.050
 8034POPC   C4A60498  25.301  17.556   7.350
 8034POPC   C1B60499  25.480  17.594   6.450
 8034POPC   C2B60500  25.535  17.571   6.750
 8034POPC   C3B60501  25.451  17.557   7.050
 8034POPC   C4B60502  25.509  17.561   7.350
 8035POPC   NC360503  33.847  25.251   5.550
 8035POPC   PO460504  33.796  25.289   5.850
 8035POPC   GL160505  33.826  25.225   6.150
 8035POPC   GL260506  33.779  25.174   6.150
 8035POPC   C1A60507  33.816  25.279   6.450
 8035POPC   D2A60508  33.800  25.230   6.750
 8035POPC   C3A60509  33.789  25.288   7.050
 8035POPC   C4A60510  33.805  25.299   7.350
 8035POPC   C1B60511  33.688  25.084   6.450
 8035POPC   C2B60512  33.683  25.031   6.750
 8035POPC   C3B60513  33.722  25.063   7.050
 8035POPC   C4B60514  33.634  25.051   7.350
 8036POPC   NC360515   5.875   6.668   5.550
 8036POPC   PO460516   5.883   6.691   5.850
 8036POPC   GL160517   5.821   6.627   6.150
 8036POPC   GL260518   5.765   6.673   6.150
 8036POPC   C1A60519   5.878   6.632   6.450
 8036POPC   D2A60520   5.867   6.603   6.750
 8036POPC   C3A60521   5.835   6.625   7.050
 8036POPC   C4A60522   5.838   6.639   7.350
 8036POPC   C1B60523   5.616   6.689   6.450
 8036POPC   C2B60524   5.622   6.695   6.750
 8036POPC   C3B60525   5.628   6.712   7.050
 8036POPC   C4B60526   5.613   6.737   7.350
 8037POPC   NC360527   8.958  39.271   5.550
 8037POPC   PO460528   9.000  39.229   5.850
 8037POPC   GL160529   8.943  39.183   6.150
 8037POPC   GL260530   9.054  39.287   6.150
 8037POPC   C1A60531   8.964  39.219   6.450
 8037POPC   D2A60532   8.942  39.280   6.750
 8037POPC   C3A60533   8.955  39.235   7.050
 8037POPC   C4A60534   9.010  39.263   7.350
 8037POPC   C1B60535   9.230  39.229   6.450
 8037POPC   C2B60536   9.199  39.306   6.750
 8037POPC   C3B60537   9.202  39.309   7.050
 8037POPC   C4B60538   9.187  39.216   7.350
 8038POPC   NC360539  10.560  12.088   5.550
 8038POPC   PO460540  10.485  12.119   5.850
 8038POPC   GL160541  10.509  12.048   6.150
 8038POPC   GL260542  10.395  11.969   6.150
 8038POPC   C1A60543  10.542  12.036   6.450
 8038POPC   D2A60544  10.551  12.039   6.750
 8038POPC   C3A60545  10.479  12.038   7.050
 8038POPC   C4A60546  10.537  12.057   7.350
 8038POPC   C1B60547  10.377  11.895   6.450
 8038POPC   C2B60548  10.364  11.942   6.750
 8038POPC   C3B60549  10.357  11.887   7.050
 8038POPC   C4B60550  10.311  11.855   7.350
 8039POPC   NC360551  33.848  18.282   5.550
 8039POPC   PO460552  33.784  18.285   5.850
 8039POPC   GL160553  33.750  18.290   6.150
 8039POPC   GL260554  33.870  18.373   6.150
 8039POPC   C1A60555  33.788  18.286   6.450
 8039POPC   D2A60556  33.797  18.257   6.750
 8039POPC   C3A60557  33.772  18.323   7.050
 8039POPC   C4A60558  33.790  18.242   7.350
 8039POPC   C1B60559  33.892  18.526   6.450
 8039POPC   C2B60560  33.920  18.546   6.750
 8039POPC   C3B60561  33.840  18.547   7.050
 8039POPC   C4B60562  33.897  18.552   7.350
 8040POPC   NC360563  36.910  39.975   5.550
 8040POPC   PO460564  36.941  39.994   5.850
 8040POPC   GL160565  36.881  40.024   6.150
 8040POPC   GL260566  36.960  40.109   6.150
 8040POPC   C1A60567  36.885  39.958   6.450
 8040POPC   D2A60568  36.919  40.052   6.750
 8040POPC   C3A60569  36.867  40.011   7.050
 8040POPC   C4A60570  36.929  39.982   7.350
 8040POPC   C1B60571  36.988  40.235   6.450
 8040POPC   C2B60572  36.978  40.232   6.750
 8040POPC   C3B60573  36.994  40.261   7.050
 8040POPC   C4B60574  36.960  40.207   7.350
 8041POPC   NC360575  33.023  28.349   5.550
 8041POPC   PO460576  33.008  28.385   5.850
 8041POPC   GL160577  33.030  28.319   6.150
 8041POPC   GL260578  33.156  28.428   6.150
 8041POPC   C1A60579  33.011  28.348   6.450
 8041POPC   D2A60580  33.039  28.379   6.750
 8041POPC   C3A60581  33.047  28.385   7.050
 8041POPC   C4A60582  33.066  28.401   7.350
 8041POPC   C1B60583  33.242  28.369   6.450
 8041POPC   C2B60584  33.303  28.385   6.750
 8041POPC   C3B60585  33.222  28.450   7.050
 8041POPC   C4B60586  33.305  28.445   7.350
 8042POPC   NC360587   1.179  32.988   5.550
 8042POPC   PO460588   1.216  33.037   5.850
 8042POPC   GL160589   1.175  33.024   6.150
 8042POPC   GL260590   1.361  33.019   6.150
 8042POPC   C1A60591   1.184  33.033   6.450
 8042POPC   D2A60592   1.194  33.047   6.750
 8042POPC   C3A60593   1.169  32.983   7.050
 8042POPC   C4A60594   1.201  33.066   7.350
 8042POPC   C1B60595   1.465  33.078   6.450
 8042POPC   C2B60596   1.425  33.063   6.750
 8042POPC   C3B60597   1.481  33.112   7.050
 8042POPC   C4B60598   1.498  33.133   7.350
 8043POPC   NC360599  13.578  20.645   5.550
 8043POPC   PO460600  13.652  20.566   5.850
 8043POPC   GL160601  13.671  20.579   6.150
 8043POPC   GL260602  13.622  20.520   6.150
 8043POPC   C1A60603  13.597  20.657   6.450
 8043POPC   D2A60604  13.579  20.648   6.750
 8043POPC   C3A60605  13.617  20.612   7.050
 8043POPC   C4A60606  13.633  20.579   7.350
 8043POPC   C1B60607  13.712  20.400   6.450
 8043POPC   C2B60608  13.727  20.348   6.750
 8043POPC   C3B60609  13.749  20.351   7.050
 8043POPC   C4B60610  13.679  20.395   7.350
 8044POPC   NC360611   3.563  32.204   5.550
 8044POPC   PO460612   3.573  32.264   5.850
 8044POPC   GL160613   3.567  32.223   6.150
 8044POPC   GL260614   3.670  32.328   6.150
 8044POPC   C1A60615   3.532  32.209   6.450
 8044POPC   D2A60616   3.548  32.219   6.750
 8044POPC   C3A60617   3.554  32.273   7.050
 8044POPC   C4A60618   3.535  32.291   7.350
 8044POPC   C1B60619   3.741  32.372   6.450
 8044POPC   C2B60620   3.804  32.345   6.750
 8044POPC   C3B60621   3.732  32.320   7.050
 8044POPC   C4B60622   3.736  32.331   7.350
 8045POPC   NC360623  32.205   2.750   5.550
 8045POPC   PO460624  32.222   2.761   5.850
 8045POPC   GL160625  32.255   2.753   6.150
 8045POPC   GL260626  32.169   2.745   6.150
 8045POPC   C1A60627  32.288   2.730   6.450
 8045POPC   D2A60628  32.199   2.771   6.750
 8045POPC   C3A60629  32.277   2.739   7.050
 8045POPC   C4A60630  32.234   2.784   7.350
 8045POPC   C1B60631  32.031   2.608   6.450
 8045POPC   C2B60632  32.052   2.690   6.750
 8045POPC   C3B60633  32.049   2.640   7.050
 8045POPC   C4B60634  31.994   2.689   7.350
 8046POPC   NC360635  27.588  15.144   5.550
 8046POPC   PO460636  27.561  15.202   5.850
 8046POPC   GL160637  27.605  15.162   6.150
 8046POPC   GL260638  27.496  15.118   6.150
 8046POPC   C1A60639  27.596  15.145   6.450
 8046POPC   D2A60640  27.567  15.153   6.750
 8046POPC   C3A60641  27.634  15.139   7.050
 8046POPC   C4A60642  27.640  15.213   7.350
 8046POPC   C1B60643  27.388  15.087   6.450
 8046POPC   C2B60644  27.319  15.069   6.750
 8046POPC   C3B60645  27.390  15.081   7.050
 8046POPC   C4B60646  27.388  15.069   7.350
 8047POPC   NC360647  13.634  11.273   5.550
 8047POPC   PO460648  13.662  11.254   5.850
 8047POPC   GL160649  13.605  11.271   6.150
 8047POPC   GL260650  13.468  11.337   6.150
 8047POPC   C1A60651  13.599  11.278   6.450
 8047POPC   D2A60652  13.625  11.261   6.750
 8047POPC   C3A60653  13.654  11.325   7.050
 8047POPC   C4A60654  13.655  11.345   7.350
 8047POPC   C1B60655  13.372  11.449   6.450
 8047POPC   C2B60656  13.411  11.435   6.750
 8047POPC   C3B60657  13.447  11.406   7.050
 8047POPC   C4B60658  13.448  11.398   7.350
 8048POPC   NC360659   8.172  43.861   5.550
 8048POPC   PO460660   8.229  43.881   5.850
 8048POPC   GL160661   8.235  43.853   6.150
 8048POPC   GL260662   8.312  43.954   6.150
 8048POPC   C1A60663   8.154  43.905   6.450
 8048POPC   D2A60664   8.164  43.917   6.750
 8048POPC   C3A60665   8.186  43.910   7.050
 8048POPC   C4A60666   8.230  43.844   7.350
 8048POPC   C1B60667   8.365  44.112   6.450
 8048POPC   C2B60668   8.306  44.035   6.750
 8048POPC   C3B60669   8.398  44.049   7.050
 8048POPC   C4B60670   8.302  44.117   7.350
 8049POPC   NC360671  16.710  33.028   5.550
 8049POPC   PO460672  16.750  33.066   5.850
 8049POPC   GL160673  16.776  32.990   6.150
 8049POPC   GL260674  16.734  32.878   6.150
 8049POPC   C1A60675  16.776  33.037   6.450
 8049POPC   D2A60676  16.706  33.048   6.750
 8049POPC   C3A60677  16.754  33.030   7.050
 8049POPC   C4A60678  16.689  33.058   7.350
 8049POPC   C1B60679  16.855  32.800   6.450
 8049POPC   C2B60680  16.838  32.789   6.750
 8049POPC   C3B60681  16.766  32.788   7.050
 8049POPC   C4B60682  16.817  32.781   7.350
 8050POPC   NC360683  10.529  23.668   5.550
 8050POPC   PO460684  10.494  23.728   5.850
 8050POPC   GL160685  10.535  23.700   6.150
 8050POPC   GL260686  10.649  23.628   6.150
 8050POPC   C1A60687  10.494  23.745   6.450
 8050POPC   D2A60688  10.479  23.709   6.750
 8050POPC   C3A60689  10.480  23.763   7.050
 8050POPC   C4A60690  10.571  23.671   7.350
 8050POPC   C1B60691  10.745  23.560   6.450
 8050POPC   C2B60692  10.753  23.566   6.750
 8050POPC   C3B60693  10.767  23.648   7.050
 8050POPC   C4B60694  10.761  23.645   7.350
 8051POPC   NC360695  24.537  29.189   5.550
 8051POPC   PO460696  24.527  29.103   5.850
 8051POPC   GL160697  24.530  29.149   6.150
 8051POPC   GL260698  24.392  29.114   6.150
 8051POPC   C1A60699  24.482  29.129   6.450
 8051POPC   D2A60700  24.508  29.118   6.750
 8051POPC   C3A60701  24.538  29.105   7.050
 8051POPC   C4A60702  24.452  29.128   7.350
 8051POPC   C1B60703  24.219  29.117   6.450
 8051POPC   C2B60704  24.231  29.080   6.750
 8051POPC   C3B60705  24.224  29.055   7.050
 8051POPC   C4B60706  24.287  29.132   7.350
 8052POPC   NC360707  22.128  11.292   5.550
 8052POPC   PO460708  22.206  11.263   5.850
 8052POPC   GL160709  22.123  11.301   6.150
 8052POPC   GL260710  22.183  11.164   6.150
 8052POPC   C1A60711  22.139  11.334   6.450
 8052POPC   D2A60712  22.173  11.323   6.750
 8052POPC   C3A60713  22.181  11.293   7.050
 8052POPC   C4A60714  22.161  11.253   7.350
 8052POPC   C1B60715  22.308  11.073   6.450
 8052POPC   C2B60716  22.286  11.120   6.750
 8052POPC   C3B60717  22.317  11.111   7.050
 8052POPC   C4B60718  22.290  11.053   7.350
 8053POPC   NC360719  43.092  39.991   5.550
 8053POPC   PO460720  43.133  39.959   5.850
 8053POPC   GL160721  43.071  40.019   6.150
 8053POPC   GL260722  42.987  39.965   6.150
 8053POPC   C1A60723  43.149  40.009   6.450
 8053POPC   D2A60724  43.092  40.016   6.750
 8053POPC   C3A60725  43.130  39.997   7.050
 8053POPC   C4A60726  43.085  40.025   7.350
 8053POPC   C1B60727  42.864  39.909   6.450
 8053POPC   C2B60728  42.905  39.869   6.750
 8053POPC   C3B60729  42.920  39.890   7.050
 8053POPC   C4B60730  42.923  39.855   7.350
 8054POPC   NC360731  25.249   1.211   5.550
 8054POPC   PO460732  25.308   1.188   5.850
 8054POPC   GL160733  25.283   1.172   6.150
 8054POPC   GL260734  25.161   1.291   6.150
 8054POPC   C1A60735  25.291   1.204   6.450
 8054POPC   D2A60736  25.282   1.249   6.750
 8054POPC   C3A60737  25.293   1.209   7.050
 8054POPC   C4A60738  25.285   1.236   7.350
 8054POPC   C1B60739  25.098   1.377   6.450
 8054POPC   C2B60740  25.087   1.374   6.750
 8054POPC   C3B60741  25.006   1.292   7.050
 8054POPC   C4B60742  25.012   1.299   7.350
 8055POPC   NC360743  43.890   2.762   5.550
 8055POPC   PO460744  43.917   2.805   5.850
 8055POPC   GL160745  43.923   2.803   6.150
 8055POPC   GL260746  43.810   2.801   6.150
 8055POPC   C1A60747  43.870   2.730   6.450
 8055POPC   D2A60748  43.918   2.805   6.750
 8055POPC   C3A60749  43.886   2.789   7.050
 8055POPC   C4A60750  43.850   2.731   7.350
 8055POPC   C1B60751  43.619   2.728   6.450
 8055POPC   C2B60752  43.629   2.772   6.750
 8055POPC   C3B60753  43.605   2.741   7.050
 8055POPC   C4B60754  43.652   2.731   7.350
 8056POPC   NC360755  36.887  24.519   5.550
 8056POPC   PO460756  36.866  24.522   5.850
 8056POPC   GL160757  36.863  24.451   6.150
 8056POPC   GL260758  36.820  24.431   6.150
 8056POPC   C1A60759  36.861  24.444   6.450
 8056POPC   D2A60760  36.860  24.515   6.750
 8056POPC   C3A60761  36.886  24.506   7.050
 8056POPC   C4A60762  36.874  24.488   7.350
 8056POPC   C1B60763  36.689  24.377   6.450
 8056POPC   C2B60764  36.668  24.337   6.750
 8056POPC   C3B60765  36.693  24.359   7.050
 8056POPC   C4B60766  36.679  24.374   7.350
 8057POPC   NC360767  20.651  42.307   5.550
 8057POPC   PO460768  20.613  42.365   5.850
 8057POPC   GL160769  20.566  42.327   6.150
 8057POPC   GL260770  20.475  42.250   6.150
 8057POPC   C1A60771  20.587  42.299   6.450
 8057POPC   D2A60772  20.640  42.299   6.750
 8057POPC   C3A60773  20.654  42.334   7.050
 8057POPC   C4A60774  20.596  42.336   7.350
 8057POPC   C1B60775  20.442  42.187   6.450
 8057POPC   C2B60776  20.407  42.237   6.750
 8057POPC   C3B60777  20.440  42.226   7.050
 8057POPC   C4B60778  20.451  42.236   7.350
 8058POPC   NC360779  39.209   3.497   5.550
 8058POPC   PO460780  39.264   3.558   5.850
 8058POPC   GL160781  39.210   3.499   6.150
 8058POPC   GL260782  39.146   3.567   6.150
 8058POPC   C1A60783  39.188   3.591   6.450
 8058POPC   D2A60784  39.196   3.541   6.750
 8058POPC   C3A60785  39.185   3.543   7.050
 8058POPC   C4A60786  39.216   3.541   7.350
 8058POPC   C1B60787  38.987   3.720   6.450
 8058POPC   C2B60788  39.010   3.654   6.750
 8058POPC   C3B60789  39.059   3.706   7.050
 8058POPC   C4B60790  39.016   3.689   7.350
 8059POPC   NC360791   4.268  35.320   5.550
 8059POPC   PO460792   4.288  35.383   5.850
 8059POPC   GL160793   4.300  35.313   6.150
 8059POPC   GL260794   4.332  35.217   6.150
 8059POPC   C1A60795   4.365  35.345   6.450
 8059POPC   D2A60796   4.331  35.390   6.750
 8059POPC   C3A60797   4.282  35.374   7.050
 8059POPC   C4A60798   4.293  35.350   7.350
 8059POPC   C1B60799   4.393  35.065   6.450
 8059POPC   C2B60800   4.408  35.080   6.750
 8059POPC   C3B60801   4.370  35.112   7.050
 8059POPC   C4B60802   4.412  35.083   7.350
 8060POPC   NC360803  13.661  10.494   5.550
 8060POPC   PO460804  13.667  10.509   5.850
 8060POPC   GL160805  13.620  10.545   6.150
 8060POPC   GL260806  13.601  10.620   6.150
 8060POPC   C1A60807  13.606  10.516   6.450
 8060POPC   D2A60808  13.641  10.555   6.750
 8060POPC   C3A60809  13.638  10.560   7.050
 8060POPC   C4A60810  13.598  10.492   7.350
 8060POPC   C1B60811  13.617  10.814   6.450
 8060POPC   C2B60812  13.668  10.798   6.750
 8060POPC   C3B60813  13.623  10.728   7.050
 8060POPC   C4B60814  13.642  10.764   7.350
 8061POPC   NC360815  20.613   1.995   5.550
 8061POPC   PO460816  20.615   1.973   5.850
 8061POPC   GL160817  20.646   2.007   6.150
 8061POPC   GL260818  20.457   2.022   6.150
 8061POPC   C1A60819  20.646   2.009   6.450
 8061POPC   D2A60820  20.582   2.012   6.750
 8061POPC   C3A60821  20.584   1.995   7.050
 8061POPC   C4A60822  20.610   1.972   7.350
 8061POPC   C1B60823  20.362   1.970   6.450
 8061POPC   C2B60824  20.334   1.960   6.750
 8061POPC   C3B60825  20.326   2.009   7.050
 8061POPC   C4B60826  20.367   2.002   7.350
 8062POPC   NC360827  11.256   2.016   5.550
 8062POPC   PO460828  11.253   1.973   5.850
 8062POPC   GL160829  11.311   1.948   6.150
 8062POPC   GL260830  11.305   2.081   6.150
 8062POPC   C1A60831  11.346   2.003   6.450
 8062POPC   D2A60832  11.252   2.020   6.750
 8062POPC   C3A60833  11.304   1.998   7.050
 8062POPC   C4A60834  11.342   1.958   7.350
 8062POPC   C1B60835  11.263   2.210   6.450
 8062POPC   C2B60836  11.282   2.247   6.750
 8062POPC   C3B60837  11.308   2.222   7.050
 8062POPC   C4B60838  11.295   2.241   7.350
 8063POPC   NC360839  34.575   1.984   5.550
 8063POPC   PO460840  34.560   1.987   5.850
 8063POPC   GL160841  34.626   2.038   6.150
 8063POPC   GL260842  34.625   1.847   6.150
 8063POPC   C1A60843  34.572   1.978   6.450
 8063POPC   D2A60844  34.574   1.973   6.750
 8063POPC   C3A60845  34.557   1.987   7.050
 8063POPC   C4A60846  34.549   1.968   7.350
 8063POPC   C1B60847  34.689   1.774   6.450
 8063POPC   C2B60848  34.712   1.770   6.750
 8063POPC   C3B60849  34.694   1.759   7.050
 8063POPC   C4B60850  34.748   1.750   7.350
 8064POPC   NC360851  18.283  12.830   5.550
 8064POPC   PO460852  18.305  12.818   5.850
 8064POPC   GL160853  18.302  12.855   6.150
 8064POPC   GL260854  18.372  12.985   6.150
 8064POPC   C1A60855  18.258  12.849   6.450
 8064POPC   D2A60856  18.297  12.892   6.750
 8064POPC   C3A60857  18.310  12.899   7.050
 8064POPC   C4A60858  18.333  12.873   7.350
 8064POPC   C1B60859  18.405  13.113   6.450
 8064POPC   C2B60860  18.366  13.101   6.750
 8064POPC   C3B60861  18.390  13.075   7.050
 8064POPC   C4B60862  18.425  13.036   7.350
 8065POPC   NC360863  32.290   8.939   5.550
 8065POPC   PO460864  32.256   8.986   5.850
 8065POPC   GL160865  32.235   9.013   6.150
 8065POPC   GL260866  32.140   9.087   6.150
 8065POPC   C1A60867  32.281   8.930   6.450
 8065POPC   D2A60868  32.243   8.977   6.750
 8065POPC   C3A60869  32.216   8.979   7.050
 8065POPC   C4A60870  32.295   8.969   7.350
 8065POPC   C1B60871  32.158   9.222   6.450
 8065POPC   C2B60872  32.136   9.141   6.750
 8065POPC   C3B60873  32.083   9.143   7.050
 8065POPC   C4B60874  32.138   9.171   7.350
 8066POPC   NC360875  34.589  12.101   5.550
 8066POPC   PO460876  34.583  12.112   5.850
 8066POPC   GL160877  34.566  12.071   6.150
 8066POPC   GL260878  34.674  12.141   6.150
 8066POPC   C1A60879  34.583  12.050   6.450
 8066POPC   D2A60880  34.578  12.113   6.750
 8066POPC   C3A60881  34.552  12.066   7.050
 8066POPC   C4A60882  34.533  12.065   7.350
 8066POPC   C1B60883  34.749  12.272   6.450
 8066POPC   C2B60884  34.796  12.238   6.750
 8066POPC   C3B60885  34.777  12.224   7.050
 8066POPC   C4B60886  34.771  12.220   7.350
 8067POPC   NC360887  12.830  39.996   5.550
 8067POPC   PO460888  12.828  39.998   5.850
 8067POPC   GL160889  12.867  40.052   6.150
 8067POPC   GL260890  12.811  39.913   6.150
 8067POPC   C1A60891  12.843  40.000   6.450
 8067POPC   D2A60892  12.810  40.010   6.750
 8067POPC   C3A60893  12.804  39.992   7.050
 8067POPC   C4A60894  12.841  40.028   7.350
 8067POPC   C1B60895  12.714  39.777   6.450
 8067POPC   C2B60896  12.704  39.801   6.750
 8067POPC   C3B60897  12.683  39.868   7.050
 8067POPC   C4B60898  12.731  39.791   7.350
 8068POPC   NC360899   7.450  10.535   5.550
 8068POPC   PO460900   7.458  10.477   5.850
 8068POPC   GL160901   7.401  10.548   6.150
 8068POPC   GL260902   7.567  10.518   6.150
 8068POPC   C1A60903   7.423  10.475   6.450
 8068POPC   D2A60904   7.441  10.532   6.750
 8068POPC   C3A60905   7.430  10.528   7.050
 8068POPC   C4A60906   7.435  10.572   7.350
 8068POPC   C1B60907   7.675  10.551   6.450
 8068POPC   C2B60908   7.700  10.557   6.750
 8068POPC   C3B60909   7.687  10.625   7.050
 8068POPC   C4B60910   7.638  10.562   7.350
 8069POPC   NC360911   0.465  43.877   5.550
 8069POPC   PO460912   0.456  43.899   5.850
 8069POPC   GL160913   0.464  43.912   6.150
 8069POPC   GL260914   0.411  43.743   6.150
 8069POPC   C1A60915   0.468  43.844   6.450
 8069POPC   D2A60916   0.443  43.909   6.750
 8069POPC   C3A60917   0.475  43.873   7.050
 8069POPC   C4A60918   0.444  43.840   7.350
 8069POPC   C1B60919   0.439  43.660   6.450
 8069POPC   C2B60920   0.380  43.688   6.750
 8069POPC   C3B60921   0.407  43.667   7.050
 8069POPC   C4B60922   0.383  43.686   7.350
 8070POPC   NC360923  22.927  16.718   5.550
 8070POPC   PO460924  22.949  16.743   5.850
 8070POPC   GL160925  22.930  16.713   6.150
 8070POPC   GL260926  22.884  16.586   6.150
 8070POPC   C1A60927  22.983  16.764   6.450
 8070POPC   D2A60928  22.955  16.770   6.750
 8070POPC   C3A60929  22.900  16.690   7.050
 8070POPC   C4A60930  22.940  16.761   7.350
 8070POPC   C1B60931  22.880  16.470   6.450
 8070POPC   C2B60932  22.950  16.468   6.750
 8070POPC   C3B60933  22.917  16.495   7.050
 8070POPC   C4B60934  22.956  16.448   7.350
 8071POPC   NC360935  32.296  33.750   5.550
 8071POPC   PO460936  32.254  33.780   5.850
 8071POPC   GL160937  32.235  33.803   6.150
 8071POPC   GL260938  32.386  33.862   6.150
 8071POPC   C1A60939  32.212  33.846   6.450
 8071POPC   D2A60940  32.221  33.781   6.750
 8071POPC   C3A60941  32.268  33.785   7.050
 8071POPC   C4A60942  32.255  33.807   7.350
 8071POPC   C1B60943  32.506  33.866   6.450
 8071POPC   C2B60944  32.448  33.801   6.750
 8071POPC   C3B60945  32.541  33.871   7.050
 8071POPC   C4B60946  32.461  33.852   7.350
 8072POPC   NC360947   8.984  18.287   5.550
 8072POPC   PO460948   8.966  18.316   5.850
 8072POPC   GL160949   8.929  18.285   6.150
 8072POPC   GL260950   9.092  18.265   6.150
 8072POPC   C1A60951   9.005  18.318   6.450
 8072POPC   D2A60952   8.958  18.272   6.750
 8072POPC   C3A60953   8.969  18.277   7.050
 8072POPC   C4A60954   9.017  18.301   7.350
 8072POPC   C1B60955   9.226  18.237   6.450
 8072POPC   C2B60956   9.260  18.245   6.750
 8072POPC   C3B60957   9.197  18.288   7.050
 8072POPC   C4B60958   9.228  18.198   7.350
 8073POPC   NC360959  10.527   4.294   5.550
 8073POPC   PO460960  10.512   4.349   5.850
 8073POPC   GL160961  10.499   4.329   6.150
 8073POPC   GL260962  10.612   4.327   6.150
 8073POPC   C1A60963  10.518   4.357   6.450
 8073POPC   D2A60964  10.490   4.295   6.750
 8073POPC   C3A60965  10.563   4.306   7.050
 8073POPC   C4A60966  10.554   4.346   7.350
 8073POPC   C1B60967  10.734   4.382   6.450
 8073POPC   C2B60968  10.740   4.410   6.750
 8073POPC   C3B60969  10.751   4.387   7.050
 8073POPC   C4B60970  10.775   4.366   7.350
 8074POPC   NC360971  22.185  35.398   5.550
 8074POPC   PO460972  22.204  35.346   5.850
 8074POPC   GL160973  22.125  35.378   6.150
 8074POPC   GL260974  22.198  35.436   6.150
 8074POPC   C1A60975  22.202  35.379   6.450
 8074POPC   D2A60976  22.191  35.370   6.750
 8074POPC   C3A60977  22.188  35.316   7.050
 8074POPC   C4A60978  22.132  35.317   7.350
 8074POPC   C1B60979  22.181  35.555   6.450
 8074POPC   C2B60980  22.266  35.633   6.750
 8074POPC   C3B60981  22.259  35.629   7.050
 8074POPC   C4B60982  22.237  35.610   7.350
 8075POPC   NC360983  29.162  25.264   5.550
 8075POPC   PO460984  29.100  25.227   5.850
 8075POPC   GL160985  29.149  25.294   6.150
 8075POPC   GL260986  29.086  25.347   6.150
 8075POPC   C1A60987  29.147  25.276   6.450
 8075POPC   D2A60988  29.161  25.288   6.750
 8075POPC   C3A60989  29.170  25.287   7.050
 8075POPC   C4A60990  29.182  25.286   7.350
 8075POPC   C1B60991  28.926  25.390   6.450
 8075POPC   C2B60992  28.945  25.414   6.750
 8075POPC   C3B60993  28.945  25.428   7.050
 8075POPC   C4B60994  28.960  25.360   7.350
 8076POPC   NC360995  12.068  20.567   5.550
 8076POPC   PO460996  12.036  20.643   5.850
 8076POPC   GL160997  12.050  20.591   6.150
 8076POPC   GL260998  12.221  20.578   6.150
 8076POPC   C1A60999  12.032  20.580   6.450
 8076POPC   D2A61000  12.094  20.597   6.750
 8076POPC   C3A61001  12.097  20.596   7.050
 8076POPC   C4A61002  12.125  20.568   7.350
 8076POPC   C1B61003  12.344  20.511   6.450
 8076POPC   C2B61004  12.347  20.516   6.750
 8076POPC   C3B61005  12.291  20.500   7.050
 8076POPC   C4B61006  12.319  20.571   7.350
 8077POPC   NC361007  28.366  35.394   5.550
 8077POPC   PO461008  28.352  35.354   5.850
 8077POPC   GL161009  28.335  35.303   6.150
 8077POPC   GL261010  28.215  35.349   6.150
 8077POPC   C1A61011  28.349  35.328   6.450
 8077POPC   D2A61012  28.410  35.354   6.750
 8077POPC   C3A61013  28.416  35.399   7.050
 8077POPC   C4A61014  28.321  35.374   7.350
 8077POPC   C1B61015  28.154  35.303   6.450
 8077POPC   C2B61016  28.091  35.279   6.750
 8077POPC   C3B61017  28.146  35.316   7.050
 8077POPC   C4B61018  28.099  35.288   7.350
 8078POPC   NC361019  39.261  42.353   5.550
 8078POPC   PO461020  39.270  42.311   5.850
 8078POPC   GL161021  39.267  42.378   6.150
 8078POPC   GL261022  39.267  42.171   6.150
 8078POPC   C1A61023  39.230  42.345   6.450
 8078POPC   D2A61024  39.190  42.304   6.750
 8078POPC   C3A61025  39.228  42.334   7.050
 8078POPC   C4A61026  39.230  42.351   7.350
 8078POPC   C1B61027  39.237  42.046   6.450
 8078POPC   C2B61028  39.266  42.118   6.750
 8078POPC   C3B61029  39.311  42.090   7.050
 8078POPC   C4B61030  39.329  42.045   7.350
 8079POPC   NC361031  11.306  19.069   5.550
 8079POPC   PO461032  11.299  19.041   5.850
 8079POPC   GL161033  11.317  19.089   6.150
 8079POPC   GL261034  11.281  18.988   6.150
 8079POPC   C1A61035  11.300  19.083   6.450
 8079POPC   D2A61036  11.288  19.015   6.750
 8079POPC   C3A61037  11.324  19.069   7.050
 8079POPC   C4A61038  11.316  19.026   7.350
 8079POPC   C1B61039  11.140  18.852   6.450
 8079POPC   C2B61040  11.215  18.819   6.750
 8079POPC   C3B61041  11.182  18.852   7.050
 8079POPC   C4B61042  11.153  18.840   7.350
 8080POPC   NC361043   7.396  27.642   5.550
 8080POPC   PO461044   7.437  27.562   5.850
 8080POPC   GL161045   7.382  27.581   6.150
 8080POPC   GL261046   7.567  27.572   6.150
 8080POPC   C1A61047   7.372  27.558   6.450
 8080POPC   D2A61048   7.386  27.622   6.750
 8080POPC   C3A61049   7.448  27.574   7.050
 8080POPC   C4A61050   7.394  27.605   7.350
 8080POPC   C1B61051   7.626  27.655   6.450
 8080POPC   C2B61052   7.697  27.630   6.750
 8080POPC   C3B61053   7.667  27.654   7.050
 8080POPC   C4B61054   7.683  27.635   7.350
 8081POPC   NC361055  35.342  37.719   5.550
 8081POPC   PO461056  35.346  37.699   5.850
 8081POPC   GL161057  35.302  37.707   6.150
 8081POPC   GL261058  35.326  37.760   6.150
 8081POPC   C1A61059  35.353  37.726   6.450
 8081POPC   D2A61060  35.342  37.692   6.750
 8081POPC   C3A61061  35.366  37.677   7.050
 8081POPC   C4A61062  35.390  37.687   7.350
 8081POPC   C1B61063  35.311  37.913   6.450
 8081POPC   C2B61064  35.279  37.885   6.750
 8081POPC   C3B61065  35.268  37.948   7.050
 8081POPC   C4B61066  35.326  37.959   7.350
 8082POPC   NC361067  29.939   8.165   5.550
 8082POPC   PO461068  29.898   8.220   5.850
 8082POPC   GL161069  29.968   8.239   6.150
 8082POPC   GL261070  29.960   8.318   6.150
 8082POPC   C1A61071  29.881   8.243   6.450
 8082POPC   D2A61072  29.871   8.190   6.750
 8082POPC   C3A61073  29.882   8.235   7.050
 8082POPC   C4A61074  29.939   8.192   7.350
 8082POPC   C1B61075  30.024   8.408   6.450
 8082POPC   C2B61076  30.075   8.404   6.750
 8082POPC   C3B61077  30.048   8.438   7.050
 8082POPC   C4B61078  30.086   8.403   7.350
 8083POPC   NC361079  28.354  36.911   5.550
 8083POPC   PO461080  28.382  36.948   5.850
 8083POPC   GL161081  28.320  36.945   6.150
 8083POPC   GL261082  28.293  36.947   6.150
 8083POPC   C1A61083  28.396  36.947   6.450
 8083POPC   D2A61084  28.332  36.906   6.750
 8083POPC   C3A61085  28.325  36.871   7.050
 8083POPC   C4A61086  28.399  36.939   7.350
 8083POPC   C1B61087  28.072  36.905   6.450
 8083POPC   C2B61088  28.073  36.919   6.750
 8083POPC   C3B61089  28.095  36.932   7.050
 8083POPC   C4B61090  28.150  36.877   7.350
 8084POPC   NC361091   1.949  43.930   5.550
 8084POPC   PO461092   1.987  43.934   5.850
 8084POPC   GL161093   1.959  43.932   6.150
 8084POPC   GL261094   1.844  43.932   6.150
 8084POPC   C1A61095   1.950  43.851   6.450
 8084POPC   D2A61096   1.989  43.930   6.750
 8084POPC   C3A61097   2.025  43.837   7.050
 8084POPC   C4A61098   1.966  43.921   7.350
 8084POPC   C1B61099   1.759  43.961   6.450
 8084POPC   C2B61100   1.749  43.969   6.750
 8084POPC   C3B61101   1.733  44.040   7.050
 8084POPC   C4B61102   1.734  43.984   7.350
 8085POPC   NC361103   2.764  27.630   5.550
 8085POPC   PO461104   2.814  27.597   5.850
 8085POPC   GL161105   2.789  27.584   6.150
 8085POPC   GL261106   2.684  27.524   6.150
 8085POPC   C1A61107   2.789  27.547   6.450
 8085POPC   D2A61108   2.808  27.637   6.750
 8085POPC   C3A61109   2.777  27.622   7.050
 8085POPC   C4A61110   2.729  27.556   7.350
 8085POPC   C1B61111   2.643  27.375   6.450
 8085POPC   C2B61112   2.660  27.360   6.750
 8085POPC   C3B61113   2.623  27.378   7.050
 8085POPC   C4B61114   2.596  27.341   7.350
 8086POPC   NC361115  30.703  40.010   5.550
 8086POPC   PO461116  30.672  40.032   5.850
 8086POPC   GL161117  30.727  40.014   6.150
 8086POPC   GL261118  30.683  40.115   6.150
 8086POPC   C1A61119  30.686  40.027   6.450
 8086POPC   D2A61120  30.708  40.021   6.750
 8086POPC   C3A61121  30.677  39.958   7.050
 8086POPC   C4A61122  30.709  40.037   7.350
 8086POPC   C1B61123  30.737  40.233   6.450
 8086POPC   C2B61124  30.715  40.301   6.750
 8086POPC   C3B61125  30.668  40.215   7.050
 8086POPC   C4B61126  30.647  40.213   7.350
 8087POPC   NC361127  26.785  39.195   5.550
 8087POPC   PO461128  26.819  39.198   5.850
 8087POPC   GL161129  26.845  39.229   6.150
 8087POPC   GL261130  26.681  39.152   6.150
 8087POPC   C1A61131  26.826  39.256   6.450
 8087POPC   D2A61132  26.847  39.216   6.750
 8087POPC   C3A61133  26.783  39.220   7.050
 8087POPC   C4A61134  26.855  39.228   7.350
 8087POPC   C1B61135  26.605  39.043   6.450
 8087POPC   C2B61136  26.624  39.044   6.750
 8087POPC   C3B61137  26.674  39.026   7.050
 8087POPC   C4B61138  26.661  39.076   7.350
 8088POPC   NC361139  32.996   0.471   5.550
 8088POPC   PO461140  33.031   0.426   5.850
 8088POPC   GL161141  33.025   0.449   6.150
 8088POPC   GL261142  32.896   0.428   6.150
 8088POPC   C1A61143  33.018   0.408   6.450
 8088POPC   D2A61144  33.049   0.481   6.750
 8088POPC   C3A61145  33.054   0.411   7.050
 8088POPC   C4A61146  33.045   0.408   7.350
 8088POPC   C1B61147  32.798   0.376   6.450
 8088POPC   C2B61148  32.761   0.323   6.750
 8088POPC   C3B61149  32.833   0.318   7.050
 8088POPC   C4B61150  32.745   0.361   7.350
 8089POPC   NC361151  22.205  38.459   5.550
 8089POPC   PO461152  22.125  38.479   5.850
 8089POPC   GL161153  22.176  38.498   6.150
 8089POPC   GL261154  22.163  38.338   6.150
 8089POPC   C1A61155  22.149  38.465   6.450
 8089POPC   D2A61156  22.175  38.406   6.750
 8089POPC   C3A61157  22.134  38.488   7.050
 8089POPC   C4A61158  22.161  38.488   7.350
 8089POPC   C1B61159  22.131  38.193   6.450
 8089POPC   C2B61160  22.149  38.159   6.750
 8089POPC   C3B61161  22.125  38.186   7.050
 8089POPC   C4B61162  22.159  38.198   7.350
 8090POPC   NC361163  22.962  10.518   5.550
 8090POPC   PO461164  22.927  10.571   5.850
 8090POPC   GL161165  22.924  10.559   6.150
 8090POPC   GL261166  23.041  10.623   6.150
 8090POPC   C1A61167  22.915  10.513   6.450
 8090POPC   D2A61168  22.958  10.487   6.750
 8090POPC   C3A61169  22.956  10.570   7.050
 8090POPC   C4A61170  22.918  10.567   7.350
 8090POPC   C1B61171  23.126  10.663   6.450
 8090POPC   C2B61172  23.112  10.691   6.750
 8090POPC   C3B61173  23.073  10.676   7.050
 8090POPC   C4B61174  23.134  10.676   7.350
 8091POPC   NC361175  21.365  26.031   5.550
 8091POPC   PO461176  21.433  25.992   5.850
 8091POPC   GL161177  21.381  26.008   6.150
 8091POPC   GL261178  21.277  25.960   6.150
 8091POPC   C1A61179  21.345  26.022   6.450
 8091POPC   D2A61180  21.418  26.079   6.750
 8091POPC   C3A61181  21.410  26.061   7.050
 8091POPC   C4A61182  21.371  26.043   7.350
 8091POPC   C1B61183  21.279  25.846   6.450
 8091POPC   C2B61184  21.243  25.832   6.750
 8091POPC   C3B61185  21.244  25.820   7.050
 8091POPC   C4B61186  21.257  25.828   7.350
 8092POPC   NC361187   9.769  26.856   5.550
 8092POPC   PO461188   9.702  26.823   5.850
 8092POPC   GL161189   9.739  26.780   6.150
 8092POPC   GL261190   9.623  26.953   6.150
 8092POPC   C1A61191   9.761  26.770   6.450
 8092POPC   D2A61192   9.764  26.844   6.750
 8092POPC   C3A61193   9.764  26.793   7.050
 8092POPC   C4A61194   9.735  26.786   7.350
 8092POPC   C1B61195   9.572  26.977   6.450
 8092POPC   C2B61196   9.622  26.958   6.750
 8092POPC   C3B61197   9.623  26.993   7.050
 8092POPC   C4B61198   9.566  26.984   7.350
 8093POPC   NC361199   4.288   1.166   5.550
 8093POPC   PO461200   4.350   1.196   5.850
 8093POPC   GL161201   4.360   1.188   6.150
 8093POPC   GL261202   4.215   1.357   6.150
 8093POPC   C1A61203   4.293   1.235   6.450
 8093POPC   D2A61204   4.306   1.187   6.750
 8093POPC   C3A61205   4.331   1.175   7.050
 8093POPC   C4A61206   4.280   1.240   7.350
 8093POPC   C1B61207   4.194   1.467   6.450
 8093POPC   C2B61208   4.180   1.460   6.750
 8093POPC   C3B61209   4.182   1.386   7.050
 8093POPC   C4B61210   4.202   1.436   7.350
 8094POPC   NC361211   8.956  29.149   5.550
 8094POPC   PO461212   8.977  29.181   5.850
 8094POPC   GL161213   8.996  29.194   6.150
 8094POPC   GL261214   8.892  29.157   6.150
 8094POPC   C1A61215   8.927  29.177   6.450
 8094POPC   D2A61216   8.952  29.166   6.750
 8094POPC   C3A61217   8.929  29.168   7.050
 8094POPC   C4A61218   8.942  29.151   7.350
 8094POPC   C1B61219   8.753  29.123   6.450
 8094POPC   C2B61220   8.712  29.105   6.750
 8094POPC   C3B61221   8.757  29.157   7.050
 8094POPC   C4B61222   8.736  29.156   7.350
 8095POPC   NC361223  34.601   5.912   5.550
 8095POPC   PO461224  34.545   5.919   5.850
 8095POPC   GL161225  34.532   5.898   6.150
 8095POPC   GL261226  34.537   5.954   6.150
 8095POPC   C1A61227  34.579   5.912   6.450
 8095POPC   D2A61228  34.570   5.844   6.750
 8095POPC   C3A61229  34.527   5.840   7.050
 8095POPC   C4A61230  34.625   5.830   7.350
 8095POPC   C1B61231  34.628   6.159   6.450
 8095POPC   C2B61232  34.603   6.101   6.750
 8095POPC   C3B61233  34.552   6.153   7.050
 8095POPC   C4B61234  34.633   6.124   7.350
 8096POPC   NC361235  33.803  37.723   5.550
 8096POPC   PO461236  33.825  37.635   5.850
 8096POPC   GL161237  33.791  37.680   6.150
 8096POPC   GL261238  33.769  37.608   6.150
 8096POPC   C1A61239  33.800  37.638   6.450
 8096POPC   D2A61240  33.750  37.647   6.750
 8096POPC   C3A61241  33.823  37.700   7.050
 8096POPC   C4A61242  33.841  37.712   7.350
 8096POPC   C1B61243  33.698  37.481   6.450
 8096POPC   C2B61244  33.625  37.481   6.750
 8096POPC   C3B61245  33.637  37.453   7.050
 8096POPC   C4B61246  33.644  37.498   7.350
 8097POPC   NC361247  16.682  20.647   5.550
 8097POPC   PO461248  16.696  20.598   5.850
 8097POPC   GL161249  16.722  20.630   6.150
 8097POPC   GL261250  16.773  20.680   6.150
 8097POPC   C1A61251  16.689  20.578   6.450
 8097POPC   D2A61252  16.689  20.659   6.750
 8097POPC   C3A61253  16.770  20.636   7.050
 8097POPC   C4A61254  16.733  20.646   7.350
 8097POPC   C1B61255  16.844  20.822   6.450
 8097POPC   C2B61256  16.834  20.796   6.750
 8097POPC   C3B61257  16.869  20.855   7.050
 8097POPC   C4B61258  16.849  20.826   7.350
 8098POPC   NC361259  43.847  23.668   5.550
 8098POPC   PO461260  43.851  23.762   5.850
 8098POPC   GL161261  43.857  23.729   6.150
 8098POPC   GL261262  43.808  23.707   6.150
 8098POPC   C1A61263  43.840  23.736   6.450
 8098POPC   D2A61264  43.877  23.762   6.750
 8098POPC   C3A61265  43.918  23.699   7.050
 8098POPC   C4A61266  43.909  23.705   7.350
 8098POPC   C1B61267  43.695  23.613   6.450
 8098POPC   C2B61268  43.643  23.664   6.750
 8098POPC   C3B61269  43.630  23.589   7.050
 8098POPC   C4B61270  43.605  23.643   7.350
 8099POPC   NC361271  17.519   5.835   5.550
 8099POPC   PO461272  17.486   5.915   5.850
 8099POPC   GL161273  17.497   5.829   6.150
 8099POPC   GL261274  17.342   5.838   6.150
 8099POPC   C1A61275  17.499   5.882   6.450
 8099POPC   D2A61276  17.474   5.854   6.750
 8099POPC   C3A61277  17.494   5.859   7.050
 8099POPC   C4A61278  17.483   5.862   7.350
 8099POPC   C1B61279  17.270   5.874   6.450
 8099POPC   C2B61280  17.270   5.899   6.750
 8099POPC   C3B61281  17.243   5.898   7.050
 8099POPC   C4B61282  17.214   5.873   7.350
 8100POPC   NC361283  19.864  36.953   5.550
 8100POPC   PO461284  19.792  36.945   5.850
 8100POPC   GL161285  19.870  36.855   6.150
 8100POPC   GL261286  19.680  36.858   6.150
 8100POPC   C1A61287  19.873  36.896   6.450
 8100POPC   D2A61288  19.878  36.906   6.750
 8100POPC   C3A61289  19.832  36.928   7.050
 8100POPC   C4A61290  19.800  36.910   7.350
 8100POPC   C1B61291  19.603  36.781   6.450
 8100POPC   C2B61292  19.594  36.736   6.750
 8100POPC   C3B61293  19.656  36.803   7.050
 8100POPC   C4B61294  19.576  36.754   7.350
 8101POPC   NC361295  28.380  15.204   5.550
 8101POPC   PO461296  28.331  15.229   5.850
 8101POPC   GL161297  28.359  15.176   6.150
 8101POPC   GL261298  28.309  15.224   6.150
 8101POPC   C1A61299  28.348  15.136   6.450
 8101POPC   D2A61300  28.363  15.182   6.750
 8101POPC   C3A61301  28.364  15.132   7.050
 8101POPC   C4A61302  28.398  15.131   7.350
 8101POPC   C1B61303  28.156  15.320   6.450
 8101POPC   C2B61304  28.173  15.353   6.750
 8101POPC   C3B61305  28.175  15.335   7.050
 8101POPC   C4B61306  28.192  15.406   7.350
 8102POPC   NC361307  15.975   6.649   5.550
 8102POPC   PO461308  15.983   6.599   5.850
 8102POPC   GL161309  15.939   6.606   6.150
 8102POPC   GL261310  16.129   6.617   6.150
 8102POPC   C1A61311  15.995   6.621   6.450
 8102POPC   D2A61312  15.907   6.675   6.750
 8102POPC   C3A61313  15.985   6.638   7.050
 8102POPC   C4A61314  15.927   6.634   7.350
 8102POPC   C1B61315  16.217   6.682   6.450
 8102POPC   C2B61316  16.223   6.659   6.750
 8102POPC   C3B61317  16.188   6.650   7.050
 8102POPC   C4B61318  16.201   6.609   7.350
 8103POPC   NC361319  40.779  12.056   5.550
 8103POPC   PO461320  40.789  12.090   5.850
 8103POPC   GL161321  40.760  12.081   6.150
 8103POPC   GL261322  40.625  12.046   6.150
 8103POPC   C1A61323  40.804  12.074   6.450
 8103POPC   D2A61324  40.793  12.046   6.750
 8103POPC   C3A61325  40.824  12.095   7.050
 8103POPC   C4A61326  40.829  12.077   7.350
 8103POPC   C1B61327  40.497  12.040   6.450
 8103POPC   C2B61328  40.544  12.118   6.750
 8103POPC   C3B61329  40.515  12.099   7.050
 8103POPC   C4B61330  40.569  12.020   7.350
 8104POPC   NC361331   8.963   6.665   5.550
 8104POPC   PO461332   9.020   6.693   5.850
 8104POPC   GL161333   8.936   6.637   6.150
 8104POPC   GL261334   8.895   6.738   6.150
 8104POPC   C1A61335   8.966   6.678   6.450
 8104POPC   D2A61336   8.928   6.609   6.750
 8104POPC   C3A61337   8.982   6.660   7.050
 8104POPC   C4A61338   8.929   6.622   7.350
 8104POPC   C1B61339   8.754   6.840   6.450
 8104POPC   C2B61340   8.779   6.792   6.750
 8104POPC   C3B61341   8.844   6.870   7.050
 8104POPC   C4B61342   8.791   6.802   7.350
 8105POPC   NC361343  38.470  37.674   5.550
 8105POPC   PO461344  38.452  37.703   5.850
 8105POPC   GL161345  38.461  37.665   6.150
 8105POPC   GL261346  38.303  37.622   6.150
 8105POPC   C1A61347  38.457  37.681   6.450
 8105POPC   D2A61348  38.475  37.676   6.750
 8105POPC   C3A61349  38.486  37.689   7.050
 8105POPC   C4A61350  38.460  37.630   7.350
 8105POPC   C1B61351  38.240  37.563   6.450
 8105POPC   C2B61352  38.223  37.569   6.750
 8105POPC   C3B61353  38.193  37.503   7.050
 8105POPC   C4B61354  38.292  37.508   7.350
 8106POPC   NC361355  34.624  21.389   5.550
 8106POPC   PO461356  34.576  21.409   5.850
 8106POPC   GL161357  34.540  21.377   6.150
 8106POPC   GL261358  34.585  21.537   6.150
 8106POPC   C1A61359  34.568  21.389   6.450
 8106POPC   D2A61360  34.548  21.379   6.750
 8106POPC   C3A61361  34.589  21.381   7.050
 8106POPC   C4A61362  34.591  21.400   7.350
 8106POPC   C1B61363  34.513  21.629   6.450
 8106POPC   C2B61364  34.538  21.633   6.750
 8106POPC   C3B61365  34.544  21.651   7.050
 8106POPC   C4B61366  34.568  21.617   7.350
 8107POPC   NC361367  15.159   2.029   5.550
 8107POPC   PO461368  15.140   1.984   5.850
 8107POPC   GL161369  15.186   1.961   6.150
 8107POPC   GL261370  15.273   2.036   6.150
 8107POPC   C1A61371  15.171   1.999   6.450
 8107POPC   D2A61372  15.213   2.008   6.750
 8107POPC   C3A61373  15.217   2.038   7.050
 8107POPC   C4A61374  15.217   1.989   7.350
 8107POPC   C1B61375  15.376   2.151   6.450
 8107POPC   C2B61376  15.316   2.221   6.750
 8107POPC   C3B61377  15.394   2.192   7.050
 8107POPC   C4B61378  15.343   2.181   7.350
 8108POPC   NC361379  12.872  24.483   5.550
 8108POPC   PO461380  12.896  24.499   5.850
 8108POPC   GL161381  12.817  24.520   6.150
 8108POPC   GL261382  12.863  24.556   6.150
 8108POPC   C1A61383  12.859  24.493   6.450
 8108POPC   D2A61384  12.873  24.531   6.750
 8108POPC   C3A61385  12.803  24.526   7.050
 8108POPC   C4A61386  12.820  24.455   7.350
 8108POPC   C1B61387  12.934  24.677   6.450
 8108POPC   C2B61388  12.932  24.751   6.750
 8108POPC   C3B61389  12.968  24.686   7.050
 8108POPC   C4B61390  12.938  24.670   7.350
 8109POPC   NC361391  36.875   4.292   5.550
 8109POPC   PO461392  36.894   4.307   5.850
 8109POPC   GL161393  36.945   4.304   6.150
 8109POPC   GL261394  36.757   4.349   6.150
 8109POPC   C1A61395  36.876   4.326   6.450
 8109POPC   D2A61396  36.949   4.273   6.750
 8109POPC   C3A61397  36.912   4.357   7.050
 8109POPC   C4A61398  36.941   4.279   7.350
 8109POPC   C1B61399  36.678   4.446   6.450
 8109POPC   C2B61400  36.658   4.466   6.750
 8109POPC   C3B61401  36.754   4.486   7.050
 8109POPC   C4B61402  36.711   4.449   7.350
 8110POPC   NC361403  14.372  44.682   5.550
 8110POPC   PO461404  14.405  44.640   5.850
 8110POPC   GL161405  14.425  44.618   6.150
 8110POPC   GL261406  14.259  44.699   6.150
 8110POPC   C1A61407  14.384  44.671   6.450
 8110POPC   D2A61408  14.367  44.667   6.750
 8110POPC   C3A61409  14.414  44.680   7.050
 8110POPC   C4A61410  14.435  44.642   7.350
 8110POPC   C1B61411  14.183  44.803   6.450
 8110POPC   C2B61412  14.221  44.846   6.750
 8110POPC   C3B61413  14.219  44.837   7.050
 8110POPC   C4B61414  14.235  44.851   7.350
 8111POPC   NC361415  17.540  34.533   5.550
 8111POPC   PO461416  17.491  34.624   5.850
 8111POPC   GL161417  17.544  34.609   6.150
 8111POPC   GL261418  17.488  34.460   6.150
 8111POPC   C1A61419  17.484  34.600   6.450
 8111POPC   D2A61420  17.476  34.561   6.750
 8111POPC   C3A61421  17.546  34.598   7.050
 8111POPC   C4A61422  17.548  34.618   7.350
 8111POPC   C1B61423  17.463  34.320   6.450
 8111POPC   C2B61424  17.493  34.378   6.750
 8111POPC   C3B61425  17.468  34.365   7.050
 8111POPC   C4B61426  17.462  34.353   7.350
 8112POPC   NC361427   2.013  19.019   5.550
 8112POPC   PO461428   2.001  19.093   5.850
 8112POPC   GL161429   2.008  19.018   6.150
 8112POPC   GL261430   2.007  19.160   6.150
 8112POPC   C1A61431   1.941  19.030   6.450
 8112POPC   D2A61432   2.001  19.081   6.750
 8112POPC   C3A61433   1.980  19.057   7.050
 8112POPC   C4A61434   1.944  19.079   7.350
 8112POPC   C1B61435   1.983  19.272   6.450
 8112POPC   C2B61436   1.951  19.286   6.750
 8112POPC   C3B61437   1.955  19.266   7.050
 8112POPC   C4B61438   1.991  19.315   7.350
 8113POPC   NC361439  26.823  38.460   5.550
 8113POPC   PO461440  26.862  38.472   5.850
 8113POPC   GL161441  26.768  38.495   6.150
 8113POPC   GL261442  26.725  38.440   6.150
 8113POPC   C1A61443  26.781  38.413   6.450
 8113POPC   D2A61444  26.804  38.493   6.750
 8113POPC   C3A61445  26.833  38.454   7.050
 8113POPC   C4A61446  26.848  38.471   7.350
 8113POPC   C1B61447  26.575  38.431   6.450
 8113POPC   C2B61448  26.545  38.439   6.750
 8113POPC   C3B61449  26.595  38.461   7.050
 8113POPC   C4B61450  26.550  38.412   7.350
 8114POPC   NC361451  41.514  12.834   5.550
 8114POPC   PO461452  41.573  12.876   5.850
 8114POPC   GL161453  41.549  12.818   6.150
 8114POPC   GL261454  41.629  12.957   6.150
 8114POPC   C1A61455  41.585  12.859   6.450
 8114POPC   D2A61456  41.525  12.821   6.750
 8114POPC   C3A61457  41.542  12.828   7.050
 8114POPC   C4A61458  41.565  12.808   7.350
 8114POPC   C1B61459  41.791  12.980   6.450
 8114POPC   C2B61460  41.738  13.025   6.750
 8114POPC   C3B61461  41.798  12.958   7.050
 8114POPC   C4B61462  41.781  13.020   7.350
 8115POPC   NC361463  18.324   8.974   5.550
 8115POPC   PO461464  18.332   8.982   5.850
 8115POPC   GL161465  18.323   8.988   6.150
 8115POPC   GL261466  18.301   9.121   6.150
 8115POPC   C1A61467  18.288   8.943   6.450
 8115POPC   D2A61468  18.269   8.942   6.750
 8115POPC   C3A61469  18.275   9.021   7.050
 8115POPC   C4A61470  18.313   8.956   7.350
 8115POPC   C1B61471  18.277   9.267   6.450
 8115POPC   C2B61472  18.356   9.248   6.750
 8115POPC   C3B61473  18.351   9.183   7.050
 8115POPC   C4B61474  18.323   9.200   7.350
 8116POPC   NC361475  18.274  11.340   5.550
 8116POPC   PO461476  18.265  11.289   5.850
 8116POPC   GL161477  18.323  11.342   6.150
 8116POPC   GL261478  18.166  11.275   6.150
 8116POPC   C1A61479  18.331  11.290   6.450
 8116POPC   D2A61480  18.251  11.268   6.750
 8116POPC   C3A61481  18.274  11.262   7.050
 8116POPC   C4A61482  18.314  11.332   7.350
 8116POPC   C1B61483  18.039  11.227   6.450
 8116POPC   C2B61484  18.010  11.199   6.750
 8116POPC   C3B61485  18.010  11.278   7.050
 8116POPC   C4B61486  18.026  11.275   7.350
 8117POPC   NC361487   8.192  30.729   5.550
 8117POPC   PO461488   8.175  30.738   5.850
 8117POPC   GL161489   8.199  30.675   6.150
 8117POPC   GL261490   8.325  30.777   6.150
 8117POPC   C1A61491   8.242  30.746   6.450
 8117POPC   D2A61492   8.240  30.692   6.750
 8117POPC   C3A61493   8.196  30.676   7.050
 8117POPC   C4A61494   8.207  30.714   7.350
 8117POPC   C1B61495   8.404  30.821   6.450
 8117POPC   C2B61496   8.384  30.866   6.750
 8117POPC   C3B61497   8.367  30.785   7.050
 8117POPC   C4B61498   8.447  30.852   7.350
 8118POPC   NC361499   2.792   0.456   5.550
 8118POPC   PO461500   2.781   0.413   5.850
 8118POPC   GL161501   2.725   0.437   6.150
 8118POPC   GL261502   2.732   0.339   6.150
 8118POPC   C1A61503   2.746   0.437   6.450
 8118POPC   D2A61504   2.721   0.453   6.750
 8118POPC   C3A61505   2.790   0.433   7.050
 8118POPC   C4A61506   2.757   0.427   7.350
 8118POPC   C1B61507   2.719   0.229   6.450
 8118POPC   C2B61508   2.627   0.254   6.750
 8118POPC   C3B61509   2.676   0.202   7.050
 8118POPC   C4B61510   2.655   0.219   7.350
 8119POPC   NC361511  13.609  43.880   5.550
 8119POPC   PO461512  13.584  43.909   5.850
 8119POPC   GL161513  13.621  43.842   6.150
 8119POPC   GL261514  13.625  43.807   6.150
 8119POPC   C1A61515  13.612  43.891   6.450
 8119POPC   D2A61516  13.651  43.918   6.750
 8119POPC   C3A61517  13.631  43.839   7.050
 8119POPC   C4A61518  13.615  43.859   7.350
 8119POPC   C1B61519  13.526  43.617   6.450
 8119POPC   C2B61520  13.542  43.614   6.750
 8119POPC   C3B61521  13.504  43.630   7.050
 8119POPC   C4B61522  13.528  43.635   7.350
 8120POPC   NC361523  16.712   0.480   5.550
 8120POPC   PO461524  16.722   0.466   5.850
 8120POPC   GL161525  16.687   0.427   6.150
 8120POPC   GL261526  16.831   0.442   6.150
 8120POPC   C1A61527  16.741   0.445   6.450
 8120POPC   D2A61528  16.716   0.431   6.750
 8120POPC   C3A61529  16.706   0.409   7.050
 8120POPC   C4A61530  16.746   0.476   7.350
 8120POPC   C1B61531  16.984   0.510   6.450
 8120POPC   C2B61532  17.007   0.586   6.750
 8120POPC   C3B61533  16.957   0.547   7.050
 8120POPC   C4B61534  16.970   0.529   7.350
 8121POPC   NC361535   5.839  11.345   5.550
 8121POPC   PO461536   5.912  11.324   5.850
 8121POPC   GL161537   5.819  11.293   6.150
 8121POPC   GL261538   5.722  11.335   6.150
 8121POPC   C1A61539   5.843  11.271   6.450
 8121POPC   D2A61540   5.873  11.267   6.750
 8121POPC   C3A61541   5.850  11.323   7.050
 8121POPC   C4A61542   5.855  11.283   7.350
 8121POPC   C1B61543   5.631  11.416   6.450
 8121POPC   C2B61544   5.640  11.441   6.750
 8121POPC   C3B61545   5.593  11.410   7.050
 8121POPC   C4B61546   5.592  11.395   7.350
 8122POPC   NC361547  27.627   1.251   5.550
 8122POPC   PO461548  27.552   1.237   5.850
 8122POPC   GL161549  27.577   1.203   6.150
 8122POPC   GL261550  27.560   1.046   6.150
 8122POPC   C1A61551  27.571   1.249   6.450
 8122POPC   D2A61552  27.579   1.254   6.750
 8122POPC   C3A61553  27.588   1.191   7.050
 8122POPC   C4A61554  27.627   1.177   7.350
 8122POPC   C1B61555  27.624   1.005   6.450
 8122POPC   C2B61556  27.636   1.004   6.750
 8122POPC   C3B61557  27.570   0.923   7.050
 8122POPC   C4B61558  27.548   0.986   7.350
 8123POPC   NC361559  41.534  15.937   5.550
 8123POPC   PO461560  41.571  15.930   5.850
 8123POPC   GL161561  41.575  15.992   6.150
 8123POPC   GL261562  41.638  15.792   6.150
 8123POPC   C1A61563  41.526  15.983   6.450
 8123POPC   D2A61564  41.570  15.907   6.750
 8123POPC   C3A61565  41.542  15.942   7.050
 8123POPC   C4A61566  41.558  15.946   7.350
 8123POPC   C1B61567  41.697  15.708   6.450
 8123POPC   C2B61568  41.626  15.745   6.750
 8123POPC   C3B61569  41.625  15.759   7.050
 8123POPC   C4B61570  41.618  15.738   7.350
 8124POPC   NC361571  43.910   0.404   5.550
 8124POPC   PO461572  43.842   0.469   5.850
 8124POPC   GL161573  43.917   0.483   6.150
 8124POPC   GL261574  43.925   0.525   6.150
 8124POPC   C1A61575  43.850   0.399   6.450
 8124POPC   D2A61576  43.871   0.416   6.750
 8124POPC   C3A61577  43.933   0.446   7.050
 8124POPC   C4A61578  43.864   0.476   7.350
 8124POPC   C1B61579  44.043   0.709   6.450
 8124POPC   C2B61580  43.953   0.628   6.750
 8124POPC   C3B61581  43.976   0.631   7.050
 8124POPC   C4B61582  44.008   0.710   7.350
 8125POPC   NC361583  21.364   1.973   5.550
 8125POPC   PO461584  21.435   2.002   5.850
 8125POPC   GL161585  21.349   1.974   6.150
 8125POPC   GL261586  21.318   2.072   6.150
 8125POPC   C1A61587  21.376   1.996   6.450
 8125POPC   D2A61588  21.382   1.942   6.750
 8125POPC   C3A61589  21.427   1.994   7.050
 8125POPC   C4A61590  21.415   2.019   7.350
 8125POPC   C1B61591  21.145   2.085   6.450
 8125POPC   C2B61592  21.200   2.112   6.750
 8125POPC   C3B61593  21.186   2.132   7.050
 8125POPC   C4B61594  21.156   2.127   7.350
 8126POPC   NC361595  12.850  23.693   5.550
 8126POPC   PO461596  12.849  23.742   5.850
 8126POPC   GL161597  12.880  23.729   6.150
 8126POPC   GL261598  12.856  23.869   6.150
 8126POPC   C1A61599  12.847  23.744   6.450
 8126POPC   D2A61600  12.836  23.731   6.750
 8126POPC   C3A61601  12.813  23.686   7.050
 8126POPC   C4A61602  12.834  23.701   7.350
 8126POPC   C1B61603  12.918  23.923   6.450
 8126POPC   C2B61604  12.880  23.999   6.750
 8126POPC   C3B61605  12.915  23.963   7.050
 8126POPC   C4B61606  12.900  23.918   7.350
 8127POPC   NC361607  19.799   1.216   5.550
 8127POPC   PO461608  19.884   1.174   5.850
 8127POPC   GL161609  19.856   1.225   6.150
 8127POPC   GL261610  19.683   1.208   6.150
 8127POPC   C1A61611  19.878   1.254   6.450
 8127POPC   D2A61612  19.813   1.179   6.750
 8127POPC   C3A61613  19.797   1.193   7.050
 8127POPC   C4A61614  19.800   1.237   7.350
 8127POPC   C1B61615  19.537   1.253   6.450
 8127POPC   C2B61616  19.541   1.249   6.750
 8127POPC   C3B61617  19.568   1.170   7.050
 8127POPC   C4B61618  19.551   1.185   7.350
 8128POPC   NC361619   8.193   1.202   5.550
 8128POPC   PO461620   8.176   1.245   5.850
 8128POPC   GL161621   8.176   1.222   6.150
 8128POPC   GL261622   8.118   1.104   6.150
 8128POPC   C1A61623   8.178   1.167   6.450
 8128POPC   D2A61624   8.233   1.200   6.750
 8128POPC   C3A61625   8.191   1.197   7.050
 8128POPC   C4A61626   8.215   1.190   7.350
 8128POPC   C1B61627   8.056   0.999   6.450
 8128POPC   C2B61628   8.029   1.022   6.750
 8128POPC   C3B61629   8.087   1.012   7.050
 8128POPC   C4B61630   8.054   0.990   7.350
 8129POPC   NC361631  36.919  22.932   5.550
 8129POPC   PO461632  36.854  22.939   5.850
 8129POPC   GL161633  36.869  22.934   6.150
 8129POPC   GL261634  37.038  22.968   6.150
 8129POPC   C1A61635  36.942  22.936   6.450
 8129POPC   D2A61636  36.951  22.925   6.750
 8129POPC   C3A61637  36.931  22.968   7.050
 8129POPC   C4A61638  36.857  22.924   7.350
 8129POPC   C1B61639  37.149  22.956   6.450
 8129POPC   C2B61640  37.189  22.986   6.750
 8129POPC   C3B61641  37.104  22.998   7.050
 8129POPC   C4B61642  37.194  23.034   7.350
 8130POPC   NC361643   0.468   4.297   5.550
 8130POPC   PO461644   0.476   4.327   5.850
 8130POPC   GL161645   0.421   4.273   6.150
 8130POPC   GL261646   0.311   4.267   6.150
 8130POPC   C1A61647   0.413   4.329   6.450
 8130POPC   D2A61648   0.429   4.315   6.750
 8130POPC   C3A61649   0.441   4.274   7.050
 8130POPC   C4A61650   0.471   4.344   7.350
 8130POPC   C1B61651   0.191   4.198   6.450
 8130POPC   C2B61652   0.175   4.247   6.750
 8130POPC   C3B61653   0.231   4.273   7.050
 8130POPC   C4B61654   0.166   4.199   7.350
 8131POPC   NC361655  33.039   8.205   5.550
 8131POPC   PO461656  32.997   8.239   5.850
 8131POPC   GL161657  33.013   8.227   6.150
 8131POPC   GL261658  33.092   8.285   6.150
 8131POPC   C1A61659  33.021   8.193   6.450
 8131POPC   D2A61660  33.025   8.156   6.750
 8131POPC   C3A61661  33.012   8.156   7.050
 8131POPC   C4A61662  33.033   8.153   7.350
 8131POPC   C1B61663  33.121   8.407   6.450
 8131POPC   C2B61664  33.060   8.406   6.750
 8131POPC   C3B61665  33.050   8.412   7.050
 8131POPC   C4B61666  33.071   8.420   7.350
 8132POPC   NC361667  22.211   1.165   5.550
 8132POPC   PO461668  22.199   1.253   5.850
 8132POPC   GL161669  22.197   1.233   6.150
 8132POPC   GL261670  22.124   1.092   6.150
 8132POPC   C1A61671  22.153   1.202   6.450
 8132POPC   D2A61672  22.203   1.194   6.750
 8132POPC   C3A61673  22.191   1.222   7.050
 8132POPC   C4A61674  22.130   1.250   7.350
 8132POPC   C1B61675  21.983   1.014   6.450
 8132POPC   C2B61676  22.043   1.026   6.750
 8132POPC   C3B61677  21.979   1.009   7.050
 8132POPC   C4B61678  21.996   1.010   7.350
 8133POPC   NC361679  38.504  12.089   5.550
 8133POPC   PO461680  38.476  12.029   5.850
 8133POPC   GL161681  38.480  12.036   6.150
 8133POPC   GL261682  38.518  11.935   6.150
 8133POPC   C1A61683  38.441  12.121   6.450
 8133POPC   D2A61684  38.412  12.102   6.750
 8133POPC   C3A61685  38.487  12.087   7.050
 8133POPC   C4A61686  38.466  12.085   7.350
 8133POPC   C1B61687  38.633  11.932   6.450
 8133POPC   C2B61688  38.640  11.897   6.750
 8133POPC   C3B61689  38.577  11.886   7.050
 8133POPC   C4B61690  38.665  11.873   7.350
 8134POPC   NC361691  19.884  34.545   5.550
 8134POPC   PO461692  19.844  34.608   5.850
 8134POPC   GL161693  19.832  34.544   6.150
 8134POPC   GL261694  19.754  34.548   6.150
 8134POPC   C1A61695  19.841  34.596   6.450
 8134POPC   D2A61696  19.857  34.529   6.750
 8134POPC   C3A61697  19.793  34.530   7.050
 8134POPC   C4A61698  19.831  34.545   7.350
 8134POPC   C1B61699  19.578  34.460   6.450
 8134POPC   C2B61700  19.613  34.482   6.750
 8134POPC   C3B61701  19.570  34.537   7.050
 8134POPC   C4B61702  19.575  34.500   7.350
 8135POPC   NC361703  44.680  39.994   5.550
 8135POPC   PO461704  44.680  40.041   5.850
 8135POPC   GL161705  44.635  39.976   6.150
 8135POPC   GL261706  44.595  39.883   6.150
 8135POPC   C1A61707  44.680  39.998   6.450
 8135POPC   D2A61708  44.658  39.979   6.750
 8135POPC   C3A61709  44.691  39.990   7.050
 8135POPC   C4A61710  44.631  39.970   7.350
 8135POPC   C1B61711  44.522  39.763   6.450
 8135POPC   C2B61712  44.585  39.825   6.750
 8135POPC   C3B61713  44.554  39.782   7.050
 8135POPC   C4B61714  44.524  39.784   7.350
 8136POPC   NC361715   6.653  22.168   5.550
 8136POPC   PO461716   6.604  22.142   5.850
 8136POPC   GL161717   6.623  22.145   6.150
 8136POPC   GL261718   6.658  22.013   6.150
 8136POPC   C1A61719   6.598  22.154   6.450
 8136POPC   D2A61720   6.688  22.112   6.750
 8136POPC   C3A61721   6.672  22.164   7.050
 8136POPC   C4A61722   6.680  22.150   7.350
 8136POPC   C1B61723   6.616  21.911   6.450
 8136POPC   C2B61724   6.635  21.874   6.750
 8136POPC   C3B61725   6.647  21.928   7.050
 8136POPC   C4B61726   6.675  21.866   7.350
 8137POPC   NC361727   0.394  27.546   5.550
 8137POPC   PO461728   0.397  27.608   5.850
 8137POPC   GL161729   0.445  27.554   6.150
 8137POPC   GL261730   0.523  27.705   6.150
 8137POPC   C1A61731   0.478  27.618   6.450
 8137POPC   D2A61732   0.397  27.630   6.750
 8137POPC   C3A61733   0.405  27.631   7.050
 8137POPC   C4A61734   0.424  27.544   7.350
 8137POPC   C1B61735   0.562  27.787   6.450
 8137POPC   C2B61736   0.537  27.855   6.750
 8137POPC   C3B61737   0.552  27.797   7.050
 8137POPC   C4B61738   0.570  27.840   7.350
 8138POPC   NC361739  24.476  13.584   5.550
 8138POPC   PO461740  24.507  13.663   5.850
 8138POPC   GL161741  24.445  13.648   6.150
 8138POPC   GL261742  24.460  13.545   6.150
 8138POPC   C1A61743  24.498  13.653   6.450
 8138POPC   D2A61744  24.502  13.585   6.750
 8138POPC   C3A61745  24.539  13.655   7.050
 8138POPC   C4A61746  24.491  13.674   7.350
 8138POPC   C1B61747  24.398  13.413   6.450
 8138POPC   C2B61748  24.334  13.405   6.750
 8138POPC   C3B61749  24.385  13.387   7.050
 8138POPC   C4B61750  24.378  13.427   7.350
 8139POPC   NC361751   6.672   5.069   5.550
 8139POPC   PO461752   6.674   5.125   5.850
 8139POPC   GL161753   6.670   5.052   6.150
 8139POPC   GL261754   6.518   5.144   6.150
 8139POPC   C1A61755   6.626   5.061   6.450
 8139POPC   D2A61756   6.646   5.094   6.750
 8139POPC   C3A61757   6.651   5.103   7.050
 8139POPC   C4A61758   6.604   5.092   7.350
 8139POPC   C1B61759   6.373   5.184   6.450
 8139POPC   C2B61760   6.374   5.120   6.750
 8139POPC   C3B61761   6.351   5.166   7.050
 8139POPC   C4B61762   6.355   5.184   7.350
 8140POPC   NC361763  33.799  40.800   5.550
 8140POPC   PO461764  33.786  40.765   5.850
 8140POPC   GL161765  33.836  40.815   6.150
 8140POPC   GL261766  33.700  40.800   6.150
 8140POPC   C1A61767  33.804  40.810   6.450
 8140POPC   D2A61768  33.816  40.756   6.750
 8140POPC   C3A61769  33.816  40.828   7.050
 8140POPC   C4A61770  33.846  40.775   7.350
 8140POPC   C1B61771  33.513  40.786   6.450
 8140POPC   C2B61772  33.514  40.799   6.750
 8140POPC   C3B61773  33.602  40.849   7.050
 8140POPC   C4B61774  33.595  40.823   7.350
 8141POPC   NC361775   2.038   0.413   5.550
 8141POPC   PO461776   1.963   0.480   5.850
 8141POPC   GL161777   1.984   0.446   6.150
 8141POPC   GL261778   2.115   0.418   6.150
 8141POPC   C1A61779   1.981   0.430   6.450
 8141POPC   D2A61780   2.018   0.443   6.750
 8141POPC   C3A61781   1.956   0.455   7.050
 8141POPC   C4A61782   2.016   0.446   7.350
 8141POPC   C1B61783   2.255   0.348   6.450
 8141POPC   C2B61784   2.178   0.296   6.750
 8141POPC   C3B61785   2.228   0.362   7.050
 8141POPC   C4B61786   2.218   0.367   7.350
 8142POPC   NC361787  33.063  26.061   5.550
 8142POPC   PO461788  32.994  26.063   5.850
 8142POPC   GL161789  33.051  26.039   6.150
 8142POPC   GL261790  32.934  25.965   6.150
 8142POPC   C1A61791  33.067  25.995   6.450
 8142POPC   D2A61792  33.025  26.003   6.750
 8142POPC   C3A61793  32.992  26.014   7.050
 8142POPC   C4A61794  33.034  26.085   7.350
 8142POPC   C1B61795  32.853  25.810   6.450
 8142POPC   C2B61796  32.856  25.874   6.750
 8142POPC   C3B61797  32.860  25.848   7.050
 8142POPC   C4B61798  32.865  25.853   7.350
 8143POPC   NC361799  12.097  39.273   5.550
 8143POPC   PO461800  12.036  39.258   5.850
 8143POPC   GL161801  12.044  39.257   6.150
 8143POPC   GL261802  12.017  39.269   6.150
 8143POPC   C1A61803  12.093  39.244   6.450
 8143POPC   D2A61804  12.104  39.221   6.750
 8143POPC   C3A61805  12.104  39.226   7.050
 8143POPC   C4A61806  12.028  39.205   7.350
 8143POPC   C1B61807  11.862  39.438   6.450
 8143POPC   C2B61808  11.935  39.414   6.750
 8143POPC   C3B61809  11.880  39.442   7.050
 8143POPC   C4B61810  11.880  39.424   7.350
 8144POPC   NC361811  30.648  23.719   5.550
 8144POPC   PO461812  30.744  23.666   5.850
 8144POPC   GL161813  30.698  23.665   6.150
 8144POPC   GL261814  30.591  23.623   6.150
 8144POPC   C1A61815  30.706  23.724   6.450
 8144POPC   D2A61816  30.702  23.735   6.750
 8144POPC   C3A61817  30.713  23.680   7.050
 8144POPC   C4A61818  30.650  23.736   7.350
 8144POPC   C1B61819  30.539  23.508   6.450
 8144POPC   C2B61820  30.549  23.545   6.750
 8144POPC   C3B61821  30.584  23.505   7.050
 8144POPC   C4B61822  30.567  23.512   7.350
 8145POPC   NC361823   9.735  16.765   5.550
 8145POPC   PO461824   9.792  16.778   5.850
 8145POPC   GL161825   9.753  16.719   6.150
 8145POPC   GL261826   9.838  16.667   6.150
 8145POPC   C1A61827   9.783  16.714   6.450
 8145POPC   D2A61828   9.788  16.746   6.750
 8145POPC   C3A61829   9.794  16.748   7.050
 8145POPC   C4A61830   9.710  16.730   7.350
 8145POPC   C1B61831   9.964  16.574   6.450
 8145POPC   C2B61832  10.004  16.606   6.750
 8145POPC   C3B61833   9.931  16.543   7.050
 8145POPC   C4B61834   9.955  16.562   7.350
 8146POPC   NC361835   9.725   1.959   5.550
 8146POPC   PO461836   9.717   2.036   5.850
 8146POPC   GL161837   9.766   1.943   6.150
 8146POPC   GL261838   9.654   1.966   6.150
 8146POPC   C1A61839   9.784   2.018   6.450
 8146POPC   D2A61840   9.717   1.975   6.750
 8146POPC   C3A61841   9.719   1.975   7.050
 8146POPC   C4A61842   9.787   1.942   7.350
 8146POPC   C1B61843   9.491   1.992   6.450
 8146POPC   C2B61844   9.517   2.034   6.750
 8146POPC   C3B61845   9.467   2.048   7.050
 8146POPC   C4B61846   9.511   2.004   7.350
 8147POPC   NC361847   8.177  17.556   5.550
 8147POPC   PO461848   8.187  17.550   5.850
 8147POPC   GL161849   8.236  17.468   6.150
 8147POPC   GL261850   8.138  17.593   6.150
 8147POPC   C1A61851   8.181  17.548   6.450
 8147POPC   D2A61852   8.174  17.530   6.750
 8147POPC   C3A61853   8.176  17.480   7.050
 8147POPC   C4A61854   8.165  17.489   7.350
 8147POPC   C1B61855   8.153  17.697   6.450
 8147POPC   C2B61856   8.119  17.753   6.750
 8147POPC   C3B61857   8.163  17.704   7.050
 8147POPC   C4B61858   8.098  17.771   7.350
 8148POPC   NC361859  43.872   8.194   5.550
 8148POPC   PO461860  43.882   8.195   5.850
 8148POPC   GL161861  43.896   8.151   6.150
 8148POPC   GL261862  43.810   8.120   6.150
 8148POPC   C1A61863  43.905   8.241   6.450
 8148POPC   D2A61864  43.885   8.164   6.750
 8148POPC   C3A61865  43.853   8.183   7.050
 8148POPC   C4A61866  43.923   8.200   7.350
 8148POPC   C1B61867  43.703   8.109   6.450
 8148POPC   C2B61868  43.659   8.080   6.750
 8148POPC   C3B61869  43.697   8.120   7.050
 8148POPC   C4B61870  43.699   8.138   7.350
 8149POPC   NC361871   1.224  21.350   5.550
 8149POPC   PO461872   1.247  21.428   5.850
 8149POPC   GL161873   1.228  21.391   6.150
 8149POPC   GL261874   1.346  21.491   6.150
 8149POPC   C1A61875   1.177  21.379   6.450
 8149POPC   D2A61876   1.201  21.348   6.750
 8149POPC   C3A61877   1.168  21.348   7.050
 8149POPC   C4A61878   1.191  21.359   7.350
 8149POPC   C1B61879   1.441  21.491   6.450
 8149POPC   C2B61880   1.426  21.559   6.750
 8149POPC   C3B61881   1.406  21.549   7.050
 8149POPC   C4B61882   1.417  21.502   7.350
 8150POPC   NC361883  33.039  26.853   5.550
 8150POPC   PO461884  33.039  26.825   5.850
 8150POPC   GL161885  33.060  26.833   6.150
 8150POPC   GL261886  32.940  26.781   6.150
 8150POPC   C1A61887  33.041  26.847   6.450
 8150POPC   D2A61888  32.996  26.808   6.750
 8150POPC   C3A61889  33.017  26.840   7.050
 8150POPC   C4A61890  33.018  26.843   7.350
 8150POPC   C1B61891  32.756  26.776   6.450
 8150POPC   C2B61892  32.814  26.834   6.750
 8150POPC   C3B61893  32.738  26.835   7.050
 8150POPC   C4B61894  32.805  26.821   7.350
 8151POPC   NC361895  12.043  19.042   5.550
 8151POPC   PO461896  12.070  19.024   5.850
 8151POPC   GL161897  12.095  19.103   6.150
 8151POPC   GL261898  12.161  19.111   6.150
 8151POPC   C1A61899  12.074  19.037   6.450
 8151POPC   D2A61900  12.032  19.023   6.750
 8151POPC   C3A61901  12.057  19.054   7.050
 8151POPC   C4A61902  12.119  19.014   7.350
 8151POPC   C1B61903  12.309  19.161   6.450
 8151POPC   C2B61904  12.261  19.158   6.750
 8151POPC   C3B61905  12.318  19.174   7.050
 8151POPC   C4B61906  12.309  19.165   7.350
 8152POPC   NC361907  22.924  14.394   5.550
 8152POPC   PO461908  22.972  14.453   5.850
 8152POPC   GL161909  22.894  14.423   6.150
 8152POPC   GL261910  22.928  14.258   6.150
 8152POPC   C1A61911  22.914  14.446   6.450
 8152POPC   D2A61912  22.974  14.401   6.750
 8152POPC   C3A61913  22.936  14.406   7.050
 8152POPC   C4A61914  22.934  14.397   7.350
 8152POPC   C1B61915  22.921  14.204   6.450
 8152POPC   C2B61916  22.948  14.110   6.750
 8152POPC   C3B61917  22.942  14.181   7.050
 8152POPC   C4B61918  22.950  14.111   7.350
 8153POPC   NC361919  32.250  29.116   5.550
 8153POPC   PO461920  32.256  29.117   5.850
 8153POPC   GL161921  32.206  29.142   6.150
 8153POPC   GL261922  32.356  29.187   6.150
 8153POPC   C1A61923  32.220  29.157   6.450
 8153POPC   D2A61924  32.259  29.174   6.750
 8153POPC   C3A61925  32.258  29.158   7.050
 8153POPC   C4A61926  32.252  29.130   7.350
 8153POPC   C1B61927  32.451  29.137   6.450
 8153POPC   C2B61928  32.484  29.201   6.750
 8153POPC   C3B61929  32.485  29.221   7.050
 8153POPC   C4B61930  32.476  29.170   7.350
 8154POPC   NC361931  39.961  22.187   5.550
 8154POPC   PO461932  39.992  22.198   5.850
 8154POPC   GL161933  39.978  22.126   6.150
 8154POPC   GL261934  39.948  22.280   6.150
 8154POPC   C1A61935  40.051  22.167   6.450
 8154POPC   D2A61936  40.041  22.182   6.750
 8154POPC   C3A61937  40.031  22.189   7.050
 8154POPC   C4A61938  40.005  22.173   7.350
 8154POPC   C1B61939  39.903  22.431   6.450
 8154POPC   C2B61940  39.946  22.413   6.750
 8154POPC   C3B61941  39.973  22.451   7.050
 8154POPC   C4B61942  39.984  22.375   7.350
 8155POPC   NC361943  39.239  33.810   5.550
 8155POPC   PO461944  39.270  33.759   5.850
 8155POPC   GL161945  39.240  33.795   6.150
 8155POPC   GL261946  39.285  33.849   6.150
 8155POPC   C1A61947  39.235  33.760   6.450
 8155POPC   D2A61948  39.239  33.789   6.750
 8155POPC   C3A61949  39.252  33.821   7.050
 8155POPC   C4A61950  39.261  33.825   7.350
 8155POPC   C1B61951  39.362  33.977   6.450
 8155POPC   C2B61952  39.384  33.966   6.750
 8155POPC   C3B61953  39.437  34.017   7.050
 8155POPC   C4B61954  39.373  34.024   7.350
 8156POPC   NC361955  44.634  20.584   5.550
 8156POPC   PO461956  44.637  20.636   5.850
 8156POPC   GL161957  44.703  20.624   6.150
 8156POPC   GL261958  44.511  20.637   6.150
 8156POPC   C1A61959  44.617  20.622   6.450
 8156POPC   D2A61960  44.620  20.599   6.750
 8156POPC   C3A61961  44.699  20.633   7.050
 8156POPC   C4A61962  44.617  20.641   7.350
 8156POPC   C1B61963  44.402  20.714   6.450
 8156POPC   C2B61964  44.391  20.723   6.750
 8156POPC   C3B61965  44.432  20.703   7.050
 8156POPC   C4B61966  44.378  20.638   7.350
 8157POPC   NC361967  43.097  22.113   5.550
 8157POPC   PO461968  43.099  22.124   5.850
 8157POPC   GL161969  43.135  22.122   6.150
 8157POPC   GL261970  43.098  22.271   6.150
 8157POPC   C1A61971  43.129  22.119   6.450
 8157POPC   D2A61972  43.142  22.136   6.750
 8157POPC   C3A61973  43.153  22.121   7.050
 8157POPC   C4A61974  43.149  22.167   7.350
 8157POPC   C1B61975  43.119  22.424   6.450
 8157POPC   C2B61976  43.154  22.410   6.750
 8157POPC   C3B61977  43.115  22.365   7.050
 8157POPC   C4B61978  43.188  22.387   7.350
 8158POPC   NC361979  41.520   5.849   5.550
 8158POPC   PO461980  41.579   5.838   5.850
 8158POPC   GL161981  41.573   5.840   6.150
 8158POPC   GL261982  41.681   5.792   6.150
 8158POPC   C1A61983  41.547   5.842   6.450
 8158POPC   D2A61984  41.604   5.852   6.750
 8158POPC   C3A61985  41.606   5.865   7.050
 8158POPC   C4A61986  41.550   5.908   7.350
 8158POPC   C1B61987  41.743   5.717   6.450
 8158POPC   C2B61988  41.761   5.733   6.750
 8158POPC   C3B61989  41.678   5.642   7.050
 8158POPC   C4B61990  41.731   5.656   7.350
 8159POPC   NC361991   9.734  34.594   5.550
 8159POPC   PO461992   9.705  34.582   5.850
 8159POPC   GL161993   9.765  34.551   6.150
 8159POPC   GL261994   9.824  34.456   6.150
 8159POPC   C1A61995   9.771  34.599   6.450
 8159POPC   D2A61996   9.715  34.610   6.750
 8159POPC   C3A61997   9.760  34.540   7.050
 8159POPC   C4A61998   9.725  34.601   7.350
 8159POPC   C1B61999   9.757  34.311   6.450
 8159POPC   C2B62000   9.769  34.359   6.750
 8159POPC   C3B62001   9.781  34.358   7.050
 8159POPC   C4B62002   9.828  34.304   7.350
 8160POPC   NC362003   7.383  14.389   5.550
 8160POPC   PO462004   7.394  14.409   5.850
 8160POPC   GL162005   7.409  14.356   6.150
 8160POPC   GL262006   7.446  14.279   6.150
 8160POPC   C1A62007   7.424  14.446   6.450
 8160POPC   D2A62008   7.445  14.427   6.750
 8160POPC   C3A62009   7.432  14.403   7.050
 8160POPC   C4A62010   7.425  14.359   7.350
 8160POPC   C1B62011   7.442  14.194   6.450
 8160POPC   C2B62012   7.458  14.139   6.750
 8160POPC   C3B62013   7.472  14.162   7.050
 8160POPC   C4B62014   7.430  14.107   7.350
 8161POPC   NC362015   6.641   3.568   5.550
 8161POPC   PO462016   6.637   3.496   5.850
 8161POPC   GL162017   6.676   3.510   6.150
 8161POPC   GL262018   6.690   3.711   6.150
 8161POPC   C1A62019   6.609   3.520   6.450
 8161POPC   D2A62020   6.614   3.588   6.750
 8161POPC   C3A62021   6.677   3.541   7.050
 8161POPC   C4A62022   6.620   3.523   7.350
 8161POPC   C1B62023   6.719   3.800   6.450
 8161POPC   C2B62024   6.693   3.810   6.750
 8161POPC   C3B62025   6.637   3.786   7.050
 8161POPC   C4B62026   6.662   3.775   7.350
 8162POPC   NC362027   7.399  15.993   5.550
 8162POPC   PO462028   7.463  15.913   5.850
 8162POPC   GL162029   7.436  15.982   6.150
 8162POPC   GL262030   7.362  15.888   6.150
 8162POPC   C1A62031   7.391  15.958   6.450
 8162POPC   D2A62032   7.452  15.932   6.750
 8162POPC   C3A62033   7.410  15.932   7.050
 8162POPC   C4A62034   7.381  15.984   7.350
 8162POPC   C1B62035   7.209  15.806   6.450
 8162POPC   C2B62036   7.171  15.832   6.750
 8162POPC   C3B62037   7.255  15.865   7.050
 8162POPC   C4B62038   7.176  15.813   7.350
 8163POPC   NC362039   6.620   8.939   5.550
 8163POPC   PO462040   6.656   9.005   5.850
 8163POPC   GL162041   6.645   8.925   6.150
 8163POPC   GL262042   6.574   8.822   6.150
 8163POPC   C1A62043   6.693   8.934   6.450
 8163POPC   D2A62044   6.635   8.929   6.750
 8163POPC   C3A62045   6.682   8.942   7.050
 8163POPC   C4A62046   6.643   9.018   7.350
 8163POPC   C1B62047   6.587   8.763   6.450
 8163POPC   C2B62048   6.575   8.745   6.750
 8163POPC   C3B62049   6.549   8.737   7.050
 8163POPC   C4B62050   6.544   8.764   7.350
 8164POPC   NC362051   2.002  34.573   5.550
 8164POPC   PO462052   1.961  34.615   5.850
 8164POPC   GL162053   2.010  34.566   6.150
 8164POPC   GL262054   1.927  34.680   6.150
 8164POPC   C1A62055   1.949  34.623   6.450
 8164POPC   D2A62056   1.980  34.563   6.750
 8164POPC   C3A62057   2.010  34.535   7.050
 8164POPC   C4A62058   1.971  34.573   7.350
 8164POPC   C1B62059   1.889  34.779   6.450
 8164POPC   C2B62060   1.842  34.779   6.750
 8164POPC   C3B62061   1.849  34.755   7.050
 8164POPC   C4B62062   1.866  34.832   7.350
 8165POPC   NC362063  31.507   5.836   5.550
 8165POPC   PO462064  31.486   5.900   5.850
 8165POPC   GL162065  31.471   5.833   6.150
 8165POPC   GL262066  31.505   5.986   6.150
 8165POPC   C1A62067  31.423   5.832   6.450
 8165POPC   D2A62068  31.504   5.874   6.750
 8165POPC   C3A62069  31.512   5.885   7.050
 8165POPC   C4A62070  31.490   5.902   7.350
 8165POPC   C1B62071  31.475   6.154   6.450
 8165POPC   C2B62072  31.448   6.133   6.750
 8165POPC   C3B62073  31.500   6.121   7.050
 8165POPC   C4B62074  31.504   6.093   7.350
 8166POPC   NC362075   5.089  41.592   5.550
 8166POPC   PO462076   5.107  41.543   5.850
 8166POPC   GL162077   5.130  41.587   6.150
 8166POPC   GL262078   4.954  41.444   6.150
 8166POPC   C1A62079   5.087  41.517   6.450
 8166POPC   D2A62080   5.099  41.561   6.750
 8166POPC   C3A62081   5.056  41.604   7.050
 8166POPC   C4A62082   5.128  41.585   7.350
 8166POPC   C1B62083   4.934  41.375   6.450
 8166POPC   C2B62084   4.904  41.349   6.750
 8166POPC   C3B62085   4.884  41.443   7.050
 8166POPC   C4B62086   4.926  41.355   7.350
 8167POPC   NC362087  42.348  31.459   5.550
 8167POPC   PO462088  42.368  31.483   5.850
 8167POPC   GL162089  42.359  31.522   6.150
 8167POPC   GL262090  42.406  31.563   6.150
 8167POPC   C1A62091  42.290  31.429   6.450
 8167POPC   D2A62092  42.378  31.431   6.750
 8167POPC   C3A62093  42.292  31.461   7.050
 8167POPC   C4A62094  42.381  31.466   7.350
 8167POPC   C1B62095  42.508  31.695   6.450
 8167POPC   C2B62096  42.447  31.701   6.750
 8167POPC   C3B62097  42.451  31.639   7.050
 8167POPC   C4B62098  42.410  31.651   7.350
 8168POPC   NC362099  22.935  35.351   5.550
 8168POPC   PO462100  22.949  35.366   5.850
 8168POPC   GL162101  22.898  35.346   6.150
 8168POPC   GL262102  23.006  35.453   6.150
 8168POPC   C1A62103  22.894  35.353   6.450
 8168POPC   D2A62104  22.920  35.313   6.750
 8168POPC   C3A62105  22.954  35.375   7.050
 8168POPC   C4A62106  22.938  35.387   7.350
 8168POPC   C1B62107  23.111  35.532   6.450
 8168POPC   C2B62108  23.122  35.578   6.750
 8168POPC   C3B62109  23.125  35.499   7.050
 8168POPC   C4B62110  23.133  35.558   7.350
 8169POPC   NC362111  26.024  36.120   5.550
 8169POPC   PO462112  26.056  36.092   5.850
 8169POPC   GL162113  26.039  36.160   6.150
 8169POPC   GL262114  25.930  36.058   6.150
 8169POPC   C1A62115  26.086  36.174   6.450
 8169POPC   D2A62116  26.006  36.127   6.750
 8169POPC   C3A62117  25.991  36.154   7.050
 8169POPC   C4A62118  26.058  36.097   7.350
 8169POPC   C1B62119  25.858  36.017   6.450
 8169POPC   C2B62120  25.885  35.987   6.750
 8169POPC   C3B62121  25.889  35.935   7.050
 8169POPC   C4B62122  25.826  36.001   7.350
 8170POPC   NC362123  11.333  17.549   5.550
 8170POPC   PO462124  11.274  17.506   5.850
 8170POPC   GL162125  11.283  17.521   6.150
 8170POPC   GL262126  11.403  17.596   6.150
 8170POPC   C1A62127  11.314  17.487   6.450
 8170POPC   D2A62128  11.298  17.467   6.750
 8170POPC   C3A62129  11.322  17.468   7.050
 8170POPC   C4A62130  11.251  17.497   7.350
 8170POPC   C1B62131  11.437  17.755   6.450
 8170POPC   C2B62132  11.409  17.722   6.750
 8170POPC   C3B62133  11.425  17.754   7.050
 8170POPC   C4B62134  11.427  17.706   7.350
 8171POPC   NC362135  42.355  11.339   5.550
 8171POPC   PO462136  42.363  11.278   5.850
 8171POPC   GL162137  42.356  11.252   6.150
 8171POPC   GL262138  42.317  11.215   6.150
 8171POPC   C1A62139  42.358  11.313   6.450
 8171POPC   D2A62140  42.321  11.318   6.750
 8171POPC   C3A62141  42.317  11.317   7.050
 8171POPC   C4A62142  42.291  11.320   7.350
 8171POPC   C1B62143  42.396  11.089   6.450
 8171POPC   C2B62144  42.343  11.054   6.750
 8171POPC   C3B62145  42.355  11.015   7.050
 8171POPC   C4B62146  42.345  11.028   7.350
 8172POPC   NC362147  34.616  38.419   5.550
 8172POPC   PO462148  34.531  38.432   5.850
 8172POPC   GL162149  34.578  38.497   6.150
 8172POPC   GL262150  34.572  38.569   6.150
 8172POPC   C1A62151  34.558  38.458   6.450
 8172POPC   D2A62152  34.550  38.480   6.750
 8172POPC   C3A62153  34.553  38.445   7.050
 8172POPC   C4A62154  34.602  38.489   7.350
 8172POPC   C1B62155  34.540  38.700   6.450
 8172POPC   C2B62156  34.593  38.694   6.750
 8172POPC   C3B62157  34.518  38.750   7.050
 8172POPC   C4B62158  34.511  38.703   7.350
 8173POPC   NC362159  12.831  21.415   5.550
 8173POPC   PO462160  12.818  21.353   5.850
 8173POPC   GL162161  12.821  21.424   6.150
 8173POPC   GL262162  12.883  21.257   6.150
 8173POPC   C1A62163  12.882  21.392   6.450
 8173POPC   D2A62164  12.876  21.356   6.750
 8173POPC   C3A62165  12.845  21.380   7.050
 8173POPC   C4A62166  12.888  21.343   7.350
 8173POPC   C1B62167  13.040  21.172   6.450
 8173POPC   C2B62168  12.967  21.154   6.750
 8173POPC   C3B62169  13.005  21.149   7.050
 8173POPC   C4B62170  12.989  21.139   7.350
 8174POPC   NC362171  36.877  37.660   5.550
 8174POPC   PO462172  36.936  37.650   5.850
 8174POPC   GL162173  36.872  37.703   6.150
 8174POPC   GL262174  36.771  37.655   6.150
 8174POPC   C1A62175  36.924  37.639   6.450
 8174POPC   D2A62176  36.893  37.630   6.750
 8174POPC   C3A62177  36.907  37.692   7.050
 8174POPC   C4A62178  36.905  37.698   7.350
 8174POPC   C1B62179  36.608  37.672   6.450
 8174POPC   C2B62180  36.682  37.671   6.750
 8174POPC   C3B62181  36.681  37.671   7.050
 8174POPC   C4B62182  36.626  37.725   7.350
 8175POPC   NC362183  41.539  10.559   5.550
 8175POPC   PO462184  41.588  10.514   5.850
 8175POPC   GL162185  41.515  10.565   6.150
 8175POPC   GL262186  41.663  10.652   6.150
 8175POPC   C1A62187  41.606  10.482   6.450
 8175POPC   D2A62188  41.544  10.492   6.750
 8175POPC   C3A62189  41.543  10.524   7.050
 8175POPC   C4A62190  41.568  10.560   7.350
 8175POPC   C1B62191  41.738  10.764   6.450
 8175POPC   C2B62192  41.747  10.758   6.750
 8175POPC   C3B62193  41.735  10.693   7.050
 8175POPC   C4B62194  41.744  10.744   7.350
 8176POPC   NC362195   4.305  42.336   5.550
 8176POPC   PO462196   4.364  42.345   5.850
 8176POPC   GL162197   4.311  42.343   6.150
 8176POPC   GL262198   4.338  42.469   6.150
 8176POPC   C1A62199   4.336  42.377   6.450
 8176POPC   D2A62200   4.311  42.352   6.750
 8176POPC   C3A62201   4.309  42.317   7.050
 8176POPC   C4A62202   4.346  42.288   7.350
 8176POPC   C1B62203   4.331  42.603   6.450
 8176POPC   C2B62204   4.343  42.580   6.750
 8176POPC   C3B62205   4.365  42.570   7.050
 8176POPC   C4B62206   4.322  42.588   7.350
 8177POPC   NC362207  11.341  18.236   5.550
 8177POPC   PO462208  11.333  18.292   5.850
 8177POPC   GL162209  11.300  18.253   6.150
 8177POPC   GL262210  11.213  18.198   6.150
 8177POPC   C1A62211  11.281  18.259   6.450
 8177POPC   D2A62212  11.323  18.273   6.750
 8177POPC   C3A62213  11.309  18.310   7.050
 8177POPC   C4A62214  11.302  18.298   7.350
 8177POPC   C1B62215  11.080  18.103   6.450
 8177POPC   C2B62216  11.111  18.101   6.750
 8177POPC   C3B62217  11.110  18.107   7.050
 8177POPC   C4B62218  11.118  18.105   7.350
 8178POPC   NC362219   8.214  43.158   5.550
 8178POPC   PO462220   8.231  43.107   5.850
 8178POPC   GL162221   8.186  43.113   6.150
 8178POPC   GL262222   8.238  42.972   6.150
 8178POPC   C1A62223   8.220  43.127   6.450
 8178POPC   D2A62224   8.220  43.085   6.750
 8178POPC   C3A62225   8.226  43.089   7.050
 8178POPC   C4A62226   8.202  43.092   7.350
 8178POPC   C1B62227   8.259  42.863   6.450
 8178POPC   C2B62228   8.252  42.844   6.750
 8178POPC   C3B62229   8.273  42.822   7.050
 8178POPC   C4B62230   8.203  42.884   7.350
 8179POPC   NC362231  10.489   1.171   5.550
 8179POPC   PO462232  10.552   1.190   5.850
 8179POPC   GL162233  10.558   1.240   6.150
 8179POPC   GL262234  10.559   1.349   6.150
 8179POPC   C1A62235  10.557   1.237   6.450
 8179POPC   D2A62236  10.517   1.209   6.750
 8179POPC   C3A62237  10.534   1.239   7.050
 8179POPC   C4A62238  10.480   1.200   7.350
 8179POPC   C1B62239  10.643   1.440   6.450
 8179POPC   C2B62240  10.642   1.412   6.750
 8179POPC   C3B62241  10.644   1.431   7.050
 8179POPC   C4B62242  10.566   1.413   7.350
 8180POPC   NC362243  13.658  42.355   5.550
 8180POPC   PO462244  13.626  42.345   5.850
 8180POPC   GL162245  13.579  42.306   6.150
 8180POPC   GL262246  13.768  42.394   6.150
 8180POPC   C1A62247  13.651  42.334   6.450
 8180POPC   D2A62248  13.638  42.287   6.750
 8180POPC   C3A62249  13.655  42.355   7.050
 8180POPC   C4A62250  13.642  42.316   7.350
 8180POPC   C1B62251  13.831  42.421   6.450
 8180POPC   C2B62252  13.852  42.387   6.750
 8180POPC   C3B62253  13.838  42.398   7.050
 8180POPC   C4B62254  13.873  42.441   7.350
 8181POPC   NC362255  40.017  23.721   5.550
 8181POPC   PO462256  39.994  23.672   5.850
 8181POPC   GL162257  40.038  23.687   6.150
 8181POPC   GL262258  40.065  23.827   6.150
 8181POPC   C1A62259  40.046  23.734   6.450
 8181POPC   D2A62260  40.028  23.727   6.750
 8181POPC   C3A62261  39.964  23.748   7.050
 8181POPC   C4A62262  39.975  23.671   7.350
 8181POPC   C1B62263  40.235  23.832   6.450
 8181POPC   C2B62264  40.167  23.812   6.750
 8181POPC   C3B62265  40.241  23.819   7.050
 8181POPC   C4B62266  40.187  23.859   7.350
 8182POPC   NC362267  40.814   4.269   5.550
 8182POPC   PO462268  40.784   4.339   5.850
 8182POPC   GL162269  40.777   4.319   6.150
 8182POPC   GL262270  40.678   4.245   6.150
 8182POPC   C1A62271  40.823   4.323   6.450
 8182POPC   D2A62272  40.832   4.311   6.750
 8182POPC   C3A62273  40.815   4.297   7.050
 8182POPC   C4A62274  40.733   4.344   7.350
 8182POPC   C1B62275  40.528   4.270   6.450
 8182POPC   C2B62276  40.533   4.274   6.750
 8182POPC   C3B62277  40.566   4.190   7.050
 8182POPC   C4B62278  40.504   4.262   7.350
 8183POPC   NC362279  23.722  34.620   5.550
 8183POPC   PO462280  23.703  34.606   5.850
 8183POPC   GL162281  23.740  34.589   6.150
 8183POPC   GL262282  23.648  34.536   6.150
 8183POPC   C1A62283  23.689  34.592   6.450
 8183POPC   D2A62284  23.724  34.608   6.750
 8183POPC   C3A62285  23.732  34.600   7.050
 8183POPC   C4A62286  23.716  34.533   7.350
 8183POPC   C1B62287  23.530  34.417   6.450
 8183POPC   C2B62288  23.495  34.507   6.750
 8183POPC   C3B62289  23.525  34.455   7.050
 8183POPC   C4B62290  23.516  34.420   7.350
 8184POPC   NC362291  22.955  39.989   5.550
 8184POPC   PO462292  22.893  40.006   5.850
 8184POPC   GL162293  22.976  39.999   6.150
 8184POPC   GL262294  22.913  40.117   6.150
 8184POPC   C1A62295  22.960  39.959   6.450
 8184POPC   D2A62296  22.908  39.982   6.750
 8184POPC   C3A62297  22.913  40.021   7.050
 8184POPC   C4A62298  22.896  40.036   7.350
 8184POPC   C1B62299  22.797  40.270   6.450
 8184POPC   C2B62300  22.776  40.227   6.750
 8184POPC   C3B62301  22.811  40.262   7.050
 8184POPC   C4B62302  22.786  40.193   7.350
 8185POPC   NC362303  44.615   9.791   5.550
 8185POPC   PO462304  44.702   9.779   5.850
 8185POPC   GL162305  44.634   9.750   6.150
 8185POPC   GL262306  44.675   9.612   6.150
 8185POPC   C1A62307  44.667   9.751   6.450
 8185POPC   D2A62308  44.676   9.736   6.750
 8185POPC   C3A62309  44.705   9.708   7.050
 8185POPC   C4A62310  44.617   9.726   7.350
 8185POPC   C1B62311  44.604   9.502   6.450
 8185POPC   C2B62312  44.551   9.487   6.750
 8185POPC   C3B62313  44.602   9.558   7.050
 8185POPC   C4B62314  44.551   9.529   7.350
 8186POPC   NC362315  12.093  30.730   5.550
 8186POPC   PO462316  12.045  30.680   5.850
 8186POPC   GL162317  12.045  30.665   6.150
 8186POPC   GL262318  12.089  30.605   6.150
 8186POPC   C1A62319  12.070  30.742   6.450
 8186POPC   D2A62320  12.125  30.735   6.750
 8186POPC   C3A62321  12.071  30.694   7.050
 8186POPC   C4A62322  12.088  30.659   7.350
 8186POPC   C1B62323  12.181  30.482   6.450
 8186POPC   C2B62324  12.178  30.445   6.750
 8186POPC   C3B62325  12.201  30.478   7.050
 8186POPC   C4B62326  12.189  30.412   7.350
 8187POPC   NC362327  43.133  12.861   5.550
 8187POPC   PO462328  43.064  12.826   5.850
 8187POPC   GL162329  43.139  12.817   6.150
 8187POPC   GL262330  43.146  12.727   6.150
 8187POPC   C1A62331  43.089  12.822   6.450
 8187POPC   D2A62332  43.101  12.816   6.750
 8187POPC   C3A62333  43.110  12.866   7.050
 8187POPC   C4A62334  43.155  12.821   7.350
 8187POPC   C1B62335  43.163  12.569   6.450
 8187POPC   C2B62336  43.100  12.624   6.750
 8187POPC   C3B62337  43.111  12.593   7.050
 8187POPC   C4B62338  43.103  12.592   7.350
 8188POPC   NC362339  16.712  33.799   5.550
 8188POPC   PO462340  16.728  33.771   5.850
 8188POPC   GL162341  16.719  33.822   6.150
 8188POPC   GL262342  16.655  33.733   6.150
 8188POPC   C1A62343  16.718  33.776   6.450
 8188POPC   D2A62344  16.737  33.818   6.750
 8188POPC   C3A62345  16.682  33.786   7.050
 8188POPC   C4A62346  16.775  33.785   7.350
 8188POPC   C1B62347  16.528  33.718   6.450
 8188POPC   C2B62348  16.499  33.685   6.750
 8188POPC   C3B62349  16.543  33.688   7.050
 8188POPC   C4B62350  16.520  33.761   7.350
 8189POPC   NC362351  21.373  42.330   5.550
 8189POPC   PO462352  21.347  42.307   5.850
 8189POPC   GL162353  21.423  42.345   6.150
 8189POPC   GL262354  21.411  42.200   6.150
 8189POPC   C1A62355  21.431  42.372   6.450
 8189POPC   D2A62356  21.436  42.338   6.750
 8189POPC   C3A62357  21.412  42.304   7.050
 8189POPC   C4A62358  21.412  42.353   7.350
 8189POPC   C1B62359  21.377  42.106   6.450
 8189POPC   C2B62360  21.388  42.111   6.750
 8189POPC   C3B62361  21.407  42.039   7.050
 8189POPC   C4B62362  21.368  42.085   7.350
 8190POPC   NC362363   8.159   0.471   5.550
 8190POPC   PO462364   8.213   0.435   5.850
 8190POPC   GL162365   8.212   0.475   6.150
 8190POPC   GL262366   8.295   0.428   6.150
 8190POPC   C1A62367   8.160   0.451   6.450
 8190POPC   D2A62368   8.211   0.431   6.750
 8190POPC   C3A62369   8.179   0.412   7.050
 8190POPC   C4A62370   8.159   0.483   7.350
 8190POPC   C1B62371   8.390   0.338   6.450
 8190POPC   C2B62372   8.461   0.362   6.750
 8190POPC   C3B62373   8.477   0.326   7.050
 8190POPC   C4B62374   8.429   0.387   7.350
 8191POPC   NC362375  39.183  12.889   5.550
 8191POPC   PO462376  39.227  12.823   5.850
 8191POPC   GL162377  39.277  12.848   6.150
 8191POPC   GL262378  39.379  12.936   6.150
 8191POPC   C1A62379  39.188  12.879   6.450
 8191POPC   D2A62380  39.273  12.896   6.750
 8191POPC   C3A62381  39.242  12.873   7.050
 8191POPC   C4A62382  39.204  12.812   7.350
 8191POPC   C1B62383  39.423  12.951   6.450
 8191POPC   C2B62384  39.503  12.953   6.750
 8191POPC   C3B62385  39.448  12.895   7.050
 8191POPC   C4B62386  39.463  12.978   7.350
 8192POPC   NC362387  27.614   1.963   5.550
 8192POPC   PO462388  27.635   1.965   5.850
 8192POPC   GL162389  27.612   1.964   6.150
 8192POPC   GL262390  27.764   2.053   6.150
 8192POPC   C1A62391  27.588   1.965   6.450
 8192POPC   D2A62392  27.579   1.958   6.750
 8192POPC   C3A62393  27.600   1.968   7.050
 8192POPC   C4A62394  27.608   2.032   7.350
 8192POPC   C1B62395  27.826   2.083   6.450
 8192POPC   C2B62396  27.877   2.037   6.750
 8192POPC   C3B62397  27.805   2.002   7.050
 8192POPC   C4B62398  27.855   1.992   7.350
 8193POPC   NC362399  14.449  39.199   5.550
 8193POPC   PO462400  14.356  39.233   5.850
 8193POPC   GL162401  14.377  39.252   6.150
 8193POPC   GL262402  14.454  39.400   6.150
 8193POPC   C1A62403  14.366  39.182   6.450
 8193POPC   D2A62404  14.396  39.220   6.750
 8193POPC   C3A62405  14.442  39.219   7.050
 8193POPC   C4A62406  14.388  39.231   7.350
 8193POPC   C1B62407  14.456  39.504   6.450
 8193POPC   C2B62408  14.409  39.489   6.750
 8193POPC   C3B62409  14.425  39.482   7.050
 8193POPC   C4B62410  14.376  39.508   7.350
 8194POPC   NC362411   5.917  40.814   5.550
 8194POPC   PO462412   5.910  40.792   5.850
 8194POPC   GL162413   5.872  40.738   6.150
 8194POPC   GL262414   5.885  40.871   6.150
 8194POPC   C1A62415   5.848  40.733   6.450
 8194POPC   D2A62416   5.887  40.746   6.750
 8194POPC   C3A62417   5.828  40.831   7.050
 8194POPC   C4A62418   5.894  40.763   7.350
 8194POPC   C1B62419   5.929  41.016   6.450
 8194POPC   C2B62420   5.877  41.041   6.750
 8194POPC   C3B62421   5.931  41.040   7.050
 8194POPC   C4B62422   5.917  41.059   7.350
 8195POPC   NC362423  32.288  31.507   5.550
 8195POPC   PO462424  32.288  31.501   5.850
 8195POPC   GL162425  32.222  31.441   6.150
 8195POPC   GL262426  32.321  31.374   6.150
 8195POPC   C1A62427  32.263  31.427   6.450
 8195POPC   D2A62428  32.260  31.430   6.750
 8195POPC   C3A62429  32.246  31.508   7.050
 8195POPC   C4A62430  32.223  31.445   7.350
 8195POPC   C1B62431  32.447  31.307   6.450
 8195POPC   C2B62432  32.482  31.325   6.750
 8195POPC   C3B62433  32.412  31.271   7.050
 8195POPC   C4B62434  32.413  31.336   7.350
 8196POPC   NC362435  34.608  15.191   5.550
 8196POPC   PO462436  34.618  15.166   5.850
 8196POPC   GL162437  34.587  15.154   6.150
 8196POPC   GL262438  34.589  15.316   6.150
 8196POPC   C1A62439  34.618  15.199   6.450
 8196POPC   D2A62440  34.624  15.147   6.750
 8196POPC   C3A62441  34.626  15.168   7.050
 8196POPC   C4A62442  34.619  15.167   7.350
 8196POPC   C1B62443  34.670  15.375   6.450
 8196POPC   C2B62444  34.684  15.439   6.750
 8196POPC   C3B62445  34.681  15.396   7.050
 8196POPC   C4B62446  34.675  15.437   7.350
 8197POPC   NC362447  12.028  23.754   5.550
 8197POPC   PO462448  12.106  23.756   5.850
 8197POPC   GL162449  12.105  23.694   6.150
 8197POPC   GL262450  12.176  23.587   6.150
 8197POPC   C1A62451  12.047  23.711   6.450
 8197POPC   D2A62452  12.061  23.737   6.750
 8197POPC   C3A62453  12.036  23.719   7.050
 8197POPC   C4A62454  12.034  23.666   7.350
 8197POPC   C1B62455  12.247  23.525   6.450
 8197POPC   C2B62456  12.164  23.465   6.750
 8197POPC   C3B62457  12.188  23.495   7.050
 8197POPC   C4B62458  12.224  23.509   7.350
 8198POPC   NC362459  43.873   1.167   5.550
 8198POPC   PO462460  43.921   1.199   5.850
 8198POPC   GL162461  43.912   1.258   6.150
 8198POPC   GL262462  43.960   1.295   6.150
 8198POPC   C1A62463  43.872   1.250   6.450
 8198POPC   D2A62464  43.912   1.230   6.750
 8198POPC   C3A62465  43.911   1.173   7.050
 8198POPC   C4A62466  43.900   1.249   7.350
 8198POPC   C1B62467  44.062   1.341   6.450
 8198POPC   C2B62468  44.030   1.433   6.750
 8198POPC   C3B62469  44.098   1.385   7.050
 8198POPC   C4B62470  44.024   1.377   7.350
 8199POPC   NC362471  26.030   4.273   5.550
 8199POPC   PO462472  26.053   4.310   5.850
 8199POPC   GL162473  26.053   4.291   6.150
 8199POPC   GL262474  25.989   4.477   6.150
 8199POPC   C1A62475  26.069   4.288   6.450
 8199POPC   D2A62476  26.074   4.351   6.750
 8199POPC   C3A62477  26.064   4.286   7.050
 8199POPC   C4A62478  26.067   4.367   7.350
 8199POPC   C1B62479  25.961   4.542   6.450
 8199POPC   C2B62480  25.953   4.563   6.750
 8199POPC   C3B62481  26.046   4.531   7.050
 8199POPC   C4B62482  25.975   4.581   7.350
 8200POPC   NC362483  18.296  28.389   5.550
 8200POPC   PO462484  18.315  28.413   5.850
 8200POPC   GL162485  18.302  28.343   6.150
 8200POPC   GL262486  18.199  28.303   6.150
 8200POPC   C1A62487  18.304  28.401   6.450
 8200POPC   D2A62488  18.300  28.392   6.750
 8200POPC   C3A62489  18.284  28.394   7.050
 8200POPC   C4A62490  18.271  28.396   7.350
 8200POPC   C1B62491  18.218  28.144   6.450
 8200POPC   C2B62492  18.216  28.160   6.750
 8200POPC   C3B62493  18.195  28.163   7.050
 8200POPC   C4B62494  18.211  28.139   7.350
 8201POPC   NC362495  15.130  24.451   5.550
 8201POPC   PO462496  15.160  24.443   5.850
 8201POPC   GL162497  15.169  24.482   6.150
 8201POPC   GL262498  15.278  24.495   6.150
 8201POPC   C1A62499  15.138  24.492   6.450
 8201POPC   D2A62500  15.198  24.460   6.750
 8201POPC   C3A62501  15.132  24.442   7.050
 8201POPC   C4A62502  15.181  24.487   7.350
 8201POPC   C1B62503  15.427  24.498   6.450
 8201POPC   C2B62504  15.474  24.570   6.750
 8201POPC   C3B62505  15.446  24.476   7.050
 8201POPC   C4B62506  15.418  24.512   7.350
 8202POPC   NC362507   8.950  19.100   5.550
 8202POPC   PO462508   9.007  19.023   5.850
 8202POPC   GL162509   8.973  19.084   6.150
 8202POPC   GL262510   9.094  19.166   6.150
 8202POPC   C1A62511   8.937  19.015   6.450
 8202POPC   D2A62512   8.958  19.096   6.750
 8202POPC   C3A62513   8.923  19.055   7.050
 8202POPC   C4A62514   8.958  19.029   7.350
 8202POPC   C1B62515   9.156  19.289   6.450
 8202POPC   C2B62516   9.089  19.233   6.750
 8202POPC   C3B62517   9.164  19.273   7.050
 8202POPC   C4B62518   9.077  19.279   7.350
 8203POPC   NC362519  24.444  33.020   5.550
 8203POPC   PO462520  24.448  33.035   5.850
 8203POPC   GL162521  24.484  33.074   6.150
 8203POPC   GL262522  24.619  33.021   6.150
 8203POPC   C1A62523  24.497  32.990   6.450
 8203POPC   D2A62524  24.530  33.064   6.750
 8203POPC   C3A62525  24.533  32.997   7.050
 8203POPC   C4A62526  24.466  33.040   7.350
 8203POPC   C1B62527  24.691  32.986   6.450
 8203POPC   C2B62528  24.712  33.014   6.750
 8203POPC   C3B62529  24.780  33.011   7.050
 8203POPC   C4B62530  24.691  32.988   7.350
 8204POPC   NC362531   5.113  42.372   5.550
 8204POPC   PO462532   5.052  42.346   5.850
 8204POPC   GL162533   5.102  42.343   6.150
 8204POPC   GL262534   4.995  42.352   6.150
 8204POPC   C1A62535   5.097  42.340   6.450
 8204POPC   D2A62536   5.134  42.346   6.750
 8204POPC   C3A62537   5.046  42.329   7.050
 8204POPC   C4A62538   5.129  42.342   7.350
 8204POPC   C1B62539   4.892  42.410   6.450
 8204POPC   C2B62540   4.866  42.447   6.750
 8204POPC   C3B62541   4.848  42.447   7.050
 8204POPC   C4B62542   4.905  42.389   7.350
 8205POPC   NC362543  12.831  18.284   5.550
 8205POPC   PO462544  12.851  18.281   5.850
 8205POPC   GL162545  12.817  18.245   6.150
 8205POPC   GL262546  12.857  18.394   6.150
 8205POPC   C1A62547  12.852  18.329   6.450
 8205POPC   D2A62548  12.876  18.273   6.750
 8205POPC   C3A62549  12.825  18.299   7.050
 8205POPC   C4A62550  12.870  18.281   7.350
 8205POPC   C1B62551  12.855  18.528   6.450
 8205POPC   C2B62552  12.880  18.526   6.750
 8205POPC   C3B62553  12.807  18.578   7.050
 8205POPC   C4B62554  12.847  18.486   7.350
 8206POPC   NC362555  26.825  28.398   5.550
 8206POPC   PO462556  26.852  28.352   5.850
 8206POPC   GL162557  26.842  28.353   6.150
 8206POPC   GL262558  26.909  28.462   6.150
 8206POPC   C1A62559  26.832  28.341   6.450
 8206POPC   D2A62560  26.805  28.378   6.750
 8206POPC   C3A62561  26.775  28.343   7.050
 8206POPC   C4A62562  26.811  28.418   7.350
 8206POPC   C1B62563  26.953  28.590   6.450
 8206POPC   C2B62564  26.987  28.608   6.750
 8206POPC   C3B62565  26.916  28.599   7.050
 8206POPC   C4B62566  26.949  28.550   7.350
 8207POPC   NC362567  24.494  21.394   5.550
 8207POPC   PO462568  24.506  21.408   5.850
 8207POPC   GL162569  24.488  21.346   6.150
 8207POPC   GL262570  24.435  21.414   6.150
 8207POPC   C1A62571  24.493  21.436   6.450
 8207POPC   D2A62572  24.511  21.427   6.750
 8207POPC   C3A62573  24.517  21.361   7.050
 8207POPC   C4A62574  24.517  21.370   7.350
 8207POPC   C1B62575  24.258  21.574   6.450
 8207POPC   C2B62576  24.299  21.554   6.750
 8207POPC   C3B62577  24.305  21.570   7.050
 8207POPC   C4B62578  24.307  21.523   7.350
 8208POPC   NC362579  10.507  44.693   5.550
 8208POPC   PO462580  10.531  44.621   5.850
 8208POPC   GL162581  10.499  44.701   6.150
 8208POPC   GL262582  10.435  44.667   6.150
 8208POPC   C1A62583  10.548  44.657   6.450
 8208POPC   D2A62584  10.476  44.688   6.750
 8208POPC   C3A62585  10.505  44.659   7.050
 8208POPC   C4A62586  10.529  44.665   7.350
 8208POPC   C1B62587  10.330  44.581   6.450
 8208POPC   C2B62588  10.300  44.534   6.750
 8208POPC   C3B62589  10.276  44.565   7.050
 8208POPC   C4B62590  10.325  44.578   7.350
 8209POPC   NC362591  29.885   4.346   5.550
 8209POPC   PO462592  29.913   4.281   5.850
 8209POPC   GL162593  29.886   4.320   6.150
 8209POPC   GL262594  29.987   4.407   6.150
 8209POPC   C1A62595  29.952   4.314   6.450
 8209POPC   D2A62596  29.930   4.361   6.750
 8209POPC   C3A62597  29.912   4.342   7.050
 8209POPC   C4A62598  29.959   4.295   7.350
 8209POPC   C1B62599  30.026   4.580   6.450
 8209POPC   C2B62600  30.064   4.540   6.750
 8209POPC   C3B62601  30.012   4.574   7.050
 8209POPC   C4B62602  29.982   4.520   7.350
 8210POPC   NC362603  30.689  41.520   5.550
 8210POPC   PO462604  30.676  41.550   5.850
 8210POPC   GL162605  30.717  41.544   6.150
 8210POPC   GL262606  30.718  41.661   6.150
 8210POPC   C1A62607  30.689  41.542   6.450
 8210POPC   D2A62608  30.722  41.572   6.750
 8210POPC   C3A62609  30.704  41.559   7.050
 8210POPC   C4A62610  30.737  41.566   7.350
 8210POPC   C1B62611  30.680  41.854   6.450
 8210POPC   C2B62612  30.761  41.853   6.750
 8210POPC   C3B62613  30.680  41.808   7.050
 8210POPC   C4B62614  30.696  41.853   7.350
 8211POPC   NC362615  19.087  39.264   5.550
 8211POPC   PO462616  19.012  39.231   5.850
 8211POPC   GL162617  19.025  39.272   6.150
 8211POPC   GL262618  19.026  39.335   6.150
 8211POPC   C1A62619  19.053  39.225   6.450
 8211POPC   D2A62620  19.079  39.271   6.750
 8211POPC   C3A62621  19.082  39.268   7.050
 8211POPC   C4A62622  19.019  39.262   7.350
 8211POPC   C1B62623  18.898  39.461   6.450
 8211POPC   C2B62624  18.925  39.379   6.750
 8211POPC   C3B62625  18.910  39.388   7.050
 8211POPC   C4B62626  18.896  39.386   7.350
 8212POPC   NC362627  26.034   5.839   5.550
 8212POPC   PO462628  26.016   5.840   5.850
 8212POPC   GL162629  26.056   5.907   6.150
 8212POPC   GL262630  26.072   5.966   6.150
 8212POPC   C1A62631  26.015   5.863   6.450
 8212POPC   D2A62632  26.075   5.883   6.750
 8212POPC   C3A62633  26.071   5.877   7.050
 8212POPC   C4A62634  26.005   5.848   7.350
 8212POPC   C1B62635  25.986   6.108   6.450
 8212POPC   C2B62636  26.010   6.123   6.750
 8212POPC   C3B62637  26.058   6.083   7.050
 8212POPC   C4B62638  25.995   6.138   7.350
 8213POPC   NC362639  15.216  31.447   5.550
 8213POPC   PO462640  15.205  31.470   5.850
 8213POPC   GL162641  15.184  31.475   6.150
 8213POPC   GL262642  15.108  31.401   6.150
 8213POPC   C1A62643  15.138  31.481   6.450
 8213POPC   D2A62644  15.217  31.466   6.750
 8213POPC   C3A62645  15.139  31.496   7.050
 8213POPC   C4A62646  15.172  31.517   7.350
 8213POPC   C1B62647  15.028  31.227   6.450
 8213POPC   C2B62648  15.079  31.285   6.750
 8213POPC   C3B62649  15.043  31.235   7.050
 8213POPC   C4B62650  15.105  31.299   7.350
 8214POPC   NC362651  29.109  26.856   5.550
 8214POPC   PO462652  29.143  26.782   5.850
 8214POPC   GL162653  29.168  26.828   6.150
 8214POPC   GL262654  29.146  26.731   6.150
 8214POPC   C1A62655  29.114  26.827   6.450
 8214POPC   D2A62656  29.103  26.854   6.750
 8214POPC   C3A62657  29.129  26.806   7.050
 8214POPC   C4A62658  29.157  26.783   7.350
 8214POPC   C1B62659  29.056  26.566   6.450
 8214POPC   C2B62660  29.030  26.571   6.750
 8214POPC   C3B62661  29.082  26.633   7.050
 8214POPC   C4B62662  29.062  26.578   7.350
 8215POPC   NC362663   1.952  29.920   5.550
 8215POPC   PO462664   2.031  29.899   5.850
 8215POPC   GL162665   1.999  29.947   6.150
 8215POPC   GL262666   1.901  30.032   6.150
 8215POPC   C1A62667   1.957  29.964   6.450
 8215POPC   D2A62668   1.961  29.941   6.750
 8215POPC   C3A62669   1.953  29.943   7.050
 8215POPC   C4A62670   1.996  29.895   7.350
 8215POPC   C1B62671   1.820  30.101   6.450
 8215POPC   C2B62672   1.873  30.177   6.750
 8215POPC   C3B62673   1.826  30.121   7.050
 8215POPC   C4B62674   1.893  30.139   7.350
 8216POPC   NC362675  12.112   9.013   5.550
 8216POPC   PO462676  12.071   8.932   5.850
 8216POPC   GL162677  12.054   9.004   6.150
 8216POPC   GL262678  12.023   8.873   6.150
 8216POPC   C1A62679  12.073   8.940   6.450
 8216POPC   D2A62680  12.118   8.942   6.750
 8216POPC   C3A62681  12.070   9.002   7.050
 8216POPC   C4A62682  12.092   9.013   7.350
 8216POPC   C1B62683  11.966   8.799   6.450
 8216POPC   C2B62684  11.982   8.792   6.750
 8216POPC   C3B62685  11.991   8.785   7.050
 8216POPC   C4B62686  11.932   8.787   7.350
 8217POPC   NC362687  35.325  15.987   5.550
 8217POPC   PO462688  35.356  15.966   5.850
 8217POPC   GL162689  35.401  16.002   6.150
 8217POPC   GL262690  35.393  16.078   6.150
 8217POPC   C1A62691  35.395  15.934   6.450
 8217POPC   D2A62692  35.356  15.921   6.750
 8217POPC   C3A62693  35.377  15.996   7.050
 8217POPC   C4A62694  35.399  15.950   7.350
 8217POPC   C1B62695  35.448  16.175   6.450
 8217POPC   C2B62696  35.429  16.151   6.750
 8217POPC   C3B62697  35.450  16.210   7.050
 8217POPC   C4B62698  35.366  16.166   7.350
 8218POPC   NC362699  42.334  39.232   5.550
 8218POPC   PO462700  42.285  39.213   5.850
 8218POPC   GL162701  42.287  39.260   6.150
 8218POPC   GL262702  42.244  39.217   6.150
 8218POPC   C1A62703  42.327  39.207   6.450
 8218POPC   D2A62704  42.294  39.216   6.750
 8218POPC   C3A62705  42.368  39.259   7.050
 8218POPC   C4A62706  42.303  39.215   7.350
 8218POPC   C1B62707  42.092  39.325   6.450
 8218POPC   C2B62708  42.117  39.297   6.750
 8218POPC   C3B62709  42.122  39.328   7.050
 8218POPC   C4B62710  42.058  39.342   7.350
 8219POPC   NC362711  37.700  39.986   5.550
 8219POPC   PO462712  37.719  40.016   5.850
 8219POPC   GL162713  37.644  39.961   6.150
 8219POPC   GL262714  37.581  40.011   6.150
 8219POPC   C1A62715  37.651  40.052   6.450
 8219POPC   D2A62716  37.725  40.052   6.750
 8219POPC   C3A62717  37.689  40.018   7.050
 8219POPC   C4A62718  37.648  39.998   7.350
 8219POPC   C1B62719  37.454  40.090   6.450
 8219POPC   C2B62720  37.455  40.064   6.750
 8219POPC   C3B62721  37.419  40.068   7.050
 8219POPC   C4B62722  37.389  40.039   7.350
 8220POPC   NC362723  15.947  31.493   5.550
 8220POPC   PO462724  15.993  31.496   5.850
 8220POPC   GL162725  15.974  31.489   6.150
 8220POPC   GL262726  15.905  31.570   6.150
 8220POPC   C1A62727  15.993  31.506   6.450
 8220POPC   D2A62728  15.992  31.510   6.750
 8220POPC   C3A62729  15.953  31.504   7.050
 8220POPC   C4A62730  15.985  31.450   7.350
 8220POPC   C1B62731  15.915  31.737   6.450
 8220POPC   C2B62732  15.877  31.734   6.750
 8220POPC   C3B62733  15.874  31.675   7.050
 8220POPC   C4B62734  15.892  31.724   7.350
 8221POPC   NC362735   4.293   4.301   5.550
 8221POPC   PO462736   4.335   4.336   5.850
 8221POPC   GL162737   4.328   4.349   6.150
 8221POPC   GL262738   4.148   4.299   6.150
 8221POPC   C1A62739   4.270   4.320   6.450
 8221POPC   D2A62740   4.362   4.356   6.750
 8221POPC   C3A62741   4.313   4.291   7.050
 8221POPC   C4A62742   4.364   4.341   7.350
 8221POPC   C1B62743   4.082   4.346   6.450
 8221POPC   C2B62744   4.049   4.340   6.750
 8221POPC   C3B62745   4.041   4.344   7.050
 8221POPC   C4B62746   4.083   4.380   7.350
 8222POPC   NC362747   0.479  34.612   5.550
 8222POPC   PO462748   0.464  34.594   5.850
 8222POPC   GL162749   0.472  34.564   6.150
 8222POPC   GL262750   0.544  34.630   6.150
 8222POPC   C1A62751   0.425  34.579   6.450
 8222POPC   D2A62752   0.439  34.547   6.750
 8222POPC   C3A62753   0.436  34.601   7.050
 8222POPC   C4A62754   0.438  34.573   7.350
 8222POPC   C1B62755   0.701  34.652   6.450
 8222POPC   C2B62756   0.696  34.623   6.750
 8222POPC   C3B62757   0.712  34.622   7.050
 8222POPC   C4B62758   0.733  34.652   7.350
 8223POPC   NC362759  12.868  22.124   5.550
 8223POPC   PO462760  12.835  22.158   5.850
 8223POPC   GL162761  12.890  22.180   6.150
 8223POPC   GL262762  13.010  22.134   6.150
 8223POPC   C1A62763  12.865  22.145   6.450
 8223POPC   D2A62764  12.810  22.191   6.750
 8223POPC   C3A62765  12.881  22.146   7.050
 8223POPC   C4A62766  12.817  22.186   7.350
 8223POPC   C1B62767  13.044  22.070   6.450
 8223POPC   C2B62768  13.139  22.073   6.750
 8223POPC   C3B62769  13.119  22.055   7.050
 8223POPC   C4B62770  13.048  22.035   7.350
 8224POPC   NC362771  26.023  40.004   5.550
 8224POPC   PO462772  26.073  40.038   5.850
 8224POPC   GL162773  26.038  39.991   6.150
 8224POPC   GL262774  26.111  39.905   6.150
 8224POPC   C1A62775  26.021  39.970   6.450
 8224POPC   D2A62776  26.061  39.972   6.750
 8224POPC   C3A62777  26.043  39.957   7.050
 8224POPC   C4A62778  26.083  39.968   7.350
 8224POPC   C1B62779  26.195  39.840   6.450
 8224POPC   C2B62780  26.172  39.762   6.750
 8224POPC   C3B62781  26.189  39.755   7.050
 8224POPC   C4B62782  26.205  39.777   7.350
 8225POPC   NC362783  28.351  21.387   5.550
 8225POPC   PO462784  28.402  21.426   5.850
 8225POPC   GL162785  28.326  21.361   6.150
 8225POPC   GL262786  28.324  21.541   6.150
 8225POPC   C1A62787  28.364  21.417   6.450
 8225POPC   D2A62788  28.374  21.370   6.750
 8225POPC   C3A62789  28.327  21.366   7.050
 8225POPC   C4A62790  28.388  21.434   7.350
 8225POPC   C1B62791  28.315  21.624   6.450
 8225POPC   C2B62792  28.295  21.618   6.750
 8225POPC   C3B62793  28.271  21.648   7.050
 8225POPC   C4B62794  28.271  21.601   7.350
 8226POPC   NC362795  26.842  43.837   5.550
 8226POPC   PO462796  26.776  43.911   5.850
 8226POPC   GL162797  26.824  43.852   6.150
 8226POPC   GL262798  26.903  43.796   6.150
 8226POPC   C1A62799  26.861  43.910   6.450
 8226POPC   D2A62800  26.788  43.906   6.750
 8226POPC   C3A62801  26.847  43.871   7.050
 8226POPC   C4A62802  26.804  43.857   7.350
 8226POPC   C1B62803  27.081  43.766   6.450
 8226POPC   C2B62804  27.061  43.817   6.750
 8226POPC   C3B62805  27.009  43.837   7.050
 8226POPC   C4B62806  27.066  43.835   7.350
 8227POPC   NC362807  29.925  34.551   5.550
 8227POPC   PO462808  29.961  34.546   5.850
 8227POPC   GL162809  29.951  34.603   6.150
 8227POPC   GL262810  29.783  34.565   6.150
 8227POPC   C1A62811  29.918  34.584   6.450
 8227POPC   D2A62812  29.880  34.530   6.750
 8227POPC   C3A62813  29.895  34.549   7.050
 8227POPC   C4A62814  29.904  34.589   7.350
 8227POPC   C1B62815  29.627  34.578   6.450
 8227POPC   C2B62816  29.678  34.614   6.750
 8227POPC   C3B62817  29.665  34.654   7.050
 8227POPC   C4B62818  29.705  34.625   7.350
 8228POPC   NC362819  28.367  15.953   5.550
 8228POPC   PO462820  28.340  15.993   5.850
 8228POPC   GL162821  28.334  15.912   6.150
 8228POPC   GL262822  28.217  16.011   6.150
 8228POPC   C1A62823  28.379  15.972   6.450
 8228POPC   D2A62824  28.359  15.931   6.750
 8228POPC   C3A62825  28.361  15.923   7.050
 8228POPC   C4A62826  28.386  15.949   7.350
 8228POPC   C1B62827  28.098  16.005   6.450
 8228POPC   C2B62828  28.151  15.982   6.750
 8228POPC   C3B62829  28.155  16.029   7.050
 8228POPC   C4B62830  28.077  15.951   7.350
 8229POPC   NC362831  33.771  22.121   5.550
 8229POPC   PO462832  33.806  22.165   5.850
 8229POPC   GL162833  33.808  22.207   6.150
 8229POPC   GL262834  33.874  22.235   6.150
 8229POPC   C1A62835  33.820  22.150   6.450
 8229POPC   D2A62836  33.752  22.182   6.750
 8229POPC   C3A62837  33.816  22.121   7.050
 8229POPC   C4A62838  33.799  22.179   7.350
 8229POPC   C1B62839  33.926  22.329   6.450
 8229POPC   C2B62840  34.012  22.333   6.750
 8229POPC   C3B62841  33.954  22.300   7.050
 8229POPC   C4B62842  33.988  22.388   7.350
 8230POPC   NC362843  32.281  14.356   5.550
 8230POPC   PO462844  32.251  14.373   5.850
 8230POPC   GL162845  32.232  14.393   6.150
 8230POPC   GL262846  32.415  14.430   6.150
 8230POPC   C1A62847  32.274  14.432   6.450
 8230POPC   D2A62848  32.281  14.353   6.750
 8230POPC   C3A62849  32.282  14.445   7.050
 8230POPC   C4A62850  32.244  14.369   7.350
 8230POPC   C1B62851  32.483  14.466   6.450
 8230POPC   C2B62852  32.540  14.461   6.750
 8230POPC   C3B62853  32.508  14.463   7.050
 8230POPC   C4B62854  32.471  14.450   7.350
 8231POPC   NC362855  11.332  29.914   5.550
 8231POPC   PO462856  11.326  29.896   5.850
 8231POPC   GL162857  11.278  29.884   6.150
 8231POPC   GL262858  11.202  29.930   6.150
 8231POPC   C1A62859  11.285  29.936   6.450
 8231POPC   D2A62860  11.328  29.907   6.750
 8231POPC   C3A62861  11.272  29.919   7.050
 8231POPC   C4A62862  11.341  29.894   7.350
 8231POPC   C1B62863  11.116  29.989   6.450
 8231POPC   C2B62864  11.096  30.075   6.750
 8231POPC   C3B62865  11.076  29.982   7.050
 8231POPC   C4B62866  11.044  30.063   7.350
 8232POPC   NC362867  21.390  39.218   5.550
 8232POPC   PO462868  21.409  39.255   5.850
 8232POPC   GL162869  21.392  39.255   6.150
 8232POPC   GL262870  21.286  39.089   6.150
 8232POPC   C1A62871  21.372  39.228   6.450
 8232POPC   D2A62872  21.418  39.250   6.750
 8232POPC   C3A62873  21.339  39.199   7.050
 8232POPC   C4A62874  21.409  39.200   7.350
 8232POPC   C1B62875  21.258  39.014   6.450
 8232POPC   C2B62876  21.300  38.989   6.750
 8232POPC   C3B62877  21.266  38.968   7.050
 8232POPC   C4B62878  21.268  38.961   7.350
 8233POPC   NC362879   7.394  43.158   5.550
 8233POPC   PO462880   7.384  43.060   5.850
 8233POPC   GL162881   7.373  43.096   6.150
 8233POPC   GL262882   7.295  43.078   6.150
 8233POPC   C1A62883   7.471  43.089   6.450
 8233POPC   D2A62884   7.407  43.113   6.750
 8233POPC   C3A62885   7.443  43.100   7.050
 8233POPC   C4A62886   7.430  43.156   7.350
 8233POPC   C1B62887   7.136  43.136   6.450
 8233POPC   C2B62888   7.168  43.069   6.750
 8233POPC   C3B62889   7.215  43.073   7.050
 8233POPC   C4B62890   7.123  43.064   7.350
 8234POPC   NC362891   1.240  15.926   5.550
 8234POPC   PO462892   1.239  15.915   5.850
 8234POPC   GL162893   1.242  15.930   6.150
 8234POPC   GL262894   1.184  16.044   6.150
 8234POPC   C1A62895   1.187  15.988   6.450
 8234POPC   D2A62896   1.263  15.965   6.750
 8234POPC   C3A62897   1.236  15.995   7.050
 8234POPC   C4A62898   1.211  15.979   7.350
 8234POPC   C1B62899   1.028  16.174   6.450
 8234POPC   C2B62900   1.091  16.145   6.750
 8234POPC   C3B62901   1.106  16.160   7.050
 8234POPC   C4B62902   1.020  16.118   7.350
 8235POPC   NC362903   2.766  17.555   5.550
 8235POPC   PO462904   2.783  17.469   5.850
 8235POPC   GL162905   2.736  17.471   6.150
 8235POPC   GL262906   2.845  17.541   6.150
 8235POPC   C1A62907   2.725  17.523   6.450
 8235POPC   D2A62908   2.775  17.485   6.750
 8235POPC   C3A62909   2.792  17.509   7.050
 8235POPC   C4A62910   2.764  17.486   7.350
 8235POPC   C1B62911   3.007  17.488   6.450
 8235POPC   C2B62912   2.967  17.501   6.750
 8235POPC   C3B62913   2.983  17.511   7.050
 8235POPC   C4B62914   3.001  17.543   7.350
 8236POPC   NC362915  15.993  15.987   5.550
 8236POPC   PO462916  15.954  15.997   5.850
 8236POPC   GL162917  15.915  16.001   6.150
 8236POPC   GL262918  15.879  15.957   6.150
 8236POPC   C1A62919  15.962  15.978   6.450
 8236POPC   D2A62920  15.928  15.917   6.750
 8236POPC   C3A62921  15.956  15.960   7.050
 8236POPC   C4A62922  15.939  15.961   7.350
 8236POPC   C1B62923  15.722  15.953   6.450
 8236POPC   C2B62924  15.709  15.958   6.750
 8236POPC   C3B62925  15.688  15.941   7.050
 8236POPC   C4B62926  15.707  15.908   7.350
 8237POPC   NC362927  39.244  28.362   5.550
 8237POPC   PO462928  39.205  28.389   5.850
 8237POPC   GL162929  39.224  28.408   6.150
 8237POPC   GL262930  39.396  28.300   6.150
 8237POPC   C1A62931  39.266  28.391   6.450
 8237POPC   D2A62932  39.236  28.407   6.750
 8237POPC   C3A62933  39.205  28.377   7.050
 8237POPC   C4A62934  39.189  28.358   7.350
 8237POPC   C1B62935  39.475  28.238   6.450
 8237POPC   C2B62936  39.468  28.245   6.750
 8237POPC   C3B62937  39.438  28.226   7.050
 8237POPC   C4B62938  39.438  28.314   7.350
 8238POPC   NC362939  12.103  14.432   5.550
 8238POPC   PO462940  12.102  14.408   5.850
 8238POPC   GL162941  12.076  14.439   6.150
 8238POPC   GL262942  12.033  14.312   6.150
 8238POPC   C1A62943  12.027  14.380   6.450
 8238POPC   D2A62944  12.099  14.357   6.750
 8238POPC   C3A62945  12.045  14.391   7.050
 8238POPC   C4A62946  12.098  14.408   7.350
 8238POPC   C1B62947  12.026  14.190   6.450
 8238POPC   C2B62948  12.017  14.155   6.750
 8238POPC   C3B62949  12.064  14.176   7.050
 8238POPC   C4B62950  12.029  14.138   7.350
 8239POPC   NC362951  28.376  38.466   5.550
 8239POPC   PO462952  28.326  38.468   5.850
 8239POPC   GL162953  28.334  38.479   6.150
 8239POPC   GL262954  28.415  38.307   6.150
 8239POPC   C1A62955  28.329  38.479   6.450
 8239POPC   D2A62956  28.376  38.486   6.750
 8239POPC   C3A62957  28.394  38.482   7.050
 8239POPC   C4A62958  28.366  38.424   7.350
 8239POPC   C1B62959  28.485  38.299   6.450
 8239POPC   C2B62960  28.565  38.237   6.750
 8239POPC   C3B62961  28.529  38.265   7.050
 8239POPC   C4B62962  28.485  38.302   7.350
 8240POPC   NC362963  43.878  18.296   5.550
 8240POPC   PO462964  43.841  18.308   5.850
 8240POPC   GL162965  43.904  18.277   6.150
 8240POPC   GL262966  43.897  18.207   6.150
 8240POPC   C1A62967  43.844  18.271   6.450
 8240POPC   D2A62968  43.921  18.239   6.750
 8240POPC   C3A62969  43.899  18.288   7.050
 8240POPC   C4A62970  43.874  18.332   7.350
 8240POPC   C1B62971  43.860  18.055   6.450
 8240POPC   C2B62972  43.879  17.994   6.750
 8240POPC   C3B62973  43.908  18.062   7.050
 8240POPC   C4B62974  43.855  18.015   7.350
 8241POPC   NC362975  41.537  43.934   5.550
 8241POPC   PO462976  41.591  43.847   5.850
 8241POPC   GL162977  41.600  43.862   6.150
 8241POPC   GL262978  41.579  44.029   6.150
 8241POPC   C1A62979  41.600  43.848   6.450
 8241POPC   D2A62980  41.604  43.846   6.750
 8241POPC   C3A62981  41.575  43.894   7.050
 8241POPC   C4A62982  41.554  43.896   7.350
 8241POPC   C1B62983  41.617  44.110   6.450
 8241POPC   C2B62984  41.595  44.081   6.750
 8241POPC   C3B62985  41.607  44.154   7.050
 8241POPC   C4B62986  41.624  44.088   7.350
 8242POPC   NC362987  18.308  18.253   5.550
 8242POPC   PO462988  18.276  18.305   5.850
 8242POPC   GL162989  18.302  18.250   6.150
 8242POPC   GL262990  18.431  18.345   6.150
 8242POPC   C1A62991  18.254  18.246   6.450
 8242POPC   D2A62992  18.287  18.327   6.750
 8242POPC   C3A62993  18.234  18.254   7.050
 8242POPC   C4A62994  18.330  18.251   7.350
 8242POPC   C1B62995  18.557  18.345   6.450
 8242POPC   C2B62996  18.568  18.344   6.750
 8242POPC   C3B62997  18.506  18.387   7.050
 8242POPC   C4B62998  18.546  18.360   7.350
 8243POPC   NC362999  32.205  18.238   5.550
 8243POPC   PO463000  32.257  18.327   5.850
 8243POPC   GL163001  32.290  18.328   6.150
 8243POPC   GL263002  32.342  18.348   6.150
 8243POPC   C1A63003  32.280  18.257   6.450
 8243POPC   D2A63004  32.219  18.270   6.750
 8243POPC   C3A63005  32.243  18.330   7.050
 8243POPC   C4A63006  32.223  18.288   7.350
 8243POPC   C1B63007  32.471  18.390   6.450
 8243POPC   C2B63008  32.528  18.338   6.750
 8243POPC   C3B63009  32.478  18.355   7.050
 8243POPC   C4B63010  32.474  18.339   7.350
 8244POPC   NC363011  37.697  36.170   5.550
 8244POPC   PO463012  37.637  36.170   5.850
 8244POPC   GL163013  37.706  36.126   6.150
 8244POPC   GL263014  37.634  36.023   6.150
 8244POPC   C1A63015  37.674  36.148   6.450
 8244POPC   D2A63016  37.653  36.139   6.750
 8244POPC   C3A63017  37.694  36.107   7.050
 8244POPC   C4A63018  37.644  36.169   7.350
 8244POPC   C1B63019  37.498  36.007   6.450
 8244POPC   C2B63020  37.441  35.983   6.750
 8244POPC   C3B63021  37.485  35.969   7.050
 8244POPC   C4B63022  37.512  35.968   7.350
 8245POPC   NC363023  19.808  44.701   5.550
 8245POPC   PO463024  19.852  44.701   5.850
 8245POPC   GL163025  19.820  44.674   6.150
 8245POPC   GL263026  19.905  44.756   6.150
 8245POPC   C1A63027  19.788  44.695   6.450
 8245POPC   D2A63028  19.864  44.627   6.750
 8245POPC   C3A63029  19.853  44.695   7.050
 8245POPC   C4A63030  19.876  44.617   7.350
 8245POPC   C1B63031  20.030  44.904   6.450
 8245POPC   C2B63032  19.984  44.872   6.750
 8245POPC   C3B63033  20.013  44.887   7.050
 8245POPC   C4B63034  19.946  44.836   7.350
 8246POPC   NC363035  20.644  15.163   5.550
 8246POPC   PO463036  20.587  15.166   5.850
 8246POPC   GL163037  20.580  15.136   6.150
 8246POPC   GL263038  20.517  15.209   6.150
 8246POPC   C1A63039  20.654  15.146   6.450
 8246POPC   D2A63040  20.577  15.147   6.750
 8246POPC   C3A63041  20.657  15.152   7.050
 8246POPC   C4A63042  20.594  15.194   7.350
 8246POPC   C1B63043  20.340  15.287   6.450
 8246POPC   C2B63044  20.344  15.208   6.750
 8246POPC   C3B63045  20.368  15.205   7.050
 8246POPC   C4B63046  20.415  15.234   7.350
 8247POPC   NC363047  14.358   6.601   5.550
 8247POPC   PO463048  14.386   6.605   5.850
 8247POPC   GL163049  14.381   6.618   6.150
 8247POPC   GL263050  14.364   6.695   6.150
 8247POPC   C1A63051  14.426   6.629   6.450
 8247POPC   D2A63052  14.388   6.605   6.750
 8247POPC   C3A63053  14.416   6.690   7.050
 8247POPC   C4A63054  14.363   6.667   7.350
 8247POPC   C1B63055  14.251   6.871   6.450
 8247POPC   C2B63056  14.196   6.854   6.750
 8247POPC   C3B63057  14.272   6.783   7.050
 8247POPC   C4B63058  14.260   6.819   7.350
 8248POPC   NC363059  14.428  33.767   5.550
 8248POPC   PO463060  14.397  33.823   5.850
 8248POPC   GL163061  14.432  33.831   6.150
 8248POPC   GL263062  14.538  33.824   6.150
 8248POPC   C1A63063  14.423  33.765   6.450
 8248POPC   D2A63064  14.383  33.752   6.750
 8248POPC   C3A63065  14.366  33.786   7.050
 8248POPC   C4A63066  14.377  33.836   7.350
 8248POPC   C1B63067  14.673  33.837   6.450
 8248POPC   C2B63068  14.639  33.860   6.750
 8248POPC   C3B63069  14.624  33.860   7.050
 8248POPC   C4B63070  14.673  33.839   7.350
 8249POPC   NC363071  18.263  29.097   5.550
 8249POPC   PO463072  18.264  29.120   5.850
 8249POPC   GL163073  18.287  29.132   6.150
 8249POPC   GL263074  18.290  29.050   6.150
 8249POPC   C1A63075  18.278  29.154   6.450
 8249POPC   D2A63076  18.276  29.160   6.750
 8249POPC   C3A63077  18.291  29.188   7.050
 8249POPC   C4A63078  18.238  29.185   7.350
 8249POPC   C1B63079  18.188  28.871   6.450
 8249POPC   C2B63080  18.211  28.905   6.750
 8249POPC   C3B63081  18.199  28.917   7.050
 8249POPC   C4B63082  18.271  28.910   7.350
 8250POPC   NC363083  24.480  12.026   5.550
 8250POPC   PO463084  24.507  12.088   5.850
 8250POPC   GL163085  24.498  12.058   6.150
 8250POPC   GL263086  24.391  12.140   6.150
 8250POPC   C1A63087  24.508  12.052   6.450
 8250POPC   D2A63088  24.444  12.094   6.750
 8250POPC   C3A63089  24.512  12.073   7.050
 8250POPC   C4A63090  24.468  12.099   7.350
 8250POPC   C1B63091  24.311  12.217   6.450
 8250POPC   C2B63092  24.257  12.178   6.750
 8250POPC   C3B63093  24.234  12.216   7.050
 8250POPC   C4B63094  24.226  12.222   7.350
 8251POPC   NC363095  19.875  12.830   5.550
 8251POPC   PO463096  19.867  12.901   5.850
 8251POPC   GL163097  19.821  12.891   6.150
 8251POPC   GL263098  19.836  12.726   6.150
 8251POPC   C1A63099  19.786  12.891   6.450
 8251POPC   D2A63100  19.855  12.805   6.750
 8251POPC   C3A63101  19.838  12.829   7.050
 8251POPC   C4A63102  19.801  12.838   7.350
 8251POPC   C1B63103  19.891  12.644   6.450
 8251POPC   C2B63104  19.903  12.591   6.750
 8251POPC   C3B63105  19.892  12.576   7.050
 8251POPC   C4B63106  19.930  12.626   7.350
 8252POPC   NC363107  12.110  43.933   5.550
 8252POPC   PO463108  12.121  43.868   5.850
 8252POPC   GL163109  12.112  43.880   6.150
 8252POPC   GL263110  12.175  43.912   6.150
 8252POPC   C1A63111  12.099  43.859   6.450
 8252POPC   D2A63112  12.066  43.860   6.750
 8252POPC   C3A63113  12.054  43.889   7.050
 8252POPC   C4A63114  12.094  43.904   7.350
 8252POPC   C1B63115  12.251  44.050   6.450
 8252POPC   C2B63116  12.287  43.972   6.750
 8252POPC   C3B63117  12.293  44.051   7.050
 8252POPC   C4B63118  12.277  44.016   7.350
 8253POPC   NC363119  15.188  44.685   5.550
 8253POPC   PO463120  15.163  44.615   5.850
 8253POPC   GL163121  15.158  44.642   6.150
 8253POPC   GL263122  15.044  44.605   6.150
 8253POPC   C1A63123  15.133  44.624   6.450
 8253POPC   D2A63124  15.170  44.675   6.750
 8253POPC   C3A63125  15.181  44.653   7.050
 8253POPC   C4A63126  15.182  44.652   7.350
 8253POPC   C1B63127  14.992  44.619   6.450
 8253POPC   C2B63128  14.902  44.601   6.750
 8253POPC   C3B63129  14.932  44.531   7.050
 8253POPC   C4B63130  14.980  44.621   7.350
 8254POPC   NC363131  43.933  38.424   5.550
 8254POPC   PO463132  43.892  38.492   5.850
 8254POPC   GL163133  43.901  38.455   6.150
 8254POPC   GL263134  43.752  38.379   6.150
 8254POPC   C1A63135  43.917  38.423   6.450
 8254POPC   D2A63136  43.846  38.472   6.750
 8254POPC   C3A63137  43.906  38.417   7.050
 8254POPC   C4A63138  43.892  38.502   7.350
 8254POPC   C1B63139  43.704  38.332   6.450
 8254POPC   C2B63140  43.668  38.373   6.750
 8254POPC   C3B63141  43.628  38.338   7.050
 8254POPC   C4B63142  43.699  38.342   7.350
 8255POPC   NC363143  12.843  17.522   5.550
 8255POPC   PO463144  12.812  17.521   5.850
 8255POPC   GL163145  12.814  17.557   6.150
 8255POPC   GL263146  12.822  17.616   6.150
 8255POPC   C1A63147  12.802  17.500   6.450
 8255POPC   D2A63148  12.834  17.462   6.750
 8255POPC   C3A63149  12.823  17.464   7.050
 8255POPC   C4A63150  12.870  17.535   7.350
 8255POPC   C1B63151  12.726  17.793   6.450
 8255POPC   C2B63152  12.788  17.695   6.750
 8255POPC   C3B63153  12.817  17.724   7.050
 8255POPC   C4B63154  12.771  17.733   7.350
 8256POPC   NC363155  29.932   0.414   5.550
 8256POPC   PO463156  29.896   0.486   5.850
 8256POPC   GL163157  29.926   0.452   6.150
 8256POPC   GL263158  30.000   0.541   6.150
 8256POPC   C1A63159  29.960   0.399   6.450
 8256POPC   D2A63160  29.963   0.424   6.750
 8256POPC   C3A63161  29.953   0.438   7.050
 8256POPC   C4A63162  29.942   0.440   7.350
 8256POPC   C1B63163  30.073   0.563   6.450
 8256POPC   C2B63164  30.155   0.602   6.750
 8256POPC   C3B63165  30.088   0.610   7.050
 8256POPC   C4B63166  30.150   0.609   7.350
 8257POPC   NC363167   4.277  30.740   5.550
 8257POPC   PO463168   4.310  30.727   5.850
 8257POPC   GL163169   4.307  30.712   6.150
 8257POPC   GL263170   4.425  30.600   6.150
 8257POPC   C1A63171   4.313  30.727   6.450
 8257POPC   D2A63172   4.292  30.704   6.750
 8257POPC   C3A63173   4.332  30.678   7.050
 8257POPC   C4A63174   4.345  30.660   7.350
 8257POPC   C1B63175   4.547  30.523   6.450
 8257POPC   C2B63176   4.524  30.584   6.750
 8257POPC   C3B63177   4.543  30.568   7.050
 8257POPC   C4B63178   4.486  30.574   7.350
 8258POPC   NC363179  29.099  43.889   5.550
 8258POPC   PO463180  29.101  43.922   5.850
 8258POPC   GL163181  29.129  43.850   6.150
 8258POPC   GL263182  28.977  43.938   6.150
 8258POPC   C1A63183  29.099  43.934   6.450
 8258POPC   D2A63184  29.158  43.861   6.750
 8258POPC   C3A63185  29.099  43.890   7.050
 8258POPC   C4A63186  29.103  43.873   7.350
 8258POPC   C1B63187  28.897  43.918   6.450
 8258POPC   C2B63188  28.906  43.954   6.750
 8258POPC   C3B63189  28.925  43.920   7.050
 8258POPC   C4B63190  28.898  43.912   7.350
 8259POPC   NC363191  22.117  14.410   5.550
 8259POPC   PO463192  22.149  14.376   5.850
 8259POPC   GL163193  22.192  14.443   6.150
 8259POPC   GL263194  22.041  14.371   6.150
 8259POPC   C1A63195  22.126  14.432   6.450
 8259POPC   D2A63196  22.192  14.383   6.750
 8259POPC   C3A63197  22.144  14.415   7.050
 8259POPC   C4A63198  22.126  14.384   7.350
 8259POPC   C1B63199  21.875  14.416   6.450
 8259POPC   C2B63200  21.941  14.397   6.750
 8259POPC   C3B63201  21.885  14.420   7.050
 8259POPC   C4B63202  21.936  14.415   7.350
 8260POPC   NC363203  16.703  18.256   5.550
 8260POPC   PO463204  16.738  18.253   5.850
 8260POPC   GL163205  16.713  18.262   6.150
 8260POPC   GL263206  16.864  18.318   6.150
 8260POPC   C1A63207  16.721  18.327   6.450
 8260POPC   D2A63208  16.759  18.242   6.750
 8260POPC   C3A63209  16.751  18.263   7.050
 8260POPC   C4A63210  16.704  18.258   7.350
 8260POPC   C1B63211  17.002  18.312   6.450
 8260POPC   C2B63212  16.990  18.324   6.750
 8260POPC   C3B63213  16.985  18.283   7.050
 8260POPC   C4B63214  16.956  18.311   7.350
 8261POPC   NC363215  15.194  12.052   5.550
 8261POPC   PO463216  15.216  12.052   5.850
 8261POPC   GL163217  15.192  12.120   6.150
 8261POPC   GL263218  15.083  12.105   6.150
 8261POPC   C1A63219  15.202  12.119   6.450
 8261POPC   D2A63220  15.194  12.073   6.750
 8261POPC   C3A63221  15.190  12.094   7.050
 8261POPC   C4A63222  15.174  12.060   7.350
 8261POPC   C1B63223  14.890  12.104   6.450
 8261POPC   C2B63224  14.969  12.146   6.750
 8261POPC   C3B63225  14.898  12.149   7.050
 8261POPC   C4B63226  14.972  12.162   7.350
 8262POPC   NC363227  41.561  29.935   5.550
 8262POPC   PO463228  41.584  29.890   5.850
 8262POPC   GL163229  41.534  29.905   6.150
 8262POPC   GL263230  41.504  29.814   6.150
 8262POPC   C1A63231  41.579  29.960   6.450
 8262POPC   D2A63232  41.558  29.939   6.750
 8262POPC   C3A63233  41.526  29.903   7.050
 8262POPC   C4A63234  41.551  29.928   7.350
 8262POPC   C1B63235  41.423  29.725   6.450
 8262POPC   C2B63236  41.366  29.739   6.750
 8262POPC   C3B63237  41.435  29.734   7.050
 8262POPC   C4B63238  41.382  29.694   7.350
 8263POPC   NC363239  23.711   7.420   5.550
 8263POPC   PO463240  23.746   7.470   5.850
 8263POPC   GL163241  23.706   7.393   6.150
 8263POPC   GL263242  23.585   7.364   6.150
 8263POPC   C1A63243  23.739   7.399   6.450
 8263POPC   D2A63244  23.742   7.388   6.750
 8263POPC   C3A63245  23.749   7.407   7.050
 8263POPC   C4A63246  23.711   7.455   7.350
 8263POPC   C1B63247  23.532   7.336   6.450
 8263POPC   C2B63248  23.538   7.332   6.750
 8263POPC   C3B63249  23.526   7.303   7.050
 8263POPC   C4B63250  23.526   7.299   7.350
 8264POPC   NC363251  31.443   6.596   5.550
 8264POPC   PO463252  31.449   6.661   5.850
 8264POPC   GL163253  31.476   6.687   6.150
 8264POPC   GL263254  31.592   6.578   6.150
 8264POPC   C1A63255  31.476   6.669   6.450
 8264POPC   D2A63256  31.460   6.600   6.750
 8264POPC   C3A63257  31.511   6.691   7.050
 8264POPC   C4A63258  31.428   6.684   7.350
 8264POPC   C1B63259  31.674   6.480   6.450
 8264POPC   C2B63260  31.678   6.459   6.750
 8264POPC   C3B63261  31.646   6.408   7.050
 8264POPC   C4B63262  31.632   6.413   7.350
 8265POPC   NC363263  30.650  30.705   5.550
 8265POPC   PO463264  30.745  30.699   5.850
 8265POPC   GL163265  30.666  30.737   6.150
 8265POPC   GL263266  30.604  30.731   6.150
 8265POPC   C1A63267  30.715  30.653   6.450
 8265POPC   D2A63268  30.680  30.723   6.750
 8265POPC   C3A63269  30.685  30.735   7.050
 8265POPC   C4A63270  30.649  30.647   7.350
 8265POPC   C1B63271  30.417  30.818   6.450
 8265POPC   C2B63272  30.485  30.773   6.750
 8265POPC   C3B63273  30.449  30.757   7.050
 8265POPC   C4B63274  30.477  30.749   7.350
 8266POPC   NC363275  38.432  24.500   5.550
 8266POPC   PO463276  38.438  24.449   5.850
 8266POPC   GL163277  38.422  24.494   6.150
 8266POPC   GL263278  38.530  24.510   6.150
 8266POPC   C1A63279  38.470  24.470   6.450
 8266POPC   D2A63280  38.442  24.525   6.750
 8266POPC   C3A63281  38.431  24.477   7.050
 8266POPC   C4A63282  38.449  24.446   7.350
 8266POPC   C1B63283  38.724  24.500   6.450
 8266POPC   C2B63284  38.730  24.574   6.750
 8266POPC   C3B63285  38.711  24.491   7.050
 8266POPC   C4B63286  38.714  24.516   7.350
 8267POPC   NC363287   1.978  33.037   5.550
 8267POPC   PO463288   2.015  33.033   5.850
 8267POPC   GL163289   2.031  32.997   6.150
 8267POPC   GL263290   1.902  33.048   6.150
 8267POPC   C1A63291   2.023  33.002   6.450
 8267POPC   D2A63292   2.025  33.013   6.750
 8267POPC   C3A63293   1.967  33.025   7.050
 8267POPC   C4A63294   1.989  33.069   7.350
 8267POPC   C1B63295   1.792  33.173   6.450
 8267POPC   C2B63296   1.735  33.133   6.750
 8267POPC   C3B63297   1.799  33.132   7.050
 8267POPC   C4B63298   1.798  33.140   7.350
 8268POPC   NC363299   7.466  11.284   5.550
 8268POPC   PO463300   7.452  11.283   5.850
 8268POPC   GL163301   7.438  11.320   6.150
 8268POPC   GL263302   7.407  11.160   6.150
 8268POPC   C1A63303   7.437  11.283   6.450
 8268POPC   D2A63304   7.416  11.257   6.750
 8268POPC   C3A63305   7.447  11.326   7.050
 8268POPC   C4A63306   7.445  11.250   7.350
 8268POPC   C1B63307   7.373  11.028   6.450
 8268POPC   C2B63308   7.377  11.072   6.750
 8268POPC   C3B63309   7.393  11.082   7.050
 8268POPC   C4B63310   7.409  11.038   7.350
 8269POPC   NC363311  14.435  26.013   5.550
 8269POPC   PO463312  14.426  26.038   5.850
 8269POPC   GL163313  14.396  26.030   6.150
 8269POPC   GL263314  14.344  25.964   6.150
 8269POPC   C1A63315  14.436  26.069   6.450
 8269POPC   D2A63316  14.380  26.050   6.750
 8269POPC   C3A63317  14.385  25.996   7.050
 8269POPC   C4A63318  14.414  26.001   7.350
 8269POPC   C1B63319  14.344  25.831   6.450
 8269POPC   C2B63320  14.358  25.818   6.750
 8269POPC   C3B63321  14.379  25.807   7.050
 8269POPC   C4B63322  14.374  25.824   7.350
 8270POPC   NC363323  19.015   9.731   5.550
 8270POPC   PO463324  19.070   9.708   5.850
 8270POPC   GL163325  19.063   9.795   6.150
 8270POPC   GL263326  19.156   9.775   6.150
 8270POPC   C1A63327  19.094   9.780   6.450
 8270POPC   D2A63328  19.092   9.748   6.750
 8270POPC   C3A63329  19.038   9.773   7.050
 8270POPC   C4A63330  19.056   9.717   7.350
 8270POPC   C1B63331  19.279   9.693   6.450
 8270POPC   C2B63332  19.276   9.768   6.750
 8270POPC   C3B63333  19.340   9.727   7.050
 8270POPC   C4B63334  19.283   9.717   7.350
 8271POPC   NC363335  22.950  19.791   5.550
 8271POPC   PO463336  22.910  19.821   5.850
 8271POPC   GL163337  22.972  19.815   6.150
 8271POPC   GL263338  23.007  19.901   6.150
 8271POPC   C1A63339  22.955  19.837   6.450
 8271POPC   D2A63340  22.979  19.839   6.750
 8271POPC   C3A63341  22.936  19.873   7.050
 8271POPC   C4A63342  22.987  19.789   7.350
 8271POPC   C1B63343  23.054  20.028   6.450
 8271POPC   C2B63344  23.073  20.076   6.750
 8271POPC   C3B63345  23.090  19.984   7.050
 8271POPC   C4B63346  23.082  20.041   7.350
 8272POPC   NC363347   2.742  11.276   5.550
 8272POPC   PO463348   2.774  11.288   5.850
 8272POPC   GL163349   2.726  11.311   6.150
 8272POPC   GL263350   2.809  11.351   6.150
 8272POPC   C1A63351   2.756  11.300   6.450
 8272POPC   D2A63352   2.777  11.304   6.750
 8272POPC   C3A63353   2.732  11.316   7.050
 8272POPC   C4A63354   2.793  11.336   7.350
 8272POPC   C1B63355   2.952  11.497   6.450
 8272POPC   C2B63356   2.915  11.472   6.750
 8272POPC   C3B63357   2.900  11.476   7.050
 8272POPC   C4B63358   2.906  11.445   7.350
 8273POPC   NC363359  41.571   4.278   5.550
 8273POPC   PO463360  41.595   4.288   5.850
 8273POPC   GL163361  41.574   4.306   6.150
 8273POPC   GL263362  41.660   4.346   6.150
 8273POPC   C1A63363  41.539   4.354   6.450
 8273POPC   D2A63364  41.583   4.294   6.750
 8273POPC   C3A63365  41.561   4.290   7.050
 8273POPC   C4A63366  41.514   4.273   7.350
 8273POPC   C1B63367  41.819   4.380   6.450
 8273POPC   C2B63368  41.829   4.375   6.750
 8273POPC   C3B63369  41.791   4.356   7.050
 8273POPC   C4B63370  41.842   4.374   7.350
 8274POPC   NC363371  10.491  17.520   5.550
 8274POPC   PO463372  10.509  17.479   5.850
 8274POPC   GL163373  10.542  17.473   6.150
 8274POPC   GL263374  10.363  17.573   6.150
 8274POPC   C1A63375  10.548  17.539   6.450
 8274POPC   D2A63376  10.519  17.517   6.750
 8274POPC   C3A63377  10.507  17.511   7.050
 8274POPC   C4A63378  10.550  17.512   7.350
 8274POPC   C1B63379  10.333  17.591   6.450
 8274POPC   C2B63380  10.286  17.566   6.750
 8274POPC   C3B63381  10.288  17.576   7.050
 8274POPC   C4B63382  10.280  17.598   7.350
 8275POPC   NC363383  29.953  11.253   5.550
 8275POPC   PO463384  29.901  11.282   5.850
 8275POPC   GL163385  29.946  11.349   6.150
 8275POPC   GL263386  29.912  11.409   6.150
 8275POPC   C1A63387  29.915  11.325   6.450
 8275POPC   D2A63388  29.961  11.259   6.750
 8275POPC   C3A63389  29.934  11.292   7.050
 8275POPC   C4A63390  29.955  11.273   7.350
 8275POPC   C1B63391  29.823  11.529   6.450
 8275POPC   C2B63392  29.848  11.580   6.750
 8275POPC   C3B63393  29.873  11.504   7.050
 8275POPC   C4B63394  29.818  11.525   7.350
 8276POPC   NC363395  29.920  30.672   5.550
 8276POPC   PO463396  29.965  30.675   5.850
 8276POPC   GL163397  29.952  30.681   6.150
 8276POPC   GL263398  29.862  30.841   6.150
 8276POPC   C1A63399  29.894  30.727   6.450
 8276POPC   D2A63400  29.872  30.699   6.750
 8276POPC   C3A63401  29.929  30.686   7.050
 8276POPC   C4A63402  29.940  30.733   7.350
 8276POPC   C1B63403  29.791  30.961   6.450
 8276POPC   C2B63404  29.777  30.889   6.750
 8276POPC   C3B63405  29.767  30.888   7.050
 8276POPC   C4B63406  29.808  30.877   7.350
 8277POPC   NC363407  19.026   7.462   5.550
 8277POPC   PO463408  19.019   7.465   5.850
 8277POPC   GL163409  19.039   7.449   6.150
 8277POPC   GL263410  19.062   7.537   6.150
 8277POPC   C1A63411  19.025   7.406   6.450
 8277POPC   D2A63412  19.037   7.456   6.750
 8277POPC   C3A63413  19.035   7.468   7.050
 8277POPC   C4A63414  19.038   7.447   7.350
 8277POPC   C1B63415  19.109   7.708   6.450
 8277POPC   C2B63416  19.102   7.666   6.750
 8277POPC   C3B63417  19.118   7.676   7.050
 8277POPC   C4B63418  19.166   7.670   7.350
 8278POPC   NC363419  18.284  32.274   5.550
 8278POPC   PO463420  18.313  32.249   5.850
 8278POPC   GL163421  18.323  32.214   6.150
 8278POPC   GL263422  18.225  32.378   6.150
 8278POPC   C1A63423  18.298  32.223   6.450
 8278POPC   D2A63424  18.310  32.223   6.750
 8278POPC   C3A63425  18.242  32.265   7.050
 8278POPC   C4A63426  18.326  32.219   7.350
 8278POPC   C1B63427  18.162  32.447   6.450
 8278POPC   C2B63428  18.192  32.455   6.750
 8278POPC   C3B63429  18.207  32.487   7.050
 8278POPC   C4B63430  18.197  32.469   7.350
 8279POPC   NC363431   9.710  12.094   5.550
 8279POPC   PO463432   9.768  12.036   5.850
 8279POPC   GL163433   9.707  12.106   6.150
 8279POPC   GL263434   9.825  11.955   6.150
 8279POPC   C1A63435   9.748  12.032   6.450
 8279POPC   D2A63436   9.794  12.065   6.750
 8279POPC   C3A63437   9.738  12.032   7.050
 8279POPC   C4A63438   9.765  12.085   7.350
 8279POPC   C1B63439   9.988  11.933   6.450
 8279POPC   C2B63440   9.948  11.926   6.750
 8279POPC   C3B63441   9.991  11.948   7.050
 8279POPC   C4B63442   9.981  11.913   7.350
 8280POPC   NC363443  33.030  32.212   5.550
 8280POPC   PO463444  33.017  32.203   5.850
 8280POPC   GL163445  32.995  32.259   6.150
 8280POPC   GL263446  32.961  32.385   6.150
 8280POPC   C1A63447  32.991  32.226   6.450
 8280POPC   D2A63448  33.026  32.253   6.750
 8280POPC   C3A63449  32.977  32.278   7.050
 8280POPC   C4A63450  33.069  32.238   7.350
 8280POPC   C1B63451  32.916  32.494   6.450
 8280POPC   C2B63452  32.840  32.422   6.750
 8280POPC   C3B63453  32.891  32.469   7.050
 8280POPC   C4B63454  32.924  32.489   7.350
 8281POPC   NC363455   1.192  40.827   5.550
 8281POPC   PO463456   1.245  40.810   5.850
 8281POPC   GL163457   1.184  40.802   6.150
 8281POPC   GL263458   1.255  40.934   6.150
 8281POPC   C1A63459   1.196  40.785   6.450
 8281POPC   D2A63460   1.251  40.779   6.750
 8281POPC   C3A63461   1.199  40.746   7.050
 8281POPC   C4A63462   1.203  40.822   7.350
 8281POPC   C1B63463   1.236  41.068   6.450
 8281POPC   C2B63464   1.204  41.057   6.750
 8281POPC   C3B63465   1.241  41.059   7.050
 8281POPC   C4B63466   1.240  41.042   7.350
 8282POPC   NC363467   3.547  40.818   5.550
 8282POPC   PO463468   3.559  40.806   5.850
 8282POPC   GL163469   3.531  40.783   6.150
 8282POPC   GL263470   3.420  40.703   6.150
 8282POPC   C1A63471   3.571  40.744   6.450
 8282POPC   D2A63472   3.521  40.754   6.750
 8282POPC   C3A63473   3.493  40.750   7.050
 8282POPC   C4A63474   3.528  40.757   7.350
 8282POPC   C1B63475   3.366  40.714   6.450
 8282POPC   C2B63476   3.281  40.669   6.750
 8282POPC   C3B63477   3.344  40.663   7.050
 8282POPC   C4B63478   3.366  40.674   7.350
 8283POPC   NC363479  40.016  13.595   5.550
 8283POPC   PO463480  40.056  13.620   5.850
 8283POPC   GL163481  40.032  13.601   6.150
 8283POPC   GL263482  39.864  13.637   6.150
 8283POPC   C1A63483  39.967  13.646   6.450
 8283POPC   D2A63484  39.972  13.582   6.750
 8283POPC   C3A63485  40.021  13.668   7.050
 8283POPC   C4A63486  39.989  13.584   7.350
 8283POPC   C1B63487  39.807  13.729   6.450
 8283POPC   C2B63488  39.731  13.706   6.750
 8283POPC   C3B63489  39.735  13.739   7.050
 8283POPC   C4B63490  39.803  13.686   7.350
 8284POPC   NC363491   4.366   2.802   5.550
 8284POPC   PO463492   4.290   2.749   5.850
 8284POPC   GL163493   4.338   2.814   6.150
 8284POPC   GL263494   4.403   2.652   6.150
 8284POPC   C1A63495   4.293   2.731   6.450
 8284POPC   D2A63496   4.278   2.772   6.750
 8284POPC   C3A63497   4.295   2.739   7.050
 8284POPC   C4A63498   4.306   2.797   7.350
 8284POPC   C1B63499   4.541   2.569   6.450
 8284POPC   C2B63500   4.453   2.599   6.750
 8284POPC   C3B63501   4.513   2.591   7.050
 8284POPC   C4B63502   4.513   2.602   7.350
 8285POPC   NC363503  43.082   5.048   5.550
 8285POPC   PO463504  43.154   5.057   5.850
 8285POPC   GL163505  43.137   5.116   6.150
 8285POPC   GL263506  43.078   5.199   6.150
 8285POPC   C1A63507  43.062   5.126   6.450
 8285POPC   D2A63508  43.124   5.132   6.750
 8285POPC   C3A63509  43.117   5.056   7.050
 8285POPC   C4A63510  43.125   5.058   7.350
 8285POPC   C1B63511  43.069   5.288   6.450
 8285POPC   C2B63512  43.057   5.351   6.750
 8285POPC   C3B63513  43.065   5.300   7.050
 8285POPC   C4B63514  43.015   5.308   7.350
 8286POPC   NC363515  38.468  15.176   5.550
 8286POPC   PO463516  38.470  15.208   5.850
 8286POPC   GL163517  38.484  15.185   6.150
 8286POPC   GL263518  38.539  15.293   6.150
 8286POPC   C1A63519  38.465  15.199   6.450
 8286POPC   D2A63520  38.485  15.200   6.750
 8286POPC   C3A63521  38.437  15.202   7.050
 8286POPC   C4A63522  38.409  15.188   7.350
 8286POPC   C1B63523  38.638  15.290   6.450
 8286POPC   C2B63524  38.671  15.291   6.750
 8286POPC   C3B63525  38.678  15.362   7.050
 8286POPC   C4B63526  38.648  15.337   7.350
 8287POPC   NC363527   2.012   6.637   5.550
 8287POPC   PO463528   2.038   6.653   5.850
 8287POPC   GL163529   1.978   6.657   6.150
 8287POPC   GL263530   2.081   6.586   6.150
 8287POPC   C1A63531   2.017   6.683   6.450
 8287POPC   D2A63532   1.949   6.643   6.750
 8287POPC   C3A63533   1.948   6.642   7.050
 8287POPC   C4A63534   2.019   6.693   7.350
 8287POPC   C1B63535   2.242   6.539   6.450
 8287POPC   C2B63536   2.181   6.518   6.750
 8287POPC   C3B63537   2.241   6.573   7.050
 8287POPC   C4B63538   2.268   6.507   7.350
 8288POPC   NC363539  31.443  12.837   5.550
 8288POPC   PO463540  31.434  12.821   5.850
 8288POPC   GL163541  31.463  12.858   6.150
 8288POPC   GL263542  31.493  12.770   6.150
 8288POPC   C1A63543  31.461  12.897   6.450
 8288POPC   D2A63544  31.477  12.884   6.750
 8288POPC   C3A63545  31.478  12.822   7.050
 8288POPC   C4A63546  31.449  12.840   7.350
 8288POPC   C1B63547  31.384  12.603   6.450
 8288POPC   C2B63548  31.419  12.610   6.750
 8288POPC   C3B63549  31.430  12.610   7.050
 8288POPC   C4B63550  31.368  12.649   7.350
 8289POPC   NC363551  37.665  21.405   5.550
 8289POPC   PO463552  37.728  21.366   5.850
 8289POPC   GL163553  37.643  21.384   6.150
 8289POPC   GL263554  37.738  21.312   6.150
 8289POPC   C1A63555  37.690  21.348   6.450
 8289POPC   D2A63556  37.666  21.351   6.750
 8289POPC   C3A63557  37.719  21.408   7.050
 8289POPC   C4A63558  37.665  21.408   7.350
 8289POPC   C1B63559  37.762  21.124   6.450
 8289POPC   C2B63560  37.801  21.113   6.750
 8289POPC   C3B63561  37.763  21.154   7.050
 8289POPC   C4B63562  37.704  21.192   7.350
 8290POPC   NC363563  11.318  30.667   5.550
 8290POPC   PO463564  11.273  30.658   5.850
 8290POPC   GL163565  11.268  30.727   6.150
 8290POPC   GL263566  11.321  30.566   6.150
 8290POPC   C1A63567  11.308  30.670   6.450
 8290POPC   D2A63568  11.271  30.695   6.750
 8290POPC   C3A63569  11.291  30.727   7.050
 8290POPC   C4A63570  11.252  30.685   7.350
 8290POPC   C1B63571  11.417  30.444   6.450
 8290POPC   C2B63572  11.382  30.480   6.750
 8290POPC   C3B63573  11.449  30.524   7.050
 8290POPC   C4B63574  11.474  30.478   7.350
 8291POPC   NC363575   0.404  32.233   5.550
 8291POPC   PO463576   0.432  32.251   5.850
 8291POPC   GL163577   0.464  32.259   6.150
 8291POPC   GL263578   0.384  32.330   6.150
 8291POPC   C1A63579   0.416  32.282   6.450
 8291POPC   D2A63580   0.402  32.228   6.750
 8291POPC   C3A63581   0.451  32.235   7.050
 8291POPC   C4A63582   0.486  32.254   7.350
 8291POPC   C1B63583   0.425  32.516   6.450
 8291POPC   C2B63584   0.374  32.452   6.750
 8291POPC   C3B63585   0.402  32.441   7.050
 8291POPC   C4B63586   0.371  32.532   7.350
 8292POPC   NC363587  43.106  16.742   5.550
 8292POPC   PO463588  43.088  16.690   5.850
 8292POPC   GL163589  43.103  16.697   6.150
 8292POPC   GL263590  43.164  16.830   6.150
 8292POPC   C1A63591  43.071  16.688   6.450
 8292POPC   D2A63592  43.122  16.766   6.750
 8292POPC   C3A63593  43.120  16.777   7.050
 8292POPC   C4A63594  43.099  16.734   7.350
 8292POPC   C1B63595  43.251  16.890   6.450
 8292POPC   C2B63596  43.271  16.869   6.750
 8292POPC   C3B63597  43.320  16.892   7.050
 8292POPC   C4B63598  43.259  16.943   7.350
 8293POPC   NC363599  26.793  29.963   5.550
 8293POPC   PO463600  26.849  29.915   5.850
 8293POPC   GL163601  26.846  29.929   6.150
 8293POPC   GL263602  26.758  29.800   6.150
 8293POPC   C1A63603  26.859  29.935   6.450
 8293POPC   D2A63604  26.849  29.945   6.750
 8293POPC   C3A63605  26.809  29.922   7.050
 8293POPC   C4A63606  26.856  29.932   7.350
 8293POPC   C1B63607  26.585  29.731   6.450
 8293POPC   C2B63608  26.600  29.729   6.750
 8293POPC   C3B63609  26.620  29.778   7.050
 8293POPC   C4B63610  26.637  29.711   7.350
 8294POPC   NC363611   3.512  43.857   5.550
 8294POPC   PO463612   3.584  43.923   5.850
 8294POPC   GL163613   3.538  43.849   6.150
 8294POPC   GL263614   3.472  43.810   6.150
 8294POPC   C1A63615   3.513  43.886   6.450
 8294POPC   D2A63616   3.495  43.928   6.750
 8294POPC   C3A63617   3.564  43.843   7.050
 8294POPC   C4A63618   3.531  43.911   7.350
 8294POPC   C1B63619   3.479  43.658   6.450
 8294POPC   C2B63620   3.502  43.691   6.750
 8294POPC   C3B63621   3.526  43.631   7.050
 8294POPC   C4B63622   3.446  43.603   7.350
 8295POPC   NC363623  33.768   0.401   5.550
 8295POPC   PO463624  33.844   0.457   5.850
 8295POPC   GL163625  33.843   0.389   6.150
 8295POPC   GL263626  33.667   0.351   6.150
 8295POPC   C1A63627  33.844   0.441   6.450
 8295POPC   D2A63628  33.779   0.481   6.750
 8295POPC   C3A63629  33.751   0.426   7.050
 8295POPC   C4A63630  33.778   0.393   7.350
 8295POPC   C1B63631  33.574   0.329   6.450
 8295POPC   C2B63632  33.557   0.291   6.750
 8295POPC   C3B63633  33.599   0.337   7.050
 8295POPC   C4B63634  33.613   0.353   7.350
 8296POPC   NC363635  15.185   6.669   5.550
 8296POPC   PO463636  15.179   6.666   5.850
 8296POPC   GL163637  15.173   6.619   6.150
 8296POPC   GL263638  15.215   6.792   6.150
 8296POPC   C1A63639  15.167   6.681   6.450
 8296POPC   D2A63640  15.184   6.688   6.750
 8296POPC   C3A63641  15.133   6.617   7.050
 8296POPC   C4A63642  15.203   6.670   7.350
 8296POPC   C1B63643  15.336   6.887   6.450
 8296POPC   C2B63644  15.299   6.885   6.750
 8296POPC   C3B63645  15.323   6.830   7.050
 8296POPC   C4B63646  15.309   6.859   7.350
 8297POPC   NC363647  14.397  24.457   5.550
 8297POPC   PO463648  14.409  24.520   5.850
 8297POPC   GL163649  14.412  24.458   6.150
 8297POPC   GL263650  14.459  24.414   6.150
 8297POPC   C1A63651  14.397  24.451   6.450
 8297POPC   D2A63652  14.360  24.496   6.750
 8297POPC   C3A63653  14.402  24.498   7.050
 8297POPC   C4A63654  14.399  24.495   7.350
 8297POPC   C1B63655  14.517  24.337   6.450
 8297POPC   C2B63656  14.603  24.266   6.750
 8297POPC   C3B63657  14.514  24.245   7.050
 8297POPC   C4B63658  14.514  24.281   7.350
 8298POPC   NC363659   9.018  28.389   5.550
 8298POPC   PO463660   8.969  28.402   5.850
 8298POPC   GL163661   8.951  28.386   6.150
 8298POPC   GL263662   9.106  28.384   6.150
 8298POPC   C1A63663   9.005  28.400   6.450
 8298POPC   D2A63664   8.941  28.343   6.750
 8298POPC   C3A63665   8.938  28.385   7.050
 8298POPC   C4A63666   8.997  28.337   7.350
 8298POPC   C1B63667   9.178  28.379   6.450
 8298POPC   C2B63668   9.231  28.455   6.750
 8298POPC   C3B63669   9.252  28.394   7.050
 8298POPC   C4B63670   9.243  28.466   7.350
 8299POPC   NC363671   9.017  43.078   5.550
 8299POPC   PO463672   8.991  43.066   5.850
 8299POPC   GL163673   8.962  43.117   6.150
 8299POPC   GL263674   8.918  43.045   6.150
 8299POPC   C1A63675   8.950  43.104   6.450
 8299POPC   D2A63676   8.938  43.145   6.750
 8299POPC   C3A63677   8.962  43.158   7.050
 8299POPC   C4A63678   8.937  43.096   7.350
 8299POPC   C1B63679   8.794  42.958   6.450
 8299POPC   C2B63680   8.755  43.018   6.750
 8299POPC   C3B63681   8.797  42.948   7.050
 8299POPC   C4B63682   8.727  42.958   7.350
 8300POPC   NC363683  40.780  43.067   5.550
 8300POPC   PO463684  40.814  43.109   5.850
 8300POPC   GL163685  40.782  43.144   6.150
 8300POPC   GL263686  40.874  43.177   6.150
 8300POPC   C1A63687  40.771  43.124   6.450
 8300POPC   D2A63688  40.781  43.083   6.750
 8300POPC   C3A63689  40.773  43.112   7.050
 8300POPC   C4A63690  40.777  43.120   7.350
 8300POPC   C1B63691  40.903  43.345   6.450
 8300POPC   C2B63692  40.972  43.280   6.750
 8300POPC   C3B63693  40.911  43.304   7.050
 8300POPC   C4B63694  40.890  43.318   7.350
 8301POPC   NC363695  34.553  30.729   5.550
 8301POPC   PO463696  34.602  30.727   5.850
 8301POPC   GL163697  34.537  30.658   6.150
 8301POPC   GL263698  34.422  30.726   6.150
 8301POPC   C1A63699  34.543  30.724   6.450
 8301POPC   D2A63700  34.592  30.654   6.750
 8301POPC   C3A63701  34.572  30.732   7.050
 8301POPC   C4A63702  34.537  30.655   7.350
 8301POPC   C1B63703  34.303  30.664   6.450
 8301POPC   C2B63704  34.292  30.726   6.750
 8301POPC   C3B63705  34.294  30.685   7.050
 8301POPC   C4B63706  34.374  30.661   7.350
 8302POPC   NC363707  27.602  23.674   5.550
 8302POPC   PO463708  27.592  23.741   5.850
 8302POPC   GL163709  27.554  23.744   6.150
 8302POPC   GL263710  27.547  23.573   6.150
 8302POPC   C1A63711  27.639  23.748   6.450
 8302POPC   D2A63712  27.549  23.730   6.750
 8302POPC   C3A63713  27.605  23.687   7.050
 8302POPC   C4A63714  27.559  23.727   7.350
 8302POPC   C1B63715  27.569  23.459   6.450
 8302POPC   C2B63716  27.543  23.501   6.750
 8302POPC   C3B63717  27.564  23.499   7.050
 8302POPC   C4B63718  27.529  23.433   7.350
 8303POPC   NC363719  37.651  38.440   5.550
 8303POPC   PO463720  37.722  38.419   5.850
 8303POPC   GL163721  37.728  38.477   6.150
 8303POPC   GL263722  37.811  38.426   6.150
 8303POPC   C1A63723  37.677  38.475   6.450
 8303POPC   D2A63724  37.633  38.496   6.750
 8303POPC   C3A63725  37.719  38.464   7.050
 8303POPC   C4A63726  37.680  38.437   7.350
 8303POPC   C1B63727  37.930  38.351   6.450
 8303POPC   C2B63728  37.877  38.396   6.750
 8303POPC   C3B63729  37.866  38.403   7.050
 8303POPC   C4B63730  37.870  38.371   7.350
 8304POPC   NC363731   3.563  24.510   5.550
 8304POPC   PO463732   3.578  24.462   5.850
 8304POPC   GL163733   3.565  24.445   6.150
 8304POPC   GL263734   3.512  24.612   6.150
 8304POPC   C1A63735   3.513  24.460   6.450
 8304POPC   D2A63736   3.533  24.512   6.750
 8304POPC   C3A63737   3.555  24.495   7.050
 8304POPC   C4A63738   3.575  24.523   7.350
 8304POPC   C1B63739   3.430  24.693   6.450
 8304POPC   C2B63740   3.402  24.686   6.750
 8304POPC   C3B63741   3.357  24.649   7.050
 8304POPC   C4B63742   3.445  24.696   7.350
 8305POPC   NC363743  43.154   1.991   5.550
 8305POPC   PO463744  43.068   1.956   5.850
 8305POPC   GL163745  43.083   1.977   6.150
 8305POPC   GL263746  43.029   1.921   6.150
 8305POPC   C1A63747  43.064   1.968   6.450
 8305POPC   D2A63748  43.070   2.019   6.750
 8305POPC   C3A63749  43.112   2.034   7.050
 8305POPC   C4A63750  43.133   2.002   7.350
 8305POPC   C1B63751  42.991   1.736   6.450
 8305POPC   C2B63752  42.929   1.788   6.750
 8305POPC   C3B63753  42.927   1.816   7.050
 8305POPC   C4B63754  42.937   1.800   7.350
 8306POPC   NC363755  29.169  12.099   5.550
 8306POPC   PO463756  29.155  12.088   5.850
 8306POPC   GL163757  29.132  12.050   6.150
 8306POPC   GL263758  29.246  12.004   6.150
 8306POPC   C1A63759  29.146  12.113   6.450
 8306POPC   D2A63760  29.157  12.036   6.750
 8306POPC   C3A63761  29.165  12.081   7.050
 8306POPC   C4A63762  29.170  12.115   7.350
 8306POPC   C1B63763  29.388  11.966   6.450
 8306POPC   C2B63764  29.347  11.923   6.750
 8306POPC   C3B63765  29.350  11.973   7.050
 8306POPC   C4B63766  29.402  11.989   7.350
 8307POPC   NC363767  30.685  25.225   5.550
 8307POPC   PO463768  30.656  25.273   5.850
 8307POPC   GL163769  30.732  25.259   6.150
 8307POPC   GL263770  30.546  25.293   6.150
 8307POPC   C1A63771  30.723  25.240   6.450
 8307POPC   D2A63772  30.648  25.263   6.750
 8307POPC   C3A63773  30.673  25.310   7.050
 8307POPC   C4A63774  30.743  25.303   7.350
 8307POPC   C1B63775  30.417  25.381   6.450
 8307POPC   C2B63776  30.503  25.318   6.750
 8307POPC   C3B63777  30.415  25.387   7.050
 8307POPC   C4B63778  30.494  25.365   7.350
 8308POPC   NC363779  38.481  32.999   5.550
 8308POPC   PO463780  38.469  32.978   5.850
 8308POPC   GL163781  38.431  33.003   6.150
 8308POPC   GL263782  38.415  33.139   6.150
 8308POPC   C1A63783  38.442  33.059   6.450
 8308POPC   D2A63784  38.483  33.009   6.750
 8308POPC   C3A63785  38.495  32.993   7.050
 8308POPC   C4A63786  38.458  33.023   7.350
 8308POPC   C1B63787  38.305  33.242   6.450
 8308POPC   C2B63788  38.324  33.248   6.750
 8308POPC   C3B63789  38.289  33.224   7.050
 8308POPC   C4B63790  38.296  33.255   7.350
 8309POPC   NC363791  29.970   5.100   5.550
 8309POPC   PO463792  29.880   5.117   5.850
 8309POPC   GL163793  29.909   5.126   6.150
 8309POPC   GL263794  29.988   4.969   6.150
 8309POPC   C1A63795  29.881   5.142   6.450
 8309POPC   D2A63796  29.876   5.063   6.750
 8309POPC   C3A63797  29.873   5.119   7.050
 8309POPC   C4A63798  29.947   5.115   7.350
 8309POPC   C1B63799  29.959   4.878   6.450
 8309POPC   C2B63800  29.954   4.832   6.750
 8309POPC   C3B63801  30.001   4.897   7.050
 8309POPC   C4B63802  29.929   4.854   7.350
 8310POPC   NC363803  26.810  21.371   5.550
 8310POPC   PO463804  26.857  21.356   5.850
 8310POPC   GL163805  26.866  21.346   6.150
 8310POPC   GL263806  26.756  21.455   6.150
 8310POPC   C1A63807  26.801  21.425   6.450
 8310POPC   D2A63808  26.802  21.394   6.750
 8310POPC   C3A63809  26.789  21.407   7.050
 8310POPC   C4A63810  26.861  21.361   7.350
 8310POPC   C1B63811  26.766  21.603   6.450
 8310POPC   C2B63812  26.725  21.639   6.750
 8310POPC   C3B63813  26.685  21.655   7.050
 8310POPC   C4B63814  26.752  21.596   7.350
 8311POPC   NC363815  13.626  37.649   5.550
 8311POPC   PO463816  13.588  37.690   5.850
 8311POPC   GL163817  13.586  37.651   6.150
 8311POPC   GL263818  13.485  37.720   6.150
 8311POPC   C1A63819  13.601  37.676   6.450
 8311POPC   D2A63820  13.652  37.642   6.750
 8311POPC   C3A63821  13.627  37.699   7.050
 8311POPC   C4A63822  13.628  37.659   7.350
 8311POPC   C1B63823  13.357  37.720   6.450
 8311POPC   C2B63824  13.352  37.694   6.750
 8311POPC   C3B63825  13.333  37.677   7.050
 8311POPC   C4B63826  13.333  37.754   7.350
 8312POPC   NC363827  37.693  36.911   5.550
 8312POPC   PO463828  37.644  36.943   5.850
 8312POPC   GL163829  37.640  36.870   6.150
 8312POPC   GL263830  37.665  36.782   6.150
 8312POPC   C1A63831  37.709  36.883   6.450
 8312POPC   D2A63832  37.658  36.898   6.750
 8312POPC   C3A63833  37.660  36.881   7.050
 8312POPC   C4A63834  37.696  36.914   7.350
 8312POPC   C1B63835  37.656  36.672   6.450
 8312POPC   C2B63836  37.702  36.642   6.750
 8312POPC   C3B63837  37.611  36.680   7.050
 8312POPC   C4B63838  37.678  36.679   7.350
 8313POPC   NC363839   1.970  23.738   5.550
 8313POPC   PO463840   2.033  23.727   5.850
 8313POPC   GL163841   2.030  23.739   6.150
 8313POPC   GL263842   2.068  23.645   6.150
 8313POPC   C1A63843   1.991  23.728   6.450
 8313POPC   D2A63844   1.959  23.742   6.750
 8313POPC   C3A63845   1.948  23.688   7.050
 8313POPC   C4A63846   2.016  23.718   7.350
 8313POPC   C1B63847   2.156  23.519   6.450
 8313POPC   C2B63848   2.106  23.516   6.750
 8313POPC   C3B63849   2.192  23.493   7.050
 8313POPC   C4B63850   2.120  23.545   7.350
 8314POPC   NC363851   0.393  14.395   5.550
 8314POPC   PO463852   0.428  14.433   5.850
 8314POPC   GL163853   0.420  14.366   6.150
 8314POPC   GL263854   0.476  14.514   6.150
 8314POPC   C1A63855   0.465  14.429   6.450
 8314POPC   D2A63856   0.396  14.408   6.750
 8314POPC   C3A63857   0.467  14.358   7.050
 8314POPC   C4A63858   0.399  14.428   7.350
 8314POPC   C1B63859   0.550  14.679   6.450
 8314POPC   C2B63860   0.514  14.595   6.750
 8314POPC   C3B63861   0.576  14.636   7.050
 8314POPC   C4B63862   0.488  14.629   7.350
 8315POPC   NC363863  28.349   3.496   5.550
 8315POPC   PO463864  28.371   3.582   5.850
 8315POPC   GL163865  28.388   3.505   6.150
 8315POPC   GL263866  28.415   3.619   6.150
 8315POPC   C1A63867  28.367   3.498   6.450
 8315POPC   D2A63868  28.387   3.512   6.750
 8315POPC   C3A63869  28.385   3.521   7.050
 8315POPC   C4A63870  28.327   3.588   7.350
 8315POPC   C1B63871  28.480   3.822   6.450
 8315POPC   C2B63872  28.403   3.823   6.750
 8315POPC   C3B63873  28.398   3.738   7.050
 8315POPC   C4B63874  28.488   3.738   7.350
 8316POPC   NC363875  28.345   2.764   5.550
 8316POPC   PO463876  28.416   2.733   5.850
 8316POPC   GL163877  28.354   2.737   6.150
 8316POPC   GL263878  28.392   2.856   6.150
 8316POPC   C1A63879  28.408   2.734   6.450
 8316POPC   D2A63880  28.370   2.815   6.750
 8316POPC   C3A63881  28.410   2.780   7.050
 8316POPC   C4A63882  28.414   2.797   7.350
 8316POPC   C1B63883  28.351   3.064   6.450
 8316POPC   C2B63884  28.350   2.967   6.750
 8316POPC   C3B63885  28.385   2.989   7.050
 8316POPC   C4B63886  28.400   3.014   7.350
 8317POPC   NC363887  11.294  43.907   5.550
 8317POPC   PO463888  11.329  43.912   5.850
 8317POPC   GL163889  11.274  43.886   6.150
 8317POPC   GL263890  11.309  43.813   6.150
 8317POPC   C1A63891  11.266  43.850   6.450
 8317POPC   D2A63892  11.329  43.883   6.750
 8317POPC   C3A63893  11.320  43.928   7.050
 8317POPC   C4A63894  11.289  43.923   7.350
 8317POPC   C1B63895  11.324  43.635   6.450
 8317POPC   C2B63896  11.384  43.596   6.750
 8317POPC   C3B63897  11.380  43.673   7.050
 8317POPC   C4B63898  11.346  43.627   7.350
 8318POPC   NC363899  32.229  24.514   5.550
 8318POPC   PO463900  32.263  24.474   5.850
 8318POPC   GL163901  32.209  24.501   6.150
 8318POPC   GL263902  32.301  24.601   6.150
 8318POPC   C1A63903  32.280  24.533   6.450
 8318POPC   D2A63904  32.209  24.453   6.750
 8318POPC   C3A63905  32.278  24.482   7.050
 8318POPC   C4A63906  32.240  24.453   7.350
 8318POPC   C1B63907  32.291  24.694   6.450
 8318POPC   C2B63908  32.269  24.762   6.750
 8318POPC   C3B63909  32.322  24.724   7.050
 8318POPC   C4B63910  32.270  24.736   7.350
 8319POPC   NC363911  39.983  42.367   5.550
 8319POPC   PO463912  40.057  42.340   5.850
 8319POPC   GL163913  39.983  42.375   6.150
 8319POPC   GL263914  39.960  42.240   6.150
 8319POPC   C1A63915  40.007  42.365   6.450
 8319POPC   D2A63916  39.984  42.377   6.750
 8319POPC   C3A63917  39.973  42.289   7.050
 8319POPC   C4A63918  39.986  42.370   7.350
 8319POPC   C1B63919  39.950  42.112   6.450
 8319POPC   C2B63920  39.901  42.051   6.750
 8319POPC   C3B63921  39.937  42.082   7.050
 8319POPC   C4B63922  39.964  42.055   7.350
 8320POPC   NC363923  41.571   0.474   5.550
 8320POPC   PO463924  41.510   0.402   5.850
 8320POPC   GL163925  41.510   0.406   6.150
 8320POPC   GL263926  41.596   0.338   6.150
 8320POPC   C1A63927  41.569   0.473   6.450
 8320POPC   D2A63928  41.599   0.449   6.750
 8320POPC   C3A63929  41.519   0.444   7.050
 8320POPC   C4A63930  41.513   0.487   7.350
 8320POPC   C1B63931  41.783   0.302   6.450
 8320POPC   C2B63932  41.737   0.290   6.750
 8320POPC   C3B63933  41.689   0.262   7.050
 8320POPC   C4B63934  41.746   0.299   7.350
 8321POPC   NC363935  11.318  10.570   5.550
 8321POPC   PO463936  11.266  10.574   5.850
 8321POPC   GL163937  11.263  10.480   6.150
 8321POPC   GL263938  11.431  10.519   6.150
 8321POPC   C1A63939  11.348  10.542   6.450
 8321POPC   D2A63940  11.306  10.520   6.750
 8321POPC   C3A63941  11.286  10.540   7.050
 8321POPC   C4A63942  11.330  10.517   7.350
 8321POPC   C1B63943  11.587  10.495   6.450
 8321POPC   C2B63944  11.554  10.474   6.750
 8321POPC   C3B63945  11.563  10.479   7.050
 8321POPC   C4B63946  11.546  10.516   7.350
 8322POPC   NC363947  42.338  44.658   5.550
 8322POPC   PO463948  42.290  44.684   5.850
 8322POPC   GL163949  42.306  44.680   6.150
 8322POPC   GL263950  42.220  44.708   6.150
 8322POPC   C1A63951  42.347  44.701   6.450
 8322POPC   D2A63952  42.376  44.693   6.750
 8322POPC   C3A63953  42.331  44.655   7.050
 8322POPC   C4A63954  42.313  44.663   7.350
 8322POPC   C1B63955  42.125  44.814   6.450
 8322POPC   C2B63956  42.171  44.776   6.750
 8322POPC   C3B63957  42.129  44.782   7.050
 8322POPC   C4B63958  42.173  44.849   7.350
 8323POPC   NC363959   2.039  19.814   5.550
 8323POPC   PO463960   1.972  19.848   5.850
 8323POPC   GL163961   2.013  19.857   6.150
 8323POPC   GL263962   1.900  19.768   6.150
 8323POPC   C1A63963   1.949  19.880   6.450
 8323POPC   D2A63964   1.989  19.819   6.750
 8323POPC   C3A63965   1.944  19.802   7.050
 8323POPC   C4A63966   2.006  19.853   7.350
 8323POPC   C1B63967   1.783  19.628   6.450
 8323POPC   C2B63968   1.828  19.670   6.750
 8323POPC   C3B63969   1.804  19.656   7.050
 8323POPC   C4B63970   1.823  19.693   7.350
 8324POPC   NC363971  15.204  13.623   5.550
 8324POPC   PO463972  15.222  13.650   5.850
 8324POPC   GL163973  15.182  13.595   6.150
 8324POPC   GL263974  15.299  13.652   6.150
 8324POPC   C1A63975  15.204  13.599   6.450
 8324POPC   D2A63976  15.140  13.617   6.750
 8324POPC   C3A63977  15.186  13.641   7.050
 8324POPC   C4A63978  15.153  13.615   7.350
 8324POPC   C1B63979  15.391  13.771   6.450
 8324POPC   C2B63980  15.376  13.696   6.750
 8324POPC   C3B63981  15.404  13.689   7.050
 8324POPC   C4B63982  15.450  13.770   7.350
 8325POPC   NC363983   9.767  28.389   5.550
 8325POPC   PO463984   9.725  28.390   5.850
 8325POPC   GL163985   9.763  28.342   6.150
 8325POPC   GL263986   9.864  28.455   6.150
 8325POPC   C1A63987   9.734  28.355   6.450
 8325POPC   D2A63988   9.700  28.390   6.750
 8325POPC   C3A63989   9.759  28.404   7.050
 8325POPC   C4A63990   9.733  28.369   7.350
 8325POPC   C1B63991   9.970  28.468   6.450
 8325POPC   C2B63992   9.948  28.409   6.750
 8325POPC   C3B63993  10.034  28.429   7.050
 8325POPC   C4B63994   9.980  28.481   7.350
 8326POPC   NC363995  25.276  34.558   5.550
 8326POPC   PO463996  25.291  34.584   5.850
 8326POPC   GL163997  25.300  34.587   6.150
 8326POPC   GL263998  25.362  34.534   6.150
 8326POPC   C1A63999  25.307  34.582   6.450
 8326POPC   D2A64000  25.254  34.537   6.750
 8326POPC   C3A64001  25.255  34.542   7.050
 8326POPC   C4A64002  25.287  34.550   7.350
 8326POPC   C1B64003  25.514  34.591   6.450
 8326POPC   C2B64004  25.501  34.539   6.750
 8326POPC   C3B64005  25.482  34.565   7.050
 8326POPC   C4B64006  25.478  34.544   7.350
 8327POPC   NC364007   1.167  39.221   5.550
 8327POPC   PO464008   1.214  39.227   5.850
 8327POPC   GL164009   1.210  39.238   6.150
 8327POPC   GL264010   1.140  39.181   6.150
 8327POPC   C1A64011   1.164  39.266   6.450
 8327POPC   D2A64012   1.191  39.229   6.750
 8327POPC   C3A64013   1.263  39.269   7.050
 8327POPC   C4A64014   1.167  39.193   7.350
 8327POPC   C1B64015   0.971  39.164   6.450
 8327POPC   C2B64016   1.012  39.160   6.750
 8327POPC   C3B64017   0.974  39.125   7.050
 8327POPC   C4B64018   0.997  39.127   7.350
 8328POPC   NC364019   3.576  19.824   5.550
 8328POPC   PO464020   3.510  19.841   5.850
 8328POPC   GL164021   3.580  19.827   6.150
 8328POPC   GL264022   3.449  19.808   6.150
 8328POPC   C1A64023   3.494  19.866   6.450
 8328POPC   D2A64024   3.536  19.875   6.750
 8328POPC   C3A64025   3.508  19.868   7.050
 8328POPC   C4A64026   3.553  19.846   7.350
 8328POPC   C1B64027   3.258  19.870   6.450
 8328POPC   C2B64028   3.253  19.884   6.750
 8328POPC   C3B64029   3.291  19.858   7.050
 8328POPC   C4B64030   3.263  19.841   7.350
 8329POPC   NC364031  36.128  14.414   5.550
 8329POPC   PO464032  36.087  14.369   5.850
 8329POPC   GL164033  36.131  14.386   6.150
 8329POPC   GL264034  36.049  14.495   6.150
 8329POPC   C1A64035  36.101  14.407   6.450
 8329POPC   D2A64036  36.163  14.362   6.750
 8329POPC   C3A64037  36.172  14.444   7.050
 8329POPC   C4A64038  36.171  14.381   7.350
 8329POPC   C1B64039  35.943  14.582   6.450
 8329POPC   C2B64040  35.913  14.589   6.750
 8329POPC   C3B64041  35.978  14.607   7.050
 8329POPC   C4B64042  35.910  14.565   7.350
 8330POPC   NC364043   6.694   2.790   5.550
 8330POPC   PO464044   6.611   2.795   5.850
 8330POPC   GL164045   6.677   2.718   6.150
 8330POPC   GL264046   6.707   2.836   6.150
 8330POPC   C1A64047   6.662   2.745   6.450
 8330POPC   D2A64048   6.636   2.766   6.750
 8330POPC   C3A64049   6.657   2.804   7.050
 8330POPC   C4A64050   6.677   2.735   7.350
 8330POPC   C1B64051   6.771   3.000   6.450
 8330POPC   C2B64052   6.742   2.957   6.750
 8330POPC   C3B64053   6.713   3.010   7.050
 8330POPC   C4B64054   6.778   3.009   7.350
 8331POPC   NC364055  19.090   3.498   5.550
 8331POPC   PO464056  19.023   3.546   5.850
 8331POPC   GL164057  19.074   3.573   6.150
 8331POPC   GL264058  18.957   3.585   6.150
 8331POPC   C1A64059  19.078   3.582   6.450
 8331POPC   D2A64060  19.017   3.550   6.750
 8331POPC   C3A64061  19.017   3.533   7.050
 8331POPC   C4A64062  19.042   3.574   7.350
 8331POPC   C1B64063  18.832   3.718   6.450
 8331POPC   C2B64064  18.899   3.725   6.750
 8331POPC   C3B64065  18.901   3.637   7.050
 8331POPC   C4B64066  18.835   3.643   7.350
 8332POPC   NC364067  13.591  13.670   5.550
 8332POPC   PO464068  13.640  13.633   5.850
 8332POPC   GL164069  13.599  13.661   6.150
 8332POPC   GL264070  13.616  13.502   6.150
 8332POPC   C1A64071  13.591  13.605   6.450
 8332POPC   D2A64072  13.601  13.584   6.750
 8332POPC   C3A64073  13.591  13.644   7.050
 8332POPC   C4A64074  13.664  13.650   7.350
 8332POPC   C1B64075  13.638  13.386   6.450
 8332POPC   C2B64076  13.654  13.398   6.750
 8332POPC   C3B64077  13.557  13.363   7.050
 8332POPC   C4B64078  13.618  13.365   7.350
 8333POPC   NC364079  18.237  12.026   5.550
 8333POPC   PO464080  18.297  12.125   5.850
 8333POPC   GL164081  18.288  12.114   6.150
 8333POPC   GL264082  18.306  11.987   6.150
 8333POPC   C1A64083  18.322  12.083   6.450
 8333POPC   D2A64084  18.287  12.094   6.750
 8333POPC   C3A64085  18.244  12.110   7.050
 8333POPC   C4A64086  18.263  12.050   7.350
 8333POPC   C1B64087  18.282  11.840   6.450
 8333POPC   C2B64088  18.298  11.818   6.750
 8333POPC   C3B64089  18.312  11.834   7.050
 8333POPC   C4B64090  18.324  11.872   7.350
 8334POPC   NC364091  34.544  19.010   5.550
 8334POPC   PO464092  34.593  19.040   5.850
 8334POPC   GL164093  34.565  19.033   6.150
 8334POPC   GL264094  34.636  19.197   6.150
 8334POPC   C1A64095  34.534  19.039   6.450
 8334POPC   D2A64096  34.528  19.104   6.750
 8334POPC   C3A64097  34.615  19.041   7.050
 8334POPC   C4A64098  34.597  19.052   7.350
 8334POPC   C1B64099  34.648  19.342   6.450
 8334POPC   C2B64100  34.636  19.308   6.750
 8334POPC   C3B64101  34.645  19.322   7.050
 8334POPC   C4B64102  34.658  19.344   7.350
 8335POPC   NC364103  38.405  31.468   5.550
 8335POPC   PO464104  38.426  31.445   5.850
 8335POPC   GL164105  38.432  31.494   6.150
 8335POPC   GL264106  38.362  31.525   6.150
 8335POPC   C1A64107  38.455  31.504   6.450
 8335POPC   D2A64108  38.428  31.504   6.750
 8335POPC   C3A64109  38.420  31.474   7.050
 8335POPC   C4A64110  38.482  31.518   7.350
 8335POPC   C1B64111  38.165  31.467   6.450
 8335POPC   C2B64112  38.240  31.482   6.750
 8335POPC   C3B64113  38.181  31.487   7.050
 8335POPC   C4B64114  38.252  31.502   7.350
 8336POPC   NC364115  16.746   7.376   5.550
 8336POPC   PO464116  16.738   7.421   5.850
 8336POPC   GL164117  16.691   7.452   6.150
 8336POPC   GL264118  16.581   7.358   6.150
 8336POPC   C1A64119  16.685   7.454   6.450
 8336POPC   D2A64120  16.728   7.402   6.750
 8336POPC   C3A64121  16.755   7.403   7.050
 8336POPC   C4A64122  16.736   7.377   7.350
 8336POPC   C1B64123  16.516   7.366   6.450
 8336POPC   C2B64124  16.489   7.405   6.750
 8336POPC   C3B64125  16.460   7.384   7.050
 8336POPC   C4B64126  16.531   7.340   7.350
 8337POPC   NC364127  27.560  28.367   5.550
 8337POPC   PO464128  27.576  28.324   5.850
 8337POPC   GL164129  27.604  28.405   6.150
 8337POPC   GL264130  27.618  28.294   6.150
 8337POPC   C1A64131  27.561  28.356   6.450
 8337POPC   D2A64132  27.627  28.417   6.750
 8337POPC   C3A64133  27.582  28.323   7.050
 8337POPC   C4A64134  27.606  28.364   7.350
 8337POPC   C1B64135  27.666  28.146   6.450
 8337POPC   C2B64136  27.669  28.169   6.750
 8337POPC   C3B64137  27.692  28.167   7.050
 8337POPC   C4B64138  27.677  28.161   7.350
 8338POPC   NC364139  43.854  34.548   5.550
 8338POPC   PO464140  43.903  34.580   5.850
 8338POPC   GL164141  43.916  34.528   6.150
 8338POPC   GL264142  43.804  34.594   6.150
 8338POPC   C1A64143  43.868  34.541   6.450
 8338POPC   D2A64144  43.913  34.541   6.750
 8338POPC   C3A64145  43.863  34.568   7.050
 8338POPC   C4A64146  43.916  34.547   7.350
 8338POPC   C1B64147  43.688  34.671   6.450
 8338POPC   C2B64148  43.601  34.580   6.750
 8338POPC   C3B64149  43.603  34.585   7.050
 8338POPC   C4B64150  43.641  34.624   7.350
 8339POPC   NC364151  27.606  12.820   5.550
 8339POPC   PO464152  27.571  12.896   5.850
 8339POPC   GL164153  27.643  12.890   6.150
 8339POPC   GL264154  27.604  12.755   6.150
 8339POPC   C1A64155  27.559  12.893   6.450
 8339POPC   D2A64156  27.593  12.844   6.750
 8339POPC   C3A64157  27.604  12.822   7.050
 8339POPC   C4A64158  27.563  12.807   7.350
 8339POPC   C1B64159  27.668  12.649   6.450
 8339POPC   C2B64160  27.667  12.560   6.750
 8339POPC   C3B64161  27.670  12.560   7.050
 8339POPC   C4B64162  27.632  12.569   7.350
 8340POPC   NC364163  29.191  39.271   5.550
 8340POPC   PO464164  29.188  39.251   5.850
 8340POPC   GL164165  29.098  39.208   6.150
 8340POPC   GL264166  29.115  39.317   6.150
 8340POPC   C1A64167  29.140  39.181   6.450
 8340POPC   D2A64168  29.174  39.274   6.750
 8340POPC   C3A64169  29.101  39.246   7.050
 8340POPC   C4A64170  29.187  39.258   7.350
 8340POPC   C1B64171  29.056  39.499   6.450
 8340POPC   C2B64172  28.991  39.484   6.750
 8340POPC   C3B64173  29.063  39.479   7.050
 8340POPC   C4B64174  29.053  39.427   7.350
 8341POPC   NC364175  38.468  41.578   5.550
 8341POPC   PO464176  38.454  41.532   5.850
 8341POPC   GL164177  38.413  41.553   6.150
 8341POPC   GL264178  38.565  41.652   6.150
 8341POPC   C1A64179  38.421  41.541   6.450
 8341POPC   D2A64180  38.450  41.564   6.750
 8341POPC   C3A64181  38.490  41.547   7.050
 8341POPC   C4A64182  38.446  41.518   7.350
 8341POPC   C1B64183  38.588  41.785   6.450
 8341POPC   C2B64184  38.612  41.782   6.750
 8341POPC   C3B64185  38.634  41.732   7.050
 8341POPC   C4B64186  38.594  41.721   7.350
 8342POPC   NC364187  18.332  29.893   5.550
 8342POPC   PO464188  18.269  29.951   5.850
 8342POPC   GL164189  18.290  29.925   6.150
 8342POPC   GL264190  18.429  29.975   6.150
 8342POPC   C1A64191  18.259  29.964   6.450
 8342POPC   D2A64192  18.238  29.964   6.750
 8342POPC   C3A64193  18.330  29.969   7.050
 8342POPC   C4A64194  18.315  29.905   7.350
 8342POPC   C1B64195  18.520  30.045   6.450
 8342POPC   C2B64196  18.496  30.026   6.750
 8342POPC   C3B64197  18.461  30.035   7.050
 8342POPC   C4B64198  18.520  30.039   7.350
 8343POPC   NC364199  26.805  17.473   5.550
 8343POPC   PO464200  26.808  17.469   5.850
 8343POPC   GL164201  26.811  17.538   6.150
 8343POPC   GL264202  26.909  17.406   6.150
 8343POPC   C1A64203  26.794  17.491   6.450
 8343POPC   D2A64204  26.823  17.548   6.750
 8343POPC   C3A64205  26.772  17.504   7.050
 8343POPC   C4A64206  26.867  17.471   7.350
 8343POPC   C1B64207  26.987  17.352   6.450
 8343POPC   C2B64208  26.960  17.281   6.750
 8343POPC   C3B64209  26.993  17.316   7.050
 8343POPC   C4B64210  26.992  17.372   7.350
 8344POPC   NC364211  10.536  39.245   5.550
 8344POPC   PO464212  10.541  39.235   5.850
 8344POPC   GL164213  10.564  39.187   6.150
 8344POPC   GL264214  10.670  39.249   6.150
 8344POPC   C1A64215  10.523  39.255   6.450
 8344POPC   D2A64216  10.531  39.260   6.750
 8344POPC   C3A64217  10.493  39.187   7.050
 8344POPC   C4A64218  10.498  39.236   7.350
 8344POPC   C1B64219  10.820  39.297   6.450
 8344POPC   C2B64220  10.741  39.237   6.750
 8344POPC   C3B64221  10.730  39.288   7.050
 8344POPC   C4B64222  10.760  39.236   7.350
 8345POPC   NC364223  24.496   1.234   5.550
 8345POPC   PO464224  24.494   1.225   5.850
 8345POPC   GL164225  24.492   1.185   6.150
 8345POPC   GL264226  24.417   1.127   6.150
 8345POPC   C1A64227  24.509   1.261   6.450
 8345POPC   D2A64228  24.522   1.201   6.750
 8345POPC   C3A64229  24.532   1.226   7.050
 8345POPC   C4A64230  24.476   1.196   7.350
 8345POPC   C1B64231  24.485   1.004   6.450
 8345POPC   C2B64232  24.475   1.000   6.750
 8345POPC   C3B64233  24.414   0.961   7.050
 8345POPC   C4B64234  24.412   0.996   7.350
 8346POPC   NC364235  29.121  41.575   5.550
 8346POPC   PO464236  29.109  41.517   5.850
 8346POPC   GL164237  29.112  41.600   6.150
 8346POPC   GL264238  28.975  41.538   6.150
 8346POPC   C1A64239  29.157  41.525   6.450
 8346POPC   D2A64240  29.144  41.601   6.750
 8346POPC   C3A64241  29.119  41.552   7.050
 8346POPC   C4A64242  29.193  41.583   7.350
 8346POPC   C1B64243  28.897  41.537   6.450
 8346POPC   C2B64244  28.909  41.618   6.750
 8346POPC   C3B64245  28.888  41.566   7.050
 8346POPC   C4B64246  28.923  41.617   7.350
 8347POPC   NC364247  28.357  36.131   5.550
 8347POPC   PO464248  28.346  36.153   5.850
 8347POPC   GL164249  28.347  36.088   6.150
 8347POPC   GL264250  28.281  36.249   6.150
 8347POPC   C1A64251  28.336  36.078   6.450
 8347POPC   D2A64252  28.407  36.125   6.750
 8347POPC   C3A64253  28.322  36.135   7.050
 8347POPC   C4A64254  28.417  36.132   7.350
 8347POPC   C1B64255  28.178  36.276   6.450
 8347POPC   C2B64256  28.137  36.311   6.750
 8347POPC   C3B64257  28.164  36.234   7.050
 8347POPC   C4B64258  28.145  36.233   7.350
 8348POPC   NC364259  20.607  20.567   5.550
 8348POPC   PO464260  20.660  20.566   5.850
 8348POPC   GL164261  20.646  20.625   6.150
 8348POPC   GL264262  20.564  20.498   6.150
 8348POPC   C1A64263  20.619  20.563   6.450
 8348POPC   D2A64264  20.609  20.607   6.750
 8348POPC   C3A64265  20.561  20.650   7.050
 8348POPC   C4A64266  20.629  20.648   7.350
 8348POPC   C1B64267  20.585  20.338   6.450
 8348POPC   C2B64268  20.604  20.383   6.750
 8348POPC   C3B64269  20.585  20.378   7.050
 8348POPC   C4B64270  20.657  20.389   7.350
 8349POPC   NC364271  26.005  40.816   5.550
 8349POPC   PO464272  26.056  40.736   5.850
 8349POPC   GL164273  26.031  40.803   6.150
 8349POPC   GL264274  25.895  40.853   6.150
 8349POPC   C1A64275  26.079  40.767   6.450
 8349POPC   D2A64276  26.073  40.766   6.750
 8349POPC   C3A64277  26.045  40.740   7.050
 8349POPC   C4A64278  26.079  40.785   7.350
 8349POPC   C1B64279  25.829  40.921   6.450
 8349POPC   C2B64280  25.811  40.866   6.750
 8349POPC   C3B64281  25.776  40.933   7.050
 8349POPC   C4B64282  25.774  40.857   7.350
 8350POPC   NC364283  38.463  20.652   5.550
 8350POPC   PO464284  38.405  20.651   5.850
 8350POPC   GL164285  38.428  20.636   6.150
 8350POPC   GL264286  38.413  20.747   6.150
 8350POPC   C1A64287  38.490  20.619   6.450
 8350POPC   D2A64288  38.446  20.593   6.750
 8350POPC   C3A64289  38.421  20.600   7.050
 8350POPC   C4A64290  38.479  20.649   7.350
 8350POPC   C1B64291  38.489  20.838   6.450
 8350POPC   C2B64292  38.423  20.898   6.750
 8350POPC   C3B64293  38.495  20.886   7.050
 8350POPC   C4B64294  38.435  20.903   7.350
 8351POPC   NC364295  18.298  38.486   5.550
 8351POPC   PO464296  18.332  38.449   5.850
 8351POPC   GL164297  18.281  38.420   6.150
 8351POPC   GL264298  18.212  38.557   6.150
 8351POPC   C1A64299  18.284  38.475   6.450
 8351POPC   D2A64300  18.286  38.466   6.750
 8351POPC   C3A64301  18.303  38.433   7.050
 8351POPC   C4A64302  18.258  38.451   7.350
 8351POPC   C1B64303  18.041  38.656   6.450
 8351POPC   C2B64304  18.103  38.598   6.750
 8351POPC   C3B64305  18.102  38.655   7.050
 8351POPC   C4B64306  18.043  38.565   7.350
 8352POPC   NC364307   5.871  17.470   5.550
 8352POPC   PO464308   5.849  17.474   5.850
 8352POPC   GL164309   5.909  17.516   6.150
 8352POPC   GL264310   5.994  17.565   6.150
 8352POPC   C1A64311   5.851  17.541   6.450
 8352POPC   D2A64312   5.897  17.539   6.750
 8352POPC   C3A64313   5.855  17.536   7.050
 8352POPC   C4A64314   5.883  17.470   7.350
 8352POPC   C1B64315   6.088  17.706   6.450
 8352POPC   C2B64316   6.052  17.638   6.750
 8352POPC   C3B64317   6.056  17.663   7.050
 8352POPC   C4B64318   6.019  17.682   7.350
 8353POPC   NC364319  17.483  33.824   5.550
 8353POPC   PO464320  17.512  33.809   5.850
 8353POPC   GL164321  17.472  33.830   6.150
 8353POPC   GL264322  17.504  33.681   6.150
 8353POPC   C1A64323  17.544  33.829   6.450
 8353POPC   D2A64324  17.481  33.750   6.750
 8353POPC   C3A64325  17.470  33.802   7.050
 8353POPC   C4A64326  17.499  33.836   7.350
 8353POPC   C1B64327  17.606  33.522   6.450
 8353POPC   C2B64328  17.580  33.556   6.750
 8353POPC   C3B64329  17.570  33.573   7.050
 8353POPC   C4B64330  17.576  33.604   7.350
 8354POPC   NC364331   5.913  41.583   5.550
 8354POPC   PO464332   5.839  41.511   5.850
 8354POPC   GL164333   5.883  41.523   6.150
 8354POPC   GL264334   5.823  41.395   6.150
 8354POPC   C1A64335   5.821  41.532   6.450
 8354POPC   D2A64336   5.909  41.539   6.750
 8354POPC   C3A64337   5.846  41.544   7.050
 8354POPC   C4A64338   5.904  41.591   7.350
 8354POPC   C1B64339   5.828  41.279   6.450
 8354POPC   C2B64340   5.820  41.291   6.750
 8354POPC   C3B64341   5.823  41.284   7.050
 8354POPC   C4B64342   5.794  41.367   7.350
 8355POPC   NC364343  16.777  13.664   5.550
 8355POPC   PO464344  16.763  13.658   5.850
 8355POPC   GL164345  16.734  13.632   6.150
 8355POPC   GL264346  16.829  13.507   6.150
 8355POPC   C1A64347  16.723  13.625   6.450
 8355POPC   D2A64348  16.744  13.640   6.750
 8355POPC   C3A64349  16.764  13.633   7.050
 8355POPC   C4A64350  16.707  13.623   7.350
 8355POPC   C1B64351  16.871  13.422   6.450
 8355POPC   C2B64352  16.825  13.421   6.750
 8355POPC   C3B64353  16.791  13.436   7.050
 8355POPC   C4B64354  16.778  13.426   7.350
 8356POPC   NC364355  22.932   3.574   5.550
 8356POPC   PO464356  22.892   3.535   5.850
 8356POPC   GL164357  22.967   3.534   6.150
 8356POPC   GL264358  22.794   3.587   6.150
 8356POPC   C1A64359  22.917   3.497   6.450
 8356POPC   D2A64360  22.981   3.531   6.750
 8356POPC   C3A64361  22.914   3.549   7.050
 8356POPC   C4A64362  22.908   3.533   7.350
 8356POPC   C1B64363  22.664   3.698   6.450
 8356POPC   C2B64364  22.735   3.621   6.750
 8356POPC   C3B64365  22.668   3.674   7.050
 8356POPC   C4B64366  22.728   3.637   7.350
 8357POPC   NC364367  33.787  41.592   5.550
 8357POPC   PO464368  33.789  41.553   5.850
 8357POPC   GL164369  33.823  41.577   6.150
 8357POPC   GL264370  33.754  41.715   6.150
 8357POPC   C1A64371  33.827  41.562   6.450
 8357POPC   D2A64372  33.826  41.566   6.750
 8357POPC   C3A64373  33.755  41.518   7.050
 8357POPC   C4A64374  33.796  41.590   7.350
 8357POPC   C1B64375  33.762  41.819   6.450
 8357POPC   C2B64376  33.787  41.839   6.750
 8357POPC   C3B64377  33.761  41.776   7.050
 8357POPC   C4B64378  33.743  41.787   7.350
 8358POPC   NC364379  21.422  32.265   5.550
 8358POPC   PO464380  21.381  32.233   5.850
 8358POPC   GL164381  21.407  32.256   6.150
 8358POPC   GL264382  21.226  32.262   6.150
 8358POPC   C1A64383  21.418  32.203   6.450
 8358POPC   D2A64384  21.369  32.205   6.750
 8358POPC   C3A64385  21.414  32.230   7.050
 8358POPC   C4A64386  21.380  32.215   7.350
 8358POPC   C1B64387  21.143  32.211   6.450
 8358POPC   C2B64388  21.122  32.214   6.750
 8358POPC   C3B64389  21.127  32.227   7.050
 8358POPC   C4B64390  21.135  32.153   7.350
 8359POPC   NC364391  30.661  16.697   5.550
 8359POPC   PO464392  30.701  16.750   5.850
 8359POPC   GL164393  30.690  16.773   6.150
 8359POPC   GL264394  30.653  16.818   6.150
 8359POPC   C1A64395  30.686  16.700   6.450
 8359POPC   D2A64396  30.648  16.705   6.750
 8359POPC   C3A64397  30.741  16.738   7.050
 8359POPC   C4A64398  30.684  16.747   7.350
 8359POPC   C1B64399  30.668  17.003   6.450
 8359POPC   C2B64400  30.607  16.923   6.750
 8359POPC   C3B64401  30.618  17.008   7.050
 8359POPC   C4B64402  30.646  16.985   7.350
 8360POPC   NC364403  36.926   7.452   5.550
 8360POPC   PO464404  36.873   7.407   5.850
 8360POPC   GL164405  36.937   7.460   6.150
 8360POPC   GL264406  36.870   7.287   6.150
 8360POPC   C1A64407  36.938   7.450   6.450
 8360POPC   D2A64408  36.879   7.374   6.750
 8360POPC   C3A64409  36.909   7.470   7.050
 8360POPC   C4A64410  36.952   7.440   7.350
 8360POPC   C1B64411  36.914   7.167   6.450
 8360POPC   C2B64412  36.947   7.135   6.750
 8360POPC   C3B64413  36.900   7.163   7.050
 8360POPC   C4B64414  36.911   7.204   7.350
 8361POPC   NC364415   8.965  38.415   5.550
 8361POPC   PO464416   8.981  38.501   5.850
 8361POPC   GL164417   8.963  38.484   6.150
 8361POPC   GL264418   9.006  38.388   6.150
 8361POPC   C1A64419   8.959  38.413   6.450
 8361POPC   D2A64420   8.955  38.416   6.750
 8361POPC   C3A64421   8.943  38.483   7.050
 8361POPC   C4A64422   9.007  38.449   7.350
 8361POPC   C1B64423   9.068  38.211   6.450
 8361POPC   C2B64424   9.119  38.278   6.750
 8361POPC   C3B64425   9.112  38.228   7.050
 8361POPC   C4B64426   9.144  38.253   7.350
 8362POPC   NC364427  29.104  37.725   5.550
 8362POPC   PO464428  29.106  37.662   5.850
 8362POPC   GL164429  29.095  37.654   6.150
 8362POPC   GL264430  29.068  37.730   6.150
 8362POPC   C1A64431  29.104  37.703   6.450
 8362POPC   D2A64432  29.190  37.718   6.750
 8362POPC   C3A64433  29.137  37.631   7.050
 8362POPC   C4A64434  29.105  37.687   7.350
 8362POPC   C1B64435  28.936  37.915   6.450
 8362POPC   C2B64436  29.021  37.891   6.750
 8362POPC   C3B64437  29.021  37.877   7.050
 8362POPC   C4B64438  28.975  37.914   7.350
 8363POPC   NC364439  12.808   1.231   5.550
 8363POPC   PO464440  12.845   1.247   5.850
 8363POPC   GL164441  12.871   1.170   6.150
 8363POPC   GL264442  12.911   1.132   6.150
 8363POPC   C1A64443  12.883   1.216   6.450
 8363POPC   D2A64444  12.860   1.208   6.750
 8363POPC   C3A64445  12.876   1.222   7.050
 8363POPC   C4A64446  12.835   1.186   7.350
 8363POPC   C1B64447  13.023   1.084   6.450
 8363POPC   C2B64448  13.038   1.062   6.750
 8363POPC   C3B64449  13.022   1.052   7.050
 8363POPC   C4B64450  12.997   1.011   7.350
 8364POPC   NC364451  36.871  29.128   5.550
 8364POPC   PO464452  36.891  29.149   5.850
 8364POPC   GL164453  36.907  29.103   6.150
 8364POPC   GL264454  36.979  29.220   6.150
 8364POPC   C1A64455  36.895  29.145   6.450
 8364POPC   D2A64456  36.857  29.138   6.750
 8364POPC   C3A64457  36.860  29.113   7.050
 8364POPC   C4A64458  36.913  29.125   7.350
 8364POPC   C1B64459  37.069  29.282   6.450
 8364POPC   C2B64460  37.133  29.307   6.750
 8364POPC   C3B64461  37.118  29.302   7.050
 8364POPC   C4B64462  37.128  29.226   7.350
 8365POPC   NC364463   1.227  26.867   5.550
 8365POPC   PO464464   1.206  26.779   5.850
 8365POPC   GL164465   1.234  26.798   6.150
 8365POPC   GL264466   1.197  26.915   6.150
 8365POPC   C1A64467   1.237  26.780   6.450
 8365POPC   D2A64468   1.206  26.775   6.750
 8365POPC   C3A64469   1.168  26.787   7.050
 8365POPC   C4A64470   1.166  26.781   7.350
 8365POPC   C1B64471   1.303  27.080   6.450
 8365POPC   C2B64472   1.274  27.101   6.750
 8365POPC   C3B64473   1.245  27.100   7.050
 8365POPC   C4B64474   1.232  27.040   7.350
 8366POPC   NC364475  13.653  44.653   5.550
 8366POPC   PO464476  13.616  44.694   5.850
 8366POPC   GL164477  13.602  44.613   6.150
 8366POPC   GL264478  13.693  44.740   6.150
 8366POPC   C1A64479  13.672  44.632   6.450
 8366POPC   D2A64480  13.593  44.668   6.750
 8366POPC   C3A64481  13.664  44.617   7.050
 8366POPC   C4A64482  13.604  44.709   7.350
 8366POPC   C1B64483  13.754  44.832   6.450
 8366POPC   C2B64484  13.770  44.869   6.750
 8366POPC   C3B64485  13.814  44.845   7.050
 8366POPC   C4B64486  13.734  44.823   7.350
 8367POPC   NC364487  24.527  18.235   5.550
 8367POPC   PO464488  24.529  18.247   5.850
 8367POPC   GL164489  24.485  18.317   6.150
 8367POPC   GL264490  24.415  18.278   6.150
 8367POPC   C1A64491  24.462  18.288   6.450
 8367POPC   D2A64492  24.440  18.249   6.750
 8367POPC   C3A64493  24.529  18.243   7.050
 8367POPC   C4A64494  24.532  18.257   7.350
 8367POPC   C1B64495  24.286  18.190   6.450
 8367POPC   C2B64496  24.254  18.224   6.750
 8367POPC   C3B64497  24.281  18.154   7.050
 8367POPC   C4B64498  24.218  18.202   7.350
 8368POPC   NC364499  27.590  24.524   5.550
 8368POPC   PO464500  27.598  24.517   5.850
 8368POPC   GL164501  27.579  24.472   6.150
 8368POPC   GL264502  27.639  24.605   6.150
 8368POPC   C1A64503  27.572  24.477   6.450
 8368POPC   D2A64504  27.607  24.496   6.750
 8368POPC   C3A64505  27.544  24.473   7.050
 8368POPC   C4A64506  27.597  24.515   7.350
 8368POPC   C1B64507  27.744  24.745   6.450
 8368POPC   C2B64508  27.693  24.695   6.750
 8368POPC   C3B64509  27.680  24.677   7.050
 8368POPC   C4B64510  27.707  24.677   7.350
 8369POPC   NC364511  19.078  22.135   5.550
 8369POPC   PO464512  19.028  22.158   5.850
 8369POPC   GL164513  19.085  22.148   6.150
 8369POPC   GL264514  18.962  22.055   6.150
 8369POPC   C1A64515  19.018  22.193   6.450
 8369POPC   D2A64516  19.098  22.126   6.750
 8369POPC   C3A64517  19.107  22.150   7.050
 8369POPC   C4A64518  19.050  22.116   7.350
 8369POPC   C1B64519  18.893  21.945   6.450
 8369POPC   C2B64520  18.877  21.938   6.750
 8369POPC   C3B64521  18.913  21.963   7.050
 8369POPC   C4B64522  18.914  21.967   7.350
 8370POPC   NC364523   8.233  39.980   5.550
 8370POPC   PO464524   8.219  40.035   5.850
 8370POPC   GL164525   8.244  39.971   6.150
 8370POPC   GL264526   8.225  40.103   6.150
 8370POPC   C1A64527   8.193  39.961   6.450
 8370POPC   D2A64528   8.157  40.051   6.750
 8370POPC   C3A64529   8.236  40.014   7.050
 8370POPC   C4A64530   8.240  39.985   7.350
 8370POPC   C1B64531   8.210  40.269   6.450
 8370POPC   C2B64532   8.234  40.235   6.750
 8370POPC   C3B64533   8.297  40.252   7.050
 8370POPC   C4B64534   8.260  40.286   7.350
 8371POPC   NC364535  19.101  33.070   5.550
 8371POPC   PO464536  19.070  33.068   5.850
 8371POPC   GL164537  19.044  33.035   6.150
 8371POPC   GL264538  19.011  32.889   6.150
 8371POPC   C1A64539  19.013  32.977   6.450
 8371POPC   D2A64540  19.103  33.056   6.750
 8371POPC   C3A64541  19.032  33.047   7.050
 8371POPC   C4A64542  19.024  33.031   7.350
 8371POPC   C1B64543  18.933  32.770   6.450
 8371POPC   C2B64544  18.893  32.794   6.750
 8371POPC   C3B64545  18.920  32.809   7.050
 8371POPC   C4B64546  18.965  32.836   7.350
 8372POPC   NC364547  18.248  36.174   5.550
 8372POPC   PO464548  18.243  36.130   5.850
 8372POPC   GL164549  18.309  36.150   6.150
 8372POPC   GL264550  18.380  35.994   6.150
 8372POPC   C1A64551  18.321  36.099   6.450
 8372POPC   D2A64552  18.237  36.130   6.750
 8372POPC   C3A64553  18.258  36.099   7.050
 8372POPC   C4A64554  18.275  36.096   7.350
 8372POPC   C1B64555  18.401  35.902   6.450
 8372POPC   C2B64556  18.395  35.964   6.750
 8372POPC   C3B64557  18.406  35.889   7.050
 8372POPC   C4B64558  18.450  35.882   7.350
 8373POPC   NC364559  28.345  20.628   5.550
 8373POPC   PO464560  28.332  20.563   5.850
 8373POPC   GL164561  28.405  20.634   6.150
 8373POPC   GL264562  28.207  20.610   6.150
 8373POPC   C1A64563  28.329  20.563   6.450
 8373POPC   D2A64564  28.353  20.620   6.750
 8373POPC   C3A64565  28.390  20.564   7.050
 8373POPC   C4A64566  28.401  20.641   7.350
 8373POPC   C1B64567  28.096  20.690   6.450
 8373POPC   C2B64568  28.140  20.665   6.750
 8373POPC   C3B64569  28.124  20.662   7.050
 8373POPC   C4B64570  28.143  20.721   7.350
 8374POPC   NC364571  40.814  38.487   5.550
 8374POPC   PO464572  40.776  38.484   5.850
 8374POPC   GL164573  40.752  38.426   6.150
 8374POPC   GL264574  40.768  38.330   6.150
 8374POPC   C1A64575  40.780  38.501   6.450
 8374POPC   D2A64576  40.784  38.433   6.750
 8374POPC   C3A64577  40.802  38.460   7.050
 8374POPC   C4A64578  40.791  38.427   7.350
 8374POPC   C1B64579  40.727  38.192   6.450
 8374POPC   C2B64580  40.751  38.222   6.750
 8374POPC   C3B64581  40.688  38.205   7.050
 8374POPC   C4B64582  40.689  38.208   7.350
 8375POPC   NC364583  35.380  33.817   5.550
 8375POPC   PO464584  35.360  33.766   5.850
 8375POPC   GL164585  35.401  33.786   6.150
 8375POPC   GL264586  35.232  33.868   6.150
 8375POPC   C1A64587  35.387  33.831   6.450
 8375POPC   D2A64588  35.335  33.768   6.750
 8375POPC   C3A64589  35.333  33.752   7.050
 8375POPC   C4A64590  35.391  33.833   7.350
 8375POPC   C1B64591  35.108  33.901   6.450
 8375POPC   C2B64592  35.157  33.881   6.750
 8375POPC   C3B64593  35.152  33.891   7.050
 8375POPC   C4B64594  35.160  33.908   7.350
 8376POPC   NC364595  34.583  37.683   5.550
 8376POPC   PO464596  34.608  37.648   5.850
 8376POPC   GL164597  34.538  37.705   6.150
 8376POPC   GL264598  34.702  37.704   6.150
 8376POPC   C1A64599  34.600  37.698   6.450
 8376POPC   D2A64600  34.603  37.704   6.750
 8376POPC   C3A64601  34.526  37.722   7.050
 8376POPC   C4A64602  34.608  37.697   7.350
 8376POPC   C1B64603  34.791  37.747   6.450
 8376POPC   C2B64604  34.799  37.771   6.750
 8376POPC   C3B64605  34.780  37.707   7.050
 8376POPC   C4B64606  34.825  37.711   7.350
 8377POPC   NC364607  42.323   2.746   5.550
 8377POPC   PO464608  42.363   2.767   5.850
 8377POPC   GL164609  42.292   2.806   6.150
 8377POPC   GL264610  42.443   2.900   6.150
 8377POPC   C1A64611  42.380   2.738   6.450
 8377POPC   D2A64612  42.319   2.811   6.750
 8377POPC   C3A64613  42.317   2.763   7.050
 8377POPC   C4A64614  42.332   2.809   7.350
 8377POPC   C1B64615  42.513   2.966   6.450
 8377POPC   C2B64616  42.440   2.965   6.750
 8377POPC   C3B64617  42.439   2.949   7.050
 8377POPC   C4B64618  42.508   2.944   7.350
 8378POPC   NC364619  29.922   5.834   5.550
 8378POPC   PO464620  29.883   5.862   5.850
 8378POPC   GL164621  29.936   5.888   6.150
 8378POPC   GL264622  30.013   5.921   6.150
 8378POPC   C1A64623  29.925   5.909   6.450
 8378POPC   D2A64624  29.885   5.907   6.750
 8378POPC   C3A64625  29.885   5.888   7.050
 8378POPC   C4A64626  29.894   5.838   7.350
 8378POPC   C1B64627  30.109   6.029   6.450
 8378POPC   C2B64628  30.105   6.048   6.750
 8378POPC   C3B64629  30.093   5.985   7.050
 8378POPC   C4B64630  30.159   6.042   7.350
 8379POPC   NC364631   9.790  29.135   5.550
 8379POPC   PO464632   9.737  29.139   5.850
 8379POPC   GL164633   9.750  29.141   6.150
 8379POPC   GL264634   9.621  29.169   6.150
 8379POPC   C1A64635   9.713  29.143   6.450
 8379POPC   D2A64636   9.776  29.145   6.750
 8379POPC   C3A64637   9.740  29.161   7.050
 8379POPC   C4A64638   9.741  29.193   7.350
 8379POPC   C1B64639   9.541  29.210   6.450
 8379POPC   C2B64640   9.544  29.245   6.750
 8379POPC   C3B64641   9.554  29.263   7.050
 8379POPC   C4B64642   9.494  29.201   7.350
 8380POPC   NC364643  29.929   1.962   5.550
 8380POPC   PO464644  29.958   2.001   5.850
 8380POPC   GL164645  29.954   2.010   6.150
 8380POPC   GL264646  29.768   2.048   6.150
 8380POPC   C1A64647  29.946   1.944   6.450
 8380POPC   D2A64648  29.929   1.993   6.750
 8380POPC   C3A64649  29.914   1.986   7.050
 8380POPC   C4A64650  29.953   2.000   7.350
 8380POPC   C1B64651  29.692   2.142   6.450
 8380POPC   C2B64652  29.723   2.108   6.750
 8380POPC   C3B64653  29.695   2.158   7.050
 8380POPC   C4B64654  29.743   2.148   7.350
 8381POPC   NC364655  14.360  30.711   5.550
 8381POPC   PO464656  14.453  30.708   5.850
 8381POPC   GL164657  14.371  30.675   6.150
 8381POPC   GL264658  14.333  30.617   6.150
 8381POPC   C1A64659  14.445  30.714   6.450
 8381POPC   D2A64660  14.385  30.650   6.750
 8381POPC   C3A64661  14.408  30.654   7.050
 8381POPC   C4A64662  14.451  30.730   7.350
 8381POPC   C1B64663  14.207  30.605   6.450
 8381POPC   C2B64664  14.163  30.605   6.750
 8381POPC   C3B64665  14.180  30.544   7.050
 8381POPC   C4B64666  14.142  30.556   7.350
 8382POPC   NC364667  40.802  35.327   5.550
 8382POPC   PO464668  40.803  35.313   5.850
 8382POPC   GL164669  40.807  35.351   6.150
 8382POPC   GL264670  40.833  35.233   6.150
 8382POPC   C1A64671  40.736  35.335   6.450
 8382POPC   D2A64672  40.769  35.367   6.750
 8382POPC   C3A64673  40.793  35.308   7.050
 8382POPC   C4A64674  40.745  35.314   7.350
 8382POPC   C1B64675  40.885  35.077   6.450
 8382POPC   C2B64676  40.876  35.104   6.750
 8382POPC   C3B64677  40.841  35.153   7.050
 8382POPC   C4B64678  40.810  35.080   7.350
 8383POPC   NC364679  36.155   9.792   5.550
 8383POPC   PO464680  36.096   9.766   5.850
 8383POPC   GL164681  36.094   9.798   6.150
 8383POPC   GL264682  36.036   9.787   6.150
 8383POPC   C1A64683  36.094   9.735   6.450
 8383POPC   D2A64684  36.086   9.709   6.750
 8383POPC   C3A64685  36.173   9.793   7.050
 8383POPC   C4A64686  36.102   9.789   7.350
 8383POPC   C1B64687  35.884   9.752   6.450
 8383POPC   C2B64688  35.914   9.808   6.750
 8383POPC   C3B64689  35.892   9.767   7.050
 8383POPC   C4B64690  35.835   9.744   7.350
 8384POPC   NC364691   1.235  18.290   5.550
 8384POPC   PO464692   1.199  18.243   5.850
 8384POPC   GL164693   1.206  18.270   6.150
 8384POPC   GL264694   1.341  18.203   6.150
 8384POPC   C1A64695   1.210  18.254   6.450
 8384POPC   D2A64696   1.217  18.252   6.750
 8384POPC   C3A64697   1.216  18.293   7.050
 8384POPC   C4A64698   1.186  18.269   7.350
 8384POPC   C1B64699   1.477  18.181   6.450
 8384POPC   C2B64700   1.465  18.233   6.750
 8384POPC   C3B64701   1.468  18.183   7.050
 8384POPC   C4B64702   1.463  18.250   7.350
 8385POPC   NC364703  36.885  43.856   5.550
 8385POPC   PO464704  36.888  43.852   5.850
 8385POPC   GL164705  36.877  43.902   6.150
 8385POPC   GL264706  37.039  43.993   6.150
 8385POPC   C1A64707  36.916  43.866   6.450
 8385POPC   D2A64708  36.861  43.882   6.750
 8385POPC   C3A64709  36.932  43.840   7.050
 8385POPC   C4A64710  36.951  43.904   7.350
 8385POPC   C1B64711  37.097  44.037   6.450
 8385POPC   C2B64712  37.082  44.067   6.750
 8385POPC   C3B64713  37.124  44.038   7.050
 8385POPC   C4B64714  37.152  44.075   7.350
 8386POPC   NC364715  39.197   2.000   5.550
 8386POPC   PO464716  39.207   1.963   5.850
 8386POPC   GL164717  39.228   2.021   6.150
 8386POPC   GL264718  39.167   2.110   6.150
 8386POPC   C1A64719  39.246   2.003   6.450
 8386POPC   D2A64720  39.273   1.959   6.750
 8386POPC   C3A64721  39.270   1.978   7.050
 8386POPC   C4A64722  39.237   2.021   7.350
 8386POPC   C1B64723  39.127   2.198   6.450
 8386POPC   C2B64724  39.145   2.224   6.750
 8386POPC   C3B64725  39.050   2.191   7.050
 8386POPC   C4B64726  39.088   2.199   7.350
 8387POPC   NC364727   6.666  24.488   5.550
 8387POPC   PO464728   6.691  24.508   5.850
 8387POPC   GL164729   6.675  24.471   6.150
 8387POPC   GL264730   6.681  24.378   6.150
 8387POPC   C1A64731   6.658  24.515   6.450
 8387POPC   D2A64732   6.663  24.444   6.750
 8387POPC   C3A64733   6.691  24.515   7.050
 8387POPC   C4A64734   6.648  24.520   7.350
 8387POPC   C1B64735   6.610  24.197   6.450
 8387POPC   C2B64736   6.689  24.222   6.750
 8387POPC   C3B64737   6.677  24.254   7.050
 8387POPC   C4B64738   6.682  24.285   7.350
 8388POPC   NC364739  29.935  26.796   5.550
 8388POPC   PO464740  29.872  26.849   5.850
 8388POPC   GL164741  29.910  26.844   6.150
 8388POPC   GL264742  30.012  26.680   6.150
 8388POPC   C1A64743  29.899  26.817   6.450
 8388POPC   D2A64744  29.878  26.864   6.750
 8388POPC   C3A64745  29.890  26.831   7.050
 8388POPC   C4A64746  29.898  26.861   7.350
 8388POPC   C1B64747  30.088  26.634   6.450
 8388POPC   C2B64748  30.032  26.600   6.750
 8388POPC   C3B64749  30.037  26.608   7.050
 8388POPC   C4B64750  30.066  26.590   7.350
 8389POPC   NC364751  38.442  42.355   5.550
 8389POPC   PO464752  38.439  42.319   5.850
 8389POPC   GL164753  38.419  42.350   6.150
 8389POPC   GL264754  38.334  42.414   6.150
 8389POPC   C1A64755  38.493  42.334   6.450
 8389POPC   D2A64756  38.475  42.291   6.750
 8389POPC   C3A64757  38.480  42.300   7.050
 8389POPC   C4A64758  38.504  42.351   7.350
 8389POPC   C1B64759  38.261  42.532   6.450
 8389POPC   C2B64760  38.258  42.538   6.750
 8389POPC   C3B64761  38.329  42.553   7.050
 8389POPC   C4B64762  38.338  42.562   7.350
 8390POPC   NC364763  32.982  13.631   5.550
 8390POPC   PO464764  33.019  13.657   5.850
 8390POPC   GL164765  33.065  13.595   6.150
 8390POPC   GL264766  33.127  13.720   6.150
 8390POPC   C1A64767  33.071  13.676   6.450
 8390POPC   D2A64768  33.072  13.628   6.750
 8390POPC   C3A64769  33.043  13.608   7.050
 8390POPC   C4A64770  33.015  13.656   7.350
 8390POPC   C1B64771  33.187  13.793   6.450
 8390POPC   C2B64772  33.216  13.798   6.750
 8390POPC   C3B64773  33.137  13.872   7.050
 8390POPC   C4B64774  33.136  13.813   7.350
 8391POPC   NC364775  14.447  33.024   5.550
 8391POPC   PO464776  14.417  32.991   5.850
 8391POPC   GL164777  14.449  33.006   6.150
 8391POPC   GL264778  14.398  33.132   6.150
 8391POPC   C1A64779  14.424  33.015   6.450
 8391POPC   D2A64780  14.417  33.058   6.750
 8391POPC   C3A64781  14.424  33.060   7.050
 8391POPC   C4A64782  14.423  33.013   7.350
 8391POPC   C1B64783  14.427  33.302   6.450
 8391POPC   C2B64784  14.438  33.232   6.750
 8391POPC   C3B64785  14.424  33.277   7.050
 8391POPC   C4B64786  14.434  33.253   7.350
 8392POPC   NC364787  44.705  22.960   5.550
 8392POPC   PO464788  44.650  22.915   5.850
 8392POPC   GL164789  44.692  22.933   6.150
 8392POPC   GL264790  44.766  23.004   6.150
 8392POPC   C1A64791  44.690  22.965   6.450
 8392POPC   D2A64792  44.646  22.961   6.750
 8392POPC   C3A64793  44.621  22.965   7.050
 8392POPC   C4A64794  44.644  22.954   7.350
 8392POPC   C1B64795  44.858  23.024   6.450
 8392POPC   C2B64796  44.900  23.078   6.750
 8392POPC   C3B64797  44.895  23.062   7.050
 8392POPC   C4B64798  44.894  23.037   7.350
 8393POPC   NC364799  10.477  16.702   5.550
 8393POPC   PO464800  10.480  16.696   5.850
 8393POPC   GL164801  10.541  16.723   6.150
 8393POPC   GL264802  10.640  16.696   6.150
 8393POPC   C1A64803  10.478  16.765   6.450
 8393POPC   D2A64804  10.569  16.699   6.750
 8393POPC   C3A64805  10.527  16.732   7.050
 8393POPC   C4A64806  10.568  16.730   7.350
 8393POPC   C1B64807  10.697  16.545   6.450
 8393POPC   C2B64808  10.672  16.552   6.750
 8393POPC   C3B64809  10.719  16.527   7.050
 8393POPC   C4B64810  10.734  16.591   7.350
 8394POPC   NC364811  36.141   8.976   5.550
 8394POPC   PO464812  36.153   8.974   5.850
 8394POPC   GL164813  36.110   8.952   6.150
 8394POPC   GL264814  36.112   9.119   6.150
 8394POPC   C1A64815  36.156   8.961   6.450
 8394POPC   D2A64816  36.096   8.965   6.750
 8394POPC   C3A64817  36.093   9.021   7.050
 8394POPC   C4A64818  36.115   8.975   7.350
 8394POPC   C1B64819  36.171   9.181   6.450
 8394POPC   C2B64820  36.119   9.179   6.750
 8394POPC   C3B64821  36.176   9.234   7.050
 8394POPC   C4B64822  36.189   9.255   7.350
 8395POPC   NC364823  11.298  21.412   5.550
 8395POPC   PO464824  11.281  21.391   5.850
 8395POPC   GL164825  11.341  21.371   6.150
 8395POPC   GL264826  11.244  21.290   6.150
 8395POPC   C1A64827  11.328  21.338   6.450
 8395POPC   D2A64828  11.346  21.398   6.750
 8395POPC   C3A64829  11.343  21.370   7.050
 8395POPC   C4A64830  11.256  21.432   7.350
 8395POPC   C1B64831  11.160  21.154   6.450
 8395POPC   C2B64832  11.153  21.141   6.750
 8395POPC   C3B64833  11.167  21.164   7.050
 8395POPC   C4B64834  11.173  21.198   7.350
 8396POPC   NC364835  12.073  36.100   5.550
 8396POPC   PO464836  12.028  36.130   5.850
 8396POPC   GL164837  12.122  36.104   6.150
 8396POPC   GL264838  12.140  35.987   6.150
 8396POPC   C1A64839  12.117  36.101   6.450
 8396POPC   D2A64840  12.061  36.128   6.750
 8396POPC   C3A64841  12.120  36.136   7.050
 8396POPC   C4A64842  12.043  36.087   7.350
 8396POPC   C1B64843  12.191  35.894   6.450
 8396POPC   C2B64844  12.220  35.867   6.750
 8396POPC   C3B64845  12.201  35.856   7.050
 8396POPC   C4B64846  12.135  35.862   7.350
 8397POPC   NC364847  30.719  11.280   5.550
 8397POPC   PO464848  30.663  11.260   5.850
 8397POPC   GL164849  30.673  11.333   6.150
 8397POPC   GL264850  30.669  11.396   6.150
 8397POPC   C1A64851  30.738  11.315   6.450
 8397POPC   D2A64852  30.711  11.336   6.750
 8397POPC   C3A64853  30.688  11.267   7.050
 8397POPC   C4A64854  30.702  11.314   7.350
 8397POPC   C1B64855  30.708  11.586   6.450
 8397POPC   C2B64856  30.731  11.575   6.750
 8397POPC   C3B64857  30.737  11.508   7.050
 8397POPC   C4B64858  30.700  11.538   7.350
 8398POPC   NC364859  17.482  12.031   5.550
 8398POPC   PO464860  17.507  12.087   5.850
 8398POPC   GL164861  17.531  12.110   6.150
 8398POPC   GL264862  17.438  12.136   6.150
 8398POPC   C1A64863  17.507  12.113   6.450
 8398POPC   D2A64864  17.488  12.032   6.750
 8398POPC   C3A64865  17.553  12.056   7.050
 8398POPC   C4A64866  17.479  12.096   7.350
 8398POPC   C1B64867  17.294  12.135   6.450
 8398POPC   C2B64868  17.308  12.190   6.750
 8398POPC   C3B64869  17.295  12.156   7.050
 8398POPC   C4B64870  17.308  12.162   7.350
 8399POPC   NC364871  31.429  44.628   5.550
 8399POPC   PO464872  31.474  44.701   5.850
 8399POPC   GL164873  31.492  44.708   6.150
 8399POPC   GL264874  31.440  44.813   6.150
 8399POPC   C1A64875  31.429  44.701   6.450
 8399POPC   D2A64876  31.469  44.669   6.750
 8399POPC   C3A64877  31.487  44.623   7.050
 8399POPC   C4A64878  31.429  44.687   7.350
 8399POPC   C1B64879  31.378  44.905   6.450
 8399POPC   C2B64880  31.386  44.883   6.750
 8399POPC   C3B64881  31.346  44.913   7.050
 8399POPC   C4B64882  31.359  44.828   7.350
 8400POPC   NC364883  13.675  29.180   5.550
 8400POPC   PO464884  13.580  29.100   5.850
 8400POPC   GL164885  13.586  29.136   6.150
 8400POPC   GL264886  13.714  29.250   6.150
 8400POPC   C1A64887  13.631  29.102   6.450
 8400POPC   D2A64888  13.635  29.171   6.750
 8400POPC   C3A64889  13.618  29.155   7.050
 8400POPC   C4A64890  13.633  29.109   7.350
 8400POPC   C1B64891  13.803  29.276   6.450
 8400POPC   C2B64892  13.898  29.294   6.750
 8400POPC   C3B64893  13.816  29.278   7.050
 8400POPC   C4B64894  13.853  29.213   7.350
 8401POPC   NC364895  10.511   8.933   5.550
 8401POPC   PO464896  10.515   8.982   5.850
 8401POPC   GL164897  10.541   8.935   6.150
 8401POPC   GL264898  10.507   9.127   6.150
 8401POPC   C1A64899  10.533   8.986   6.450
 8401POPC   D2A64900  10.551   9.015   6.750
 8401POPC   C3A64901  10.494   8.963   7.050
 8401POPC   C4A64902  10.557   9.008   7.350
 8401POPC   C1B64903  10.388   9.165   6.450
 8401POPC   C2B64904  10.426   9.241   6.750
 8401POPC   C3B64905  10.390   9.181   7.050
 8401POPC   C4B64906  10.392   9.248   7.350
 8402POPC   NC364907  12.829   9.783   5.550
 8402POPC   PO464908  12.831   9.777   5.850
 8402POPC   GL164909  12.818   9.724   6.150
 8402POPC   GL264910  12.782   9.859   6.150
 8402POPC   C1A64911  12.894   9.786   6.450
 8402POPC   D2A64912  12.901   9.749   6.750
 8402POPC   C3A64913  12.871   9.726   7.050
 8402POPC   C4A64914  12.872   9.793   7.350
 8402POPC   C1B64915  12.687   9.906   6.450
 8402POPC   C2B64916  12.688   9.947   6.750
 8402POPC   C3B64917  12.636   9.923   7.050
 8402POPC   C4B64918  12.709   9.896   7.350
 8403POPC   NC364919  28.348   4.331   5.550
 8403POPC   PO464920  28.400   4.287   5.850
 8403POPC   GL164921  28.383   4.317   6.150
 8403POPC   GL264922  28.290   4.423   6.150
 8403POPC   C1A64923  28.415   4.292   6.450
 8403POPC   D2A64924  28.342   4.271   6.750
 8403POPC   C3A64925  28.403   4.331   7.050
 8403POPC   C4A64926  28.367   4.298   7.350
 8403POPC   C1B64927  28.248   4.488   6.450
 8403POPC   C2B64928  28.224   4.544   6.750
 8403POPC   C3B64929  28.227   4.498   7.050
 8403POPC   C4B64930  28.193   4.486   7.350
 8404POPC   NC364931  33.021  15.906   5.550
 8404POPC   PO464932  33.057  15.981   5.850
 8404POPC   GL164933  32.977  15.946   6.150
 8404POPC   GL264934  32.913  15.926   6.150
 8404POPC   C1A64935  33.030  15.922   6.450
 8404POPC   D2A64936  33.058  15.966   6.750
 8404POPC   C3A64937  33.061  15.926   7.050
 8404POPC   C4A64938  33.066  15.933   7.350
 8404POPC   C1B64939  32.768  15.837   6.450
 8404POPC   C2B64940  32.821  15.795   6.750
 8404POPC   C3B64941  32.850  15.811   7.050
 8404POPC   C4B64942  32.864  15.850   7.350
 8405POPC   NC364943  17.472  44.694   5.550
 8405POPC   PO464944  17.550  44.645   5.850
 8405POPC   GL164945  17.525  44.614   6.150
 8405POPC   GL264946  17.382  44.570   6.150
 8405POPC   C1A64947  17.510  44.632   6.450
 8405POPC   D2A64948  17.540  44.640   6.750
 8405POPC   C3A64949  17.534  44.712   7.050
 8405POPC   C4A64950  17.554  44.654   7.350
 8405POPC   C1B64951  17.342  44.502   6.450
 8405POPC   C2B64952  17.300  44.515   6.750
 8405POPC   C3B64953  17.346  44.532   7.050
 8405POPC   C4B64954  17.262  44.494   7.350
 8406POPC   NC364955   4.274   3.588   5.550
 8406POPC   PO464956   4.327   3.573   5.850
 8406POPC   GL164957   4.320   3.578   6.150
 8406POPC   GL264958   4.451   3.631   6.150
 8406POPC   C1A64959   4.334   3.561   6.450
 8406POPC   D2A64960   4.345   3.515   6.750
 8406POPC   C3A64961   4.284   3.529   7.050
 8406POPC   C4A64962   4.334   3.559   7.350
 8406POPC   C1B64963   4.492   3.668   6.450
 8406POPC   C2B64964   4.539   3.707   6.750
 8406POPC   C3B64965   4.512   3.710   7.050
 8406POPC   C4B64966   4.538   3.714   7.350
 8407POPC   NC364967  37.714  26.862   5.550
 8407POPC   PO464968  37.649  26.780   5.850
 8407POPC   GL164969  37.691  26.828   6.150
 8407POPC   GL264970  37.670  26.732   6.150
 8407POPC   C1A64971  37.717  26.838   6.450
 8407POPC   D2A64972  37.644  26.824   6.750
 8407POPC   C3A64973  37.678  26.835   7.050
 8407POPC   C4A64974  37.704  26.774   7.350
 8407POPC   C1B64975  37.618  26.575   6.450
 8407POPC   C2B64976  37.663  26.571   6.750
 8407POPC   C3B64977  37.635  26.540   7.050
 8407POPC   C4B64978  37.599  26.541   7.350
 8408POPC   NC364979   9.746  13.641   5.550
 8408POPC   PO464980   9.735  13.677   5.850
 8408POPC   GL164981   9.797  13.659   6.150
 8408POPC   GL264982   9.811  13.717   6.150
 8408POPC   C1A64983   9.776  13.666   6.450
 8408POPC   D2A64984   9.708  13.652   6.750
 8408POPC   C3A64985   9.724  13.624   7.050
 8408POPC   C4A64986   9.760  13.654   7.350
 8408POPC   C1B64987   9.968  13.723   6.450
 8408POPC   C2B64988  10.000  13.729   6.750
 8408POPC   C3B64989  10.019  13.689   7.050
 8408POPC   C4B64990   9.971  13.699   7.350
 8409POPC   NC364991  28.346  39.260   5.550
 8409POPC   PO464992  28.400  39.258   5.850
 8409POPC   GL164993  28.353  39.198   6.150
 8409POPC   GL264994  28.255  39.229   6.150
 8409POPC   C1A64995  28.326  39.199   6.450
 8409POPC   D2A64996  28.415  39.218   6.750
 8409POPC   C3A64997  28.411  39.199   7.050
 8409POPC   C4A64998  28.327  39.265   7.350
 8409POPC   C1B64999  28.158  39.199   6.450
 8409POPC   C2B65000  28.167  39.161   6.750
 8409POPC   C3B65001  28.119  39.153   7.050
 8409POPC   C4B65002  28.166  39.167   7.350
 8410POPC   NC365003  29.112  12.894   5.550
 8410POPC   PO465004  29.097  12.899   5.850
 8410POPC   GL165005  29.155  12.882   6.150
 8410POPC   GL265006  29.091  12.734   6.150
 8410POPC   C1A65007  29.193  12.865   6.450
 8410POPC   D2A65008  29.142  12.883   6.750
 8410POPC   C3A65009  29.145  12.838   7.050
 8410POPC   C4A65010  29.191  12.888   7.350
 8410POPC   C1B65011  28.967  12.644   6.450
 8410POPC   C2B65012  28.991  12.652   6.750
 8410POPC   C3B65013  29.023  12.676   7.050
 8410POPC   C4B65014  29.013  12.619   7.350
 8411POPC   NC365015  15.165  15.971   5.550
 8411POPC   PO465016  15.131  15.939   5.850
 8411POPC   GL165017  15.153  15.931   6.150
 8411POPC   GL265018  15.097  16.047   6.150
 8411POPC   C1A65019  15.133  15.972   6.450
 8411POPC   D2A65020  15.196  15.961   6.750
 8411POPC   C3A65021  15.131  16.004   7.050
 8411POPC   C4A65022  15.203  15.907   7.350
 8411POPC   C1B65023  15.029  16.134   6.450
 8411POPC   C2B65024  15.029  16.155   6.750
 8411POPC   C3B65025  15.103  16.162   7.050
 8411POPC   C4B65026  15.072  16.157   7.350
 8412POPC   NC365027  44.616  25.277   5.550
 8412POPC   PO465028  44.702  25.268   5.850
 8412POPC   GL165029  44.668  25.313   6.150
 8412POPC   GL265030  44.777  25.359   6.150
 8412POPC   C1A65031  44.675  25.276   6.450
 8412POPC   D2A65032  44.700  25.269   6.750
 8412POPC   C3A65033  44.642  25.271   7.050
 8412POPC   C4A65034  44.615  25.251   7.350
 8412POPC   C1B65035  44.788  25.433   6.450
 8412POPC   C2B65036  44.791  25.492   6.750
 8412POPC   C3B65037  44.817  25.474   7.050
 8412POPC   C4B65038  44.825  25.504   7.350
 8413POPC   NC365039   8.956   8.999   5.550
 8413POPC   PO465040   9.018   8.925   5.850
 8413POPC   GL165041   8.942   8.968   6.150
 8413POPC   GL265042   8.907   9.137   6.150
 8413POPC   C1A65043   8.970   8.979   6.450
 8413POPC   D2A65044   9.014   8.972   6.750
 8413POPC   C3A65045   9.019   8.988   7.050
 8413POPC   C4A65046   8.952   8.923   7.350
 8413POPC   C1B65047   8.903   9.226   6.450
 8413POPC   C2B65048   8.934   9.161   6.750
 8413POPC   C3B65049   8.942   9.239   7.050
 8413POPC   C4B65050   8.937   9.196   7.350
 8414POPC   NC365051  41.533  33.835   5.550
 8414POPC   PO465052  41.548  33.845   5.850
 8414POPC   GL165053  41.576  33.818   6.150
 8414POPC   GL265054  41.589  33.913   6.150
 8414POPC   C1A65055  41.602  33.823   6.450
 8414POPC   D2A65056  41.607  33.837   6.750
 8414POPC   C3A65057  41.573  33.759   7.050
 8414POPC   C4A65058  41.541  33.775   7.350
 8414POPC   C1B65059  41.677  34.017   6.450
 8414POPC   C2B65060  41.655  34.059   6.750
 8414POPC   C3B65061  41.645  34.059   7.050
 8414POPC   C4B65062  41.688  33.997   7.350
 8415POPC   NC365063  36.948  38.487   5.550
 8415POPC   PO465064  36.865  38.435   5.850
 8415POPC   GL165065  36.943  38.437   6.150
 8415POPC   GL265066  36.799  38.539   6.150
 8415POPC   C1A65067  36.872  38.416   6.450
 8415POPC   D2A65068  36.916  38.418   6.750
 8415POPC   C3A65069  36.859  38.460   7.050
 8415POPC   C4A65070  36.872  38.473   7.350
 8415POPC   C1B65071  36.774  38.690   6.450
 8415POPC   C2B65072  36.783  38.691   6.750
 8415POPC   C3B65073  36.753  38.651   7.050
 8415POPC   C4B65074  36.740  38.648   7.350
 8416POPC   NC365075   8.925   4.341   5.550
 8416POPC   PO465076   8.995   4.296   5.850
 8416POPC   GL165077   8.936   4.359   6.150
 8416POPC   GL265078   8.937   4.470   6.150
 8416POPC   C1A65079   9.012   4.286   6.450
 8416POPC   D2A65080   9.006   4.359   6.750
 8416POPC   C3A65081   8.956   4.331   7.050
 8416POPC   C4A65082   8.971   4.330   7.350
 8416POPC   C1B65083   8.870   4.577   6.450
 8416POPC   C2B65084   8.853   4.492   6.750
 8416POPC   C3B65085   8.800   4.524   7.050
 8416POPC   C4B65086   8.804   4.522   7.350
 8417POPC   NC365087   2.001  39.991   5.550
 8417POPC   PO465088   1.986  39.960   5.850
 8417POPC   GL165089   1.987  40.035   6.150
 8417POPC   GL265090   1.895  39.944   6.150
 8417POPC   C1A65091   1.991  40.043   6.450
 8417POPC   D2A65092   1.950  39.975   6.750
 8417POPC   C3A65093   1.981  40.037   7.050
 8417POPC   C4A65094   1.959  39.979   7.350
 8417POPC   C1B65095   1.717  39.902   6.450
 8417POPC   C2B65096   1.729  39.918   6.750
 8417POPC   C3B65097   1.746  39.881   7.050
 8417POPC   C4B65098   1.778  39.861   7.350
 8418POPC   NC365099  19.108  36.130   5.550
 8418POPC   PO465100  19.044  36.080   5.850
 8418POPC   GL165101  19.091  36.161   6.150
 8418POPC   GL265102  19.006  36.077   6.150
 8418POPC   C1A65103  19.041  36.170   6.450
 8418POPC   D2A65104  19.016  36.177   6.750
 8418POPC   C3A65105  19.031  36.163   7.050
 8418POPC   C4A65106  19.034  36.112   7.350
 8418POPC   C1B65107  18.919  35.969   6.450
 8418POPC   C2B65108  18.922  35.921   6.750
 8418POPC   C3B65109  18.910  35.963   7.050
 8418POPC   C4B65110  18.942  35.984   7.350
 8419POPC   NC365111  26.797  41.551   5.550
 8419POPC   PO465112  26.831  41.519   5.850
 8419POPC   GL165113  26.848  41.510   6.150
 8419POPC   GL265114  26.708  41.627   6.150
 8419POPC   C1A65115  26.798  41.524   6.450
 8419POPC   D2A65116  26.809  41.565   6.750
 8419POPC   C3A65117  26.824  41.592   7.050
 8419POPC   C4A65118  26.848  41.542   7.350
 8419POPC   C1B65119  26.649  41.780   6.450
 8419POPC   C2B65120  26.709  41.735   6.750
 8419POPC   C3B65121  26.722  41.801   7.050
 8419POPC   C4B65122  26.637  41.748   7.350
 8420POPC   NC365123   8.230  36.900   5.550
 8420POPC   PO465124   8.226  36.939   5.850
 8420POPC   GL165125   8.181  36.876   6.150
 8420POPC   GL265126   8.271  36.838   6.150
 8420POPC   C1A65127   8.216  36.888   6.450
 8420POPC   D2A65128   8.201  36.890   6.750
 8420POPC   C3A65129   8.189  36.892   7.050
 8420POPC   C4A65130   8.172  36.867   7.350
 8420POPC   C1B65131   8.449  36.841   6.450
 8420POPC   C2B65132   8.395  36.816   6.750
 8420POPC   C3B65133   8.484  36.851   7.050
 8420POPC   C4B65134   8.468  36.844   7.350
 8421POPC   NC365135   9.793  30.721   5.550
 8421POPC   PO465136   9.788  30.667   5.850
 8421POPC   GL165137   9.731  30.702   6.150
 8421POPC   GL265138   9.670  30.691   6.150
 8421POPC   C1A65139   9.734  30.716   6.450
 8421POPC   D2A65140   9.720  30.679   6.750
 8421POPC   C3A65141   9.787  30.699   7.050
 8421POPC   C4A65142   9.699  30.658   7.350
 8421POPC   C1B65143   9.464  30.615   6.450
 8421POPC   C2B65144   9.519  30.625   6.750
 8421POPC   C3B65145   9.535  30.608   7.050
 8421POPC   C4B65146   9.500  30.664   7.350
 8422POPC   NC365147  16.757  28.415   5.550
 8422POPC   PO465148  16.682  28.415   5.850
 8422POPC   GL165149  16.719  28.344   6.150
 8422POPC   GL265150  16.686  28.291   6.150
 8422POPC   C1A65151  16.753  28.340   6.450
 8422POPC   D2A65152  16.774  28.380   6.750
 8422POPC   C3A65153  16.753  28.371   7.050
 8422POPC   C4A65154  16.704  28.340   7.350
 8422POPC   C1B65155  16.708  28.157   6.450
 8422POPC   C2B65156  16.686  28.074   6.750
 8422POPC   C3B65157  16.662  28.087   7.050
 8422POPC   C4B65158  16.693  28.078   7.350
 8423POPC   NC365159  22.210  13.676   5.550
 8423POPC   PO465160  22.181  13.583   5.850
 8423POPC   GL165161  22.181  13.605   6.150
 8423POPC   GL265162  22.274  13.735   6.150
 8423POPC   C1A65163  22.129  13.660   6.450
 8423POPC   D2A65164  22.164  13.670   6.750
 8423POPC   C3A65165  22.151  13.660   7.050
 8423POPC   C4A65166  22.200  13.633   7.350
 8423POPC   C1B65167  22.270  13.882   6.450
 8423POPC   C2B65168  22.276  13.796   6.750
 8423POPC   C3B65169  22.286  13.877   7.050
 8423POPC   C4B65170  22.287  13.807   7.350
 8424POPC   NC365171   8.952   1.177   5.550
 8424POPC   PO465172   8.951   1.182   5.850
 8424POPC   GL165173   9.020   1.239   6.150
 8424POPC   GL265174   8.976   1.094   6.150
 8424POPC   C1A65175   8.987   1.227   6.450
 8424POPC   D2A65176   8.960   1.262   6.750
 8424POPC   C3A65177   8.974   1.181   7.050
 8424POPC   C4A65178   8.999   1.206   7.350
 8424POPC   C1B65179   8.950   1.001   6.450
 8424POPC   C2B65180   8.956   0.923   6.750
 8424POPC   C3B65181   8.935   0.950   7.050
 8424POPC   C4B65182   8.938   0.951   7.350
 8425POPC   NC365183  14.417  11.329   5.550
 8425POPC   PO465184  14.362  11.290   5.850
 8425POPC   GL165185  14.415  11.323   6.150
 8425POPC   GL265186  14.420  11.385   6.150
 8425POPC   C1A65187  14.387  11.348   6.450
 8425POPC   D2A65188  14.424  11.315   6.750
 8425POPC   C3A65189  14.377  11.313   7.050
 8425POPC   C4A65190  14.418  11.315   7.350
 8425POPC   C1B65191  14.529  11.530   6.450
 8425POPC   C2B65192  14.492  11.493   6.750
 8425POPC   C3B65193  14.484  11.552   7.050
 8425POPC   C4B65194  14.516  11.547   7.350
 8426POPC   NC365195  44.646  43.105   5.550
 8426POPC   PO465196  44.664  43.075   5.850
 8426POPC   GL165197  44.652  43.072   6.150
 8426POPC   GL265198  44.803  43.113   6.150
 8426POPC   C1A65199  44.616  43.126   6.450
 8426POPC   D2A65200  44.711  43.090   6.750
 8426POPC   C3A65201  44.626  43.160   7.050
 8426POPC   C4A65202  44.689  43.130   7.350
 8426POPC   C1B65203  44.942  43.037   6.450
 8426POPC   C2B65204  44.926  43.025   6.750
 8426POPC   C3B65205  44.951  43.050   7.050
 8426POPC   C4B65206  44.901  43.085   7.350
 8427POPC   NC365207  42.377   4.268   5.550
 8427POPC   PO465208  42.297   4.338   5.850
 8427POPC   GL165209  42.366   4.271   6.150
 8427POPC   GL265210  42.437   4.326   6.150
 8427POPC   C1A65211  42.357   4.361   6.450
 8427POPC   D2A65212  42.353   4.268   6.750
 8427POPC   C3A65213  42.370   4.328   7.050
 8427POPC   C4A65214  42.293   4.317   7.350
 8427POPC   C1B65215  42.591   4.354   6.450
 8427POPC   C2B65216  42.615   4.382   6.750
 8427POPC   C3B65217  42.533   4.382   7.050
 8427POPC   C4B65218  42.594   4.351   7.350
 8428POPC   NC365219   7.397  42.369   5.550
 8428POPC   PO465220   7.458  42.345   5.850
 8428POPC   GL165221   7.421  42.331   6.150
 8428POPC   GL265222   7.488  42.231   6.150
 8428POPC   C1A65223   7.456  42.377   6.450
 8428POPC   D2A65224   7.430  42.296   6.750
 8428POPC   C3A65225   7.441  42.294   7.050
 8428POPC   C4A65226   7.426  42.292   7.350
 8428POPC   C1B65227   7.519  42.148   6.450
 8428POPC   C2B65228   7.591  42.134   6.750
 8428POPC   C3B65229   7.567  42.099   7.050
 8428POPC   C4B65230   7.577  42.121   7.350
 8429POPC   NC365231  14.382  38.431   5.550
 8429POPC   PO465232  14.431  38.501   5.850
 8429POPC   GL165233  14.372  38.483   6.150
 8429POPC   GL265234  14.323  38.318   6.150
 8429POPC   C1A65235  14.364  38.422   6.450
 8429POPC   D2A65236  14.365  38.409   6.750
 8429POPC   C3A65237  14.445  38.499   7.050
 8429POPC   C4A65238  14.432  38.460   7.350
 8429POPC   C1B65239  14.233  38.220   6.450
 8429POPC   C2B65240  14.241  38.224   6.750
 8429POPC   C3B65241  14.189  38.261   7.050
 8429POPC   C4B65242  14.196  38.305   7.350
 8430POPC   NC365243  26.078  33.833   5.550
 8430POPC   PO465244  26.073  33.788   5.850
 8430POPC   GL165245  26.026  33.816   6.150
 8430POPC   GL265246  26.101  33.752   6.150
 8430POPC   C1A65247  26.049  33.831   6.450
 8430POPC   D2A65248  25.996  33.850   6.750
 8430POPC   C3A65249  26.053  33.759   7.050
 8430POPC   C4A65250  26.025  33.769   7.350
 8430POPC   C1B65251  26.209  33.600   6.450
 8430POPC   C2B65252  26.238  33.643   6.750
 8430POPC   C3B65253  26.261  33.654   7.050
 8430POPC   C4B65254  26.265  33.623   7.350
 8431POPC   NC365255  26.040  22.960   5.550
 8431POPC   PO465256  26.036  22.940   5.850
 8431POPC   GL165257  26.025  22.979   6.150
 8431POPC   GL265258  26.027  23.063   6.150
 8431POPC   C1A65259  25.993  22.963   6.450
 8431POPC   D2A65260  26.072  22.967   6.750
 8431POPC   C3A65261  26.045  22.958   7.050
 8431POPC   C4A65262  26.047  22.933   7.350
 8431POPC   C1B65263  26.050  23.233   6.450
 8431POPC   C2B65264  26.084  23.153   6.750
 8431POPC   C3B65265  26.067  23.208   7.050
 8431POPC   C4B65266  26.026  23.151   7.350
 8432POPC   NC365267  41.522  25.236   5.550
 8432POPC   PO465268  41.590  25.237   5.850
 8432POPC   GL165269  41.601  25.301   6.150
 8432POPC   GL265270  41.697  25.253   6.150
 8432POPC   C1A65271  41.585  25.307   6.450
 8432POPC   D2A65272  41.567  25.264   6.750
 8432POPC   C3A65273  41.510  25.226   7.050
 8432POPC   C4A65274  41.538  25.268   7.350
 8432POPC   C1B65275  41.830  25.204   6.450
 8432POPC   C2B65276  41.773  25.147   6.750
 8432POPC   C3B65277  41.825  25.160   7.050
 8432POPC   C4B65278  41.836  25.223   7.350
 8433POPC   NC365279  10.539  11.260   5.550
 8433POPC   PO465280  10.513  11.338   5.850
 8433POPC   GL165281  10.487  11.319   6.150
 8433POPC   GL265282  10.579  11.377   6.150
 8433POPC   C1A65283  10.567  11.281   6.450
 8433POPC   D2A65284  10.523  11.266   6.750
 8433POPC   C3A65285  10.560  11.345   7.050
 8433POPC   C4A65286  10.574  11.281   7.350
 8433POPC   C1B65287  10.544  11.558   6.450
 8433POPC   C2B65288  10.558  11.531   6.750
 8433POPC   C3B65289  10.598  11.543   7.050
 8433POPC   C4B65290  10.580  11.534   7.350
 8434POPC   NC365291  35.323   1.962   5.550
 8434POPC   PO465292  35.318   1.977   5.850
 8434POPC   GL165293  35.311   1.961   6.150
 8434POPC   GL265294  35.313   2.137   6.150
 8434POPC   C1A65295  35.358   1.982   6.450
 8434POPC   D2A65296  35.309   2.016   6.750
 8434POPC   C3A65297  35.394   1.960   7.050
 8434POPC   C4A65298  35.306   1.940   7.350
 8434POPC   C1B65299  35.235   2.208   6.450
 8434POPC   C2B65300  35.196   2.200   6.750
 8434POPC   C3B65301  35.168   2.182   7.050
 8434POPC   C4B65302  35.157   2.218   7.350
 8435POPC   NC365303  37.653  29.919   5.550
 8435POPC   PO465304  37.682  29.962   5.850
 8435POPC   GL165305  37.719  29.954   6.150
 8435POPC   GL265306  37.771  29.951   6.150
 8435POPC   C1A65307  37.722  29.880   6.450
 8435POPC   D2A65308  37.638  29.913   6.750
 8435POPC   C3A65309  37.655  29.909   7.050
 8435POPC   C4A65310  37.638  29.897   7.350
 8435POPC   C1B65311  37.864  30.063   6.450
 8435POPC   C2B65312  37.830  30.053   6.750
 8435POPC   C3B65313  37.872  30.029   7.050
 8435POPC   C4B65314  37.849  30.064   7.350
 8436POPC   NC365315   7.430  38.483   5.550
 8436POPC   PO465316   7.433  38.428   5.850
 8436POPC   GL165317   7.383  38.426   6.150
 8436POPC   GL265318   7.351  38.608   6.150
 8436POPC   C1A65319   7.436  38.493   6.450
 8436POPC   D2A65320   7.375  38.479   6.750
 8436POPC   C3A65321   7.439  38.459   7.050
 8436POPC   C4A65322   7.393  38.457   7.350
 8436POPC   C1B65323   7.392  38.651   6.450
 8436POPC   C2B65324   7.320  38.677   6.750
 8436POPC   C3B65325   7.398  38.707   7.050
 8436POPC   C4B65326   7.366  38.681   7.350
 8437POPC   NC365327   8.982  33.762   5.550
 8437POPC   PO465328   8.977  33.819   5.850
 8437POPC   GL165329   8.981  33.784   6.150
 8437POPC   GL265330   8.899  33.670   6.150
 8437POPC   C1A65331   8.932  33.808   6.450
 8437POPC   D2A65332   8.949  33.753   6.750
 8437POPC   C3A65333   8.991  33.819   7.050
 8437POPC   C4A65334   9.021  33.832   7.350
 8437POPC   C1B65335   8.931  33.564   6.450
 8437POPC   C2B65336   8.879  33.515   6.750
 8437POPC   C3B65337   8.884  33.595   7.050
 8437POPC   C4B65338   8.884  33.555   7.350
 8438POPC   NC365339  24.513  16.716   5.550
 8438POPC   PO465340  24.520  16.710   5.850
 8438POPC   GL165341  24.516  16.769   6.150
 8438POPC   GL265342  24.542  16.623   6.150
 8438POPC   C1A65343  24.491  16.723   6.450
 8438POPC   D2A65344  24.457  16.692   6.750
 8438POPC   C3A65345  24.501  16.690   7.050
 8438POPC   C4A65346  24.520  16.709   7.350
 8438POPC   C1B65347  24.479  16.523   6.450
 8438POPC   C2B65348  24.518  16.473   6.750
 8438POPC   C3B65349  24.513  16.488   7.050
 8438POPC   C4B65350  24.505  16.447   7.350
 8439POPC   NC365351  29.117   8.203   5.550
 8439POPC   PO465352  29.157   8.183   5.850
 8439POPC   GL165353  29.193   8.197   6.150
 8439POPC   GL265354  29.015   8.257   6.150
 8439POPC   C1A65355  29.163   8.161   6.450
 8439POPC   D2A65356  29.176   8.222   6.750
 8439POPC   C3A65357  29.189   8.169   7.050
 8439POPC   C4A65358  29.099   8.157   7.350
 8439POPC   C1B65359  28.928   8.286   6.450
 8439POPC   C2B65360  28.925   8.268   6.750
 8439POPC   C3B65361  28.949   8.298   7.050
 8439POPC   C4B65362  28.962   8.354   7.350
 8440POPC   NC365363   4.296   5.131   5.550
 8440POPC   PO465364   4.311   5.135   5.850
 8440POPC   GL165365   4.303   5.055   6.150
 8440POPC   GL265366   4.228   5.139   6.150
 8440POPC   C1A65367   4.301   5.050   6.450
 8440POPC   D2A65368   4.357   5.055   6.750
 8440POPC   C3A65369   4.357   5.124   7.050
 8440POPC   C4A65370   4.366   5.083   7.350
 8440POPC   C1B65371   4.074   5.187   6.450
 8440POPC   C2B65372   4.098   5.196   6.750
 8440POPC   C3B65373   4.129   5.212   7.050
 8440POPC   C4B65374   4.084   5.208   7.350
 8441POPC   NC365375  12.110  37.638   5.550
 8441POPC   PO465376  12.081  37.669   5.850
 8441POPC   GL165377  12.045  37.725   6.150
 8441POPC   GL265378  12.214  37.587   6.150
 8441POPC   C1A65379  12.085  37.723   6.450
 8441POPC   D2A65380  12.068  37.703   6.750
 8441POPC   C3A65381  12.076  37.670   7.050
 8441POPC   C4A65382  12.038  37.690   7.350
 8441POPC   C1B65383  12.258  37.548   6.450
 8441POPC   C2B65384  12.315  37.555   6.750
 8441POPC   C3B65385  12.333  37.590   7.050
 8441POPC   C4B65386  12.260  37.601   7.350
 8442POPC   NC365387  34.604  26.862   5.550
 8442POPC   PO465388  34.595  26.858   5.850
 8442POPC   GL165389  34.551  26.786   6.150
 8442POPC   GL265390  34.412  26.820   6.150
 8442POPC   C1A65391  34.623  26.781   6.450
 8442POPC   D2A65392  34.546  26.834   6.750
 8442POPC   C3A65393  34.542  26.861   7.050
 8442POPC   C4A65394  34.549  26.839   7.350
 8442POPC   C1B65395  34.320  26.762   6.450
 8442POPC   C2B65396  34.345  26.731   6.750
 8442POPC   C3B65397  34.285  26.776   7.050
 8442POPC   C4B65398  34.337  26.791   7.350
 8443POPC   NC365399  36.933  19.861   5.550
 8443POPC   PO465400  36.905  19.872   5.850
 8443POPC   GL165401  36.864  19.819   6.150
 8443POPC   GL265402  36.897  19.931   6.150
 8443POPC   C1A65403  36.854  19.821   6.450
 8443POPC   D2A65404  36.896  19.822   6.750
 8443POPC   C3A65405  36.914  19.828   7.050
 8443POPC   C4A65406  36.917  19.787   7.350
 8443POPC   C1B65407  36.917  20.118   6.450
 8443POPC   C2B65408  36.975  20.068   6.750
 8443POPC   C3B65409  36.981  20.100   7.050
 8443POPC   C4B65410  36.935  20.080   7.350
 8444POPC   NC365411  36.153   3.501   5.550
 8444POPC   PO465412  36.119   3.516   5.850
 8444POPC   GL165413  36.144   3.560   6.150
 8444POPC   GL265414  36.155   3.682   6.150
 8444POPC   C1A65415  36.134   3.515   6.450
 8444POPC   D2A65416  36.162   3.520   6.750
 8444POPC   C3A65417  36.172   3.547   7.050
 8444POPC   C4A65418  36.118   3.526   7.350
 8444POPC   C1B65419  36.253   3.757   6.450
 8444POPC   C2B65420  36.188   3.764   6.750
 8444POPC   C3B65421  36.233   3.754   7.050
 8444POPC   C4B65422  36.264   3.804   7.350
 8445POPC   NC365423  33.798  14.375   5.550
 8445POPC   PO465424  33.786  14.426   5.850
 8445POPC   GL165425  33.786  14.377   6.150
 8445POPC   GL265426  33.773  14.562   6.150
 8445POPC   C1A65427  33.750  14.444   6.450
 8445POPC   D2A65428  33.787  14.450   6.750
 8445POPC   C3A65429  33.815  14.435   7.050
 8445POPC   C4A65430  33.761  14.438   7.350
 8445POPC   C1B65431  33.648  14.646   6.450
 8445POPC   C2B65432  33.709  14.585   6.750
 8445POPC   C3B65433  33.716  14.671   7.050
 8445POPC   C4B65434  33.690  14.622   7.350
 8446POPC   NC365435  25.998   2.776   5.550
 8446POPC   PO465436  25.993   2.761   5.850
 8446POPC   GL165437  26.044   2.809   6.150
 8446POPC   GL265438  26.048   2.621   6.150
 8446POPC   C1A65439  26.006   2.805   6.450
 8446POPC   D2A65440  26.010   2.764   6.750
 8446POPC   C3A65441  26.024   2.726   7.050
 8446POPC   C4A65442  26.027   2.760   7.350
 8446POPC   C1B65443  26.116   2.584   6.450
 8446POPC   C2B65444  26.171   2.544   6.750
 8446POPC   C3B65445  26.107   2.514   7.050
 8446POPC   C4B65446  26.160   2.571   7.350
 8447POPC   NC365447  34.614   0.452   5.550
 8447POPC   PO465448  34.597   0.463   5.850
 8447POPC   GL165449  34.626   0.424   6.150
 8447POPC   GL265450  34.584   0.606   6.150
 8447POPC   C1A65451  34.552   0.408   6.450
 8447POPC   D2A65452  34.613   0.419   6.750
 8447POPC   C3A65453  34.580   0.467   7.050
 8447POPC   C4A65454  34.552   0.410   7.350
 8447POPC   C1B65455  34.624   0.702   6.450
 8447POPC   C2B65456  34.641   0.725   6.750
 8447POPC   C3B65457  34.598   0.655   7.050
 8447POPC   C4B65458  34.683   0.707   7.350
 8448POPC   NC365459   2.793  13.655   5.550
 8448POPC   PO465460   2.733  13.644   5.850
 8448POPC   GL165461   2.726  13.614   6.150
 8448POPC   GL265462   2.720  13.535   6.150
 8448POPC   C1A65463   2.751  13.665   6.450
 8448POPC   D2A65464   2.785  13.604   6.750
 8448POPC   C3A65465   2.739  13.637   7.050
 8448POPC   C4A65466   2.777  13.671   7.350
 8448POPC   C1B65467   2.710  13.413   6.450
 8448POPC   C2B65468   2.698  13.380   6.750
 8448POPC   C3B65469   2.693  13.343   7.050
 8448POPC   C4B65470   2.721  13.397   7.350
 8449POPC   NC365471   6.603  22.977   5.550
 8449POPC   PO465472   6.663  22.976   5.850
 8449POPC   GL165473   6.654  22.906   6.150
 8449POPC   GL265474   6.513  22.927   6.150
 8449POPC   C1A65475   6.631  22.927   6.450
 8449POPC   D2A65476   6.694  22.907   6.750
 8449POPC   C3A65477   6.640  22.909   7.050
 8449POPC   C4A65478   6.654  22.950   7.350
 8449POPC   C1B65479   6.386  22.824   6.450
 8449POPC   C2B65480   6.378  22.841   6.750
 8449POPC   C3B65481   6.462  22.833   7.050
 8449POPC   C4B65482   6.470  22.800   7.350
 8450POPC   NC365483  43.898  16.720   5.550
 8450POPC   PO465484  43.853  16.723   5.850
 8450POPC   GL165485  43.926  16.776   6.150
 8450POPC   GL265486  43.994  16.804   6.150
 8450POPC   C1A65487  43.909  16.701   6.450
 8450POPC   D2A65488  43.852  16.697   6.750
 8450POPC   C3A65489  43.929  16.709   7.050
 8450POPC   C4A65490  43.923  16.731   7.350
 8450POPC   C1B65491  44.002  16.887   6.450
 8450POPC   C2B65492  44.038  16.915   6.750
 8450POPC   C3B65493  44.049  16.887   7.050
 8450POPC   C4B65494  44.020  16.952   7.350
 8451POPC   NC365495  43.099  21.400   5.550
 8451POPC   PO465496  43.073  21.381   5.850
 8451POPC   GL165497  43.062  21.372   6.150
 8451POPC   GL265498  43.193  21.453   6.150
 8451POPC   C1A65499  43.124  21.380   6.450
 8451POPC   D2A65500  43.094  21.371   6.750
 8451POPC   C3A65501  43.158  21.359   7.050
 8451POPC   C4A65502  43.116  21.368   7.350
 8451POPC   C1B65503  43.268  21.578   6.450
 8451POPC   C2B65504  43.271  21.543   6.750
 8451POPC   C3B65505  43.285  21.537   7.050
 8451POPC   C4B65506  43.221  21.571   7.350
 8452POPC   NC365507  30.672  24.492   5.550
 8452POPC   PO465508  30.662  24.532   5.850
 8452POPC   GL165509  30.745  24.533   6.150
 8452POPC   GL265510  30.652  24.614   6.150
 8452POPC   C1A65511  30.729  24.495   6.450
 8452POPC   D2A65512  30.722  24.510   6.750
 8452POPC   C3A65513  30.654  24.461   7.050
 8452POPC   C4A65514  30.745  24.467   7.350
 8452POPC   C1B65515  30.562  24.750   6.450
 8452POPC   C2B65516  30.579  24.754   6.750
 8452POPC   C3B65517  30.632  24.692   7.050
 8452POPC   C4B65518  30.646  24.695   7.350
 8453POPC   NC365519   5.849  21.408   5.550
 8453POPC   PO465520   5.911  21.360   5.850
 8453POPC   GL165521   5.820  21.373   6.150
 8453POPC   GL265522   5.948  21.264   6.150
 8453POPC   C1A65523   5.856  21.339   6.450
 8453POPC   D2A65524   5.828  21.413   6.750
 8453POPC   C3A65525   5.894  21.372   7.050
 8453POPC   C4A65526   5.881  21.396   7.350
 8453POPC   C1B65527   6.052  21.232   6.450
 8453POPC   C2B65528   5.993  21.196   6.750
 8453POPC   C3B65529   5.997  21.165   7.050
 8453POPC   C4B65530   6.030  21.190   7.350
 8454POPC   NC365531   9.702  40.821   5.550
 8454POPC   PO465532   9.750  40.791   5.850
 8454POPC   GL165533   9.787  40.781   6.150
 8454POPC   GL265534   9.635  40.858   6.150
 8454POPC   C1A65535   9.787  40.795   6.450
 8454POPC   D2A65536   9.731  40.785   6.750
 8454POPC   C3A65537   9.726  40.818   7.050
 8454POPC   C4A65538   9.737  40.804   7.350
 8454POPC   C1B65539   9.491  40.873   6.450
 8454POPC   C2B65540   9.539  40.808   6.750
 8454POPC   C3B65541   9.529  40.878   7.050
 8454POPC   C4B65542   9.473  40.823   7.350
 8455POPC   NC365543  16.770  15.156   5.550
 8455POPC   PO465544  16.772  15.222   5.850
 8455POPC   GL165545  16.703  15.223   6.150
 8455POPC   GL265546  16.608  15.223   6.150
 8455POPC   C1A65547  16.706  15.172   6.450
 8455POPC   D2A65548  16.722  15.203   6.750
 8455POPC   C3A65549  16.698  15.171   7.050
 8455POPC   C4A65550  16.723  15.170   7.350
 8455POPC   C1B65551  16.552  15.330   6.450
 8455POPC   C2B65552  16.551  15.355   6.750
 8455POPC   C3B65553  16.554  15.334   7.050
 8455POPC   C4B65554  16.499  15.332   7.350
 8456POPC   NC365555   8.179  19.803   5.550
 8456POPC   PO465556   8.216  19.829   5.850
 8456POPC   GL165557   8.178  19.878   6.150
 8456POPC   GL265558   8.223  19.913   6.150
 8456POPC   C1A65559   8.176  19.818   6.450
 8456POPC   D2A65560   8.195  19.841   6.750
 8456POPC   C3A65561   8.235  19.840   7.050
 8456POPC   C4A65562   8.226  19.884   7.350
 8456POPC   C1B65563   8.171  20.112   6.450
 8456POPC   C2B65564   8.178  20.081   6.750
 8456POPC   C3B65565   8.180  20.075   7.050
 8456POPC   C4B65566   8.188  20.119   7.350
 8457POPC   NC365567  15.139  43.150   5.550
 8457POPC   PO465568  15.135  43.085   5.850
 8457POPC   GL165569  15.204  43.071   6.150
 8457POPC   GL265570  15.271  43.012   6.150
 8457POPC   C1A65571  15.142  43.098   6.450
 8457POPC   D2A65572  15.147  43.097   6.750
 8457POPC   C3A65573  15.195  43.144   7.050
 8457POPC   C4A65574  15.208  43.150   7.350
 8457POPC   C1B65575  15.338  42.876   6.450
 8457POPC   C2B65576  15.253  42.873   6.750
 8457POPC   C3B65577  15.249  42.938   7.050
 8457POPC   C4B65578  15.260  42.894   7.350
 8458POPC   NC365579  34.595  27.636   5.550
 8458POPC   PO465580  34.580  27.635   5.850
 8458POPC   GL165581  34.584  27.620   6.150
 8458POPC   GL265582  34.479  27.537   6.150
 8458POPC   C1A65583  34.582  27.637   6.450
 8458POPC   D2A65584  34.540  27.544   6.750
 8458POPC   C3A65585  34.614  27.606   7.050
 8458POPC   C4A65586  34.568  27.597   7.350
 8458POPC   C1B65587  34.480  27.397   6.450
 8458POPC   C2B65588  34.446  27.366   6.750
 8458POPC   C3B65589  34.460  27.354   7.050
 8458POPC   C4B65590  34.389  27.361   7.350
 8459POPC   NC365591   8.931   2.746   5.550
 8459POPC   PO465592   8.942   2.813   5.850
 8459POPC   GL165593   8.936   2.775   6.150
 8459POPC   GL265594   9.077   2.802   6.150
 8459POPC   C1A65595   8.935   2.765   6.450
 8459POPC   D2A65596   8.928   2.750   6.750
 8459POPC   C3A65597   9.013   2.757   7.050
 8459POPC   C4A65598   9.020   2.800   7.350
 8459POPC   C1B65599   9.230   2.788   6.450
 8459POPC   C2B65600   9.253   2.771   6.750
 8459POPC   C3B65601   9.226   2.836   7.050
 8459POPC   C4B65602   9.254   2.844   7.350
 8460POPC   NC365603   9.746  36.907   5.550
 8460POPC   PO465604   9.724  36.879   5.850
 8460POPC   GL165605   9.794  36.854   6.150
 8460POPC   GL265606   9.828  36.833   6.150
 8460POPC   C1A65607   9.709  36.898   6.450
 8460POPC   D2A65608   9.743  36.856   6.750
 8460POPC   C3A65609   9.732  36.857   7.050
 8460POPC   C4A65610   9.701  36.929   7.350
 8460POPC   C1B65611   9.947  36.867   6.450
 8460POPC   C2B65612  10.010  36.845   6.750
 8460POPC   C3B65613   9.970  36.811   7.050
 8460POPC   C4B65614  10.032  36.894   7.350
 8461POPC   NC365615  29.956   9.743   5.550
 8461POPC   PO465616  29.871   9.700   5.850
 8461POPC   GL165617  29.912   9.775   6.150
 8461POPC   GL265618  29.832   9.638   6.150
 8461POPC   C1A65619  29.879   9.740   6.450
 8461POPC   D2A65620  29.896   9.775   6.750
 8461POPC   C3A65621  29.949   9.788   7.050
 8461POPC   C4A65622  29.969   9.768   7.350
 8461POPC   C1B65623  29.829   9.481   6.450
 8461POPC   C2B65624  29.866   9.498   6.750
 8461POPC   C3B65625  29.829   9.549   7.050
 8461POPC   C4B65626  29.789   9.517   7.350
 8462POPC   NC365627   6.646  12.085   5.550
 8462POPC   PO465628   6.614  12.092   5.850
 8462POPC   GL165629   6.687  12.065   6.150
 8462POPC   GL265630   6.766  12.173   6.150
 8462POPC   C1A65631   6.614  12.046   6.450
 8462POPC   D2A65632   6.637  12.027   6.750
 8462POPC   C3A65633   6.648  12.076   7.050
 8462POPC   C4A65634   6.606  12.101   7.350
 8462POPC   C1B65635   6.869  12.133   6.450
 8462POPC   C2B65636   6.891  12.218   6.750
 8462POPC   C3B65637   6.883  12.178   7.050
 8462POPC   C4B65638   6.833  12.191   7.350
 8463POPC   NC365639   0.480  43.107   5.550
 8463POPC   PO465640   0.485  43.073   5.850
 8463POPC   GL165641   0.478  43.084   6.150
 8463POPC   GL265642   0.604  43.143   6.150
 8463POPC   C1A65643   0.399  43.114   6.450
 8463POPC   D2A65644   0.427  43.103   6.750
 8463POPC   C3A65645   0.487  43.113   7.050
 8463POPC   C4A65646   0.476  43.138   7.350
 8463POPC   C1B65647   0.728  43.071   6.450
 8463POPC   C2B65648   0.661  43.114   6.750
 8463POPC   C3B65649   0.692  43.056   7.050
 8463POPC   C4B65650   0.714  43.051   7.350
 8464POPC   NC365651  12.082  43.149   5.550
 8464POPC   PO465652  12.073  43.115   5.850
 8464POPC   GL165653  12.062  43.090   6.150
 8464POPC   GL265654  12.129  43.051   6.150
 8464POPC   C1A65655  12.033  43.068   6.450
 8464POPC   D2A65656  12.076  43.071   6.750
 8464POPC   C3A65657  12.034  43.073   7.050
 8464POPC   C4A65658  12.054  43.100   7.350
 8464POPC   C1B65659  12.248  42.937   6.450
 8464POPC   C2B65660  12.293  42.982   6.750
 8464POPC   C3B65661  12.305  42.920   7.050
 8464POPC   C4B65662  12.257  42.988   7.350
 8465POPC   NC365663   6.635  18.254   5.550
 8465POPC   PO465664   6.627  18.280   5.850
 8465POPC   GL165665   6.665  18.304   6.150
 8465POPC   GL265666   6.753  18.124   6.150
 8465POPC   C1A65667   6.651  18.245   6.450
 8465POPC   D2A65668   6.662  18.263   6.750
 8465POPC   C3A65669   6.658  18.277   7.050
 8465POPC   C4A65670   6.655  18.289   7.350
 8465POPC   C1B65671   6.750  18.030   6.450
 8465POPC   C2B65672   6.758  18.043   6.750
 8465POPC   C3B65673   6.726  18.109   7.050
 8465POPC   C4B65674   6.812  18.026   7.350
 8466POPC   NC365675  44.674  41.604   5.550
 8466POPC   PO465676  44.666  41.569   5.850
 8466POPC   GL165677  44.615  41.588   6.150
 8466POPC   GL265678  44.626  41.646   6.150
 8466POPC   C1A65679  44.693  41.603   6.450
 8466POPC   D2A65680  44.669  41.584   6.750
 8466POPC   C3A65681  44.703  41.512   7.050
 8466POPC   C4A65682  44.649  41.564   7.350
 8466POPC   C1B65683  44.668  41.774   6.450
 8466POPC   C2B65684  44.694  41.804   6.750
 8466POPC   C3B65685  44.613  41.788   7.050
 8466POPC   C4B65686  44.628  41.857   7.350
 8467POPC   NC365687   6.614  16.763   5.550
 8467POPC   PO465688   6.681  16.684   5.850
 8467POPC   GL165689   6.691  16.741   6.150
 8467POPC   GL265690   6.523  16.676   6.150
 8467POPC   C1A65691   6.664  16.740   6.450
 8467POPC   D2A65692   6.612  16.721   6.750
 8467POPC   C3A65693   6.620  16.763   7.050
 8467POPC   C4A65694   6.596  16.723   7.350
 8467POPC   C1B65695   6.426  16.549   6.450
 8467POPC   C2B65696   6.455  16.553   6.750
 8467POPC   C3B65697   6.452  16.590   7.050
 8467POPC   C4B65698   6.462  16.583   7.350
 8468POPC   NC365699  38.503   1.239   5.550
 8468POPC   PO465700  38.494   1.228   5.850
 8468POPC   GL165701  38.455   1.190   6.150
 8468POPC   GL265702  38.576   1.236   6.150
 8468POPC   C1A65703  38.475   1.202   6.450
 8468POPC   D2A65704  38.499   1.230   6.750
 8468POPC   C3A65705  38.418   1.213   7.050
 8468POPC   C4A65706  38.465   1.170   7.350
 8468POPC   C1B65707  38.701   1.294   6.450
 8468POPC   C2B65708  38.683   1.317   6.750
 8468POPC   C3B65709  38.661   1.348   7.050
 8468POPC   C4B65710  38.652   1.315   7.350
 8469POPC   NC365711  37.643  18.310   5.550
 8469POPC   PO465712  37.671  18.248   5.850
 8469POPC   GL165713  37.675  18.275   6.150
 8469POPC   GL265714  37.795  18.295   6.150
 8469POPC   C1A65715  37.686  18.275   6.450
 8469POPC   D2A65716  37.691  18.313   6.750
 8469POPC   C3A65717  37.728  18.287   7.050
 8469POPC   C4A65718  37.721  18.332   7.350
 8469POPC   C1B65719  37.954  18.218   6.450
 8469POPC   C2B65720  37.965  18.298   6.750
 8469POPC   C3B65721  37.906  18.219   7.050
 8469POPC   C4B65722  37.899  18.264   7.350
 8470POPC   NC365723   8.964  40.819   5.550
 8470POPC   PO465724   8.953  40.739   5.850
 8470POPC   GL165725   8.979  40.820   6.150
 8470POPC   GL265726   8.896  40.897   6.150
 8470POPC   C1A65727   8.941  40.747   6.450
 8470POPC   D2A65728   8.928  40.827   6.750
 8470POPC   C3A65729   8.980  40.824   7.050
 8470POPC   C4A65730   9.006  40.814   7.350
 8470POPC   C1B65731   8.832  41.060   6.450
 8470POPC   C2B65732   8.858  41.024   6.750
 8470POPC   C3B65733   8.844  41.032   7.050
 8470POPC   C4B65734   8.909  41.059   7.350
 8471POPC   NC365735   4.285   6.629   5.550
 8471POPC   PO465736   4.301   6.653   5.850
 8471POPC   GL165737   4.316   6.608   6.150
 8471POPC   GL265738   4.471   6.693   6.150
 8471POPC   C1A65739   4.323   6.632   6.450
 8471POPC   D2A65740   4.308   6.595   6.750
 8471POPC   C3A65741   4.277   6.604   7.050
 8471POPC   C4A65742   4.273   6.680   7.350
 8471POPC   C1B65743   4.522   6.703   6.450
 8471POPC   C2B65744   4.553   6.725   6.750
 8471POPC   C3B65745   4.510   6.738   7.050
 8471POPC   C4B65746   4.581   6.760   7.350
 8472POPC   NC365747  25.270  37.679   5.550
 8472POPC   PO465748  25.270  37.687   5.850
 8472POPC   GL165749  25.258  37.697   6.150
 8472POPC   GL265750  25.253  37.759   6.150
 8472POPC   C1A65751  25.278  37.667   6.450
 8472POPC   D2A65752  25.220  37.671   6.750
 8472POPC   C3A65753  25.299  37.718   7.050
 8472POPC   C4A65754  25.252  37.694   7.350
 8472POPC   C1B65755  25.258  37.979   6.450
 8472POPC   C2B65756  25.306  37.898   6.750
 8472POPC   C3B65757  25.279  37.885   7.050
 8472POPC   C4B65758  25.250  37.928   7.350
 8473POPC   NC365759  26.777  19.051   5.550
 8473POPC   PO465760  26.848  19.032   5.850
 8473POPC   GL165761  26.769  19.083   6.150
 8473POPC   GL265762  26.951  18.988   6.150
 8473POPC   C1A65763  26.831  19.033   6.450
 8473POPC   D2A65764  26.845  19.082   6.750
 8473POPC   C3A65765  26.770  19.104   7.050
 8473POPC   C4A65766  26.768  19.023   7.350
 8473POPC   C1B65767  27.063  18.903   6.450
 8473POPC   C2B65768  27.021  18.894   6.750
 8473POPC   C3B65769  26.998  18.914   7.050
 8473POPC   C4B65770  26.992  18.881   7.350
 8474POPC   NC365771  40.738  19.808   5.550
 8474POPC   PO465772  40.826  19.829   5.850
 8474POPC   GL165773  40.784  19.796   6.150
 8474POPC   GL265774  40.825  19.938   6.150
 8474POPC   C1A65775  40.824  19.867   6.450
 8474POPC   D2A65776  40.758  19.809   6.750
 8474POPC   C3A65777  40.830  19.872   7.050
 8474POPC   C4A65778  40.753  19.790   7.350
 8474POPC   C1B65779  40.854  20.129   6.450
 8474POPC   C2B65780  40.872  20.102   6.750
 8474POPC   C3B65781  40.871  20.049   7.050
 8474POPC   C4B65782  40.809  20.042   7.350
 8475POPC   NC365783  20.575   4.268   5.550
 8475POPC   PO465784  20.580   4.309   5.850
 8475POPC   GL165785  20.624   4.293   6.150
 8475POPC   GL265786  20.562   4.444   6.150
 8475POPC   C1A65787  20.656   4.332   6.450
 8475POPC   D2A65788  20.657   4.330   6.750
 8475POPC   C3A65789  20.568   4.321   7.050
 8475POPC   C4A65790  20.631   4.327   7.350
 8475POPC   C1B65791  20.479   4.498   6.450
 8475POPC   C2B65792  20.421   4.454   6.750
 8475POPC   C3B65793  20.414   4.445   7.050
 8475POPC   C4B65794  20.461   4.528   7.350
 8476POPC   NC365795  32.225   5.872   5.550
 8476POPC   PO465796  32.244   5.838   5.850
 8476POPC   GL165797  32.202   5.835   6.150
 8476POPC   GL265798  32.328   5.953   6.150
 8476POPC   C1A65799  32.232   5.906   6.450
 8476POPC   D2A65800  32.279   5.844   6.750
 8476POPC   C3A65801  32.243   5.891   7.050
 8476POPC   C4A65802  32.224   5.864   7.350
 8476POPC   C1B65803  32.336   6.095   6.450
 8476POPC   C2B65804  32.342   6.076   6.750
 8476POPC   C3B65805  32.336   6.038   7.050
 8476POPC   C4B65806  32.326   6.035   7.350
 8477POPC   NC365807  17.462   1.176   5.550
 8477POPC   PO465808  17.469   1.174   5.850
 8477POPC   GL165809  17.480   1.254   6.150
 8477POPC   GL265810  17.635   1.250   6.150
 8477POPC   C1A65811  17.459   1.187   6.450
 8477POPC   D2A65812  17.526   1.241   6.750
 8477POPC   C3A65813  17.465   1.167   7.050
 8477POPC   C4A65814  17.535   1.167   7.350
 8477POPC   C1B65815  17.756   1.281   6.450
 8477POPC   C2B65816  17.714   1.308   6.750
 8477POPC   C3B65817  17.783   1.306   7.050
 8477POPC   C4B65818  17.758   1.268   7.350
 8478POPC   NC365819  13.625   8.212   5.550
 8478POPC   PO465820  13.590   8.233   5.850
 8478POPC   GL165821  13.637   8.203   6.150
 8478POPC   GL265822  13.514   8.277   6.150
 8478POPC   C1A65823  13.670   8.176   6.450
 8478POPC   D2A65824  13.666   8.227   6.750
 8478POPC   C3A65825  13.673   8.226   7.050
 8478POPC   C4A65826  13.599   8.194   7.350
 8478POPC   C1B65827  13.433   8.309   6.450
 8478POPC   C2B65828  13.421   8.287   6.750
 8478POPC   C3B65829  13.414   8.294   7.050
 8478POPC   C4B65830  13.438   8.330   7.350
 8479POPC   NC365831  12.111   0.409   5.550
 8479POPC   PO465832  12.081   0.395   5.850
 8479POPC   GL165833  12.075   0.454   6.150
 8479POPC   GL265834  12.237   0.424   6.150
 8479POPC   C1A65835  12.109   0.407   6.450
 8479POPC   D2A65836  12.054   0.475   6.750
 8479POPC   C3A65837  12.119   0.446   7.050
 8479POPC   C4A65838  12.039   0.392   7.350
 8479POPC   C1B65839  12.316   0.317   6.450
 8479POPC   C2B65840  12.284   0.332   6.750
 8479POPC   C3B65841  12.287   0.378   7.050
 8479POPC   C4B65842  12.280   0.368   7.350
 8480POPC   NC365843  28.321  24.521   5.550
 8480POPC   PO465844  28.367  24.528   5.850
 8480POPC   GL165845  28.357  24.470   6.150
 8480POPC   GL265846  28.422  24.609   6.150
 8480POPC   C1A65847  28.416  24.518   6.450
 8480POPC   D2A65848  28.343  24.446   6.750
 8480POPC   C3A65849  28.337  24.528   7.050
 8480POPC   C4A65850  28.324  24.522   7.350
 8480POPC   C1B65851  28.435  24.730   6.450
 8480POPC   C2B65852  28.389  24.725   6.750
 8480POPC   C3B65853  28.445  24.732   7.050
 8480POPC   C4B65854  28.414  24.701   7.350
 8481POPC   NC365855  33.068  39.205   5.550
 8481POPC   PO465856  32.980  39.225   5.850
 8481POPC   GL165857  32.991  39.256   6.150
 8481POPC   GL265858  33.141  39.232   6.150
 8481POPC   C1A65859  33.003  39.196   6.450
 8481POPC   D2A65860  33.042  39.262   6.750
 8481POPC   C3A65861  32.983  39.220   7.050
 8481POPC   C4A65862  33.017  39.276   7.350
 8481POPC   C1B65863  33.267  39.273   6.450
 8481POPC   C2B65864  33.283  39.359   6.750
 8481POPC   C3B65865  33.239  39.338   7.050
 8481POPC   C4B65866  33.292  39.340   7.350
 8482POPC   NC365867   2.005   1.975   5.550
 8482POPC   PO465868   1.953   1.998   5.850
 8482POPC   GL165869   2.031   2.019   6.150
 8482POPC   GL265870   2.016   2.057   6.150
 8482POPC   C1A65871   2.035   2.034   6.450
 8482POPC   D2A65872   2.001   1.971   6.750
 8482POPC   C3A65873   2.017   1.976   7.050
 8482POPC   C4A65874   1.943   1.948   7.350
 8482POPC   C1B65875   2.080   2.218   6.450
 8482POPC   C2B65876   2.080   2.240   6.750
 8482POPC   C3B65877   2.077   2.218   7.050
 8482POPC   C4B65878   2.117   2.226   7.350
 8483POPC   NC365879  36.923   2.732   5.550
 8483POPC   PO465880  36.873   2.774   5.850
 8483POPC   GL165881  36.921   2.776   6.150
 8483POPC   GL265882  36.988   2.885   6.150
 8483POPC   C1A65883  36.926   2.737   6.450
 8483POPC   D2A65884  36.941   2.791   6.750
 8483POPC   C3A65885  36.938   2.720   7.050
 8483POPC   C4A65886  36.858   2.806   7.350
 8483POPC   C1B65887  36.954   3.035   6.450
 8483POPC   C2B65888  36.949   2.987   6.750
 8483POPC   C3B65889  36.939   2.978   7.050
 8483POPC   C4B65890  37.013   3.021   7.350
 8484POPC   NC365891  26.071  28.377   5.550
 8484POPC   PO465892  26.013  28.341   5.850
 8484POPC   GL165893  26.052  28.403   6.150
 8484POPC   GL265894  25.949  28.355   6.150
 8484POPC   C1A65895  25.999  28.395   6.450
 8484POPC   D2A65896  26.035  28.339   6.750
 8484POPC   C3A65897  26.071  28.401   7.050
 8484POPC   C4A65898  25.992  28.347   7.350
 8484POPC   C1B65899  25.807  28.345   6.450
 8484POPC   C2B65900  25.769  28.377   6.750
 8484POPC   C3B65901  25.748  28.282   7.050
 8484POPC   C4B65902  25.748  28.366   7.350
 8485POPC   NC365903   9.741  12.885   5.550
 8485POPC   PO465904   9.708  12.861   5.850
 8485POPC   GL165905   9.750  12.852   6.150
 8485POPC   GL265906   9.865  12.764   6.150
 8485POPC   C1A65907   9.731  12.858   6.450
 8485POPC   D2A65908   9.706  12.844   6.750
 8485POPC   C3A65909   9.786  12.868   7.050
 8485POPC   C4A65910   9.783  12.862   7.350
 8485POPC   C1B65911   9.960  12.663   6.450
 8485POPC   C2B65912   9.913  12.687   6.750
 8485POPC   C3B65913   9.933  12.749   7.050
 8485POPC   C4B65914   9.909  12.685   7.350
 8486POPC   NC365915  33.054  37.652   5.550
 8486POPC   PO465916  33.015  37.700   5.850
 8486POPC   GL165917  33.054  37.712   6.150
 8486POPC   GL265918  32.882  37.656   6.150
 8486POPC   C1A65919  33.057  37.662   6.450
 8486POPC   D2A65920  33.066  37.699   6.750
 8486POPC   C3A65921  33.066  37.666   7.050
 8486POPC   C4A65922  32.977  37.649   7.350
 8486POPC   C1B65923  32.793  37.710   6.450
 8486POPC   C2B65924  32.781  37.715   6.750
 8486POPC   C3B65925  32.816  37.706   7.050
 8486POPC   C4B65926  32.812  37.726   7.350
 8487POPC   NC365927   4.326  33.031   5.550
 8487POPC   PO465928   4.289  33.056   5.850
 8487POPC   GL165929   4.310  33.034   6.150
 8487POPC   GL265930   4.214  33.159   6.150
 8487POPC   C1A65931   4.352  33.000   6.450
 8487POPC   D2A65932   4.283  33.046   6.750
 8487POPC   C3A65933   4.302  33.068   7.050
 8487POPC   C4A65934   4.355  33.030   7.350
 8487POPC   C1B65935   4.251  33.294   6.450
 8487POPC   C2B65936   4.240  33.255   6.750
 8487POPC   C3B65937   4.194  33.282   7.050
 8487POPC   C4B65938   4.236  33.236   7.350
 8488POPC   NC365939   1.183  12.043   5.550
 8488POPC   PO465940   1.173  12.097   5.850
 8488POPC   GL165941   1.240  12.092   6.150
 8488POPC   GL265942   1.285  12.157   6.150
 8488POPC   C1A65943   1.175  12.111   6.450
 8488POPC   D2A65944   1.249  12.055   6.750
 8488POPC   C3A65945   1.180  12.107   7.050
 8488POPC   C4A65946   1.185  12.055   7.350
 8488POPC   C1B65947   1.445  12.127   6.450
 8488POPC   C2B65948   1.457  12.128   6.750
 8488POPC   C3B65949   1.438  12.153   7.050
 8488POPC   C4B65950   1.421  12.195   7.350
 8489POPC   NC365951  21.345  34.618   5.550
 8489POPC   PO465952  21.436  34.543   5.850
 8489POPC   GL165953  21.357  34.569   6.150
 8489POPC   GL265954  21.490  34.507   6.150
 8489POPC   C1A65955  21.410  34.564   6.450
 8489POPC   D2A65956  21.388  34.603   6.750
 8489POPC   C3A65957  21.371  34.568   7.050
 8489POPC   C4A65958  21.377  34.612   7.350
 8489POPC   C1B65959  21.546  34.362   6.450
 8489POPC   C2B65960  21.487  34.414   6.750
 8489POPC   C3B65961  21.562  34.406   7.050
 8489POPC   C4B65962  21.573  34.346   7.350
 8490POPC   NC365963  13.664   7.394   5.550
 8490POPC   PO465964  13.670   7.392   5.850
 8490POPC   GL165965  13.659   7.378   6.150
 8490POPC   GL265966  13.469   7.406   6.150
 8490POPC   C1A65967  13.578   7.382   6.450
 8490POPC   D2A65968  13.589   7.454   6.750
 8490POPC   C3A65969  13.656   7.455   7.050
 8490POPC   C4A65970  13.584   7.386   7.350
 8490POPC   C1B65971  13.333   7.363   6.450
 8490POPC   C2B65972  13.429   7.420   6.750
 8490POPC   C3B65973  13.335   7.365   7.050
 8490POPC   C4B65974  13.370   7.340   7.350
 8491POPC   NC365975  12.863  15.193   5.550
 8491POPC   PO465976  12.867  15.218   5.850
 8491POPC   GL165977  12.828  15.153   6.150
 8491POPC   GL265978  12.935  15.224   6.150
 8491POPC   C1A65979  12.892  15.191   6.450
 8491POPC   D2A65980  12.824  15.140   6.750
 8491POPC   C3A65981  12.889  15.193   7.050
 8491POPC   C4A65982  12.885  15.206   7.350
 8491POPC   C1B65983  13.114  15.257   6.450
 8491POPC   C2B65984  13.095  15.229   6.750
 8491POPC   C3B65985  13.094  15.201   7.050
 8491POPC   C4B65986  13.066  15.214   7.350
 8492POPC   NC365987  34.603   5.059   5.550
 8492POPC   PO465988  34.546   5.045   5.850
 8492POPC   GL165989  34.573   5.050   6.150
 8492POPC   GL265990  34.685   5.154   6.150
 8492POPC   C1A65991  34.557   5.065   6.450
 8492POPC   D2A65992  34.574   5.064   6.750
 8492POPC   C3A65993  34.533   5.134   7.050
 8492POPC   C4A65994  34.592   5.057   7.350
 8492POPC   C1B65995  34.713   5.314   6.450
 8492POPC   C2B65996  34.680   5.331   6.750
 8492POPC   C3B65997  34.702   5.318   7.050
 8492POPC   C4B65998  34.701   5.344   7.350
 8493POPC   NC365999  26.827  40.019   5.550
 8493POPC   PO466000  26.790  40.018   5.850
 8493POPC   GL166001  26.861  39.991   6.150
 8493POPC   GL266002  26.913  39.891   6.150
 8493POPC   C1A66003  26.824  39.960   6.450
 8493POPC   D2A66004  26.768  39.970   6.750
 8493POPC   C3A66005  26.853  40.007   7.050
 8493POPC   C4A66006  26.776  39.991   7.350
 8493POPC   C1B66007  27.023  39.878   6.450
 8493POPC   C2B66008  26.990  39.835   6.750
 8493POPC   C3B66009  26.990  39.847   7.050
 8493POPC   C4B66010  27.050  39.878   7.350
 8494POPC   NC366011   8.925  12.043   5.550
 8494POPC   PO466012   8.982  12.096   5.850
 8494POPC   GL166013   8.964  12.082   6.150
 8494POPC   GL266014   9.080  12.146   6.150
 8494POPC   C1A66015   8.959  12.049   6.450
 8494POPC   D2A66016   9.017  12.058   6.750
 8494POPC   C3A66017   8.949  12.035   7.050
 8494POPC   C4A66018   8.937  12.118   7.350
 8494POPC   C1B66019   9.170  12.285   6.450
 8494POPC   C2B66020   9.153  12.227   6.750
 8494POPC   C3B66021   9.150  12.229   7.050
 8494POPC   C4B66022   9.114  12.286   7.350
 8495POPC   NC366023   1.186   5.068   5.550
 8495POPC   PO466024   1.256   5.121   5.850
 8495POPC   GL166025   1.239   5.075   6.150
 8495POPC   GL266026   1.114   5.025   6.150
 8495POPC   C1A66027   1.168   5.138   6.450
 8495POPC   D2A66028   1.257   5.051   6.750
 8495POPC   C3A66029   1.206   5.106   7.050
 8495POPC   C4A66030   1.220   5.061   7.350
 8495POPC   C1B66031   1.002   4.982   6.450
 8495POPC   C2B66032   1.001   5.003   6.750
 8495POPC   C3B66033   1.030   4.970   7.050
 8495POPC   C4B66034   0.972   5.023   7.350
 8496POPC   NC366035  42.294  32.216   5.550
 8496POPC   PO466036  42.321  32.252   5.850
 8496POPC   GL166037  42.309  32.262   6.150
 8496POPC   GL266038  42.291  32.126   6.150
 8496POPC   C1A66039  42.373  32.292   6.450
 8496POPC   D2A66040  42.286  32.285   6.750
 8496POPC   C3A66041  42.334  32.214   7.050
 8496POPC   C4A66042  42.313  32.297   7.350
 8496POPC   C1B66043  42.290  32.038   6.450
 8496POPC   C2B66044  42.273  32.000   6.750
 8496POPC   C3B66045  42.273  32.050   7.050
 8496POPC   C4B66046  42.307  31.999   7.350
 8497POPC   NC366047   3.586  31.440   5.550
 8497POPC   PO466048   3.591  31.426   5.850
 8497POPC   GL166049   3.586  31.448   6.150
 8497POPC   GL266050   3.546  31.327   6.150
 8497POPC   C1A66051   3.531  31.466   6.450
 8497POPC   D2A66052   3.533  31.432   6.750
 8497POPC   C3A66053   3.563  31.517   7.050
 8497POPC   C4A66054   3.577  31.518   7.350
 8497POPC   C1B66055   3.612  31.182   6.450
 8497POPC   C2B66056   3.528  31.198   6.750
 8497POPC   C3B66057   3.584  31.262   7.050
 8497POPC   C4B66058   3.536  31.251   7.350
 8498POPC   NC366059  30.665  43.884   5.550
 8498POPC   PO466060  30.741  43.845   5.850
 8498POPC   GL166061  30.734  43.884   6.150
 8498POPC   GL266062  30.550  43.944   6.150
 8498POPC   C1A66063  30.685  43.863   6.450
 8498POPC   D2A66064  30.714  43.888   6.750
 8498POPC   C3A66065  30.739  43.860   7.050
 8498POPC   C4A66066  30.667  43.924   7.350
 8498POPC   C1B66067  30.404  43.882   6.450
 8498POPC   C2B66068  30.419  43.961   6.750
 8498POPC   C3B66069  30.405  43.912   7.050
 8498POPC   C4B66070  30.496  43.917   7.350
 8499POPC   NC366071  42.370   5.060   5.550
 8499POPC   PO466072  42.319   5.061   5.850
 8499POPC   GL166073  42.291   5.066   6.150
 8499POPC   GL266074  42.491   5.042   6.150
 8499POPC   C1A66075  42.364   5.111   6.450
 8499POPC   D2A66076  42.362   5.116   6.750
 8499POPC   C3A66077  42.303   5.118   7.050
 8499POPC   C4A66078  42.381   5.116   7.350
 8499POPC   C1B66079  42.607   5.103   6.450
 8499POPC   C2B66080  42.622   5.102   6.750
 8499POPC   C3B66081  42.537   5.073   7.050
 8499POPC   C4B66082  42.604   5.064   7.350
 8500POPC   NC366083  19.807  37.672   5.550
 8500POPC   PO466084  19.855  37.638   5.850
 8500POPC   GL166085  19.860  37.642   6.150
 8500POPC   GL266086  19.765  37.778   6.150
 8500POPC   C1A66087  19.814  37.709   6.450
 8500POPC   D2A66088  19.826  37.728   6.750
 8500POPC   C3A66089  19.872  37.714   7.050
 8500POPC   C4A66090  19.828  37.638   7.350
 8500POPC   C1B66091  19.663  37.849   6.450
 8500POPC   C2B66092  19.655  37.903   6.750
 8500POPC   C3B66093  19.678  37.884   7.050
 8500POPC   C4B66094  19.699  37.869   7.350
 8501POPC   NC366095  17.505  16.733   5.550
 8501POPC   PO466096  17.547  16.703   5.850
 8501POPC   GL166097  17.484  16.737   6.150
 8501POPC   GL266098  17.673  16.719   6.150
 8501POPC   C1A66099  17.514  16.722   6.450
 8501POPC   D2A66100  17.510  16.745   6.750
 8501POPC   C3A66101  17.549  16.740   7.050
 8501POPC   C4A66102  17.461  16.740   7.350
 8501POPC   C1B66103  17.769  16.689   6.450
 8501POPC   C2B66104  17.780  16.694   6.750
 8501POPC   C3B66105  17.767  16.658   7.050
 8501POPC   C4B66106  17.716  16.712   7.350
 8502POPC   NC366107  21.407  35.302   5.550
 8502POPC   PO466108  21.393  35.353   5.850
 8502POPC   GL166109  21.423  35.368   6.150
 8502POPC   GL266110  21.233  35.308   6.150
 8502POPC   C1A66111  21.433  35.325   6.450
 8502POPC   D2A66112  21.399  35.323   6.750
 8502POPC   C3A66113  21.401  35.370   7.050
 8502POPC   C4A66114  21.429  35.342   7.350
 8502POPC   C1B66115  21.139  35.241   6.450
 8502POPC   C2B66116  21.198  35.206   6.750
 8502POPC   C3B66117  21.144  35.195   7.050
 8502POPC   C4B66118  21.144  35.205   7.350
 8503POPC   NC366119  22.936  43.934   5.550
 8503POPC   PO466120  22.953  43.890   5.850
 8503POPC   GL166121  22.907  43.897   6.150
 8503POPC   GL266122  22.908  43.778   6.150
 8503POPC   C1A66123  22.916  43.887   6.450
 8503POPC   D2A66124  22.897  43.846   6.750
 8503POPC   C3A66125  22.910  43.914   7.050
 8503POPC   C4A66126  22.955  43.913   7.350
 8503POPC   C1B66127  22.740  43.717   6.450
 8503POPC   C2B66128  22.737  43.653   6.750
 8503POPC   C3B66129  22.788  43.670   7.050
 8503POPC   C4B66130  22.746  43.650   7.350
 8504POPC   NC366131  43.071  11.303   5.550
 8504POPC   PO466132  43.123  11.262   5.850
 8504POPC   GL166133  43.132  11.276   6.150
 8504POPC   GL266134  43.039  11.224   6.150
 8504POPC   C1A66135  43.109  11.257   6.450
 8504POPC   D2A66136  43.134  11.261   6.750
 8504POPC   C3A66137  43.138  11.334   7.050
 8504POPC   C4A66138  43.088  11.260   7.350
 8504POPC   C1B66139  43.001  11.062   6.450
 8504POPC   C2B66140  42.927  11.131   6.750
 8504POPC   C3B66141  42.952  11.051   7.050
 8504POPC   C4B66142  42.927  11.091   7.350
 8505POPC   NC366143  39.205  29.099   5.550
 8505POPC   PO466144  39.277  29.155   5.850
 8505POPC   GL166145  39.232  29.125   6.150
 8505POPC   GL266146  39.274  29.042   6.150
 8505POPC   C1A66147  39.279  29.161   6.450
 8505POPC   D2A66148  39.213  29.105   6.750
 8505POPC   C3A66149  39.198  29.141   7.050
 8505POPC   C4A66150  39.230  29.160   7.350
 8505POPC   C1B66151  39.293  28.913   6.450
 8505POPC   C2B66152  39.333  28.875   6.750
 8505POPC   C3B66153  39.243  28.927   7.050
 8505POPC   C4B66154  39.309  28.933   7.350
 8506POPC   NC366155   0.465  31.463   5.550
 8506POPC   PO466156   0.441  31.446   5.850
 8506POPC   GL166157   0.467  31.476   6.150
 8506POPC   GL266158   0.358  31.386   6.150
 8506POPC   C1A66159   0.463  31.459   6.450
 8506POPC   D2A66160   0.443  31.451   6.750
 8506POPC   C3A66161   0.466  31.493   7.050
 8506POPC   C4A66162   0.411  31.499   7.350
 8506POPC   C1B66163   0.274  31.245   6.450
 8506POPC   C2B66164   0.251  31.307   6.750
 8506POPC   C3B66165   0.327  31.259   7.050
 8506POPC   C4B66166   0.278  31.318   7.350
 8507POPC   NC366167  36.881  44.675   5.550
 8507POPC   PO466168  36.912  44.619   5.850
 8507POPC   GL166169  36.908  44.624   6.150
 8507POPC   GL266170  36.916  44.802   6.150
 8507POPC   C1A66171  36.917  44.687   6.450
 8507POPC   D2A66172  36.874  44.631   6.750
 8507POPC   C3A66173  36.876  44.633   7.050
 8507POPC   C4A66174  36.953  44.658   7.350
 8507POPC   C1B66175  36.908  44.913   6.450
 8507POPC   C2B66176  36.914  44.897   6.750
 8507POPC   C3B66177  36.970  44.916   7.050
 8507POPC   C4B66178  36.903  44.912   7.350
 8508POPC   NC366179  19.799   6.631   5.550
 8508POPC   PO466180  19.845   6.654   5.850
 8508POPC   GL166181  19.857   6.651   6.150
 8508POPC   GL266182  19.718   6.573   6.150
 8508POPC   C1A66183  19.852   6.666   6.450
 8508POPC   D2A66184  19.789   6.656   6.750
 8508POPC   C3A66185  19.800   6.685   7.050
 8508POPC   C4A66186  19.800   6.684   7.350
 8508POPC   C1B66187  19.645   6.540   6.450
 8508POPC   C2B66188  19.620   6.592   6.750
 8508POPC   C3B66189  19.608   6.567   7.050
 8508POPC   C4B66190  19.590   6.525   7.350
 8509POPC   NC366191  15.941  42.309   5.550
 8509POPC   PO466192  15.932  42.376   5.850
 8509POPC   GL166193  15.934  42.369   6.150
 8509POPC   GL266194  15.804  42.309   6.150
 8509POPC   C1A66195  15.958  42.350   6.450
 8509POPC   D2A66196  15.981  42.346   6.750
 8509POPC   C3A66197  15.952  42.352   7.050
 8509POPC   C4A66198  15.928  42.297   7.350
 8509POPC   C1B66199  15.774  42.266   6.450
 8509POPC   C2B66200  15.729  42.189   6.750
 8509POPC   C3B66201  15.761  42.202   7.050
 8509POPC   C4B66202  15.741  42.249   7.350
 8510POPC   NC366203   9.778  18.308   5.550
 8510POPC   PO466204   9.771  18.286   5.850
 8510POPC   GL166205   9.778  18.284   6.150
 8510POPC   GL266206   9.878  18.179   6.150
 8510POPC   C1A66207   9.773  18.266   6.450
 8510POPC   D2A66208   9.772  18.289   6.750
 8510POPC   C3A66209   9.781  18.250   7.050
 8510POPC   C4A66210   9.762  18.270   7.350
 8510POPC   C1B66211   9.860  18.136   6.450
 8510POPC   C2B66212   9.936  18.135   6.750
 8510POPC   C3B66213   9.901  18.098   7.050
 8510POPC   C4B66214   9.898  18.111   7.350
 8511POPC   NC366215  11.319  19.810   5.550
 8511POPC   PO466216  11.340  19.837   5.850
 8511POPC   GL166217  11.343  19.874   6.150
 8511POPC   GL266218  11.261  19.718   6.150
 8511POPC   C1A66219  11.314  19.835   6.450
 8511POPC   D2A66220  11.325  19.831   6.750
 8511POPC   C3A66221  11.258  19.838   7.050
 8511POPC   C4A66222  11.297  19.795   7.350
 8511POPC   C1B66223  11.241  19.612   6.450
 8511POPC   C2B66224  11.287  19.587   6.750
 8511POPC   C3B66225  11.295  19.609   7.050
 8511POPC   C4B66226  11.306  19.636   7.350
 8512POPC   NC366227  19.789  35.330   5.550
 8512POPC   PO466228  19.795  35.379   5.850
 8512POPC   GL166229  19.865  35.310   6.150
 8512POPC   GL266230  19.874  35.276   6.150
 8512POPC   C1A66231  19.839  35.366   6.450
 8512POPC   D2A66232  19.800  35.336   6.750
 8512POPC   C3A66233  19.808  35.399   7.050
 8512POPC   C4A66234  19.855  35.329   7.350
 8512POPC   C1B66235  19.916  35.150   6.450
 8512POPC   C2B66236  20.006  35.157   6.750
 8512POPC   C3B66237  19.984  35.115   7.050
 8512POPC   C4B66238  19.977  35.186   7.350
 8513POPC   NC366239  36.864  13.635   5.550
 8513POPC   PO466240  36.935  13.627   5.850
 8513POPC   GL166241  36.912  13.649   6.150
 8513POPC   GL266242  36.988  13.611   6.150
 8513POPC   C1A66243  36.895  13.585   6.450
 8513POPC   D2A66244  36.885  13.642   6.750
 8513POPC   C3A66245  36.885  13.670   7.050
 8513POPC   C4A66246  36.880  13.590   7.350
 8513POPC   C1B66247  37.188  13.664   6.450
 8513POPC   C2B66248  37.122  13.581   6.750
 8513POPC   C3B66249  37.136  13.598   7.050
 8513POPC   C4B66250  37.190  13.579   7.350
 8514POPC   NC366251  33.817  19.877   5.550
 8514POPC   PO466252  33.813  19.859   5.850
 8514POPC   GL166253  33.779  19.835   6.150
 8514POPC   GL266254  33.938  19.824   6.150
 8514POPC   C1A66255  33.768  19.875   6.450
 8514POPC   D2A66256  33.813  19.873   6.750
 8514POPC   C3A66257  33.832  19.847   7.050
 8514POPC   C4A66258  33.807  19.788   7.350
 8514POPC   C1B66259  34.033  19.906   6.450
 8514POPC   C2B66260  34.071  19.902   6.750
 8514POPC   C3B66261  33.989  19.906   7.050
 8514POPC   C4B66262  34.046  19.959   7.350
 8515POPC   NC366263  35.337  44.692   5.550
 8515POPC   PO466264  35.313  44.647   5.850
 8515POPC   GL166265  35.384  44.626   6.150
 8515POPC   GL266266  35.363  44.769   6.150
 8515POPC   C1A66267  35.311  44.692   6.450
 8515POPC   D2A66268  35.388  44.685   6.750
 8515POPC   C3A66269  35.345  44.634   7.050
 8515POPC   C4A66270  35.391  44.644   7.350
 8515POPC   C1B66271  35.391  44.953   6.450
 8515POPC   C2B66272  35.351  44.918   6.750
 8515POPC   C3B66273  35.367  44.863   7.050
 8515POPC   C4B66274  35.359  44.950   7.350
 8516POPC   NC366275  12.806  25.283   5.550
 8516POPC   PO466276  12.814  25.225   5.850
 8516POPC   GL166277  12.821  25.309   6.150
 8516POPC   GL266278  12.850  25.375   6.150
 8516POPC   C1A66279  12.835  25.272   6.450
 8516POPC   D2A66280  12.815  25.242   6.750
 8516POPC   C3A66281  12.844  25.283   7.050
 8516POPC   C4A66282  12.820  25.226   7.350
 8516POPC   C1B66283  12.911  25.547   6.450
 8516POPC   C2B66284  12.855  25.509   6.750
 8516POPC   C3B66285  12.904  25.500   7.050
 8516POPC   C4B66286  12.884  25.555   7.350
 8517POPC   NC366287  42.347  26.015   5.550
 8517POPC   PO466288  42.309  26.046   5.850
 8517POPC   GL166289  42.301  26.061   6.150
 8517POPC   GL266290  42.465  26.182   6.150
 8517POPC   C1A66291  42.307  26.075   6.450
 8517POPC   D2A66292  42.341  26.083   6.750
 8517POPC   C3A66293  42.296  26.034   7.050
 8517POPC   C4A66294  42.368  26.015   7.350
 8517POPC   C1B66295  42.543  26.269   6.450
 8517POPC   C2B66296  42.510  26.194   6.750
 8517POPC   C3B66297  42.553  26.241   7.050
 8517POPC   C4B66298  42.493  26.213   7.350
 8518POPC   NC366299  32.981   7.400   5.550
 8518POPC   PO466300  33.049   7.441   5.850
 8518POPC   GL166301  33.048   7.392   6.150
 8518POPC   GL266302  33.021   7.586   6.150
 8518POPC   C1A66303  33.004   7.455   6.450
 8518POPC   D2A66304  32.999   7.382   6.750
 8518POPC   C3A66305  32.982   7.455   7.050
 8518POPC   C4A66306  33.045   7.402   7.350
 8518POPC   C1B66307  33.045   7.659   6.450
 8518POPC   C2B66308  32.990   7.697   6.750
 8518POPC   C3B66309  32.970   7.690   7.050
 8518POPC   C4B66310  33.044   7.677   7.350
 8519POPC   NC366311  10.506  15.954   5.550
 8519POPC   PO466312  10.566  15.990   5.850
 8519POPC   GL166313  10.529  15.943   6.150
 8519POPC   GL266314  10.522  16.049   6.150
 8519POPC   C1A66315  10.522  15.914   6.450
 8519POPC   D2A66316  10.536  16.004   6.750
 8519POPC   C3A66317  10.481  15.950   7.050
 8519POPC   C4A66318  10.484  15.950   7.350
 8519POPC   C1B66319  10.476  16.254   6.450
 8519POPC   C2B66320  10.531  16.171   6.750
 8519POPC   C3B66321  10.564  16.212   7.050
 8519POPC   C4B66322  10.558  16.167   7.350
 8520POPC   NC366323  11.283   2.800   5.550
 8520POPC   PO466324  11.282   2.739   5.850
 8520POPC   GL166325  11.278   2.729   6.150
 8520POPC   GL266326  11.190   2.700   6.150
 8520POPC   C1A66327  11.317   2.742   6.450
 8520POPC   D2A66328  11.306   2.756   6.750
 8520POPC   C3A66329  11.302   2.724   7.050
 8520POPC   C4A66330  11.260   2.740   7.350
 8520POPC   C1B66331  11.060   2.737   6.450
 8520POPC   C2B66332  11.062   2.699   6.750
 8520POPC   C3B66333  11.078   2.705   7.050
 8520POPC   C4B66334  11.085   2.710   7.350
 8521POPC   NC366335  12.114  24.526   5.550
 8521POPC   PO466336  12.045  24.456   5.850
 8521POPC   GL166337  12.081  24.469   6.150
 8521POPC   GL266338  11.961  24.579   6.150
 8521POPC   C1A66339  12.075  24.495   6.450
 8521POPC   D2A66340  12.060  24.511   6.750
 8521POPC   C3A66341  12.052  24.503   7.050
 8521POPC   C4A66342  12.032  24.455   7.350
 8521POPC   C1B66343  11.887  24.649   6.450
 8521POPC   C2B66344  11.860  24.613   6.750
 8521POPC   C3B66345  11.833  24.571   7.050
 8521POPC   C4B66346  11.856  24.654   7.350
 8522POPC   NC366347  25.306  42.335   5.550
 8522POPC   PO466348  25.278  42.339   5.850
 8522POPC   GL166349  25.223  42.339   6.150
 8522POPC   GL266350  25.149  42.286   6.150
 8522POPC   C1A66351  25.275  42.344   6.450
 8522POPC   D2A66352  25.270  42.357   6.750
 8522POPC   C3A66353  25.304  42.334   7.050
 8522POPC   C4A66354  25.231  42.333   7.350
 8522POPC   C1B66355  25.112  42.144   6.450
 8522POPC   C2B66356  25.043  42.138   6.750
 8522POPC   C3B66357  25.058  42.199   7.050
 8522POPC   C4B66358  25.045  42.148   7.350
 8523POPC   NC366359   1.186  15.220   5.550
 8523POPC   PO466360   1.263  15.200   5.850
 8523POPC   GL166361   1.177  15.146   6.150
 8523POPC   GL266362   1.381  15.139   6.150
 8523POPC   C1A66363   1.231  15.177   6.450
 8523POPC   D2A66364   1.168  15.209   6.750
 8523POPC   C3A66365   1.242  15.130   7.050
 8523POPC   C4A66366   1.223  15.169   7.350
 8523POPC   C1B66367   1.513  15.212   6.450
 8523POPC   C2B66368   1.466  15.194   6.750
 8523POPC   C3B66369   1.443  15.224   7.050
 8523POPC   C4B66370   1.503  15.232   7.350
 8524POPC   NC366371  26.781  24.539   5.550
 8524POPC   PO466372  26.816  24.456   5.850
 8524POPC   GL166373  26.867  24.483   6.150
 8524POPC   GL266374  26.916  24.350   6.150
 8524POPC   C1A66375  26.852  24.521   6.450
 8524POPC   D2A66376  26.866  24.499   6.750
 8524POPC   C3A66377  26.865  24.474   7.050
 8524POPC   C4A66378  26.797  24.514   7.350
 8524POPC   C1B66379  26.939  24.298   6.450
 8524POPC   C2B66380  26.890  24.268   6.750
 8524POPC   C3B66381  26.914  24.279   7.050
 8524POPC   C4B66382  26.914  24.313   7.350
 8525POPC   NC366383  22.191  44.660   5.550
 8525POPC   PO466384  22.177  44.622   5.850
 8525POPC   GL166385  22.201  44.665   6.150
 8525POPC   GL266386  22.222  44.760   6.150
 8525POPC   C1A66387  22.118  44.621   6.450
 8525POPC   D2A66388  22.181  44.643   6.750
 8525POPC   C3A66389  22.137  44.710   7.050
 8525POPC   C4A66390  22.174  44.711   7.350
 8525POPC   C1B66391  22.304  44.863   6.450
 8525POPC   C2B66392  22.298  44.924   6.750
 8525POPC   C3B66393  22.238  44.892   7.050
 8525POPC   C4B66394  22.248  44.868   7.350
 8526POPC   NC366395   5.079   1.179   5.550
 8526POPC   PO466396   5.131   1.210   5.850
 8526POPC   GL166397   5.044   1.247   6.150
 8526POPC   GL266398   5.082   1.081   6.150
 8526POPC   C1A66399   5.071   1.217   6.450
 8526POPC   D2A66400   5.070   1.190   6.750
 8526POPC   C3A66401   5.062   1.175   7.050
 8526POPC   C4A66402   5.065   1.262   7.350
 8526POPC   C1B66403   5.062   0.930   6.450
 8526POPC   C2B66404   5.137   0.937   6.750
 8526POPC   C3B66405   5.091   0.957   7.050
 8526POPC   C4B66406   5.132   0.927   7.350
 8527POPC   NC366407  14.440   0.454   5.550
 8527POPC   PO466408  14.357   0.484   5.850
 8527POPC   GL166409  14.384   0.410   6.150
 8527POPC   GL266410  14.438   0.269   6.150
 8527POPC   C1A66411  14.410   0.460   6.450
 8527POPC   D2A66412  14.369   0.472   6.750
 8527POPC   C3A66413  14.425   0.405   7.050
 8527POPC   C4A66414  14.431   0.466   7.350
 8527POPC   C1B66415  14.346   0.217   6.450
 8527POPC   C2B66416  14.354   0.150   6.750
 8527POPC   C3B66417  14.418   0.140   7.050
 8527POPC   C4B66418  14.366   0.206   7.350
 8528POPC   NC366419   2.775  31.504   5.550
 8528POPC   PO466420   2.791  31.477   5.850
 8528POPC   GL166421   2.721  31.459   6.150
 8528POPC   GL266422   2.674  31.387   6.150
 8528POPC   C1A66423   2.813  31.494   6.450
 8528POPC   D2A66424   2.795  31.445   6.750
 8528POPC   C3A66425   2.757  31.433   7.050
 8528POPC   C4A66426   2.801  31.501   7.350
 8528POPC   C1B66427   2.565  31.371   6.450
 8528POPC   C2B66428   2.539  31.299   6.750
 8528POPC   C3B66429   2.557  31.382   7.050
 8528POPC   C4B66430   2.594  31.356   7.350
 8529POPC   NC366431  37.629  30.726   5.550
 8529POPC   PO466432  37.634  30.743   5.850
 8529POPC   GL166433  37.710  30.662   6.150
 8529POPC   GL266434  37.682  30.548   6.150
 8529POPC   C1A66435  37.675  30.647   6.450
 8529POPC   D2A66436  37.650  30.694   6.750
 8529POPC   C3A66437  37.661  30.721   7.050
 8529POPC   C4A66438  37.689  30.714   7.350
 8529POPC   C1B66439  37.740  30.494   6.450
 8529POPC   C2B66440  37.715  30.449   6.750
 8529POPC   C3B66441  37.693  30.431   7.050
 8529POPC   C4B66442  37.745  30.482   7.350
 8530POPC   NC366443   5.065  16.696   5.550
 8530POPC   PO466444   5.117  16.710   5.850
 8530POPC   GL166445   5.111  16.759   6.150
 8530POPC   GL266446   5.130  16.835   6.150
 8530POPC   C1A66447   5.132  16.774   6.450
 8530POPC   D2A66448   5.061  16.742   6.750
 8530POPC   C3A66449   5.126  16.724   7.050
 8530POPC   C4A66450   5.082  16.745   7.350
 8530POPC   C1B66451   5.239  16.906   6.450
 8530POPC   C2B66452   5.217  16.914   6.750
 8530POPC   C3B66453   5.187  16.991   7.050
 8530POPC   C4B66454   5.254  16.932   7.350
 8531POPC   NC366455  35.375  16.721   5.550
 8531POPC   PO466456  35.306  16.718   5.850
 8531POPC   GL166457  35.305  16.779   6.150
 8531POPC   GL266458  35.248  16.808   6.150
 8531POPC   C1A66459  35.321  16.712   6.450
 8531POPC   D2A66460  35.307  16.706   6.750
 8531POPC   C3A66461  35.365  16.774   7.050
 8531POPC   C4A66462  35.396  16.749   7.350
 8531POPC   C1B66463  35.122  16.817   6.450
 8531POPC   C2B66464  35.135  16.895   6.750
 8531POPC   C3B66465  35.139  16.848   7.050
 8531POPC   C4B66466  35.144  16.842   7.350
 8532POPC   NC366467  23.725  25.227   5.550
 8532POPC   PO466468  23.755  25.227   5.850
 8532POPC   GL166469  23.732  25.247   6.150
 8532POPC   GL266470  23.576  25.323   6.150
 8532POPC   C1A66471  23.675  25.230   6.450
 8532POPC   D2A66472  23.706  25.231   6.750
 8532POPC   C3A66473  23.722  25.246   7.050
 8532POPC   C4A66474  23.755  25.244   7.350
 8532POPC   C1B66475  23.533  25.426   6.450
 8532POPC   C2B66476  23.557  25.450   6.750
 8532POPC   C3B66477  23.527  25.382   7.050
 8532POPC   C4B66478  23.487  25.428   7.350
 8533POPC   NC366479  26.034  24.510   5.550
 8533POPC   PO466480  26.002  24.489   5.850
 8533POPC   GL166481  26.062  24.451   6.150
 8533POPC   GL266482  25.973  24.401   6.150
 8533POPC   C1A66483  26.077  24.519   6.450
 8533POPC   D2A66484  26.091  24.451   6.750
 8533POPC   C3A66485  26.031  24.461   7.050
 8533POPC   C4A66486  26.009  24.455   7.350
 8533POPC   C1B66487  25.908  24.335   6.450
 8533POPC   C2B66488  25.866  24.316   6.750
 8533POPC   C3B66489  25.860  24.310   7.050
 8533POPC   C4B66490  25.873  24.337   7.350
 8534POPC   NC366491  16.683   8.925   5.550
 8534POPC   PO466492  16.744   8.963   5.850
 8534POPC   GL166493  16.770   8.991   6.150
 8534POPC   GL266494  16.756   8.845   6.150
 8534POPC   C1A66495  16.776   9.008   6.450
 8534POPC   D2A66496  16.690   9.016   6.750
 8534POPC   C3A66497  16.779   8.985   7.050
 8534POPC   C4A66498  16.779   8.940   7.350
 8534POPC   C1B66499  16.728   8.772   6.450
 8534POPC   C2B66500  16.693   8.743   6.750
 8534POPC   C3B66501  16.690   8.713   7.050
 8534POPC   C4B66502  16.715   8.767   7.350
 8535POPC   NC366503   5.054  22.964   5.550
 8535POPC   PO466504   5.082  22.950   5.850
 8535POPC   GL166505   5.044  22.971   6.150
 8535POPC   GL266506   5.203  22.908   6.150
 8535POPC   C1A66507   5.115  22.976   6.450
 8535POPC   D2A66508   5.077  22.985   6.750
 8535POPC   C3A66509   5.045  22.893   7.050
 8535POPC   C4A66510   5.078  22.902   7.350
 8535POPC   C1B66511   5.390  22.942   6.450
 8535POPC   C2B66512   5.357  22.864   6.750
 8535POPC   C3B66513   5.366  22.925   7.050
 8535POPC   C4B66514   5.309  22.956   7.350
 8536POPC   NC366515   4.297  10.517   5.550
 8536POPC   PO466516   4.285  10.486   5.850
 8536POPC   GL166517   4.323  10.506   6.150
 8536POPC   GL266518   4.293  10.404   6.150
 8536POPC   C1A66519   4.344  10.474   6.450
 8536POPC   D2A66520   4.307  10.496   6.750
 8536POPC   C3A66521   4.320  10.518   7.050
 8536POPC   C4A66522   4.304  10.559   7.350
 8536POPC   C1B66523   4.263  10.269   6.450
 8536POPC   C2B66524   4.191  10.301   6.750
 8536POPC   C3B66525   4.240  10.246   7.050
 8536POPC   C4B66526   4.272  10.273   7.350
 8537POPC   NC366527  41.511  22.205   5.550
 8537POPC   PO466528  41.560  22.146   5.850
 8537POPC   GL166529  41.568  22.160   6.150
 8537POPC   GL266530  41.522  22.060   6.150
 8537POPC   C1A66531  41.583  22.138   6.450
 8537POPC   D2A66532  41.520  22.117   6.750
 8537POPC   C3A66533  41.599  22.170   7.050
 8537POPC   C4A66534  41.526  22.159   7.350
 8537POPC   C1B66535  41.527  21.913   6.450
 8537POPC   C2B66536  41.612  21.959   6.750
 8537POPC   C3B66537  41.542  21.935   7.050
 8537POPC   C4B66538  41.553  21.902   7.350
 8538POPC   NC366539   5.907  33.025   5.550
 8538POPC   PO466540   5.895  32.998   5.850
 8538POPC   GL166541   5.900  33.006   6.150
 8538POPC   GL266542   6.016  33.092   6.150
 8538POPC   C1A66543   5.886  33.022   6.450
 8538POPC   D2A66544   5.902  33.044   6.750
 8538POPC   C3A66545   5.914  32.998   7.050
 8538POPC   C4A66546   5.917  32.983   7.350
 8538POPC   C1B66547   6.030  33.185   6.450
 8538POPC   C2B66548   6.035  33.204   6.750
 8538POPC   C3B66549   6.066  33.205   7.050
 8538POPC   C4B66550   6.078  33.139   7.350
 8539POPC   NC366551  33.000  36.114   5.550
 8539POPC   PO466552  33.018  36.151   5.850
 8539POPC   GL166553  33.042  36.102   6.150
 8539POPC   GL266554  33.136  36.255   6.150
 8539POPC   C1A66555  32.981  36.114   6.450
 8539POPC   D2A66556  33.002  36.101   6.750
 8539POPC   C3A66557  32.990  36.154   7.050
 8539POPC   C4A66558  33.059  36.137   7.350
 8539POPC   C1B66559  33.234  36.253   6.450
 8539POPC   C2B66560  33.218  36.283   6.750
 8539POPC   C3B66561  33.222  36.290   7.050
 8539POPC   C4B66562  33.158  36.333   7.350
 8540POPC   NC366563  23.745  28.392   5.550
 8540POPC   PO466564  23.755  28.389   5.850
 8540POPC   GL166565  23.741  28.363   6.150
 8540POPC   GL266566  23.622  28.500   6.150
 8540POPC   C1A66567  23.760  28.323   6.450
 8540POPC   D2A66568  23.731  28.388   6.750
 8540POPC   C3A66569  23.723  28.320   7.050
 8540POPC   C4A66570  23.683  28.359   7.350
 8540POPC   C1B66571  23.612  28.587   6.450
 8540POPC   C2B66572  23.658  28.594   6.750
 8540POPC   C3B66573  23.616  28.566   7.050
 8540POPC   C4B66574  23.612  28.629   7.350
 8541POPC   NC366575  34.622  24.463   5.550
 8541POPC   PO466576  34.621  24.528   5.850
 8541POPC   GL166577  34.582  24.475   6.150
 8541POPC   GL266578  34.498  24.544   6.150
 8541POPC   C1A66579  34.571  24.492   6.450
 8541POPC   D2A66580  34.542  24.471   6.750
 8541POPC   C3A66581  34.571  24.503   7.050
 8541POPC   C4A66582  34.601  24.486   7.350
 8541POPC   C1B66583  34.366  24.632   6.450
 8541POPC   C2B66584  34.379  24.693   6.750
 8541POPC   C3B66585  34.371  24.671   7.050
 8541POPC   C4B66586  34.375  24.727   7.350
 8542POPC   NC366587   3.581  16.763   5.550
 8542POPC   PO466588   3.536  16.697   5.850
 8542POPC   GL166589   3.584  16.747   6.150
 8542POPC   GL266590   3.636  16.696   6.150
 8542POPC   C1A66591   3.579  16.776   6.450
 8542POPC   D2A66592   3.497  16.738   6.750
 8542POPC   C3A66593   3.563  16.764   7.050
 8542POPC   C4A66594   3.513  16.741   7.350
 8542POPC   C1B66595   3.804  16.671   6.450
 8542POPC   C2B66596   3.762  16.707   6.750
 8542POPC   C3B66597   3.781  16.714   7.050
 8542POPC   C4B66598   3.736  16.627   7.350
 8543POPC   NC366599  26.828  26.825   5.550
 8543POPC   PO466600  26.806  26.774   5.850
 8543POPC   GL166601  26.777  26.789   6.150
 8543POPC   GL266602  26.926  26.884   6.150
 8543POPC   C1A66603  26.860  26.825   6.450
 8543POPC   D2A66604  26.783  26.809   6.750
 8543POPC   C3A66605  26.866  26.840   7.050
 8543POPC   C4A66606  26.768  26.806   7.350
 8543POPC   C1B66607  27.103  26.823   6.450
 8543POPC   C2B66608  27.063  26.821   6.750
 8543POPC   C3B66609  27.067  26.867   7.050
 8543POPC   C4B66610  27.061  26.824   7.350
 8544POPC   NC366611  12.070  34.565   5.550
 8544POPC   PO466612  12.118  34.564   5.850
 8544POPC   GL166613  12.055  34.554   6.150
 8544POPC   GL266614  11.963  34.526   6.150
 8544POPC   C1A66615  12.067  34.617   6.450
 8544POPC   D2A66616  12.059  34.536   6.750
 8544POPC   C3A66617  12.086  34.568   7.050
 8544POPC   C4A66618  12.039  34.616   7.350
 8544POPC   C1B66619  11.818  34.509   6.450
 8544POPC   C2B66620  11.820  34.570   6.750
 8544POPC   C3B66621  11.868  34.525   7.050
 8544POPC   C4B66622  11.873  34.486   7.350
 8545POPC   NC366623   6.625  36.876   5.550
 8545POPC   PO466624   6.669  36.910   5.850
 8545POPC   GL166625   6.597  36.892   6.150
 8545POPC   GL266626   6.782  36.904   6.150
 8545POPC   C1A66627   6.657  36.932   6.450
 8545POPC   D2A66628   6.679  36.935   6.750
 8545POPC   C3A66629   6.690  36.899   7.050
 8545POPC   C4A66630   6.646  36.939   7.350
 8545POPC   C1B66631   6.914  36.924   6.450
 8545POPC   C2B66632   6.838  37.013   6.750
 8545POPC   C3B66633   6.920  36.925   7.050
 8545POPC   C4B66634   6.874  36.946   7.350
 8546POPC   NC366635  37.686  11.321   5.550
 8546POPC   PO466636  37.729  11.318   5.850
 8546POPC   GL166637  37.685  11.278   6.150
 8546POPC   GL266638  37.588  11.294   6.150
 8546POPC   C1A66639  37.678  11.305   6.450
 8546POPC   D2A66640  37.714  11.322   6.750
 8546POPC   C3A66641  37.659  11.323   7.050
 8546POPC   C4A66642  37.661  11.298   7.350
 8546POPC   C1B66643  37.468  11.311   6.450
 8546POPC   C2B66644  37.476  11.288   6.750
 8546POPC   C3B66645  37.408  11.304   7.050
 8546POPC   C4B66646  37.474  11.296   7.350
 8547POPC   NC366647  39.970  34.600   5.550
 8547POPC   PO466648  39.986  34.572   5.850
 8547POPC   GL166649  40.034  34.606   6.150
 8547POPC   GL266650  40.101  34.489   6.150
 8547POPC   C1A66651  39.989  34.618   6.450
 8547POPC   D2A66652  40.039  34.584   6.750
 8547POPC   C3A66653  40.052  34.545   7.050
 8547POPC   C4A66654  39.972  34.528   7.350
 8547POPC   C1B66655  40.132  34.379   6.450
 8547POPC   C2B66656  40.224  34.436   6.750
 8547POPC   C3B66657  40.138  34.427   7.050
 8547POPC   C4B66658  40.208  34.375   7.350
 8548POPC   NC366659  33.756  24.530   5.550
 8548POPC   PO466660  33.763  24.525   5.850
 8548POPC   GL166661  33.843  24.524   6.150
 8548POPC   GL266662  33.934  24.601   6.150
 8548POPC   C1A66663  33.770  24.527   6.450
 8548POPC   D2A66664  33.777  24.450   6.750
 8548POPC   C3A66665  33.753  24.471   7.050
 8548POPC   C4A66666  33.785  24.446   7.350
 8548POPC   C1B66667  34.016  24.620   6.450
 8548POPC   C2B66668  34.004  24.573   6.750
 8548POPC   C3B66669  33.971  24.662   7.050
 8548POPC   C4B66670  34.034  24.617   7.350
 8549POPC   NC366671  16.781  44.631   5.550
 8549POPC   PO466672  16.719  44.651   5.850
 8549POPC   GL166673  16.765  44.697   6.150
 8549POPC   GL266674  16.623  44.646   6.150
 8549POPC   C1A66675  16.733  44.683   6.450
 8549POPC   D2A66676  16.718  44.685   6.750
 8549POPC   C3A66677  16.699  44.636   7.050
 8549POPC   C4A66678  16.770  44.673   7.350
 8549POPC   C1B66679  16.463  44.573   6.450
 8549POPC   C2B66680  16.481  44.568   6.750
 8549POPC   C3B66681  16.461  44.569   7.050
 8549POPC   C4B66682  16.506  44.527   7.350
 8550POPC   NC366683  11.307  28.328   5.550
 8550POPC   PO466684  11.350  28.411   5.850
 8550POPC   GL166685  11.252  28.368   6.150
 8550POPC   GL266686  11.374  28.474   6.150
 8550POPC   C1A66687  11.331  28.324   6.450
 8550POPC   D2A66688  11.319  28.389   6.750
 8550POPC   C3A66689  11.258  28.351   7.050
 8550POPC   C4A66690  11.252  28.331   7.350
 8550POPC   C1B66691  11.440  28.527   6.450
 8550POPC   C2B66692  11.500  28.594   6.750
 8550POPC   C3B66693  11.464  28.572   7.050
 8550POPC   C4B66694  11.419  28.597   7.350
 8551POPC   NC366695  44.662  43.838   5.550
 8551POPC   PO466696  44.647  43.859   5.850
 8551POPC   GL166697  44.656  43.922   6.150
 8551POPC   GL266698  44.582  43.846   6.150
 8551POPC   C1A66699  44.664  43.842   6.450
 8551POPC   D2A66700  44.661  43.912   6.750
 8551POPC   C3A66701  44.708  43.888   7.050
 8551POPC   C4A66702  44.671  43.843   7.350
 8551POPC   C1B66703  44.413  43.715   6.450
 8551POPC   C2B66704  44.426  43.740   6.750
 8551POPC   C3B66705  44.466  43.776   7.050
 8551POPC   C4B66706  44.456  43.775   7.350
 8552POPC   NC366707  20.651  26.805   5.550
 8552POPC   PO466708  20.601  26.835   5.850
 8552POPC   GL166709  20.611  26.862   6.150
 8552POPC   GL266710  20.734  26.933   6.150
 8552POPC   C1A66711  20.618  26.842   6.450
 8552POPC   D2A66712  20.594  26.769   6.750
 8552POPC   C3A66713  20.587  26.794   7.050
 8552POPC   C4A66714  20.638  26.783   7.350
 8552POPC   C1B66715  20.727  27.052   6.450
 8552POPC   C2B66716  20.784  26.971   6.750
 8552POPC   C3B66717  20.791  27.011   7.050
 8552POPC   C4B66718  20.741  26.984   7.350
 8553POPC   NC366719   2.039   3.564   5.550
 8553POPC   PO466720   2.011   3.541   5.850
 8553POPC   GL166721   1.966   3.573   6.150
 8553POPC   GL266722   1.883   3.569   6.150
 8553POPC   C1A66723   2.010   3.553   6.450
 8553POPC   D2A66724   1.954   3.523   6.750
 8553POPC   C3A66725   1.986   3.582   7.050
 8553POPC   C4A66726   2.016   3.520   7.350
 8553POPC   C1B66727   1.743   3.666   6.450
 8553POPC   C2B66728   1.717   3.652   6.750
 8553POPC   C3B66729   1.771   3.680   7.050
 8553POPC   C4B66730   1.797   3.611   7.350
 8554POPC   NC366731   3.494   6.614   5.550
 8554POPC   PO466732   3.561   6.674   5.850
 8554POPC   GL166733   3.563   6.659   6.150
 8554POPC   GL266734   3.591   6.504   6.150
 8554POPC   C1A66735   3.560   6.636   6.450
 8554POPC   D2A66736   3.587   6.644   6.750
 8554POPC   C3A66737   3.548   6.636   7.050
 8554POPC   C4A66738   3.506   6.598   7.350
 8554POPC   C1B66739   3.600   6.410   6.450
 8554POPC   C2B66740   3.589   6.400   6.750
 8554POPC   C3B66741   3.575   6.438   7.050
 8554POPC   C4B66742   3.618   6.393   7.350
 8555POPC   NC366743  29.886   3.532   5.550
 8555POPC   PO466744  29.881   3.508   5.850
 8555POPC   GL166745  29.930   3.542   6.150
 8555POPC   GL266746  29.803   3.525   6.150
 8555POPC   C1A66747  29.922   3.514   6.450
 8555POPC   D2A66748  29.934   3.556   6.750
 8555POPC   C3A66749  29.968   3.516   7.050
 8555POPC   C4A66750  29.915   3.572   7.350
 8555POPC   C1B66751  29.684   3.545   6.450
 8555POPC   C2B66752  29.627   3.546   6.750
 8555POPC   C3B66753  29.700   3.480   7.050
 8555POPC   C4B66754  29.687   3.472   7.350
 8556POPC   NC366755  37.675  37.703   5.550
 8556POPC   PO466756  37.636  37.707   5.850
 8556POPC   GL166757  37.677  37.662   6.150
 8556POPC   GL266758  37.782  37.550   6.150
 8556POPC   C1A66759  37.660  37.686   6.450
 8556POPC   D2A66760  37.696  37.701   6.750
 8556POPC   C3A66761  37.723  37.691   7.050
 8556POPC   C4A66762  37.691  37.645   7.350
 8556POPC   C1B66763  37.771  37.463   6.450
 8556POPC   C2B66764  37.752  37.446   6.750
 8556POPC   C3B66765  37.809  37.451   7.050
 8556POPC   C4B66766  37.831  37.505   7.350
 8557POPC   NC366767  15.204   2.771   5.550
 8557POPC   PO466768  15.159   2.776   5.850
 8557POPC   GL166769  15.155   2.780   6.150
 8557POPC   GL266770  15.097   2.794   6.150
 8557POPC   C1A66771  15.210   2.787   6.450
 8557POPC   D2A66772  15.157   2.742   6.750
 8557POPC   C3A66773  15.133   2.774   7.050
 8557POPC   C4A66774  15.206   2.762   7.350
 8557POPC   C1B66775  14.918   2.918   6.450
 8557POPC   C2B66776  14.997   2.859   6.750
 8557POPC   C3B66777  14.967   2.838   7.050
 8557POPC   C4B66778  14.934   2.853   7.350
 8558POPC   NC366779   3.523  13.623   5.550
 8558POPC   PO466780   3.505  13.666   5.850
 8558POPC   GL166781   3.528  13.609   6.150
 8558POPC   GL266782   3.461  13.505   6.150
 8558POPC   C1A66783   3.542  13.586   6.450
 8558POPC   D2A66784   3.573  13.670   6.750
 8558POPC   C3A66785   3.540  13.591   7.050
 8558POPC   C4A66786   3.507  13.663   7.350
 8558POPC   C1B66787   3.400  13.437   6.450
 8558POPC   C2B66788   3.375  13.488   6.750
 8558POPC   C3B66789   3.388  13.443   7.050
 8558POPC   C4B66790   3.342  13.436   7.350
 8559POPC   NC366791  39.967   1.940   5.550
 8559POPC   PO466792  40.028   1.957   5.850
 8559POPC   GL166793  40.023   1.941   6.150
 8559POPC   GL266794  39.913   2.080   6.150
 8559POPC   C1A66795  39.969   1.988   6.450
 8559POPC   D2A66796  39.975   1.990   6.750
 8559POPC   C3A66797  40.006   1.988   7.050
 8559POPC   C4A66798  40.048   2.038   7.350
 8559POPC   C1B66799  39.791   2.149   6.450
 8559POPC   C2B66800  39.795   2.166   6.750
 8559POPC   C3B66801  39.757   2.144   7.050
 8559POPC   C4B66802  39.809   2.090   7.350
 8560POPC   NC366803  18.242  16.775   5.550
 8560POPC   PO466804  18.304  16.753   5.850
 8560POPC   GL166805  18.263  16.733   6.150
 8560POPC   GL266806  18.339  16.639   6.150
 8560POPC   C1A66807  18.255  16.714   6.450
 8560POPC   D2A66808  18.331  16.685   6.750
 8560POPC   C3A66809  18.331  16.779   7.050
 8560POPC   C4A66810  18.306  16.721   7.350
 8560POPC   C1B66811  18.398  16.554   6.450
 8560POPC   C2B66812  18.454  16.526   6.750
 8560POPC   C3B66813  18.443  16.492   7.050
 8560POPC   C4B66814  18.406  16.532   7.350
 8561POPC   NC366815   5.088  44.661   5.550
 8561POPC   PO466816   5.139  44.643   5.850
 8561POPC   GL166817   5.107  44.621   6.150
 8561POPC   GL266818   5.215  44.534   6.150
 8561POPC   C1A66819   5.047  44.682   6.450
 8561POPC   D2A66820   5.069  44.664   6.750
 8561POPC   C3A66821   5.058  44.681   7.050
 8561POPC   C4A66822   5.053  44.679   7.350
 8561POPC   C1B66823   5.292  44.531   6.450
 8561POPC   C2B66824   5.225  44.486   6.750
 8561POPC   C3B66825   5.292  44.469   7.050
 8561POPC   C4B66826   5.245  44.493   7.350
 8562POPC   NC366827   8.963  32.252   5.550
 8562POPC   PO466828   9.000  32.225   5.850
 8562POPC   GL166829   8.973  32.271   6.150
 8562POPC   GL266830   8.833  32.257   6.150
 8562POPC   C1A66831   9.011  32.245   6.450
 8562POPC   D2A66832   9.016  32.286   6.750
 8562POPC   C3A66833   8.978  32.237   7.050
 8562POPC   C4A66834   8.950  32.289   7.350
 8562POPC   C1B66835   8.780  32.350   6.450
 8562POPC   C2B66836   8.761  32.300   6.750
 8562POPC   C3B66837   8.771  32.366   7.050
 8562POPC   C4B66838   8.739  32.337   7.350
 8563POPC   NC366839  32.251  44.703   5.550
 8563POPC   PO466840  32.264  44.687   5.850
 8563POPC   GL166841  32.240  44.636   6.150
 8563POPC   GL266842  32.174  44.538   6.150
 8563POPC   C1A66843  32.218  44.675   6.450
 8563POPC   D2A66844  32.222  44.616   6.750
 8563POPC   C3A66845  32.238  44.642   7.050
 8563POPC   C4A66846  32.270  44.618   7.350
 8563POPC   C1B66847  32.113  44.423   6.450
 8563POPC   C2B66848  32.125  44.431   6.750
 8563POPC   C3B66849  32.070  44.488   7.050
 8563POPC   C4B66850  32.153  44.473   7.350
 8564POPC   NC366851  30.710   2.769   5.550
 8564POPC   PO466852  30.713   2.742   5.850
 8564POPC   GL166853  30.700   2.800   6.150
 8564POPC   GL266854  30.597   2.716   6.150
 8564POPC   C1A66855  30.693   2.728   6.450
 8564POPC   D2A66856  30.699   2.762   6.750
 8564POPC   C3A66857  30.732   2.804   7.050
 8564POPC   C4A66858  30.734   2.816   7.350
 8564POPC   C1B66859  30.540   2.633   6.450
 8564POPC   C2B66860  30.489   2.549   6.750
 8564POPC   C3B66861  30.519   2.591   7.050
 8564POPC   C4B66862  30.538   2.639   7.350
 8565POPC   NC366863   0.451  19.882   5.550
 8565POPC   PO466864   0.428  19.786   5.850
 8565POPC   GL166865   0.397  19.877   6.150
 8565POPC   GL266866   0.412  19.742   6.150
 8565POPC   C1A66867   0.455  19.798   6.450
 8565POPC   D2A66868   0.433  19.862   6.750
 8565POPC   C3A66869   0.466  19.826   7.050
 8565POPC   C4A66870   0.412  19.881   7.350
 8565POPC   C1B66871   0.405  19.539   6.450
 8565POPC   C2B66872   0.445  19.552   6.750
 8565POPC   C3B66873   0.406  19.626   7.050
 8565POPC   C4B66874   0.449  19.596   7.350
 8566POPC   NC366875  11.292  29.125   5.550
 8566POPC   PO466876  11.329  29.106   5.850
 8566POPC   GL166877  11.270  29.112   6.150
 8566POPC   GL266878  11.369  29.266   6.150
 8566POPC   C1A66879  11.314  29.160   6.450
 8566POPC   D2A66880  11.334  29.105   6.750
 8566POPC   C3A66881  11.328  29.098   7.050
 8566POPC   C4A66882  11.285  29.123   7.350
 8566POPC   C1B66883  11.434  29.328   6.450
 8566POPC   C2B66884  11.489  29.347   6.750
 8566POPC   C3B66885  11.480  29.397   7.050
 8566POPC   C4B66886  11.478  29.398   7.350
 8567POPC   NC366887  11.272   5.136   5.550
 8567POPC   PO466888  11.304   5.112   5.850
 8567POPC   GL166889  11.258   5.088   6.150
 8567POPC   GL266890  11.327   4.963   6.150
 8567POPC   C1A66891  11.325   5.120   6.450
 8567POPC   D2A66892  11.332   5.089   6.750
 8567POPC   C3A66893  11.263   5.056   7.050
 8567POPC   C4A66894  11.303   5.137   7.350
 8567POPC   C1B66895  11.403   4.934   6.450
 8567POPC   C2B66896  11.402   4.935   6.750
 8567POPC   C3B66897  11.404   4.846   7.050
 8567POPC   C4B66898  11.456   4.872   7.350
 8568POPC   NC366899  19.857  40.015   5.550
 8568POPC   PO466900  19.853  40.029   5.850
 8568POPC   GL166901  19.880  40.025   6.150
 8568POPC   GL266902  19.724  39.926   6.150
 8568POPC   C1A66903  19.836  39.974   6.450
 8568POPC   D2A66904  19.833  39.981   6.750
 8568POPC   C3A66905  19.810  40.040   7.050
 8568POPC   C4A66906  19.883  40.049   7.350
 8568POPC   C1B66907  19.587  39.873   6.450
 8568POPC   C2B66908  19.613  39.833   6.750
 8568POPC   C3B66909  19.571  39.914   7.050
 8568POPC   C4B66910  19.634  39.855   7.350
 8569POPC   NC366911  33.796  40.040   5.550
 8569POPC   PO466912  33.814  39.966   5.850
 8569POPC   GL166913  33.790  39.989   6.150
 8569POPC   GL266914  33.904  40.102   6.150
 8569POPC   C1A66915  33.758  39.961   6.450
 8569POPC   D2A66916  33.760  40.013   6.750
 8569POPC   C3A66917  33.809  40.045   7.050
 8569POPC   C4A66918  33.818  40.021   7.350
 8569POPC   C1B66919  33.947  40.240   6.450
 8569POPC   C2B66920  33.977  40.196   6.750
 8569POPC   C3B66921  33.922  40.243   7.050
 8569POPC   C4B66922  34.006  40.245   7.350
 8570POPC   NC366923  21.384   1.207   5.550
 8570POPC   PO466924  21.426   1.174   5.850
 8570POPC   GL166925  21.357   1.200   6.150
 8570POPC   GL266926  21.313   1.133   6.150
 8570POPC   C1A66927  21.429   1.182   6.450
 8570POPC   D2A66928  21.340   1.226   6.750
 8570POPC   C3A66929  21.367   1.167   7.050
 8570POPC   C4A66930  21.417   1.249   7.350
 8570POPC   C1B66931  21.280   0.988   6.450
 8570POPC   C2B66932  21.240   1.045   6.750
 8570POPC   C3B66933  21.253   0.999   7.050
 8570POPC   C4B66934  21.253   0.967   7.350
 8571POPC   NC366935  29.104   9.751   5.550
 8571POPC   PO466936  29.163   9.794   5.850
 8571POPC   GL166937  29.128   9.789   6.150
 8571POPC   GL266938  29.301   9.761   6.150
 8571POPC   C1A66939  29.112   9.742   6.450
 8571POPC   D2A66940  29.120   9.716   6.750
 8571POPC   C3A66941  29.158   9.710   7.050
 8571POPC   C4A66942  29.168   9.791   7.350
 8571POPC   C1B66943  29.364   9.692   6.450
 8571POPC   C2B66944  29.362   9.781   6.750
 8571POPC   C3B66945  29.382   9.767   7.050
 8571POPC   C4B66946  29.372   9.701   7.350
 8572POPC   NC366947   9.708  35.334   5.550
 8572POPC   PO466948   9.725  35.303   5.850
 8572POPC   GL166949   9.765  35.303   6.150
 8572POPC   GL266950   9.848  35.446   6.150
 8572POPC   C1A66951   9.770  35.378   6.450
 8572POPC   D2A66952   9.729  35.359   6.750
 8572POPC   C3A66953   9.732  35.342   7.050
 8572POPC   C4A66954   9.753  35.401   7.350
 8572POPC   C1B66955  10.003  35.517   6.450
 8572POPC   C2B66956   9.996  35.528   6.750
 8572POPC   C3B66957   9.905  35.491   7.050
 8572POPC   C4B66958   9.928  35.458   7.350
 8573POPC   NC366959  14.393  22.142   5.550
 8573POPC   PO466960  14.358  22.210   5.850
 8573POPC   GL166961  14.353  22.132   6.150
 8573POPC   GL266962  14.361  22.041   6.150
 8573POPC   C1A66963  14.451  22.202   6.450
 8573POPC   D2A66964  14.405  22.178   6.750
 8573POPC   C3A66965  14.413  22.151   7.050
 8573POPC   C4A66966  14.411  22.197   7.350
 8573POPC   C1B66967  14.281  21.932   6.450
 8573POPC   C2B66968  14.296  21.899   6.750
 8573POPC   C3B66969  14.336  21.912   7.050
 8573POPC   C4B66970  14.273  21.919   7.350
 8574POPC   NC366971  10.557   2.019   5.550
 8574POPC   PO466972  10.568   1.947   5.850
 8574POPC   GL166973  10.501   2.003   6.150
 8574POPC   GL266974  10.612   1.895   6.150
 8574POPC   C1A66975  10.475   1.973   6.450
 8574POPC   D2A66976  10.491   1.990   6.750
 8574POPC   C3A66977  10.537   1.978   7.050
 8574POPC   C4A66978  10.558   1.953   7.350
 8574POPC   C1B66979  10.656   1.793   6.450
 8574POPC   C2B66980  10.593   1.779   6.750
 8574POPC   C3B66981  10.616   1.779   7.050
 8574POPC   C4B66982  10.590   1.788   7.350
 8575POPC   NC366983  26.024  27.560   5.550
 8575POPC   PO466984  26.008  27.640   5.850
 8575POPC   GL166985  26.001  27.618   6.150
 8575POPC   GL266986  26.166  27.615   6.150
 8575POPC   C1A66987  26.052  27.599   6.450
 8575POPC   D2A66988  26.068  27.594   6.750
 8575POPC   C3A66989  26.011  27.587   7.050
 8575POPC   C4A66990  26.072  27.590   7.350
 8575POPC   C1B66991  26.246  27.704   6.450
 8575POPC   C2B66992  26.280  27.776   6.750
 8575POPC   C3B66993  26.288  27.741   7.050
 8575POPC   C4B66994  26.232  27.742   7.350
 8576POPC   NC366995  21.360   3.569   5.550
 8576POPC   PO466996  21.410   3.570   5.850
 8576POPC   GL166997  21.381   3.526   6.150
 8576POPC   GL266998  21.546   3.640   6.150
 8576POPC   C1A66999  21.432   3.576   6.450
 8576POPC   D2A67000  21.416   3.542   6.750
 8576POPC   C3A67001  21.375   3.546   7.050
 8576POPC   C4A67002  21.374   3.591   7.350
 8576POPC   C1B67003  21.609   3.643   6.450
 8576POPC   C2B67004  21.639   3.596   6.750
 8576POPC   C3B67005  21.584   3.682   7.050
 8576POPC   C4B67006  21.661   3.687   7.350
 8577POPC   NC367007  33.022  34.613   5.550
 8577POPC   PO467008  33.023  34.623   5.850
 8577POPC   GL167009  33.023  34.535   6.150
 8577POPC   GL267010  33.007  34.750   6.150
 8577POPC   C1A67011  33.058  34.532   6.450
 8577POPC   D2A67012  32.978  34.575   6.750
 8577POPC   C3A67013  33.013  34.610   7.050
 8577POPC   C4A67014  33.045  34.556   7.350
 8577POPC   C1B67015  32.998  34.821   6.450
 8577POPC   C2B67016  33.047  34.819   6.750
 8577POPC   C3B67017  33.068  34.826   7.050
 8577POPC   C4B67018  33.070  34.809   7.350
 8578POPC   NC367019  25.234  30.699   5.550
 8578POPC   PO467020  25.302  30.697   5.850
 8578POPC   GL167021  25.267  30.725   6.150
 8578POPC   GL267022  25.415  30.747   6.150
 8578POPC   C1A67023  25.294  30.725   6.450
 8578POPC   D2A67024  25.290  30.709   6.750
 8578POPC   C3A67025  25.315  30.670   7.050
 8578POPC   C4A67026  25.256  30.658   7.350
 8578POPC   C1B67027  25.429  30.812   6.450
 8578POPC   C2B67028  25.463  30.851   6.750
 8578POPC   C3B67029  25.519  30.833   7.050
 8578POPC   C4B67030  25.475  30.871   7.350
 8579POPC   NC367031  36.086  43.102   5.550
 8579POPC   PO467032  36.143  43.160   5.850
 8579POPC   GL167033  36.098  43.132   6.150
 8579POPC   GL267034  36.208  43.230   6.150
 8579POPC   C1A67035  36.141  43.121   6.450
 8579POPC   D2A67036  36.122  43.141   6.750
 8579POPC   C3A67037  36.104  43.133   7.050
 8579POPC   C4A67038  36.164  43.070   7.350
 8579POPC   C1B67039  36.339  43.264   6.450
 8579POPC   C2B67040  36.349  43.267   6.750
 8579POPC   C3B67041  36.362  43.294   7.050
 8579POPC   C4B67042  36.274  43.295   7.350
 8580POPC   NC367043  29.879  43.854   5.550
 8580POPC   PO467044  29.956  43.864   5.850
 8580POPC   GL167045  29.916  43.924   6.150
 8580POPC   GL267046  30.081  43.922   6.150
 8580POPC   C1A67047  29.912  43.859   6.450
 8580POPC   D2A67048  29.887  43.873   6.750
 8580POPC   C3A67049  29.919  43.884   7.050
 8580POPC   C4A67050  29.919  43.894   7.350
 8580POPC   C1B67051  30.167  43.974   6.450
 8580POPC   C2B67052  30.157  43.949   6.750
 8580POPC   C3B67053  30.153  43.980   7.050
 8580POPC   C4B67054  30.175  44.007   7.350
 8581POPC   NC367055  33.804   2.776   5.550
 8581POPC   PO467056  33.813   2.779   5.850
 8581POPC   GL167057  33.807   2.769   6.150
 8581POPC   GL267058  33.830   2.858   6.150
 8581POPC   C1A67059  33.840   2.778   6.450
 8581POPC   D2A67060  33.802   2.741   6.750
 8581POPC   C3A67061  33.793   2.814   7.050
 8581POPC   C4A67062  33.841   2.773   7.350
 8581POPC   C1B67063  33.944   2.992   6.450
 8581POPC   C2B67064  33.953   2.950   6.750
 8581POPC   C3B67065  33.951   3.000   7.050
 8581POPC   C4B67066  33.990   2.990   7.350
 8582POPC   NC367067  32.216  27.569   5.550
 8582POPC   PO467068  32.264  27.641   5.850
 8582POPC   GL167069  32.281  27.642   6.150
 8582POPC   GL267070  32.314  27.422   6.150
 8582POPC   C1A67071  32.253  27.609   6.450
 8582POPC   D2A67072  32.293  27.562   6.750
 8582POPC   C3A67073  32.273  27.580   7.050
 8582POPC   C4A67074  32.224  27.641   7.350
 8582POPC   C1B67075  32.292  27.381   6.450
 8582POPC   C2B67076  32.297  27.332   6.750
 8582POPC   C3B67077  32.330  27.375   7.050
 8582POPC   C4B67078  32.251  27.376   7.350
 8583POPC   NC367079   3.582  33.064   5.550
 8583POPC   PO467080   3.542  33.024   5.850
 8583POPC   GL167081   3.574  33.006   6.150
 8583POPC   GL267082   3.547  32.909   6.150
 8583POPC   C1A67083   3.528  32.995   6.450
 8583POPC   D2A67084   3.525  33.004   6.750
 8583POPC   C3A67085   3.505  33.029   7.050
 8583POPC   C4A67086   3.506  32.992   7.350
 8583POPC   C1B67087   3.579  32.815   6.450
 8583POPC   C2B67088   3.628  32.809   6.750
 8583POPC   C3B67089   3.565  32.742   7.050
 8583POPC   C4B67090   3.543  32.794   7.350
 8584POPC   NC367091  33.843  28.393   5.550
 8584POPC   PO467092  33.818  28.350   5.850
 8584POPC   GL167093  33.802  28.418   6.150
 8584POPC   GL267094  33.735  28.536   6.150
 8584POPC   C1A67095  33.829  28.335   6.450
 8584POPC   D2A67096  33.833  28.324   6.750
 8584POPC   C3A67097  33.804  28.407   7.050
 8584POPC   C4A67098  33.784  28.330   7.350
 8584POPC   C1B67099  33.759  28.595   6.450
 8584POPC   C2B67100  33.767  28.593   6.750
 8584POPC   C3B67101  33.765  28.591   7.050
 8584POPC   C4B67102  33.729  28.618   7.350
 8585POPC   NC367103  13.603  34.593   5.550
 8585POPC   PO467104  13.647  34.554   5.850
 8585POPC   GL167105  13.668  34.599   6.150
 8585POPC   GL267106  13.691  34.657   6.150
 8585POPC   C1A67107  13.626  34.623   6.450
 8585POPC   D2A67108  13.635  34.624   6.750
 8585POPC   C3A67109  13.624  34.593   7.050
 8585POPC   C4A67110  13.626  34.576   7.350
 8585POPC   C1B67111  13.801  34.713   6.450
 8585POPC   C2B67112  13.836  34.715   6.750
 8585POPC   C3B67113  13.766  34.701   7.050
 8585POPC   C4B67114  13.814  34.759   7.350
 8586POPC   NC367115   7.467  40.783   5.550
 8586POPC   PO467116   7.393  40.733   5.850
 8586POPC   GL167117   7.419  40.751   6.150
 8586POPC   GL267118   7.399  40.644   6.150
 8586POPC   C1A67119   7.450  40.742   6.450
 8586POPC   D2A67120   7.371  40.824   6.750
 8586POPC   C3A67121   7.408  40.829   7.050
 8586POPC   C4A67122   7.379  40.740   7.350
 8586POPC   C1B67123   7.310  40.570   6.450
 8586POPC   C2B67124   7.391  40.498   6.750
 8586POPC   C3B67125   7.340  40.553   7.050
 8586POPC   C4B67126   7.380  40.506   7.350
 8587POPC   NC367127   0.486   9.709   5.550
 8587POPC   PO467128   0.441   9.739   5.850
 8587POPC   GL167129   0.416   9.745   6.150
 8587POPC   GL267130   0.268   9.732   6.150
 8587POPC   C1A67131   0.469   9.744   6.450
 8587POPC   D2A67132   0.465   9.751   6.750
 8587POPC   C3A67133   0.463   9.719   7.050
 8587POPC   C4A67134   0.462   9.719   7.350
 8587POPC   C1B67135   0.220   9.796   6.450
 8587POPC   C2B67136   0.238   9.774   6.750
 8587POPC   C3B67137   0.152   9.829   7.050
 8587POPC   C4B67138   0.242   9.766   7.350
 8588POPC   NC367139  39.196  15.150   5.550
 8588POPC   PO467140  39.237  15.166   5.850
 8588POPC   GL167141  39.198  15.131   6.150
 8588POPC   GL267142  39.124  15.091   6.150
 8588POPC   C1A67143  39.217  15.172   6.450
 8588POPC   D2A67144  39.248  15.173   6.750
 8588POPC   C3A67145  39.253  15.180   7.050
 8588POPC   C4A67146  39.197  15.223   7.350
 8588POPC   C1B67147  39.111  15.007   6.450
 8588POPC   C2B67148  39.049  15.042   6.750
 8588POPC   C3B67149  39.109  14.999   7.050
 8588POPC   C4B67150  39.045  15.009   7.350
 8589POPC   NC367151  23.718  14.365   5.550
 8589POPC   PO467152  23.701  14.448   5.850
 8589POPC   GL167153  23.694  14.417   6.150
 8589POPC   GL267154  23.710  14.311   6.150
 8589POPC   C1A67155  23.704  14.394   6.450
 8589POPC   D2A67156  23.673  14.368   6.750
 8589POPC   C3A67157  23.713  14.363   7.050
 8589POPC   C4A67158  23.717  14.450   7.350
 8589POPC   C1B67159  23.791  14.134   6.450
 8589POPC   C2B67160  23.739  14.165   6.750
 8589POPC   C3B67161  23.819  14.170   7.050
 8589POPC   C4B67162  23.747  14.207   7.350
 8590POPC   NC367163  42.289  15.971   5.550
 8590POPC   PO467164  42.297  15.966   5.850
 8590POPC   GL167165  42.332  15.963   6.150
 8590POPC   GL267166  42.380  15.806   6.150
 8590POPC   C1A67167  42.322  15.927   6.450
 8590POPC   D2A67168  42.289  15.948   6.750
 8590POPC   C3A67169  42.289  15.991   7.050
 8590POPC   C4A67170  42.369  15.929   7.350
 8590POPC   C1B67171  42.302  15.689   6.450
 8590POPC   C2B67172  42.377  15.717   6.750
 8590POPC   C3B67173  42.309  15.752   7.050
 8590POPC   C4B67174  42.332  15.731   7.350
 8591POPC   NC367175  18.326  16.004   5.550
 8591POPC   PO467176  18.309  15.962   5.850
 8591POPC   GL167177  18.240  15.962   6.150
 8591POPC   GL267178  18.298  15.860   6.150
 8591POPC   C1A67179  18.269  15.905   6.450
 8591POPC   D2A67180  18.315  15.984   6.750
 8591POPC   C3A67181  18.235  15.963   7.050
 8591POPC   C4A67182  18.253  15.924   7.350
 8591POPC   C1B67183  18.270  15.681   6.450
 8591POPC   C2B67184  18.297  15.745   6.750
 8591POPC   C3B67185  18.303  15.723   7.050
 8591POPC   C4B67186  18.302  15.741   7.350
 8592POPC   NC367187   5.102   2.752   5.550
 8592POPC   PO467188   5.103   2.774   5.850
 8592POPC   GL167189   5.114   2.810   6.150
 8592POPC   GL267190   5.158   2.639   6.150
 8592POPC   C1A67191   5.068   2.757   6.450
 8592POPC   D2A67192   5.046   2.793   6.750
 8592POPC   C3A67193   5.112   2.719   7.050
 8592POPC   C4A67194   5.096   2.809   7.350
 8592POPC   C1B67195   5.263   2.625   6.450
 8592POPC   C2B67196   5.277   2.563   6.750
 8592POPC   C3B67197   5.266   2.573   7.050
 8592POPC   C4B67198   5.238   2.609   7.350
 8593POPC   NC367199  22.897  36.149   5.550
 8593POPC   PO467200  22.981  36.092   5.850
 8593POPC   GL167201  22.950  36.080   6.150
 8593POPC   GL267202  22.990  36.250   6.150
 8593POPC   C1A67203  22.976  36.107   6.450
 8593POPC   D2A67204  22.934  36.120   6.750
 8593POPC   C3A67205  22.959  36.089   7.050
 8593POPC   C4A67206  22.973  36.167   7.350
 8593POPC   C1B67207  23.060  36.333   6.450
 8593POPC   C2B67208  23.046  36.359   6.750
 8593POPC   C3B67209  23.074  36.403   7.050
 8593POPC   C4B67210  23.018  36.348   7.350
 8594POPC   NC367211  42.368   8.206   5.550
 8594POPC   PO467212  42.359   8.230   5.850
 8594POPC   GL167213  42.304   8.154   6.150
 8594POPC   GL267214  42.472   8.091   6.150
 8594POPC   C1A67215  42.341   8.171   6.450
 8594POPC   D2A67216  42.346   8.150   6.750
 8594POPC   C3A67217  42.372   8.188   7.050
 8594POPC   C4A67218  42.342   8.204   7.350
 8594POPC   C1B67219  42.559   8.035   6.450
 8594POPC   C2B67220  42.484   8.086   6.750
 8594POPC   C3B67221  42.497   8.012   7.050
 8594POPC   C4B67222  42.558   8.003   7.350
 8595POPC   NC367223  18.328   7.431   5.550
 8595POPC   PO467224  18.275   7.399   5.850
 8595POPC   GL167225  18.327   7.416   6.150
 8595POPC   GL267226  18.245   7.503   6.150
 8595POPC   C1A67227  18.323   7.422   6.450
 8595POPC   D2A67228  18.275   7.460   6.750
 8595POPC   C3A67229  18.277   7.407   7.050
 8595POPC   C4A67230  18.322   7.411   7.350
 8595POPC   C1B67231  18.204   7.659   6.450
 8595POPC   C2B67232  18.263   7.670   6.750
 8595POPC   C3B67233  18.243   7.676   7.050
 8595POPC   C4B67234  18.225   7.649   7.350
 8596POPC   NC367235  15.909  27.561   5.550
 8596POPC   PO467236  15.995  27.563   5.850
 8596POPC   GL167237  15.930  27.581   6.150
 8596POPC   GL267238  16.021  27.524   6.150
 8596POPC   C1A67239  15.968  27.640   6.450
 8596POPC   D2A67240  15.946  27.626   6.750
 8596POPC   C3A67241  15.913  27.598   7.050
 8596POPC   C4A67242  15.942  27.590   7.350
 8596POPC   C1B67243  16.122  27.447   6.450
 8596POPC   C2B67244  16.159  27.401   6.750
 8596POPC   C3B67245  16.171  27.434   7.050
 8596POPC   C4B67246  16.107  27.364   7.350
 8597POPC   NC367247  25.304   6.630   5.550
 8597POPC   PO467248  25.312   6.598   5.850
 8597POPC   GL167249  25.260   6.683   6.150
 8597POPC   GL267250  25.172   6.716   6.150
 8597POPC   C1A67251  25.262   6.639   6.450
 8597POPC   D2A67252  25.229   6.684   6.750
 8597POPC   C3A67253  25.267   6.659   7.050
 8597POPC   C4A67254  25.257   6.661   7.350
 8597POPC   C1B67255  25.179   6.830   6.450
 8597POPC   C2B67256  25.215   6.848   6.750
 8597POPC   C3B67257  25.159   6.863   7.050
 8597POPC   C4B67258  25.143   6.831   7.350
 8598POPC   NC367259  36.128   2.003   5.550
 8598POPC   PO467260  36.154   2.038   5.850
 8598POPC   GL167261  36.089   1.972   6.150
 8598POPC   GL267262  36.038   1.996   6.150
 8598POPC   C1A67263  36.115   2.016   6.450
 8598POPC   D2A67264  36.082   1.940   6.750
 8598POPC   C3A67265  36.157   2.016   7.050
 8598POPC   C4A67266  36.112   1.954   7.350
 8598POPC   C1B67267  35.871   1.992   6.450
 8598POPC   C2B67268  35.862   1.966   6.750
 8598POPC   C3B67269  35.868   1.987   7.050
 8598POPC   C4B67270  35.842   1.977   7.350
 8599POPC   NC367271  33.063  40.826   5.550
 8599POPC   PO467272  33.071  40.788   5.850
 8599POPC   GL167273  33.027  40.766   6.150
 8599POPC   GL267274  32.925  40.736   6.150
 8599POPC   C1A67275  33.057  40.805   6.450
 8599POPC   D2A67276  33.028  40.749   6.750
 8599POPC   C3A67277  32.978  40.830   7.050
 8599POPC   C4A67278  33.068  40.817   7.350
 8599POPC   C1B67279  32.735  40.738   6.450
 8599POPC   C2B67280  32.797  40.737   6.750
 8599POPC   C3B67281  32.774  40.776   7.050
 8599POPC   C4B67282  32.744  40.744   7.350
 8600POPC   NC367283  41.584  12.048   5.550
 8600POPC   PO467284  41.552  12.071   5.850
 8600POPC   GL167285  41.562  12.039   6.150
 8600POPC   GL267286  41.479  12.077   6.150
 8600POPC   C1A67287  41.539  12.056   6.450
 8600POPC   D2A67288  41.539  12.060   6.750
 8600POPC   C3A67289  41.575  12.040   7.050
 8600POPC   C4A67290  41.578  12.109   7.350
 8600POPC   C1B67291  41.275  12.083   6.450
 8600POPC   C2B67292  41.322  12.083   6.750
 8600POPC   C3B67293  41.346  12.083   7.050
 8600POPC   C4B67294  41.269  12.129   7.350
 8601POPC   NC367295  39.259  43.865   5.550
 8601POPC   PO467296  39.189  43.844   5.850
 8601POPC   GL167297  39.268  43.932   6.150
 8601POPC   GL267298  39.243  44.022   6.150
 8601POPC   C1A67299  39.221  43.935   6.450
 8601POPC   D2A67300  39.262  43.910   6.750
 8601POPC   C3A67301  39.245  43.865   7.050
 8601POPC   C4A67302  39.258  43.909   7.350
 8601POPC   C1B67303  39.169  44.159   6.450
 8601POPC   C2B67304  39.204  44.137   6.750
 8601POPC   C3B67305  39.149  44.135   7.050
 8601POPC   C4B67306  39.152  44.132   7.350
 8602POPC   NC367307  27.575  17.483   5.550
 8602POPC   PO467308  27.632  17.496   5.850
 8602POPC   GL167309  27.643  17.497   6.150
 8602POPC   GL267310  27.647  17.413   6.150
 8602POPC   C1A67311  27.552  17.515   6.450
 8602POPC   D2A67312  27.547  17.514   6.750
 8602POPC   C3A67313  27.583  17.468   7.050
 8602POPC   C4A67314  27.594  17.519   7.350
 8602POPC   C1B67315  27.769  17.376   6.450
 8602POPC   C2B67316  27.746  17.291   6.750
 8602POPC   C3B67317  27.744  17.335   7.050
 8602POPC   C4B67318  27.742  17.367   7.350
 8603POPC   NC367319  26.790  26.011   5.550
 8603POPC   PO467320  26.841  26.046   5.850
 8603POPC   GL167321  26.774  26.021   6.150
 8603POPC   GL267322  26.884  26.120   6.150
 8603POPC   C1A67323  26.802  26.012   6.450
 8603POPC   D2A67324  26.834  26.088   6.750
 8603POPC   C3A67325  26.798  26.080   7.050
 8603POPC   C4A67326  26.839  26.029   7.350
 8603POPC   C1B67327  26.906  26.286   6.450
 8603POPC   C2B67328  26.904  26.289   6.750
 8603POPC   C3B67329  26.947  26.276   7.050
 8603POPC   C4B67330  26.907  26.303   7.350
 8604POPC   NC367331  37.714  31.511   5.550
 8604POPC   PO467332  37.706  31.514   5.850
 8604POPC   GL167333  37.658  31.489   6.150
 8604POPC   GL267334  37.661  31.334   6.150
 8604POPC   C1A67335  37.708  31.497   6.450
 8604POPC   D2A67336  37.638  31.514   6.750
 8604POPC   C3A67337  37.711  31.449   7.050
 8604POPC   C4A67338  37.697  31.508   7.350
 8604POPC   C1B67339  37.689  31.183   6.450
 8604POPC   C2B67340  37.719  31.259   6.750
 8604POPC   C3B67341  37.731  31.203   7.050
 8604POPC   C4B67342  37.671  31.211   7.350
 8605POPC   NC367343   1.226  23.675   5.550
 8605POPC   PO467344   1.254  23.699   5.850
 8605POPC   GL167345   1.193  23.700   6.150
 8605POPC   GL267346   1.086  23.681   6.150
 8605POPC   C1A67347   1.180  23.717   6.450
 8605POPC   D2A67348   1.189  23.721   6.750
 8605POPC   C3A67349   1.250  23.754   7.050
 8605POPC   C4A67350   1.210  23.724   7.350
 8605POPC   C1B67351   0.968  23.694   6.450
 8605POPC   C2B67352   1.007  23.710   6.750
 8605POPC   C3B67353   0.964  23.738   7.050
 8605POPC   C4B67354   0.965  23.745   7.350
 8606POPC   NC367355   9.002  44.707   5.550
 8606POPC   PO467356   8.931  44.617   5.850
 8606POPC   GL167357   8.954  44.709   6.150
 8606POPC   GL267358   8.884  44.715   6.150
 8606POPC   C1A67359   8.972  44.666   6.450
 8606POPC   D2A67360   8.931  44.681   6.750
 8606POPC   C3A67361   9.008  44.681   7.050
 8606POPC   C4A67362   8.999  44.703   7.350
 8606POPC   C1B67363   8.744  44.792   6.450
 8606POPC   C2B67364   8.789  44.822   6.750
 8606POPC   C3B67365   8.805  44.820   7.050
 8606POPC   C4B67366   8.790  44.756   7.350
 8607POPC   NC367367   5.841  31.439   5.550
 8607POPC   PO467368   5.898  31.429   5.850
 8607POPC   GL167369   5.858  31.509   6.150
 8607POPC   GL267370   5.851  31.377   6.150
 8607POPC   C1A67371   5.827  31.518   6.450
 8607POPC   D2A67372   5.910  31.447   6.750
 8607POPC   C3A67373   5.880  31.441   7.050
 8607POPC   C4A67374   5.865  31.489   7.350
 8607POPC   C1B67375   5.803  31.190   6.450
 8607POPC   C2B67376   5.819  31.203   6.750
 8607POPC   C3B67377   5.826  31.232   7.050
 8607POPC   C4B67378   5.786  31.219   7.350
 8608POPC   NC367379  33.827  33.072   5.550
 8608POPC   PO467380  33.787  33.035   5.850
 8608POPC   GL167381  33.778  33.063   6.150
 8608POPC   GL267382  33.768  33.117   6.150
 8608POPC   C1A67383  33.784  33.012   6.450
 8608POPC   D2A67384  33.816  33.020   6.750
 8608POPC   C3A67385  33.756  33.011   7.050
 8608POPC   C4A67386  33.791  32.985   7.350
 8608POPC   C1B67387  33.762  33.290   6.450
 8608POPC   C2B67388  33.721  33.228   6.750
 8608POPC   C3B67389  33.750  33.248   7.050
 8608POPC   C4B67390  33.776  33.285   7.350
 8609POPC   NC367391  40.823  27.594   5.550
 8609POPC   PO467392  40.758  27.552   5.850
 8609POPC   GL167393  40.805  27.632   6.150
 8609POPC   GL267394  40.750  27.428   6.150
 8609POPC   C1A67395  40.800  27.584   6.450
 8609POPC   D2A67396  40.755  27.587   6.750
 8609POPC   C3A67397  40.764  27.606   7.050
 8609POPC   C4A67398  40.808  27.615   7.350
 8609POPC   C1B67399  40.720  27.351   6.450
 8609POPC   C2B67400  40.718  27.305   6.750
 8609POPC   C3B67401  40.758  27.392   7.050
 8609POPC   C4B67402  40.761  27.363   7.350
 8610POPC   NC367403  31.514  42.381   5.550
 8610POPC   PO467404  31.430  42.370   5.850
 8610POPC   GL167405  31.425  42.332   6.150
 8610POPC   GL267406  31.394  42.326   6.150
 8610POPC   C1A67407  31.502  42.384   6.450
 8610POPC   D2A67408  31.423  42.334   6.750
 8610POPC   C3A67409  31.506  42.299   7.050
 8610POPC   C4A67410  31.515  42.311   7.350
 8610POPC   C1B67411  31.176  42.286   6.450
 8610POPC   C2B67412  31.174  42.286   6.750
 8610POPC   C3B67413  31.224  42.318   7.050
 8610POPC   C4B67414  31.178  42.287   7.350
 8611POPC   NC367415   9.730  43.135   5.550
 8611POPC   PO467416   9.776  43.109   5.850
 8611POPC   GL167417   9.763  43.157   6.150
 8611POPC   GL267418   9.834  43.080   6.150
 8611POPC   C1A67419   9.742  43.122   6.450
 8611POPC   D2A67420   9.716  43.067   6.750
 8611POPC   C3A67421   9.709  43.131   7.050
 8611POPC   C4A67422   9.707  43.141   7.350
 8611POPC   C1B67423  10.010  43.142   6.450
 8611POPC   C2B67424   9.960  43.150   6.750
 8611POPC   C3B67425  10.007  43.190   7.050
 8611POPC   C4B67426   9.988  43.182   7.350
 8612POPC   NC367427  13.624  19.031   5.550
 8612POPC   PO467428  13.640  19.056   5.850
 8612POPC   GL167429  13.589  19.059   6.150
 8612POPC   GL267430  13.506  19.141   6.150
 8612POPC   C1A67431  13.623  19.056   6.450
 8612POPC   D2A67432  13.632  19.063   6.750
 8612POPC   C3A67433  13.596  19.059   7.050
 8612POPC   C4A67434  13.615  19.091   7.350
 8612POPC   C1B67435  13.452  19.218   6.450
 8612POPC   C2B67436  13.414  19.198   6.750
 8612POPC   C3B67437  13.424  19.161   7.050
 8612POPC   C4B67438  13.407  19.189   7.350
 8613POPC   NC367439   8.958  16.746   5.550
 8613POPC   PO467440   8.931  16.749   5.850
 8613POPC   GL167441   8.971  16.757   6.150
 8613POPC   GL267442   8.952  16.652   6.150
 8613POPC   C1A67443   8.948  16.763   6.450
 8613POPC   D2A67444   8.926  16.759   6.750
 8613POPC   C3A67445   8.954  16.744   7.050
 8613POPC   C4A67446   8.960  16.701   7.350
 8613POPC   C1B67447   8.992  16.525   6.450
 8613POPC   C2B67448   8.986  16.508   6.750
 8613POPC   C3B67449   9.020  16.520   7.050
 8613POPC   C4B67450   8.958  16.511   7.350
 8614POPC   NC367451  43.919  15.991   5.550
 8614POPC   PO467452  43.926  15.946   5.850
 8614POPC   GL167453  43.885  15.972   6.150
 8614POPC   GL267454  43.730  15.855   6.150
 8614POPC   C1A67455  43.926  15.974   6.450
 8614POPC   D2A67456  43.871  15.970   6.750
 8614POPC   C3A67457  43.888  15.909   7.050
 8614POPC   C4A67458  43.927  15.958   7.350
 8614POPC   C1B67459  43.637  15.861   6.450
 8614POPC   C2B67460  43.684  15.833   6.750
 8614POPC   C3B67461  43.690  15.826   7.050
 8614POPC   C4B67462  43.625  15.869   7.350
 8615POPC   NC367463  37.713  22.958   5.550
 8615POPC   PO467464  37.662  22.912   5.850
 8615POPC   GL167465  37.707  22.910   6.150
 8615POPC   GL267466  37.690  23.035   6.150
 8615POPC   C1A67467  37.688  22.942   6.450
 8615POPC   D2A67468  37.636  22.914   6.750
 8615POPC   C3A67469  37.649  22.958   7.050
 8615POPC   C4A67470  37.711  22.985   7.350
 8615POPC   C1B67471  37.846  23.185   6.450
 8615POPC   C2B67472  37.839  23.182   6.750
 8615POPC   C3B67473  37.843  23.119   7.050
 8615POPC   C4B67474  37.753  23.115   7.350
 8616POPC   NC367475   8.180  19.013   5.550
 8616POPC   PO467476   8.169  19.094   5.850
 8616POPC   GL167477   8.193  19.038   6.150
 8616POPC   GL267478   8.254  19.213   6.150
 8616POPC   C1A67479   8.186  19.067   6.450
 8616POPC   D2A67480   8.156  19.076   6.750
 8616POPC   C3A67481   8.156  19.066   7.050
 8616POPC   C4A67482   8.194  19.078   7.350
 8616POPC   C1B67483   8.281  19.261   6.450
 8616POPC   C2B67484   8.260  19.314   6.750
 8616POPC   C3B67485   8.278  19.266   7.050
 8616POPC   C4B67486   8.283  19.286   7.350
 8617POPC   NC367487  41.594  18.283   5.550
 8617POPC   PO467488  41.585  18.311   5.850
 8617POPC   GL167489  41.578  18.330   6.150
 8617POPC   GL267490  41.481  18.179   6.150
 8617POPC   C1A67491  41.531  18.303   6.450
 8617POPC   D2A67492  41.512  18.331   6.750
 8617POPC   C3A67493  41.584  18.261   7.050
 8617POPC   C4A67494  41.537  18.246   7.350
 8617POPC   C1B67495  41.444  18.090   6.450
 8617POPC   C2B67496  41.439  18.091   6.750
 8617POPC   C3B67497  41.414  18.105   7.050
 8617POPC   C4B67498  41.384  18.067   7.350
 8618POPC   NC367499  43.849   8.995   5.550
 8618POPC   PO467500  43.904   8.971   5.850
 8618POPC   GL167501  43.907   8.946   6.150
 8618POPC   GL267502  43.838   9.043   6.150
 8618POPC   C1A67503  43.933   8.926   6.450
 8618POPC   D2A67504  43.867   8.950   6.750
 8618POPC   C3A67505  43.928   8.930   7.050
 8618POPC   C4A67506  43.906   8.937   7.350
 8618POPC   C1B67507  43.761   9.200   6.450
 8618POPC   C2B67508  43.720   9.231   6.750
 8618POPC   C3B67509  43.763   9.220   7.050
 8618POPC   C4B67510  43.740   9.210   7.350
 8619POPC   NC367511  13.620   6.633   5.550
 8619POPC   PO467512  13.654   6.612   5.850
 8619POPC   GL167513  13.635   6.607   6.150
 8619POPC   GL267514  13.618   6.484   6.150
 8619POPC   C1A67515  13.673   6.600   6.450
 8619POPC   D2A67516  13.676   6.635   6.750
 8619POPC   C3A67517  13.646   6.614   7.050
 8619POPC   C4A67518  13.665   6.652   7.350
 8619POPC   C1B67519  13.611   6.396   6.450
 8619POPC   C2B67520  13.693   6.415   6.750
 8619POPC   C3B67521  13.623   6.367   7.050
 8619POPC   C4B67522  13.666   6.429   7.350
 8620POPC   NC367523  36.857  29.929   5.550
 8620POPC   PO467524  36.891  29.931   5.850
 8620POPC   GL167525  36.941  29.889   6.150
 8620POPC   GL267526  36.918  30.056   6.150
 8620POPC   C1A67527  36.922  29.952   6.450
 8620POPC   D2A67528  36.940  29.890   6.750
 8620POPC   C3A67529  36.909  29.872   7.050
 8620POPC   C4A67530  36.943  29.941   7.350
 8620POPC   C1B67531  36.997  30.187   6.450
 8620POPC   C2B67532  37.031  30.119   6.750
 8620POPC   C3B67533  37.035  30.178   7.050
 8620POPC   C4B67534  37.004  30.200   7.350
 8621POPC   NC367535  22.975   5.088   5.550
 8621POPC   PO467536  22.980   5.068   5.850
 8621POPC   GL167537  22.977   5.084   6.150
 8621POPC   GL267538  22.859   5.112   6.150
 8621POPC   C1A67539  22.972   5.083   6.450
 8621POPC   D2A67540  22.973   5.072   6.750
 8621POPC   C3A67541  22.946   5.141   7.050
 8621POPC   C4A67542  22.947   5.078   7.350
 8621POPC   C1B67543  22.693   5.126   6.450
 8621POPC   C2B67544  22.691   5.055   6.750
 8621POPC   C3B67545  22.679   5.143   7.050
 8621POPC   C4B67546  22.657   5.077   7.350
 8622POPC   NC367547  19.036  12.862   5.550
 8622POPC   PO467548  19.089  12.862   5.850
 8622POPC   GL167549  19.062  12.861   6.150
 8622POPC   GL267550  19.139  12.947   6.150
 8622POPC   C1A67551  19.090  12.861   6.450
 8622POPC   D2A67552  19.069  12.883   6.750
 8622POPC   C3A67553  19.063  12.861   7.050
 8622POPC   C4A67554  19.084  12.886   7.350
 8622POPC   C1B67555  19.111  13.062   6.450
 8622POPC   C2B67556  19.177  13.065   6.750
 8622POPC   C3B67557  19.105  13.107   7.050
 8622POPC   C4B67558  19.142  13.094   7.350
 8623POPC   NC367559  22.154  36.882   5.550
 8623POPC   PO467560  22.180  36.877   5.850
 8623POPC   GL167561  22.161  36.915   6.150
 8623POPC   GL267562  22.107  37.024   6.150
 8623POPC   C1A67563  22.201  36.868   6.450
 8623POPC   D2A67564  22.183  36.866   6.750
 8623POPC   C3A67565  22.134  36.913   7.050
 8623POPC   C4A67566  22.139  36.895   7.350
 8623POPC   C1B67567  22.101  37.161   6.450
 8623POPC   C2B67568  22.107  37.110   6.750
 8623POPC   C3B67569  22.086  37.096   7.050
 8623POPC   C4B67570  22.091  37.142   7.350
 8624POPC   NC367571   8.204  36.123   5.550
 8624POPC   PO467572   8.171  36.117   5.850
 8624POPC   GL167573   8.244  36.166   6.150
 8624POPC   GL267574   8.249  36.011   6.150
 8624POPC   C1A67575   8.209  36.101   6.450
 8624POPC   D2A67576   8.214  36.093   6.750
 8624POPC   C3A67577   8.186  36.129   7.050
 8624POPC   C4A67578   8.240  36.170   7.350
 8624POPC   C1B67579   8.233  35.909   6.450
 8624POPC   C2B67580   8.274  35.911   6.750
 8624POPC   C3B67581   8.233  35.862   7.050
 8624POPC   C4B67582   8.223  35.884   7.350
 8625POPC   NC367583  12.882  33.026   5.550
 8625POPC   PO467584  12.813  33.017   5.850
 8625POPC   GL167585  12.876  33.054   6.150
 8625POPC   GL267586  12.835  33.143   6.150
 8625POPC   C1A67587  12.812  32.979   6.450
 8625POPC   D2A67588  12.820  33.007   6.750
 8625POPC   C3A67589  12.839  33.005   7.050
 8625POPC   C4A67590  12.878  33.014   7.350
 8625POPC   C1B67591  12.749  33.243   6.450
 8625POPC   C2B67592  12.822  33.265   6.750
 8625POPC   C3B67593  12.733  33.293   7.050
 8625POPC   C4B67594  12.818  33.232   7.350
 8626POPC   NC367595  36.135  11.257   5.550
 8626POPC   PO467596  36.164  11.253   5.850
 8626POPC   GL167597  36.120  11.272   6.150
 8626POPC   GL267598  36.253  11.391   6.150
 8626POPC   C1A67599  36.081  11.252   6.450
 8626POPC   D2A67600  36.167  11.316   6.750
 8626POPC   C3A67601  36.128  11.269   7.050
 8626POPC   C4A67602  36.114  11.315   7.350
 8626POPC   C1B67603  36.324  11.441   6.450
 8626POPC   C2B67604  36.325  11.462   6.750
 8626POPC   C3B67605  36.357  11.422   7.050
 8626POPC   C4B67606  36.287  11.490   7.350
 8627POPC   NC367607  39.970  16.697   5.550
 8627POPC   PO467608  40.002  16.698   5.850
 8627POPC   GL167609  40.053  16.718   6.150
 8627POPC   GL267610  40.077  16.833   6.150
 8627POPC   C1A67611  40.044  16.775   6.450
 8627POPC   D2A67612  40.047  16.779   6.750
 8627POPC   C3A67613  40.055  16.761   7.050
 8627POPC   C4A67614  39.994  16.710   7.350
 8627POPC   C1B67615  40.169  16.922   6.450
 8627POPC   C2B67616  40.207  16.917   6.750
 8627POPC   C3B67617  40.203  16.873   7.050
 8627POPC   C4B67618  40.170  16.934   7.350
 8628POPC   NC367619   0.482  22.194   5.550
 8628POPC   PO467620   0.416  22.147   5.850
 8628POPC   GL167621   0.406  22.194   6.150
 8628POPC   GL267622   0.388  22.245   6.150
 8628POPC   C1A67623   0.426  22.157   6.450
 8628POPC   D2A67624   0.444  22.147   6.750
 8628POPC   C3A67625   0.456  22.154   7.050
 8628POPC   C4A67626   0.395  22.122   7.350
 8628POPC   C1B67627   0.421  22.364   6.450
 8628POPC   C2B67628   0.437  22.371   6.750
 8628POPC   C3B67629   0.356  22.431   7.050
 8628POPC   C4B67630   0.357  22.376   7.350
 8629POPC   NC367631  43.851  19.880   5.550
 8629POPC   PO467632  43.931  19.810   5.850
 8629POPC   GL167633  43.855  19.859   6.150
 8629POPC   GL267634  43.879  19.925   6.150
 8629POPC   C1A67635  43.895  19.865   6.450
 8629POPC   D2A67636  43.839  19.877   6.750
 8629POPC   C3A67637  43.881  19.861   7.050
 8629POPC   C4A67638  43.929  19.834   7.350
 8629POPC   C1B67639  43.802  20.074   6.450
 8629POPC   C2B67640  43.871  20.043   6.750
 8629POPC   C3B67641  43.791  20.071   7.050
 8629POPC   C4B67642  43.841  20.113   7.350
 8630POPC   NC367643  23.749  43.061   5.550
 8630POPC   PO467644  23.754  43.067   5.850
 8630POPC   GL167645  23.686  43.102   6.150
 8630POPC   GL267646  23.761  43.208   6.150
 8630POPC   C1A67647  23.712  43.069   6.450
 8630POPC   D2A67648  23.697  43.125   6.750
 8630POPC   C3A67649  23.698  43.066   7.050
 8630POPC   C4A67650  23.734  43.139   7.350
 8630POPC   C1B67651  23.927  43.265   6.450
 8630POPC   C2B67652  23.866  43.286   6.750
 8630POPC   C3B67653  23.865  43.345   7.050
 8630POPC   C4B67654  23.885  43.285   7.350
 8631POPC   NC367655   6.628  39.963   5.550
 8631POPC   PO467656   6.660  40.014   5.850
 8631POPC   GL167657   6.658  39.979   6.150
 8631POPC   GL267658   6.770  40.034   6.150
 8631POPC   C1A67659   6.658  39.986   6.450
 8631POPC   D2A67660   6.666  40.041   6.750
 8631POPC   C3A67661   6.693  40.013   7.050
 8631POPC   C4A67662   6.623  39.974   7.350
 8631POPC   C1B67663   6.873  40.103   6.450
 8631POPC   C2B67664   6.873  40.157   6.750
 8631POPC   C3B67665   6.913  40.078   7.050
 8631POPC   C4B67666   6.857  40.154   7.350
 8632POPC   NC367667  43.081  42.367   5.550
 8632POPC   PO467668  43.151  42.379   5.850
 8632POPC   GL167669  43.096  42.318   6.150
 8632POPC   GL267670  43.042  42.453   6.150
 8632POPC   C1A67671  43.069  42.328   6.450
 8632POPC   D2A67672  43.090  42.313   6.750
 8632POPC   C3A67673  43.127  42.328   7.050
 8632POPC   C4A67674  43.073  42.382   7.350
 8632POPC   C1B67675  42.920  42.493   6.450
 8632POPC   C2B67676  42.964  42.452   6.750
 8632POPC   C3B67677  42.926  42.498   7.050
 8632POPC   C4B67678  42.919  42.485   7.350
 8633POPC   NC367679  29.939  25.220   5.550
 8633POPC   PO467680  29.891  25.308   5.850
 8633POPC   GL167681  29.966  25.216   6.150
 8633POPC   GL267682  29.838  25.419   6.150
 8633POPC   C1A67683  29.914  25.270   6.450
 8633POPC   D2A67684  29.965  25.229   6.750
 8633POPC   C3A67685  29.930  25.265   7.050
 8633POPC   C4A67686  29.891  25.219   7.350
 8633POPC   C1B67687  29.827  25.518   6.450
 8633POPC   C2B67688  29.833  25.491   6.750
 8633POPC   C3B67689  29.774  25.496   7.050
 8633POPC   C4B67690  29.787  25.468   7.350
 8634POPC   NC367691  11.265  22.152   5.550
 8634POPC   PO467692  11.283  22.170   5.850
 8634POPC   GL167693  11.283  22.192   6.150
 8634POPC   GL267694  11.440  22.121   6.150
 8634POPC   C1A67695  11.256  22.142   6.450
 8634POPC   D2A67696  11.309  22.139   6.750
 8634POPC   C3A67697  11.277  22.150   7.050
 8634POPC   C4A67698  11.252  22.193   7.350
 8634POPC   C1B67699  11.555  22.015   6.450
 8634POPC   C2B67700  11.563  22.078   6.750
 8634POPC   C3B67701  11.556  22.106   7.050
 8634POPC   C4B67702  11.508  22.033   7.350
 8635POPC   NC367703  15.208  40.820   5.550
 8635POPC   PO467704  15.225  40.804   5.850
 8635POPC   GL167705  15.150  40.759   6.150
 8635POPC   GL267706  15.176  40.649   6.150
 8635POPC   C1A67707  15.196  40.807   6.450
 8635POPC   D2A67708  15.195  40.811   6.750
 8635POPC   C3A67709  15.189  40.791   7.050
 8635POPC   C4A67710  15.220  40.756   7.350
 8635POPC   C1B67711  15.116  40.577   6.450
 8635POPC   C2B67712  15.122  40.519   6.750
 8635POPC   C3B67713  15.181  40.556   7.050
 8635POPC   C4B67714  15.152  40.557   7.350
 8636POPC   NC367715  22.969  26.857   5.550
 8636POPC   PO467716  22.892  26.867   5.850
 8636POPC   GL167717  22.966  26.773   6.150
 8636POPC   GL267718  22.782  26.782   6.150
 8636POPC   C1A67719  22.917  26.786   6.450
 8636POPC   D2A67720  22.898  26.848   6.750
 8636POPC   C3A67721  22.930  26.781   7.050
 8636POPC   C4A67722  22.966  26.801   7.350
 8636POPC   C1B67723  22.702  26.675   6.450
 8636POPC   C2B67724  22.689  26.689   6.750
 8636POPC   C3B67725  22.760  26.689   7.050
 8636POPC   C4B67726  22.699  26.730   7.350
 8637POPC   NC367727  24.505  17.471   5.550
 8637POPC   PO467728  24.513  17.465   5.850
 8637POPC   GL167729  24.481  17.531   6.150
 8637POPC   GL267730  24.593  17.456   6.150
 8637POPC   C1A67731  24.538  17.532   6.450
 8637POPC   D2A67732  24.507  17.490   6.750
 8637POPC   C3A67733  24.505  17.471   7.050
 8637POPC   C4A67734  24.507  17.482   7.350
 8637POPC   C1B67735  24.693  17.538   6.450
 8637POPC   C2B67736  24.777  17.494   6.750
 8637POPC   C3B67737  24.777  17.506   7.050
 8637POPC   C4B67738  24.743  17.458   7.350
 8638POPC   NC367739   2.811  33.768   5.550
 8638POPC   PO467740   2.725  33.842   5.850
 8638POPC   GL167741   2.802  33.787   6.150
 8638POPC   GL267742   2.888  33.811   6.150
 8638POPC   C1A67743   2.767  33.824   6.450
 8638POPC   D2A67744   2.775  33.756   6.750
 8638POPC   C3A67745   2.806  33.840   7.050
 8638POPC   C4A67746   2.738  33.761   7.350
 8638POPC   C1B67747   3.039  33.787   6.450
 8638POPC   C2B67748   3.010  33.785   6.750
 8638POPC   C3B67749   3.028  33.752   7.050
 8638POPC   C4B67750   3.058  33.789   7.350
 8639POPC   NC367751  41.557  26.030   5.550
 8639POPC   PO467752  41.565  26.006   5.850
 8639POPC   GL167753  41.607  26.053   6.150
 8639POPC   GL267754  41.630  26.079   6.150
 8639POPC   C1A67755  41.586  26.030   6.450
 8639POPC   D2A67756  41.553  26.070   6.750
 8639POPC   C3A67757  41.542  26.073   7.050
 8639POPC   C4A67758  41.542  25.995   7.350
 8639POPC   C1B67759  41.813  26.181   6.450
 8639POPC   C2B67760  41.784  26.197   6.750
 8639POPC   C3B67761  41.775  26.124   7.050
 8639POPC   C4B67762  41.764  26.189   7.350
 8640POPC   NC367763  40.745  29.957   5.550
 8640POPC   PO467764  40.817  29.907   5.850
 8640POPC   GL167765  40.781  29.884   6.150
 8640POPC   GL267766  40.736  29.791   6.150
 8640POPC   C1A67767  40.795  29.953   6.450
 8640POPC   D2A67768  40.742  29.961   6.750
 8640POPC   C3A67769  40.814  29.913   7.050
 8640POPC   C4A67770  40.757  29.916   7.350
 8640POPC   C1B67771  40.677  29.695   6.450
 8640POPC   C2B67772  40.696  29.634   6.750
 8640POPC   C3B67773  40.673  29.640   7.050
 8640POPC   C4B67774  40.747  29.668   7.350
 8641POPC   NC367775  22.921  25.994   5.550
 8641POPC   PO467776  22.981  26.080   5.850
 8641POPC   GL167777  22.930  26.076   6.150
 8641POPC   GL267778  22.883  25.930   6.150
 8641POPC   C1A67779  22.913  26.042   6.450
 8641POPC   D2A67780  22.911  26.001   6.750
 8641POPC   C3A67781  22.981  26.036   7.050
 8641POPC   C4A67782  22.980  26.003   7.350
 8641POPC   C1B67783  22.802  25.776   6.450
 8641POPC   C2B67784  22.847  25.791   6.750
 8641POPC   C3B67785  22.830  25.861   7.050
 8641POPC   C4B67786  22.844  25.793   7.350
 8642POPC   NC367787  26.039  37.631   5.550
 8642POPC   PO467788  26.051  37.709   5.850
 8642POPC   GL167789  26.045  37.637   6.150
 8642POPC   GL267790  26.191  37.644   6.150
 8642POPC   C1A67791  26.064  37.717   6.450
 8642POPC   D2A67792  26.066  37.635   6.750
 8642POPC   C3A67793  26.029  37.694   7.050
 8642POPC   C4A67794  25.993  37.652   7.350
 8642POPC   C1B67795  26.269  37.618   6.450
 8642POPC   C2B67796  26.287  37.636   6.750
 8642POPC   C3B67797  26.249  37.646   7.050
 8642POPC   C4B67798  26.315  37.568   7.350
 8643POPC   NC367799  28.335  27.544   5.550
 8643POPC   PO467800  28.345  27.576   5.850
 8643POPC   GL167801  28.390  27.582   6.150
 8643POPC   GL267802  28.444  27.553   6.150
 8643POPC   C1A67803  28.373  27.617   6.450
 8643POPC   D2A67804  28.328  27.621   6.750
 8643POPC   C3A67805  28.342  27.561   7.050
 8643POPC   C4A67806  28.411  27.562   7.350
 8643POPC   C1B67807  28.622  27.531   6.450
 8643POPC   C2B67808  28.554  27.523   6.750
 8643POPC   C3B67809  28.576  27.458   7.050
 8643POPC   C4B67810  28.594  27.456   7.350
 8644POPC   NC367811   5.852   3.570   5.550
 8644POPC   PO467812   5.861   3.492   5.850
 8644POPC   GL167813   5.863   3.531   6.150
 8644POPC   GL267814   5.704   3.571   6.150
 8644POPC   C1A67815   5.905   3.524   6.450
 8644POPC   D2A67816   5.826   3.508   6.750
 8644POPC   C3A67817   5.859   3.515   7.050
 8644POPC   C4A67818   5.887   3.581   7.350
 8644POPC   C1B67819   5.610   3.551   6.450
 8644POPC   C2B67820   5.605   3.570   6.750
 8644POPC   C3B67821   5.614   3.595   7.050
 8644POPC   C4B67822   5.590   3.609   7.350
 8645POPC   NC367823  35.365  14.386   5.550
 8645POPC   PO467824  35.375  14.416   5.850
 8645POPC   GL167825  35.339  14.392   6.150
 8645POPC   GL267826  35.238  14.424   6.150
 8645POPC   C1A67827  35.347  14.391   6.450
 8645POPC   D2A67828  35.397  14.375   6.750
 8645POPC   C3A67829  35.381  14.434   7.050
 8645POPC   C4A67830  35.322  14.380   7.350
 8645POPC   C1B67831  35.153  14.400   6.450
 8645POPC   C2B67832  35.090  14.478   6.750
 8645POPC   C3B67833  35.115  14.476   7.050
 8645POPC   C4B67834  35.154  14.433   7.350
 8646POPC   NC367835  44.678  29.947   5.550
 8646POPC   PO467836  44.668  29.892   5.850
 8646POPC   GL167837  44.679  29.913   6.150
 8646POPC   GL267838  44.554  29.942   6.150
 8646POPC   C1A67839  44.646  29.922   6.450
 8646POPC   D2A67840  44.627  29.888   6.750
 8646POPC   C3A67841  44.711  29.932   7.050
 8646POPC   C4A67842  44.696  29.871   7.350
 8646POPC   C1B67843  44.471  29.989   6.450
 8646POPC   C2B67844  44.462  30.017   6.750
 8646POPC   C3B67845  44.452  30.041   7.050
 8646POPC   C4B67846  44.429  29.995   7.350
 8647POPC   NC367847  22.928  44.629   5.550
 8647POPC   PO467848  22.891  44.701   5.850
 8647POPC   GL167849  22.976  44.671   6.150
 8647POPC   GL267850  23.071  44.777   6.150
 8647POPC   C1A67851  22.974  44.682   6.450
 8647POPC   D2A67852  22.928  44.626   6.750
 8647POPC   C3A67853  22.980  44.615   7.050
 8647POPC   C4A67854  22.964  44.674   7.350
 8647POPC   C1B67855  23.131  44.757   6.450
 8647POPC   C2B67856  23.158  44.749   6.750
 8647POPC   C3B67857  23.127  44.759   7.050
 8647POPC   C4B67858  23.174  44.831   7.350
 8648POPC   NC367859  22.170  33.028   5.550
 8648POPC   PO467860  22.177  33.035   5.850
 8648POPC   GL167861  22.133  32.996   6.150
 8648POPC   GL267862  22.227  32.918   6.150
 8648POPC   C1A67863  22.205  33.027   6.450
 8648POPC   D2A67864  22.212  33.014   6.750
 8648POPC   C3A67865  22.139  32.983   7.050
 8648POPC   C4A67866  22.133  33.019   7.350
 8648POPC   C1B67867  22.245  32.818   6.450
 8648POPC   C2B67868  22.230  32.749   6.750
 8648POPC   C3B67869  22.305  32.828   7.050
 8648POPC   C4B67870  22.228  32.825   7.350
 8649POPC   NC367871   3.520   2.002   5.550
 8649POPC   PO467872   3.579   2.024   5.850
 8649POPC   GL167873   3.498   2.016   6.150
 8649POPC   GL267874   3.439   2.071   6.150
 8649POPC   C1A67875   3.570   1.954   6.450
 8649POPC   D2A67876   3.518   2.024   6.750
 8649POPC   C3A67877   3.493   1.956   7.050
 8649POPC   C4A67878   3.576   1.973   7.350
 8649POPC   C1B67879   3.320   2.198   6.450
 8649POPC   C2B67880   3.386   2.151   6.750
 8649POPC   C3B67881   3.373   2.122   7.050
 8649POPC   C4B67882   3.350   2.127   7.350
 8650POPC   NC367883  32.247  12.821   5.550
 8650POPC   PO467884  32.242  12.812   5.850
 8650POPC   GL167885  32.204  12.813   6.150
 8650POPC   GL267886  32.368  12.913   6.150
 8650POPC   C1A67887  32.217  12.840   6.450
 8650POPC   D2A67888  32.227  12.870   6.750
 8650POPC   C3A67889  32.266  12.802   7.050
 8650POPC   C4A67890  32.267  12.856   7.350
 8650POPC   C1B67891  32.394  13.089   6.450
 8650POPC   C2B67892  32.454  13.081   6.750
 8650POPC   C3B67893  32.368  13.020   7.050
 8650POPC   C4B67894  32.398  13.092   7.350
 8651POPC   NC367895  22.190  37.717   5.550
 8651POPC   PO467896  22.142  37.632   5.850
 8651POPC   GL167897  22.179  37.725   6.150
 8651POPC   GL267898  22.067  37.802   6.150
 8651POPC   C1A67899  22.180  37.676   6.450
 8651POPC   D2A67900  22.128  37.727   6.750
 8651POPC   C3A67901  22.142  37.650   7.050
 8651POPC   C4A67902  22.133  37.686   7.350
 8651POPC   C1B67903  22.009  37.848   6.450
 8651POPC   C2B67904  22.036  37.881   6.750
 8651POPC   C3B67905  22.073  37.851   7.050
 8651POPC   C4B67906  22.069  37.913   7.350
 8652POPC   NC367907  33.027  41.598   5.550
 8652POPC   PO467908  33.002  41.595   5.850
 8652POPC   GL167909  32.983  41.600   6.150
 8652POPC   GL267910  33.071  41.513   6.150
 8652POPC   C1A67911  33.004  41.554   6.450
 8652POPC   D2A67912  33.040  41.598   6.750
 8652POPC   C3A67913  32.986  41.518   7.050
 8652POPC   C4A67914  33.037  41.601   7.350
 8652POPC   C1B67915  33.228  41.406   6.450
 8652POPC   C2B67916  33.166  41.381   6.750
 8652POPC   C3B67917  33.234  41.359   7.050
 8652POPC   C4B67918  33.221  41.347   7.350
 8653POPC   NC367919   0.403  30.681   5.550
 8653POPC   PO467920   0.407  30.696   5.850
 8653POPC   GL167921   0.464  30.715   6.150
 8653POPC   GL267922   0.548  30.620   6.150
 8653POPC   C1A67923   0.412  30.739   6.450
 8653POPC   D2A67924   0.407  30.721   6.750
 8653POPC   C3A67925   0.460  30.671   7.050
 8653POPC   C4A67926   0.403  30.681   7.350
 8653POPC   C1B67927   0.620  30.513   6.450
 8653POPC   C2B67928   0.650  30.518   6.750
 8653POPC   C3B67929   0.615  30.493   7.050
 8653POPC   C4B67930   0.633  30.558   7.350
 8654POPC   NC367931  14.376  32.247   5.550
 8654POPC   PO467932  14.381  32.221   5.850
 8654POPC   GL167933  14.382  32.198   6.150
 8654POPC   GL267934  14.390  32.123   6.150
 8654POPC   C1A67935  14.404  32.295   6.450
 8654POPC   D2A67936  14.422  32.221   6.750
 8654POPC   C3A67937  14.405  32.254   7.050
 8654POPC   C4A67938  14.368  32.281   7.350
 8654POPC   C1B67939  14.412  32.003   6.450
 8654POPC   C2B67940  14.407  31.977   6.750
 8654POPC   C3B67941  14.413  32.019   7.050
 8654POPC   C4B67942  14.461  32.045   7.350
 8655POPC   NC367943   8.173  24.462   5.550
 8655POPC   PO467944   8.149  24.496   5.850
 8655POPC   GL167945   8.200  24.479   6.150
 8655POPC   GL267946   8.255  24.637   6.150
 8655POPC   C1A67947   8.208  24.444   6.450
 8655POPC   D2A67948   8.223  24.451   6.750
 8655POPC   C3A67949   8.205  24.536   7.050
 8655POPC   C4A67950   8.207  24.477   7.350
 8655POPC   C1B67951   8.310  24.772   6.450
 8655POPC   C2B67952   8.303  24.689   6.750
 8655POPC   C3B67953   8.285  24.723   7.050
 8655POPC   C4B67954   8.255  24.749   7.350
 8656POPC   NC367955  43.838  33.848   5.550
 8656POPC   PO467956  43.934  33.757   5.850
 8656POPC   GL167957  43.918  33.760   6.150
 8656POPC   GL267958  43.854  33.888   6.150
 8656POPC   C1A67959  43.915  33.806   6.450
 8656POPC   D2A67960  43.875  33.827   6.750
 8656POPC   C3A67961  43.839  33.789   7.050
 8656POPC   C4A67962  43.868  33.823   7.350
 8656POPC   C1B67963  43.856  34.049   6.450
 8656POPC   C2B67964  43.777  34.039   6.750
 8656POPC   C3B67965  43.814  34.033   7.050
 8656POPC   C4B67966  43.841  34.091   7.350
 8657POPC   NC367967  43.140  25.277   5.550
 8657POPC   PO467968  43.120  25.290   5.850
 8657POPC   GL167969  43.079  25.234   6.150
 8657POPC   GL267970  43.162  25.195   6.150
 8657POPC   C1A67971  43.153  25.230   6.450
 8657POPC   D2A67972  43.071  25.300   6.750
 8657POPC   C3A67973  43.137  25.250   7.050
 8657POPC   C4A67974  43.065  25.260   7.350
 8657POPC   C1B67975  43.291  25.070   6.450
 8657POPC   C2B67976  43.268  25.137   6.750
 8657POPC   C3B67977  43.258  25.060   7.050
 8657POPC   C4B67978  43.342  25.102   7.350
 8658POPC   NC367979  17.474  14.390   5.550
 8658POPC   PO467980  17.463  14.360   5.850
 8658POPC   GL167981  17.555  14.398   6.150
 8658POPC   GL267982  17.440  14.469   6.150
 8658POPC   C1A67983  17.457  14.409   6.450
 8658POPC   D2A67984  17.511  14.393   6.750
 8658POPC   C3A67985  17.493  14.407   7.050
 8658POPC   C4A67986  17.472  14.397   7.350
 8658POPC   C1B67987  17.307  14.566   6.450
 8658POPC   C2B67988  17.327  14.487   6.750
 8658POPC   C3B67989  17.339  14.504   7.050
 8658POPC   C4B67990  17.306  14.488   7.350
 8659POPC   NC367991  11.273   5.823   5.550
 8659POPC   PO467992  11.289   5.820   5.850
 8659POPC   GL167993  11.274   5.913   6.150
 8659POPC   GL267994  11.324   5.703   6.150
 8659POPC   C1A67995  11.252   5.820   6.450
 8659POPC   D2A67996  11.295   5.871   6.750
 8659POPC   C3A67997  11.320   5.890   7.050
 8659POPC   C4A67998  11.290   5.872   7.350
 8659POPC   C1B67999  11.379   5.682   6.450
 8659POPC   C2B68000  11.361   5.586   6.750
 8659POPC   C3B68001  11.423   5.669   7.050
 8659POPC   C4B68002  11.422   5.583   7.350
 8660POPC   NC368003  31.482   9.704   5.550
 8660POPC   PO468004  31.455   9.726   5.850
 8660POPC   GL168005  31.521   9.784   6.150
 8660POPC   GL268006  31.574   9.651   6.150
 8660POPC   C1A68007  31.498   9.766   6.450
 8660POPC   D2A68008  31.471   9.736   6.750
 8660POPC   C3A68009  31.491   9.713   7.050
 8660POPC   C4A68010  31.515   9.770   7.350
 8660POPC   C1B68011  31.667   9.566   6.450
 8660POPC   C2B68012  31.666   9.635   6.750
 8660POPC   C3B68013  31.713   9.566   7.050
 8660POPC   C4B68014  31.630   9.646   7.350
 8661POPC   NC368015  42.314  15.197   5.550
 8661POPC   PO468016  42.285  15.217   5.850
 8661POPC   GL168017  42.319  15.193   6.150
 8661POPC   GL268018  42.431  15.085   6.150
 8661POPC   C1A68019  42.341  15.138   6.450
 8661POPC   D2A68020  42.348  15.187   6.750
 8661POPC   C3A68021  42.312  15.224   7.050
 8661POPC   C4A68022  42.350  15.223   7.350
 8661POPC   C1B68023  42.554  15.085   6.450
 8661POPC   C2B68024  42.550  15.066   6.750
 8661POPC   C3B68025  42.516  15.128   7.050
 8661POPC   C4B68026  42.581  15.105   7.350
 8662POPC   NC368027  37.721  33.040   5.550
 8662POPC   PO468028  37.637  32.978   5.850
 8662POPC   GL168029  37.717  32.999   6.150
 8662POPC   GL268030  37.675  32.866   6.150
 8662POPC   C1A68031  37.651  33.045   6.450
 8662POPC   D2A68032  37.704  32.989   6.750
 8662POPC   C3A68033  37.642  33.016   7.050
 8662POPC   C4A68034  37.676  33.042   7.350
 8662POPC   C1B68035  37.680  32.807   6.450
 8662POPC   C2B68036  37.650  32.754   6.750
 8662POPC   C3B68037  37.714  32.821   7.050
 8662POPC   C4B68038  37.688  32.767   7.350
 8663POPC   NC368039  39.192  43.101   5.550
 8663POPC   PO468040  39.183  43.135   5.850
 8663POPC   GL168041  39.241  43.100   6.150
 8663POPC   GL268042  39.217  43.021   6.150
 8663POPC   C1A68043  39.193  43.159   6.450
 8663POPC   D2A68044  39.221  43.093   6.750
 8663POPC   C3A68045  39.243  43.073   7.050
 8663POPC   C4A68046  39.255  43.108   7.350
 8663POPC   C1B68047  39.112  42.857   6.450
 8663POPC   C2B68048  39.118  42.931   6.750
 8663POPC   C3B68049  39.086  42.902   7.050
 8663POPC   C4B68050  39.083  42.913   7.350
 8664POPC   NC368051  30.685  27.555   5.550
 8664POPC   PO468052  30.694  27.591   5.850
 8664POPC   GL168053  30.684  27.612   6.150
 8664POPC   GL268054  30.759  27.492   6.150
 8664POPC   C1A68055  30.660  27.551   6.450
 8664POPC   D2A68056  30.669  27.609   6.750
 8664POPC   C3A68057  30.706  27.591   7.050
 8664POPC   C4A68058  30.695  27.604   7.350
 8664POPC   C1B68059  30.814  27.379   6.450
 8664POPC   C2B68060  30.849  27.361   6.750
 8664POPC   C3B68061  30.788  27.427   7.050
 8664POPC   C4B68062  30.833  27.355   7.350
 8665POPC   NC368063  29.128  16.720   5.550
 8665POPC   PO468064  29.129  16.695   5.850
 8665POPC   GL168065  29.158  16.701   6.150
 8665POPC   GL268066  29.089  16.821   6.150
 8665POPC   C1A68067  29.174  16.738   6.450
 8665POPC   D2A68068  29.175  16.766   6.750
 8665POPC   C3A68069  29.168  16.775   7.050
 8665POPC   C4A68070  29.149  16.683   7.350
 8665POPC   C1B68071  28.969  16.916   6.450
 8665POPC   C2B68072  29.034  16.912   6.750
 8665POPC   C3B68073  29.049  16.903   7.050
 8665POPC   C4B68074  28.971  16.914   7.350
 8666POPC   NC368075  29.898  26.057   5.550
 8666POPC   PO468076  29.955  26.019   5.850
 8666POPC   GL168077  29.881  26.059   6.150
 8666POPC   GL268078  29.857  26.142   6.150
 8666POPC   C1A68079  29.937  26.031   6.450
 8666POPC   D2A68080  29.896  26.071   6.750
 8666POPC   C3A68081  29.934  25.996   7.050
 8666POPC   C4A68082  29.946  26.051   7.350
 8666POPC   C1B68083  29.783  26.310   6.450
 8666POPC   C2B68084  29.808  26.226   6.750
 8666POPC   C3B68085  29.850  26.262   7.050
 8666POPC   C4B68086  29.862  26.289   7.350
 8667POPC   NC368087  33.786  38.443   5.550
 8667POPC   PO468088  33.822  38.453   5.850
 8667POPC   GL168089  33.838  38.451   6.150
 8667POPC   GL268090  33.806  38.598   6.150
 8667POPC   C1A68091  33.814  38.417   6.450
 8667POPC   D2A68092  33.827  38.423   6.750
 8667POPC   C3A68093  33.755  38.436   7.050
 8667POPC   C4A68094  33.824  38.444   7.350
 8667POPC   C1B68095  33.808  38.669   6.450
 8667POPC   C2B68096  33.764  38.739   6.750
 8667POPC   C3B68097  33.801  38.728   7.050
 8667POPC   C4B68098  33.817  38.686   7.350
 8668POPC   NC368099   1.993   5.100   5.550
 8668POPC   PO468100   2.030   5.090   5.850
 8668POPC   GL168101   1.972   5.107   6.150
 8668POPC   GL268102   1.853   5.153   6.150
 8668POPC   C1A68103   1.973   5.117   6.450
 8668POPC   D2A68104   1.972   5.111   6.750
 8668POPC   C3A68105   1.981   5.098   7.050
 8668POPC   C4A68106   2.018   5.134   7.350
 8668POPC   C1B68107   1.766   5.250   6.450
 8668POPC   C2B68108   1.822   5.302   6.750
 8668POPC   C3B68109   1.827   5.280   7.050
 8668POPC   C4B68110   1.826   5.272   7.350
 8669POPC   NC368111  28.396  29.095   5.550
 8669POPC   PO468112  28.388  29.130   5.850
 8669POPC   GL168113  28.392  29.112   6.150
 8669POPC   GL268114  28.240  29.045   6.150
 8669POPC   C1A68115  28.396  29.168   6.450
 8669POPC   D2A68116  28.366  29.112   6.750
 8669POPC   C3A68117  28.405  29.179   7.050
 8669POPC   C4A68118  28.397  29.135   7.350
 8669POPC   C1B68119  28.240  28.912   6.450
 8669POPC   C2B68120  28.191  28.950   6.750
 8669POPC   C3B68121  28.220  28.986   7.050
 8669POPC   C4B68122  28.248  28.982   7.350
 8670POPC   NC368123  31.458  43.860   5.550
 8670POPC   PO468124  31.467  43.880   5.850
 8670POPC   GL168125  31.448  43.932   6.150
 8670POPC   GL268126  31.368  43.980   6.150
 8670POPC   C1A68127  31.451  43.909   6.450
 8670POPC   D2A68128  31.477  43.879   6.750
 8670POPC   C3A68129  31.457  43.860   7.050
 8670POPC   C4A68130  31.522  43.881   7.350
 8670POPC   C1B68131  31.299  43.987   6.450
 8670POPC   C2B68132  31.253  44.023   6.750
 8670POPC   C3B68133  31.278  43.996   7.050
 8670POPC   C4B68134  31.222  44.014   7.350
 8671POPC   NC368135   9.794   5.893   5.550
 8671POPC   PO468136   9.707   5.885   5.850
 8671POPC   GL168137   9.772   5.903   6.150
 8671POPC   GL268138   9.756   6.023   6.150
 8671POPC   C1A68139   9.770   5.914   6.450
 8671POPC   D2A68140   9.719   5.868   6.750
 8671POPC   C3A68141   9.753   5.825   7.050
 8671POPC   C4A68142   9.776   5.850   7.350
 8671POPC   C1B68143   9.742   6.086   6.450
 8671POPC   C2B68144   9.755   6.088   6.750
 8671POPC   C3B68145   9.752   6.148   7.050
 8671POPC   C4B68146   9.748   6.107   7.350
 8672POPC   NC368147  22.908   4.295   5.550
 8672POPC   PO468148  22.969   4.314   5.850
 8672POPC   GL168149  22.923   4.272   6.150
 8672POPC   GL268150  23.005   4.207   6.150
 8672POPC   C1A68151  22.940   4.272   6.450
 8672POPC   D2A68152  22.952   4.296   6.750
 8672POPC   C3A68153  22.901   4.326   7.050
 8672POPC   C4A68154  22.911   4.300   7.350
 8672POPC   C1B68155  23.137   4.112   6.450
 8672POPC   C2B68156  23.083   4.081   6.750
 8672POPC   C3B68157  23.062   4.092   7.050
 8672POPC   C4B68158  23.097   4.102   7.350
 8673POPC   NC368159  23.756   0.420   5.550
 8673POPC   PO468160  23.731   0.474   5.850
 8673POPC   GL168161  23.727   0.474   6.150
 8673POPC   GL268162  23.573   0.378   6.150
 8673POPC   C1A68163  23.669   0.488   6.450
 8673POPC   D2A68164  23.758   0.402   6.750
 8673POPC   C3A68165  23.686   0.398   7.050
 8673POPC   C4A68166  23.762   0.462   7.350
 8673POPC   C1B68167  23.484   0.423   6.450
 8673POPC   C2B68168  23.432   0.409   6.750
 8673POPC   C3B68169  23.497   0.399   7.050
 8673POPC   C4B68170  23.497   0.386   7.350
 8674POPC   NC368171  39.224  23.724   5.550
 8674POPC   PO468172  39.210  23.665   5.850
 8674POPC   GL168173  39.228  23.750   6.150
 8674POPC   GL268174  39.181  23.854   6.150
 8674POPC   C1A68175  39.218  23.692   6.450
 8674POPC   D2A68176  39.215  23.682   6.750
 8674POPC   C3A68177  39.200  23.761   7.050
 8674POPC   C4A68178  39.273  23.741   7.350
 8674POPC   C1B68179  39.081  23.938   6.450
 8674POPC   C2B68180  39.029  23.928   6.750
 8674POPC   C3B68181  39.085  23.888   7.050
 8674POPC   C4B68182  39.068  23.931   7.350
 8675POPC   NC368183   9.783  17.533   5.550
 8675POPC   PO468184   9.750  17.505   5.850
 8675POPC   GL168185   9.717  17.549   6.150
 8675POPC   GL268186   9.893  17.559   6.150
 8675POPC   C1A68187   9.766  17.485   6.450
 8675POPC   D2A68188   9.721  17.475   6.750
 8675POPC   C3A68189   9.720  17.538   7.050
 8675POPC   C4A68190   9.720  17.490   7.350
 8675POPC   C1B68191  10.023  17.508   6.450
 8675POPC   C2B68192   9.948  17.576   6.750
 8675POPC   C3B68193  10.022  17.510   7.050
 8675POPC   C4B68194  10.036  17.585   7.350
 8676POPC   NC368195  34.620   1.205   5.550
 8676POPC   PO468196  34.582   1.241   5.850
 8676POPC   GL168197  34.613   1.250   6.150
 8676POPC   GL268198  34.434   1.115   6.150
 8676POPC   C1A68199  34.624   1.207   6.450
 8676POPC   D2A68200  34.531   1.185   6.750
 8676POPC   C3A68201  34.533   1.199   7.050
 8676POPC   C4A68202  34.619   1.210   7.350
 8676POPC   C1B68203  34.410   1.023   6.450
 8676POPC   C2B68204  34.344   1.116   6.750
 8676POPC   C3B68205  34.414   1.050   7.050
 8676POPC   C4B68206  34.358   1.110   7.350
 8677POPC   NC368207   4.352   0.487   5.550
 8677POPC   PO468208   4.326   0.455   5.850
 8677POPC   GL168209   4.297   0.400   6.150
 8677POPC   GL268210   4.399   0.460   6.150
 8677POPC   C1A68211   4.278   0.405   6.450
 8677POPC   D2A68212   4.301   0.438   6.750
 8677POPC   C3A68213   4.346   0.438   7.050
 8677POPC   C4A68214   4.338   0.476   7.350
 8677POPC   C1B68215   4.478   0.538   6.450
 8677POPC   C2B68216   4.558   0.531   6.750
 8677POPC   C3B68217   4.499   0.583   7.050
 8677POPC   C4B68218   4.515   0.608   7.350
 8678POPC   NC368219  40.001  19.879   5.550
 8678POPC   PO468220  39.979  19.833   5.850
 8678POPC   GL168221  40.008  19.866   6.150
 8678POPC   GL268222  39.989  19.926   6.150
 8678POPC   C1A68223  40.050  19.808   6.450
 8678POPC   D2A68224  40.051  19.870   6.750
 8678POPC   C3A68225  40.011  19.825   7.050
 8678POPC   C4A68226  40.010  19.840   7.350
 8678POPC   C1B68227  40.050  20.059   6.450
 8678POPC   C2B68228  40.011  20.038   6.750
 8678POPC   C3B68229  40.064  20.074   7.050
 8678POPC   C4B68230  40.061  20.068   7.350
 8679POPC   NC368231  41.589  40.791   5.550
 8679POPC   PO468232  41.571  40.814   5.850
 8679POPC   GL168233  41.530  40.782   6.150
 8679POPC   GL268234  41.410  40.770   6.150
 8679POPC   C1A68235  41.563  40.821   6.450
 8679POPC   D2A68236  41.510  40.778   6.750
 8679POPC   C3A68237  41.595  40.814   7.050
 8679POPC   C4A68238  41.602  40.800   7.350
 8679POPC   C1B68239  41.324  40.859   6.450
 8679POPC   C2B68240  41.350  40.855   6.750
 8679POPC   C3B68241  41.276  40.877   7.050
 8679POPC   C4B68242  41.336  40.840   7.350
 8680POPC   NC368243  33.824  15.216   5.550
 8680POPC   PO468244  33.771  15.132   5.850
 8680POPC   GL168245  33.788  15.198   6.150
 8680POPC   GL268246  33.913  15.138   6.150
 8680POPC   C1A68247  33.754  15.151   6.450
 8680POPC   D2A68248  33.828  15.201   6.750
 8680POPC   C3A68249  33.769  15.139   7.050
 8680POPC   C4A68250  33.780  15.195   7.350
 8680POPC   C1B68251  33.959  15.046   6.450
 8680POPC   C2B68252  34.035  15.059   6.750
 8680POPC   C3B68253  34.034  14.991   7.050
 8680POPC   C4B68254  34.008  14.983   7.350
 8681POPC   NC368255  10.497  34.619   5.550
 8681POPC   PO468256  10.537  34.614   5.850
 8681POPC   GL168257  10.475  34.561   6.150
 8681POPC   GL268258  10.678  34.500   6.150
 8681POPC   C1A68259  10.548  34.561   6.450
 8681POPC   D2A68260  10.499  34.552   6.750
 8681POPC   C3A68261  10.557  34.541   7.050
 8681POPC   C4A68262  10.486  34.569   7.350
 8681POPC   C1B68263  10.796  34.511   6.450
 8681POPC   C2B68264  10.729  34.522   6.750
 8681POPC   C3B68265  10.750  34.478   7.050
 8681POPC   C4B68266  10.717  34.470   7.350
 8682POPC   NC368267  36.916  12.846   5.550
 8682POPC   PO468268  36.887  12.807   5.850
 8682POPC   GL168269  36.892  12.839   6.150
 8682POPC   GL268270  37.026  12.971   6.150
 8682POPC   C1A68271  36.894  12.808   6.450
 8682POPC   D2A68272  36.879  12.852   6.750
 8682POPC   C3A68273  36.915  12.869   7.050
 8682POPC   C4A68274  36.872  12.828   7.350
 8682POPC   C1B68275  37.100  13.007   6.450
 8682POPC   C2B68276  37.118  13.052   6.750
 8682POPC   C3B68277  37.086  13.042   7.050
 8682POPC   C4B68278  37.051  13.000   7.350
 8683POPC   NC368279  43.902  39.200   5.550
 8683POPC   PO468280  43.893  39.191   5.850
 8683POPC   GL168281  43.918  39.205   6.150
 8683POPC   GL268282  43.958  39.300   6.150
 8683POPC   C1A68283  43.908  39.279   6.450
 8683POPC   D2A68284  43.859  39.242   6.750
 8683POPC   C3A68285  43.899  39.254   7.050
 8683POPC   C4A68286  43.876  39.192   7.350
 8683POPC   C1B68287  44.034  39.485   6.450
 8683POPC   C2B68288  44.014  39.445   6.750
 8683POPC   C3B68289  44.041  39.476   7.050
 8683POPC   C4B68290  44.012  39.432   7.350
 8684POPC   NC368291  17.476  43.845   5.550
 8684POPC   PO468292  17.539  43.906   5.850
 8684POPC   GL168293  17.550  43.912   6.150
 8684POPC   GL268294  17.523  44.037   6.150
 8684POPC   C1A68295  17.510  43.926   6.450
 8684POPC   D2A68296  17.550  43.928   6.750
 8684POPC   C3A68297  17.510  43.839   7.050
 8684POPC   C4A68298  17.513  43.867   7.350
 8684POPC   C1B68299  17.562  44.114   6.450
 8684POPC   C2B68300  17.522  44.130   6.750
 8684POPC   C3B68301  17.522  44.173   7.050
 8684POPC   C4B68302  17.489  44.181   7.350
 8685POPC   NC368303  19.100  43.902   5.550
 8685POPC   PO468304  19.028  43.846   5.850
 8685POPC   GL168305  19.068  43.887   6.150
 8685POPC   GL268306  19.101  44.001   6.150
 8685POPC   C1A68307  19.025  43.854   6.450
 8685POPC   D2A68308  19.033  43.908   6.750
 8685POPC   C3A68309  19.037  43.899   7.050
 8685POPC   C4A68310  19.023  43.912   7.350
 8685POPC   C1B68311  19.085  44.134   6.450
 8685POPC   C2B68312  19.116  44.176   6.750
 8685POPC   C3B68313  19.118  44.176   7.050
 8685POPC   C4B68314  19.138  44.136   7.350
 8686POPC   NC368315  33.832  29.111   5.550
 8686POPC   PO468316  33.846  29.104   5.850
 8686POPC   GL168317  33.756  29.160   6.150
 8686POPC   GL268318  33.768  29.278   6.150
 8686POPC   C1A68319  33.782  29.162   6.450
 8686POPC   D2A68320  33.816  29.096   6.750
 8686POPC   C3A68321  33.785  29.190   7.050
 8686POPC   C4A68322  33.833  29.143   7.350
 8686POPC   C1B68323  33.656  29.358   6.450
 8686POPC   C2B68324  33.653  29.412   6.750
 8686POPC   C3B68325  33.717  29.365   7.050
 8686POPC   C4B68326  33.693  29.416   7.350
 8687POPC   NC368327  21.424   5.903   5.550
 8687POPC   PO468328  21.397   5.865   5.850
 8687POPC   GL168329  21.422   5.831   6.150
 8687POPC   GL268330  21.305   5.842   6.150
 8687POPC   C1A68331  21.364   5.869   6.450
 8687POPC   D2A68332  21.391   5.843   6.750
 8687POPC   C3A68333  21.340   5.822   7.050
 8687POPC   C4A68334  21.358   5.890   7.350
 8687POPC   C1B68335  21.158   5.801   6.450
 8687POPC   C2B68336  21.174   5.752   6.750
 8687POPC   C3B68337  21.170   5.812   7.050
 8687POPC   C4B68338  21.136   5.791   7.350
 8688POPC   NC368339   8.236   5.827   5.550
 8688POPC   PO468340   8.153   5.862   5.850
 8688POPC   GL168341   8.168   5.825   6.150
 8688POPC   GL268342   8.084   5.850   6.150
 8688POPC   C1A68343   8.171   5.834   6.450
 8688POPC   D2A68344   8.216   5.859   6.750
 8688POPC   C3A68345   8.196   5.864   7.050
 8688POPC   C4A68346   8.151   5.909   7.350
 8688POPC   C1B68347   7.948   5.870   6.450
 8688POPC   C2B68348   7.991   5.885   6.750
 8688POPC   C3B68349   7.952   5.892   7.050
 8688POPC   C4B68350   7.974   5.810   7.350
 8689POPC   NC368351  15.152  14.395   5.550
 8689POPC   PO468352  15.153  14.393   5.850
 8689POPC   GL168353  15.172  14.411   6.150
 8689POPC   GL268354  15.347  14.400   6.150
 8689POPC   C1A68355  15.219  14.435   6.450
 8689POPC   D2A68356  15.146  14.436   6.750
 8689POPC   C3A68357  15.170  14.382   7.050
 8689POPC   C4A68358  15.228  14.442   7.350
 8689POPC   C1B68359  15.439  14.421   6.450
 8689POPC   C2B68360  15.377  14.423   6.750
 8689POPC   C3B68361  15.426  14.429   7.050
 8689POPC   C4B68362  15.434  14.430   7.350
 8690POPC   NC368363  23.673  18.332   5.550
 8690POPC   PO468364  23.724  18.278   5.850
 8690POPC   GL168365  23.728  18.332   6.150
 8690POPC   GL268366  23.786  18.443   6.150
 8690POPC   C1A68367  23.728  18.306   6.450
 8690POPC   D2A68368  23.712  18.313   6.750
 8690POPC   C3A68369  23.699  18.244   7.050
 8690POPC   C4A68370  23.758  18.305   7.350
 8690POPC   C1B68371  23.767  18.575   6.450
 8690POPC   C2B68372  23.736  18.559   6.750
 8690POPC   C3B68373  23.766  18.572   7.050
 8690POPC   C4B68374  23.754  18.552   7.350
 8691POPC   NC368375  30.673  28.417   5.550
 8691POPC   PO468376  30.653  28.330   5.850
 8691POPC   GL168377  30.666  28.371   6.150
 8691POPC   GL268378  30.728  28.479   6.150
 8691POPC   C1A68379  30.701  28.406   6.450
 8691POPC   D2A68380  30.728  28.340   6.750
 8691POPC   C3A68381  30.680  28.350   7.050
 8691POPC   C4A68382  30.719  28.396   7.350
 8691POPC   C1B68383  30.851  28.568   6.450
 8691POPC   C2B68384  30.796  28.560   6.750
 8691POPC   C3B68385  30.799  28.555   7.050
 8691POPC   C4B68386  30.838  28.618   7.350
 8692POPC   NC368387  23.736  19.808   5.550
 8692POPC   PO468388  23.711  19.852   5.850
 8692POPC   GL168389  23.724  19.868   6.150
 8692POPC   GL268390  23.651  19.907   6.150
 8692POPC   C1A68391  23.751  19.848   6.450
 8692POPC   D2A68392  23.688  19.816   6.750
 8692POPC   C3A68393  23.718  19.832   7.050
 8692POPC   C4A68394  23.760  19.793   7.350
 8692POPC   C1B68395  23.558  20.018   6.450
 8692POPC   C2B68396  23.524  20.066   6.750
 8692POPC   C3B68397  23.562  20.029   7.050
 8692POPC   C4B68398  23.582  20.019   7.350
 8693POPC   NC368399   7.455   1.953   5.550
 8693POPC   PO468400   7.410   2.023   5.850
 8693POPC   GL168401   7.458   1.989   6.150
 8693POPC   GL268402   7.384   2.080   6.150
 8693POPC   C1A68403   7.469   2.023   6.450
 8693POPC   D2A68404   7.401   1.988   6.750
 8693POPC   C3A68405   7.452   1.962   7.050
 8693POPC   C4A68406   7.435   1.961   7.350
 8693POPC   C1B68407   7.335   2.207   6.450
 8693POPC   C2B68408   7.361   2.229   6.750
 8693POPC   C3B68409   7.376   2.190   7.050
 8693POPC   C4B68410   7.355   2.260   7.350
 8694POPC   NC368411  17.523   5.083   5.550
 8694POPC   PO468412  17.472   5.073   5.850
 8694POPC   GL168413  17.494   5.129   6.150
 8694POPC   GL268414  17.604   5.027   6.150
 8694POPC   C1A68415  17.458   5.137   6.450
 8694POPC   D2A68416  17.480   5.093   6.750
 8694POPC   C3A68417  17.500   5.046   7.050
 8694POPC   C4A68418  17.458   5.073   7.350
 8694POPC   C1B68419  17.753   4.959   6.450
 8694POPC   C2B68420  17.691   4.948   6.750
 8694POPC   C3B68421  17.768   4.943   7.050
 8694POPC   C4B68422  17.685   4.999   7.350
 8695POPC   NC368423  23.676  26.005   5.550
 8695POPC   PO468424  23.687  25.996   5.850
 8695POPC   GL168425  23.727  26.027   6.150
 8695POPC   GL268426  23.716  26.204   6.150
 8695POPC   C1A68427  23.763  26.013   6.450
 8695POPC   D2A68428  23.665  26.034   6.750
 8695POPC   C3A68429  23.752  26.071   7.050
 8695POPC   C4A68430  23.694  25.996   7.350
 8695POPC   C1B68431  23.821  26.261   6.450
 8695POPC   C2B68432  23.734  26.265   6.750
 8695POPC   C3B68433  23.740  26.321   7.050
 8695POPC   C4B68434  23.776  26.334   7.350
 8696POPC   NC368435  36.130  32.225   5.550
 8696POPC   PO468436  36.111  32.272   5.850
 8696POPC   GL168437  36.173  32.285   6.150
 8696POPC   GL268438  35.988  32.357   6.150
 8696POPC   C1A68439  36.152  32.251   6.450
 8696POPC   D2A68440  36.125  32.247   6.750
 8696POPC   C3A68441  36.162  32.267   7.050
 8696POPC   C4A68442  36.172  32.226   7.350
 8696POPC   C1B68443  35.962  32.453   6.450
 8696POPC   C2B68444  35.911  32.435   6.750
 8696POPC   C3B68445  35.959  32.425   7.050
 8696POPC   C4B68446  35.958  32.405   7.350
 8697POPC   NC368447  26.803   4.307   5.550
 8697POPC   PO468448  26.798   4.278   5.850
 8697POPC   GL168449  26.864   4.301   6.150
 8697POPC   GL268450  26.741   4.210   6.150
 8697POPC   C1A68451  26.815   4.333   6.450
 8697POPC   D2A68452  26.825   4.332   6.750
 8697POPC   C3A68453  26.853   4.281   7.050
 8697POPC   C4A68454  26.846   4.307   7.350
 8697POPC   C1B68455  26.759   4.055   6.450
 8697POPC   C2B68456  26.701   4.120   6.750
 8697POPC   C3B68457  26.664   4.053   7.050
 8697POPC   C4B68458  26.724   4.047   7.350
 8698POPC   NC368459  37.653  20.599   5.550
 8698POPC   PO468460  37.686  20.644   5.850
 8698POPC   GL168461  37.670  20.603   6.150
 8698POPC   GL268462  37.676  20.699   6.150
 8698POPC   C1A68463  37.657  20.602   6.450
 8698POPC   D2A68464  37.646  20.620   6.750
 8698POPC   C3A68465  37.668  20.562   7.050
 8698POPC   C4A68466  37.662  20.603   7.350
 8698POPC   C1B68467  37.727  20.821   6.450
 8698POPC   C2B68468  37.671  20.904   6.750
 8698POPC   C3B68469  37.701  20.851   7.050
 8698POPC   C4B68470  37.665  20.863   7.350
 8699POPC   NC368471  36.108  34.562   5.550
 8699POPC   PO468472  36.084  34.535   5.850
 8699POPC   GL168473  36.109  34.596   6.150
 8699POPC   GL268474  36.060  34.523   6.150
 8699POPC   C1A68475  36.129  34.585   6.450
 8699POPC   D2A68476  36.133  34.625   6.750
 8699POPC   C3A68477  36.166  34.574   7.050
 8699POPC   C4A68478  36.150  34.599   7.350
 8699POPC   C1B68479  35.896  34.416   6.450
 8699POPC   C2B68480  35.888  34.498   6.750
 8699POPC   C3B68481  35.907  34.433   7.050
 8699POPC   C4B68482  35.901  34.449   7.350
 8700POPC   NC368483  27.639  43.099   5.550
 8700POPC   PO468484  27.591  43.134   5.850
 8700POPC   GL168485  27.598  43.098   6.150
 8700POPC   GL268486  27.697  43.147   6.150
 8700POPC   C1A68487  27.570  43.138   6.450
 8700POPC   D2A68488  27.573  43.156   6.750
 8700POPC   C3A68489  27.612  43.142   7.050
 8700POPC   C4A68490  27.627  43.098   7.350
 8700POPC   C1B68491  27.877  43.070   6.450
 8700POPC   C2B68492  27.837  43.069   6.750
 8700POPC   C3B68493  27.845  43.097   7.050
 8700POPC   C4B68494  27.822  43.087   7.350
 8701POPC   NC368495  33.073  43.090   5.550
 8701POPC   PO468496  33.029  43.097   5.850
 8701POPC   GL168497  33.056  43.147   6.150
 8701POPC   GL268498  33.129  43.197   6.150
 8701POPC   C1A68499  32.999  43.119   6.450
 8701POPC   D2A68500  33.027  43.128   6.750
 8701POPC   C3A68501  33.017  43.101   7.050
 8701POPC   C4A68502  33.000  43.068   7.350
 8701POPC   C1B68503  33.230  43.271   6.450
 8701POPC   C2B68504  33.230  43.269   6.750
 8701POPC   C3B68505  33.199  43.212   7.050
 8701POPC   C4B68506  33.277  43.200   7.350
 8702POPC   NC368507  40.759  33.028   5.550
 8702POPC   PO468508  40.789  32.996   5.850
 8702POPC   GL168509  40.803  33.008   6.150
 8702POPC   GL268510  40.651  32.932   6.150
 8702POPC   C1A68511  40.770  33.061   6.450
 8702POPC   D2A68512  40.799  32.982   6.750
 8702POPC   C3A68513  40.743  33.021   7.050
 8702POPC   C4A68514  40.788  33.050   7.350
 8702POPC   C1B68515  40.618  32.830   6.450
 8702POPC   C2B68516  40.638  32.869   6.750
 8702POPC   C3B68517  40.608  32.837   7.050
 8702POPC   C4B68518  40.627  32.861   7.350
 8703POPC   NC368519  10.538  36.906   5.550
 8703POPC   PO468520  10.477  36.877   5.850
 8703POPC   GL168521  10.547  36.863   6.150
 8703POPC   GL268522  10.423  37.016   6.150
 8703POPC   C1A68523  10.568  36.917   6.450
 8703POPC   D2A68524  10.535  36.931   6.750
 8703POPC   C3A68525  10.504  36.894   7.050
 8703POPC   C4A68526  10.548  36.862   7.350
 8703POPC   C1B68527  10.354  37.061   6.450
 8703POPC   C2B68528  10.303  37.110   6.750
 8703POPC   C3B68529  10.307  37.066   7.050
 8703POPC   C4B68530  10.292  37.090   7.350
 8704POPC   NC368531  11.307  12.094   5.550
 8704POPC   PO468532  11.252  12.104   5.850
 8704POPC   GL168533  11.252  12.045   6.150
 8704POPC   GL268534  11.239  12.237   6.150
 8704POPC   C1A68535  11.292  12.119   6.450
 8704POPC   D2A68536  11.310  12.052   6.750
 8704POPC   C3A68537  11.311  12.037   7.050
 8704POPC   C4A68538  11.322  12.046   7.350
 8704POPC   C1B68539  11.224  12.334   6.450
 8704POPC   C2B68540  11.215  12.354   6.750
 8704POPC   C3B68541  11.262  12.315   7.050
 8704POPC   C4B68542  11.175  12.318   7.350
 8705POPC   NC368543  16.729   5.071   5.550
 8705POPC   PO468544  16.756   5.124   5.850
 8705POPC   GL168545  16.707   5.074   6.150
 8705POPC   GL268546  16.703   4.955   6.150
 8705POPC   C1A68547  16.713   5.124   6.450
 8705POPC   D2A68548  16.764   5.081   6.750
 8705POPC   C3A68549  16.738   5.116   7.050
 8705POPC   C4A68550  16.737   5.118   7.350
 8705POPC   C1B68551  16.636   4.842   6.450
 8705POPC   C2B68552  16.625   4.911   6.750
 8705POPC   C3B68553  16.606   4.876   7.050
 8705POPC   C4B68554  16.568   4.875   7.350
 8706POPC   NC368555  15.182  25.257   5.550
 8706POPC   PO468556  15.185  25.305   5.850
 8706POPC   GL168557  15.151  25.225   6.150
 8706POPC   GL268558  15.294  25.227   6.150
 8706POPC   C1A68559  15.153  25.297   6.450
 8706POPC   D2A68560  15.221  25.277   6.750
 8706POPC   C3A68561  15.207  25.217   7.050
 8706POPC   C4A68562  15.195  25.260   7.350
 8706POPC   C1B68563  15.450  25.236   6.450
 8706POPC   C2B68564  15.441  25.240   6.750
 8706POPC   C3B68565  15.451  25.176   7.050
 8706POPC   C4B68566  15.413  25.236   7.350
 8707POPC   NC368567   5.087  27.631   5.550
 8707POPC   PO468568   5.089  27.629   5.850
 8707POPC   GL168569   5.090  27.594   6.150
 8707POPC   GL268570   5.129  27.734   6.150
 8707POPC   C1A68571   5.055  27.558   6.450
 8707POPC   D2A68572   5.062  27.594   6.750
 8707POPC   C3A68573   5.061  27.577   7.050
 8707POPC   C4A68574   5.047  27.609   7.350
 8707POPC   C1B68575   5.115  27.866   6.450
 8707POPC   C2B68576   5.168  27.871   6.750
 8707POPC   C3B68577   5.164  27.798   7.050
 8707POPC   C4B68578   5.155  27.818   7.350
 8708POPC   NC368579  15.202   4.299   5.550
 8708POPC   PO468580  15.131   4.275   5.850
 8708POPC   GL168581  15.205   4.367   6.150
 8708POPC   GL268582  15.298   4.415   6.150
 8708POPC   C1A68583  15.221   4.319   6.450
 8708POPC   D2A68584  15.194   4.274   6.750
 8708POPC   C3A68585  15.178   4.313   7.050
 8708POPC   C4A68586  15.213   4.284   7.350
 8708POPC   C1B68587  15.364   4.368   6.450
 8708POPC   C2B68588  15.382   4.424   6.750
 8708POPC   C3B68589  15.433   4.413   7.050
 8708POPC   C4B68590  15.377   4.407   7.350
 8709POPC   NC368591   8.229  10.517   5.550
 8709POPC   PO468592   8.206  10.564   5.850
 8709POPC   GL168593   8.155  10.520   6.150
 8709POPC   GL268594   8.319  10.552   6.150
 8709POPC   C1A68595   8.153  10.539   6.450
 8709POPC   D2A68596   8.231  10.506   6.750
 8709POPC   C3A68597   8.183  10.475   7.050
 8709POPC   C4A68598   8.152  10.533   7.350
 8709POPC   C1B68599   8.459  10.560   6.450
 8709POPC   C2B68600   8.430  10.566   6.750
 8709POPC   C3B68601   8.421  10.525   7.050
 8709POPC   C4B68602   8.414  10.480   7.350
 8710POPC   NC368603  44.709   4.294   5.550
 8710POPC   PO468604  44.672   4.339   5.850
 8710POPC   GL168605  44.698   4.322   6.150
 8710POPC   GL268606  44.679   4.482   6.150
 8710POPC   C1A68607  44.655   4.341   6.450
 8710POPC   D2A68608  44.646   4.312   6.750
 8710POPC   C3A68609  44.688   4.286   7.050
 8710POPC   C4A68610  44.649   4.280   7.350
 8710POPC   C1B68611  44.768   4.524   6.450
 8710POPC   C2B68612  44.783   4.566   6.750
 8710POPC   C3B68613  44.735   4.592   7.050
 8710POPC   C4B68614  44.760   4.566   7.350
 8711POPC   NC368615  23.664  10.478   5.550
 8711POPC   PO468616  23.752  10.509   5.850
 8711POPC   GL168617  23.711  10.509   6.150
 8711POPC   GL268618  23.601  10.669   6.150
 8711POPC   C1A68619  23.665  10.479   6.450
 8711POPC   D2A68620  23.739  10.559   6.750
 8711POPC   C3A68621  23.697  10.506   7.050
 8711POPC   C4A68622  23.700  10.523   7.350
 8711POPC   C1B68623  23.518  10.721   6.450
 8711POPC   C2B68624  23.599  10.731   6.750
 8711POPC   C3B68625  23.572  10.691   7.050
 8711POPC   C4B68626  23.550  10.742   7.350
 8712POPC   NC368627   9.794   0.455   5.550
 8712POPC   PO468628   9.743   0.405   5.850
 8712POPC   GL168629   9.729   0.487   6.150
 8712POPC   GL268630   9.617   0.451   6.150
 8712POPC   C1A68631   9.762   0.461   6.450
 8712POPC   D2A68632   9.731   0.433   6.750
 8712POPC   C3A68633   9.771   0.441   7.050
 8712POPC   C4A68634   9.767   0.463   7.350
 8712POPC   C1B68635   9.540   0.390   6.450
 8712POPC   C2B68636   9.522   0.379   6.750
 8712POPC   C3B68637   9.474   0.331   7.050
 8712POPC   C4B68638   9.553   0.409   7.350
 8713POPC   NC368639   9.718  19.013   5.550
 8713POPC   PO468640   9.782  19.045   5.850
 8713POPC   GL168641   9.798  19.052   6.150
 8713POPC   GL268642   9.677  19.177   6.150
 8713POPC   C1A68643   9.739  19.065   6.450
 8713POPC   D2A68644   9.775  19.028   6.750
 8713POPC   C3A68645   9.747  19.046   7.050
 8713POPC   C4A68646   9.758  19.108   7.350
 8713POPC   C1B68647   9.619  19.317   6.450
 8713POPC   C2B68648   9.623  19.270   6.750
 8713POPC   C3B68649   9.675  19.315   7.050
 8713POPC   C4B68650   9.650  19.303   7.350
 8714POPC   NC368651  15.132   9.722   5.550
 8714POPC   PO468652  15.190   9.786   5.850
 8714POPC   GL168653  15.134   9.789   6.150
 8714POPC   GL268654  15.040   9.678   6.150
 8714POPC   C1A68655  15.142   9.704   6.450
 8714POPC   D2A68656  15.196   9.719   6.750
 8714POPC   C3A68657  15.175   9.708   7.050
 8714POPC   C4A68658  15.203   9.716   7.350
 8714POPC   C1B68659  14.948   9.569   6.450
 8714POPC   C2B68660  14.991   9.531   6.750
 8714POPC   C3B68661  14.968   9.629   7.050
 8714POPC   C4B68662  14.947   9.628   7.350
 8715POPC   NC368663  20.607   5.089   5.550
 8715POPC   PO468664  20.577   5.074   5.850
 8715POPC   GL168665  20.630   5.081   6.150
 8715POPC   GL268666  20.593   4.965   6.150
 8715POPC   C1A68667  20.634   5.125   6.450
 8715POPC   D2A68668  20.629   5.048   6.750
 8715POPC   C3A68669  20.607   5.137   7.050
 8715POPC   C4A68670  20.648   5.075   7.350
 8715POPC   C1B68671  20.518   4.849   6.450
 8715POPC   C2B68672  20.452   4.833   6.750
 8715POPC   C3B68673  20.450   4.858   7.050
 8715POPC   C4B68674  20.527   4.868   7.350
 8716POPC   NC368675  36.156  10.514   5.550
 8716POPC   PO468676  36.176  10.490   5.850
 8716POPC   GL168677  36.085  10.569   6.150
 8716POPC   GL268678  36.147  10.350   6.150
 8716POPC   C1A68679  36.113  10.525   6.450
 8716POPC   D2A68680  36.148  10.560   6.750
 8716POPC   C3A68681  36.135  10.540   7.050
 8716POPC   C4A68682  36.109  10.550   7.350
 8716POPC   C1B68683  36.109  10.238   6.450
 8716POPC   C2B68684  36.107  10.317   6.750
 8716POPC   C3B68685  36.107  10.276   7.050
 8716POPC   C4B68686  36.151  10.252   7.350
 8717POPC   NC368687   8.946   0.445   5.550
 8717POPC   PO468688   8.963   0.395   5.850
 8717POPC   GL168689   9.016   0.406   6.150
 8717POPC   GL268690   8.901   0.569   6.150
 8717POPC   C1A68691   9.000   0.407   6.450
 8717POPC   D2A68692   8.958   0.389   6.750
 8717POPC   C3A68693   8.990   0.418   7.050
 8717POPC   C4A68694   9.015   0.428   7.350
 8717POPC   C1B68695   8.770   0.607   6.450
 8717POPC   C2B68696   8.748   0.638   6.750
 8717POPC   C3B68697   8.813   0.619   7.050
 8717POPC   C4B68698   8.772   0.561   7.350
 8718POPC   NC368699  35.355   1.228   5.550
 8718POPC   PO468700  35.357   1.216   5.850
 8718POPC   GL168701  35.339   1.211   6.150
 8718POPC   GL268702  35.480   1.335   6.150
 8718POPC   C1A68703  35.400   1.197   6.450
 8718POPC   D2A68704  35.336   1.176   6.750
 8718POPC   C3A68705  35.356   1.257   7.050
 8718POPC   C4A68706  35.388   1.247   7.350
 8718POPC   C1B68707  35.528   1.368   6.450
 8718POPC   C2B68708  35.539   1.423   6.750
 8718POPC   C3B68709  35.513   1.404   7.050
 8718POPC   C4B68710  35.511   1.397   7.350
 8719POPC   NC368711  38.469  30.743   5.550
 8719POPC   PO468712  38.406  30.652   5.850
 8719POPC   GL168713  38.489  30.661   6.150
 8719POPC   GL268714  38.402  30.826   6.150
 8719POPC   C1A68715  38.495  30.728   6.450
 8719POPC   D2A68716  38.460  30.659   6.750
 8719POPC   C3A68717  38.465  30.708   7.050
 8719POPC   C4A68718  38.457  30.652   7.350
 8719POPC   C1B68719  38.389  30.932   6.450
 8719POPC   C2B68720  38.397  30.900   6.750
 8719POPC   C3B68721  38.431  30.976   7.050
 8719POPC   C4B68722  38.403  30.938   7.350
 8720POPC   NC368723  22.891  41.547   5.550
 8720POPC   PO468724  22.894  41.599   5.850
 8720POPC   GL168725  22.904  41.575   6.150
 8720POPC   GL268726  22.893  41.718   6.150
 8720POPC   C1A68727  22.893  41.563   6.450
 8720POPC   D2A68728  22.904  41.580   6.750
 8720POPC   C3A68729  22.923  41.528   7.050
 8720POPC   C4A68730  22.923  41.566   7.350
 8720POPC   C1B68731  22.861  41.745   6.450
 8720POPC   C2B68732  22.857  41.780   6.750
 8720POPC   C3B68733  22.813  41.789   7.050
 8720POPC   C4B68734  22.814  41.800   7.350
 8721POPC   NC368735   9.710   1.190   5.550
 8721POPC   PO468736   9.742   1.194   5.850
 8721POPC   GL168737   9.743   1.209   6.150
 8721POPC   GL268738   9.681   1.307   6.150
 8721POPC   C1A68739   9.706   1.219   6.450
 8721POPC   D2A68740   9.762   1.172   6.750
 8721POPC   C3A68741   9.725   1.254   7.050
 8721POPC   C4A68742   9.762   1.198   7.350
 8721POPC   C1B68743   9.712   1.506   6.450
 8721POPC   C2B68744   9.650   1.475   6.750
 8721POPC   C3B68745   9.691   1.493   7.050
 8721POPC   C4B68746   9.656   1.480   7.350
 8722POPC   NC368747  30.691  43.129   5.550
 8722POPC   PO468748  30.670  43.081   5.850
 8722POPC   GL168749  30.711  43.079   6.150
 8722POPC   GL268750  30.847  43.121   6.150
 8722POPC   C1A68751  30.694  43.112   6.450
 8722POPC   D2A68752  30.681  43.123   6.750
 8722POPC   C3A68753  30.720  43.111   7.050
 8722POPC   C4A68754  30.656  43.157   7.350
 8722POPC   C1B68755  30.981  43.131   6.450
 8722POPC   C2B68756  30.967  43.178   6.750
 8722POPC   C3B68757  30.932  43.138   7.050
 8722POPC   C4B68758  30.904  43.155   7.350
 8723POPC   NC368759  11.290  26.850   5.550
 8723POPC   PO468760  11.317  26.816   5.850
 8723POPC   GL168761  11.334  26.781   6.150
 8723POPC   GL268762  11.189  26.780   6.150
 8723POPC   C1A68763  11.326  26.819   6.450
 8723POPC   D2A68764  11.294  26.858   6.750
 8723POPC   C3A68765  11.289  26.846   7.050
 8723POPC   C4A68766  11.328  26.851   7.350
 8723POPC   C1B68767  11.043  26.845   6.450
 8723POPC   C2B68768  11.016  26.794   6.750
 8723POPC   C3B68769  11.049  26.864   7.050
 8723POPC   C4B68770  11.028  26.872   7.350
 8724POPC   NC368771  29.896  29.874   5.550
 8724POPC   PO468772  29.887  29.918   5.850
 8724POPC   GL168773  29.921  29.923   6.150
 8724POPC   GL268774  29.900  29.833   6.150
 8724POPC   C1A68775  29.945  29.966   6.450
 8724POPC   D2A68776  29.894  29.915   6.750
 8724POPC   C3A68777  29.920  29.890   7.050
 8724POPC   C4A68778  29.888  29.967   7.350
 8724POPC   C1B68779  29.782  29.673   6.450
 8724POPC   C2B68780  29.822  29.675   6.750
 8724POPC   C3B68781  29.744  29.752   7.050
 8724POPC   C4B68782  29.832  29.743   7.350
 8725POPC   NC368783  31.472  43.151   5.550
 8725POPC   PO468784  31.488  43.086   5.850
 8725POPC   GL168785  31.474  43.160   6.150
 8725POPC   GL268786  31.359  42.993   6.150
 8725POPC   C1A68787  31.466  43.152   6.450
 8725POPC   D2A68788  31.432  43.116   6.750
 8725POPC   C3A68789  31.446  43.107   7.050
 8725POPC   C4A68790  31.431  43.112   7.350
 8725POPC   C1B68791  31.299  42.891   6.450
 8725POPC   C2B68792  31.353  42.869   6.750
 8725POPC   C3B68793  31.323  42.904   7.050
 8725POPC   C4B68794  31.274  42.911   7.350
 8726POPC   NC368795   8.237  12.073   5.550
 8726POPC   PO468796   8.237  12.058   5.850
 8726POPC   GL168797   8.239  12.043   6.150
 8726POPC   GL268798   8.276  12.087   6.150
 8726POPC   C1A68799   8.170  12.031   6.450
 8726POPC   D2A68800   8.227  12.072   6.750
 8726POPC   C3A68801   8.182  12.033   7.050
 8726POPC   C4A68802   8.216  12.064   7.350
 8726POPC   C1B68803   8.426  12.129   6.450
 8726POPC   C2B68804   8.398  12.151   6.750
 8726POPC   C3B68805   8.477  12.126   7.050
 8726POPC   C4B68806   8.451  12.080   7.350
 8727POPC   NC368807   5.090  12.033   5.550
 8727POPC   PO468808   5.124  12.064   5.850
 8727POPC   GL168809   5.051  12.050   6.150
 8727POPC   GL268810   4.976  12.149   6.150
 8727POPC   C1A68811   5.079  12.120   6.450
 8727POPC   D2A68812   5.095  12.041   6.750
 8727POPC   C3A68813   5.076  12.122   7.050
 8727POPC   C4A68814   5.107  12.053   7.350
 8727POPC   C1B68815   4.905  12.201   6.450
 8727POPC   C2B68816   4.910  12.195   6.750
 8727POPC   C3B68817   4.870  12.178   7.050
 8727POPC   C4B68818   4.853  12.219   7.350
 8728POPC   NC368819  25.272  40.746   5.550
 8728POPC   PO468820  25.267  40.756   5.850
 8728POPC   GL168821  25.278  40.774   6.150
 8728POPC   GL268822  25.273  40.916   6.150
 8728POPC   C1A68823  25.294  40.754   6.450
 8728POPC   D2A68824  25.240  40.824   6.750
 8728POPC   C3A68825  25.242  40.824   7.050
 8728POPC   C4A68826  25.250  40.809   7.350
 8728POPC   C1B68827  25.333  40.996   6.450
 8728POPC   C2B68828  25.318  41.048   6.750
 8728POPC   C3B68829  25.270  41.043   7.050
 8728POPC   C4B68830  25.262  41.037   7.350
 8729POPC   NC368831  10.509  13.676   5.550
 8729POPC   PO468832  10.560  13.581   5.850
 8729POPC   GL168833  10.493  13.588   6.150
 8729POPC   GL268834  10.488  13.544   6.150
 8729POPC   C1A68835  10.513  13.592   6.450
 8729POPC   D2A68836  10.540  13.654   6.750
 8729POPC   C3A68837  10.480  13.676   7.050
 8729POPC   C4A68838  10.565  13.656   7.350
 8729POPC   C1B68839  10.476  13.402   6.450
 8729POPC   C2B68840  10.431  13.439   6.750
 8729POPC   C3B68841  10.467  13.442   7.050
 8729POPC   C4B68842  10.430  13.383   7.350
 8730POPC   NC368843  12.125  31.493   5.550
 8730POPC   PO468844  12.043  31.465   5.850
 8730POPC   GL168845  12.051  31.426   6.150
 8730POPC   GL268846  12.156  31.482   6.150
 8730POPC   C1A68847  12.062  31.490   6.450
 8730POPC   D2A68848  12.126  31.442   6.750
 8730POPC   C3A68849  12.058  31.437   7.050
 8730POPC   C4A68850  12.097  31.505   7.350
 8730POPC   C1B68851  12.365  31.498   6.450
 8730POPC   C2B68852  12.296  31.477   6.750
 8730POPC   C3B68853  12.371  31.493   7.050
 8730POPC   C4B68854  12.362  31.521   7.350
 8731POPC   NC368855   5.865   0.477   5.550
 8731POPC   PO468856   5.883   0.427   5.850
 8731POPC   GL168857   5.827   0.469   6.150
 8731POPC   GL268858   5.995   0.535   6.150
 8731POPC   C1A68859   5.867   0.427   6.450
 8731POPC   D2A68860   5.824   0.475   6.750
 8731POPC   C3A68861   5.821   0.416   7.050
 8731POPC   C4A68862   5.919   0.427   7.350
 8731POPC   C1B68863   6.129   0.541   6.450
 8731POPC   C2B68864   6.056   0.575   6.750
 8731POPC   C3B68865   6.046   0.565   7.050
 8731POPC   C4B68866   6.137   0.502   7.350
 8732POPC   NC368867  39.275  17.478   5.550
 8732POPC   PO468868  39.194  17.531   5.850
 8732POPC   GL168869  39.198  17.532   6.150
 8732POPC   GL268870  39.071  17.460   6.150
 8732POPC   C1A68871  39.205  17.541   6.450
 8732POPC   D2A68872  39.257  17.542   6.750
 8732POPC   C3A68873  39.219  17.464   7.050
 8732POPC   C4A68874  39.251  17.531   7.350
 8732POPC   C1B68875  38.995  17.400   6.450
 8732POPC   C2B68876  38.951  17.414   6.750
 8732POPC   C3B68877  38.999  17.482   7.050
 8732POPC   C4B68878  39.020  17.418   7.350
 8733POPC   NC368879  38.425  38.417   5.550
 8733POPC   PO468880  38.502  38.503   5.850
 8733POPC   GL168881  38.490  38.441   6.150
 8733POPC   GL268882  38.382  38.462   6.150
 8733POPC   C1A68883  38.415  38.442   6.450
 8733POPC   D2A68884  38.449  38.443   6.750
 8733POPC   C3A68885  38.434  38.419   7.050
 8733POPC   C4A68886  38.486  38.446   7.350
 8733POPC   C1B68887  38.252  38.354   6.450
 8733POPC   C2B68888  38.232  38.396   6.750
 8733POPC   C3B68889  38.238  38.392   7.050
 8733POPC   C4B68890  38.261  38.444   7.350
 8734POPC   NC368891  33.819   8.991   5.550
 8734POPC   PO468892  33.807   9.020   5.850
 8734POPC   GL168893  33.781   8.938   6.150
 8734POPC   GL268894  33.753   8.876   6.150
 8734POPC   C1A68895  33.761   8.946   6.450
 8734POPC   D2A68896  33.795   8.946   6.750
 8734POPC   C3A68897  33.787   9.010   7.050
 8734POPC   C4A68898  33.830   8.987   7.350
 8734POPC   C1B68899  33.729   8.697   6.450
 8734POPC   C2B68900  33.721   8.709   6.750
 8734POPC   C3B68901  33.787   8.747   7.050
 8734POPC   C4B68902  33.745   8.710   7.350
 8735POPC   NC368903  40.049  14.445   5.550
 8735POPC   PO468904  39.987  14.389   5.850
 8735POPC   GL168905  39.973  14.372   6.150
 8735POPC   GL268906  40.115  14.292   6.150
 8735POPC   C1A68907  39.967  14.395   6.450
 8735POPC   D2A68908  39.996  14.380   6.750
 8735POPC   C3A68909  40.026  14.354   7.050
 8735POPC   C4A68910  40.023  14.393   7.350
 8735POPC   C1B68911  40.169  14.245   6.450
 8735POPC   C2B68912  40.116  14.229   6.750
 8735POPC   C3B68913  40.192  14.233   7.050
 8735POPC   C4B68914  40.144  14.202   7.350
 8736POPC   NC368915  22.957  39.247   5.550
 8736POPC   PO468916  22.954  39.273   5.850
 8736POPC   GL168917  22.898  39.208   6.150
 8736POPC   GL268918  22.815  39.185   6.150
 8736POPC   C1A68919  22.964  39.192   6.450
 8736POPC   D2A68920  22.944  39.232   6.750
 8736POPC   C3A68921  22.899  39.239   7.050
 8736POPC   C4A68922  22.939  39.270   7.350
 8736POPC   C1B68923  22.749  39.167   6.450
 8736POPC   C2B68924  22.726  39.116   6.750
 8736POPC   C3B68925  22.682  39.156   7.050
 8736POPC   C4B68926  22.687  39.166   7.350
 8737POPC   NC368927   5.132   3.535   5.550
 8737POPC   PO468928   5.091   3.530   5.850
 8737POPC   GL168929   5.111   3.551   6.150
 8737POPC   GL268930   5.150   3.640   6.150
 8737POPC   C1A68931   5.068   3.550   6.450
 8737POPC   D2A68932   5.076   3.531   6.750
 8737POPC   C3A68933   5.086   3.590   7.050
 8737POPC   C4A68934   5.097   3.544   7.350
 8737POPC   C1B68935   5.128   3.816   6.450
 8737POPC   C2B68936   5.145   3.801   6.750
 8737POPC   C3B68937   5.206   3.789   7.050
 8737POPC   C4B68938   5.158   3.786   7.350
 8738POPC   NC368939  12.074   5.128   5.550
 8738POPC   PO468940  12.104   5.129   5.850
 8738POPC   GL168941  12.108   5.107   6.150
 8738POPC   GL268942  12.039   5.013   6.150
 8738POPC   C1A68943  12.117   5.110   6.450
 8738POPC   D2A68944  12.103   5.107   6.750
 8738POPC   C3A68945  12.123   5.118   7.050
 8738POPC   C4A68946  12.070   5.108   7.350
 8738POPC   C1B68947  12.040   4.807   6.450
 8738POPC   C2B68948  12.086   4.866   6.750
 8738POPC   C3B68949  12.045   4.835   7.050
 8738POPC   C4B68950  12.089   4.864   7.350
 8739POPC   NC368951  25.237  36.125   5.550
 8739POPC   PO468952  25.250  36.120   5.850
 8739POPC   GL168953  25.245  36.142   6.150
 8739POPC   GL268954  25.339  36.249   6.150
 8739POPC   C1A68955  25.249  36.178   6.450
 8739POPC   D2A68956  25.234  36.153   6.750
 8739POPC   C3A68957  25.302  36.106   7.050
 8739POPC   C4A68958  25.273  36.095   7.350
 8739POPC   C1B68959  25.320  36.354   6.450
 8739POPC   C2B68960  25.333  36.326   6.750
 8739POPC   C3B68961  25.365  36.323   7.050
 8739POPC   C4B68962  25.340  36.306   7.350
 8740POPC   NC368963  23.737   1.196   5.550
 8740POPC   PO468964  23.673   1.216   5.850
 8740POPC   GL168965  23.752   1.246   6.150
 8740POPC   GL268966  23.774   1.248   6.150
 8740POPC   C1A68967  23.677   1.182   6.450
 8740POPC   D2A68968  23.711   1.262   6.750
 8740POPC   C3A68969  23.759   1.232   7.050
 8740POPC   C4A68970  23.671   1.191   7.350
 8740POPC   C1B68971  23.933   1.325   6.450
 8740POPC   C2B68972  23.944   1.374   6.750
 8740POPC   C3B68973  23.914   1.369   7.050
 8740POPC   C4B68974  23.964   1.306   7.350
 8741POPC   NC368975  26.856   7.449   5.550
 8741POPC   PO468976  26.830   7.446   5.850
 8741POPC   GL168977  26.812   7.409   6.150
 8741POPC   GL268978  26.690   7.469   6.150
 8741POPC   C1A68979  26.853   7.443   6.450
 8741POPC   D2A68980  26.852   7.443   6.750
 8741POPC   C3A68981  26.813   7.412   7.050
 8741POPC   C4A68982  26.769   7.381   7.350
 8741POPC   C1B68983  26.623   7.586   6.450
 8741POPC   C2B68984  26.651   7.643   6.750
 8741POPC   C3B68985  26.593   7.598   7.050
 8741POPC   C4B68986  26.645   7.581   7.350
 8742POPC   NC368987  26.054  33.023   5.550
 8742POPC   PO468988  26.061  33.058   5.850
 8742POPC   GL168989  26.071  33.037   6.150
 8742POPC   GL268990  26.092  33.112   6.150
 8742POPC   C1A68991  26.014  33.028   6.450
 8742POPC   D2A68992  26.078  33.037   6.750
 8742POPC   C3A68993  26.089  32.989   7.050
 8742POPC   C4A68994  26.077  32.988   7.350
 8742POPC   C1B68995  26.129  33.283   6.450
 8742POPC   C2B68996  26.158  33.233   6.750
 8742POPC   C3B68997  26.137  33.235   7.050
 8742POPC   C4B68998  26.138  33.272   7.350
 8743POPC   NC368999  42.364   9.756   5.550
 8743POPC   PO469000  42.298   9.735   5.850
 8743POPC   GL169001  42.289   9.739   6.150
 8743POPC   GL269002  42.347   9.871   6.150
 8743POPC   C1A69003  42.366   9.708   6.450
 8743POPC   D2A69004  42.354   9.723   6.750
 8743POPC   C3A69005  42.378   9.699   7.050
 8743POPC   C4A69006  42.338   9.760   7.350
 8743POPC   C1B69007  42.418   9.983   6.450
 8743POPC   C2B69008  42.414  10.026   6.750
 8743POPC   C3B69009  42.368  10.004   7.050
 8743POPC   C4B69010  42.369   9.959   7.350
 8744POPC   NC369011   2.036  33.779   5.550
 8744POPC   PO469012   1.952  33.847   5.850
 8744POPC   GL169013   1.959  33.837   6.150
 8744POPC   GL269014   2.094  33.752   6.150
 8744POPC   C1A69015   2.037  33.832   6.450
 8744POPC   D2A69016   2.031  33.807   6.750
 8744POPC   C3A69017   1.969  33.825   7.050
 8744POPC   C4A69018   1.996  33.775   7.350
 8744POPC   C1B69019   2.284  33.756   6.450
 8744POPC   C2B69020   2.189  33.758   6.750
 8744POPC   C3B69021   2.228  33.731   7.050
 8744POPC   C4B69022   2.199  33.799   7.350
 8745POPC   NC369023  11.303  35.393   5.550
 8745POPC   PO469024  11.300  35.346   5.850
 8745POPC   GL169025  11.256  35.344   6.150
 8745POPC   GL269026  11.288  35.229   6.150
 8745POPC   C1A69027  11.311  35.359   6.450
 8745POPC   D2A69028  11.299  35.356   6.750
 8745POPC   C3A69029  11.346  35.318   7.050
 8745POPC   C4A69030  11.265  35.345   7.350
 8745POPC   C1B69031  11.221  35.091   6.450
 8745POPC   C2B69032  11.216  35.135   6.750
 8745POPC   C3B69033  11.239  35.074   7.050
 8745POPC   C4B69034  11.212  35.097   7.350
 8746POPC   NC369035  15.147  40.049   5.550
 8746POPC   PO469036  15.155  39.965   5.850
 8746POPC   GL169037  15.214  39.963   6.150
 8746POPC   GL269038  15.192  40.110   6.150
 8746POPC   C1A69039  15.179  39.978   6.450
 8746POPC   D2A69040  15.206  39.980   6.750
 8746POPC   C3A69041  15.224  39.963   7.050
 8746POPC   C4A69042  15.216  40.027   7.350
 8746POPC   C1B69043  15.193  40.219   6.450
 8746POPC   C2B69044  15.171  40.267   6.750
 8746POPC   C3B69045  15.173  40.208   7.050
 8746POPC   C4B69046  15.152  40.263   7.350
 8747POPC   NC369047  12.893  43.844   5.550
 8747POPC   PO469048  12.857  43.854   5.850
 8747POPC   GL169049  12.876  43.911   6.150
 8747POPC   GL269050  12.943  43.807   6.150
 8747POPC   C1A69051  12.850  43.867   6.450
 8747POPC   D2A69052  12.877  43.877   6.750
 8747POPC   C3A69053  12.806  43.879   7.050
 8747POPC   C4A69054  12.859  43.891   7.350
 8747POPC   C1B69055  13.049  43.744   6.450
 8747POPC   C2B69056  13.106  43.835   6.750
 8747POPC   C3B69057  13.070  43.832   7.050
 8747POPC   C4B69058  13.044  43.768   7.350
 8748POPC   NC369059   5.904  33.805   5.550
 8748POPC   PO469060   5.859  33.777   5.850
 8748POPC   GL169061   5.827  33.770   6.150
 8748POPC   GL269062   5.783  33.782   6.150
 8748POPC   C1A69063   5.875  33.756   6.450
 8748POPC   D2A69064   5.919  33.816   6.750
 8748POPC   C3A69065   5.879  33.801   7.050
 8748POPC   C4A69066   5.858  33.756   7.350
 8748POPC   C1B69067   5.634  33.665   6.450
 8748POPC   C2B69068   5.601  33.712   6.750
 8748POPC   C3B69069   5.593  33.671   7.050
 8748POPC   C4B69070   5.624  33.663   7.350
 8749POPC   NC369071   7.381   1.183   5.550
 8749POPC   PO469072   7.459   1.252   5.850
 8749POPC   GL169073   7.428   1.206   6.150
 8749POPC   GL269074   7.470   1.153   6.150
 8749POPC   C1A69075   7.418   1.254   6.450
 8749POPC   D2A69076   7.433   1.253   6.750
 8749POPC   C3A69077   7.398   1.204   7.050
 8749POPC   C4A69078   7.435   1.202   7.350
 8749POPC   C1B69079   7.557   1.010   6.450
 8749POPC   C2B69080   7.552   1.044   6.750
 8749POPC   C3B69081   7.579   1.045   7.050
 8749POPC   C4B69082   7.627   1.013   7.350
 8750POPC   NC369083  38.452  33.763   5.550
 8750POPC   PO469084  38.505  33.814   5.850
 8750POPC   GL169085  38.456  33.837   6.150
 8750POPC   GL269086  38.604  33.761   6.150
 8750POPC   C1A69087  38.442  33.836   6.450
 8750POPC   D2A69088  38.433  33.782   6.750
 8750POPC   C3A69089  38.473  33.811   7.050
 8750POPC   C4A69090  38.410  33.825   7.350
 8750POPC   C1B69091  38.670  33.838   6.450
 8750POPC   C2B69092  38.661  33.774   6.750
 8750POPC   C3B69093  38.742  33.818   7.050
 8750POPC   C4B69094  38.749  33.831   7.350
 8751POPC   NC369095  28.336  42.347   5.550
 8751POPC   PO469096  28.390  42.290   5.850
 8751POPC   GL169097  28.355  42.377   6.150
 8751POPC   GL269098  28.541  42.334   6.150
 8751POPC   C1A69099  28.356  42.337   6.450
 8751POPC   D2A69100  28.348  42.308   6.750
 8751POPC   C3A69101  28.389  42.344   7.050
 8751POPC   C4A69102  28.393  42.314   7.350
 8751POPC   C1B69103  28.593  42.356   6.450
 8751POPC   C2B69104  28.572  42.298   6.750
 8751POPC   C3B69105  28.637  42.376   7.050
 8751POPC   C4B69106  28.591  42.354   7.350
 8752POPC   NC369107  17.543  17.481   5.550
 8752POPC   PO469108  17.534  17.464   5.850
 8752POPC   GL169109  17.497  17.535   6.150
 8752POPC   GL269110  17.407  17.661   6.150
 8752POPC   C1A69111  17.468  17.499   6.450
 8752POPC   D2A69112  17.525  17.527   6.750
 8752POPC   C3A69113  17.550  17.464   7.050
 8752POPC   C4A69114  17.500  17.542   7.350
 8752POPC   C1B69115  17.387  17.749   6.450
 8752POPC   C2B69116  17.353  17.770   6.750
 8752POPC   C3B69117  17.362  17.733   7.050
 8752POPC   C4B69118  17.416  17.709   7.350
 8753POPC   NC369119  22.897  32.298   5.550
 8753POPC   PO469120  22.961  32.255   5.850
 8753POPC   GL169121  22.899  32.276   6.150
 8753POPC   GL269122  22.775  32.235   6.150
 8753POPC   C1A69123  22.947  32.249   6.450
 8753POPC   D2A69124  22.972  32.223   6.750
 8753POPC   C3A69125  22.889  32.264   7.050
 8753POPC   C4A69126  22.954  32.292   7.350
 8753POPC   C1B69127  22.674  32.306   6.450
 8753POPC   C2B69128  22.726  32.286   6.750
 8753POPC   C3B69129  22.705  32.267   7.050
 8753POPC   C4B69130  22.698  32.269   7.350
 8754POPC   NC369131   2.029   7.415   5.550
 8754POPC   PO469132   2.010   7.407   5.850
 8754POPC   GL169133   1.958   7.436   6.150
 8754POPC   GL269134   2.080   7.408   6.150
 8754POPC   C1A69135   2.016   7.427   6.450
 8754POPC   D2A69136   2.026   7.419   6.750
 8754POPC   C3A69137   1.962   7.447   7.050
 8754POPC   C4A69138   1.945   7.444   7.350
 8754POPC   C1B69139   2.253   7.359   6.450
 8754POPC   C2B69140   2.255   7.354   6.750
 8754POPC   C3B69141   2.264   7.282   7.050
 8754POPC   C4B69142   2.220   7.279   7.350
 8755POPC   NC369143  11.347   9.706   5.550
 8755POPC   PO469144  11.313   9.750   5.850
 8755POPC   GL169145  11.250   9.732   6.150
 8755POPC   GL269146  11.441   9.757   6.150
 8755POPC   C1A69147  11.252   9.753   6.450
 8755POPC   D2A69148  11.281   9.725   6.750
 8755POPC   C3A69149  11.318   9.705   7.050
 8755POPC   C4A69150  11.305   9.731   7.350
 8755POPC   C1B69151  11.512   9.667   6.450
 8755POPC   C2B69152  11.507   9.688   6.750
 8755POPC   C3B69153  11.547   9.722   7.050
 8755POPC   C4B69154  11.595   9.713   7.350
 8756POPC   NC369155  43.902   4.282   5.550
 8756POPC   PO469156  43.886   4.323   5.850
 8756POPC   GL169157  43.854   4.359   6.150
 8756POPC   GL269158  44.011   4.374   6.150
 8756POPC   C1A69159  43.904   4.324   6.450
 8756POPC   D2A69160  43.931   4.288   6.750
 8756POPC   C3A69161  43.909   4.339   7.050
 8756POPC   C4A69162  43.879   4.302   7.350
 8756POPC   C1B69163  44.144   4.473   6.450
 8756POPC   C2B69164  44.058   4.465   6.750
 8756POPC   C3B69165  44.108   4.439   7.050
 8756POPC   C4B69166  44.125   4.405   7.350
 8757POPC   NC369167  15.220  42.330   5.550
 8757POPC   PO469168  15.133  42.295   5.850
 8757POPC   GL169169  15.139  42.313   6.150
 8757POPC   GL269170  15.299  42.258   6.150
 8757POPC   C1A69171  15.159  42.371   6.450
 8757POPC   D2A69172  15.218  42.324   6.750
 8757POPC   C3A69173  15.218  42.347   7.050
 8757POPC   C4A69174  15.225  42.302   7.350
 8757POPC   C1B69175  15.325  42.121   6.450
 8757POPC   C2B69176  15.331  42.168   6.750
 8757POPC   C3B69177  15.329  42.180   7.050
 8757POPC   C4B69178  15.356  42.098   7.350
 8758POPC   NC369179   4.336  25.311   5.550
 8758POPC   PO469180   4.332  25.234   5.850
 8758POPC   GL169181   4.366  25.313   6.150
 8758POPC   GL269182   4.417  25.315   6.150
 8758POPC   C1A69183   4.329  25.236   6.450
 8758POPC   D2A69184   4.269  25.270   6.750
 8758POPC   C3A69185   4.364  25.305   7.050
 8758POPC   C4A69186   4.350  25.280   7.350
 8758POPC   C1B69187   4.527  25.313   6.450
 8758POPC   C2B69188   4.522  25.288   6.750
 8758POPC   C3B69189   4.561  25.318   7.050
 8758POPC   C4B69190   4.583  25.282   7.350
 8759POPC   NC369191  25.224  32.217   5.550
 8759POPC   PO469192  25.266  32.230   5.850
 8759POPC   GL169193  25.216  32.268   6.150
 8759POPC   GL269194  25.107  32.319   6.150
 8759POPC   C1A69195  25.290  32.232   6.450
 8759POPC   D2A69196  25.254  32.228   6.750
 8759POPC   C3A69197  25.262  32.238   7.050
 8759POPC   C4A69198  25.225  32.244   7.350
 8759POPC   C1B69199  25.057  32.398   6.450
 8759POPC   C2B69200  25.002  32.384   6.750
 8759POPC   C3B69201  25.090  32.400   7.050
 8759POPC   C4B69202  25.028  32.367   7.350
 8760POPC   NC369203  39.261  40.743   5.550
 8760POPC   PO469204  39.254  40.753   5.850
 8760POPC   GL169205  39.270  40.790   6.150
 8760POPC   GL269206  39.283  40.847   6.150
 8760POPC   C1A69207  39.210  40.767   6.450
 8760POPC   D2A69208  39.182  40.806   6.750
 8760POPC   C3A69209  39.237  40.775   7.050
 8760POPC   C4A69210  39.261  40.761   7.350
 8760POPC   C1B69211  39.318  40.966   6.450
 8760POPC   C2B69212  39.315  40.976   6.750
 8760POPC   C3B69213  39.389  40.984   7.050
 8760POPC   C4B69214  39.359  40.956   7.350
 8761POPC   NC369215   2.810  15.987   5.550
 8761POPC   PO469216   2.721  15.949   5.850
 8761POPC   GL169217   2.737  15.930   6.150
 8761POPC   GL269218   2.664  16.002   6.150
 8761POPC   C1A69219   2.743  15.918   6.450
 8761POPC   D2A69220   2.806  15.974   6.750
 8761POPC   C3A69221   2.797  15.909   7.050
 8761POPC   C4A69222   2.777  15.944   7.350
 8761POPC   C1B69223   2.564  16.075   6.450
 8761POPC   C2B69224   2.565  16.083   6.750
 8761POPC   C3B69225   2.524  16.079   7.050
 8761POPC   C4B69226   2.530  16.138   7.350
 8762POPC   NC369227  35.370  39.278   5.550
 8762POPC   PO469228  35.364  39.203   5.850
 8762POPC   GL169229  35.304  39.259   6.150
 8762POPC   GL269230  35.372  39.352   6.150
 8762POPC   C1A69231  35.327  39.273   6.450
 8762POPC   D2A69232  35.385  39.193   6.750
 8762POPC   C3A69233  35.360  39.269   7.050
 8762POPC   C4A69234  35.391  39.216   7.350
 8762POPC   C1B69235  35.383  39.496   6.450
 8762POPC   C2B69236  35.360  39.506   6.750
 8762POPC   C3B69237  35.366  39.458   7.050
 8762POPC   C4B69238  35.346  39.462   7.350
 8763POPC   NC369239  15.144  18.308   5.550
 8763POPC   PO469240  15.185  18.320   5.850
 8763POPC   GL169241  15.226  18.249   6.150
 8763POPC   GL269242  15.007  18.272   6.150
 8763POPC   C1A69243  15.135  18.325   6.450
 8763POPC   D2A69244  15.198  18.333   6.750
 8763POPC   C3A69245  15.201  18.305   7.050
 8763POPC   C4A69246  15.202  18.251   7.350
 8763POPC   C1B69247  14.906  18.333   6.450
 8763POPC   C2B69248  14.945  18.316   6.750
 8763POPC   C3B69249  14.966  18.304   7.050
 8763POPC   C4B69250  14.944  18.326   7.350
 8764POPC   NC369251  33.058  11.321   5.550
 8764POPC   PO469252  33.019  11.297   5.850
 8764POPC   GL169253  32.992  11.295   6.150
 8764POPC   GL269254  33.098  11.234   6.150
 8764POPC   C1A69255  32.991  11.266   6.450
 8764POPC   D2A69256  33.037  11.299   6.750
 8764POPC   C3A69257  33.028  11.296   7.050
 8764POPC   C4A69258  33.042  11.280   7.350
 8764POPC   C1B69259  33.304  11.186   6.450
 8764POPC   C2B69260  33.294  11.183   6.750
 8764POPC   C3B69261  33.254  11.229   7.050
 8764POPC   C4B69262  33.239  11.188   7.350
 8765POPC   NC369263  26.841  43.072   5.550
 8765POPC   PO469264  26.796  43.086   5.850
 8765POPC   GL169265  26.793  43.130   6.150
 8765POPC   GL269266  26.885  43.204   6.150
 8765POPC   C1A69267  26.807  43.134   6.450
 8765POPC   D2A69268  26.841  43.101   6.750
 8765POPC   C3A69269  26.834  43.103   7.050
 8765POPC   C4A69270  26.805  43.137   7.350
 8765POPC   C1B69271  26.828  43.381   6.450
 8765POPC   C2B69272  26.905  43.357   6.750
 8765POPC   C3B69273  26.864  43.358   7.050
 8765POPC   C4B69274  26.896  43.405   7.350
 8766POPC   NC369275  12.046   9.773   5.550
 8766POPC   PO469276  12.035   9.740   5.850
 8766POPC   GL169277  12.091   9.723   6.150
 8766POPC   GL269278  11.962   9.690   6.150
 8766POPC   C1A69279  12.084   9.734   6.450
 8766POPC   D2A69280  12.080   9.729   6.750
 8766POPC   C3A69281  12.073   9.754   7.050
 8766POPC   C4A69282  12.091   9.729   7.350
 8766POPC   C1B69283  11.883   9.546   6.450
 8766POPC   C2B69284  11.893   9.527   6.750
 8766POPC   C3B69285  11.936   9.563   7.050
 8766POPC   C4B69286  11.868   9.544   7.350
 8767POPC   NC369287  15.955  28.350   5.550
 8767POPC   PO469288  15.965  28.367   5.850
 8767POPC   GL169289  15.946  28.344   6.150
 8767POPC   GL269290  15.830  28.447   6.150
 8767POPC   C1A69291  15.922  28.402   6.450
 8767POPC   D2A69292  15.983  28.357   6.750
 8767POPC   C3A69293  15.957  28.359   7.050
 8767POPC   C4A69294  15.929  28.414   7.350
 8767POPC   C1B69295  15.754  28.492   6.450
 8767POPC   C2B69296  15.729  28.451   6.750
 8767POPC   C3B69297  15.748  28.425   7.050
 8767POPC   C4B69298  15.752  28.418   7.350
 8768POPC   NC369299   7.384  36.904   5.550
 8768POPC   PO469300   7.450  36.938   5.850
 8768POPC   GL169301   7.399  36.887   6.150
 8768POPC   GL269302   7.406  36.802   6.150
 8768POPC   C1A69303   7.383  36.948   6.450
 8768POPC   D2A69304   7.400  36.912   6.750
 8768POPC   C3A69305   7.462  36.947   7.050
 8768POPC   C4A69306   7.457  36.936   7.350
 8768POPC   C1B69307   7.408  36.655   6.450
 8768POPC   C2B69308   7.360  36.704   6.750
 8768POPC   C3B69309   7.413  36.641   7.050
 8768POPC   C4B69310   7.375  36.688   7.350
 8769POPC   NC369311  13.677  17.547   5.550
 8769POPC   PO469312  13.644  17.518   5.850
 8769POPC   GL169313  13.652  17.499   6.150
 8769POPC   GL269314  13.662  17.349   6.150
 8769POPC   C1A69315  13.623  17.511   6.450
 8769POPC   D2A69316  13.631  17.486   6.750
 8769POPC   C3A69317  13.578  17.504   7.050
 8769POPC   C4A69318  13.598  17.485   7.350
 8769POPC   C1B69319  13.694  17.319   6.450
 8769POPC   C2B69320  13.764  17.307   6.750
 8769POPC   C3B69321  13.753  17.280   7.050
 8769POPC   C4B69322  13.760  17.272   7.350
 8770POPC   NC369323  20.598  40.024   5.550
 8770POPC   PO469324  20.645  39.973   5.850
 8770POPC   GL169325  20.563  40.017   6.150
 8770POPC   GL269326  20.647  40.172   6.150
 8770POPC   C1A69327  20.571  40.006   6.450
 8770POPC   D2A69328  20.624  39.960   6.750
 8770POPC   C3A69329  20.590  39.978   7.050
 8770POPC   C4A69330  20.608  40.015   7.350
 8770POPC   C1B69331  20.608  40.257   6.450
 8770POPC   C2B69332  20.599  40.267   6.750
 8770POPC   C3B69333  20.637  40.295   7.050
 8770POPC   C4B69334  20.594  40.231   7.350
 8771POPC   NC369335  19.864  41.597   5.550
 8771POPC   PO469336  19.844  41.573   5.850
 8771POPC   GL169337  19.884  41.568   6.150
 8771POPC   GL269338  19.983  41.596   6.150
 8771POPC   C1A69339  19.859  41.589   6.450
 8771POPC   D2A69340  19.833  41.602   6.750
 8771POPC   C3A69341  19.870  41.515   7.050
 8771POPC   C4A69342  19.823  41.542   7.350
 8771POPC   C1B69343  20.040  41.550   6.450
 8771POPC   C2B69344  20.039  41.559   6.750
 8771POPC   C3B69345  20.101  41.559   7.050
 8771POPC   C4B69346  20.047  41.558   7.350
 8772POPC   NC369347  12.890  12.033   5.550
 8772POPC   PO469348  12.897  12.067   5.850
 8772POPC   GL169349  12.806  12.076   6.150
 8772POPC   GL269350  12.830  11.960   6.150
 8772POPC   C1A69351  12.873  12.112   6.450
 8772POPC   D2A69352  12.809  12.054   6.750
 8772POPC   C3A69353  12.890  12.102   7.050
 8772POPC   C4A69354  12.827  12.038   7.350
 8772POPC   C1B69355  12.821  11.835   6.450
 8772POPC   C2B69356  12.767  11.833   6.750
 8772POPC   C3B69357  12.808  11.878   7.050
 8772POPC   C4B69358  12.833  11.864   7.350
 8773POPC   NC369359   1.217  33.795   5.550
 8773POPC   PO469360   1.219  33.812   5.850
 8773POPC   GL169361   1.192  33.757   6.150
 8773POPC   GL269362   1.066  33.776   6.150
 8773POPC   C1A69363   1.213  33.836   6.450
 8773POPC   D2A69364   1.203  33.813   6.750
 8773POPC   C3A69365   1.261  33.774   7.050
 8773POPC   C4A69366   1.248  33.776   7.350
 8773POPC   C1B69367   1.019  33.647   6.450
 8773POPC   C2B69368   0.982  33.641   6.750
 8773POPC   C3B69369   0.968  33.624   7.050
 8773POPC   C4B69370   1.016  33.715   7.350
 8774POPC   NC369371   9.715   7.413   5.550
 8774POPC   PO469372   9.789   7.459   5.850
 8774POPC   GL169373   9.760   7.438   6.150
 8774POPC   GL269374   9.854   7.363   6.150
 8774POPC   C1A69375   9.701   7.380   6.450
 8774POPC   D2A69376   9.783   7.439   6.750
 8774POPC   C3A69377   9.783   7.458   7.050
 8774POPC   C4A69378   9.715   7.394   7.350
 8774POPC   C1B69379  10.030   7.359   6.450
 8774POPC   C2B69380   9.961   7.434   6.750
 8774POPC   C3B69381   9.987   7.417   7.050
 8774POPC   C4B69382  10.035   7.363   7.350
 8775POPC   NC369383  10.488  35.375   5.550
 8775POPC   PO469384  10.502  35.323   5.850
 8775POPC   GL169385  10.484  35.306   6.150
 8775POPC   GL269386  10.549  35.261   6.150
 8775POPC   C1A69387  10.507  35.370   6.450
 8775POPC   D2A69388  10.550  35.328   6.750
 8775POPC   C3A69389  10.555  35.338   7.050
 8775POPC   C4A69390  10.516  35.317   7.350
 8775POPC   C1B69391  10.475  35.142   6.450
 8775POPC   C2B69392  10.537  35.103   6.750
 8775POPC   C3B69393  10.523  35.102   7.050
 8775POPC   C4B69394  10.456  35.062   7.350
 8776POPC   NC369395  33.844  44.687   5.550
 8776POPC   PO469396  33.817  44.651   5.850
 8776POPC   GL169397  33.809  44.619   6.150
 8776POPC   GL269398  33.822  44.821   6.150
 8776POPC   C1A69399  33.849  44.629   6.450
 8776POPC   D2A69400  33.837  44.702   6.750
 8776POPC   C3A69401  33.780  44.701   7.050
 8776POPC   C4A69402  33.771  44.695   7.350
 8776POPC   C1B69403  33.800  44.870   6.450
 8776POPC   C2B69404  33.862  44.957   6.750
 8776POPC   C3B69405  33.811  44.884   7.050
 8776POPC   C4B69406  33.817  44.919   7.350
 8777POPC   NC369407  26.774   1.982   5.550
 8777POPC   PO469408  26.855   2.015   5.850
 8777POPC   GL169409  26.854   1.980   6.150
 8777POPC   GL269410  26.959   1.979   6.150
 8777POPC   C1A69411  26.857   2.023   6.450
 8777POPC   D2A69412  26.780   2.017   6.750
 8777POPC   C3A69413  26.811   2.026   7.050
 8777POPC   C4A69414  26.790   2.019   7.350
 8777POPC   C1B69415  27.056   2.029   6.450
 8777POPC   C2B69416  27.034   2.103   6.750
 8777POPC   C3B69417  27.093   2.014   7.050
 8777POPC   C4B69418  27.015   2.014   7.350
 8778POPC   NC369419  23.708  36.880   5.550
 8778POPC   PO469420  23.754  36.914   5.850
 8778POPC   GL169421  23.696  36.875   6.150
 8778POPC   GL269422  23.869  36.807   6.150
 8778POPC   C1A69423  23.702  36.952   6.450
 8778POPC   D2A69424  23.701  36.887   6.750
 8778POPC   C3A69425  23.673  36.860   7.050
 8778POPC   C4A69426  23.730  36.905   7.350
 8778POPC   C1B69427  23.899  36.781   6.450
 8778POPC   C2B69428  23.885  36.769   6.750
 8778POPC   C3B69429  23.931  36.770   7.050
 8778POPC   C4B69430  23.892  36.796   7.350
 8779POPC   NC369431  26.772  13.613   5.550
 8779POPC   PO469432  26.794  13.638   5.850
 8779POPC   GL169433  26.828  13.668   6.150
 8779POPC   GL269434  26.752  13.523   6.150
 8779POPC   C1A69435  26.787  13.609   6.450
 8779POPC   D2A69436  26.831  13.653   6.750
 8779POPC   C3A69437  26.806  13.603   7.050
 8779POPC   C4A69438  26.775  13.665   7.350
 8779POPC   C1B69439  26.606  13.510   6.450
 8779POPC   C2B69440  26.573  13.467   6.750
 8779POPC   C3B69441  26.606  13.482   7.050
 8779POPC   C4B69442  26.610  13.485   7.350
 8780POPC   NC369443  13.597  39.215   5.550
 8780POPC   PO469444  13.605  39.203   5.850
 8780POPC   GL169445  13.589  39.225   6.150
 8780POPC   GL269446  13.682  39.381   6.150
 8780POPC   C1A69447  13.660  39.203   6.450
 8780POPC   D2A69448  13.580  39.200   6.750
 8780POPC   C3A69449  13.602  39.211   7.050
 8780POPC   C4A69450  13.616  39.195   7.350
 8780POPC   C1B69451  13.697  39.491   6.450
 8780POPC   C2B69452  13.670  39.515   6.750
 8780POPC   C3B69453  13.737  39.445   7.050
 8780POPC   C4B69454  13.660  39.495   7.350
 8781POPC   NC369455  20.624   0.454   5.550
 8781POPC   PO469456  20.627   0.431   5.850
 8781POPC   GL169457  20.616   0.407   6.150
 8781POPC   GL269458  20.443   0.391   6.150
 8781POPC   C1A69459  20.581   0.410   6.450
 8781POPC   D2A69460  20.659   0.481   6.750
 8781POPC   C3A69461  20.660   0.483   7.050
 8781POPC   C4A69462  20.613   0.461   7.350
 8781POPC   C1B69463  20.373   0.449   6.450
 8781POPC   C2B69464  20.394   0.457   6.750
 8781POPC   C3B69465  20.331   0.403   7.050
 8781POPC   C4B69466  20.360   0.459   7.350
 8782POPC   NC369467  22.889   0.482   5.550
 8782POPC   PO469468  22.985   0.394   5.850
 8782POPC   GL169469  22.946   0.469   6.150
 8782POPC   GL269470  22.911   0.515   6.150
 8782POPC   C1A69471  22.899   0.456   6.450
 8782POPC   D2A69472  22.889   0.485   6.750
 8782POPC   C3A69473  22.967   0.400   7.050
 8782POPC   C4A69474  22.948   0.427   7.350
 8782POPC   C1B69475  22.941   0.654   6.450
 8782POPC   C2B69476  22.930   0.712   6.750
 8782POPC   C3B69477  22.889   0.710   7.050
 8782POPC   C4B69478  22.943   0.688   7.350
 8783POPC   NC369479   9.754  23.710   5.550
 8783POPC   PO469480   9.790  23.670   5.850
 8783POPC   GL169481   9.709  23.750   6.150
 8783POPC   GL269482   9.735  23.610   6.150
 8783POPC   C1A69483   9.794  23.687   6.450
 8783POPC   D2A69484   9.749  23.716   6.750
 8783POPC   C3A69485   9.727  23.754   7.050
 8783POPC   C4A69486   9.783  23.684   7.350
 8783POPC   C1B69487   9.765  23.461   6.450
 8783POPC   C2B69488   9.759  23.485   6.750
 8783POPC   C3B69489   9.768  23.427   7.050
 8783POPC   C4B69490   9.830  23.472   7.350
 8784POPC   NC369491   0.401  22.936   5.550
 8784POPC   PO469492   0.397  22.907   5.850
 8784POPC   GL169493   0.455  22.987   6.150
 8784POPC   GL269494   0.359  22.866   6.150
 8784POPC   C1A69495   0.444  22.894   6.450
 8784POPC   D2A69496   0.399  22.954   6.750
 8784POPC   C3A69497   0.437  22.958   7.050
 8784POPC   C4A69498   0.447  22.919   7.350
 8784POPC   C1B69499   0.268  22.793   6.450
 8784POPC   C2B69500   0.255  22.769   6.750
 8784POPC   C3B69501   0.212  22.814   7.050
 8784POPC   C4B69502   0.199  22.803   7.350
 8785POPC   NC369503  19.071  38.414   5.550
 8785POPC   PO469504  19.011  38.421   5.850
 8785POPC   GL169505  19.066  38.416   6.150
 8785POPC   GL269506  19.178  38.536   6.150
 8785POPC   C1A69507  19.025  38.490   6.450
 8785POPC   D2A69508  19.094  38.494   6.750
 8785POPC   C3A69509  19.047  38.496   7.050
 8785POPC   C4A69510  19.034  38.491   7.350
 8785POPC   C1B69511  19.320  38.555   6.450
 8785POPC   C2B69512  19.271  38.514   6.750
 8785POPC   C3B69513  19.258  38.561   7.050
 8785POPC   C4B69514  19.280  38.484   7.350
 8786POPC   NC369515   1.959  26.769   5.550
 8786POPC   PO469516   1.948  26.786   5.850
 8786POPC   GL169517   1.970  26.777   6.150
 8786POPC   GL269518   2.009  26.931   6.150
 8786POPC   C1A69519   1.943  26.837   6.450
 8786POPC   D2A69520   1.997  26.800   6.750
 8786POPC   C3A69521   2.022  26.854   7.050
 8786POPC   C4A69522   1.975  26.862   7.350
 8786POPC   C1B69523   2.066  27.092   6.450
 8786POPC   C2B69524   2.057  27.072   6.750
 8786POPC   C3B69525   2.072  27.072   7.050
 8786POPC   C4B69526   2.094  27.037   7.350
 8787POPC   NC369527  36.108  41.516   5.550
 8787POPC   PO469528  36.080  41.603   5.850
 8787POPC   GL169529  36.102  41.536   6.150
 8787POPC   GL269530  36.057  41.448   6.150
 8787POPC   C1A69531  36.094  41.529   6.450
 8787POPC   D2A69532  36.122  41.561   6.750
 8787POPC   C3A69533  36.122  41.522   7.050
 8787POPC   C4A69534  36.109  41.549   7.350
 8787POPC   C1B69535  36.081  41.345   6.450
 8787POPC   C2B69536  36.064  41.267   6.750
 8787POPC   C3B69537  36.090  41.339   7.050
 8787POPC   C4B69538  36.104  41.356   7.350
 8788POPC   NC369539   5.098  33.786   5.550
 8788POPC   PO469540   5.087  33.758   5.850
 8788POPC   GL169541   5.062  33.783   6.150
 8788POPC   GL269542   5.166  33.861   6.150
 8788POPC   C1A69543   5.057  33.823   6.450
 8788POPC   D2A69544   5.069  33.834   6.750
 8788POPC   C3A69545   5.062  33.809   7.050
 8788POPC   C4A69546   5.062  33.830   7.350
 8788POPC   C1B69547   5.335  33.903   6.450
 8788POPC   C2B69548   5.365  33.847   6.750
 8788POPC   C3B69549   5.297  33.844   7.050
 8788POPC   C4B69550   5.368  33.916   7.350
 8789POPC   NC369551  16.734  22.196   5.550
 8789POPC   PO469552  16.709  22.157   5.850
 8789POPC   GL169553  16.744  22.167   6.150
 8789POPC   GL269554  16.711  22.283   6.150
 8789POPC   C1A69555  16.759  22.160   6.450
 8789POPC   D2A69556  16.747  22.153   6.750
 8789POPC   C3A69557  16.763  22.146   7.050
 8789POPC   C4A69558  16.730  22.150   7.350
 8789POPC   C1B69559  16.718  22.411   6.450
 8789POPC   C2B69560  16.799  22.403   6.750
 8789POPC   C3B69561  16.760  22.457   7.050
 8789POPC   C4B69562  16.793  22.376   7.350
 8790POPC   NC369563  29.156   7.406   5.550
 8790POPC   PO469564  29.146   7.390   5.850
 8790POPC   GL169565  29.157   7.450   6.150
 8790POPC   GL269566  29.246   7.349   6.150
 8790POPC   C1A69567  29.133   7.380   6.450
 8790POPC   D2A69568  29.179   7.406   6.750
 8790POPC   C3A69569  29.129   7.384   7.050
 8790POPC   C4A69570  29.181   7.447   7.350
 8790POPC   C1B69571  29.381   7.252   6.450
 8790POPC   C2B69572  29.313   7.287   6.750
 8790POPC   C3B69573  29.392   7.260   7.050
 8790POPC   C4B69574  29.394   7.274   7.350
 8791POPC   NC369575  33.030   5.862   5.550
 8791POPC   PO469576  33.073   5.846   5.850
 8791POPC   GL169577  33.041   5.867   6.150
 8791POPC   GL269578  33.087   5.783   6.150
 8791POPC   C1A69579  33.019   5.869   6.450
 8791POPC   D2A69580  33.053   5.845   6.750
 8791POPC   C3A69581  33.027   5.880   7.050
 8791POPC   C4A69582  33.029   5.858   7.350
 8791POPC   C1B69583  33.138   5.709   6.450
 8791POPC   C2B69584  33.184   5.698   6.750
 8791POPC   C3B69585  33.178   5.704   7.050
 8791POPC   C4B69586  33.211   5.682   7.350
 8792POPC   NC369587   5.835  29.110   5.550
 8792POPC   PO469588   5.851  29.162   5.850
 8792POPC   GL169589   5.857  29.140   6.150
 8792POPC   GL269590   6.000  29.213   6.150
 8792POPC   C1A69591   5.918  29.164   6.450
 8792POPC   D2A69592   5.903  29.177   6.750
 8792POPC   C3A69593   5.829  29.134   7.050
 8792POPC   C4A69594   5.832  29.150   7.350
 8792POPC   C1B69595   6.096  29.335   6.450
 8792POPC   C2B69596   6.092  29.286   6.750
 8792POPC   C3B69597   6.106  29.286   7.050
 8792POPC   C4B69598   6.107  29.336   7.350
 8793POPC   NC369599  44.614  15.946   5.550
 8793POPC   PO469600  44.622  15.987   5.850
 8793POPC   GL169601  44.612  15.913   6.150
 8793POPC   GL269602  44.752  16.114   6.150
 8793POPC   C1A69603  44.684  15.952   6.450
 8793POPC   D2A69604  44.615  15.923   6.750
 8793POPC   C3A69605  44.615  16.003   7.050
 8793POPC   C4A69606  44.659  16.001   7.350
 8793POPC   C1B69607  44.767  16.178   6.450
 8793POPC   C2B69608  44.748  16.168   6.750
 8793POPC   C3B69609  44.733  16.217   7.050
 8793POPC   C4B69610  44.798  16.202   7.350
 8794POPC   NC369611  17.490   4.353   5.550
 8794POPC   PO469612  17.509   4.297   5.850
 8794POPC   GL169613  17.468   4.343   6.150
 8794POPC   GL269614  17.494   4.393   6.150
 8794POPC   C1A69615  17.487   4.334   6.450
 8794POPC   D2A69616  17.495   4.338   6.750
 8794POPC   C3A69617  17.519   4.298   7.050
 8794POPC   C4A69618  17.491   4.315   7.350
 8794POPC   C1B69619  17.542   4.604   6.450
 8794POPC   C2B69620  17.459   4.600   6.750
 8794POPC   C3B69621  17.533   4.539   7.050
 8794POPC   C4B69622  17.545   4.529   7.350
 8795POPC   NC369623   5.052   0.404   5.550
 8795POPC   PO469624   5.089   0.466   5.850
 8795POPC   GL169625   5.109   0.424   6.150
 8795POPC   GL269626   5.176   0.552   6.150
 8795POPC   C1A69627   5.083   0.486   6.450
 8795POPC   D2A69628   5.045   0.389   6.750
 8795POPC   C3A69629   5.078   0.400   7.050
 8795POPC   C4A69630   5.103   0.487   7.350
 8795POPC   C1B69631   5.217   0.669   6.450
 8795POPC   C2B69632   5.282   0.650   6.750
 8795POPC   C3B69633   5.223   0.608   7.050
 8795POPC   C4B69634   5.213   0.665   7.350
 8796POPC   NC369635  23.722  23.721   5.550
 8796POPC   PO469636  23.758  23.722   5.850
 8796POPC   GL169637  23.724  23.706   6.150
 8796POPC   GL269638  23.606  23.799   6.150
 8796POPC   C1A69639  23.680  23.756   6.450
 8796POPC   D2A69640  23.684  23.745   6.750
 8796POPC   C3A69641  23.724  23.683   7.050
 8796POPC   C4A69642  23.698  23.741   7.350
 8796POPC   C1B69643  23.548  23.862   6.450
 8796POPC   C2B69644  23.518  23.865   6.750
 8796POPC   C3B69645  23.495  23.880   7.050
 8796POPC   C4B69646  23.529  23.822   7.350
 8797POPC   NC369647  23.728  13.581   5.550
 8797POPC   PO469648  23.688  13.612   5.850
 8797POPC   GL169649  23.719  13.662   6.150
 8797POPC   GL269650  23.876  13.632   6.150
 8797POPC   C1A69651  23.754  13.589   6.450
 8797POPC   D2A69652  23.753  13.674   6.750
 8797POPC   C3A69653  23.697  13.671   7.050
 8797POPC   C4A69654  23.712  13.671   7.350
 8797POPC   C1B69655  23.928  13.714   6.450
 8797POPC   C2B69656  23.979  13.676   6.750
 8797POPC   C3B69657  23.902  13.706   7.050
 8797POPC   C4B69658  23.911  13.757   7.350
 8798POPC   NC369659   7.411  29.893   5.550
 8798POPC   PO469660   7.444  29.962   5.850
 8798POPC   GL169661   7.400  29.877   6.150
 8798POPC   GL269662   7.325  29.972   6.150
 8798POPC   C1A69663   7.384  29.945   6.450
 8798POPC   D2A69664   7.467  29.892   6.750
 8798POPC   C3A69665   7.391  29.873   7.050
 8798POPC   C4A69666   7.430  29.881   7.350
 8798POPC   C1B69667   7.197  30.064   6.450
 8798POPC   C2B69668   7.206  30.033   6.750
 8798POPC   C3B69669   7.233  30.014   7.050
 8798POPC   C4B69670   7.232  30.063   7.350
 8799POPC   NC369671  14.439   9.797   5.550
 8799POPC   PO469672  14.361   9.726   5.850
 8799POPC   GL169673  14.411   9.792   6.150
 8799POPC   GL269674  14.269   9.871   6.150
 8799POPC   C1A69675  14.360   9.728   6.450
 8799POPC   D2A69676  14.439   9.779   6.750
 8799POPC   C3A69677  14.436   9.779   7.050
 8799POPC   C4A69678  14.397   9.701   7.350
 8799POPC   C1B69679  14.187   9.925   6.450
 8799POPC   C2B69680  14.206   9.895   6.750
 8799POPC   C3B69681  14.220   9.966   7.050
 8799POPC   C4B69682  14.236   9.907   7.350
 8800POPC   NC369683  33.000  29.140   5.550
 8800POPC   PO469684  33.009  29.150   5.850
 8800POPC   GL169685  33.009  29.155   6.150
 8800POPC   GL269686  33.187  29.153   6.150
 8800POPC   C1A69687  33.011  29.098   6.450
 8800POPC   D2A69688  33.033  29.186   6.750
 8800POPC   C3A69689  33.060  29.133   7.050
 8800POPC   C4A69690  33.007  29.116   7.350
 8800POPC   C1B69691  33.302  29.139   6.450
 8800POPC   C2B69692  33.308  29.072   6.750
 8800POPC   C3B69693  33.284  29.133   7.050
 8800POPC   C4B69694  33.315  29.129   7.350
 8801POPC   NC369695   5.908  38.492   5.550
 8801POPC   PO469696   5.917  38.492   5.850
 8801POPC   GL169697   5.823  38.422   6.150
 8801POPC   GL269698   5.916  38.396   6.150
 8801POPC   C1A69699   5.842  38.487   6.450
 8801POPC   D2A69700   5.820  38.420   6.750
 8801POPC   C3A69701   5.903  38.483   7.050
 8801POPC   C4A69702   5.886  38.427   7.350
 8801POPC   C1B69703   6.008  38.321   6.450
 8801POPC   C2B69704   6.098  38.308   6.750
 8801POPC   C3B69705   6.028  38.334   7.050
 8801POPC   C4B69706   6.102  38.274   7.350
 8802POPC   NC369707  35.361  30.649   5.550
 8802POPC   PO469708  35.386  30.689   5.850
 8802POPC   GL169709  35.332  30.742   6.150
 8802POPC   GL269710  35.229  30.642   6.150
 8802POPC   C1A69711  35.360  30.704   6.450
 8802POPC   D2A69712  35.317  30.744   6.750
 8802POPC   C3A69713  35.356  30.746   7.050
 8802POPC   C4A69714  35.392  30.700   7.350
 8802POPC   C1B69715  35.118  30.585   6.450
 8802POPC   C2B69716  35.132  30.619   6.750
 8802POPC   C3B69717  35.167  30.594   7.050
 8802POPC   C4B69718  35.125  30.630   7.350
 8803POPC   NC369719  25.221   1.966   5.550
 8803POPC   PO469720  25.239   1.953   5.850
 8803POPC   GL169721  25.301   2.020   6.150
 8803POPC   GL269722  25.235   1.832   6.150
 8803POPC   C1A69723  25.217   2.037   6.450
 8803POPC   D2A69724  25.230   1.991   6.750
 8803POPC   C3A69725  25.280   2.031   7.050
 8803POPC   C4A69726  25.287   1.979   7.350
 8803POPC   C1B69727  25.134   1.767   6.450
 8803POPC   C2B69728  25.207   1.742   6.750
 8803POPC   C3B69729  25.199   1.805   7.050
 8803POPC   C4B69730  25.132   1.764   7.350
 8804POPC   NC369731  12.866  42.362   5.550
 8804POPC   PO469732  12.899  42.300   5.850
 8804POPC   GL169733  12.872  42.336   6.150
 8804POPC   GL269734  12.746  42.406   6.150
 8804POPC   C1A69735  12.894  42.307   6.450
 8804POPC   D2A69736  12.896  42.288   6.750
 8804POPC   C3A69737  12.883  42.317   7.050
 8804POPC   C4A69738  12.804  42.373   7.350
 8804POPC   C1B69739  12.694  42.460   6.450
 8804POPC   C2B69740  12.657  42.507   6.750
 8804POPC   C3B69741  12.626  42.478   7.050
 8804POPC   C4B69742  12.624  42.537   7.350
 8805POPC   NC369743   8.195   8.243   5.550
 8805POPC   PO469744   8.172   8.166   5.850
 8805POPC   GL169745   8.197   8.243   6.150
 8805POPC   GL269746   8.363   8.207   6.150
 8805POPC   C1A69747   8.177   8.148   6.450
 8805POPC   D2A69748   8.193   8.178   6.750
 8805POPC   C3A69749   8.210   8.209   7.050
 8805POPC   C4A69750   8.222   8.202   7.350
 8805POPC   C1B69751   8.401   8.147   6.450
 8805POPC   C2B69752   8.468   8.119   6.750
 8805POPC   C3B69753   8.441   8.087   7.050
 8805POPC   C4B69754   8.412   8.088   7.350
 8806POPC   NC369755   3.513   3.527   5.550
 8806POPC   PO469756   3.507   3.494   5.850
 8806POPC   GL169757   3.546   3.525   6.150
 8806POPC   GL269758   3.561   3.449   6.150
 8806POPC   C1A69759   3.495   3.504   6.450
 8806POPC   D2A69760   3.494   3.508   6.750
 8806POPC   C3A69761   3.505   3.545   7.050
 8806POPC   C4A69762   3.554   3.494   7.350
 8806POPC   C1B69763   3.577   3.301   6.450
 8806POPC   C2B69764   3.637   3.325   6.750
 8806POPC   C3B69765   3.670   3.320   7.050
 8806POPC   C4B69766   3.614   3.328   7.350
 8807POPC   NC369767  22.896  37.634   5.550
 8807POPC   PO469768  22.909  37.658   5.850
 8807POPC   GL169769  22.907  37.653   6.150
 8807POPC   GL269770  22.894  37.809   6.150
 8807POPC   C1A69771  22.910  37.703   6.450
 8807POPC   D2A69772  22.924  37.655   6.750
 8807POPC   C3A69773  22.919  37.700   7.050
 8807POPC   C4A69774  22.952  37.684   7.350
 8807POPC   C1B69775  22.870  37.971   6.450
 8807POPC   C2B69776  22.888  37.883   6.750
 8807POPC   C3B69777  22.883  37.966   7.050
 8807POPC   C4B69778  22.953  37.888   7.350
 8808POPC   NC369779  10.496  22.144   5.550
 8808POPC   PO469780  10.505  22.178   5.850
 8808POPC   GL169781  10.534  22.135   6.150
 8808POPC   GL269782  10.475  22.303   6.150
 8808POPC   C1A69783  10.547  22.189   6.450
 8808POPC   D2A69784  10.475  22.156   6.750
 8808POPC   C3A69785  10.573  22.191   7.050
 8808POPC   C4A69786  10.555  22.141   7.350
 8808POPC   C1B69787  10.372  22.430   6.450
 8808POPC   C2B69788  10.366  22.423   6.750
 8808POPC   C3B69789  10.372  22.358   7.050
 8808POPC   C4B69790  10.374  22.374   7.350
 8809POPC   NC369791   9.722  22.193   5.550
 8809POPC   PO469792   9.718  22.156   5.850
 8809POPC   GL169793   9.728  22.156   6.150
 8809POPC   GL269794   9.788  22.322   6.150
 8809POPC   C1A69795   9.729  22.183   6.450
 8809POPC   D2A69796   9.779  22.197   6.750
 8809POPC   C3A69797   9.718  22.130   7.050
 8809POPC   C4A69798   9.784  22.126   7.350
 8809POPC   C1B69799   9.846  22.402   6.450
 8809POPC   C2B69800   9.795  22.344   6.750
 8809POPC   C3B69801   9.855  22.406   7.050
 8809POPC   C4B69802   9.807  22.351   7.350
 8810POPC   NC369803  34.529  17.510   5.550
 8810POPC   PO469804  34.609  17.503   5.850
 8810POPC   GL169805  34.625  17.479   6.150
 8810POPC   GL269806  34.720  17.555   6.150
 8810POPC   C1A69807  34.541  17.523   6.450
 8810POPC   D2A69808  34.532  17.549   6.750
 8810POPC   C3A69809  34.583  17.463   7.050
 8810POPC   C4A69810  34.552  17.464   7.350
 8810POPC   C1B69811  34.846  17.518   6.450
 8810POPC   C2B69812  34.862  17.506   6.750
 8810POPC   C3B69813  34.823  17.569   7.050
 8810POPC   C4B69814  34.784  17.586   7.350
 8811POPC   NC369815  18.269   5.112   5.550
 8811POPC   PO469816  18.284   5.063   5.850
 8811POPC   GL169817  18.329   5.126   6.150
 8811POPC   GL269818  18.212   5.152   6.150
 8811POPC   C1A69819  18.290   5.115   6.450
 8811POPC   D2A69820  18.262   5.048   6.750
 8811POPC   C3A69821  18.283   5.061   7.050
 8811POPC   C4A69822  18.257   5.119   7.350
 8811POPC   C1B69823  18.099   5.344   6.450
 8811POPC   C2B69824  18.182   5.279   6.750
 8811POPC   C3B69825  18.110   5.259   7.050
 8811POPC   C4B69826  18.186   5.292   7.350
 8812POPC   NC369827  25.277   5.917   5.550
 8812POPC   PO469828  25.238   5.864   5.850
 8812POPC   GL169829  25.233   5.912   6.150
 8812POPC   GL269830  25.152   5.840   6.150
 8812POPC   C1A69831  25.293   5.894   6.450
 8812POPC   D2A69832  25.291   5.824   6.750
 8812POPC   C3A69833  25.300   5.898   7.050
 8812POPC   C4A69834  25.245   5.872   7.350
 8812POPC   C1B69835  25.056   5.872   6.450
 8812POPC   C2B69836  25.006   5.820   6.750
 8812POPC   C3B69837  24.968   5.799   7.050
 8812POPC   C4B69838  25.013   5.827   7.350
 8813POPC   NC369839  22.958  13.674   5.550
 8813POPC   PO469840  22.949  13.655   5.850
 8813POPC   GL169841  22.909  13.664   6.150
 8813POPC   GL269842  22.848  13.594   6.150
 8813POPC   C1A69843  22.925  13.661   6.450
 8813POPC   D2A69844  22.906  13.661   6.750
 8813POPC   C3A69845  22.915  13.589   7.050
 8813POPC   C4A69846  22.938  13.641   7.350
 8813POPC   C1B69847  22.658  13.526   6.450
 8813POPC   C2B69848  22.669  13.525   6.750
 8813POPC   C3B69849  22.723  13.547   7.050
 8813POPC   C4B69850  22.724  13.565   7.350
 8814POPC   NC369851   5.110  13.657   5.550
 8814POPC   PO469852   5.098  13.623   5.850
 8814POPC   GL169853   5.074  13.608   6.150
 8814POPC   GL269854   5.163  13.577   6.150
 8814POPC   C1A69855   5.075  13.623   6.450
 8814POPC   D2A69856   5.132  13.603   6.750
 8814POPC   C3A69857   5.069  13.674   7.050
 8814POPC   C4A69858   5.140  13.655   7.350
 8814POPC   C1B69859   5.247  13.437   6.450
 8814POPC   C2B69860   5.220  13.422   6.750
 8814POPC   C3B69861   5.237  13.476   7.050
 8814POPC   C4B69862   5.236  13.483   7.350
 8815POPC   NC369863  19.066   0.476   5.550
 8815POPC   PO469864  19.040   0.459   5.850
 8815POPC   GL169865  19.054   0.469   6.150
 8815POPC   GL269866  19.002   0.360   6.150
 8815POPC   C1A69867  19.068   0.466   6.450
 8815POPC   D2A69868  19.103   0.442   6.750
 8815POPC   C3A69869  19.087   0.416   7.050
 8815POPC   C4A69870  19.082   0.435   7.350
 8815POPC   C1B69871  18.949   0.220   6.450
 8815POPC   C2B69872  18.988   0.223   6.750
 8815POPC   C3B69873  18.931   0.258   7.050
 8815POPC   C4B69874  18.936   0.201   7.350
 8816POPC   NC369875  39.275  18.316   5.550
 8816POPC   PO469876  39.225  18.240   5.850
 8816POPC   GL169877  39.270  18.250   6.150
 8816POPC   GL269878  39.094  18.319   6.150
 8816POPC   C1A69879  39.215  18.235   6.450
 8816POPC   D2A69880  39.279  18.242   6.750
 8816POPC   C3A69881  39.271  18.255   7.050
 8816POPC   C4A69882  39.229  18.279   7.350
 8816POPC   C1B69883  38.980  18.360   6.450
 8816POPC   C2B69884  39.010  18.381   6.750
 8816POPC   C3B69885  38.957  18.345   7.050
 8816POPC   C4B69886  38.946  18.325   7.350
 8817POPC   NC369887  38.470  22.188   5.550
 8817POPC   PO469888  38.494  22.145   5.850
 8817POPC   GL169889  38.472  22.126   6.150
 8817POPC   GL269890  38.584  22.285   6.150
 8817POPC   C1A69891  38.446  22.150   6.450
 8817POPC   D2A69892  38.478  22.206   6.750
 8817POPC   C3A69893  38.432  22.132   7.050
 8817POPC   C4A69894  38.484  22.133   7.350
 8817POPC   C1B69895  38.656  22.356   6.450
 8817POPC   C2B69896  38.623  22.280   6.750
 8817POPC   C3B69897  38.677  22.266   7.050
 8817POPC   C4B69898  38.704  22.340   7.350
 8818POPC   NC369899  26.831  15.962   5.550
 8818POPC   PO469900  26.774  15.964   5.850
 8818POPC   GL169901  26.862  15.953   6.150
 8818POPC   GL269902  26.875  15.836   6.150
 8818POPC   C1A69903  26.836  15.994   6.450
 8818POPC   D2A69904  26.819  15.956   6.750
 8818POPC   C3A69905  26.813  15.956   7.050
 8818POPC   C4A69906  26.773  15.921   7.350
 8818POPC   C1B69907  27.045  15.812   6.450
 8818POPC   C2B69908  27.034  15.829   6.750
 8818POPC   C3B69909  27.044  15.785   7.050
 8818POPC   C4B69910  27.044  15.784   7.350
 8819POPC   NC369911   5.097  43.097   5.550
 8819POPC   PO469912   5.130  43.063   5.850
 8819POPC   GL169913   5.120  43.125   6.150
 8819POPC   GL269914   5.156  42.987   6.150
 8819POPC   C1A69915   5.112  43.120   6.450
 8819POPC   D2A69916   5.086  43.144   6.750
 8819POPC   C3A69917   5.079  43.155   7.050
 8819POPC   C4A69918   5.070  43.133   7.350
 8819POPC   C1B69919   5.186  42.849   6.450
 8819POPC   C2B69920   5.187  42.906   6.750
 8819POPC   C3B69921   5.231  42.839   7.050
 8819POPC   C4B69922   5.135  42.844   7.350
 8820POPC   NC369923  42.332  39.964   5.550
 8820POPC   PO469924  42.339  39.997   5.850
 8820POPC   GL169925  42.371  39.977   6.150
 8820POPC   GL269926  42.229  40.024   6.150
 8820POPC   C1A69927  42.300  39.998   6.450
 8820POPC   D2A69928  42.364  40.050   6.750
 8820POPC   C3A69929  42.317  40.011   7.050
 8820POPC   C4A69930  42.324  39.987   7.350
 8820POPC   C1B69931  42.095  39.933   6.450
 8820POPC   C2B69932  42.074  40.005   6.750
 8820POPC   C3B69933  42.071  39.973   7.050
 8820POPC   C4B69934  42.127  40.002   7.350
 8821POPC   NC369935  27.562  38.460   5.550
 8821POPC   PO469936  27.558  38.494   5.850
 8821POPC   GL169937  27.610  38.432   6.150
 8821POPC   GL269938  27.556  38.321   6.150
 8821POPC   C1A69939  27.626  38.494   6.450
 8821POPC   D2A69940  27.608  38.442   6.750
 8821POPC   C3A69941  27.556  38.463   7.050
 8821POPC   C4A69942  27.612  38.415   7.350
 8821POPC   C1B69943  27.552  38.162   6.450
 8821POPC   C2B69944  27.525  38.243   6.750
 8821POPC   C3B69945  27.552  38.181   7.050
 8821POPC   C4B69946  27.534  38.183   7.350
 8822POPC   NC369947  28.320   5.133   5.550
 8822POPC   PO469948  28.358   5.080   5.850
 8822POPC   GL169949  28.387   5.053   6.150
 8822POPC   GL269950  28.428   5.175   6.150
 8822POPC   C1A69951  28.365   5.088   6.450
 8822POPC   D2A69952  28.378   5.142   6.750
 8822POPC   C3A69953  28.399   5.062   7.050
 8822POPC   C4A69954  28.327   5.078   7.350
 8822POPC   C1B69955  28.609   5.243   6.450
 8822POPC   C2B69956  28.540   5.209   6.750
 8822POPC   C3B69957  28.559   5.202   7.050
 8822POPC   C4B69958  28.542   5.178   7.350
 8823POPC   NC369959   7.380  26.811   5.550
 8823POPC   PO469960   7.391  26.802   5.850
 8823POPC   GL169961   7.394  26.850   6.150
 8823POPC   GL269962   7.388  26.682   6.150
 8823POPC   C1A69963   7.449  26.834   6.450
 8823POPC   D2A69964   7.427  26.847   6.750
 8823POPC   C3A69965   7.389  26.798   7.050
 8823POPC   C4A69966   7.460  26.829   7.350
 8823POPC   C1B69967   7.326  26.635   6.450
 8823POPC   C2B69968   7.247  26.650   6.750
 8823POPC   C3B69969   7.255  26.635   7.050
 8823POPC   C4B69970   7.266  26.578   7.350
 8824POPC   NC369971  21.400  40.812   5.550
 8824POPC   PO469972  21.432  40.752   5.850
 8824POPC   GL169973  21.398  40.807   6.150
 8824POPC   GL269974  21.390  40.914   6.150
 8824POPC   C1A69975  21.346  40.763   6.450
 8824POPC   D2A69976  21.390  40.795   6.750
 8824POPC   C3A69977  21.338  40.780   7.050
 8824POPC   C4A69978  21.384  40.777   7.350
 8824POPC   C1B69979  21.365  41.039   6.450
 8824POPC   C2B69980  21.342  41.036   6.750
 8824POPC   C3B69981  21.328  41.042   7.050
 8824POPC   C4B69982  21.369  41.052   7.350
 8825POPC   NC369983  28.322  16.699   5.550
 8825POPC   PO469984  28.351  16.744   5.850
 8825POPC   GL169985  28.320  16.716   6.150
 8825POPC   GL269986  28.257  16.639   6.150
 8825POPC   C1A69987  28.354  16.717   6.450
 8825POPC   D2A69988  28.372  16.688   6.750
 8825POPC   C3A69989  28.378  16.778   7.050
 8825POPC   C4A69990  28.375  16.767   7.350
 8825POPC   C1B69991  28.184  16.552   6.450
 8825POPC   C2B69992  28.238  16.568   6.750
 8825POPC   C3B69993  28.248  16.583   7.050
 8825POPC   C4B69994  28.182  16.580   7.350
 8826POPC   NC369995  23.713  44.620   5.550
 8826POPC   PO469996  23.761  44.699   5.850
 8826POPC   GL169997  23.718  44.621   6.150
 8826POPC   GL269998  23.842  44.731   6.150
 8826POPC   C1A69999  23.698  44.652   6.450
 8826POPC   D2A70000  23.667  44.652   6.750
 8826POPC   C3A70001  23.730  44.624   7.050
 8826POPC   C4A70002  23.721  44.666   7.350
 8826POPC   C1B70003  23.936  44.760   6.450
 8826POPC   C2B70004  23.930  44.744   6.750
 8826POPC   C3B70005  23.939  44.704   7.050
 8826POPC   C4B70006  24.001  44.755   7.350
 8827POPC   NC370007   8.211  16.718   5.550
 8827POPC   PO470008   8.178  16.707   5.850
 8827POPC   GL170009   8.193  16.689   6.150
 8827POPC   GL270010   8.261  16.808   6.150
 8827POPC   C1A70011   8.216  16.738   6.450
 8827POPC   D2A70012   8.160  16.701   6.750
 8827POPC   C3A70013   8.173  16.757   7.050
 8827POPC   C4A70014   8.200  16.775   7.350
 8827POPC   C1B70015   8.268  16.955   6.450
 8827POPC   C2B70016   8.274  16.948   6.750
 8827POPC   C3B70017   8.208  16.989   7.050
 8827POPC   C4B70018   8.202  16.938   7.350
 8828POPC   NC370019   4.323  21.366   5.550
 8828POPC   PO470020   4.336  21.383   5.850
 8828POPC   GL170021   4.317  21.425   6.150
 8828POPC   GL270022   4.234  21.308   6.150
 8828POPC   C1A70023   4.349  21.406   6.450
 8828POPC   D2A70024   4.340  21.429   6.750
 8828POPC   C3A70025   4.284  21.338   7.050
 8828POPC   C4A70026   4.272  21.388   7.350
 8828POPC   C1B70027   4.146  21.162   6.450
 8828POPC   C2B70028   4.170  21.215   6.750
 8828POPC   C3B70029   4.212  21.214   7.050
 8828POPC   C4B70030   4.152  21.159   7.350
 8829POPC   NC370031  32.262  39.186   5.550
 8829POPC   PO470032  32.258  39.198   5.850
 8829POPC   GL170033  32.216  39.269   6.150
 8829POPC   GL270034  32.323  39.331   6.150
 8829POPC   C1A70035  32.203  39.193   6.450
 8829POPC   D2A70036  32.286  39.237   6.750
 8829POPC   C3A70037  32.256  39.239   7.050
 8829POPC   C4A70038  32.297  39.223   7.350
 8829POPC   C1B70039  32.349  39.420   6.450
 8829POPC   C2B70040  32.305  39.510   6.750
 8829POPC   C3B70041  32.303  39.480   7.050
 8829POPC   C4B70042  32.293  39.476   7.350
 8830POPC   NC370043   1.210  24.477   5.550
 8830POPC   PO470044   1.181  24.501   5.850
 8830POPC   GL170045   1.178  24.481   6.150
 8830POPC   GL270046   1.298  24.383   6.150
 8830POPC   C1A70047   1.242  24.498   6.450
 8830POPC   D2A70048   1.219  24.512   6.750
 8830POPC   C3A70049   1.196  24.476   7.050
 8830POPC   C4A70050   1.249  24.523   7.350
 8830POPC   C1B70051   1.367  24.286   6.450
 8830POPC   C2B70052   1.387  24.287   6.750
 8830POPC   C3B70053   1.368  24.300   7.050
 8830POPC   C4B70054   1.378  24.327   7.350
 8831POPC   NC370055   7.445  32.208   5.550
 8831POPC   PO470056   7.419  32.270   5.850
 8831POPC   GL170057   7.457  32.215   6.150
 8831POPC   GL270058   7.276  32.251   6.150
 8831POPC   C1A70059   7.430  32.253   6.450
 8831POPC   D2A70060   7.412  32.263   6.750
 8831POPC   C3A70061   7.468  32.246   7.050
 8831POPC   C4A70062   7.467  32.223   7.350
 8831POPC   C1B70063   7.151  32.226   6.450
 8831POPC   C2B70064   7.144  32.151   6.750
 8831POPC   C3B70065   7.230  32.190   7.050
 8831POPC   C4B70066   7.204  32.225   7.350
 8832POPC   NC370067  12.042  35.312   5.550
 8832POPC   PO470068  12.047  35.370   5.850
 8832POPC   GL170069  12.085  35.402   6.150
 8832POPC   GL270070  11.969  35.297   6.150
 8832POPC   C1A70071  12.111  35.343   6.450
 8832POPC   D2A70072  12.038  35.388   6.750
 8832POPC   C3A70073  12.036  35.395   7.050
 8832POPC   C4A70074  12.098  35.365   7.350
 8832POPC   C1B70075  11.939  35.185   6.450
 8832POPC   C2B70076  11.924  35.128   6.750
 8832POPC   C3B70077  11.928  35.174   7.050
 8832POPC   C4B70078  11.866  35.161   7.350
 8833POPC   NC370079  33.065  44.646   5.550
 8833POPC   PO470080  32.997  44.699   5.850
 8833POPC   GL170081  33.050  44.635   6.150
 8833POPC   GL270082  32.906  44.646   6.150
 8833POPC   C1A70083  33.072  44.614   6.450
 8833POPC   D2A70084  32.978  44.630   6.750
 8833POPC   C3A70085  33.056  44.633   7.050
 8833POPC   C4A70086  33.048  44.712   7.350
 8833POPC   C1B70087  32.801  44.518   6.450
 8833POPC   C2B70088  32.826  44.520   6.750
 8833POPC   C3B70089  32.853  44.547   7.050
 8833POPC   C4B70090  32.794  44.554   7.350
 8834POPC   NC370091  15.938  12.825   5.550
 8834POPC   PO470092  15.930  12.806   5.850
 8834POPC   GL170093  15.972  12.889   6.150
 8834POPC   GL270094  15.988  12.677   6.150
 8834POPC   C1A70095  15.922  12.865   6.450
 8834POPC   D2A70096  15.916  12.802   6.750
 8834POPC   C3A70097  15.932  12.861   7.050
 8834POPC   C4A70098  15.991  12.807   7.350
 8834POPC   C1B70099  15.936  12.608   6.450
 8834POPC   C2B70100  15.957  12.569   6.750
 8834POPC   C3B70101  15.939  12.574   7.050
 8834POPC   C4B70102  16.014  12.598   7.350
 8835POPC   NC370103  34.552   9.779   5.550
 8835POPC   PO470104  34.613   9.791   5.850
 8835POPC   GL170105  34.568   9.761   6.150
 8835POPC   GL270106  34.733   9.783   6.150
 8835POPC   C1A70107  34.592   9.702   6.450
 8835POPC   D2A70108  34.602   9.784   6.750
 8835POPC   C3A70109  34.608   9.772   7.050
 8835POPC   C4A70110  34.604   9.738   7.350
 8835POPC   C1B70111  34.849   9.751   6.450
 8835POPC   C2B70112  34.846   9.798   6.750
 8835POPC   C3B70113  34.867   9.819   7.050
 8835POPC   C4B70114  34.819   9.778   7.350
 8836POPC   NC370115  33.022   1.251   5.550
 8836POPC   PO470116  33.025   1.225   5.850
 8836POPC   GL170117  33.062   1.175   6.150
 8836POPC   GL270118  33.009   1.335   6.150
 8836POPC   C1A70119  32.988   1.169   6.450
 8836POPC   D2A70120  33.030   1.170   6.750
 8836POPC   C3A70121  33.026   1.192   7.050
 8836POPC   C4A70122  32.998   1.224   7.350
 8836POPC   C1B70123  33.068   1.442   6.450
 8836POPC   C2B70124  33.084   1.465   6.750
 8836POPC   C3B70125  33.070   1.432   7.050
 8836POPC   C4B70126  33.089   1.443   7.350
 8837POPC   NC370127   5.857   4.276   5.550
 8837POPC   PO470128   5.864   4.274   5.850
 8837POPC   GL170129   5.846   4.339   6.150
 8837POPC   GL270130   5.759   4.279   6.150
 8837POPC   C1A70131   5.848   4.318   6.450
 8837POPC   D2A70132   5.871   4.367   6.750
 8837POPC   C3A70133   5.825   4.365   7.050
 8837POPC   C4A70134   5.825   4.367   7.350
 8837POPC   C1B70135   5.712   4.192   6.450
 8837POPC   C2B70136   5.651   4.159   6.750
 8837POPC   C3B70137   5.713   4.145   7.050
 8837POPC   C4B70138   5.652   4.116   7.350
 8838POPC   NC370139  33.753  20.645   5.550
 8838POPC   PO470140  33.825  20.576   5.850
 8838POPC   GL170141  33.779  20.581   6.150
 8838POPC   GL270142  33.760  20.448   6.150
 8838POPC   C1A70143  33.816  20.588   6.450
 8838POPC   D2A70144  33.823  20.576   6.750
 8838POPC   C3A70145  33.781  20.611   7.050
 8838POPC   C4A70146  33.775  20.612   7.350
 8838POPC   C1B70147  33.698  20.387   6.450
 8838POPC   C2B70148  33.734  20.395   6.750
 8838POPC   C3B70149  33.784  20.335   7.050
 8838POPC   C4B70150  33.730  20.373   7.350
 8839POPC   NC370151  22.143   2.021   5.550
 8839POPC   PO470152  22.113   1.954   5.850
 8839POPC   GL170153  22.166   1.997   6.150
 8839POPC   GL270154  22.001   2.036   6.150
 8839POPC   C1A70155  22.152   2.005   6.450
 8839POPC   D2A70156  22.202   2.006   6.750
 8839POPC   C3A70157  22.144   1.967   7.050
 8839POPC   C4A70158  22.201   2.011   7.350
 8839POPC   C1B70159  21.866   2.021   6.450
 8839POPC   C2B70160  21.873   2.026   6.750
 8839POPC   C3B70161  21.929   2.038   7.050
 8839POPC   C4B70162  21.945   2.019   7.350
 8840POPC   NC370163  12.880  32.233   5.550
 8840POPC   PO470164  12.812  32.295   5.850
 8840POPC   GL170165  12.808  32.207   6.150
 8840POPC   GL270166  12.984  32.211   6.150
 8840POPC   C1A70167  12.856  32.245   6.450
 8840POPC   D2A70168  12.865  32.201   6.750
 8840POPC   C3A70169  12.802  32.295   7.050
 8840POPC   C4A70170  12.888  32.253   7.350
 8840POPC   C1B70171  13.082  32.276   6.450
 8840POPC   C2B70172  13.122  32.271   6.750
 8840POPC   C3B70173  13.069  32.264   7.050
 8840POPC   C4B70174  13.134  32.208   7.350
 8841POPC   NC370175   4.291  11.323   5.550
 8841POPC   PO470176   4.345  11.343   5.850
 8841POPC   GL170177   4.284  11.256   6.150
 8841POPC   GL270178   4.229  11.278   6.150
 8841POPC   C1A70179   4.310  11.331   6.450
 8841POPC   D2A70180   4.278  11.318   6.750
 8841POPC   C3A70181   4.272  11.273   7.050
 8841POPC   C4A70182   4.280  11.344   7.350
 8841POPC   C1B70183   4.086  11.158   6.450
 8841POPC   C2B70184   4.112  11.144   6.750
 8841POPC   C3B70185   4.082  11.175   7.050
 8841POPC   C4B70186   4.062  11.157   7.350
 8842POPC   NC370187   2.793  10.533   5.550
 8842POPC   PO470188   2.798  10.477   5.850
 8842POPC   GL170189   2.811  10.483   6.150
 8842POPC   GL270190   2.861  10.680   6.150
 8842POPC   C1A70191   2.724  10.553   6.450
 8842POPC   D2A70192   2.762  10.559   6.750
 8842POPC   C3A70193   2.754  10.519   7.050
 8842POPC   C4A70194   2.750  10.535   7.350
 8842POPC   C1B70195   2.830  10.794   6.450
 8842POPC   C2B70196   2.844  10.751   6.750
 8842POPC   C3B70197   2.917  10.783   7.050
 8842POPC   C4B70198   2.894  10.746   7.350
 8843POPC   NC370199  44.613  22.198   5.550
 8843POPC   PO470200  44.678  22.155   5.850
 8843POPC   GL170201  44.617  22.143   6.150
 8843POPC   GL270202  44.782  22.105   6.150
 8843POPC   C1A70203  44.652  22.203   6.450
 8843POPC   D2A70204  44.622  22.132   6.750
 8843POPC   C3A70205  44.662  22.175   7.050
 8843POPC   C4A70206  44.687  22.175   7.350
 8843POPC   C1B70207  44.800  22.009   6.450
 8843POPC   C2B70208  44.868  22.030   6.750
 8843POPC   C3B70209  44.806  21.985   7.050
 8843POPC   C4B70210  44.871  21.970   7.350
 8844POPC   NC370211   5.093  26.855   5.550
 8844POPC   PO470212   5.067  26.771   5.850
 8844POPC   GL170213   5.078  26.843   6.150
 8844POPC   GL270214   5.161  26.946   6.150
 8844POPC   C1A70215   5.098  26.800   6.450
 8844POPC   D2A70216   5.057  26.835   6.750
 8844POPC   C3A70217   5.124  26.830   7.050
 8844POPC   C4A70218   5.097  26.839   7.350
 8844POPC   C1B70219   5.233  27.022   6.450
 8844POPC   C2B70220   5.227  27.061   6.750
 8844POPC   C3B70221   5.290  26.990   7.050
 8844POPC   C4B70222   5.222  27.003   7.350
 8845POPC   NC370223  21.393  21.375   5.550
 8845POPC   PO470224  21.345  21.384   5.850
 8845POPC   GL170225  21.354  21.387   6.150
 8845POPC   GL270226  21.492  21.391   6.150
 8845POPC   C1A70227  21.436  21.401   6.450
 8845POPC   D2A70228  21.352  21.412   6.750
 8845POPC   C3A70229  21.380  21.407   7.050
 8845POPC   C4A70230  21.362  21.352   7.350
 8845POPC   C1B70231  21.610  21.419   6.450
 8845POPC   C2B70232  21.657  21.395   6.750
 8845POPC   C3B70233  21.598  21.403   7.050
 8845POPC   C4B70234  21.645  21.387   7.350
 8846POPC   NC370235  32.254  23.681   5.550
 8846POPC   PO470236  32.292  23.745   5.850
 8846POPC   GL170237  32.213  23.670   6.150
 8846POPC   GL270238  32.135  23.780   6.150
 8846POPC   C1A70239  32.295  23.687   6.450
 8846POPC   D2A70240  32.206  23.736   6.750
 8846POPC   C3A70241  32.218  23.720   7.050
 8846POPC   C4A70242  32.288  23.694   7.350
 8846POPC   C1B70243  32.069  23.857   6.450
 8846POPC   C2B70244  32.092  23.937   6.750
 8846POPC   C3B70245  32.036  23.864   7.050
 8846POPC   C4B70246  32.078  23.847   7.350
 8847POPC   NC370247  29.177  19.023   5.550
 8847POPC   PO470248  29.184  19.093   5.850
 8847POPC   GL170249  29.185  19.020   6.150
 8847POPC   GL270250  29.204  19.170   6.150
 8847POPC   C1A70251  29.147  19.062   6.450
 8847POPC   D2A70252  29.166  19.105   6.750
 8847POPC   C3A70253  29.150  19.080   7.050
 8847POPC   C4A70254  29.119  19.090   7.350
 8847POPC   C1B70255  29.241  19.303   6.450
 8847POPC   C2B70256  29.258  19.284   6.750
 8847POPC   C3B70257  29.270  19.246   7.050
 8847POPC   C4B70258  29.296  19.267   7.350
 8848POPC   NC370259  32.209  11.257   5.550
 8848POPC   PO470260  32.204  11.275   5.850
 8848POPC   GL170261  32.227  11.324   6.150
 8848POPC   GL270262  32.236  11.183   6.150
 8848POPC   C1A70263  32.201  11.302   6.450
 8848POPC   D2A70264  32.202  11.258   6.750
 8848POPC   C3A70265  32.254  11.346   7.050
 8848POPC   C4A70266  32.290  11.348   7.350
 8848POPC   C1B70267  32.290  11.055   6.450
 8848POPC   C2B70268  32.361  11.090   6.750
 8848POPC   C3B70269  32.350  11.097   7.050
 8848POPC   C4B70270  32.285  11.075   7.350
 8849POPC   NC370271  42.315  13.604   5.550
 8849POPC   PO470272  42.346  13.663   5.850
 8849POPC   GL170273  42.298  13.596   6.150
 8849POPC   GL270274  42.267  13.486   6.150
 8849POPC   C1A70275  42.378  13.627   6.450
 8849POPC   D2A70276  42.301  13.589   6.750
 8849POPC   C3A70277  42.377  13.613   7.050
 8849POPC   C4A70278  42.383  13.651   7.350
 8849POPC   C1B70279  42.250  13.399   6.450
 8849POPC   C2B70280  42.297  13.427   6.750
 8849POPC   C3B70281  42.280  13.398   7.050
 8849POPC   C4B70282  42.239  13.433   7.350
 8850POPC   NC370283  15.991  44.625   5.550
 8850POPC   PO470284  15.933  44.683   5.850
 8850POPC   GL170285  15.972  44.641   6.150
 8850POPC   GL270286  16.033  44.770   6.150
 8850POPC   C1A70287  15.954  44.712   6.450
 8850POPC   D2A70288  15.995  44.690   6.750
 8850POPC   C3A70289  15.963  44.619   7.050
 8850POPC   C4A70290  15.969  44.664   7.350
 8850POPC   C1B70291  16.084  44.824   6.450
 8850POPC   C2B70292  16.099  44.889   6.750
 8850POPC   C3B70293  16.078  44.855   7.050
 8850POPC   C4B70294  16.159  44.867   7.350
 8851POPC   NC370295   2.770   3.545   5.550
 8851POPC   PO470296   2.752   3.546   5.850
 8851POPC   GL170297   2.771   3.493   6.150
 8851POPC   GL270298   2.627   3.562   6.150
 8851POPC   C1A70299   2.761   3.543   6.450
 8851POPC   D2A70300   2.785   3.513   6.750
 8851POPC   C3A70301   2.811   3.565   7.050
 8851POPC   C4A70302   2.785   3.590   7.350
 8851POPC   C1B70303   2.487   3.590   6.450
 8851POPC   C2B70304   2.510   3.544   6.750
 8851POPC   C3B70305   2.563   3.547   7.050
 8851POPC   C4B70306   2.539   3.555   7.350
 8852POPC   NC370307   6.688  14.356   5.550
 8852POPC   PO470308   6.635  14.387   5.850
 8852POPC   GL170309   6.675  14.450   6.150
 8852POPC   GL270310   6.632  14.284   6.150
 8852POPC   C1A70311   6.658  14.378   6.450
 8852POPC   D2A70312   6.677  14.374   6.750
 8852POPC   C3A70313   6.619  14.396   7.050
 8852POPC   C4A70314   6.686  14.439   7.350
 8852POPC   C1B70315   6.694  14.204   6.450
 8852POPC   C2B70316   6.704  14.148   6.750
 8852POPC   C3B70317   6.644  14.138   7.050
 8852POPC   C4B70318   6.626  14.153   7.350
 8853POPC   NC370319  23.713  19.036   5.550
 8853POPC   PO470320  23.724  19.055   5.850
 8853POPC   GL170321  23.688  19.067   6.150
 8853POPC   GL270322  23.751  18.929   6.150
 8853POPC   C1A70323  23.680  19.085   6.450
 8853POPC   D2A70324  23.706  19.044   6.750
 8853POPC   C3A70325  23.671  19.047   7.050
 8853POPC   C4A70326  23.689  19.057   7.350
 8853POPC   C1B70327  23.759  18.805   6.450
 8853POPC   C2B70328  23.704  18.816   6.750
 8853POPC   C3B70329  23.703  18.835   7.050
 8853POPC   C4B70330  23.762  18.803   7.350
 8854POPC   NC370331   2.785  21.412   5.550
 8854POPC   PO470332   2.774  21.372   5.850
 8854POPC   GL170333   2.809  21.418   6.150
 8854POPC   GL270334   2.764  21.469   6.150
 8854POPC   C1A70335   2.728  21.347   6.450
 8854POPC   D2A70336   2.807  21.392   6.750
 8854POPC   C3A70337   2.812  21.409   7.050
 8854POPC   C4A70338   2.723  21.337   7.350
 8854POPC   C1B70339   2.750  21.659   6.450
 8854POPC   C2B70340   2.715  21.643   6.750
 8854POPC   C3B70341   2.724  21.643   7.050
 8854POPC   C4B70342   2.719  21.613   7.350
 8855POPC   NC370343  14.387  17.519   5.550
 8855POPC   PO470344  14.399  17.470   5.850
 8855POPC   GL170345  14.428  17.505   6.150
 8855POPC   GL270346  14.400  17.645   6.150
 8855POPC   C1A70347  14.391  17.498   6.450
 8855POPC   D2A70348  14.374  17.537   6.750
 8855POPC   C3A70349  14.425  17.494   7.050
 8855POPC   C4A70350  14.379  17.535   7.350
 8855POPC   C1B70351  14.456  17.735   6.450
 8855POPC   C2B70352  14.480  17.782   6.750
 8855POPC   C3B70353  14.520  17.711   7.050
 8855POPC   C4B70354  14.483  17.721   7.350
 8856POPC   NC370355   2.732  12.863   5.550
 8856POPC   PO470356   2.728  12.881   5.850
 8856POPC   GL170357   2.809  12.874   6.150
 8856POPC   GL270358   2.887  12.815   6.150
 8856POPC   C1A70359   2.736  12.825   6.450
 8856POPC   D2A70360   2.752  12.869   6.750
 8856POPC   C3A70361   2.725  12.885   7.050
 8856POPC   C4A70362   2.792  12.815   7.350
 8856POPC   C1B70363   3.007  12.801   6.450
 8856POPC   C2B70364   3.011  12.878   6.750
 8856POPC   C3B70365   3.025  12.855   7.050
 8856POPC   C4B70366   3.055  12.804   7.350
 8857POPC   NC370367   0.404  24.463   5.550
 8857POPC   PO470368   0.486  24.515   5.850
 8857POPC   GL170369   0.431  24.513   6.150
 8857POPC   GL270370   0.538  24.448   6.150
 8857POPC   C1A70371   0.452  24.458   6.450
 8857POPC   D2A70372   0.479  24.502   6.750
 8857POPC   C3A70373   0.419  24.447   7.050
 8857POPC   C4A70374   0.429  24.484   7.350
 8857POPC   C1B70375   0.666  24.372   6.450
 8857POPC   C2B70376   0.605  24.361   6.750
 8857POPC   C3B70377   0.613  24.365   7.050
 8857POPC   C4B70378   0.640  24.356   7.350
 8858POPC   NC370379  25.994  15.219   5.550
 8858POPC   PO470380  26.064  15.224   5.850
 8858POPC   GL170381  26.071  15.167   6.150
 8858POPC   GL270382  25.890  15.129   6.150
 8858POPC   C1A70383  26.061  15.145   6.450
 8858POPC   D2A70384  26.041  15.139   6.750
 8858POPC   C3A70385  26.074  15.155   7.050
 8858POPC   C4A70386  26.075  15.185   7.350
 8858POPC   C1B70387  25.822  15.038   6.450
 8858POPC   C2B70388  25.856  15.050   6.750
 8858POPC   C3B70389  25.829  15.054   7.050
 8858POPC   C4B70390  25.784  15.118   7.350
 8859POPC   NC370391   1.197  20.565   5.550
 8859POPC   PO470392   1.239  20.587   5.850
 8859POPC   GL170393   1.240  20.641   6.150
 8859POPC   GL270394   1.229  20.697   6.150
 8859POPC   C1A70395   1.217  20.656   6.450
 8859POPC   D2A70396   1.239  20.582   6.750
 8859POPC   C3A70397   1.232  20.621   7.050
 8859POPC   C4A70398   1.206  20.609   7.350
 8859POPC   C1B70399   1.299  20.832   6.450
 8859POPC   C2B70400   1.215  20.900   6.750
 8859POPC   C3B70401   1.284  20.820   7.050
 8859POPC   C4B70402   1.219  20.816   7.350
 8860POPC   NC370403  42.292  25.269   5.550
 8860POPC   PO470404  42.298  25.217   5.850
 8860POPC   GL170405  42.317  25.281   6.150
 8860POPC   GL270406  42.280  25.134   6.150
 8860POPC   C1A70407  42.288  25.250   6.450
 8860POPC   D2A70408  42.327  25.301   6.750
 8860POPC   C3A70409  42.310  25.250   7.050
 8860POPC   C4A70410  42.351  25.301   7.350
 8860POPC   C1B70411  42.266  25.018   6.450
 8860POPC   C2B70412  42.239  25.057   6.750
 8860POPC   C3B70413  42.230  24.982   7.050
 8860POPC   C4B70414  42.252  25.048   7.350
 8861POPC   NC370415  15.929  26.791   5.550
 8861POPC   PO470416  15.992  26.860   5.850
 8861POPC   GL170417  15.957  26.802   6.150
 8861POPC   GL270418  15.837  26.714   6.150
 8861POPC   C1A70419  15.990  26.807   6.450
 8861POPC   D2A70420  15.916  26.786   6.750
 8861POPC   C3A70421  15.961  26.794   7.050
 8861POPC   C4A70422  15.930  26.779   7.350
 8861POPC   C1B70423  15.781  26.649   6.450
 8861POPC   C2B70424  15.810  26.668   6.750
 8861POPC   C3B70425  15.772  26.709   7.050
 8861POPC   C4B70426  15.726  26.664   7.350
 8862POPC   NC370427  36.131   5.142   5.550
 8862POPC   PO470428  36.152   5.055   5.850
 8862POPC   GL170429  36.092   5.130   6.150
 8862POPC   GL270430  36.014   5.069   6.150
 8862POPC   C1A70431  36.134   5.063   6.450
 8862POPC   D2A70432  36.168   5.130   6.750
 8862POPC   C3A70433  36.121   5.088   7.050
 8862POPC   C4A70434  36.085   5.060   7.350
 8862POPC   C1B70435  35.925   5.107   6.450
 8862POPC   C2B70436  35.923   5.176   6.750
 8862POPC   C3B70437  35.924   5.092   7.050
 8862POPC   C4B70438  35.910   5.102   7.350
 8863POPC   NC370439  41.604  14.427   5.550
 8863POPC   PO470440  41.565  14.427   5.850
 8863POPC   GL170441  41.579  14.362   6.150
 8863POPC   GL270442  41.535  14.482   6.150
 8863POPC   C1A70443  41.594  14.365   6.450
 8863POPC   D2A70444  41.548  14.405   6.750
 8863POPC   C3A70445  41.604  14.431   7.050
 8863POPC   C4A70446  41.555  14.412   7.350
 8863POPC   C1B70447  41.541  14.652   6.450
 8863POPC   C2B70448  41.548  14.623   6.750
 8863POPC   C3B70449  41.563  14.693   7.050
 8863POPC   C4B70450  41.518  14.622   7.350
 8864POPC   NC370451  39.232  19.839   5.550
 8864POPC   PO470452  39.185  19.826   5.850
 8864POPC   GL170453  39.281  19.840   6.150
 8864POPC   GL270454  39.351  19.766   6.150
 8864POPC   C1A70455  39.245  19.843   6.450
 8864POPC   D2A70456  39.264  19.832   6.750
 8864POPC   C3A70457  39.192  19.857   7.050
 8864POPC   C4A70458  39.233  19.850   7.350
 8864POPC   C1B70459  39.440  19.665   6.450
 8864POPC   C2B70460  39.353  19.651   6.750
 8864POPC   C3B70461  39.404  19.691   7.050
 8864POPC   C4B70462  39.418  19.664   7.350
 8865POPC   NC370463  35.389  19.829   5.550
 8865POPC   PO470464  35.314  19.829   5.850
 8865POPC   GL170465  35.375  19.822   6.150
 8865POPC   GL270466  35.493  19.816   6.150
 8865POPC   C1A70467  35.379  19.864   6.450
 8865POPC   D2A70468  35.309  19.856   6.750
 8865POPC   C3A70469  35.346  19.880   7.050
 8865POPC   C4A70470  35.376  19.884   7.350
 8865POPC   C1B70471  35.561  19.774   6.450
 8865POPC   C2B70472  35.534  19.715   6.750
 8865POPC   C3B70473  35.622  19.767   7.050
 8865POPC   C4B70474  35.576  19.684   7.350
 8866POPC   NC370475  31.428  28.411   5.550
 8866POPC   PO470476  31.471  28.352   5.850
 8866POPC   GL170477  31.478  28.393   6.150
 8866POPC   GL270478  31.578  28.319   6.150
 8866POPC   C1A70479  31.438  28.354   6.450
 8866POPC   D2A70480  31.467  28.362   6.750
 8866POPC   C3A70481  31.431  28.340   7.050
 8866POPC   C4A70482  31.522  28.335   7.350
 8866POPC   C1B70483  31.767  28.284   6.450
 8866POPC   C2B70484  31.669  28.343   6.750
 8866POPC   C3B70485  31.714  28.368   7.050
 8866POPC   C4B70486  31.721  28.285   7.350
 8867POPC   NC370487   1.230   1.221   5.550
 8867POPC   PO470488   1.217   1.188   5.850
 8867POPC   GL170489   1.185   1.216   6.150
 8867POPC   GL270490   1.102   1.201   6.150
 8867POPC   C1A70491   1.196   1.172   6.450
 8867POPC   D2A70492   1.176   1.177   6.750
 8867POPC   C3A70493   1.177   1.193   7.050
 8867POPC   C4A70494   1.246   1.251   7.350
 8867POPC   C1B70495   0.957   1.056   6.450
 8867POPC   C2B70496   1.035   1.124   6.750
 8867POPC   C3B70497   1.014   1.091   7.050
 8867POPC   C4B70498   0.954   1.117   7.350
 8868POPC   NC370499   4.333  24.459   5.550
 8868POPC   PO470500   4.351  24.515   5.850
 8868POPC   GL170501   4.272  24.495   6.150
 8868POPC   GL270502   4.448  24.455   6.150
 8868POPC   C1A70503   4.277  24.491   6.450
 8868POPC   D2A70504   4.360  24.539   6.750
 8868POPC   C3A70505   4.313  24.474   7.050
 8868POPC   C4A70506   4.269  24.530   7.350
 8868POPC   C1B70507   4.520  24.415   6.450
 8868POPC   C2B70508   4.575  24.405   6.750
 8868POPC   C3B70509   4.581  24.385   7.050
 8868POPC   C4B70510   4.580  24.421   7.350
 8869POPC   NC370511   1.970  32.232   5.550
 8869POPC   PO470512   1.965  32.266   5.850
 8869POPC   GL170513   1.956  32.227   6.150
 8869POPC   GL270514   1.886  32.185   6.150
 8869POPC   C1A70515   1.951  32.241   6.450
 8869POPC   D2A70516   1.998  32.283   6.750
 8869POPC   C3A70517   1.966  32.270   7.050
 8869POPC   C4A70518   2.032  32.276   7.350
 8869POPC   C1B70519   1.771  32.204   6.450
 8869POPC   C2B70520   1.778  32.147   6.750
 8869POPC   C3B70521   1.730  32.181   7.050
 8869POPC   C4B70522   1.736  32.187   7.350
 8870POPC   NC370523  40.741  12.895   5.550
 8870POPC   PO470524  40.788  12.884   5.850
 8870POPC   GL170525  40.788  12.818   6.150
 8870POPC   GL270526  40.899  12.785   6.150
 8870POPC   C1A70527  40.804  12.820   6.450
 8870POPC   D2A70528  40.819  12.829   6.750
 8870POPC   C3A70529  40.759  12.871   7.050
 8870POPC   C4A70530  40.738  12.869   7.350
 8870POPC   C1B70531  41.018  12.642   6.450
 8870POPC   C2B70532  40.938  12.649   6.750
 8870POPC   C3B70533  40.972  12.691   7.050
 8870POPC   C4B70534  40.991  12.668   7.350
 8871POPC   NC370535   7.402  30.668   5.550
 8871POPC   PO470536   7.393  30.656   5.850
 8871POPC   GL170537   7.441  30.727   6.150
 8871POPC   GL270538   7.342  30.785   6.150
 8871POPC   C1A70539   7.452  30.665   6.450
 8871POPC   D2A70540   7.393  30.700   6.750
 8871POPC   C3A70541   7.378  30.701   7.050
 8871POPC   C4A70542   7.429  30.719   7.350
 8871POPC   C1B70543   7.328  30.938   6.450
 8871POPC   C2B70544   7.262  30.907   6.750
 8871POPC   C3B70545   7.355  30.961   7.050
 8871POPC   C4B70546   7.337  30.941   7.350
 8872POPC   NC370547  35.370  41.539   5.550
 8872POPC   PO470548  35.322  41.527   5.850
 8872POPC   GL170549  35.310  41.600   6.150
 8872POPC   GL270550  35.365  41.706   6.150
 8872POPC   C1A70551  35.308  41.591   6.450
 8872POPC   D2A70552  35.321  41.564   6.750
 8872POPC   C3A70553  35.348  41.576   7.050
 8872POPC   C4A70554  35.369  41.559   7.350
 8872POPC   C1B70555  35.349  41.857   6.450
 8872POPC   C2B70556  35.365  41.824   6.750
 8872POPC   C3B70557  35.305  41.788   7.050
 8872POPC   C4B70558  35.330  41.817   7.350
 8873POPC   NC370559  22.965  15.160   5.550
 8873POPC   PO470560  22.961  15.130   5.850
 8873POPC   GL170561  22.913  15.174   6.150
 8873POPC   GL270562  22.959  15.317   6.150
 8873POPC   C1A70563  22.948  15.163   6.450
 8873POPC   D2A70564  22.955  15.200   6.750
 8873POPC   C3A70565  22.904  15.226   7.050
 8873POPC   C4A70566  22.958  15.222   7.350
 8873POPC   C1B70567  22.980  15.383   6.450
 8873POPC   C2B70568  23.011  15.406   6.750
 8873POPC   C3B70569  22.958  15.457   7.050
 8873POPC   C4B70570  23.012  15.454   7.350
 8874POPC   NC370571  36.138  43.896   5.550
 8874POPC   PO470572  36.145  43.921   5.850
 8874POPC   GL170573  36.150  43.906   6.150
 8874POPC   GL270574  36.064  44.018   6.150
 8874POPC   C1A70575  36.111  43.880   6.450
 8874POPC   D2A70576  36.125  43.846   6.750
 8874POPC   C3A70577  36.083  43.917   7.050
 8874POPC   C4A70578  36.112  43.893   7.350
 8874POPC   C1B70579  36.040  44.079   6.450
 8874POPC   C2B70580  36.008  44.082   6.750
 8874POPC   C3B70581  36.027  44.071   7.050
 8874POPC   C4B70582  35.972  44.105   7.350
 8875POPC   NC370583  33.794  42.367   5.550
 8875POPC   PO470584  33.811  42.340   5.850
 8875POPC   GL170585  33.750  42.291   6.150
 8875POPC   GL270586  33.875  42.368   6.150
 8875POPC   C1A70587  33.800  42.331   6.450
 8875POPC   D2A70588  33.843  42.383   6.750
 8875POPC   C3A70589  33.809  42.297   7.050
 8875POPC   C4A70590  33.841  42.316   7.350
 8875POPC   C1B70591  34.008  42.408   6.450
 8875POPC   C2B70592  34.066  42.426   6.750
 8875POPC   C3B70593  34.029  42.418   7.050
 8875POPC   C4B70594  34.065  42.411   7.350
 8876POPC   NC370595  23.708  29.933   5.550
 8876POPC   PO470596  23.739  29.926   5.850
 8876POPC   GL170597  23.688  29.875   6.150
 8876POPC   GL270598  23.570  29.908   6.150
 8876POPC   C1A70599  23.757  29.966   6.450
 8876POPC   D2A70600  23.722  29.937   6.750
 8876POPC   C3A70601  23.738  29.887   7.050
 8876POPC   C4A70602  23.750  29.912   7.350
 8876POPC   C1B70603  23.438  29.965   6.450
 8876POPC   C2B70604  23.506  30.001   6.750
 8876POPC   C3B70605  23.459  30.018   7.050
 8876POPC   C4B70606  23.463  29.979   7.350
 8877POPC   NC370607   6.641  26.801   5.550
 8877POPC   PO470608   6.640  26.776   5.850
 8877POPC   GL170609   6.665  26.838   6.150
 8877POPC   GL270610   6.707  26.661   6.150
 8877POPC   C1A70611   6.600  26.792   6.450
 8877POPC   D2A70612   6.638  26.848   6.750
 8877POPC   C3A70613   6.618  26.835   7.050
 8877POPC   C4A70614   6.682  26.797   7.350
 8877POPC   C1B70615   6.723  26.575   6.450
 8877POPC   C2B70616   6.737  26.592   6.750
 8877POPC   C3B70617   6.734  26.633   7.050
 8877POPC   C4B70618   6.766  26.574   7.350
 8878POPC   NC370619   0.395  36.859   5.550
 8878POPC   PO470620   0.468  36.865   5.850
 8878POPC   GL170621   0.482  36.879   6.150
 8878POPC   GL270622   0.571  36.832   6.150
 8878POPC   C1A70623   0.445  36.865   6.450
 8878POPC   D2A70624   0.406  36.930   6.750
 8878POPC   C3A70625   0.406  36.951   7.050
 8878POPC   C4A70626   0.395  36.925   7.350
 8878POPC   C1B70627   0.660  36.860   6.450
 8878POPC   C2B70628   0.691  36.891   6.750
 8878POPC   C3B70629   0.692  36.850   7.050
 8878POPC   C4B70630   0.713  36.819   7.350
 8879POPC   NC370631   8.245   8.931   5.550
 8879POPC   PO470632   8.246   8.965   5.850
 8879POPC   GL170633   8.185   8.995   6.150
 8879POPC   GL270634   8.056   9.047   6.150
 8879POPC   C1A70635   8.230   8.952   6.450
 8879POPC   D2A70636   8.172   8.948   6.750
 8879POPC   C3A70637   8.233   8.928   7.050
 8879POPC   C4A70638   8.231   9.006   7.350
 8879POPC   C1B70639   7.986   9.053   6.450
 8879POPC   C2B70640   7.979   9.112   6.750
 8879POPC   C3B70641   7.984   9.132   7.050
 8879POPC   C4B70642   8.008   9.091   7.350
 8880POPC   NC370643   7.435  41.582   5.550
 8880POPC   PO470644   7.435  41.563   5.850
 8880POPC   GL170645   7.467  41.595   6.150
 8880POPC   GL270646   7.341  41.575   6.150
 8880POPC   C1A70647   7.412  41.581   6.450
 8880POPC   D2A70648   7.464  41.518   6.750
 8880POPC   C3A70649   7.385  41.579   7.050
 8880POPC   C4A70650   7.419  41.568   7.350
 8880POPC   C1B70651   7.164  41.625   6.450
 8880POPC   C2B70652   7.168  41.602   6.750
 8880POPC   C3B70653   7.175  41.543   7.050
 8880POPC   C4B70654   7.187  41.572   7.350
 8881POPC   NC370655  41.571   9.004   5.550
 8881POPC   PO470656  41.602   8.974   5.850
 8881POPC   GL170657  41.603   8.987   6.150
 8881POPC   GL270658  41.549   8.872   6.150
 8881POPC   C1A70659  41.546   8.988   6.450
 8881POPC   D2A70660  41.599   8.985   6.750
 8881POPC   C3A70661  41.553   9.013   7.050
 8881POPC   C4A70662  41.555   8.928   7.350
 8881POPC   C1B70663  41.626   8.698   6.450
 8881POPC   C2B70664  41.599   8.743   6.750
 8881POPC   C3B70665  41.602   8.772   7.050
 8881POPC   C4B70666  41.612   8.698   7.350
 8882POPC   NC370667  26.021   3.565   5.550
 8882POPC   PO470668  26.074   3.516   5.850
 8882POPC   GL170669  26.040   3.492   6.150
 8882POPC   GL270670  26.080   3.390   6.150
 8882POPC   C1A70671  26.020   3.504   6.450
 8882POPC   D2A70672  26.079   3.547   6.750
 8882POPC   C3A70673  26.087   3.577   7.050
 8882POPC   C4A70674  26.011   3.502   7.350
 8882POPC   C1B70675  26.079   3.281   6.450
 8882POPC   C2B70676  26.065   3.322   6.750
 8882POPC   C3B70677  26.133   3.324   7.050
 8882POPC   C4B70678  26.064   3.344   7.350
 8883POPC   NC370679  40.012  38.452   5.550
 8883POPC   PO470680  40.002  38.455   5.850
 8883POPC   GL170681  40.049  38.462   6.150
 8883POPC   GL270682  40.098  38.542   6.150
 8883POPC   C1A70683  40.042  38.484   6.450
 8883POPC   D2A70684  39.977  38.504   6.750
 8883POPC   C3A70685  39.961  38.406   7.050
 8883POPC   C4A70686  39.976  38.416   7.350
 8883POPC   C1B70687  40.184  38.642   6.450
 8883POPC   C2B70688  40.162  38.576   6.750
 8883POPC   C3B70689  40.194  38.630   7.050
 8883POPC   C4B70690  40.223  38.594   7.350
 8884POPC   NC370691  11.329  27.634   5.550
 8884POPC   PO470692  11.289  27.634   5.850
 8884POPC   GL170693  11.321  27.617   6.150
 8884POPC   GL270694  11.359  27.435   6.150
 8884POPC   C1A70695  11.287  27.566   6.450
 8884POPC   D2A70696  11.323  27.545   6.750
 8884POPC   C3A70697  11.281  27.584   7.050
 8884POPC   C4A70698  11.343  27.561   7.350
 8884POPC   C1B70699  11.389  27.362   6.450
 8884POPC   C2B70700  11.332  27.322   6.750
 8884POPC   C3B70701  11.338  27.337   7.050
 8884POPC   C4B70702  11.371  27.388   7.350
 8885POPC   NC370703   5.075  20.600   5.550
 8885POPC   PO470704   5.114  20.576   5.850
 8885POPC   GL170705   5.116  20.616   6.150
 8885POPC   GL270706   5.210  20.509   6.150
 8885POPC   C1A70707   5.079  20.574   6.450
 8885POPC   D2A70708   5.116  20.594   6.750
 8885POPC   C3A70709   5.055  20.643   7.050
 8885POPC   C4A70710   5.122  20.569   7.350
 8885POPC   C1B70711   5.290  20.404   6.450
 8885POPC   C2B70712   5.211  20.396   6.750
 8885POPC   C3B70713   5.232  20.405   7.050
 8885POPC   C4B70714   5.210  20.464   7.350
 8886POPC   NC370715  40.028  33.068   5.550
 8886POPC   PO470716  39.962  32.983   5.850
 8886POPC   GL170717  39.974  33.060   6.150
 8886POPC   GL270718  39.881  32.890   6.150
 8886POPC   C1A70719  39.975  33.049   6.450
 8886POPC   D2A70720  39.958  33.064   6.750
 8886POPC   C3A70721  40.010  33.031   7.050
 8886POPC   C4A70722  39.965  33.033   7.350
 8886POPC   C1B70723  39.808  32.839   6.450
 8886POPC   C2B70724  39.840  32.804   6.750
 8886POPC   C3B70725  39.843  32.803   7.050
 8886POPC   C4B70726  39.842  32.843   7.350
 8887POPC   NC370727  19.020   5.917   5.550
 8887POPC   PO470728  19.067   5.852   5.850
 8887POPC   GL170729  19.066   5.858   6.150
 8887POPC   GL270730  19.114   5.750   6.150
 8887POPC   C1A70731  19.099   5.839   6.450
 8887POPC   D2A70732  19.049   5.830   6.750
 8887POPC   C3A70733  19.083   5.834   7.050
 8887POPC   C4A70734  19.042   5.856   7.350
 8887POPC   C1B70735  19.169   5.627   6.450
 8887POPC   C2B70736  19.212   5.668   6.750
 8887POPC   C3B70737  19.211   5.677   7.050
 8887POPC   C4B70738  19.195   5.685   7.350
 8888POPC   NC370739  32.293  42.376   5.550
 8888POPC   PO470740  32.243  42.362   5.850
 8888POPC   GL170741  32.246  42.359   6.150
 8888POPC   GL270742  32.200  42.193   6.150
 8888POPC   C1A70743  32.205  42.374   6.450
 8888POPC   D2A70744  32.200  42.351   6.750
 8888POPC   C3A70745  32.275  42.368   7.050
 8888POPC   C4A70746  32.225  42.362   7.350
 8888POPC   C1B70747  32.222  42.079   6.450
 8888POPC   C2B70748  32.169  42.088   6.750
 8888POPC   C3B70749  32.199  42.091   7.050
 8888POPC   C4B70750  32.171  42.072   7.350
 8889POPC   NC370751  31.425  14.417   5.550
 8889POPC   PO470752  31.489  14.398   5.850
 8889POPC   GL170753  31.423  14.402   6.150
 8889POPC   GL270754  31.389  14.294   6.150
 8889POPC   C1A70755  31.436  14.441   6.450
 8889POPC   D2A70756  31.481  14.421   6.750
 8889POPC   C3A70757  31.450  14.420   7.050
 8889POPC   C4A70758  31.460  14.416   7.350
 8889POPC   C1B70759  31.351  14.165   6.450
 8889POPC   C2B70760  31.357  14.255   6.750
 8889POPC   C3B70761  31.281  14.181   7.050
 8889POPC   C4B70762  31.332  14.261   7.350
 8890POPC   NC370763  14.427  39.968   5.550
 8890POPC   PO470764  14.410  40.054   5.850
 8890POPC   GL170765  14.446  39.998   6.150
 8890POPC   GL270766  14.434  39.890   6.150
 8890POPC   C1A70767  14.402  39.968   6.450
 8890POPC   D2A70768  14.418  40.000   6.750
 8890POPC   C3A70769  14.446  39.962   7.050
 8890POPC   C4A70770  14.445  39.996   7.350
 8890POPC   C1B70771  14.362  39.718   6.450
 8890POPC   C2B70772  14.400  39.790   6.750
 8890POPC   C3B70773  14.344  39.758   7.050
 8890POPC   C4B70774  14.341  39.770   7.350
 8891POPC   NC370775  22.947  20.613   5.550
 8891POPC   PO470776  22.978  20.612   5.850
 8891POPC   GL170777  22.967  20.628   6.150
 8891POPC   GL270778  22.998  20.732   6.150
 8891POPC   C1A70779  22.904  20.612   6.450
 8891POPC   D2A70780  22.972  20.644   6.750
 8891POPC   C3A70781  22.941  20.599   7.050
 8891POPC   C4A70782  22.932  20.618   7.350
 8891POPC   C1B70783  22.943  20.851   6.450
 8891POPC   C2B70784  22.935  20.886   6.750
 8891POPC   C3B70785  22.929  20.838   7.050
 8891POPC   C4B70786  23.007  20.812   7.350
 8892POPC   NC370787   6.634  11.338   5.550
 8892POPC   PO470788   6.668  11.303   5.850
 8892POPC   GL170789   6.602  11.319   6.150
 8892POPC   GL270790   6.632  11.388   6.150
 8892POPC   C1A70791   6.632  11.280   6.450
 8892POPC   D2A70792   6.665  11.314   6.750
 8892POPC   C3A70793   6.670  11.348   7.050
 8892POPC   C4A70794   6.601  11.269   7.350
 8892POPC   C1B70795   6.610  11.547   6.450
 8892POPC   C2B70796   6.682  11.597   6.750
 8892POPC   C3B70797   6.650  11.598   7.050
 8892POPC   C4B70798   6.627  11.546   7.350
 8893POPC   NC370799  30.705   7.438   5.550
 8893POPC   PO470800  30.716   7.426   5.850
 8893POPC   GL170801  30.728   7.426   6.150
 8893POPC   GL270802  30.588   7.447   6.150
 8893POPC   C1A70803  30.705   7.459   6.450
 8893POPC   D2A70804  30.666   7.390   6.750
 8893POPC   C3A70805  30.689   7.406   7.050
 8893POPC   C4A70806  30.674   7.432   7.350
 8893POPC   C1B70807  30.452   7.440   6.450
 8893POPC   C2B70808  30.457   7.443   6.750
 8893POPC   C3B70809  30.424   7.479   7.050
 8893POPC   C4B70810  30.495   7.483   7.350
 8894POPC   NC370811  39.986  39.958   5.550
 8894POPC   PO470812  39.995  40.008   5.850
 8894POPC   GL170813  39.977  39.973   6.150
 8894POPC   GL270814  39.891  40.008   6.150
 8894POPC   C1A70815  40.055  39.958   6.450
 8894POPC   D2A70816  39.960  39.959   6.750
 8894POPC   C3A70817  40.052  40.022   7.050
 8894POPC   C4A70818  39.982  39.978   7.350
 8894POPC   C1B70819  39.810  40.036   6.450
 8894POPC   C2B70820  39.753  40.035   6.750
 8894POPC   C3B70821  39.741  40.012   7.050
 8894POPC   C4B70822  39.724  40.046   7.350
 8895POPC   NC370823  19.061   2.754   5.550
 8895POPC   PO470824  19.043   2.733   5.850
 8895POPC   GL170825  19.010   2.766   6.150
 8895POPC   GL270826  19.180   2.775   6.150
 8895POPC   C1A70827  19.102   2.803   6.450
 8895POPC   D2A70828  19.026   2.728   6.750
 8895POPC   C3A70829  19.022   2.749   7.050
 8895POPC   C4A70830  19.055   2.728   7.350
 8895POPC   C1B70831  19.285   2.827   6.450
 8895POPC   C2B70832  19.313   2.764   6.750
 8895POPC   C3B70833  19.341   2.797   7.050
 8895POPC   C4B70834  19.270   2.804   7.350
 8896POPC   NC370835  25.275  18.236   5.550
 8896POPC   PO470836  25.225  18.323   5.850
 8896POPC   GL170837  25.289  18.301   6.150
 8896POPC   GL270838  25.381  18.252   6.150
 8896POPC   C1A70839  25.298  18.252   6.450
 8896POPC   D2A70840  25.298  18.235   6.750
 8896POPC   C3A70841  25.310  18.286   7.050
 8896POPC   C4A70842  25.237  18.331   7.350
 8896POPC   C1B70843  25.551  18.244   6.450
 8896POPC   C2B70844  25.552  18.242   6.750
 8896POPC   C3B70845  25.506  18.217   7.050
 8896POPC   C4B70846  25.515  18.250   7.350
 8897POPC   NC370847   3.565  27.587   5.550
 8897POPC   PO470848   3.579  27.544   5.850
 8897POPC   GL170849   3.550  27.555   6.150
 8897POPC   GL270850   3.585  27.494   6.150
 8897POPC   C1A70851   3.588  27.554   6.450
 8897POPC   D2A70852   3.581  27.547   6.750
 8897POPC   C3A70853   3.495  27.636   7.050
 8897POPC   C4A70854   3.573  27.640   7.350
 8897POPC   C1B70855   3.556  27.309   6.450
 8897POPC   C2B70856   3.576  27.300   6.750
 8897POPC   C3B70857   3.583  27.299   7.050
 8897POPC   C4B70858   3.571  27.349   7.350
 8898POPC   NC370859  43.138  37.651   5.550
 8898POPC   PO470860  43.133  37.668   5.850
 8898POPC   GL170861  43.150  37.630   6.150
 8898POPC   GL270862  43.083  37.780   6.150
 8898POPC   C1A70863  43.117  37.712   6.450
 8898POPC   D2A70864  43.080  37.729   6.750
 8898POPC   C3A70865  43.096  37.635   7.050
 8898POPC   C4A70866  43.127  37.660   7.350
 8898POPC   C1B70867  43.075  37.896   6.450
 8898POPC   C2B70868  43.104  37.965   6.750
 8898POPC   C3B70869  43.116  37.950   7.050
 8898POPC   C4B70870  43.118  37.914   7.350
 8899POPC   NC370871  41.567  19.877   5.550
 8899POPC   PO470872  41.566  19.828   5.850
 8899POPC   GL170873  41.592  19.850   6.150
 8899POPC   GL270874  41.398  19.835   6.150
 8899POPC   C1A70875  41.510  19.870   6.450
 8899POPC   D2A70876  41.577  19.800   6.750
 8899POPC   C3A70877  41.570  19.793   7.050
 8899POPC   C4A70878  41.517  19.843   7.350
 8899POPC   C1B70879  41.345  19.816   6.450
 8899POPC   C2B70880  41.327  19.786   6.750
 8899POPC   C3B70881  41.328  19.770   7.050
 8899POPC   C4B70882  41.267  19.802   7.350
 8900POPC   NC370883   1.185  13.663   5.550
 8900POPC   PO470884   1.244  13.657   5.850
 8900POPC   GL170885   1.214  13.620   6.150
 8900POPC   GL270886   1.089  13.503   6.150
 8900POPC   C1A70887   1.230  13.619   6.450
 8900POPC   D2A70888   1.200  13.656   6.750
 8900POPC   C3A70889   1.225  13.675   7.050
 8900POPC   C4A70890   1.229  13.661   7.350
 8900POPC   C1B70891   1.043  13.460   6.450
 8900POPC   C2B70892   1.018  13.474   6.750
 8900POPC   C3B70893   1.092  13.405   7.050
 8900POPC   C4B70894   1.049  13.466   7.350
 8901POPC   NC370895  22.149  39.967   5.550
 8901POPC   PO470896  22.165  39.976   5.850
 8901POPC   GL170897  22.200  39.997   6.150
 8901POPC   GL270898  22.225  40.115   6.150
 8901POPC   C1A70899  22.152  39.963   6.450
 8901POPC   D2A70900  22.120  40.027   6.750
 8901POPC   C3A70901  22.203  39.959   7.050
 8901POPC   C4A70902  22.155  39.986   7.350
 8901POPC   C1B70903  22.366  40.125   6.450
 8901POPC   C2B70904  22.394  40.154   6.750
 8901POPC   C3B70905  22.351  40.106   7.050
 8901POPC   C4B70906  22.375  40.106   7.350
 8902POPC   NC370907   4.331  12.067   5.550
 8902POPC   PO470908   4.307  12.030   5.850
 8902POPC   GL170909   4.286  12.057   6.150
 8902POPC   GL270910   4.467  12.089   6.150
 8902POPC   C1A70911   4.289  12.093   6.450
 8902POPC   D2A70912   4.288  12.097   6.750
 8902POPC   C3A70913   4.289  12.073   7.050
 8902POPC   C4A70914   4.365  12.037   7.350
 8902POPC   C1B70915   4.556  12.172   6.450
 8902POPC   C2B70916   4.566  12.165   6.750
 8902POPC   C3B70917   4.528  12.144   7.050
 8902POPC   C4B70918   4.548  12.198   7.350
 8903POPC   NC370919   9.012  20.582   5.550
 8903POPC   PO470920   9.003  20.568   5.850
 8903POPC   GL170921   8.976  20.645   6.150
 8903POPC   GL270922   8.911  20.540   6.150
 8903POPC   C1A70923   8.948  20.614   6.450
 8903POPC   D2A70924   8.986  20.621   6.750
 8903POPC   C3A70925   9.010  20.578   7.050
 8903POPC   C4A70926   8.945  20.628   7.350
 8903POPC   C1B70927   8.761  20.486   6.450
 8903POPC   C2B70928   8.789  20.467   6.750
 8903POPC   C3B70929   8.749  20.430   7.050
 8903POPC   C4B70930   8.827  20.412   7.350
 8904POPC   NC370931  11.312  24.484   5.550
 8904POPC   PO470932  11.335  24.503   5.850
 8904POPC   GL170933  11.278  24.449   6.150
 8904POPC   GL270934  11.215  24.600   6.150
 8904POPC   C1A70935  11.297  24.475   6.450
 8904POPC   D2A70936  11.341  24.476   6.750
 8904POPC   C3A70937  11.260  24.475   7.050
 8904POPC   C4A70938  11.292  24.484   7.350
 8904POPC   C1B70939  11.189  24.661   6.450
 8904POPC   C2B70940  11.111  24.698   6.750
 8904POPC   C3B70941  11.183  24.676   7.050
 8904POPC   C4B70942  11.107  24.652   7.350
 8905POPC   NC370943  11.338  39.989   5.550
 8905POPC   PO470944  11.280  39.983   5.850
 8905POPC   GL170945  11.327  39.982   6.150
 8905POPC   GL270946  11.338  40.094   6.150
 8905POPC   C1A70947  11.330  40.004   6.450
 8905POPC   D2A70948  11.320  40.056   6.750
 8905POPC   C3A70949  11.297  40.006   7.050
 8905POPC   C4A70950  11.251  39.967   7.350
 8905POPC   C1B70951  11.382  40.221   6.450
 8905POPC   C2B70952  11.373  40.202   6.750
 8905POPC   C3B70953  11.392  40.204   7.050
 8905POPC   C4B70954  11.418  40.280   7.350
 8906POPC   NC370955  16.726  21.374   5.550
 8906POPC   PO470956  16.734  21.355   5.850
 8906POPC   GL170957  16.768  21.434   6.150
 8906POPC   GL270958  16.805  21.278   6.150
 8906POPC   C1A70959  16.725  21.412   6.450
 8906POPC   D2A70960  16.779  21.338   6.750
 8906POPC   C3A70961  16.723  21.359   7.050
 8906POPC   C4A70962  16.707  21.358   7.350
 8906POPC   C1B70963  16.902  21.246   6.450
 8906POPC   C2B70964  16.909  21.286   6.750
 8906POPC   C3B70965  16.917  21.236   7.050
 8906POPC   C4B70966  16.935  21.250   7.350
 8907POPC   NC370967  28.333  25.234   5.550
 8907POPC   PO470968  28.405  25.224   5.850
 8907POPC   GL170969  28.393  25.280   6.150
 8907POPC   GL270970  28.399  25.183   6.150
 8907POPC   C1A70971  28.364  25.265   6.450
 8907POPC   D2A70972  28.329  25.226   6.750
 8907POPC   C3A70973  28.407  25.217   7.050
 8907POPC   C4A70974  28.337  25.247   7.350
 8907POPC   C1B70975  28.441  25.023   6.450
 8907POPC   C2B70976  28.405  25.060   6.750
 8907POPC   C3B70977  28.381  25.030   7.050
 8907POPC   C4B70978  28.358  25.008   7.350
 8908POPC   NC370979  18.243  14.409   5.550
 8908POPC   PO470980  18.252  14.441   5.850
 8908POPC   GL170981  18.263  14.424   6.150
 8908POPC   GL270982  18.177  14.339   6.150
 8908POPC   C1A70983  18.302  14.435   6.450
 8908POPC   D2A70984  18.262  14.428   6.750
 8908POPC   C3A70985  18.316  14.440   7.050
 8908POPC   C4A70986  18.287  14.359   7.350
 8908POPC   C1B70987  18.174  14.202   6.450
 8908POPC   C2B70988  18.107  14.220   6.750
 8908POPC   C3B70989  18.180  14.231   7.050
 8908POPC   C4B70990  18.172  14.216   7.350
 8909POPC   NC370991  15.942   7.393   5.550
 8909POPC   PO470992  15.909   7.448   5.850
 8909POPC   GL170993  15.917   7.451   6.150
 8909POPC   GL270994  16.010   7.303   6.150
 8909POPC   C1A70995  15.999   7.377   6.450
 8909POPC   D2A70996  15.926   7.427   6.750
 8909POPC   C3A70997  15.907   7.392   7.050
 8909POPC   C4A70998  15.993   7.462   7.350
 8909POPC   C1B70999  15.987   7.209   6.450
 8909POPC   C2B71000  16.005   7.189   6.750
 8909POPC   C3B71001  16.009   7.193   7.050
 8909POPC   C4B71002  16.029   7.191   7.350
 8910POPC   NC371003  16.693  42.338   5.550
 8910POPC   PO471004  16.721  42.350   5.850
 8910POPC   GL171005  16.686  42.292   6.150
 8910POPC   GL271006  16.855  42.331   6.150
 8910POPC   C1A71007  16.775  42.379   6.450
 8910POPC   D2A71008  16.698  42.347   6.750
 8910POPC   C3A71009  16.700  42.353   7.050
 8910POPC   C4A71010  16.708  42.380   7.350
 8910POPC   C1B71011  16.950  42.320   6.450
 8910POPC   C2B71012  16.957  42.328   6.750
 8910POPC   C3B71013  16.999  42.296   7.050
 8910POPC   C4B71014  16.954  42.260   7.350
 8911POPC   NC371015  14.411   3.580   5.550
 8911POPC   PO471016  14.422   3.553   5.850
 8911POPC   GL171017  14.393   3.575   6.150
 8911POPC   GL271018  14.300   3.482   6.150
 8911POPC   C1A71019  14.407   3.506   6.450
 8911POPC   D2A71020  14.384   3.582   6.750
 8911POPC   C3A71021  14.382   3.504   7.050
 8911POPC   C4A71022  14.398   3.501   7.350
 8911POPC   C1B71023  14.236   3.429   6.450
 8911POPC   C2B71024  14.183   3.369   6.750
 8911POPC   C3B71025  14.230   3.409   7.050
 8911POPC   C4B71026  14.228   3.401   7.350
 8912POPC   NC371027  36.093  44.620   5.550
 8912POPC   PO471028  36.155  44.700   5.850
 8912POPC   GL171029  36.085  44.656   6.150
 8912POPC   GL271030  36.211  44.713   6.150
 8912POPC   C1A71031  36.119  44.681   6.450
 8912POPC   D2A71032  36.095  44.698   6.750
 8912POPC   C3A71033  36.108  44.621   7.050
 8912POPC   C4A71034  36.095  44.664   7.350
 8912POPC   C1B71035  36.337  44.783   6.450
 8912POPC   C2B71036  36.280  44.856   6.750
 8912POPC   C3B71037  36.314  44.824   7.050
 8912POPC   C4B71038  36.353  44.768   7.350
 8913POPC   NC371039   4.305  33.800   5.550
 8913POPC   PO471040   4.336  33.778   5.850
 8913POPC   GL171041   4.355  33.796   6.150
 8913POPC   GL271042   4.292  33.680   6.150
 8913POPC   C1A71043   4.337  33.806   6.450
 8913POPC   D2A71044   4.363  33.786   6.750
 8913POPC   C3A71045   4.299  33.769   7.050
 8913POPC   C4A71046   4.315  33.793   7.350
 8913POPC   C1B71047   4.327  33.511   6.450
 8913POPC   C2B71048   4.353  33.575   6.750
 8913POPC   C3B71049   4.351  33.507   7.050
 8913POPC   C4B71050   4.309  33.589   7.350
 8914POPC   NC371051  21.373  25.283   5.550
 8914POPC   PO471052  21.382  25.227   5.850
 8914POPC   GL171053  21.428  25.315   6.150
 8914POPC   GL271054  21.472  25.227   6.150
 8914POPC   C1A71055  21.428  25.308   6.450
 8914POPC   D2A71056  21.344  25.217   6.750
 8914POPC   C3A71057  21.385  25.234   7.050
 8914POPC   C4A71058  21.374  25.221   7.350
 8914POPC   C1B71059  21.562  25.181   6.450
 8914POPC   C2B71060  21.599  25.125   6.750
 8914POPC   C3B71061  21.653  25.191   7.050
 8914POPC   C4B71062  21.567  25.189   7.350
 8915POPC   NC371063  27.629  43.880   5.550
 8915POPC   PO471064  27.633  43.922   5.850
 8915POPC   GL171065  27.627  43.886   6.150
 8915POPC   GL271066  27.668  43.723   6.150
 8915POPC   C1A71067  27.623  43.932   6.450
 8915POPC   D2A71068  27.597  43.874   6.750
 8915POPC   C3A71069  27.557  43.929   7.050
 8915POPC   C4A71070  27.582  43.903   7.350
 8915POPC   C1B71071  27.656  43.644   6.450
 8915POPC   C2B71072  27.705  43.618   6.750
 8915POPC   C3B71073  27.666  43.691   7.050
 8915POPC   C4B71074  27.677  43.671   7.350
 8916POPC   NC371075  22.941  12.120   5.550
 8916POPC   PO471076  22.971  12.052   5.850
 8916POPC   GL171077  22.975  12.028   6.150
 8916POPC   GL271078  23.019  12.081   6.150
 8916POPC   C1A71079  22.982  12.089   6.450
 8916POPC   D2A71080  22.938  12.112   6.750
 8916POPC   C3A71081  22.937  12.043   7.050
 8916POPC   C4A71082  22.964  12.028   7.350
 8916POPC   C1B71083  23.189  12.201   6.450
 8916POPC   C2B71084  23.178  12.218   6.750
 8916POPC   C3B71085  23.174  12.205   7.050
 8916POPC   C4B71086  23.139  12.160   7.350
 8917POPC   NC371087  24.491  36.081   5.550
 8917POPC   PO471088  24.538  36.131   5.850
 8917POPC   GL171089  24.526  36.112   6.150
 8917POPC   GL271090  24.418  35.962   6.150
 8917POPC   C1A71091  24.475  36.096   6.450
 8917POPC   D2A71092  24.535  36.133   6.750
 8917POPC   C3A71093  24.450  36.078   7.050
 8917POPC   C4A71094  24.481  36.170   7.350
 8917POPC   C1B71095  24.440  35.894   6.450
 8917POPC   C2B71096  24.381  35.851   6.750
 8917POPC   C3B71097  24.452  35.851   7.050
 8917POPC   C4B71098  24.463  35.889   7.350
 8918POPC   NC371099  14.410  19.104   5.550
 8918POPC   PO471100  14.394  19.105   5.850
 8918POPC   GL171101  14.428  19.043   6.150
 8918POPC   GL271102  14.547  19.057   6.150
 8918POPC   C1A71103  14.443  19.097   6.450
 8918POPC   D2A71104  14.414  19.016   6.750
 8918POPC   C3A71105  14.412  19.106   7.050
 8918POPC   C4A71106  14.403  19.044   7.350
 8918POPC   C1B71107  14.658  18.960   6.450
 8918POPC   C2B71108  14.662  19.017   6.750
 8918POPC   C3B71109  14.597  19.021   7.050
 8918POPC   C4B71110  14.656  18.952   7.350
 8919POPC   NC371111  30.677  32.290   5.550
 8919POPC   PO471112  30.683  32.286   5.850
 8919POPC   GL171113  30.735  32.238   6.150
 8919POPC   GL271114  30.797  32.184   6.150
 8919POPC   C1A71115  30.673  32.231   6.450
 8919POPC   D2A71116  30.692  32.262   6.750
 8919POPC   C3A71117  30.705  32.215   7.050
 8919POPC   C4A71118  30.716  32.270   7.350
 8919POPC   C1B71119  30.842  32.043   6.450
 8919POPC   C2B71120  30.868  32.077   6.750
 8919POPC   C3B71121  30.851  32.094   7.050
 8919POPC   C4B71122  30.908  32.119   7.350
 8920POPC   NC371123   5.878   7.446   5.550
 8920POPC   PO471124   5.913   7.430   5.850
 8920POPC   GL171125   5.889   7.422   6.150
 8920POPC   GL271126   5.784   7.425   6.150
 8920POPC   C1A71127   5.914   7.463   6.450
 8920POPC   D2A71128   5.887   7.466   6.750
 8920POPC   C3A71129   5.819   7.384   7.050
 8920POPC   C4A71130   5.826   7.463   7.350
 8920POPC   C1B71131   5.578   7.424   6.450
 8920POPC   C2B71132   5.665   7.358   6.750
 8920POPC   C3B71133   5.599   7.390   7.050
 8920POPC   C4B71134   5.601   7.400   7.350
 8921POPC   NC371135  18.237  30.657   5.550
 8921POPC   PO471136  18.278  30.737   5.850
 8921POPC   GL171137  18.307  30.665   6.150
 8921POPC   GL271138  18.298  30.544   6.150
 8921POPC   C1A71139  18.263  30.683   6.450
 8921POPC   D2A71140  18.244  30.705   6.750
 8921POPC   C3A71141  18.252  30.745   7.050
 8921POPC   C4A71142  18.295  30.720   7.350
 8921POPC   C1B71143  18.268  30.431   6.450
 8921POPC   C2B71144  18.201  30.464   6.750
 8921POPC   C3B71145  18.280  30.401   7.050
 8921POPC   C4B71146  18.278  30.406   7.350
 8922POPC   NC371147  24.457  25.264   5.550
 8922POPC   PO471148  24.506  25.257   5.850
 8922POPC   GL171149  24.525  25.243   6.150
 8922POPC   GL271150  24.545  25.104   6.150
 8922POPC   C1A71151  24.459  25.257   6.450
 8922POPC   D2A71152  24.493  25.234   6.750
 8922POPC   C3A71153  24.503  25.305   7.050
 8922POPC   C4A71154  24.534  25.271   7.350
 8922POPC   C1B71155  24.637  25.033   6.450
 8922POPC   C2B71156  24.600  25.073   6.750
 8922POPC   C3B71157  24.545  25.060   7.050
 8922POPC   C4B71158  24.601  25.077   7.350
 8923POPC   NC371159  38.414  29.894   5.550
 8923POPC   PO471160  38.450  29.921   5.850
 8923POPC   GL171161  38.419  29.889   6.150
 8923POPC   GL271162  38.564  29.901   6.150
 8923POPC   C1A71163  38.417  29.924   6.450
 8923POPC   D2A71164  38.438  29.899   6.750
 8923POPC   C3A71165  38.456  29.964   7.050
 8923POPC   C4A71166  38.436  29.887   7.350
 8923POPC   C1B71167  38.663  29.905   6.450
 8923POPC   C2B71168  38.726  29.863   6.750
 8923POPC   C3B71169  38.696  29.907   7.050
 8923POPC   C4B71170  38.732  29.832   7.350
 8924POPC   NC371171  20.626   1.244   5.550
 8924POPC   PO471172  20.618   1.218   5.850
 8924POPC   GL171173  20.660   1.255   6.150
 8924POPC   GL271174  20.745   1.235   6.150
 8924POPC   C1A71175  20.609   1.232   6.450
 8924POPC   D2A71176  20.647   1.188   6.750
 8924POPC   C3A71177  20.573   1.195   7.050
 8924POPC   C4A71178  20.588   1.164   7.350
 8924POPC   C1B71179  20.858   1.357   6.450
 8924POPC   C2B71180  20.818   1.349   6.750
 8924POPC   C3B71181  20.813   1.374   7.050
 8924POPC   C4B71182  20.870   1.314   7.350
 8925POPC   NC371183   1.202  14.395   5.550
 8925POPC   PO471184   1.207  14.431   5.850
 8925POPC   GL171185   1.171  14.389   6.150
 8925POPC   GL271186   1.294  14.423   6.150
 8925POPC   C1A71187   1.201  14.417   6.450
 8925POPC   D2A71188   1.178  14.377   6.750
 8925POPC   C3A71189   1.170  14.390   7.050
 8925POPC   C4A71190   1.222  14.452   7.350
 8925POPC   C1B71191   1.442  14.371   6.450
 8925POPC   C2B71192   1.431  14.378   6.750
 8925POPC   C3B71193   1.459  14.419   7.050
 8925POPC   C4B71194   1.418  14.372   7.350
 8926POPC   NC371195  30.739   9.725   5.550
 8926POPC   PO471196  30.698   9.707   5.850
 8926POPC   GL171197  30.649   9.701   6.150
 8926POPC   GL271198  30.664   9.637   6.150
 8926POPC   C1A71199  30.686   9.774   6.450
 8926POPC   D2A71200  30.725   9.777   6.750
 8926POPC   C3A71201  30.695   9.704   7.050
 8926POPC   C4A71202  30.686   9.700   7.350
 8926POPC   C1B71203  30.599   9.519   6.450
 8926POPC   C2B71204  30.679   9.516   6.750
 8926POPC   C3B71205  30.605   9.509   7.050
 8926POPC   C4B71206  30.674   9.521   7.350
 8927POPC   NC371207  12.827   8.984   5.550
 8927POPC   PO471208  12.893   8.966   5.850
 8927POPC   GL171209  12.810   8.963   6.150
 8927POPC   GL271210  12.924   8.881   6.150
 8927POPC   C1A71211  12.802   8.941   6.450
 8927POPC   D2A71212  12.805   8.993   6.750
 8927POPC   C3A71213  12.806   9.003   7.050
 8927POPC   C4A71214  12.871   8.973   7.350
 8927POPC   C1B71215  12.981   8.809   6.450
 8927POPC   C2B71216  12.978   8.752   6.750
 8927POPC   C3B71217  12.951   8.779   7.050
 8927POPC   C4B71218  12.961   8.768   7.350
 8928POPC   NC371219  32.231  39.962   5.550
 8928POPC   PO471220  32.210  40.040   5.850
 8928POPC   GL171221  32.249  39.971   6.150
 8928POPC   GL271222  32.389  39.953   6.150
 8928POPC   C1A71223  32.239  39.992   6.450
 8928POPC   D2A71224  32.250  40.052   6.750
 8928POPC   C3A71225  32.243  39.989   7.050
 8928POPC   C4A71226  32.253  39.960   7.350
 8928POPC   C1B71227  32.501  39.886   6.450
 8928POPC   C2B71228  32.429  39.825   6.750
 8928POPC   C3B71229  32.443  39.865   7.050
 8928POPC   C4B71230  32.471  39.885   7.350
 8929POPC   NC371231   9.009  26.823   5.550
 8929POPC   PO471232   8.984  26.835   5.850
 8929POPC   GL171233   8.980  26.846   6.150
 8929POPC   GL271234   9.049  26.925   6.150
 8929POPC   C1A71235   8.997  26.781   6.450
 8929POPC   D2A71236   8.938  26.801   6.750
 8929POPC   C3A71237   8.949  26.847   7.050
 8929POPC   C4A71238   8.993  26.793   7.350
 8929POPC   C1B71239   9.041  27.023   6.450
 8929POPC   C2B71240   9.046  27.060   6.750
 8929POPC   C3B71241   9.028  27.000   7.050
 8929POPC   C4B71242   9.096  27.036   7.350
 8930POPC   NC371243  18.333   3.568   5.550
 8930POPC   PO471244  18.250   3.503   5.850
 8930POPC   GL171245  18.276   3.534   6.150
 8930POPC   GL271246  18.215   3.591   6.150
 8930POPC   C1A71247  18.318   3.581   6.450
 8930POPC   D2A71248  18.295   3.582   6.750
 8930POPC   C3A71249  18.331   3.579   7.050
 8930POPC   C4A71250  18.260   3.519   7.350
 8930POPC   C1B71251  18.048   3.722   6.450
 8930POPC   C2B71252  18.076   3.666   6.750
 8930POPC   C3B71253  18.122   3.632   7.050
 8930POPC   C4B71254  18.082   3.648   7.350
 8931POPC   NC371255  13.660   2.761   5.550
 8931POPC   PO471256  13.634   2.790   5.850
 8931POPC   GL171257  13.584   2.804   6.150
 8931POPC   GL271258  13.571   2.840   6.150
 8931POPC   C1A71259  13.607   2.806   6.450
 8931POPC   D2A71260  13.653   2.791   6.750
 8931POPC   C3A71261  13.645   2.798   7.050
 8931POPC   C4A71262  13.637   2.736   7.350
 8931POPC   C1B71263  13.503   2.971   6.450
 8931POPC   C2B71264  13.449   2.939   6.750
 8931POPC   C3B71265  13.439   2.936   7.050
 8931POPC   C4B71266  13.489   2.930   7.350
 8932POPC   NC371267   4.281  22.129   5.550
 8932POPC   PO471268   4.340  22.115   5.850
 8932POPC   GL171269   4.301  22.161   6.150
 8932POPC   GL271270   4.385  22.206   6.150
 8932POPC   C1A71271   4.314  22.211   6.450
 8932POPC   D2A71272   4.358  22.182   6.750
 8932POPC   C3A71273   4.279  22.132   7.050
 8932POPC   C4A71274   4.349  22.118   7.350
 8932POPC   C1B71275   4.517  22.301   6.450
 8932POPC   C2B71276   4.583  22.288   6.750
 8932POPC   C3B71277   4.521  22.315   7.050
 8932POPC   C4B71278   4.528  22.285   7.350
 8933POPC   NC371279  25.267  41.532   5.550
 8933POPC   PO471280  25.243  41.579   5.850
 8933POPC   GL171281  25.279  41.520   6.150
 8933POPC   GL271282  25.381  41.652   6.150
 8933POPC   C1A71283  25.299  41.597   6.450
 8933POPC   D2A71284  25.277  41.551   6.750
 8933POPC   C3A71285  25.252  41.565   7.050
 8933POPC   C4A71286  25.244  41.593   7.350
 8933POPC   C1B71287  25.430  41.785   6.450
 8933POPC   C2B71288  25.464  41.721   6.750
 8933POPC   C3B71289  25.377  41.715   7.050
 8933POPC   C4B71290  25.414  41.761   7.350
 8934POPC   NC371291   5.051   5.082   5.550
 8934POPC   PO471292   5.063   5.134   5.850
 8934POPC   GL171293   5.084   5.088   6.150
 8934POPC   GL271294   5.142   5.156   6.150
 8934POPC   C1A71295   5.090   5.075   6.450
 8934POPC   D2A71296   5.060   5.083   6.750
 8934POPC   C3A71297   5.047   5.085   7.050
 8934POPC   C4A71298   5.047   5.139   7.350
 8934POPC   C1B71299   5.260   5.285   6.450
 8934POPC   C2B71300   5.202   5.295   6.750
 8934POPC   C3B71301   5.261   5.281   7.050
 8934POPC   C4B71302   5.244   5.330   7.350
 8935POPC   NC371303   1.225  41.548   5.550
 8935POPC   PO471304   1.166  41.586   5.850
 8935POPC   GL171305   1.256  41.541   6.150
 8935POPC   GL271306   1.353  41.585   6.150
 8935POPC   C1A71307   1.198  41.576   6.450
 8935POPC   D2A71308   1.200  41.556   6.750
 8935POPC   C3A71309   1.201  41.607   7.050
 8935POPC   C4A71310   1.206  41.515   7.350
 8935POPC   C1B71311   1.488  41.476   6.450
 8935POPC   C2B71312   1.433  41.540   6.750
 8935POPC   C3B71313   1.470  41.501   7.050
 8935POPC   C4B71314   1.480  41.565   7.350
 8936POPC   NC371315  20.643  41.578   5.550
 8936POPC   PO471316  20.607  41.515   5.850
 8936POPC   GL171317  20.576  41.531   6.150
 8936POPC   GL271318  20.521  41.679   6.150
 8936POPC   C1A71319  20.622  41.596   6.450
 8936POPC   D2A71320  20.584  41.560   6.750
 8936POPC   C3A71321  20.563  41.596   7.050
 8936POPC   C4A71322  20.594  41.573   7.350
 8936POPC   C1B71323  20.493  41.772   6.450
 8936POPC   C2B71324  20.446  41.747   6.750
 8936POPC   C3B71325  20.504  41.740   7.050
 8936POPC   C4B71326  20.475  41.733   7.350
 8937POPC   NC371327   6.674  43.152   5.550
 8937POPC   PO471328   6.597  43.068   5.850
 8937POPC   GL171329   6.638  43.103   6.150
 8937POPC   GL271330   6.680  43.172   6.150
 8937POPC   C1A71331   6.606  43.150   6.450
 8937POPC   D2A71332   6.658  43.121   6.750
 8937POPC   C3A71333   6.605  43.148   7.050
 8937POPC   C4A71334   6.683  43.144   7.350
 8937POPC   C1B71335   6.811  43.329   6.450
 8937POPC   C2B71336   6.832  43.286   6.750
 8937POPC   C3B71337   6.795  43.286   7.050
 8937POPC   C4B71338   6.805  43.341   7.350
 8938POPC   NC371339   6.652  33.008   5.550
 8938POPC   PO471340   6.695  32.991   5.850
 8938POPC   GL171341   6.681  32.980   6.150
 8938POPC   GL271342   6.556  32.894   6.150
 8938POPC   C1A71343   6.670  33.020   6.450
 8938POPC   D2A71344   6.646  33.011   6.750
 8938POPC   C3A71345   6.620  32.997   7.050
 8938POPC   C4A71346   6.663  32.985   7.350
 8938POPC   C1B71347   6.424  32.815   6.450
 8938POPC   C2B71348   6.419  32.854   6.750
 8938POPC   C3B71349   6.475  32.854   7.050
 8938POPC   C4B71350   6.447  32.845   7.350
 8939POPC   NC371351  25.217  29.879   5.550
 8939POPC   PO471352  25.241  29.929   5.850
 8939POPC   GL171353  25.277  29.900   6.150
 8939POPC   GL271354  25.235  30.038   6.150
 8939POPC   C1A71355  25.243  29.876   6.450
 8939POPC   D2A71356  25.273  29.924   6.750
 8939POPC   C3A71357  25.271  29.959   7.050
 8939POPC   C4A71358  25.238  29.937   7.350
 8939POPC   C1B71359  25.127  30.147   6.450
 8939POPC   C2B71360  25.168  30.114   6.750
 8939POPC   C3B71361  25.201  30.114   7.050
 8939POPC   C4B71362  25.134  30.112   7.350
 8940POPC   NC371363  21.434  22.122   5.550
 8940POPC   PO471364  21.379  22.144   5.850
 8940POPC   GL171365  21.396  22.208   6.150
 8940POPC   GL271366  21.416  22.303   6.150
 8940POPC   C1A71367  21.367  22.207   6.450
 8940POPC   D2A71368  21.410  22.153   6.750
 8940POPC   C3A71369  21.374  22.203   7.050
 8940POPC   C4A71370  21.386  22.145   7.350
 8940POPC   C1B71371  21.516  22.394   6.450
 8940POPC   C2B71372  21.456  22.384   6.750
 8940POPC   C3B71373  21.495  22.408   7.050
 8940POPC   C4B71374  21.514  22.411   7.350
 8941POPC   NC371375  36.940   2.003   5.550
 8941POPC   PO471376  36.953   1.984   5.850
 8941POPC   GL171377  36.888   2.031   6.150
 8941POPC   GL271378  36.914   2.078   6.150
 8941POPC   C1A71379  36.910   1.965   6.450
 8941POPC   D2A71380  36.868   2.033   6.750
 8941POPC   C3A71381  36.922   2.011   7.050
 8941POPC   C4A71382  36.892   1.995   7.350
 8941POPC   C1B71383  36.983   2.238   6.450
 8941POPC   C2B71384  36.939   2.210   6.750
 8941POPC   C3B71385  36.942   2.238   7.050
 8941POPC   C4B71386  36.904   2.202   7.350
 8942POPC   NC371387  33.842  33.812   5.550
 8942POPC   PO471388  33.830  33.795   5.850
 8942POPC   GL171389  33.763  33.807   6.150
 8942POPC   GL271390  33.760  33.709   6.150
 8942POPC   C1A71391  33.798  33.839   6.450
 8942POPC   D2A71392  33.794  33.836   6.750
 8942POPC   C3A71393  33.843  33.783   7.050
 8942POPC   C4A71394  33.756  33.778   7.350
 8942POPC   C1B71395  33.751  33.565   6.450
 8942POPC   C2B71396  33.834  33.535   6.750
 8942POPC   C3B71397  33.814  33.586   7.050
 8942POPC   C4B71398  33.781  33.555   7.350
 8943POPC   NC371399   6.686  43.902   5.550
 8943POPC   PO471400   6.636  43.885   5.850
 8943POPC   GL171401   6.675  43.912   6.150
 8943POPC   GL271402   6.511  43.931   6.150
 8943POPC   C1A71403   6.685  43.882   6.450
 8943POPC   D2A71404   6.600  43.901   6.750
 8943POPC   C3A71405   6.624  43.925   7.050
 8943POPC   C4A71406   6.639  43.899   7.350
 8943POPC   C1B71407   6.436  43.971   6.450
 8943POPC   C2B71408   6.444  43.937   6.750
 8943POPC   C3B71409   6.448  43.905   7.050
 8943POPC   C4B71410   6.361  43.966   7.350
 8944POPC   NC371411  20.590  38.443   5.550
 8944POPC   PO471412  20.589  38.501   5.850
 8944POPC   GL171413  20.604  38.408   6.150
 8944POPC   GL271414  20.454  38.480   6.150
 8944POPC   C1A71415  20.591  38.421   6.450
 8944POPC   D2A71416  20.583  38.440   6.750
 8944POPC   C3A71417  20.611  38.453   7.050
 8944POPC   C4A71418  20.658  38.473   7.350
 8944POPC   C1B71419  20.399  38.414   6.450
 8944POPC   C2B71420  20.404  38.418   6.750
 8944POPC   C3B71421  20.342  38.458   7.050
 8944POPC   C4B71422  20.408  38.469   7.350
 8945POPC   NC371423  31.431  38.452   5.550
 8945POPC   PO471424  31.485  38.483   5.850
 8945POPC   GL171425  31.483  38.478   6.150
 8945POPC   GL271426  31.548  38.297   6.150
 8945POPC   C1A71427  31.492  38.435   6.450
 8945POPC   D2A71428  31.515  38.406   6.750
 8945POPC   C3A71429  31.496  38.449   7.050
 8945POPC   C4A71430  31.424  38.483   7.350
 8945POPC   C1B71431  31.546  38.259   6.450
 8945POPC   C2B71432  31.560  38.241   6.750
 8945POPC   C3B71433  31.526  38.238   7.050
 8945POPC   C4B71434  31.553  38.178   7.350
 8946POPC   NC371435   5.846   5.874   5.550
 8946POPC   PO471436   5.832   5.883   5.850
 8946POPC   GL171437   5.906   5.829   6.150
 8946POPC   GL271438   6.009   5.844   6.150
 8946POPC   C1A71439   5.855   5.840   6.450
 8946POPC   D2A71440   5.902   5.820   6.750
 8946POPC   C3A71441   5.845   5.890   7.050
 8946POPC   C4A71442   5.892   5.848   7.350
 8946POPC   C1B71443   6.087   5.723   6.450
 8946POPC   C2B71444   6.093   5.698   6.750
 8946POPC   C3B71445   6.040   5.754   7.050
 8946POPC   C4B71446   6.081   5.699   7.350
 8947POPC   NC371447   5.840  28.331   5.550
 8947POPC   PO471448   5.867  28.387   5.850
 8947POPC   GL171449   5.863  28.365   6.150
 8947POPC   GL271450   5.816  28.287   6.150
 8947POPC   C1A71451   5.833  28.406   6.450
 8947POPC   D2A71452   5.876  28.327   6.750
 8947POPC   C3A71453   5.914  28.412   7.050
 8947POPC   C4A71454   5.910  28.383   7.350
 8947POPC   C1B71455   5.730  28.213   6.450
 8947POPC   C2B71456   5.690  28.189   6.750
 8947POPC   C3B71457   5.686  28.250   7.050
 8947POPC   C4B71458   5.651  28.170   7.350
 8948POPC   NC371459   4.316  14.354   5.550
 8948POPC   PO471460   4.306  14.403   5.850
 8948POPC   GL171461   4.288  14.393   6.150
 8948POPC   GL271462   4.348  14.272   6.150
 8948POPC   C1A71463   4.347  14.376   6.450
 8948POPC   D2A71464   4.278  14.358   6.750
 8948POPC   C3A71465   4.301  14.425   7.050
 8948POPC   C4A71466   4.358  14.434   7.350
 8948POPC   C1B71467   4.389  14.134   6.450
 8948POPC   C2B71468   4.451  14.190   6.750
 8948POPC   C3B71469   4.384  14.217   7.050
 8948POPC   C4B71470   4.407  14.156   7.350
 8949POPC   NC371471  39.962  26.056   5.550
 8949POPC   PO471472  40.004  26.034   5.850
 8949POPC   GL171473  39.998  26.017   6.150
 8949POPC   GL271474  39.955  25.938   6.150
 8949POPC   C1A71475  39.979  26.008   6.450
 8949POPC   D2A71476  39.991  26.019   6.750
 8949POPC   C3A71477  40.008  26.002   7.050
 8949POPC   C4A71478  40.010  26.078   7.350
 8949POPC   C1B71479  39.918  25.803   6.450
 8949POPC   C2B71480  39.900  25.820   6.750
 8949POPC   C3B71481  39.944  25.790   7.050
 8949POPC   C4B71482  39.901  25.828   7.350
 8950POPC   NC371483   4.313  31.427   5.550
 8950POPC   PO471484   4.365  31.469   5.850
 8950POPC   GL171485   4.279  31.475   6.150
 8950POPC   GL271486   4.241  31.530   6.150
 8950POPC   C1A71487   4.341  31.456   6.450
 8950POPC   D2A71488   4.329  31.473   6.750
 8950POPC   C3A71489   4.326  31.454   7.050
 8950POPC   C4A71490   4.325  31.500   7.350
 8950POPC   C1B71491   4.107  31.691   6.450
 8950POPC   C2B71492   4.184  31.680   6.750
 8950POPC   C3B71493   4.097  31.612   7.050
 8950POPC   C4B71494   4.094  31.683   7.350
 8951POPC   NC371495   1.997  44.625   5.550
 8951POPC   PO471496   1.945  44.629   5.850
 8951POPC   GL171497   2.001  44.686   6.150
 8951POPC   GL271498   1.887  44.702   6.150
 8951POPC   C1A71499   1.941  44.660   6.450
 8951POPC   D2A71500   2.022  44.669   6.750
 8951POPC   C3A71501   1.947  44.623   7.050
 8951POPC   C4A71502   1.989  44.669   7.350
 8951POPC   C1B71503   1.744  44.810   6.450
 8951POPC   C2B71504   1.726  44.795   6.750
 8951POPC   C3B71505   1.790  44.821   7.050
 8951POPC   C4B71506   1.766  44.726   7.350
 8952POPC   NC371507  21.428  24.440   5.550
 8952POPC   PO471508  21.344  24.471   5.850
 8952POPC   GL171509  21.364  24.484   6.150
 8952POPC   GL271510  21.449  24.582   6.150
 8952POPC   C1A71511  21.405  24.538   6.450
 8952POPC   D2A71512  21.343  24.443   6.750
 8952POPC   C3A71513  21.410  24.447   7.050
 8952POPC   C4A71514  21.395  24.530   7.350
 8952POPC   C1B71515  21.616  24.615   6.450
 8952POPC   C2B71516  21.631  24.625   6.750
 8952POPC   C3B71517  21.616  24.679   7.050
 8952POPC   C4B71518  21.546  24.639   7.350
 8953POPC   NC371519  23.754  12.818   5.550
 8953POPC   PO471520  23.748  12.883   5.850
 8953POPC   GL171521  23.717  12.802   6.150
 8953POPC   GL271522  23.722  12.783   6.150
 8953POPC   C1A71523  23.707  12.819   6.450
 8953POPC   D2A71524  23.763  12.875   6.750
 8953POPC   C3A71525  23.744  12.886   7.050
 8953POPC   C4A71526  23.743  12.877   7.350
 8953POPC   C1B71527  23.806  12.623   6.450
 8953POPC   C2B71528  23.822  12.598   6.750
 8953POPC   C3B71529  23.836  12.644   7.050
 8953POPC   C4B71530  23.806  12.622   7.350
 8954POPC   NC371531  22.891   2.790   5.550
 8954POPC   PO471532  22.897   2.766   5.850
 8954POPC   GL171533  22.915   2.777   6.150
 8954POPC   GL271534  22.828   2.862   6.150
 8954POPC   C1A71535  22.974   2.804   6.450
 8954POPC   D2A71536  22.936   2.805   6.750
 8954POPC   C3A71537  22.917   2.768   7.050
 8954POPC   C4A71538  22.960   2.766   7.350
 8954POPC   C1B71539  22.739   2.884   6.450
 8954POPC   C2B71540  22.672   2.884   6.750
 8954POPC   C3B71541  22.749   2.834   7.050
 8954POPC   C4B71542  22.728   2.876   7.350
 8955POPC   NC371543  16.004  25.996   5.550
 8955POPC   PO471544  15.941  26.031   5.850
 8955POPC   GL171545  15.957  26.068   6.150
 8955POPC   GL271546  15.952  26.175   6.150
 8955POPC   C1A71547  15.963  26.007   6.450
 8955POPC   D2A71548  15.912  26.059   6.750
 8955POPC   C3A71549  15.995  26.000   7.050
 8955POPC   C4A71550  15.969  26.069   7.350
 8955POPC   C1B71551  15.908  26.260   6.450
 8955POPC   C2B71552  15.911  26.283   6.750
 8955POPC   C3B71553  15.913  26.315   7.050
 8955POPC   C4B71554  15.847  26.295   7.350
 8956POPC   NC371555   7.437  28.400   5.550
 8956POPC   PO471556   7.375  28.346   5.850
 8956POPC   GL171557   7.431  28.403   6.150
 8956POPC   GL271558   7.499  28.234   6.150
 8956POPC   C1A71559   7.381  28.333   6.450
 8956POPC   D2A71560   7.429  28.373   6.750
 8956POPC   C3A71561   7.403  28.352   7.050
 8956POPC   C4A71562   7.448  28.407   7.350
 8956POPC   C1B71563   7.483  28.175   6.450
 8956POPC   C2B71564   7.491  28.129   6.750
 8956POPC   C3B71565   7.455  28.092   7.050
 8956POPC   C4B71566   7.542  28.118   7.350
 8957POPC   NC371567  44.624   5.899   5.550
 8957POPC   PO471568  44.630   5.902   5.850
 8957POPC   GL171569  44.684   5.834   6.150
 8957POPC   GL271570  44.628   5.950   6.150
 8957POPC   C1A71571  44.652   5.902   6.450
 8957POPC   D2A71572  44.641   5.882   6.750
 8957POPC   C3A71573  44.698   5.860   7.050
 8957POPC   C4A71574  44.692   5.892   7.350
 8957POPC   C1B71575  44.557   6.069   6.450
 8957POPC   C2B71576  44.606   6.106   6.750
 8957POPC   C3B71577  44.638   6.089   7.050
 8957POPC   C4B71578  44.545   6.129   7.350
 8958POPC   NC371579  14.400  26.797   5.550
 8958POPC   PO471580  14.411  26.849   5.850
 8958POPC   GL171581  14.384  26.865   6.150
 8958POPC   GL271582  14.411  26.981   6.150
 8958POPC   C1A71583  14.400  26.829   6.450
 8958POPC   D2A71584  14.417  26.795   6.750
 8958POPC   C3A71585  14.404  26.808   7.050
 8958POPC   C4A71586  14.429  26.822   7.350
 8958POPC   C1B71587  14.436  27.059   6.450
 8958POPC   C2B71588  14.433  27.114   6.750
 8958POPC   C3B71589  14.458  27.094   7.050
 8958POPC   C4B71590  14.399  27.075   7.350
 8959POPC   NC371591  37.642  42.327   5.550
 8959POPC   PO471592  37.707  42.311   5.850
 8959POPC   GL171593  37.711  42.320   6.150
 8959POPC   GL271594  37.762  42.379   6.150
 8959POPC   C1A71595  37.706  42.377   6.450
 8959POPC   D2A71596  37.681  42.326   6.750
 8959POPC   C3A71597  37.655  42.327   7.050
 8959POPC   C4A71598  37.722  42.301   7.350
 8959POPC   C1B71599  37.920  42.354   6.450
 8959POPC   C2B71600  37.974  42.341   6.750
 8959POPC   C3B71601  37.886  42.386   7.050
 8959POPC   C4B71602  37.950  42.311   7.350
 8960POPC   NC371603   3.518  23.708   5.550
 8960POPC   PO471604   3.510  23.743   5.850
 8960POPC   GL171605   3.567  23.682   6.150
 8960POPC   GL271606   3.374  23.741   6.150
 8960POPC   C1A71607   3.513  23.721   6.450
 8960POPC   D2A71608   3.576  23.756   6.750
 8960POPC   C3A71609   3.532  23.720   7.050
 8960POPC   C4A71610   3.553  23.684   7.350
 8960POPC   C1B71611   3.303  23.750   6.450
 8960POPC   C2B71612   3.251  23.773   6.750
 8960POPC   C3B71613   3.350  23.778   7.050
 8960POPC   C4B71614   3.280  23.808   7.350
 8961POPC   NC371615  36.901  15.986   5.550
 8961POPC   PO471616  36.915  15.906   5.850
 8961POPC   GL171617  36.884  15.926   6.150
 8961POPC   GL271618  36.942  15.796   6.150
 8961POPC   C1A71619  36.940  15.932   6.450
 8961POPC   D2A71620  36.931  15.958   6.750
 8961POPC   C3A71621  36.910  15.911   7.050
 8961POPC   C4A71622  36.895  15.920   7.350
 8961POPC   C1B71623  36.969  15.692   6.450
 8961POPC   C2B71624  37.048  15.708   6.750
 8961POPC   C3B71625  36.993  15.761   7.050
 8961POPC   C4B71626  37.019  15.767   7.350
 8962POPC   NC371627  16.758  29.097   5.550
 8962POPC   PO471628  16.742  29.137   5.850
 8962POPC   GL171629  16.752  29.144   6.150
 8962POPC   GL271630  16.717  29.270   6.150
 8962POPC   C1A71631  16.699  29.096   6.450
 8962POPC   D2A71632  16.737  29.107   6.750
 8962POPC   C3A71633  16.707  29.153   7.050
 8962POPC   C4A71634  16.713  29.183   7.350
 8962POPC   C1B71635  16.599  29.356   6.450
 8962POPC   C2B71636  16.669  29.421   6.750
 8962POPC   C3B71637  16.637  29.424   7.050
 8962POPC   C4B71638  16.596  29.421   7.350
 8963POPC   NC371639  33.059  12.841   5.550
 8963POPC   PO471640  32.987  12.877   5.850
 8963POPC   GL171641  33.011  12.854   6.150
 8963POPC   GL271642  33.105  12.777   6.150
 8963POPC   C1A71643  33.073  12.895   6.450
 8963POPC   D2A71644  33.014  12.805   6.750
 8963POPC   C3A71645  32.977  12.831   7.050
 8963POPC   C4A71646  33.057  12.825   7.350
 8963POPC   C1B71647  33.191  12.696   6.450
 8963POPC   C2B71648  33.224  12.661   6.750
 8963POPC   C3B71649  33.186  12.684   7.050
 8963POPC   C4B71650  33.138  12.666   7.350
 8964POPC   NC371651  31.440   7.444   5.550
 8964POPC   PO471652  31.464   7.389   5.850
 8964POPC   GL171653  31.449   7.423   6.150
 8964POPC   GL271654  31.371   7.318   6.150
 8964POPC   C1A71655  31.467   7.444   6.450
 8964POPC   D2A71656  31.483   7.386   6.750
 8964POPC   C3A71657  31.510   7.412   7.050
 8964POPC   C4A71658  31.429   7.417   7.350
 8964POPC   C1B71659  31.253   7.308   6.450
 8964POPC   C2B71660  31.239   7.253   6.750
 8964POPC   C3B71661  31.324   7.287   7.050
 8964POPC   C4B71662  31.262   7.280   7.350
 8965POPC   NC371663  17.508  29.178   5.550
 8965POPC   PO471664  17.476  29.147   5.850
 8965POPC   GL171665  17.522  29.150   6.150
 8965POPC   GL271666  17.548  29.266   6.150
 8965POPC   C1A71667  17.491  29.144   6.450
 8965POPC   D2A71668  17.520  29.095   6.750
 8965POPC   C3A71669  17.489  29.155   7.050
 8965POPC   C4A71670  17.540  29.124   7.350
 8965POPC   C1B71671  17.713  29.291   6.450
 8965POPC   C2B71672  17.701  29.374   6.750
 8965POPC   C3B71673  17.670  29.290   7.050
 8965POPC   C4B71674  17.671  29.342   7.350
 8966POPC   NC371675  10.479  26.839   5.550
 8966POPC   PO471676  10.566  26.832   5.850
 8966POPC   GL171677  10.547  26.859   6.150
 8966POPC   GL271678  10.658  26.803   6.150
 8966POPC   C1A71679  10.533  26.782   6.450
 8966POPC   D2A71680  10.486  26.863   6.750
 8966POPC   C3A71681  10.504  26.782   7.050
 8966POPC   C4A71682  10.496  26.777   7.350
 8966POPC   C1B71683  10.785  26.763   6.450
 8966POPC   C2B71684  10.748  26.750   6.750
 8966POPC   C3B71685  10.738  26.731   7.050
 8966POPC   C4B71686  10.719  26.749   7.350
 8967POPC   NC371687  11.323   1.261   5.550
 8967POPC   PO471688  11.305   1.203   5.850
 8967POPC   GL171689  11.268   1.199   6.150
 8967POPC   GL271690  11.195   1.082   6.150
 8967POPC   C1A71691  11.332   1.242   6.450
 8967POPC   D2A71692  11.311   1.261   6.750
 8967POPC   C3A71693  11.305   1.177   7.050
 8967POPC   C4A71694  11.274   1.243   7.350
 8967POPC   C1B71695  11.204   1.014   6.450
 8967POPC   C2B71696  11.121   1.003   6.750
 8967POPC   C3B71697  11.168   1.045   7.050
 8967POPC   C4B71698  11.210   1.005   7.350
 8968POPC   NC371699  40.814  36.932   5.550
 8968POPC   PO471700  40.795  36.929   5.850
 8968POPC   GL171701  40.812  36.914   6.150
 8968POPC   GL271702  40.732  36.989   6.150
 8968POPC   C1A71703  40.793  36.930   6.450
 8968POPC   D2A71704  40.790  36.867   6.750
 8968POPC   C3A71705  40.828  36.933   7.050
 8968POPC   C4A71706  40.754  36.932   7.350
 8968POPC   C1B71707  40.556  37.049   6.450
 8968POPC   C2B71708  40.564  37.055   6.750
 8968POPC   C3B71709  40.601  37.100   7.050
 8968POPC   C4B71710  40.564  37.014   7.350
 8969POPC   NC371711   8.956  15.984   5.550
 8969POPC   PO471712   8.965  15.987   5.850
 8969POPC   GL171713   8.933  15.951   6.150
 8969POPC   GL271714   8.924  16.081   6.150
 8969POPC   C1A71715   8.932  15.990   6.450
 8969POPC   D2A71716   8.947  15.967   6.750
 8969POPC   C3A71717   8.944  15.988   7.050
 8969POPC   C4A71718   8.924  15.941   7.350
 8969POPC   C1B71719   8.907  16.211   6.450
 8969POPC   C2B71720   8.925  16.228   6.750
 8969POPC   C3B71721   8.951  16.154   7.050
 8969POPC   C4B71722   8.937  16.228   7.350
 8970POPC   NC371723  42.302  14.404   5.550
 8970POPC   PO471724  42.340  14.452   5.850
 8970POPC   GL171725  42.332  14.374   6.150
 8970POPC   GL271726  42.442  14.302   6.150
 8970POPC   C1A71727  42.307  14.378   6.450
 8970POPC   D2A71728  42.373  14.362   6.750
 8970POPC   C3A71729  42.288  14.364   7.050
 8970POPC   C4A71730  42.319  14.447   7.350
 8970POPC   C1B71731  42.492  14.230   6.450
 8970POPC   C2B71732  42.433  14.203   6.750
 8970POPC   C3B71733  42.504  14.146   7.050
 8970POPC   C4B71734  42.458  14.187   7.350
 8971POPC   NC371735  10.482   0.481   5.550
 8971POPC   PO471736  10.509   0.435   5.850
 8971POPC   GL171737  10.518   0.447   6.150
 8971POPC   GL271738  10.496   0.577   6.150
 8971POPC   C1A71739  10.509   0.473   6.450
 8971POPC   D2A71740  10.566   0.416   6.750
 8971POPC   C3A71741  10.522   0.411   7.050
 8971POPC   C4A71742  10.500   0.390   7.350
 8971POPC   C1B71743  10.544   0.729   6.450
 8971POPC   C2B71744  10.491   0.660   6.750
 8971POPC   C3B71745  10.447   0.696   7.050
 8971POPC   C4B71746  10.519   0.736   7.350
 8972POPC   NC371747  39.986  19.039   5.550
 8972POPC   PO471748  40.011  19.055   5.850
 8972POPC   GL171749  40.023  19.060   6.150
 8972POPC   GL271750  40.015  19.154   6.150
 8972POPC   C1A71751  40.015  19.091   6.450
 8972POPC   D2A71752  39.983  19.074   6.750
 8972POPC   C3A71753  40.037  19.106   7.050
 8972POPC   C4A71754  39.981  19.061   7.350
 8972POPC   C1B71755  40.033  19.291   6.450
 8972POPC   C2B71756  40.095  19.259   6.750
 8972POPC   C3B71757  40.028  19.279   7.050
 8972POPC   C4B71758  40.036  19.257   7.350
 8973POPC   NC371759  36.862   6.674   5.550
 8973POPC   PO471760  36.873   6.675   5.850
 8973POPC   GL171761  36.928   6.693   6.150
 8973POPC   GL271762  36.857   6.777   6.150
 8973POPC   C1A71763  36.914   6.604   6.450
 8973POPC   D2A71764  36.898   6.601   6.750
 8973POPC   C3A71765  36.886   6.611   7.050
 8973POPC   C4A71766  36.899   6.596   7.350
 8973POPC   C1B71767  36.775   6.901   6.450
 8973POPC   C2B71768  36.782   6.905   6.750
 8973POPC   C3B71769  36.748   6.836   7.050
 8973POPC   C4B71770  36.762   6.822   7.350
 8974POPC   NC371771  34.620  28.343   5.550
 8974POPC   PO471772  34.528  28.323   5.850
 8974POPC   GL171773  34.532  28.396   6.150
 8974POPC   GL271774  34.639  28.422   6.150
 8974POPC   C1A71775  34.531  28.354   6.450
 8974POPC   D2A71776  34.561  28.348   6.750
 8974POPC   C3A71777  34.617  28.397   7.050
 8974POPC   C4A71778  34.606  28.375   7.350
 8974POPC   C1B71779  34.816  28.539   6.450
 8974POPC   C2B71780  34.781  28.476   6.750
 8974POPC   C3B71781  34.788  28.475   7.050
 8974POPC   C4B71782  34.798  28.499   7.350
 8975POPC   NC371783  23.710  26.827   5.550
 8975POPC   PO471784  23.695  26.805   5.850
 8975POPC   GL171785  23.715  26.826   6.150
 8975POPC   GL271786  23.793  26.895   6.150
 8975POPC   C1A71787  23.685  26.861   6.450
 8975POPC   D2A71788  23.757  26.844   6.750
 8975POPC   C3A71789  23.674  26.777   7.050
 8975POPC   C4A71790  23.677  26.828   7.350
 8975POPC   C1B71791  23.921  27.038   6.450
 8975POPC   C2B71792  23.917  26.985   6.750
 8975POPC   C3B71793  23.845  26.957   7.050
 8975POPC   C4B71794  23.926  26.961   7.350
 8976POPC   NC371795  15.920  32.255   5.550
 8976POPC   PO471796  15.949  32.237   5.850
 8976POPC   GL171797  15.954  32.203   6.150
 8976POPC   GL271798  16.063  32.364   6.150
 8976POPC   C1A71799  15.986  32.288   6.450
 8976POPC   D2A71800  15.920  32.208   6.750
 8976POPC   C3A71801  15.970  32.247   7.050
 8976POPC   C4A71802  15.982  32.253   7.350
 8976POPC   C1B71803  16.092  32.407   6.450
 8976POPC   C2B71804  16.163  32.397   6.750
 8976POPC   C3B71805  16.154  32.403   7.050
 8976POPC   C4B71806  16.111  32.448   7.350
 8977POPC   NC371807  24.471  34.606   5.550
 8977POPC   PO471808  24.528  34.611   5.850
 8977POPC   GL171809  24.472  34.596   6.150
 8977POPC   GL271810  24.578  34.509   6.150
 8977POPC   C1A71811  24.486  34.543   6.450
 8977POPC   D2A71812  24.464  34.613   6.750
 8977POPC   C3A71813  24.512  34.561   7.050
 8977POPC   C4A71814  24.501  34.571   7.350
 8977POPC   C1B71815  24.694  34.512   6.450
 8977POPC   C2B71816  24.739  34.512   6.750
 8977POPC   C3B71817  24.685  34.482   7.050
 8977POPC   C4B71818  24.777  34.549   7.350
 8978POPC   NC371819  40.031  18.269   5.550
 8978POPC   PO471820  40.013  18.261   5.850
 8978POPC   GL171821  40.048  18.329   6.150
 8978POPC   GL271822  40.020  18.168   6.150
 8978POPC   C1A71823  39.973  18.309   6.450
 8978POPC   D2A71824  39.997  18.297   6.750
 8978POPC   C3A71825  39.975  18.283   7.050
 8978POPC   C4A71826  39.984  18.307   7.350
 8978POPC   C1B71827  40.019  18.080   6.450
 8978POPC   C2B71828  40.056  17.995   6.750
 8978POPC   C3B71829  39.992  18.060   7.050
 8978POPC   C4B71830  39.988  18.038   7.350
 8979POPC   NC371831   5.086   9.735   5.550
 8979POPC   PO471832   5.045   9.779   5.850
 8979POPC   GL171833   5.116   9.791   6.150
 8979POPC   GL271834   4.997   9.829   6.150
 8979POPC   C1A71835   5.069   9.776   6.450
 8979POPC   D2A71836   5.126   9.707   6.750
 8979POPC   C3A71837   5.066   9.742   7.050
 8979POPC   C4A71838   5.084   9.709   7.350
 8979POPC   C1B71839   5.001   9.987   6.450
 8979POPC   C2B71840   4.927   9.948   6.750
 8979POPC   C3B71841   4.971   9.921   7.050
 8979POPC   C4B71842   4.967   9.939   7.350
 8980POPC   NC371843  38.406  39.216   5.550
 8980POPC   PO471844  38.493  39.200   5.850
 8980POPC   GL171845  38.498  39.263   6.150
 8980POPC   GL271846  38.405  39.293   6.150
 8980POPC   C1A71847  38.481  39.265   6.450
 8980POPC   D2A71848  38.442  39.185   6.750
 8980POPC   C3A71849  38.414  39.234   7.050
 8980POPC   C4A71850  38.430  39.194   7.350
 8980POPC   C1B71851  38.325  39.460   6.450
 8980POPC   C2B71852  38.331  39.448   6.750
 8980POPC   C3B71853  38.329  39.438   7.050
 8980POPC   C4B71854  38.276  39.378   7.350
 8981POPC   NC371855   9.749  27.578   5.550
 8981POPC   PO471856   9.704  27.604   5.850
 8981POPC   GL171857   9.698  27.633   6.150
 8981POPC   GL271858   9.727  27.752   6.150
 8981POPC   C1A71859   9.738  27.563   6.450
 8981POPC   D2A71860   9.777  27.636   6.750
 8981POPC   C3A71861   9.712  27.562   7.050
 8981POPC   C4A71862   9.701  27.625   7.350
 8981POPC   C1B71863   9.743  27.798   6.450
 8981POPC   C2B71864   9.732  27.827   6.750
 8981POPC   C3B71865   9.750  27.801   7.050
 8981POPC   C4B71866   9.752  27.798   7.350
 8982POPC   NC371867  38.451  12.827   5.550
 8982POPC   PO471868  38.455  12.847   5.850
 8982POPC   GL171869  38.430  12.814   6.150
 8982POPC   GL271870  38.459  12.745   6.150
 8982POPC   C1A71871  38.408  12.830   6.450
 8982POPC   D2A71872  38.501  12.897   6.750
 8982POPC   C3A71873  38.494  12.879   7.050
 8982POPC   C4A71874  38.496  12.876   7.350
 8982POPC   C1B71875  38.535  12.637   6.450
 8982POPC   C2B71876  38.480  12.646   6.750
 8982POPC   C3B71877  38.508  12.566   7.050
 8982POPC   C4B71878  38.464  12.602   7.350
 8983POPC   NC371879  39.976  27.600   5.550
 8983POPC   PO471880  39.969  27.590   5.850
 8983POPC   GL171881  39.959  27.581   6.150
 8983POPC   GL271882  39.952  27.726   6.150
 8983POPC   C1A71883  39.963  27.591   6.450
 8983POPC   D2A71884  40.032  27.623   6.750
 8983POPC   C3A71885  40.017  27.596   7.050
 8983POPC   C4A71886  40.034  27.565   7.350
 8983POPC   C1B71887  39.807  27.791   6.450
 8983POPC   C2B71888  39.814  27.716   6.750
 8983POPC   C3B71889  39.839  27.766   7.050
 8983POPC   C4B71890  39.845  27.776   7.350
 8984POPC   NC371891  34.578  29.167   5.550
 8984POPC   PO471892  34.601  29.119   5.850
 8984POPC   GL171893  34.529  29.136   6.150
 8984POPC   GL271894  34.556  29.270   6.150
 8984POPC   C1A71895  34.582  29.181   6.450
 8984POPC   D2A71896  34.543  29.150   6.750
 8984POPC   C3A71897  34.559  29.194   7.050
 8984POPC   C4A71898  34.531  29.122   7.350
 8984POPC   C1B71899  34.632  29.359   6.450
 8984POPC   C2B71900  34.582  29.347   6.750
 8984POPC   C3B71901  34.562  29.440   7.050
 8984POPC   C4B71902  34.579  29.365   7.350
 8985POPC   NC371903  26.853  22.185   5.550
 8985POPC   PO471904  26.856  22.176   5.850
 8985POPC   GL171905  26.833  22.152   6.150
 8985POPC   GL271906  26.949  22.114   6.150
 8985POPC   C1A71907  26.785  22.115   6.450
 8985POPC   D2A71908  26.844  22.125   6.750
 8985POPC   C3A71909  26.781  22.144   7.050
 8985POPC   C4A71910  26.808  22.163   7.350
 8985POPC   C1B71911  27.096  22.068   6.450
 8985POPC   C2B71912  27.034  22.060   6.750
 8985POPC   C3B71913  27.008  22.064   7.050
 8985POPC   C4B71914  27.097  22.076   7.350
 8986POPC   NC371915  39.203  12.043   5.550
 8986POPC   PO471916  39.266  12.063   5.850
 8986POPC   GL171917  39.238  12.093   6.150
 8986POPC   GL271918  39.376  12.111   6.150
 8986POPC   C1A71919  39.198  12.104   6.450
 8986POPC   D2A71920  39.247  12.122   6.750
 8986POPC   C3A71921  39.217  12.047   7.050
 8986POPC   C4A71922  39.205  12.072   7.350
 8986POPC   C1B71923  39.392  12.187   6.450
 8986POPC   C2B71924  39.433  12.197   6.750
 8986POPC   C3B71925  39.420  12.214   7.050
 8986POPC   C4B71926  39.427  12.177   7.350
 8987POPC   NC371927  29.879  15.206   5.550
 8987POPC   PO471928  29.956  15.176   5.850
 8987POPC   GL171929  29.919  15.212   6.150
 8987POPC   GL271930  29.804  15.098   6.150
 8987POPC   C1A71931  29.920  15.148   6.450
 8987POPC   D2A71932  29.910  15.229   6.750
 8987POPC   C3A71933  29.952  15.197   7.050
 8987POPC   C4A71934  29.912  15.204   7.350
 8987POPC   C1B71935  29.733  15.143   6.450
 8987POPC   C2B71936  29.658  15.136   6.750
 8987POPC   C3B71937  29.640  15.061   7.050
 8987POPC   C4B71938  29.713  15.138   7.350
 8988POPC   NC371939   2.792   6.597   5.550
 8988POPC   PO471940   2.789   6.685   5.850
 8988POPC   GL171941   2.745   6.607   6.150
 8988POPC   GL271942   2.641   6.681   6.150
 8988POPC   C1A71943   2.731   6.681   6.450
 8988POPC   D2A71944   2.757   6.682   6.750
 8988POPC   C3A71945   2.784   6.658   7.050
 8988POPC   C4A71946   2.777   6.655   7.350
 8988POPC   C1B71947   2.486   6.673   6.450
 8988POPC   C2B71948   2.476   6.644   6.750
 8988POPC   C3B71949   2.501   6.705   7.050
 8988POPC   C4B71950   2.533   6.684   7.350
 8989POPC   NC371951  36.157  22.971   5.550
 8989POPC   PO471952  36.145  22.950   5.850
 8989POPC   GL171953  36.111  22.913   6.150
 8989POPC   GL271954  36.301  22.943   6.150
 8989POPC   C1A71955  36.159  22.899   6.450
 8989POPC   D2A71956  36.135  22.987   6.750
 8989POPC   C3A71957  36.152  22.979   7.050
 8989POPC   C4A71958  36.161  22.904   7.350
 8989POPC   C1B71959  36.333  22.939   6.450
 8989POPC   C2B71960  36.423  22.900   6.750
 8989POPC   C3B71961  36.346  22.920   7.050
 8989POPC   C4B71962  36.408  22.896   7.350
 8990POPC   NC371963  41.605  23.702   5.550
 8990POPC   PO471964  41.580  23.706   5.850
 8990POPC   GL171965  41.569  23.689   6.150
 8990POPC   GL271966  41.455  23.672   6.150
 8990POPC   C1A71967  41.564  23.680   6.450
 8990POPC   D2A71968  41.567  23.736   6.750
 8990POPC   C3A71969  41.564  23.703   7.050
 8990POPC   C4A71970  41.520  23.707   7.350
 8990POPC   C1B71971  41.284  23.669   6.450
 8990POPC   C2B71972  41.299  23.644   6.750
 8990POPC   C3B71973  41.293  23.696   7.050
 8990POPC   C4B71974  41.294  23.635   7.350
 8991POPC   NC371975  12.891   7.388   5.550
 8991POPC   PO471976  12.856   7.467   5.850
 8991POPC   GL171977  12.881   7.429   6.150
 8991POPC   GL271978  12.839   7.314   6.150
 8991POPC   C1A71979  12.818   7.410   6.450
 8991POPC   D2A71980  12.802   7.464   6.750
 8991POPC   C3A71981  12.893   7.411   7.050
 8991POPC   C4A71982  12.858   7.408   7.350
 8991POPC   C1B71983  12.817   7.176   6.450
 8991POPC   C2B71984  12.798   7.191   6.750
 8991POPC   C3B71985  12.845   7.150   7.050
 8991POPC   C4B71986  12.779   7.157   7.350
 8992POPC   NC371987  35.355  20.623   5.550
 8992POPC   PO471988  35.368  20.646   5.850
 8992POPC   GL171989  35.315  20.657   6.150
 8992POPC   GL271990  35.462  20.539   6.150
 8992POPC   C1A71991  35.319  20.603   6.450
 8992POPC   D2A71992  35.312  20.604   6.750
 8992POPC   C3A71993  35.342  20.623   7.050
 8992POPC   C4A71994  35.345  20.591   7.350
 8992POPC   C1B71995  35.570  20.479   6.450
 8992POPC   C2B71996  35.509  20.489   6.750
 8992POPC   C3B71997  35.557  20.397   7.050
 8992POPC   C4B71998  35.552  20.427   7.350
 8993POPC   NC371999   9.018  35.355   5.550
 8993POPC   PO472000   9.002  35.318   5.850
 8993POPC   GL172001   8.992  35.334   6.150
 8993POPC   GL272002   8.911  35.202   6.150
 8993POPC   C1A72003   8.993  35.369   6.450
 8993POPC   D2A72004   8.998  35.351   6.750
 8993POPC   C3A72005   8.981  35.353   7.050
 8993POPC   C4A72006   9.010  35.309   7.350
 8993POPC   C1B72007   8.899  35.089   6.450
 8993POPC   C2B72008   8.937  35.075   6.750
 8993POPC   C3B72009   8.901  35.076   7.050
 8993POPC   C4B72010   8.885  35.161   7.350
 8994POPC   NC372011  32.282  17.536   5.550
 8994POPC   PO472012  32.286  17.502   5.850
 8994POPC   GL172013  32.224  17.528   6.150
 8994POPC   GL272014  32.268  17.661   6.150
 8994POPC   C1A72015  32.200  17.528   6.450
 8994POPC   D2A72016  32.249  17.533   6.750
 8994POPC   C3A72017  32.219  17.496   7.050
 8994POPC   C4A72018  32.241  17.539   7.350
 8994POPC   C1B72019  32.229  17.738   6.450
 8994POPC   C2B72020  32.212  17.777   6.750
 8994POPC   C3B72021  32.242  17.717   7.050
 8994POPC   C4B72022  32.220  17.747   7.350
 8995POPC   NC372023   0.474  35.386   5.550
 8995POPC   PO472024   0.404  35.375   5.850
 8995POPC   GL172025   0.438  35.360   6.150
 8995POPC   GL272026   0.494  35.270   6.150
 8995POPC   C1A72027   0.407  35.374   6.450
 8995POPC   D2A72028   0.405  35.318   6.750
 8995POPC   C3A72029   0.471  35.310   7.050
 8995POPC   C4A72030   0.417  35.332   7.350
 8995POPC   C1B72031   0.646  35.169   6.450
 8995POPC   C2B72032   0.591  35.166   6.750
 8995POPC   C3B72033   0.558  35.154   7.050
 8995POPC   C4B72034   0.611  35.182   7.350
 8996POPC   NC372035  28.376  29.948   5.550
 8996POPC   PO472036  28.375  29.881   5.850
 8996POPC   GL172037  28.382  29.911   6.150
 8996POPC   GL272038  28.306  29.837   6.150
 8996POPC   C1A72039  28.384  29.899   6.450
 8996POPC   D2A72040  28.329  29.949   6.750
 8996POPC   C3A72041  28.370  29.963   7.050
 8996POPC   C4A72042  28.417  29.904   7.350
 8996POPC   C1B72043  28.266  29.652   6.450
 8996POPC   C2B72044  28.242  29.692   6.750
 8996POPC   C3B72045  28.261  29.702   7.050
 8996POPC   C4B72046  28.230  29.665   7.350
 8997POPC   NC372047   4.329  15.958   5.550
 8997POPC   PO472048   4.340  15.990   5.850
 8997POPC   GL172049   4.291  15.910   6.150
 8997POPC   GL272050   4.422  16.078   6.150
 8997POPC   C1A72051   4.367  15.991   6.450
 8997POPC   D2A72052   4.289  15.941   6.750
 8997POPC   C3A72053   4.347  15.920   7.050
 8997POPC   C4A72054   4.353  15.914   7.350
 8997POPC   C1B72055   4.476  16.127   6.450
 8997POPC   C2B72056   4.501  16.167   6.750
 8997POPC   C3B72057   4.505  16.148   7.050
 8997POPC   C4B72058   4.538  16.113   7.350
 8998POPC   NC372059  36.169  12.098   5.550
 8998POPC   PO472060  36.105  12.121   5.850
 8998POPC   GL172061  36.172  12.118   6.150
 8998POPC   GL272062  36.095  11.975   6.150
 8998POPC   C1A72063  36.169  12.109   6.450
 8998POPC   D2A72064  36.098  12.033   6.750
 8998POPC   C3A72065  36.136  12.059   7.050
 8998POPC   C4A72066  36.150  12.035   7.350
 8998POPC   C1B72067  36.155  11.793   6.450
 8998POPC   C2B72068  36.102  11.798   6.750
 8998POPC   C3B72069  36.083  11.854   7.050
 8998POPC   C4B72070  36.075  11.847   7.350
 8999POPC   NC372071  37.664  12.074   5.550
 8999POPC   PO472072  37.719  12.063   5.850
 8999POPC   GL172073  37.722  12.063   6.150
 8999POPC   GL272074  37.783  12.119   6.150
 8999POPC   C1A72075  37.665  12.084   6.450
 8999POPC   D2A72076  37.722  12.103   6.750
 8999POPC   C3A72077  37.672  12.110   7.050
 8999POPC   C4A72078  37.671  12.037   7.350
 8999POPC   C1B72079  37.921  12.037   6.450
 8999POPC   C2B72080  37.956  12.060   6.750
 8999POPC   C3B72081  37.887  12.082   7.050
 8999POPC   C4B72082  37.903  12.042   7.350
 9000POPC   NC372083  22.915   1.200   5.550
 9000POPC   PO472084  22.913   1.231   5.850
 9000POPC   GL172085  22.970   1.253   6.150
 9000POPC   GL272086  23.012   1.172   6.150
 9000POPC   C1A72087  22.896   1.172   6.450
 9000POPC   D2A72088  22.904   1.240   6.750
 9000POPC   C3A72089  22.900   1.202   7.050
 9000POPC   C4A72090  22.920   1.179   7.350
 9000POPC   C1B72091  23.103   1.071   6.450
 9000POPC   C2B72092  23.088   1.018   6.750
 9000POPC   C3B72093  23.136   1.020   7.050
 9000POPC   C4B72094  23.097   0.998   7.350
 9001POPC   NC372095  34.605  32.255   5.550
 9001POPC   PO472096  34.566  32.230   5.850
 9001POPC   GL172097  34.527  32.247   6.150
 9001POPC   GL272098  34.548  32.329   6.150
 9001POPC   C1A72099  34.594  32.291   6.450
 9001POPC   D2A72100  34.608  32.294   6.750
 9001POPC   C3A72101  34.583  32.277   7.050
 9001POPC   C4A72102  34.608  32.247   7.350
 9001POPC   C1B72103  34.507  32.499   6.450
 9001POPC   C2B72104  34.563  32.507   6.750
 9001POPC   C3B72105  34.489  32.474   7.050
 9001POPC   C4B72106  34.550  32.481   7.350
 9002POPC   NC372107  19.860  42.290   5.550
 9002POPC   PO472108  19.859  42.333   5.850
 9002POPC   GL172109  19.786  42.302   6.150
 9002POPC   GL272110  19.905  42.270   6.150
 9002POPC   C1A72111  19.868  42.305   6.450
 9002POPC   D2A72112  19.833  42.300   6.750
 9002POPC   C3A72113  19.842  42.323   7.050
 9002POPC   C4A72114  19.881  42.337   7.350
 9002POPC   C1B72115  20.045  42.296   6.450
 9002POPC   C2B72116  20.089  42.288   6.750
 9002POPC   C3B72117  20.031  42.229   7.050
 9002POPC   C4B72118  20.088  42.248   7.350
 9003POPC   NC372119   5.089  28.411   5.550
 9003POPC   PO472120   5.099  28.343   5.850
 9003POPC   GL172121   5.047  28.334   6.150
 9003POPC   GL272122   5.062  28.512   6.150
 9003POPC   C1A72123   5.136  28.334   6.450
 9003POPC   D2A72124   5.137  28.389   6.750
 9003POPC   C3A72125   5.059  28.405   7.050
 9003POPC   C4A72126   5.119  28.393   7.350
 9003POPC   C1B72127   5.140  28.660   6.450
 9003POPC   C2B72128   5.132  28.635   6.750
 9003POPC   C3B72129   5.088  28.569   7.050
 9003POPC   C4B72130   5.084  28.652   7.350
 9004POPC   NC372131  42.317  12.841   5.550
 9004POPC   PO472132  42.358  12.824   5.850
 9004POPC   GL172133  42.331  12.889   6.150
 9004POPC   GL272134  42.345  12.705   6.150
 9004POPC   C1A72135  42.329  12.825   6.450
 9004POPC   D2A72136  42.285  12.862   6.750
 9004POPC   C3A72137  42.358  12.815   7.050
 9004POPC   C4A72138  42.369  12.848   7.350
 9004POPC   C1B72139  42.434  12.667   6.450
 9004POPC   C2B72140  42.413  12.586   6.750
 9004POPC   C3B72141  42.438  12.597   7.050
 9004POPC   C4B72142  42.398  12.597   7.350
 9005POPC   NC372143  23.694   2.779   5.550
 9005POPC   PO472144  23.676   2.764   5.850
 9005POPC   GL172145  23.694   2.814   6.150
 9005POPC   GL272146  23.671   2.933   6.150
 9005POPC   C1A72147  23.680   2.812   6.450
 9005POPC   D2A72148  23.755   2.792   6.750
 9005POPC   C3A72149  23.725   2.731   7.050
 9005POPC   C4A72150  23.710   2.797   7.350
 9005POPC   C1B72151  23.694   3.050   6.450
 9005POPC   C2B72152  23.664   3.027   6.750
 9005POPC   C3B72153  23.728   2.973   7.050
 9005POPC   C4B72154  23.671   3.046   7.350
 9006POPC   NC372155   3.559  25.300   5.550
 9006POPC   PO472156   3.504  25.268   5.850
 9006POPC   GL172157   3.551  25.217   6.150
 9006POPC   GL272158   3.417  25.348   6.150
 9006POPC   C1A72159   3.514  25.258   6.450
 9006POPC   D2A72160   3.506  25.243   6.750
 9006POPC   C3A72161   3.584  25.285   7.050
 9006POPC   C4A72162   3.494  25.226   7.350
 9006POPC   C1B72163   3.377  25.416   6.450
 9006POPC   C2B72164   3.338  25.435   6.750
 9006POPC   C3B72165   3.377  25.426   7.050
 9006POPC   C4B72166   3.383  25.469   7.350
 9007POPC   NC372167  30.657  37.695   5.550
 9007POPC   PO472168  30.657  37.723   5.850
 9007POPC   GL172169  30.690  37.725   6.150
 9007POPC   GL272170  30.783  37.803   6.150
 9007POPC   C1A72171  30.673  37.690   6.450
 9007POPC   D2A72172  30.703  37.663   6.750
 9007POPC   C3A72173  30.655  37.689   7.050
 9007POPC   C4A72174  30.708  37.661   7.350
 9007POPC   C1B72175  30.764  37.945   6.450
 9007POPC   C2B72176  30.757  37.873   6.750
 9007POPC   C3B72177  30.735  37.910   7.050
 9007POPC   C4B72178  30.794  37.917   7.350
 9008POPC   NC372179  19.024  20.570   5.550
 9008POPC   PO472180  19.029  20.615   5.850
 9008POPC   GL172181  19.091  20.641   6.150
 9008POPC   GL272182  19.154  20.710   6.150
 9008POPC   C1A72183  19.043  20.647   6.450
 9008POPC   D2A72184  19.086  20.587   6.750
 9008POPC   C3A72185  19.028  20.655   7.050
 9008POPC   C4A72186  19.059  20.623   7.350
 9008POPC   C1B72187  19.200  20.797   6.450
 9008POPC   C2B72188  19.136  20.865   6.750
 9008POPC   C3B72189  19.141  20.795   7.050
 9008POPC   C4B72190  19.180  20.886   7.350
 9009POPC   NC372191  34.561  36.150   5.550
 9009POPC   PO472192  34.529  36.103   5.850
 9009POPC   GL172193  34.528  36.111   6.150
 9009POPC   GL272194  34.448  36.175   6.150
 9009POPC   C1A72195  34.536  36.101   6.450
 9009POPC   D2A72196  34.605  36.177   6.750
 9009POPC   C3A72197  34.532  36.164   7.050
 9009POPC   C4A72198  34.562  36.104   7.350
 9009POPC   C1B72199  34.313  36.172   6.450
 9009POPC   C2B72200  34.366  36.157   6.750
 9009POPC   C3B72201  34.307  36.135   7.050
 9009POPC   C4B72202  34.335  36.152   7.350
 9010POPC   NC372203  31.441   1.962   5.550
 9010POPC   PO472204  31.512   1.940   5.850
 9010POPC   GL172205  31.503   2.038   6.150
 9010POPC   GL272206  31.329   1.983   6.150
 9010POPC   C1A72207  31.439   2.037   6.450
 9010POPC   D2A72208  31.465   1.945   6.750
 9010POPC   C3A72209  31.475   1.984   7.050
 9010POPC   C4A72210  31.455   1.953   7.350
 9010POPC   C1B72211  31.257   1.960   6.450
 9010POPC   C2B72212  31.244   1.985   6.750
 9010POPC   C3B72213  31.269   1.983   7.050
 9010POPC   C4B72214  31.277   1.959   7.350
 9011POPC   NC372215  19.047  44.655   5.550
 9011POPC   PO472216  19.073  44.688   5.850
 9011POPC   GL172217  19.060  44.634   6.150
 9011POPC   GL272218  19.175  44.569   6.150
 9011POPC   C1A72219  19.102  44.710   6.450
 9011POPC   D2A72220  19.093  44.699   6.750
 9011POPC   C3A72221  19.066  44.640   7.050
 9011POPC   C4A72222  19.050  44.677   7.350
 9011POPC   C1B72223  19.238  44.557   6.450
 9011POPC   C2B72224  19.287  44.546   6.750
 9011POPC   C3B72225  19.335  44.545   7.050
 9011POPC   C4B72226  19.253  44.560   7.350
 9012POPC   NC372227  42.308  36.894   5.550
 9012POPC   PO472228  42.318  36.888   5.850
 9012POPC   GL172229  42.315  36.927   6.150
 9012POPC   GL272230  42.271  36.833   6.150
 9012POPC   C1A72231  42.368  36.859   6.450
 9012POPC   D2A72232  42.360  36.949   6.750
 9012POPC   C3A72233  42.380  36.900   7.050
 9012POPC   C4A72234  42.378  36.953   7.350
 9012POPC   C1B72235  42.284  36.635   6.450
 9012POPC   C2B72236  42.292  36.693   6.750
 9012POPC   C3B72237  42.296  36.648   7.050
 9012POPC   C4B72238  42.219  36.647   7.350
 9013POPC   NC372239  39.262  33.037   5.550
 9013POPC   PO472240  39.248  32.986   5.850
 9013POPC   GL172241  39.236  33.042   6.150
 9013POPC   GL272242  39.154  32.943   6.150
 9013POPC   C1A72243  39.181  32.996   6.450
 9013POPC   D2A72244  39.228  32.975   6.750
 9013POPC   C3A72245  39.234  33.034   7.050
 9013POPC   C4A72246  39.238  33.005   7.350
 9013POPC   C1B72247  39.053  32.934   6.450
 9013POPC   C2B72248  39.003  32.891   6.750
 9013POPC   C3B72249  39.047  32.946   7.050
 9013POPC   C4B72250  38.985  32.925   7.350
 9014POPC   NC372251  19.085  27.598   5.550
 9014POPC   PO472252  19.057  27.554   5.850
 9014POPC   GL172253  19.044  27.609   6.150
 9014POPC   GL272254  19.044  27.470   6.150
 9014POPC   C1A72255  19.062  27.625   6.450
 9014POPC   D2A72256  19.068  27.579   6.750
 9014POPC   C3A72257  19.044  27.553   7.050
 9014POPC   C4A72258  19.035  27.580   7.350
 9014POPC   C1B72259  19.104  27.391   6.450
 9014POPC   C2B72260  19.070  27.380   6.750
 9014POPC   C3B72261  19.124  27.347   7.050
 9014POPC   C4B72262  19.116  27.368   7.350
 9015POPC   NC372263  19.033  14.435   5.550
 9015POPC   PO472264  19.032  14.356   5.850
 9015POPC   GL172265  19.044  14.385   6.150
 9015POPC   GL272266  18.982  14.533   6.150
 9015POPC   C1A72267  19.045  14.390   6.450
 9015POPC   D2A72268  19.032  14.441   6.750
 9015POPC   C3A72269  19.079  14.429   7.050
 9015POPC   C4A72270  19.053  14.403   7.350
 9015POPC   C1B72271  18.932  14.650   6.450
 9015POPC   C2B72272  18.986  14.602   6.750
 9015POPC   C3B72273  18.939  14.667   7.050
 9015POPC   C4B72274  18.924  14.665   7.350
 9016POPC   NC372275  32.293  26.851   5.550
 9016POPC   PO472276  32.271  26.845   5.850
 9016POPC   GL172277  32.223  26.827   6.150
 9016POPC   GL272278  32.323  26.936   6.150
 9016POPC   C1A72279  32.244  26.809   6.450
 9016POPC   D2A72280  32.286  26.798   6.750
 9016POPC   C3A72281  32.237  26.864   7.050
 9016POPC   C4A72282  32.238  26.837   7.350
 9016POPC   C1B72283  32.368  27.080   6.450
 9016POPC   C2B72284  32.397  26.996   6.750
 9016POPC   C3B72285  32.348  27.070   7.050
 9016POPC   C4B72286  32.402  27.012   7.350
 9017POPC   NC372287  22.207  43.865   5.550
 9017POPC   PO472288  22.120  43.901   5.850
 9017POPC   GL172289  22.121  43.865   6.150
 9017POPC   GL272290  22.084  43.830   6.150
 9017POPC   C1A72291  22.114  43.861   6.450
 9017POPC   D2A72292  22.204  43.918   6.750
 9017POPC   C3A72293  22.169  43.853   7.050
 9017POPC   C4A72294  22.192  43.924   7.350
 9017POPC   C1B72295  22.075  43.702   6.450
 9017POPC   C2B72296  22.017  43.701   6.750
 9017POPC   C3B72297  22.041  43.669   7.050
 9017POPC   C4B72298  21.995  43.633   7.350
 9018POPC   NC372299  23.711  39.968   5.550
 9018POPC   PO472300  23.731  40.020   5.850
 9018POPC   GL172301  23.716  39.984   6.150
 9018POPC   GL272302  23.687  39.920   6.150
 9018POPC   C1A72303  23.711  40.000   6.450
 9018POPC   D2A72304  23.712  39.989   6.750
 9018POPC   C3A72305  23.727  39.973   7.050
 9018POPC   C4A72306  23.736  40.027   7.350
 9018POPC   C1B72307  23.713  39.736   6.450
 9018POPC   C2B72308  23.702  39.737   6.750
 9018POPC   C3B72309  23.661  39.740   7.050
 9018POPC   C4B72310  23.707  39.731   7.350
 9019POPC   NC372311  10.499   3.552   5.550
 9019POPC   PO472312  10.567   3.525   5.850
 9019POPC   GL172313  10.559   3.547   6.150
 9019POPC   GL272314  10.441   3.548   6.150
 9019POPC   C1A72315  10.481   3.567   6.450
 9019POPC   D2A72316  10.518   3.580   6.750
 9019POPC   C3A72317  10.512   3.564   7.050
 9019POPC   C4A72318  10.505   3.578   7.350
 9019POPC   C1B72319  10.241   3.523   6.450
 9019POPC   C2B72320  10.318   3.486   6.750
 9019POPC   C3B72321  10.302   3.502   7.050
 9019POPC   C4B72322  10.297   3.469   7.350
 9020POPC   NC372323  36.896  16.731   5.550
 9020POPC   PO472324  36.888  16.734   5.850
 9020POPC   GL172325  36.925  16.770   6.150
 9020POPC   GL272326  36.891  16.823   6.150
 9020POPC   C1A72327  36.938  16.695   6.450
 9020POPC   D2A72328  36.854  16.714   6.750
 9020POPC   C3A72329  36.951  16.705   7.050
 9020POPC   C4A72330  36.933  16.746   7.350
 9020POPC   C1B72331  36.949  16.933   6.450
 9020POPC   C2B72332  36.927  17.018   6.750
 9020POPC   C3B72333  36.908  17.018   7.050
 9020POPC   C4B72334  36.950  17.016   7.350
 9021POPC   NC372335  17.530  30.710   5.550
 9021POPC   PO472336  17.537  30.654   5.850
 9021POPC   GL172337  17.477  30.719   6.150
 9021POPC   GL272338  17.660  30.734   6.150
 9021POPC   C1A72339  17.503  30.694   6.450
 9021POPC   D2A72340  17.491  30.726   6.750
 9021POPC   C3A72341  17.499  30.742   7.050
 9021POPC   C4A72342  17.489  30.714   7.350
 9021POPC   C1B72343  17.711  30.784   6.450
 9021POPC   C2B72344  17.736  30.851   6.750
 9021POPC   C3B72345  17.669  30.857   7.050
 9021POPC   C4B72346  17.688  30.874   7.350
 9022POPC   NC372347  35.389  36.909   5.550
 9022POPC   PO472348  35.346  36.918   5.850
 9022POPC   GL172349  35.333  36.910   6.150
 9022POPC   GL272350  35.265  37.035   6.150
 9022POPC   C1A72351  35.383  36.936   6.450
 9022POPC   D2A72352  35.394  36.894   6.750
 9022POPC   C3A72353  35.389  36.875   7.050
 9022POPC   C4A72354  35.368  36.941   7.350
 9022POPC   C1B72355  35.237  37.083   6.450
 9022POPC   C2B72356  35.222  37.135   6.750
 9022POPC   C3B72357  35.149  37.108   7.050
 9022POPC   C4B72358  35.161  37.079   7.350
 9023POPC   NC372359   4.286  28.393   5.550
 9023POPC   PO472360   4.328  28.385   5.850
 9023POPC   GL172361   4.366  28.389   6.150
 9023POPC   GL272362   4.225  28.452   6.150
 9023POPC   C1A72363   4.277  28.404   6.450
 9023POPC   D2A72364   4.322  28.347   6.750
 9023POPC   C3A72365   4.275  28.373   7.050
 9023POPC   C4A72366   4.293  28.362   7.350
 9023POPC   C1B72367   4.250  28.600   6.450
 9023POPC   C2B72368   4.255  28.555   6.750
 9023POPC   C3B72369   4.256  28.566   7.050
 9023POPC   C4B72370   4.198  28.641   7.350
 9024POPC   NC372371  15.161   8.199   5.550
 9024POPC   PO472372  15.178   8.236   5.850
 9024POPC   GL172373  15.136   8.189   6.150
 9024POPC   GL272374  15.228   8.123   6.150
 9024POPC   C1A72375  15.184   8.225   6.450
 9024POPC   D2A72376  15.164   8.244   6.750
 9024POPC   C3A72377  15.192   8.149   7.050
 9024POPC   C4A72378  15.210   8.163   7.350
 9024POPC   C1B72379  15.365   8.065   6.450
 9024POPC   C2B72380  15.385   7.988   6.750
 9024POPC   C3B72381  15.378   8.045   7.050
 9024POPC   C4B72382  15.401   8.006   7.350
 9025POPC   NC372383   8.244  34.578   5.550
 9025POPC   PO472384   8.148  34.534   5.850
 9025POPC   GL172385   8.155  34.538   6.150
 9025POPC   GL272386   8.164  34.436   6.150
 9025POPC   C1A72387   8.201  34.614   6.450
 9025POPC   D2A72388   8.193  34.544   6.750
 9025POPC   C3A72389   8.222  34.598   7.050
 9025POPC   C4A72390   8.240  34.607   7.350
 9025POPC   C1B72391   8.191  34.304   6.450
 9025POPC   C2B72392   8.221  34.289   6.750
 9025POPC   C3B72393   8.189  34.288   7.050
 9025POPC   C4B72394   8.194  34.316   7.350
 9026POPC   NC372395  44.632  32.978   5.550
 9026POPC   PO472396  44.658  33.017   5.850
 9026POPC   GL172397  44.655  33.073   6.150
 9026POPC   GL272398  44.665  32.925   6.150
 9026POPC   C1A72399  44.662  33.024   6.450
 9026POPC   D2A72400  44.664  33.021   6.750
 9026POPC   C3A72401  44.620  33.001   7.050
 9026POPC   C4A72402  44.688  33.002   7.350
 9026POPC   C1B72403  44.665  32.736   6.450
 9026POPC   C2B72404  44.640  32.735   6.750
 9026POPC   C3B72405  44.689  32.786   7.050
 9026POPC   C4B72406  44.689  32.812   7.350
 9027POPC   NC372407  11.261  31.505   5.550
 9027POPC   PO472408  11.303  31.443   5.850
 9027POPC   GL172409  11.251  31.430   6.150
 9027POPC   GL272410  11.249  31.609   6.150
 9027POPC   C1A72411  11.337  31.495   6.450
 9027POPC   D2A72412  11.309  31.423   6.750
 9027POPC   C3A72413  11.280  31.442   7.050
 9027POPC   C4A72414  11.258  31.516   7.350
 9027POPC   C1B72415  11.155  31.610   6.450
 9027POPC   C2B72416  11.173  31.637   6.750
 9027POPC   C3B72417  11.082  31.705   7.050
 9027POPC   C4B72418  11.154  31.669   7.350
 9028POPC   NC372419  27.559  15.971   5.550
 9028POPC   PO472420  27.577  15.990   5.850
 9028POPC   GL172421  27.573  15.999   6.150
 9028POPC   GL272422  27.614  15.875   6.150
 9028POPC   C1A72423  27.597  15.981   6.450
 9028POPC   D2A72424  27.627  15.976   6.750
 9028POPC   C3A72425  27.581  15.925   7.050
 9028POPC   C4A72426  27.571  15.995   7.350
 9028POPC   C1B72427  27.608  15.666   6.450
 9028POPC   C2B72428  27.669  15.758   6.750
 9028POPC   C3B72429  27.651  15.735   7.050
 9028POPC   C4B72430  27.667  15.707   7.350
 9029POPC   NC372431  31.487  18.302   5.550
 9029POPC   PO472432  31.449  18.284   5.850
 9029POPC   GL172433  31.481  18.244   6.150
 9029POPC   GL272434  31.312  18.286   6.150
 9029POPC   C1A72435  31.505  18.331   6.450
 9029POPC   D2A72436  31.505  18.238   6.750
 9029POPC   C3A72437  31.505  18.256   7.050
 9029POPC   C4A72438  31.496  18.268   7.350
 9029POPC   C1B72439  31.247  18.261   6.450
 9029POPC   C2B72440  31.251  18.240   6.750
 9029POPC   C3B72441  31.251  18.227   7.050
 9029POPC   C4B72442  31.212  18.284   7.350
 9030POPC   NC372443  19.012  32.270   5.550
 9030POPC   PO472444  19.075  32.293   5.850
 9030POPC   GL172445  19.084  32.217   6.150
 9030POPC   GL272446  19.176  32.303   6.150
 9030POPC   C1A72447  19.022  32.265   6.450
 9030POPC   D2A72448  19.079  32.254   6.750
 9030POPC   C3A72449  19.064  32.280   7.050
 9030POPC   C4A72450  19.090  32.270   7.350
 9030POPC   C1B72451  19.303  32.368   6.450
 9030POPC   C2B72452  19.301  32.366   6.750
 9030POPC   C3B72453  19.282  32.312   7.050
 9030POPC   C4B72454  19.295  32.367   7.350
 9031POPC   NC372455  24.529   8.246   5.550
 9031POPC   PO472456  24.508   8.166   5.850
 9031POPC   GL172457  24.505   8.152   6.150
 9031POPC   GL272458  24.551   8.146   6.150
 9031POPC   C1A72459  24.476   8.244   6.450
 9031POPC   D2A72460  24.501   8.199   6.750
 9031POPC   C3A72461  24.451   8.188   7.050
 9031POPC   C4A72462  24.509   8.183   7.350
 9031POPC   C1B72463  24.730   8.033   6.450
 9031POPC   C2B72464  24.678   7.993   6.750
 9031POPC   C3B72465  24.721   8.082   7.050
 9031POPC   C4B72466  24.693   8.067   7.350
 9032POPC   NC372467  19.106   4.310   5.550
 9032POPC   PO472468  19.023   4.322   5.850
 9032POPC   GL172469  19.032   4.363   6.150
 9032POPC   GL272470  19.077   4.188   6.150
 9032POPC   C1A72471  19.031   4.295   6.450
 9032POPC   D2A72472  19.014   4.303   6.750
 9032POPC   C3A72473  19.026   4.344   7.050
 9032POPC   C4A72474  19.101   4.310   7.350
 9032POPC   C1B72475  19.144   4.107   6.450
 9032POPC   C2B72476  19.101   4.041   6.750
 9032POPC   C3B72477  19.072   4.117   7.050
 9032POPC   C4B72478  19.095   4.037   7.350
 9033POPC   NC372479  35.372  29.896   5.550
 9033POPC   PO472480  35.328  29.879   5.850
 9033POPC   GL172481  35.325  29.957   6.150
 9033POPC   GL272482  35.386  30.002   6.150
 9033POPC   C1A72483  35.364  29.919   6.450
 9033POPC   D2A72484  35.375  29.969   6.750
 9033POPC   C3A72485  35.377  29.969   7.050
 9033POPC   C4A72486  35.393  29.935   7.350
 9033POPC   C1B72487  35.456  30.180   6.450
 9033POPC   C2B72488  35.453  30.145   6.750
 9033POPC   C3B72489  35.443  30.107   7.050
 9033POPC   C4B72490  35.470  30.188   7.350
 9034POPC   NC372491  26.867  27.636   5.550
 9034POPC   PO472492  26.790  27.563   5.850
 9034POPC   GL172493  26.793  27.585   6.150
 9034POPC   GL272494  26.815  27.486   6.150
 9034POPC   C1A72495  26.810  27.552   6.450
 9034POPC   D2A72496  26.782  27.600   6.750
 9034POPC   C3A72497  26.845  27.575   7.050
 9034POPC   C4A72498  26.797  27.623   7.350
 9034POPC   C1B72499  26.772  27.386   6.450
 9034POPC   C2B72500  26.854  27.382   6.750
 9034POPC   C3B72501  26.849  27.334   7.050
 9034POPC   C4B72502  26.839  27.345   7.350
 9035POPC   NC372503  21.348  13.667   5.550
 9035POPC   PO472504  21.408  13.641   5.850
 9035POPC   GL172505  21.433  13.662   6.150
 9035POPC   GL272506  21.276  13.727   6.150
 9035POPC   C1A72507  21.391  13.655   6.450
 9035POPC   D2A72508  21.349  13.652   6.750
 9035POPC   C3A72509  21.346  13.600   7.050
 9035POPC   C4A72510  21.336  13.605   7.350
 9035POPC   C1B72511  21.174  13.832   6.450
 9035POPC   C2B72512  21.225  13.792   6.750
 9035POPC   C3B72513  21.200  13.773   7.050
 9035POPC   C4B72514  21.241  13.770   7.350
 9036POPC   NC372515  42.297   5.899   5.550
 9036POPC   PO472516  42.312   5.887   5.850
 9036POPC   GL172517  42.378   5.862   6.150
 9036POPC   GL272518  42.293   5.990   6.150
 9036POPC   C1A72519  42.328   5.880   6.450
 9036POPC   D2A72520  42.315   5.918   6.750
 9036POPC   C3A72521  42.297   5.903   7.050
 9036POPC   C4A72522  42.331   5.853   7.350
 9036POPC   C1B72523  42.289   6.085   6.450
 9036POPC   C2B72524  42.309   6.163   6.750
 9036POPC   C3B72525  42.374   6.092   7.050
 9036POPC   C4B72526  42.289   6.107   7.350
 9037POPC   NC372527   8.149  25.314   5.550
 9037POPC   PO472528   8.192  25.272   5.850
 9037POPC   GL172529   8.184  25.230   6.150
 9037POPC   GL272530   8.174  25.344   6.150
 9037POPC   C1A72531   8.234  25.254   6.450
 9037POPC   D2A72532   8.163  25.243   6.750
 9037POPC   C3A72533   8.191  25.219   7.050
 9037POPC   C4A72534   8.240  25.272   7.350
 9037POPC   C1B72535   8.207  25.558   6.450
 9037POPC   C2B72536   8.165  25.541   6.750
 9037POPC   C3B72537   8.191  25.513   7.050
 9037POPC   C4B72538   8.213  25.553   7.350
 9038POPC   NC372539  40.806  29.150   5.550
 9038POPC   PO472540  40.804  29.097   5.850
 9038POPC   GL172541  40.795  29.143   6.150
 9038POPC   GL272542  40.867  29.259   6.150
 9038POPC   C1A72543  40.745  29.166   6.450
 9038POPC   D2A72544  40.797  29.181   6.750
 9038POPC   C3A72545  40.803  29.191   7.050
 9038POPC   C4A72546  40.823  29.153   7.350
 9038POPC   C1B72547  40.927  29.285   6.450
 9038POPC   C2B72548  40.908  29.362   6.750
 9038POPC   C3B72549  40.970  29.360   7.050
 9038POPC   C4B72550  40.977  29.336   7.350
 9039POPC   NC372551  36.874  36.114   5.550
 9039POPC   PO472552  36.865  36.159   5.850
 9039POPC   GL172553  36.890  36.123   6.150
 9039POPC   GL272554  36.852  36.249   6.150
 9039POPC   C1A72555  36.937  36.114   6.450
 9039POPC   D2A72556  36.877  36.116   6.750
 9039POPC   C3A72557  36.892  36.147   7.050
 9039POPC   C4A72558  36.911  36.146   7.350
 9039POPC   C1B72559  36.731  36.331   6.450
 9039POPC   C2B72560  36.733  36.263   6.750
 9039POPC   C3B72561  36.742  36.291   7.050
 9039POPC   C4B72562  36.679  36.335   7.350
 9040POPC   NC372563  26.006  31.515   5.550
 9040POPC   PO472564  26.078  31.438   5.850
 9040POPC   GL172565  26.027  31.515   6.150
 9040POPC   GL272566  25.978  31.352   6.150
 9040POPC   C1A72567  26.031  31.455   6.450
 9040POPC   D2A72568  26.060  31.505   6.750
 9040POPC   C3A72569  26.074  31.508   7.050
 9040POPC   C4A72570  26.013  31.518   7.350
 9040POPC   C1B72571  26.021  31.192   6.450
 9040POPC   C2B72572  25.964  31.245   6.750
 9040POPC   C3B72573  25.959  31.185   7.050
 9040POPC   C4B72574  25.993  31.234   7.350
 9041POPC   NC372575  12.822  19.033   5.550
 9041POPC   PO472576  12.834  19.078   5.850
 9041POPC   GL172577  12.888  19.078   6.150
 9041POPC   GL272578  12.815  19.143   6.150
 9041POPC   C1A72579  12.834  19.093   6.450
 9041POPC   D2A72580  12.876  19.083   6.750
 9041POPC   C3A72581  12.829  19.057   7.050
 9041POPC   C4A72582  12.877  19.020   7.350
 9041POPC   C1B72583  12.737  19.251   6.450
 9041POPC   C2B72584  12.792  19.308   6.750
 9041POPC   C3B72585  12.733  19.302   7.050
 9041POPC   C4B72586  12.799  19.245   7.350
 9042POPC   NC372587  42.340  22.176   5.550
 9042POPC   PO472588  42.349  22.143   5.850
 9042POPC   GL172589  42.367  22.207   6.150
 9042POPC   GL272590  42.222  22.177   6.150
 9042POPC   C1A72591  42.328  22.211   6.450
 9042POPC   D2A72592  42.359  22.166   6.750
 9042POPC   C3A72593  42.301  22.209   7.050
 9042POPC   C4A72594  42.364  22.138   7.350
 9042POPC   C1B72595  42.137  22.255   6.450
 9042POPC   C2B72596  42.083  22.229   6.750
 9042POPC   C3B72597  42.104  22.186   7.050
 9042POPC   C4B72598  42.078  22.243   7.350
 9043POPC   NC372599  25.224  23.665   5.550
 9043POPC   PO472600  25.241  23.664   5.850
 9043POPC   GL172601  25.280  23.687   6.150
 9043POPC   GL272602  25.275  23.547   6.150
 9043POPC   C1A72603  25.255  23.696   6.450
 9043POPC   D2A72604  25.236  23.761   6.750
 9043POPC   C3A72605  25.269  23.753   7.050
 9043POPC   C4A72606  25.299  23.684   7.350
 9043POPC   C1B72607  25.242  23.481   6.450
 9043POPC   C2B72608  25.312  23.429   6.750
 9043POPC   C3B72609  25.302  23.475   7.050
 9043POPC   C4B72610  25.290  23.494   7.350
 9044POPC   NC372611   5.829  24.460   5.550
 9044POPC   PO472612   5.893  24.532   5.850
 9044POPC   GL172613   5.844  24.463   6.150
 9044POPC   GL272614   5.925  24.423   6.150
 9044POPC   C1A72615   5.821  24.475   6.450
 9044POPC   D2A72616   5.915  24.508   6.750
 9044POPC   C3A72617   5.835  24.458   7.050
 9044POPC   C4A72618   5.833  24.478   7.350
 9044POPC   C1B72619   6.056  24.315   6.450
 9044POPC   C2B72620   6.086  24.287   6.750
 9044POPC   C3B72621   6.075  24.369   7.050
 9044POPC   C4B72622   6.070  24.338   7.350
 9045POPC   NC372623  41.514  35.339   5.550
 9045POPC   PO472624  41.535  35.341   5.850
 9045POPC   GL172625  41.543  35.305   6.150
 9045POPC   GL272626  41.661  35.266   6.150
 9045POPC   C1A72627  41.578  35.384   6.450
 9045POPC   D2A72628  41.559  35.335   6.750
 9045POPC   C3A72629  41.547  35.302   7.050
 9045POPC   C4A72630  41.564  35.339   7.350
 9045POPC   C1B72631  41.675  35.091   6.450
 9045POPC   C2B72632  41.676  35.154   6.750
 9045POPC   C3B72633  41.703  35.134   7.050
 9045POPC   C4B72634  41.642  35.094   7.350
 9046POPC   NC372635   6.605  31.447   5.550
 9046POPC   PO472636   6.669  31.477   5.850
 9046POPC   GL172637   6.679  31.522   6.150
 9046POPC   GL272638   6.592  31.573   6.150
 9046POPC   C1A72639   6.685  31.481   6.450
 9046POPC   D2A72640   6.691  31.493   6.750
 9046POPC   C3A72641   6.671  31.496   7.050
 9046POPC   C4A72642   6.610  31.498   7.350
 9046POPC   C1B72643   6.596  31.769   6.450
 9046POPC   C2B72644   6.598  31.733   6.750
 9046POPC   C3B72645   6.597  31.676   7.050
 9046POPC   C4B72646   6.655  31.768   7.350
 9047POPC   NC372647  43.083  26.082   5.550
 9047POPC   PO472648  43.074  26.072   5.850
 9047POPC   GL172649  43.139  25.993   6.150
 9047POPC   GL272650  43.052  25.964   6.150
 9047POPC   C1A72651  43.089  26.014   6.450
 9047POPC   D2A72652  43.148  26.074   6.750
 9047POPC   C3A72653  43.150  26.056   7.050
 9047POPC   C4A72654  43.080  26.050   7.350
 9047POPC   C1B72655  42.983  25.819   6.450
 9047POPC   C2B72656  42.972  25.761   6.750
 9047POPC   C3B72657  42.985  25.841   7.050
 9047POPC   C4B72658  42.990  25.825   7.350
 9048POPC   NC372659  41.559  42.343   5.550
 9048POPC   PO472660  41.589  42.358   5.850
 9048POPC   GL172661  41.530  42.352   6.150
 9048POPC   GL272662  41.455  42.397   6.150
 9048POPC   C1A72663  41.579  42.364   6.450
 9048POPC   D2A72664  41.602  42.365   6.750
 9048POPC   C3A72665  41.598  42.331   7.050
 9048POPC   C4A72666  41.570  42.380   7.350
 9048POPC   C1B72667  41.402  42.521   6.450
 9048POPC   C2B72668  41.364  42.478   6.750
 9048POPC   C3B72669  41.404  42.502   7.050
 9048POPC   C4B72670  41.338  42.522   7.350
 9049POPC   NC372671  37.646   1.226   5.550
 9049POPC   PO472672  37.672   1.221   5.850
 9049POPC   GL172673  37.667   1.196   6.150
 9049POPC   GL272674  37.682   1.080   6.150
 9049POPC   C1A72675  37.651   1.244   6.450
 9049POPC   D2A72676  37.649   1.259   6.750
 9049POPC   C3A72677  37.698   1.252   7.050
 9049POPC   C4A72678  37.695   1.238   7.350
 9049POPC   C1B72679  37.742   0.999   6.450
 9049POPC   C2B72680  37.735   0.959   6.750
 9049POPC   C3B72681  37.741   0.982   7.050
 9049POPC   C4B72682  37.688   0.942   7.350
 9050POPC   NC372683   8.239  31.449   5.550
 9050POPC   PO472684   8.239  31.485   5.850
 9050POPC   GL172685   8.206  31.479   6.150
 9050POPC   GL272686   8.103  31.566   6.150
 9050POPC   C1A72687   8.177  31.462   6.450
 9050POPC   D2A72688   8.162  31.491   6.750
 9050POPC   C3A72689   8.163  31.458   7.050
 9050POPC   C4A72690   8.168  31.460   7.350
 9050POPC   C1B72691   7.962  31.617   6.450
 9050POPC   C2B72692   8.034  31.569   6.750
 9050POPC   C3B72693   7.940  31.605   7.050
 9050POPC   C4B72694   7.992  31.575   7.350
 9051POPC   NC372695   5.060   4.320   5.550
 9051POPC   PO472696   5.066   4.279   5.850
 9051POPC   GL172697   5.107   4.343   6.150
 9051POPC   GL272698   5.132   4.441   6.150
 9051POPC   C1A72699   5.120   4.270   6.450
 9051POPC   D2A72700   5.106   4.286   6.750
 9051POPC   C3A72701   5.139   4.280   7.050
 9051POPC   C4A72702   5.142   4.351   7.350
 9051POPC   C1B72703   5.146   4.561   6.450
 9051POPC   C2B72704   5.210   4.517   6.750
 9051POPC   C3B72705   5.178   4.597   7.050
 9051POPC   C4B72706   5.168   4.595   7.350
 9052POPC   NC372707  16.726  12.883   5.550
 9052POPC   PO472708  16.719  12.834   5.850
 9052POPC   GL172709  16.775  12.880   6.150
 9052POPC   GL272710  16.633  12.867   6.150
 9052POPC   C1A72711  16.708  12.809   6.450
 9052POPC   D2A72712  16.686  12.858   6.750
 9052POPC   C3A72713  16.688  12.837   7.050
 9052POPC   C4A72714  16.704  12.810   7.350
 9052POPC   C1B72715  16.461  12.919   6.450
 9052POPC   C2B72716  16.522  12.900   6.750
 9052POPC   C3B72717  16.496  12.950   7.050
 9052POPC   C4B72718  16.534  12.988   7.350
 9053POPC   NC372719  41.544  21.353   5.550
 9053POPC   PO472720  41.570  21.392   5.850
 9053POPC   GL172721  41.607  21.347   6.150
 9053POPC   GL272722  41.665  21.293   6.150
 9053POPC   C1A72723  41.593  21.383   6.450
 9053POPC   D2A72724  41.587  21.341   6.750
 9053POPC   C3A72725  41.597  21.342   7.050
 9053POPC   C4A72726  41.599  21.352   7.350
 9053POPC   C1B72727  41.719  21.211   6.450
 9053POPC   C2B72728  41.765  21.163   6.750
 9053POPC   C3B72729  41.702  21.248   7.050
 9053POPC   C4B72730  41.762  21.235   7.350
 9054POPC   NC372731   6.606  29.112   5.550
 9054POPC   PO472732   6.645  29.151   5.850
 9054POPC   GL172733   6.626  29.179   6.150
 9054POPC   GL272734   6.761  29.057   6.150
 9054POPC   C1A72735   6.686  29.118   6.450
 9054POPC   D2A72736   6.609  29.136   6.750
 9054POPC   C3A72737   6.673  29.132   7.050
 9054POPC   C4A72738   6.688  29.160   7.350
 9054POPC   C1B72739   6.786  28.938   6.450
 9054POPC   C2B72740   6.773  28.902   6.750
 9054POPC   C3B72741   6.758  28.925   7.050
 9054POPC   C4B72742   6.763  28.984   7.350
 9055POPC   NC372743  43.901  24.491   5.550
 9055POPC   PO472744  43.874  24.468   5.850
 9055POPC   GL172745  43.891  24.486   6.150
 9055POPC   GL272746  43.841  24.401   6.150
 9055POPC   C1A72747  43.865  24.476   6.450
 9055POPC   D2A72748  43.878  24.456   6.750
 9055POPC   C3A72749  43.874  24.486   7.050
 9055POPC   C4A72750  43.887  24.507   7.350
 9055POPC   C1B72751  43.787  24.218   6.450
 9055POPC   C2B72752  43.774  24.238   6.750
 9055POPC   C3B72753  43.844  24.291   7.050
 9055POPC   C4B72754  43.788  24.279   7.350
 9056POPC   NC372755   0.485  37.688   5.550
 9056POPC   PO472756   0.456  37.660   5.850
 9056POPC   GL172757   0.469  37.635   6.150
 9056POPC   GL272758   0.381  37.746   6.150
 9056POPC   C1A72759   0.457  37.669   6.450
 9056POPC   D2A72760   0.401  37.666   6.750
 9056POPC   C3A72761   0.440  37.661   7.050
 9056POPC   C4A72762   0.389  37.652   7.350
 9056POPC   C1B72763   0.225  37.886   6.450
 9056POPC   C2B72764   0.239  37.811   6.750
 9056POPC   C3B72765   0.289  37.836   7.050
 9056POPC   C4B72766   0.275  37.876   7.350
 9057POPC   NC372767  28.324   5.895   5.550
 9057POPC   PO472768  28.376   5.909   5.850
 9057POPC   GL172769  28.390   5.869   6.150
 9057POPC   GL272770  28.243   5.886   6.150
 9057POPC   C1A72771  28.355   5.862   6.450
 9057POPC   D2A72772  28.360   5.849   6.750
 9057POPC   C3A72773  28.388   5.859   7.050
 9057POPC   C4A72774  28.379   5.858   7.350
 9057POPC   C1B72775  28.140   5.853   6.450
 9057POPC   C2B72776  28.161   5.850   6.750
 9057POPC   C3B72777  28.111   5.779   7.050
 9057POPC   C4B72778  28.092   5.780   7.350
 9058POPC   NC372779  41.538  19.079   5.550
 9058POPC   PO472780  41.516  19.069   5.850
 9058POPC   GL172781  41.557  19.040   6.150
 9058POPC   GL272782  41.454  19.060   6.150
 9058POPC   C1A72783  41.588  19.013   6.450
 9058POPC   D2A72784  41.594  19.060   6.750
 9058POPC   C3A72785  41.576  19.054   7.050
 9058POPC   C4A72786  41.579  19.063   7.350
 9058POPC   C1B72787  41.366  18.969   6.450
 9058POPC   C2B72788  41.354  18.971   6.750
 9058POPC   C3B72789  41.320  18.944   7.050
 9058POPC   C4B72790  41.312  19.013   7.350
 9059POPC   NC372791  21.382  33.050   5.550
 9059POPC   PO472792  21.352  33.056   5.850
 9059POPC   GL172793  21.337  33.026   6.150
 9059POPC   GL272794  21.301  33.169   6.150
 9059POPC   C1A72795  21.399  33.052   6.450
 9059POPC   D2A72796  21.398  33.061   6.750
 9059POPC   C3A72797  21.387  33.066   7.050
 9059POPC   C4A72798  21.368  33.012   7.350
 9059POPC   C1B72799  21.253  33.298   6.450
 9059POPC   C2B72800  21.264  33.263   6.750
 9059POPC   C3B72801  21.346  33.263   7.050
 9059POPC   C4B72802  21.255  33.292   7.350
 9060POPC   NC372803   3.539   7.413   5.550
 9060POPC   PO472804   3.549   7.437   5.850
 9060POPC   GL172805   3.513   7.436   6.150
 9060POPC   GL272806   3.432   7.435   6.150
 9060POPC   C1A72807   3.550   7.468   6.450
 9060POPC   D2A72808   3.539   7.465   6.750
 9060POPC   C3A72809   3.534   7.465   7.050
 9060POPC   C4A72810   3.503   7.385   7.350
 9060POPC   C1B72811   3.326   7.379   6.450
 9060POPC   C2B72812   3.311   7.393   6.750
 9060POPC   C3B72813   3.260   7.423   7.050
 9060POPC   C4B72814   3.317   7.416   7.350
 9061POPC   NC372815   9.764  38.406   5.550
 9061POPC   PO472816   9.782  38.470   5.850
 9061POPC   GL172817   9.708  38.490   6.150
 9061POPC   GL272818   9.878  38.499   6.150
 9061POPC   C1A72819   9.783  38.447   6.450
 9061POPC   D2A72820   9.737  38.483   6.750
 9061POPC   C3A72821   9.762  38.422   7.050
 9061POPC   C4A72822   9.751  38.457   7.350
 9061POPC   C1B72823  10.019  38.473   6.450
 9061POPC   C2B72824   9.992  38.490   6.750
 9061POPC   C3B72825  10.001  38.446   7.050
 9061POPC   C4B72826  10.033  38.457   7.350
 9062POPC   NC372827  25.248  27.597   5.550
 9062POPC   PO472828  25.267  27.602   5.850
 9062POPC   GL172829  25.253  27.606   6.150
 9062POPC   GL272830  25.395  27.597   6.150
 9062POPC   C1A72831  25.276  27.578   6.450
 9062POPC   D2A72832  25.292  27.623   6.750
 9062POPC   C3A72833  25.219  27.544   7.050
 9062POPC   C4A72834  25.283  27.583   7.350
 9062POPC   C1B72835  25.489  27.610   6.450
 9062POPC   C2B72836  25.508  27.562   6.750
 9062POPC   C3B72837  25.474  27.602   7.050
 9062POPC   C4B72838  25.480  27.626   7.350
 9063POPC   NC372839   5.105  15.909   5.550
 9063POPC   PO472840   5.078  15.930   5.850
 9063POPC   GL172841   5.093  15.934   6.150
 9063POPC   GL272842   5.264  15.970   6.150
 9063POPC   C1A72843   5.087  15.914   6.450
 9063POPC   D2A72844   5.064  15.972   6.750
 9063POPC   C3A72845   5.073  15.929   7.050
 9063POPC   C4A72846   5.118  15.935   7.350
 9063POPC   C1B72847   5.311  15.937   6.450
 9063POPC   C2B72848   5.388  15.936   6.750
 9063POPC   C3B72849   5.361  15.905   7.050
 9063POPC   C4B72850   5.388  15.936   7.350
 9064POPC   NC372851  15.952  38.468   5.550
 9064POPC   PO472852  15.981  38.442   5.850
 9064POPC   GL172853  15.940  38.484   6.150
 9064POPC   GL272854  15.996  38.619   6.150
 9064POPC   C1A72855  15.955  38.487   6.450
 9064POPC   D2A72856  15.915  38.441   6.750
 9064POPC   C3A72857  15.986  38.491   7.050
 9064POPC   C4A72858  15.980  38.477   7.350
 9064POPC   C1B72859  15.983  38.686   6.450
 9064POPC   C2B72860  15.973  38.703   6.750
 9064POPC   C3B72861  16.022  38.702   7.050
 9064POPC   C4B72862  16.025  38.687   7.350
 9065POPC   NC372863  11.296  15.943   5.550
 9065POPC   PO472864  11.336  15.969   5.850
 9065POPC   GL172865  11.277  15.945   6.150
 9065POPC   GL272866  11.308  15.863   6.150
 9065POPC   C1A72867  11.274  15.930   6.450
 9065POPC   D2A72868  11.331  15.988   6.750
 9065POPC   C3A72869  11.258  15.962   7.050
 9065POPC   C4A72870  11.303  15.981   7.350
 9065POPC   C1B72871  11.298  15.693   6.450
 9065POPC   C2B72872  11.362  15.731   6.750
 9065POPC   C3B72873  11.313  15.691   7.050
 9065POPC   C4B72874  11.345  15.734   7.350
 9066POPC   NC372875  13.655   0.485   5.550
 9066POPC   PO472876  13.605   0.406   5.850
 9066POPC   GL172877  13.645   0.434   6.150
 9066POPC   GL272878  13.704   0.378   6.150
 9066POPC   C1A72879  13.630   0.446   6.450
 9066POPC   D2A72880  13.659   0.412   6.750
 9066POPC   C3A72881  13.661   0.413   7.050
 9066POPC   C4A72882  13.671   0.460   7.350
 9066POPC   C1B72883  13.732   0.268   6.450
 9066POPC   C2B72884  13.784   0.211   6.750
 9066POPC   C3B72885  13.805   0.234   7.050
 9066POPC   C4B72886  13.785   0.253   7.350
 9067POPC   NC372887   7.455  44.699   5.550
 9067POPC   PO472888   7.423  44.697   5.850
 9067POPC   GL172889   7.384  44.637   6.150
 9067POPC   GL272890   7.461  44.529   6.150
 9067POPC   C1A72891   7.395  44.709   6.450
 9067POPC   D2A72892   7.386  44.691   6.750
 9067POPC   C3A72893   7.447  44.682   7.050
 9067POPC   C4A72894   7.415  44.621   7.350
 9067POPC   C1B72895   7.551  44.463   6.450
 9067POPC   C2B72896   7.615  44.507   6.750
 9067POPC   C3B72897   7.584  44.435   7.050
 9067POPC   C4B72898   7.591  44.457   7.350
 9068POPC   NC372899  21.379  37.711   5.550
 9068POPC   PO472900  21.358  37.647   5.850
 9068POPC   GL172901  21.361  37.725   6.150
 9068POPC   GL272902  21.229  37.593   6.150
 9068POPC   C1A72903  21.374  37.647   6.450
 9068POPC   D2A72904  21.404  37.699   6.750
 9068POPC   C3A72905  21.338  37.651   7.050
 9068POPC   C4A72906  21.370  37.664   7.350
 9068POPC   C1B72907  21.203  37.517   6.450
 9068POPC   C2B72908  21.118  37.538   6.750
 9068POPC   C3B72909  21.192  37.518   7.050
 9068POPC   C4B72910  21.162  37.568   7.350
 9069POPC   NC372911  36.868  20.562   5.550
 9069POPC   PO472912  36.942  20.660   5.850
 9069POPC   GL172913  36.880  20.630   6.150
 9069POPC   GL272914  36.863  20.527   6.150
 9069POPC   C1A72915  36.867  20.605   6.450
 9069POPC   D2A72916  36.894  20.648   6.750
 9069POPC   C3A72917  36.887  20.622   7.050
 9069POPC   C4A72918  36.938  20.645   7.350
 9069POPC   C1B72919  36.833  20.320   6.450
 9069POPC   C2B72920  36.877  20.399   6.750
 9069POPC   C3B72921  36.860  20.344   7.050
 9069POPC   C4B72922  36.822  20.349   7.350
 9070POPC   NC372923  33.011  30.670   5.550
 9070POPC   PO472924  33.060  30.664   5.850
 9070POPC   GL172925  33.068  30.710   6.150
 9070POPC   GL272926  33.038  30.833   6.150
 9070POPC   C1A72927  33.063  30.675   6.450
 9070POPC   D2A72928  33.074  30.698   6.750
 9070POPC   C3A72929  33.049  30.668   7.050
 9070POPC   C4A72930  33.053  30.676   7.350
 9070POPC   C1B72931  33.041  30.991   6.450
 9070POPC   C2B72932  33.060  30.912   6.750
 9070POPC   C3B72933  33.044  30.933   7.050
 9070POPC   C4B72934  32.999  30.946   7.350
 9071POPC   NC372935  21.434  26.775   5.550
 9071POPC   PO472936  21.431  26.863   5.850
 9071POPC   GL172937  21.382  26.827   6.150
 9071POPC   GL272938  21.327  26.781   6.150
 9071POPC   C1A72939  21.354  26.781   6.450
 9071POPC   D2A72940  21.372  26.802   6.750
 9071POPC   C3A72941  21.341  26.863   7.050
 9071POPC   C4A72942  21.414  26.859   7.350
 9071POPC   C1B72943  21.226  26.668   6.450
 9071POPC   C2B72944  21.231  26.652   6.750
 9071POPC   C3B72945  21.186  26.688   7.050
 9071POPC   C4B72946  21.230  26.714   7.350
 9072POPC   NC372947  40.820  15.919   5.550
 9072POPC   PO472948  40.737  15.934   5.850
 9072POPC   GL172949  40.733  15.991   6.150
 9072POPC   GL272950  40.648  15.920   6.150
 9072POPC   C1A72951  40.770  15.912   6.450
 9072POPC   D2A72952  40.769  15.959   6.750
 9072POPC   C3A72953  40.756  15.972   7.050
 9072POPC   C4A72954  40.824  15.969   7.350
 9072POPC   C1B72955  40.555  15.894   6.450
 9072POPC   C2B72956  40.516  15.875   6.750
 9072POPC   C3B72957  40.519  15.907   7.050
 9072POPC   C4B72958  40.521  15.886   7.350
 9073POPC   NC372959   4.275  43.133   5.550
 9073POPC   PO472960   4.345  43.133   5.850
 9073POPC   GL172961   4.312  43.116   6.150
 9073POPC   GL272962   4.189  42.992   6.150
 9073POPC   C1A72963   4.324  43.131   6.450
 9073POPC   D2A72964   4.281  43.085   6.750
 9073POPC   C3A72965   4.309  43.134   7.050
 9073POPC   C4A72966   4.347  43.063   7.350
 9073POPC   C1B72967   4.140  42.936   6.450
 9073POPC   C2B72968   4.138  42.919   6.750
 9073POPC   C3B72969   4.078  42.925   7.050
 9073POPC   C4B72970   4.089  42.927   7.350
 9074POPC   NC372971  29.100  38.467   5.550
 9074POPC   PO472972  29.149  38.504   5.850
 9074POPC   GL172973  29.190  38.427   6.150
 9074POPC   GL272974  28.999  38.472   6.150
 9074POPC   C1A72975  29.165  38.493   6.450
 9074POPC   D2A72976  29.107  38.492   6.750
 9074POPC   C3A72977  29.141  38.440   7.050
 9074POPC   C4A72978  29.170  38.421   7.350
 9074POPC   C1B72979  28.932  38.585   6.450
 9074POPC   C2B72980  28.955  38.528   6.750
 9074POPC   C3B72981  28.914  38.520   7.050
 9074POPC   C4B72982  28.946  38.575   7.350
 9075POPC   NC372983  35.368  12.809   5.550
 9075POPC   PO472984  35.397  12.811   5.850
 9075POPC   GL172985  35.319  12.828   6.150
 9075POPC   GL272986  35.271  12.835   6.150
 9075POPC   C1A72987  35.376  12.896   6.450
 9075POPC   D2A72988  35.376  12.894   6.750
 9075POPC   C3A72989  35.396  12.838   7.050
 9075POPC   C4A72990  35.399  12.851   7.350
 9075POPC   C1B72991  35.131  12.713   6.450
 9075POPC   C2B72992  35.099  12.699   6.750
 9075POPC   C3B72993  35.112  12.699   7.050
 9075POPC   C4B72994  35.102  12.772   7.350
 9076POPC   NC372995  22.114  39.187   5.550
 9076POPC   PO472996  22.173  39.219   5.850
 9076POPC   GL172997  22.155  39.217   6.150
 9076POPC   GL272998  22.086  39.328   6.150
 9076POPC   C1A72999  22.178  39.198   6.450
 9076POPC   D2A73000  22.125  39.220   6.750
 9076POPC   C3A73001  22.167  39.191   7.050
 9076POPC   C4A73002  22.185  39.225   7.350
 9076POPC   C1B73003  22.075  39.517   6.450
 9076POPC   C2B73004  22.125  39.482   6.750
 9076POPC   C3B73005  22.042  39.475   7.050
 9076POPC   C4B73006  22.032  39.422   7.350
 9077POPC   NC373007  35.309  38.426   5.550
 9077POPC   PO473008  35.326  38.428   5.850
 9077POPC   GL173009  35.329  38.437   6.150
 9077POPC   GL273010  35.425  38.540   6.150
 9077POPC   C1A73011  35.358  38.498   6.450
 9077POPC   D2A73012  35.356  38.479   6.750
 9077POPC   C3A73013  35.353  38.431   7.050
 9077POPC   C4A73014  35.376  38.440   7.350
 9077POPC   C1B73015  35.400  38.663   6.450
 9077POPC   C2B73016  35.455  38.702   6.750
 9077POPC   C3B73017  35.493  38.705   7.050
 9077POPC   C4B73018  35.452  38.712   7.350
 9078POPC   NC373019   9.791  26.003   5.550
 9078POPC   PO473020   9.726  26.037   5.850
 9078POPC   GL173021   9.753  26.001   6.150
 9078POPC   GL273022   9.889  26.061   6.150
 9078POPC   C1A73023   9.760  26.032   6.450
 9078POPC   D2A73024   9.797  26.047   6.750
 9078POPC   C3A73025   9.782  26.070   7.050
 9078POPC   C4A73026   9.733  26.091   7.350
 9078POPC   C1B73027  10.010  26.145   6.450
 9078POPC   C2B73028  10.027  26.064   6.750
 9078POPC   C3B73029  10.034  26.070   7.050
 9078POPC   C4B73030   9.992  26.123   7.350
 9079POPC   NC373031   9.794  33.062   5.550
 9079POPC   PO473032   9.735  33.043   5.850
 9079POPC   GL173033   9.729  33.024   6.150
 9079POPC   GL273034   9.653  33.114   6.150
 9079POPC   C1A73035   9.721  33.005   6.450
 9079POPC   D2A73036   9.706  33.032   6.750
 9079POPC   C3A73037   9.762  32.995   7.050
 9079POPC   C4A73038   9.749  33.026   7.350
 9079POPC   C1B73039   9.562  33.182   6.450
 9079POPC   C2B73040   9.565  33.169   6.750
 9079POPC   C3B73041   9.531  33.194   7.050
 9079POPC   C4B73042   9.592  33.151   7.350
 9080POPC   NC373043   8.946  41.510   5.550
 9080POPC   PO473044   8.968  41.582   5.850
 9080POPC   GL173045   8.986  41.514   6.150
 9080POPC   GL273046   9.071  41.485   6.150
 9080POPC   C1A73047   8.991  41.550   6.450
 9080POPC   D2A73048   8.966  41.575   6.750
 9080POPC   C3A73049   8.960  41.597   7.050
 9080POPC   C4A73050   8.940  41.578   7.350
 9080POPC   C1B73051   9.131  41.300   6.450
 9080POPC   C2B73052   9.141  41.360   6.750
 9080POPC   C3B73053   9.112  41.311   7.050
 9080POPC   C4B73054   9.112  41.356   7.350
 9081POPC   NC373055   8.940  31.510   5.550
 9081POPC   PO473056   9.002  31.515   5.850
 9081POPC   GL173057   8.984  31.510   6.150
 9081POPC   GL273058   8.948  31.582   6.150
 9081POPC   C1A73059   8.978  31.484   6.450
 9081POPC   D2A73060   9.017  31.515   6.750
 9081POPC   C3A73061   8.924  31.488   7.050
 9081POPC   C4A73062   8.960  31.439   7.350
 9081POPC   C1B73063   8.908  31.736   6.450
 9081POPC   C2B73064   8.913  31.764   6.750
 9081POPC   C3B73065   8.874  31.700   7.050
 9081POPC   C4B73066   8.925  31.713   7.350
 9082POPC   NC373067  24.526  35.324   5.550
 9082POPC   PO473068  24.522  35.333   5.850
 9082POPC   GL173069  24.495  35.380   6.150
 9082POPC   GL273070  24.425  35.432   6.150
 9082POPC   C1A73071  24.478  35.375   6.450
 9082POPC   D2A73072  24.466  35.305   6.750
 9082POPC   C3A73073  24.443  35.392   7.050
 9082POPC   C4A73074  24.523  35.329   7.350
 9082POPC   C1B73075  24.430  35.581   6.450
 9082POPC   C2B73076  24.401  35.638   6.750
 9082POPC   C3B73077  24.425  35.647   7.050
 9082POPC   C4B73078  24.479  35.554   7.350
 9083POPC   NC373079  24.507  39.191   5.550
 9083POPC   PO473080  24.526  39.222   5.850
 9083POPC   GL173081  24.509  39.241   6.150
 9083POPC   GL273082  24.499  39.368   6.150
 9083POPC   C1A73083  24.470  39.245   6.450
 9083POPC   D2A73084  24.498  39.277   6.750
 9083POPC   C3A73085  24.484  39.255   7.050
 9083POPC   C4A73086  24.472  39.200   7.350
 9083POPC   C1B73087  24.477  39.510   6.450
 9083POPC   C2B73088  24.505  39.468   6.750
 9083POPC   C3B73089  24.488  39.484   7.050
 9083POPC   C4B73090  24.461  39.516   7.350
 9084POPC   NC373091  36.136   2.744   5.550
 9084POPC   PO473092  36.144   2.734   5.850
 9084POPC   GL173093  36.116   2.782   6.150
 9084POPC   GL273094  36.130   2.848   6.150
 9084POPC   C1A73095  36.166   2.746   6.450
 9084POPC   D2A73096  36.140   2.782   6.750
 9084POPC   C3A73097  36.160   2.751   7.050
 9084POPC   C4A73098  36.171   2.744   7.350
 9084POPC   C1B73099  36.159   3.013   6.450
 9084POPC   C2B73100  36.197   2.995   6.750
 9084POPC   C3B73101  36.159   3.039   7.050
 9084POPC   C4B73102  36.156   3.029   7.350
 9085POPC   NC373103   8.939  30.701   5.550
 9085POPC   PO473104   8.976  30.681   5.850
 9085POPC   GL173105   8.931  30.684   6.150
 9085POPC   GL273106   9.048  30.710   6.150
 9085POPC   C1A73107   9.016  30.689   6.450
 9085POPC   D2A73108   8.996  30.696   6.750
 9085POPC   C3A73109   9.003  30.691   7.050
 9085POPC   C4A73110   9.015  30.717   7.350
 9085POPC   C1B73111   9.237  30.797   6.450
 9085POPC   C2B73112   9.147  30.833   6.750
 9085POPC   C3B73113   9.145  30.774   7.050
 9085POPC   C4B73114   9.197  30.816   7.350
 9086POPC   NC373115  23.708   9.745   5.550
 9086POPC   PO473116  23.750   9.736   5.850
 9086POPC   GL173117  23.741   9.729   6.150
 9086POPC   GL273118  23.576   9.729   6.150
 9086POPC   C1A73119  23.751   9.774   6.450
 9086POPC   D2A73120  23.736   9.756   6.750
 9086POPC   C3A73121  23.670   9.740   7.050
 9086POPC   C4A73122  23.759   9.762   7.350
 9086POPC   C1B73123  23.465   9.815   6.450
 9086POPC   C2B73124  23.493   9.802   6.750
 9086POPC   C3B73125  23.430   9.850   7.050
 9086POPC   C4B73126  23.487   9.833   7.350
 9087POPC   NC373127   7.424  34.610   5.550
 9087POPC   PO473128   7.388  34.608   5.850
 9087POPC   GL173129   7.446  34.599   6.150
 9087POPC   GL273130   7.561  34.498   6.150
 9087POPC   C1A73131   7.458  34.611   6.450
 9087POPC   D2A73132   7.416  34.585   6.750
 9087POPC   C3A73133   7.382  34.570   7.050
 9087POPC   C4A73134   7.454  34.540   7.350
 9087POPC   C1B73135   7.653  34.437   6.450
 9087POPC   C2B73136   7.569  34.401   6.750
 9087POPC   C3B73137   7.588  34.382   7.050
 9087POPC   C4B73138   7.632  34.415   7.350
 9088POPC   NC373139  20.649  35.361   5.550
 9088POPC   PO473140  20.639  35.395   5.850
 9088POPC   GL173141  20.587  35.390   6.150
 9088POPC   GL273142  20.501  35.371   6.150
 9088POPC   C1A73143  20.651  35.365   6.450
 9088POPC   D2A73144  20.641  35.320   6.750
 9088POPC   C3A73145  20.601  35.390   7.050
 9088POPC   C4A73146  20.634  35.387   7.350
 9088POPC   C1B73147  20.401  35.417   6.450
 9088POPC   C2B73148  20.379  35.380   6.750
 9088POPC   C3B73149  20.381  35.453   7.050
 9088POPC   C4B73150  20.345  35.440   7.350
 9089POPC   NC373151  12.061  27.596   5.550
 9089POPC   PO473152  12.045  27.615   5.850
 9089POPC   GL173153  12.055  27.628   6.150
 9089POPC   GL273154  11.977  27.675   6.150
 9089POPC   C1A73155  12.089  27.603   6.450
 9089POPC   D2A73156  12.072  27.585   6.750
 9089POPC   C3A73157  12.026  27.616   7.050
 9089POPC   C4A73158  12.052  27.552   7.350
 9089POPC   C1B73159  11.865  27.706   6.450
 9089POPC   C2B73160  11.792  27.617   6.750
 9089POPC   C3B73161  11.793  27.633   7.050
 9089POPC   C4B73162  11.832  27.701   7.350
 9090POPC   NC373163  44.707  40.767   5.550
 9090POPC   PO473164  44.675  40.748   5.850
 9090POPC   GL173165  44.702  40.828   6.150
 9090POPC   GL273166  44.607  40.879   6.150
 9090POPC   C1A73167  44.707  40.826   6.450
 9090POPC   D2A73168  44.700  40.796   6.750
 9090POPC   C3A73169  44.708  40.779   7.050
 9090POPC   C4A73170  44.640  40.762   7.350
 9090POPC   C1B73171  44.443  40.981   6.450
 9090POPC   C2B73172  44.489  40.920   6.750
 9090POPC   C3B73173  44.448  40.993   7.050
 9090POPC   C4B73174  44.527  41.009   7.350
 9091POPC   NC373175  44.638   8.167   5.550
 9091POPC   PO473176  44.627   8.225   5.850
 9091POPC   GL173177  44.636   8.191   6.150
 9091POPC   GL273178  44.814   8.137   6.150
 9091POPC   C1A73179  44.699   8.149   6.450
 9091POPC   D2A73180  44.628   8.238   6.750
 9091POPC   C3A73181  44.703   8.174   7.050
 9091POPC   C4A73182  44.687   8.192   7.350
 9091POPC   C1B73183  44.938   8.154   6.450
 9091POPC   C2B73184  44.918   8.211   6.750
 9091POPC   C3B73185  44.906   8.177   7.050
 9091POPC   C4B73186  44.889   8.137   7.350
 9092POPC   NC373187  27.626  42.290   5.550
 9092POPC   PO473188  27.602  42.320   5.850
 9092POPC   GL173189  27.605  42.337   6.150
 9092POPC   GL273190  27.611  42.410   6.150
 9092POPC   C1A73191  27.603  42.326   6.450
 9092POPC   D2A73192  27.602  42.303   6.750
 9092POPC   C3A73193  27.577  42.288   7.050
 9092POPC   C4A73194  27.607  42.354   7.350
 9092POPC   C1B73195  27.623  42.545   6.450
 9092POPC   C2B73196  27.674  42.553   6.750
 9092POPC   C3B73197  27.633  42.596   7.050
 9092POPC   C4B73198  27.657  42.553   7.350
 9093POPC   NC373199  24.509  31.469   5.550
 9093POPC   PO473200  24.480  31.502   5.850
 9093POPC   GL173201  24.466  31.440   6.150
 9093POPC   GL273202  24.475  31.550   6.150
 9093POPC   C1A73203  24.504  31.486   6.450
 9093POPC   D2A73204  24.509  31.429   6.750
 9093POPC   C3A73205  24.450  31.471   7.050
 9093POPC   C4A73206  24.503  31.453   7.350
 9093POPC   C1B73207  24.484  31.761   6.450
 9093POPC   C2B73208  24.498  31.737   6.750
 9093POPC   C3B73209  24.505  31.748   7.050
 9093POPC   C4B73210  24.549  31.752   7.350
 9094POPC   NC373211   9.776  15.140   5.550
 9094POPC   PO473212   9.726  15.137   5.850
 9094POPC   GL173213   9.752  15.141   6.150
 9094POPC   GL273214   9.631  15.326   6.150
 9094POPC   C1A73215   9.763  15.140   6.450
 9094POPC   D2A73216   9.746  15.131   6.750
 9094POPC   C3A73217   9.757  15.226   7.050
 9094POPC   C4A73218   9.742  15.167   7.350
 9094POPC   C1B73219   9.611  15.423   6.450
 9094POPC   C2B73220   9.576  15.407   6.750
 9094POPC   C3B73221   9.615  15.356   7.050
 9094POPC   C4B73222   9.573  15.361   7.350
 9095POPC   NC373223   5.079  39.989   5.550
 9095POPC   PO473224   5.098  40.000   5.850
 9095POPC   GL173225   5.097  40.041   6.150
 9095POPC   GL273226   5.108  40.172   6.150
 9095POPC   C1A73227   5.078  40.023   6.450
 9095POPC   D2A73228   5.134  40.057   6.750
 9095POPC   C3A73229   5.061  40.001   7.050
 9095POPC   C4A73230   5.106  39.981   7.350
 9095POPC   C1B73231   5.140  40.275   6.450
 9095POPC   C2B73232   5.082  40.291   6.750
 9095POPC   C3B73233   5.118  40.255   7.050
 9095POPC   C4B73234   5.074  40.258   7.350
 9096POPC   NC373235   3.514  42.303   5.550
 9096POPC   PO473236   3.550  42.341   5.850
 9096POPC   GL173237   3.507  42.308   6.150
 9096POPC   GL273238   3.447  42.322   6.150
 9096POPC   C1A73239   3.586  42.337   6.450
 9096POPC   D2A73240   3.557  42.377   6.750
 9096POPC   C3A73241   3.496  42.299   7.050
 9096POPC   C4A73242   3.505  42.368   7.350
 9096POPC   C1B73243   3.316  42.302   6.450
 9096POPC   C2B73244   3.296  42.273   6.750
 9096POPC   C3B73245   3.322  42.280   7.050
 9096POPC   C4B73246   3.324  42.306   7.350
 9097POPC   NC373247  13.646  24.476   5.550
 9097POPC   PO473248  13.662  24.504   5.850
 9097POPC   GL173249  13.625  24.479   6.150
 9097POPC   GL273250  13.672  24.613   6.150
 9097POPC   C1A73251  13.580  24.519   6.450
 9097POPC   D2A73252  13.611  24.480   6.750
 9097POPC   C3A73253  13.615  24.440   7.050
 9097POPC   C4A73254  13.653  24.490   7.350
 9097POPC   C1B73255  13.757  24.703   6.450
 9097POPC   C2B73256  13.767  24.711   6.750
 9097POPC   C3B73257  13.737  24.711   7.050
 9097POPC   C4B73258  13.753  24.722   7.350
 9098POPC   NC373259  36.081  22.119   5.550
 9098POPC   PO473260  36.128  22.174   5.850
 9098POPC   GL173261  36.118  22.176   6.150
 9098POPC   GL273262  36.093  22.098   6.150
 9098POPC   C1A73263  36.145  22.161   6.450
 9098POPC   D2A73264  36.121  22.208   6.750
 9098POPC   C3A73265  36.132  22.119   7.050
 9098POPC   C4A73266  36.123  22.130   7.350
 9098POPC   C1B73267  35.984  21.997   6.450
 9098POPC   C2B73268  35.957  21.901   6.750
 9098POPC   C3B73269  35.976  21.927   7.050
 9098POPC   C4B73270  36.043  21.947   7.350
 9099POPC   NC373271  24.499  43.069   5.550
 9099POPC   PO473272  24.442  43.126   5.850
 9099POPC   GL173273  24.487  43.076   6.150
 9099POPC   GL273274  24.514  43.037   6.150
 9099POPC   C1A73275  24.500  43.135   6.450
 9099POPC   D2A73276  24.517  43.152   6.750
 9099POPC   C3A73277  24.470  43.113   7.050
 9099POPC   C4A73278  24.522  43.107   7.350
 9099POPC   C1B73279  24.588  42.893   6.450
 9099POPC   C2B73280  24.565  42.901   6.750
 9099POPC   C3B73281  24.554  42.831   7.050
 9099POPC   C4B73282  24.558  42.911   7.350
 9100POPC   NC373283  32.975  36.948   5.550
 9100POPC   PO473284  32.977  36.881   5.850
 9100POPC   GL173285  33.060  36.934   6.150
 9100POPC   GL273286  32.909  36.874   6.150
 9100POPC   C1A73287  33.067  36.905   6.450
 9100POPC   D2A73288  33.019  36.876   6.750
 9100POPC   C3A73289  32.978  36.880   7.050
 9100POPC   C4A73290  33.035  36.947   7.350
 9100POPC   C1B73291  32.776  36.856   6.450
 9100POPC   C2B73292  32.752  36.864   6.750
 9100POPC   C3B73293  32.786  36.845   7.050
 9100POPC   C4B73294  32.749  36.897   7.350
 9101POPC   NC373295  12.121  21.366   5.550
 9101POPC   PO473296  12.033  21.412   5.850
 9101POPC   GL173297  12.053  21.427   6.150
 9101POPC   GL273298  11.999  21.288   6.150
 9101POPC   C1A73299  12.122  21.391   6.450
 9101POPC   D2A73300  12.076  21.339   6.750
 9101POPC   C3A73301  12.099  21.415   7.050
 9101POPC   C4A73302  12.109  21.404   7.350
 9101POPC   C1B73303  11.956  21.198   6.450
 9101POPC   C2B73304  11.902  21.126   6.750
 9101POPC   C3B73305  11.941  21.222   7.050
 9101POPC   C4B73306  11.900  21.222   7.350
 9102POPC   NC373307  33.056  43.912   5.550
 9102POPC   PO473308  33.029  43.921   5.850
 9102POPC   GL173309  33.042  43.933   6.150
 9102POPC   GL273310  33.144  43.828   6.150
 9102POPC   C1A73311  33.027  43.895   6.450
 9102POPC   D2A73312  33.072  43.844   6.750
 9102POPC   C3A73313  32.998  43.887   7.050
 9102POPC   C4A73314  33.016  43.837   7.350
 9102POPC   C1B73315  33.277  43.861   6.450
 9102POPC   C2B73316  33.281  43.879   6.750
 9102POPC   C3B73317  33.285  43.893   7.050
 9102POPC   C4B73318  33.294  43.861   7.350
 9103POPC   NC373319  15.187  12.840   5.550
 9103POPC   PO473320  15.149  12.892   5.850
 9103POPC   GL173321  15.135  12.847   6.150
 9103POPC   GL273322  15.308  12.803   6.150
 9103POPC   C1A73323  15.133  12.805   6.450
 9103POPC   D2A73324  15.163  12.897   6.750
 9103POPC   C3A73325  15.200  12.871   7.050
 9103POPC   C4A73326  15.217  12.813   7.350
 9103POPC   C1B73327  15.349  12.701   6.450
 9103POPC   C2B73328  15.407  12.725   6.750
 9103POPC   C3B73329  15.353  12.695   7.050
 9103POPC   C4B73330  15.374  12.711   7.350
 9104POPC   NC373331  27.583  25.285   5.550
 9104POPC   PO473332  27.568  25.220   5.850
 9104POPC   GL173333  27.610  25.254   6.150
 9104POPC   GL273334  27.463  25.197   6.150
 9104POPC   C1A73335  27.620  25.263   6.450
 9104POPC   D2A73336  27.577  25.223   6.750
 9104POPC   C3A73337  27.641  25.300   7.050
 9104POPC   C4A73338  27.552  25.307   7.350
 9104POPC   C1B73339  27.420  25.135   6.450
 9104POPC   C2B73340  27.388  25.099   6.750
 9104POPC   C3B73341  27.463  25.056   7.050
 9104POPC   C4B73342  27.453  25.114   7.350
 9105POPC   NC373343   3.591   5.822   5.550
 9105POPC   PO473344   3.526   5.842   5.850
 9105POPC   GL173345   3.589   5.915   6.150
 9105POPC   GL273346   3.619   5.933   6.150
 9105POPC   C1A73347   3.562   5.843   6.450
 9105POPC   D2A73348   3.503   5.823   6.750
 9105POPC   C3A73349   3.499   5.889   7.050
 9105POPC   C4A73350   3.525   5.869   7.350
 9105POPC   C1B73351   3.693   6.064   6.450
 9105POPC   C2B73352   3.741   6.063   6.750
 9105POPC   C3B73353   3.685   6.046   7.050
 9105POPC   C4B73354   3.765   6.060   7.350
 9106POPC   NC373355  13.644  14.364   5.550
 9106POPC   PO473356  13.649  14.405   5.850
 9106POPC   GL173357  13.626  14.397   6.150
 9106POPC   GL273358  13.763  14.378   6.150
 9106POPC   C1A73359  13.606  14.369   6.450
 9106POPC   D2A73360  13.614  14.371   6.750
 9106POPC   C3A73361  13.672  14.384   7.050
 9106POPC   C4A73362  13.604  14.374   7.350
 9106POPC   C1B73363  13.920  14.476   6.450
 9106POPC   C2B73364  13.916  14.432   6.750
 9106POPC   C3B73365  13.861  14.416   7.050
 9106POPC   C4B73366  13.849  14.475   7.350
 9107POPC   NC373367  14.362  20.574   5.550
 9107POPC   PO473368  14.412  20.596   5.850
 9107POPC   GL173369  14.398  20.585   6.150
 9107POPC   GL273370  14.321  20.738   6.150
 9107POPC   C1A73371  14.446  20.570   6.450
 9107POPC   D2A73372  14.442  20.618   6.750
 9107POPC   C3A73373  14.425  20.616   7.050
 9107POPC   C4A73374  14.368  20.620   7.350
 9107POPC   C1B73375  14.199  20.800   6.450
 9107POPC   C2B73376  14.181  20.779   6.750
 9107POPC   C3B73377  14.243  20.741   7.050
 9107POPC   C4B73378  14.214  20.808   7.350
 9108POPC   NC373379  12.814  34.582   5.550
 9108POPC   PO473380  12.868  34.555   5.850
 9108POPC   GL173381  12.867  34.577   6.150
 9108POPC   GL273382  12.985  34.567   6.150
 9108POPC   C1A73383  12.845  34.555   6.450
 9108POPC   D2A73384  12.804  34.557   6.750
 9108POPC   C3A73385  12.818  34.582   7.050
 9108POPC   C4A73386  12.891  34.603   7.350
 9108POPC   C1B73387  13.092  34.629   6.450
 9108POPC   C2B73388  13.057  34.568   6.750
 9108POPC   C3B73389  13.102  34.591   7.050
 9108POPC   C4B73390  13.066  34.606   7.350
 9109POPC   NC373391  33.804  23.708   5.550
 9109POPC   PO473392  33.780  23.738   5.850
 9109POPC   GL173393  33.755  23.701   6.150
 9109POPC   GL273394  33.671  23.712   6.150
 9109POPC   C1A73395  33.765  23.740   6.450
 9109POPC   D2A73396  33.835  23.696   6.750
 9109POPC   C3A73397  33.782  23.733   7.050
 9109POPC   C4A73398  33.790  23.716   7.350
 9109POPC   C1B73399  33.565  23.599   6.450
 9109POPC   C2B73400  33.566  23.601   6.750
 9109POPC   C3B73401  33.615  23.584   7.050
 9109POPC   C4B73402  33.593  23.596   7.350
 9110POPC   NC373403  31.481  32.262   5.550
 9110POPC   PO473404  31.426  32.202   5.850
 9110POPC   GL173405  31.451  32.297   6.150
 9110POPC   GL273406  31.338  32.181   6.150
 9110POPC   C1A73407  31.429  32.238   6.450
 9110POPC   D2A73408  31.442  32.201   6.750
 9110POPC   C3A73409  31.453  32.295   7.050
 9110POPC   C4A73410  31.486  32.223   7.350
 9110POPC   C1B73411  31.328  32.055   6.450
 9110POPC   C2B73412  31.324  32.105   6.750
 9110POPC   C3B73413  31.325  32.091   7.050
 9110POPC   C4B73414  31.279  32.066   7.350
 9111POPC   NC373415  39.232  34.593   5.550
 9111POPC   PO473416  39.189  34.590   5.850
 9111POPC   GL173417  39.216  34.538   6.150
 9111POPC   GL273418  39.133  34.618   6.150
 9111POPC   C1A73419  39.195  34.555   6.450
 9111POPC   D2A73420  39.199  34.551   6.750
 9111POPC   C3A73421  39.276  34.568   7.050
 9111POPC   C4A73422  39.231  34.583   7.350
 9111POPC   C1B73423  39.021  34.731   6.450
 9111POPC   C2B73424  39.055  34.721   6.750
 9111POPC   C3B73425  39.014  34.680   7.050
 9111POPC   C4B73426  39.036  34.674   7.350
 9112POPC   NC373427   7.373  18.326   5.550
 9112POPC   PO473428   7.374  18.320   5.850
 9112POPC   GL173429   7.375  18.293   6.150
 9112POPC   GL273430   7.315  18.302   6.150
 9112POPC   C1A73431   7.442  18.289   6.450
 9112POPC   D2A73432   7.411  18.308   6.750
 9112POPC   C3A73433   7.389  18.252   7.050
 9112POPC   C4A73434   7.414  18.314   7.350
 9112POPC   C1B73435   7.172  18.281   6.450
 9112POPC   C2B73436   7.213  18.236   6.750
 9112POPC   C3B73437   7.134  18.203   7.050
 9112POPC   C4B73438   7.145  18.257   7.350
 9113POPC   NC373439   8.168   2.737   5.550
 9113POPC   PO473440   8.165   2.736   5.850
 9113POPC   GL173441   8.217   2.736   6.150
 9113POPC   GL273442   8.122   2.796   6.150
 9113POPC   C1A73443   8.163   2.759   6.450
 9113POPC   D2A73444   8.154   2.758   6.750
 9113POPC   C3A73445   8.217   2.785   7.050
 9113POPC   C4A73446   8.199   2.716   7.350
 9113POPC   C1B73447   7.924   2.860   6.450
 9113POPC   C2B73448   7.922   2.847   6.750
 9113POPC   C3B73449   7.973   2.854   7.050
 9113POPC   C4B73450   7.917   2.809   7.350
 9114POPC   NC373451  34.608   7.378   5.550
 9114POPC   PO473452  34.569   7.413   5.850
 9114POPC   GL173453  34.527   7.404   6.150
 9114POPC   GL273454  34.644   7.536   6.150
 9114POPC   C1A73455  34.605   7.385   6.450
 9114POPC   D2A73456  34.617   7.466   6.750
 9114POPC   C3A73457  34.607   7.444   7.050
 9114POPC   C4A73458  34.599   7.416   7.350
 9114POPC   C1B73459  34.799   7.563   6.450
 9114POPC   C2B73460  34.829   7.604   6.750
 9114POPC   C3B73461  34.804   7.546   7.050
 9114POPC   C4B73462  34.749   7.566   7.350
 9115POPC   NC373463  17.472  12.810   5.550
 9115POPC   PO473464  17.548  12.853   5.850
 9115POPC   GL173465  17.518  12.805   6.150
 9115POPC   GL273466  17.468  12.786   6.150
 9115POPC   C1A73467  17.482  12.899   6.450
 9115POPC   D2A73468  17.553  12.889   6.750
 9115POPC   C3A73469  17.549  12.853   7.050
 9115POPC   C4A73470  17.479  12.802   7.350
 9115POPC   C1B73471  17.404  12.651   6.450
 9115POPC   C2B73472  17.436  12.625   6.750
 9115POPC   C3B73473  17.379  12.603   7.050
 9115POPC   C4B73474  17.404  12.642   7.350
 9116POPC   NC373475   2.031  35.336   5.550
 9116POPC   PO473476   2.027  35.386   5.850
 9116POPC   GL173477   1.958  35.386   6.150
 9116POPC   GL273478   1.908  35.291   6.150
 9116POPC   C1A73479   1.974  35.323   6.450
 9116POPC   D2A73480   1.944  35.316   6.750
 9116POPC   C3A73481   1.960  35.360   7.050
 9116POPC   C4A73482   1.950  35.378   7.350
 9116POPC   C1B73483   1.751  35.207   6.450
 9116POPC   C2B73484   1.765  35.193   6.750
 9116POPC   C3B73485   1.743  35.201   7.050
 9116POPC   C4B73486   1.828  35.202   7.350
 9117POPC   NC373487  30.686  34.533   5.550
 9117POPC   PO473488  30.693  34.571   5.850
 9117POPC   GL173489  30.720  34.557   6.150
 9117POPC   GL273490  30.565  34.693   6.150
 9117POPC   C1A73491  30.718  34.620   6.450
 9117POPC   D2A73492  30.656  34.616   6.750
 9117POPC   C3A73493  30.692  34.576   7.050
 9117POPC   C4A73494  30.707  34.554   7.350
 9117POPC   C1B73495  30.523  34.772   6.450
 9117POPC   C2B73496  30.488  34.792   6.750
 9117POPC   C3B73497  30.516  34.740   7.050
 9117POPC   C4B73498  30.478  34.750   7.350
 9118POPC   NC373499   6.653  32.237   5.550
 9118POPC   PO473500   6.624  32.256   5.850
 9118POPC   GL173501   6.661  32.220   6.150
 9118POPC   GL273502   6.699  32.107   6.150
 9118POPC   C1A73503   6.682  32.298   6.450
 9118POPC   D2A73504   6.672  32.282   6.750
 9118POPC   C3A73505   6.630  32.232   7.050
 9118POPC   C4A73506   6.695  32.246   7.350
 9118POPC   C1B73507   6.834  32.034   6.450
 9118POPC   C2B73508   6.816  32.004   6.750
 9118POPC   C3B73509   6.806  32.057   7.050
 9118POPC   C4B73510   6.816  32.051   7.350
 9119POPC   NC373511  41.528  33.034   5.550
 9119POPC   PO473512  41.513  32.998   5.850
 9119POPC   GL173513  41.553  32.985   6.150
 9119POPC   GL273514  41.664  32.980   6.150
 9119POPC   C1A73515  41.527  32.992   6.450
 9119POPC   D2A73516  41.519  32.999   6.750
 9119POPC   C3A73517  41.569  33.003   7.050
 9119POPC   C4A73518  41.527  33.062   7.350
 9119POPC   C1B73519  41.833  32.947   6.450
 9119POPC   C2B73520  41.761  32.994   6.750
 9119POPC   C3B73521  41.808  32.959   7.050
 9119POPC   C4B73522  41.762  33.016   7.350
 9120POPC   NC373523  36.951  17.505   5.550
 9120POPC   PO473524  36.913  17.537   5.850
 9120POPC   GL173525  36.886  17.519   6.150
 9120POPC   GL273526  36.911  17.410   6.150
 9120POPC   C1A73527  36.925  17.542   6.450
 9120POPC   D2A73528  36.879  17.514   6.750
 9120POPC   C3A73529  36.938  17.536   7.050
 9120POPC   C4A73530  36.943  17.486   7.350
 9120POPC   C1B73531  37.045  17.273   6.450
 9120POPC   C2B73532  36.960  17.259   6.750
 9120POPC   C3B73533  37.047  17.277   7.050
 9120POPC   C4B73534  37.034  17.256   7.350
 9121POPC   NC373535   8.932  11.344   5.550
 9121POPC   PO473536   8.931  11.311   5.850
 9121POPC   GL173537   8.975  11.291   6.150
 9121POPC   GL273538   9.111  11.380   6.150
 9121POPC   C1A73539   9.013  11.349   6.450
 9121POPC   D2A73540   8.962  11.343   6.750
 9121POPC   C3A73541   8.964  11.301   7.050
 9121POPC   C4A73542   8.992  11.291   7.350
 9121POPC   C1B73543   9.185  11.450   6.450
 9121POPC   C2B73544   9.162  11.386   6.750
 9121POPC   C3B73545   9.180  11.468   7.050
 9121POPC   C4B73546   9.221  11.459   7.350
 9122POPC   NC373547  15.924   8.164   5.550
 9122POPC   PO473548  15.984   8.172   5.850
 9122POPC   GL173549  15.975   8.176   6.150
 9122POPC   GL273550  15.870   8.041   6.150
 9122POPC   C1A73551  15.989   8.224   6.450
 9122POPC   D2A73552  15.913   8.211   6.750
 9122POPC   C3A73553  15.981   8.172   7.050
 9122POPC   C4A73554  15.944   8.203   7.350
 9122POPC   C1B73555  15.845   7.998   6.450
 9122POPC   C2B73556  15.882   7.943   6.750
 9122POPC   C3B73557  15.898   7.929   7.050
 9122POPC   C4B73558  15.851   7.989   7.350
 9123POPC   NC373559  43.091   8.149   5.550
 9123POPC   PO473560  43.148   8.198   5.850
 9123POPC   GL173561  43.145   8.190   6.150
 9123POPC   GL273562  43.191   8.039   6.150
 9123POPC   C1A73563  43.061   8.166   6.450
 9123POPC   D2A73564  43.096   8.236   6.750
 9123POPC   C3A73565  43.135   8.241   7.050
 9123POPC   C4A73566  43.103   8.214   7.350
 9123POPC   C1B73567  43.193   8.012   6.450
 9123POPC   C2B73568  43.257   8.008   6.750
 9123POPC   C3B73569  43.210   7.936   7.050
 9123POPC   C4B73570  43.176   7.978   7.350
 9124POPC   NC373571  38.476  21.357   5.550
 9124POPC   PO473572  38.504  21.428   5.850
 9124POPC   GL173573  38.482  21.381   6.150
 9124POPC   GL273574  38.448  21.282   6.150
 9124POPC   C1A73575  38.436  21.426   6.450
 9124POPC   D2A73576  38.491  21.436   6.750
 9124POPC   C3A73577  38.469  21.399   7.050
 9124POPC   C4A73578  38.474  21.374   7.350
 9124POPC   C1B73579  38.428  21.108   6.450
 9124POPC   C2B73580  38.500  21.094   6.750
 9124POPC   C3B73581  38.508  21.168   7.050
 9124POPC   C4B73582  38.418  21.163   7.350
 9125POPC   NC373583  15.182   7.467   5.550
 9125POPC   PO473584  15.217   7.466   5.850
 9125POPC   GL173585  15.146   7.456   6.150
 9125POPC   GL273586  15.175   7.528   6.150
 9125POPC   C1A73587  15.219   7.455   6.450
 9125POPC   D2A73588  15.161   7.449   6.750
 9125POPC   C3A73589  15.224   7.403   7.050
 9125POPC   C4A73590  15.184   7.417   7.350
 9125POPC   C1B73591  15.169   7.664   6.450
 9125POPC   C2B73592  15.136   7.649   6.750
 9125POPC   C3B73593  15.139   7.628   7.050
 9125POPC   C4B73594  15.097   7.656   7.350
 9126POPC   NC373595  12.078  11.254   5.550
 9126POPC   PO473596  12.109  11.347   5.850
 9126POPC   GL173597  12.073  11.331   6.150
 9126POPC   GL273598  12.004  11.170   6.150
 9126POPC   C1A73599  12.105  11.335   6.450
 9126POPC   D2A73600  12.121  11.348   6.750
 9126POPC   C3A73601  12.090  11.287   7.050
 9126POPC   C4A73602  12.086  11.311   7.350
 9126POPC   C1B73603  11.894  11.073   6.450
 9126POPC   C2B73604  11.935  11.072   6.750
 9126POPC   C3B73605  11.927  11.061   7.050
 9126POPC   C4B73606  11.949  11.082   7.350
 9127POPC   NC373607   1.248   9.737   5.550
 9127POPC   PO473608   1.239   9.783   5.850
 9127POPC   GL173609   1.224   9.704   6.150
 9127POPC   GL273610   1.122   9.643   6.150
 9127POPC   C1A73611   1.182   9.744   6.450
 9127POPC   D2A73612   1.188   9.780   6.750
 9127POPC   C3A73613   1.195   9.766   7.050
 9127POPC   C4A73614   1.184   9.762   7.350
 9127POPC   C1B73615   1.079   9.570   6.450
 9127POPC   C2B73616   1.025   9.560   6.750
 9127POPC   C3B73617   1.054   9.579   7.050
 9127POPC   C4B73618   0.991   9.520   7.350
 9128POPC   NC373619  28.319  19.803   5.550
 9128POPC   PO473620  28.335  19.822   5.850
 9128POPC   GL173621  28.353  19.826   6.150
 9128POPC   GL273622  28.287  19.885   6.150
 9128POPC   C1A73623  28.371  19.818   6.450
 9128POPC   D2A73624  28.376  19.847   6.750
 9128POPC   C3A73625  28.340  19.867   7.050
 9128POPC   C4A73626  28.392  19.863   7.350
 9128POPC   C1B73627  28.129  19.873   6.450
 9128POPC   C2B73628  28.125  19.819   6.750
 9128POPC   C3B73629  28.077  19.809   7.050
 9128POPC   C4B73630  28.098  19.793   7.350
 9129POPC   NC373631  34.611  14.391   5.550
 9129POPC   PO473632  34.530  14.391   5.850
 9129POPC   GL173633  34.559  14.434   6.150
 9129POPC   GL273634  34.602  14.535   6.150
 9129POPC   C1A73635  34.605  14.446   6.450
 9129POPC   D2A73636  34.530  14.372   6.750
 9129POPC   C3A73637  34.574  14.423   7.050
 9129POPC   C4A73638  34.599  14.381   7.350
 9129POPC   C1B73639  34.679  14.577   6.450
 9129POPC   C2B73640  34.719  14.607   6.750
 9129POPC   C3B73641  34.684  14.603   7.050
 9129POPC   C4B73642  34.772  14.642   7.350
 9130POPC   NC373643   1.262  19.085   5.550
 9130POPC   PO473644   1.241  19.016   5.850
 9130POPC   GL173645   1.255  19.106   6.150
 9130POPC   GL273646   1.266  19.128   6.150
 9130POPC   C1A73647   1.242  19.037   6.450
 9130POPC   D2A73648   1.178  19.091   6.750
 9130POPC   C3A73649   1.170  19.097   7.050
 9130POPC   C4A73650   1.235  19.030   7.350
 9130POPC   C1B73651   1.299  19.265   6.450
 9130POPC   C2B73652   1.377  19.247   6.750
 9130POPC   C3B73653   1.359  19.286   7.050
 9130POPC   C4B73654   1.296  19.268   7.350
 9131POPC   NC373655  19.078   1.223   5.550
 9131POPC   PO473656  19.080   1.206   5.850
 9131POPC   GL173657  19.041   1.192   6.150
 9131POPC   GL273658  18.983   1.178   6.150
 9131POPC   C1A73659  19.107   1.174   6.450
 9131POPC   D2A73660  19.100   1.248   6.750
 9131POPC   C3A73661  19.024   1.230   7.050
 9131POPC   C4A73662  19.094   1.259   7.350
 9131POPC   C1B73663  18.822   1.171   6.450
 9131POPC   C2B73664  18.818   1.189   6.750
 9131POPC   C3B73665  18.823   1.217   7.050
 9131POPC   C4B73666  18.837   1.158   7.350
 9132POPC   NC373667  24.483  14.385   5.550
 9132POPC   PO473668  24.476  14.360   5.850
 9132POPC   GL173669  24.520  14.430   6.150
 9132POPC   GL273670  24.400  14.441   6.150
 9132POPC   C1A73671  24.534  14.431   6.450
 9132POPC   D2A73672  24.515  14.400   6.750
 9132POPC   C3A73673  24.525  14.367   7.050
 9132POPC   C4A73674  24.511  14.403   7.350
 9132POPC   C1B73675  24.285  14.553   6.450
 9132POPC   C2B73676  24.317  14.511   6.750
 9132POPC   C3B73677  24.323  14.493   7.050
 9132POPC   C4B73678  24.253  14.549   7.350
 9133POPC   NC373679  25.259   8.217   5.550
 9133POPC   PO473680  25.284   8.180   5.850
 9133POPC   GL173681  25.221   8.147   6.150
 9133POPC   GL273682  25.201   8.265   6.150
 9133POPC   C1A73683  25.226   8.204   6.450
 9133POPC   D2A73684  25.243   8.200   6.750
 9133POPC   C3A73685  25.279   8.151   7.050
 9133POPC   C4A73686  25.217   8.227   7.350
 9133POPC   C1B73687  25.167   8.460   6.450
 9133POPC   C2B73688  25.115   8.418   6.750
 9133POPC   C3B73689  25.174   8.452   7.050
 9133POPC   C4B73690  25.167   8.435   7.350
 9134POPC   NC373691   3.502  33.782   5.550
 9134POPC   PO473692   3.586  33.812   5.850
 9134POPC   GL173693   3.537  33.783   6.150
 9134POPC   GL273694   3.646  33.879   6.150
 9134POPC   C1A73695   3.585  33.779   6.450
 9134POPC   D2A73696   3.570  33.778   6.750
 9134POPC   C3A73697   3.559  33.848   7.050
 9134POPC   C4A73698   3.556  33.850   7.350
 9134POPC   C1B73699   3.802  33.906   6.450
 9134POPC   C2B73700   3.816  33.938   6.750
 9134POPC   C3B73701   3.728  33.862   7.050
 9134POPC   C4B73702   3.816  33.890   7.350
 9135POPC   NC373703  43.849  27.622   5.550
 9135POPC   PO473704  43.923  27.556   5.850
 9135POPC   GL173705  43.868  27.588   6.150
 9135POPC   GL273706  44.011  27.535   6.150
 9135POPC   C1A73707  43.898  27.564   6.450
 9135POPC   D2A73708  43.896  27.625   6.750
 9135POPC   C3A73709  43.886  27.622   7.050
 9135POPC   C4A73710  43.885  27.638   7.350
 9135POPC   C1B73711  44.123  27.523   6.450
 9135POPC   C2B73712  44.147  27.576   6.750
 9135POPC   C3B73713  44.148  27.498   7.050
 9135POPC   C4B73714  44.158  27.563   7.350
 9136POPC   NC373715  21.372   4.325   5.550
 9136POPC   PO473716  21.431   4.353   5.850
 9136POPC   GL173717  21.342   4.298   6.150
 9136POPC   GL273718  21.525   4.330   6.150
 9136POPC   C1A73719  21.400   4.345   6.450
 9136POPC   D2A73720  21.423   4.295   6.750
 9136POPC   C3A73721  21.432   4.290   7.050
 9136POPC   C4A73722  21.360   4.309   7.350
 9136POPC   C1B73723  21.619   4.284   6.450
 9136POPC   C2B73724  21.587   4.310   6.750
 9136POPC   C3B73725  21.652   4.246   7.050
 9136POPC   C4B73726  21.650   4.270   7.350
 9137POPC   NC373727  29.139   0.460   5.550
 9137POPC   PO473728  29.103   0.404   5.850
 9137POPC   GL173729  29.175   0.429   6.150
 9137POPC   GL273730  29.016   0.556   6.150
 9137POPC   C1A73731  29.110   0.465   6.450
 9137POPC   D2A73732  29.160   0.396   6.750
 9137POPC   C3A73733  29.126   0.418   7.050
 9137POPC   C4A73734  29.191   0.408   7.350
 9137POPC   C1B73735  28.938   0.612   6.450
 9137POPC   C2B73736  28.914   0.604   6.750
 9137POPC   C3B73737  28.948   0.603   7.050
 9137POPC   C4B73738  28.928   0.590   7.350
 9138POPC   NC373739  33.840   7.414   5.550
 9138POPC   PO473740  33.815   7.461   5.850
 9138POPC   GL173741  33.821   7.408   6.150
 9138POPC   GL273742  33.889   7.383   6.150
 9138POPC   C1A73743  33.803   7.456   6.450
 9138POPC   D2A73744  33.808   7.381   6.750
 9138POPC   C3A73745  33.823   7.449   7.050
 9138POPC   C4A73746  33.820   7.463   7.350
 9138POPC   C1B73747  34.025   7.341   6.450
 9138POPC   C2B73748  34.024   7.350   6.750
 9138POPC   C3B73749  34.039   7.288   7.050
 9138POPC   C4B73750  33.992   7.288   7.350
 9139POPC   NC373751  19.850  33.004   5.550
 9139POPC   PO473752  19.847  33.051   5.850
 9139POPC   GL173753  19.833  33.046   6.150
 9139POPC   GL273754  19.714  32.985   6.150
 9139POPC   C1A73755  19.791  33.022   6.450
 9139POPC   D2A73756  19.875  33.052   6.750
 9139POPC   C3A73757  19.799  32.985   7.050
 9139POPC   C4A73758  19.874  33.068   7.350
 9139POPC   C1B73759  19.608  32.949   6.450
 9139POPC   C2B73760  19.605  32.996   6.750
 9139POPC   C3B73761  19.544  33.011   7.050
 9139POPC   C4B73762  19.623  32.965   7.350
 9140POPC   NC373763   2.790   7.470   5.550
 9140POPC   PO473764   2.763   7.446   5.850
 9140POPC   GL173765   2.716   7.386   6.150
 9140POPC   GL273766   2.901   7.386   6.150
 9140POPC   C1A73767   2.811   7.435   6.450
 9140POPC   D2A73768   2.764   7.414   6.750
 9140POPC   C3A73769   2.718   7.409   7.050
 9140POPC   C4A73770   2.763   7.463   7.350
 9140POPC   C1B73771   2.961   7.338   6.450
 9140POPC   C2B73772   2.996   7.321   6.750
 9140POPC   C3B73773   2.962   7.288   7.050
 9140POPC   C4B73774   2.990   7.352   7.350
 9141POPC   NC373775  38.473  32.245   5.550
 9141POPC   PO473776  38.412  32.291   5.850
 9141POPC   GL173777  38.407  32.254   6.150
 9141POPC   GL273778  38.477  32.349   6.150
 9141POPC   C1A73779  38.469  32.228   6.450
 9141POPC   D2A73780  38.477  32.204   6.750
 9141POPC   C3A73781  38.433  32.282   7.050
 9141POPC   C4A73782  38.500  32.270   7.350
 9141POPC   C1B73783  38.475  32.461   6.450
 9141POPC   C2B73784  38.484  32.457   6.750
 9141POPC   C3B73785  38.549  32.472   7.050
 9141POPC   C4B73786  38.526  32.440   7.350
 9142POPC   NC373787   2.762  30.662   5.550
 9142POPC   PO473788   2.770  30.687   5.850
 9142POPC   GL173789   2.730  30.677   6.150
 9142POPC   GL273790   2.653  30.669   6.150
 9142POPC   C1A73791   2.769  30.740   6.450
 9142POPC   D2A73792   2.722  30.703   6.750
 9142POPC   C3A73793   2.749  30.732   7.050
 9142POPC   C4A73794   2.789  30.719   7.350
 9142POPC   C1B73795   2.588  30.557   6.450
 9142POPC   C2B73796   2.522  30.569   6.750
 9142POPC   C3B73797   2.580  30.573   7.050
 9142POPC   C4B73798   2.535  30.577   7.350
 9143POPC   NC373799  39.964   2.801   5.550
 9143POPC   PO473800  40.049   2.751   5.850
 9143POPC   GL173801  39.988   2.792   6.150
 9143POPC   GL273802  39.896   2.713   6.150
 9143POPC   C1A73803  39.986   2.727   6.450
 9143POPC   D2A73804  40.033   2.744   6.750
 9143POPC   C3A73805  40.010   2.761   7.050
 9143POPC   C4A73806  39.994   2.801   7.350
 9143POPC   C1B73807  39.778   2.692   6.450
 9143POPC   C2B73808  39.725   2.671   6.750
 9143POPC   C3B73809  39.782   2.689   7.050
 9143POPC   C4B73810  39.814   2.666   7.350
 9144POPC   NC373811  29.937  39.258   5.550
 9144POPC   PO473812  29.944  39.233   5.850
 9144POPC   GL173813  29.913  39.224   6.150
 9144POPC   GL273814  30.057  39.182   6.150
 9144POPC   C1A73815  29.904  39.239   6.450
 9144POPC   D2A73816  29.874  39.182   6.750
 9144POPC   C3A73817  29.895  39.271   7.050
 9144POPC   C4A73818  29.933  39.224   7.350
 9144POPC   C1B73819  30.176  39.085   6.450
 9144POPC   C2B73820  30.101  39.128   6.750
 9144POPC   C3B73821  30.114  39.176   7.050
 9144POPC   C4B73822  30.170  39.121   7.350
 9145POPC   NC373823   5.123  21.392   5.550
 9145POPC   PO473824   5.074  21.427   5.850
 9145POPC   GL173825   5.096  21.402   6.150
 9145POPC   GL273826   5.170  21.524   6.150
 9145POPC   C1A73827   5.133  21.404   6.450
 9145POPC   D2A73828   5.126  21.376   6.750
 9145POPC   C3A73829   5.053  21.426   7.050
 9145POPC   C4A73830   5.063  21.358   7.350
 9145POPC   C1B73831   5.136  21.607   6.450
 9145POPC   C2B73832   5.208  21.651   6.750
 9145POPC   C3B73833   5.147  21.619   7.050
 9145POPC   C4B73834   5.223  21.612   7.350
 9146POPC   NC373835  34.568  18.290   5.550
 9146POPC   PO473836  34.563  18.261   5.850
 9146POPC   GL173837  34.603  18.289   6.150
 9146POPC   GL273838  34.738  18.285   6.150
 9146POPC   C1A73839  34.549  18.266   6.450
 9146POPC   D2A73840  34.560  18.328   6.750
 9146POPC   C3A73841  34.563  18.297   7.050
 9146POPC   C4A73842  34.601  18.258   7.350
 9146POPC   C1B73843  34.817  18.383   6.450
 9146POPC   C2B73844  34.797  18.321   6.750
 9146POPC   C3B73845  34.802  18.343   7.050
 9146POPC   C4B73846  34.785  18.351   7.350
 9147POPC   NC373847  26.769  16.728   5.550
 9147POPC   PO473848  26.851  16.753   5.850
 9147POPC   GL173849  26.847  16.730   6.150
 9147POPC   GL273850  26.740  16.807   6.150
 9147POPC   C1A73851  26.816  16.721   6.450
 9147POPC   D2A73852  26.803  16.725   6.750
 9147POPC   C3A73853  26.814  16.739   7.050
 9147POPC   C4A73854  26.841  16.682   7.350
 9147POPC   C1B73855  26.688  16.907   6.450
 9147POPC   C2B73856  26.698  16.961   6.750
 9147POPC   C3B73857  26.696  16.898   7.050
 9147POPC   C4B73858  26.632  16.921   7.350
 9148POPC   NC373859  43.111  12.117   5.550
 9148POPC   PO473860  43.128  12.057   5.850
 9148POPC   GL173861  43.074  12.126   6.150
 9148POPC   GL273862  43.119  12.172   6.150
 9148POPC   C1A73863  43.097  12.077   6.450
 9148POPC   D2A73864  43.099  12.101   6.750
 9148POPC   C3A73865  43.105  12.105   7.050
 9148POPC   C4A73866  43.077  12.074   7.350
 9148POPC   C1B73867  43.131  12.279   6.450
 9148POPC   C2B73868  43.175  12.286   6.750
 9148POPC   C3B73869  43.110  12.281   7.050
 9148POPC   C4B73870  43.107  12.335   7.350
 9149POPC   NC373871  22.925  22.910   5.550
 9149POPC   PO473872  22.975  22.914   5.850
 9149POPC   GL173873  22.982  22.957   6.150
 9149POPC   GL273874  23.046  22.924   6.150
 9149POPC   C1A73875  22.954  22.928   6.450
 9149POPC   D2A73876  22.939  22.914   6.750
 9149POPC   C3A73877  22.915  22.952   7.050
 9149POPC   C4A73878  22.955  22.968   7.350
 9149POPC   C1B73879  23.138  22.857   6.450
 9149POPC   C2B73880  23.200  22.829   6.750
 9149POPC   C3B73881  23.172  22.881   7.050
 9149POPC   C4B73882  23.135  22.885   7.350
 9150POPC   NC373883  17.533   8.974   5.550
 9150POPC   PO473884  17.552   8.944   5.850
 9150POPC   GL173885  17.495   8.957   6.150
 9150POPC   GL273886  17.434   8.802   6.150
 9150POPC   C1A73887  17.505   8.963   6.450
 9150POPC   D2A73888  17.462   8.959   6.750
 9150POPC   C3A73889  17.474   8.983   7.050
 9150POPC   C4A73890  17.552   8.986   7.350
 9150POPC   C1B73891  17.463   8.751   6.450
 9150POPC   C2B73892  17.490   8.736   6.750
 9150POPC   C3B73893  17.476   8.758   7.050
 9150POPC   C4B73894  17.427   8.721   7.350
 9151POPC   NC373895   1.176  16.777   5.550
 9151POPC   PO473896   1.218  16.712   5.850
 9151POPC   GL173897   1.220  16.682   6.150
 9151POPC   GL273898   1.319  16.705   6.150
 9151POPC   C1A73899   1.183  16.754   6.450
 9151POPC   D2A73900   1.244  16.768   6.750
 9151POPC   C3A73901   1.174  16.691   7.050
 9151POPC   C4A73902   1.172  16.770   7.350
 9151POPC   C1B73903   1.418  16.587   6.450
 9151POPC   C2B73904   1.381  16.594   6.750
 9151POPC   C3B73905   1.432  16.629   7.050
 9151POPC   C4B73906   1.469  16.607   7.350
 9152POPC   NC373907  22.189   5.067   5.550
 9152POPC   PO473908  22.159   5.128   5.850
 9152POPC   GL173909  22.153   5.071   6.150
 9152POPC   GL273910  22.073   5.117   6.150
 9152POPC   C1A73911  22.147   5.051   6.450
 9152POPC   D2A73912  22.120   5.138   6.750
 9152POPC   C3A73913  22.190   5.089   7.050
 9152POPC   C4A73914  22.178   5.052   7.350
 9152POPC   C1B73915  21.913   5.147   6.450
 9152POPC   C2B73916  21.934   5.159   6.750
 9152POPC   C3B73917  21.903   5.123   7.050
 9152POPC   C4B73918  21.907   5.140   7.350
 9153POPC   NC373919  26.792   3.530   5.550
 9153POPC   PO473920  26.831   3.522   5.850
 9153POPC   GL173921  26.828   3.522   6.150
 9153POPC   GL273922  26.726   3.602   6.150
 9153POPC   C1A73923  26.849   3.554   6.450
 9153POPC   D2A73924  26.801   3.587   6.750
 9153POPC   C3A73925  26.864   3.523   7.050
 9153POPC   C4A73926  26.802   3.579   7.350
 9153POPC   C1B73927  26.646   3.777   6.450
 9153POPC   C2B73928  26.628   3.734   6.750
 9153POPC   C3B73929  26.689   3.697   7.050
 9153POPC   C4B73930  26.617   3.697   7.350
 9154POPC   NC373931  19.804  39.218   5.550
 9154POPC   PO473932  19.873  39.281   5.850
 9154POPC   GL173933  19.794  39.185   6.150
 9154POPC   GL273934  19.962  39.188   6.150
 9154POPC   C1A73935  19.857  39.280   6.450
 9154POPC   D2A73936  19.792  39.189   6.750
 9154POPC   C3A73937  19.785  39.269   7.050
 9154POPC   C4A73938  19.836  39.275   7.350
 9154POPC   C1B73939  20.021  39.187   6.450
 9154POPC   C2B73940  20.027  39.116   6.750
 9154POPC   C3B73941  20.078  39.169   7.050
 9154POPC   C4B73942  20.092  39.128   7.350
 9155POPC   NC373943   8.169   5.089   5.550
 9155POPC   PO473944   8.188   5.137   5.850
 9155POPC   GL173945   8.148   5.115   6.150
 9155POPC   GL273946   8.078   5.101   6.150
 9155POPC   C1A73947   8.154   5.070   6.450
 9155POPC   D2A73948   8.208   5.088   6.750
 9155POPC   C3A73949   8.229   5.136   7.050
 9155POPC   C4A73950   8.221   5.098   7.350
 9155POPC   C1B73951   7.933   5.143   6.450
 9155POPC   C2B73952   7.950   5.133   6.750
 9155POPC   C3B73953   7.911   5.185   7.050
 9155POPC   C4B73954   7.989   5.118   7.350
 9156POPC   NC373955  29.873  37.702   5.550
 9156POPC   PO473956  29.967  37.706   5.850
 9156POPC   GL173957  29.875  37.635   6.150
 9156POPC   GL273958  30.058  37.727   6.150
 9156POPC   C1A73959  29.933  37.688   6.450
 9156POPC   D2A73960  29.940  37.669   6.750
 9156POPC   C3A73961  29.959  37.629   7.050
 9156POPC   C4A73962  29.874  37.716   7.350
 9156POPC   C1B73963  30.135  37.824   6.450
 9156POPC   C2B73964  30.131  37.759   6.750
 9156POPC   C3B73965  30.150  37.752   7.050
 9156POPC   C4B73966  30.173  37.750   7.350
 9157POPC   NC373967  34.551  43.104   5.550
 9157POPC   PO473968  34.586  43.094   5.850
 9157POPC   GL173969  34.547  43.127   6.150
 9157POPC   GL273970  34.640  43.190   6.150
 9157POPC   C1A73971  34.618  43.140   6.450
 9157POPC   D2A73972  34.527  43.070   6.750
 9157POPC   C3A73973  34.567  43.146   7.050
 9157POPC   C4A73974  34.606  43.111   7.350
 9157POPC   C1B73975  34.815  43.201   6.450
 9157POPC   C2B73976  34.760  43.199   6.750
 9157POPC   C3B73977  34.804  43.256   7.050
 9157POPC   C4B73978  34.764  43.218   7.350
 9158POPC   NC373979  38.426  13.645   5.550
 9158POPC   PO473980  38.415  13.665   5.850
 9158POPC   GL173981  38.492  13.587   6.150
 9158POPC   GL273982  38.377  13.635   6.150
 9158POPC   C1A73983  38.426  13.578   6.450
 9158POPC   D2A73984  38.503  13.647   6.750
 9158POPC   C3A73985  38.417  13.616   7.050
 9158POPC   C4A73986  38.504  13.610   7.350
 9158POPC   C1B73987  38.192  13.703   6.450
 9158POPC   C2B73988  38.280  13.759   6.750
 9158POPC   C3B73989  38.280  13.696   7.050
 9158POPC   C4B73990  38.244  13.694   7.350
 9159POPC   NC373991  11.334   4.283   5.550
 9159POPC   PO473992  11.291   4.347   5.850
 9159POPC   GL173993  11.314   4.310   6.150
 9159POPC   GL273994  11.228   4.245   6.150
 9159POPC   C1A73995  11.280   4.353   6.450
 9159POPC   D2A73996  11.272   4.316   6.750
 9159POPC   C3A73997  11.301   4.275   7.050
 9159POPC   C4A73998  11.300   4.317   7.350
 9159POPC   C1B73999  11.070   4.123   6.450
 9159POPC   C2B74000  11.068   4.146   6.750
 9159POPC   C3B74001  11.048   4.214   7.050
 9159POPC   C4B74002  11.090   4.201   7.350
 9160POPC   NC374003   0.412  33.840   5.550
 9160POPC   PO474004   0.449  33.789   5.850
 9160POPC   GL174005   0.477  33.759   6.150
 9160POPC   GL274006   0.405  33.883   6.150
 9160POPC   C1A74007   0.439  33.785   6.450
 9160POPC   D2A74008   0.464  33.778   6.750
 9160POPC   C3A74009   0.390  33.842   7.050
 9160POPC   C4A74010   0.478  33.836   7.350
 9160POPC   C1B74011   0.311  33.977   6.450
 9160POPC   C2B74012   0.289  34.017   6.750
 9160POPC   C3B74013   0.370  34.007   7.050
 9160POPC   C4B74014   0.358  33.996   7.350
 9161POPC   NC374015  35.323  33.018   5.550
 9161POPC   PO474016  35.386  33.026   5.850
 9161POPC   GL174017  35.351  33.034   6.150
 9161POPC   GL274018  35.447  33.097   6.150
 9161POPC   C1A74019  35.382  33.034   6.450
 9161POPC   D2A74020  35.366  33.030   6.750
 9161POPC   C3A74021  35.364  33.041   7.050
 9161POPC   C4A74022  35.353  33.032   7.350
 9161POPC   C1B74023  35.596  33.045   6.450
 9161POPC   C2B74024  35.564  33.074   6.750
 9161POPC   C3B74025  35.556  33.078   7.050
 9161POPC   C4B74026  35.611  33.080   7.350
 9162POPC   NC374027   0.408  26.021   5.550
 9162POPC   PO474028   0.443  26.073   5.850
 9162POPC   GL174029   0.434  26.062   6.150
 9162POPC   GL274030   0.377  26.118   6.150
 9162POPC   C1A74031   0.411  26.011   6.450
 9162POPC   D2A74032   0.459  25.995   6.750
 9162POPC   C3A74033   0.469  26.085   7.050
 9162POPC   C4A74034   0.408  26.040   7.350
 9162POPC   C1B74035   0.277  26.286   6.450
 9162POPC   C2B74036   0.349  26.218   6.750
 9162POPC   C3B74037   0.280  26.252   7.050
 9162POPC   C4B74038   0.368  26.287   7.350
 9163POPC   NC374039  15.190  21.425   5.550
 9163POPC   PO474040  15.212  21.413   5.850
 9163POPC   GL174041  15.172  21.419   6.150
 9163POPC   GL274042  15.059  21.502   6.150
 9163POPC   C1A74043  15.155  21.351   6.450
 9163POPC   D2A74044  15.140  21.367   6.750
 9163POPC   C3A74045  15.225  21.417   7.050
 9163POPC   C4A74046  15.219  21.431   7.350
 9163POPC   C1B74047  15.070  21.624   6.450
 9163POPC   C2B74048  15.064  21.597   6.750
 9163POPC   C3B74049  15.019  21.566   7.050
 9163POPC   C4B74050  14.977  21.536   7.350
 9164POPC   NC374051  10.545  22.919   5.550
 9164POPC   PO474052  10.501  22.957   5.850
 9164POPC   GL174053  10.501  22.903   6.150
 9164POPC   GL274054  10.610  22.788   6.150
 9164POPC   C1A74055  10.507  22.977   6.450
 9164POPC   D2A74056  10.563  22.978   6.750
 9164POPC   C3A74057  10.543  22.967   7.050
 9164POPC   C4A74058  10.553  22.977   7.350
 9164POPC   C1B74059  10.621  22.681   6.450
 9164POPC   C2B74060  10.590  22.724   6.750
 9164POPC   C3B74061  10.619  22.712   7.050
 9164POPC   C4B74062  10.588  22.710   7.350
 9165POPC   NC374063   0.444  10.548   5.550
 9165POPC   PO474064   0.394  10.567   5.850
 9165POPC   GL174065   0.448  10.504   6.150
 9165POPC   GL274066   0.310  10.484   6.150
 9165POPC   C1A74067   0.482  10.557   6.450
 9165POPC   D2A74068   0.419  10.548   6.750
 9165POPC   C3A74069   0.462  10.562   7.050
 9165POPC   C4A74070   0.419  10.549   7.350
 9165POPC   C1B74071   0.181  10.518   6.450
 9165POPC   C2B74072   0.195  10.505   6.750
 9165POPC   C3B74073   0.231  10.435   7.050
 9165POPC   C4B74074   0.182  10.448   7.350
 9166POPC   NC374075  21.387  40.053   5.550
 9166POPC   PO474076  21.361  40.014   5.850
 9166POPC   GL174077  21.394  39.997   6.150
 9166POPC   GL274078  21.493  39.951   6.150
 9166POPC   C1A74079  21.419  40.036   6.450
 9166POPC   D2A74080  21.338  39.969   6.750
 9166POPC   C3A74081  21.383  39.972   7.050
 9166POPC   C4A74082  21.381  40.031   7.350
 9166POPC   C1B74083  21.657  39.845   6.450
 9166POPC   C2B74084  21.643  39.864   6.750
 9166POPC   C3B74085  21.606  39.864   7.050
 9166POPC   C4B74086  21.586  39.847   7.350
 9167POPC   NC374087  25.297  39.242   5.550
 9167POPC   PO474088  25.265  39.259   5.850
 9167POPC   GL174089  25.298  39.195   6.150
 9167POPC   GL274090  25.371  39.333   6.150
 9167POPC   C1A74091  25.304  39.208   6.450
 9167POPC   D2A74092  25.239  39.218   6.750
 9167POPC   C3A74093  25.230  39.196   7.050
 9167POPC   C4A74094  25.273  39.196   7.350
 9167POPC   C1B74095  25.454  39.446   6.450
 9167POPC   C2B74096  25.413  39.439   6.750
 9167POPC   C3B74097  25.451  39.427   7.050
 9167POPC   C4B74098  25.396  39.471   7.350
 9168POPC   NC374099   0.458  33.027   5.550
 9168POPC   PO474100   0.476  33.055   5.850
 9168POPC   GL174101   0.407  33.008   6.150
 9168POPC   GL274102   0.501  32.914   6.150
 9168POPC   C1A74103   0.439  33.025   6.450
 9168POPC   D2A74104   0.426  33.004   6.750
 9168POPC   C3A74105   0.472  33.029   7.050
 9168POPC   C4A74106   0.391  32.993   7.350
 9168POPC   C1B74107   0.653  32.837   6.450
 9168POPC   C2B74108   0.577  32.827   6.750
 9168POPC   C3B74109   0.649  32.885   7.050
 9168POPC   C4B74110   0.605  32.858   7.350
 9169POPC   NC374111   2.748  43.159   5.550
 9169POPC   PO474112   2.781  43.068   5.850
 9169POPC   GL174113   2.754  43.109   6.150
 9169POPC   GL274114   2.796  42.964   6.150
 9169POPC   C1A74115   2.748  43.085   6.450
 9169POPC   D2A74116   2.779  43.089   6.750
 9169POPC   C3A74117   2.769  43.130   7.050
 9169POPC   C4A74118   2.784  43.115   7.350
 9169POPC   C1B74119   2.814  42.845   6.450
 9169POPC   C2B74120   2.803  42.829   6.750
 9169POPC   C3B74121   2.845  42.835   7.050
 9169POPC   C4B74122   2.865  42.833   7.350
 9170POPC   NC374123  19.795  12.105   5.550
 9170POPC   PO474124  19.868  12.033   5.850
 9170POPC   GL174125  19.876  12.044   6.150
 9170POPC   GL274126  19.888  11.967   6.150
 9170POPC   C1A74127  19.813  12.104   6.450
 9170POPC   D2A74128  19.858  12.110   6.750
 9170POPC   C3A74129  19.877  12.097   7.050
 9170POPC   C4A74130  19.805  12.119   7.350
 9170POPC   C1B74131  19.883  11.796   6.450
 9170POPC   C2B74132  19.893  11.810   6.750
 9170POPC   C3B74133  19.838  11.858   7.050
 9170POPC   C4B74134  19.868  11.827   7.350
 9171POPC   NC374135  44.697  12.833   5.550
 9171POPC   PO474136  44.692  12.896   5.850
 9171POPC   GL174137  44.685  12.817   6.150
 9171POPC   GL274138  44.616  12.962   6.150
 9171POPC   C1A74139  44.617  12.829   6.450
 9171POPC   D2A74140  44.708  12.820   6.750
 9171POPC   C3A74141  44.633  12.885   7.050
 9171POPC   C4A74142  44.701  12.842   7.350
 9171POPC   C1B74143  44.676  13.062   6.450
 9171POPC   C2B74144  44.653  13.142   6.750
 9171POPC   C3B74145  44.704  13.106   7.050
 9171POPC   C4B74146  44.677  13.106   7.350
 9172POPC   NC374147  26.848  40.772   5.550
 9172POPC   PO474148  26.855  40.799   5.850
 9172POPC   GL174149  26.817  40.798   6.150
 9172POPC   GL274150  26.874  40.825   6.150
 9172POPC   C1A74151  26.834  40.768   6.450
 9172POPC   D2A74152  26.825  40.774   6.750
 9172POPC   C3A74153  26.856  40.776   7.050
 9172POPC   C4A74154  26.828  40.765   7.350
 9172POPC   C1B74155  27.065  40.903   6.450
 9172POPC   C2B74156  27.078  40.893   6.750
 9172POPC   C3B74157  27.042  40.921   7.050
 9172POPC   C4B74158  27.006  40.945   7.350
 9173POPC   NC374159   5.128  19.822   5.550
 9173POPC   PO474160   5.138  19.830   5.850
 9173POPC   GL174161   5.096  19.802   6.150
 9173POPC   GL274162   4.978  19.938   6.150
 9173POPC   C1A74163   5.112  19.789   6.450
 9173POPC   D2A74164   5.107  19.795   6.750
 9173POPC   C3A74165   5.088  19.877   7.050
 9173POPC   C4A74166   5.113  19.825   7.350
 9173POPC   C1B74167   4.872  19.992   6.450
 9173POPC   C2B74168   4.905  19.946   6.750
 9173POPC   C3B74169   4.881  19.959   7.050
 9173POPC   C4B74170   4.855  19.937   7.350
 9174POPC   NC374171  33.067   6.660   5.550
 9174POPC   PO474172  33.049   6.621   5.850
 9174POPC   GL174173  33.014   6.688   6.150
 9174POPC   GL274174  32.984   6.763   6.150
 9174POPC   C1A74175  33.063   6.645   6.450
 9174POPC   D2A74176  33.019   6.688   6.750
 9174POPC   C3A74177  33.039   6.645   7.050
 9174POPC   C4A74178  33.015   6.652   7.350
 9174POPC   C1B74179  32.956   6.911   6.450
 9174POPC   C2B74180  32.948   6.925   6.750
 9174POPC   C3B74181  32.979   6.847   7.050
 9174POPC   C4B74182  32.966   6.853   7.350
 9175POPC   NC374183  14.364   1.185   5.550
 9175POPC   PO474184  14.424   1.243   5.850
 9175POPC   GL174185  14.365   1.253   6.150
 9175POPC   GL274186  14.423   1.060   6.150
 9175POPC   C1A74187  14.403   1.208   6.450
 9175POPC   D2A74188  14.434   1.183   6.750
 9175POPC   C3A74189  14.376   1.173   7.050
 9175POPC   C4A74190  14.433   1.173   7.350
 9175POPC   C1B74191  14.374   0.938   6.450
 9175POPC   C2B74192  14.386   0.959   6.750
 9175POPC   C3B74193  14.454   0.918   7.050
 9175POPC   C4B74194  14.437   0.964   7.350
 9176POPC   NC374195  11.280  23.666   5.550
 9176POPC   PO474196  11.317  23.680   5.850
 9176POPC   GL174197  11.275  23.723   6.150
 9176POPC   GL274198  11.230  23.851   6.150
 9176POPC   C1A74199  11.308  23.671   6.450
 9176POPC   D2A74200  11.336  23.752   6.750
 9176POPC   C3A74201  11.324  23.728   7.050
 9176POPC   C4A74202  11.334  23.713   7.350
 9176POPC   C1B74203  11.142  23.921   6.450
 9176POPC   C2B74204  11.103  23.921   6.750
 9176POPC   C3B74205  11.123  23.892   7.050
 9176POPC   C4B74206  11.153  23.955   7.350
 9177POPC   NC374207  33.040  27.617   5.550
 9177POPC   PO474208  32.995  27.640   5.850
 9177POPC   GL174209  33.067  27.627   6.150
 9177POPC   GL274210  33.083  27.638   6.150
 9177POPC   C1A74211  33.006  27.594   6.450
 9177POPC   D2A74212  33.064  27.612   6.750
 9177POPC   C3A74213  33.021  27.591   7.050
 9177POPC   C4A74214  32.995  27.637   7.350
 9177POPC   C1B74215  33.231  27.731   6.450
 9177POPC   C2B74216  33.202  27.789   6.750
 9177POPC   C3B74217  33.222  27.776   7.050
 9177POPC   C4B74218  33.211  27.753   7.350
 9178POPC   NC374219  10.544   2.721   5.550
 9178POPC   PO474220  10.517   2.813   5.850
 9178POPC   GL174221  10.547   2.813   6.150
 9178POPC   GL274222  10.659   2.722   6.150
 9178POPC   C1A74223  10.545   2.811   6.450
 9178POPC   D2A74224  10.532   2.763   6.750
 9178POPC   C3A74225  10.514   2.796   7.050
 9178POPC   C4A74226  10.550   2.785   7.350
 9178POPC   C1B74227  10.810   2.739   6.450
 9178POPC   C2B74228  10.800   2.778   6.750
 9178POPC   C3B74229  10.800   2.767   7.050
 9178POPC   C4B74230  10.725   2.766   7.350
 9179POPC   NC374231  10.572  30.648   5.550
 9179POPC   PO474232  10.571  30.725   5.850
 9179POPC   GL174233  10.507  30.649   6.150
 9179POPC   GL274234  10.521  30.608   6.150
 9179POPC   C1A74235  10.546  30.738   6.450
 9179POPC   D2A74236  10.534  30.742   6.750
 9179POPC   C3A74237  10.501  30.702   7.050
 9179POPC   C4A74238  10.542  30.729   7.350
 9179POPC   C1B74239  10.499  30.418   6.450
 9179POPC   C2B74240  10.501  30.440   6.750
 9179POPC   C3B74241  10.509  30.480   7.050
 9179POPC   C4B74242  10.507  30.452   7.350
 9180POPC   NC374243  11.317   8.977   5.550
 9180POPC   PO474244  11.328   8.931   5.850
 9180POPC   GL174245  11.302   8.925   6.150
 9180POPC   GL274246  11.431   8.920   6.150
 9180POPC   C1A74247  11.294   8.968   6.450
 9180POPC   D2A74248  11.333   8.932   6.750
 9180POPC   C3A74249  11.337   9.003   7.050
 9180POPC   C4A74250  11.346   8.945   7.350
 9180POPC   C1B74251  11.564   8.826   6.450
 9180POPC   C2B74252  11.486   8.824   6.750
 9180POPC   C3B74253  11.512   8.798   7.050
 9180POPC   C4B74254  11.518   8.836   7.350
 9181POPC   NC374255  13.627  28.347   5.550
 9181POPC   PO474256  13.669  28.377   5.850
 9181POPC   GL174257  13.604  28.388   6.150
 9181POPC   GL274258  13.498  28.425   6.150
 9181POPC   C1A74259  13.632  28.414   6.450
 9181POPC   D2A74260  13.612  28.342   6.750
 9181POPC   C3A74261  13.598  28.382   7.050
 9181POPC   C4A74262  13.648  28.419   7.350
 9181POPC   C1B74263  13.350  28.378   6.450
 9181POPC   C2B74264  13.337  28.354   6.750
 9181POPC   C3B74265  13.363  28.346   7.050
 9181POPC   C4B74266  13.389  28.391   7.350
 9182POPC   NC374267  40.773  41.533   5.550
 9182POPC   PO474268  40.753  41.519   5.850
 9182POPC   GL174269  40.784  41.545   6.150
 9182POPC   GL274270  40.756  41.415   6.150
 9182POPC   C1A74271  40.777  41.521   6.450
 9182POPC   D2A74272  40.784  41.520   6.750
 9182POPC   C3A74273  40.767  41.532   7.050
 9182POPC   C4A74274  40.762  41.556   7.350
 9182POPC   C1B74275  40.659  41.325   6.450
 9182POPC   C2B74276  40.642  41.318   6.750
 9182POPC   C3B74277  40.649  41.349   7.050
 9182POPC   C4B74278  40.644  41.345   7.350
 9183POPC   NC374279   6.612  35.401   5.550
 9183POPC   PO474280   6.595  35.390   5.850
 9183POPC   GL174281   6.671  35.325   6.150
 9183POPC   GL274282   6.556  35.374   6.150
 9183POPC   C1A74283   6.650  35.312   6.450
 9183POPC   D2A74284   6.603  35.395   6.750
 9183POPC   C3A74285   6.683  35.400   7.050
 9183POPC   C4A74286   6.614  35.394   7.350
 9183POPC   C1B74287   6.424  35.393   6.450
 9183POPC   C2B74288   6.371  35.395   6.750
 9183POPC   C3B74289   6.403  35.378   7.050
 9183POPC   C4B74290   6.367  35.358   7.350
 9184POPC   NC374291  44.617  29.103   5.550
 9184POPC   PO474292  44.675  29.157   5.850
 9184POPC   GL174293  44.667  29.147   6.150
 9184POPC   GL274294  44.759  29.044   6.150
 9184POPC   C1A74295  44.693  29.121   6.450
 9184POPC   D2A74296  44.709  29.182   6.750
 9184POPC   C3A74297  44.655  29.184   7.050
 9184POPC   C4A74298  44.624  29.173   7.350
 9184POPC   C1B74299  44.804  28.979   6.450
 9184POPC   C2B74300  44.829  28.946   6.750
 9184POPC   C3B74301  44.824  28.995   7.050
 9184POPC   C4B74302  44.812  28.992   7.350
 9185POPC   NC374303  24.536  22.151   5.550
 9185POPC   PO474304  24.467  22.113   5.850
 9185POPC   GL174305  24.470  22.180   6.150
 9185POPC   GL274306  24.569  22.260   6.150
 9185POPC   C1A74307  24.476  22.204   6.450
 9185POPC   D2A74308  24.449  22.157   6.750
 9185POPC   C3A74309  24.440  22.185   7.050
 9185POPC   C4A74310  24.452  22.195   7.350
 9185POPC   C1B74311  24.686  22.282   6.450
 9185POPC   C2B74312  24.718  22.232   6.750
 9185POPC   C3B74313  24.667  22.237   7.050
 9185POPC   C4B74314  24.713  22.277   7.350
 9186POPC   NC374315  24.504  33.774   5.550
 9186POPC   PO474316  24.535  33.841   5.850
 9186POPC   GL174317  24.464  33.824   6.150
 9186POPC   GL274318  24.610  33.795   6.150
 9186POPC   C1A74319  24.532  33.755   6.450
 9186POPC   D2A74320  24.473  33.782   6.750
 9186POPC   C3A74321  24.525  33.763   7.050
 9186POPC   C4A74322  24.511  33.844   7.350
 9186POPC   C1B74323  24.741  33.742   6.450
 9186POPC   C2B74324  24.718  33.781   6.750
 9186POPC   C3B74325  24.757  33.714   7.050
 9186POPC   C4B74326  24.701  33.749   7.350
 9187POPC   NC374327  16.732  15.922   5.550
 9187POPC   PO474328  16.719  15.930   5.850
 9187POPC   GL174329  16.733  16.002   6.150
 9187POPC   GL274330  16.623  15.818   6.150
 9187POPC   C1A74331  16.696  15.975   6.450
 9187POPC   D2A74332  16.709  15.972   6.750
 9187POPC   C3A74333  16.691  16.005   7.050
 9187POPC   C4A74334  16.773  15.933   7.350
 9187POPC   C1B74335  16.591  15.763   6.450
 9187POPC   C2B74336  16.549  15.775   6.750
 9187POPC   C3B74337  16.552  15.785   7.050
 9187POPC   C4B74338  16.557  15.723   7.350
 9188POPC   NC374339  43.086  32.204   5.550
 9188POPC   PO474340  43.142  32.290   5.850
 9188POPC   GL174341  43.078  32.202   6.150
 9188POPC   GL274342  43.110  32.148   6.150
 9188POPC   C1A74343  43.077  32.255   6.450
 9188POPC   D2A74344  43.127  32.230   6.750
 9188POPC   C3A74345  43.143  32.257   7.050
 9188POPC   C4A74346  43.082  32.265   7.350
 9188POPC   C1B74347  43.135  32.042   6.450
 9188POPC   C2B74348  43.122  32.003   6.750
 9188POPC   C3B74349  43.149  32.004   7.050
 9188POPC   C4B74350  43.149  32.045   7.350
 9189POPC   NC374351  13.616  38.427   5.550
 9189POPC   PO474352  13.671  38.413   5.850
 9189POPC   GL174353  13.630  38.505   6.150
 9189POPC   GL274354  13.505  38.522   6.150
 9189POPC   C1A74355  13.675  38.420   6.450
 9189POPC   D2A74356  13.639  38.473   6.750
 9189POPC   C3A74357  13.631  38.423   7.050
 9189POPC   C4A74358  13.601  38.504   7.350
 9189POPC   C1B74359  13.390  38.600   6.450
 9189POPC   C2B74360  13.439  38.536   6.750
 9189POPC   C3B74361  13.452  38.607   7.050
 9189POPC   C4B74362  13.391  38.591   7.350
 9190POPC   NC374363  36.135  19.044   5.550
 9190POPC   PO474364  36.103  19.021   5.850
 9190POPC   GL174365  36.167  19.102   6.150
 9190POPC   GL274366  36.213  19.011   6.150
 9190POPC   C1A74367  36.107  19.060   6.450
 9190POPC   D2A74368  36.147  19.047   6.750
 9190POPC   C3A74369  36.150  19.051   7.050
 9190POPC   C4A74370  36.165  19.064   7.350
 9190POPC   C1B74371  36.338  18.909   6.450
 9190POPC   C2B74372  36.333  18.922   6.750
 9190POPC   C3B74373  36.331  18.848   7.050
 9190POPC   C4B74374  36.351  18.923   7.350
 9191POPC   NC374375   1.213  29.098   5.550
 9191POPC   PO474376   1.244  29.155   5.850
 9191POPC   GL174377   1.223  29.150   6.150
 9191POPC   GL274378   1.149  29.014   6.150
 9191POPC   C1A74379   1.196  29.130   6.450
 9191POPC   D2A74380   1.190  29.177   6.750
 9191POPC   C3A74381   1.188  29.112   7.050
 9191POPC   C4A74382   1.254  29.191   7.350
 9191POPC   C1B74383   1.219  28.905   6.450
 9191POPC   C2B74384   1.187  28.917   6.750
 9191POPC   C3B74385   1.187  28.895   7.050
 9191POPC   C4B74386   1.154  28.928   7.350
 9192POPC   NC374387  28.329  28.353   5.550
 9192POPC   PO474388  28.369  28.393   5.850
 9192POPC   GL174389  28.410  28.357   6.150
 9192POPC   GL274390  28.247  28.489   6.150
 9192POPC   C1A74391  28.348  28.323   6.450
 9192POPC   D2A74392  28.379  28.321   6.750
 9192POPC   C3A74393  28.360  28.323   7.050
 9192POPC   C4A74394  28.333  28.392   7.350
 9192POPC   C1B74395  28.189  28.599   6.450
 9192POPC   C2B74396  28.202  28.593   6.750
 9192POPC   C3B74397  28.217  28.602   7.050
 9192POPC   C4B74398  28.163  28.512   7.350
 9193POPC   NC374399  42.294  34.602   5.550
 9193POPC   PO474400  42.330  34.543   5.850
 9193POPC   GL174401  42.345  34.626   6.150
 9193POPC   GL274402  42.341  34.481   6.150
 9193POPC   C1A74403  42.343  34.624   6.450
 9193POPC   D2A74404  42.287  34.616   6.750
 9193POPC   C3A74405  42.288  34.567   7.050
 9193POPC   C4A74406  42.366  34.599   7.350
 9193POPC   C1B74407  42.449  34.319   6.450
 9193POPC   C2B74408  42.390  34.387   6.750
 9193POPC   C3B74409  42.473  34.377   7.050
 9193POPC   C4B74410  42.419  34.339   7.350
 9194POPC   NC374411  28.341  14.417   5.550
 9194POPC   PO474412  28.324  14.449   5.850
 9194POPC   GL174413  28.345  14.403   6.150
 9194POPC   GL274414  28.447  14.380   6.150
 9194POPC   C1A74415  28.361  14.453   6.450
 9194POPC   D2A74416  28.415  14.361   6.750
 9194POPC   C3A74417  28.384  14.395   7.050
 9194POPC   C4A74418  28.344  14.420   7.350
 9194POPC   C1B74419  28.630  14.414   6.450
 9194POPC   C2B74420  28.649  14.428   6.750
 9194POPC   C3B74421  28.613  14.420   7.050
 9194POPC   C4B74422  28.630  14.439   7.350
 9195POPC   NC374423  22.985  11.273   5.550
 9195POPC   PO474424  22.971  11.323   5.850
 9195POPC   GL174425  22.933  11.276   6.150
 9195POPC   GL274426  22.998  11.209   6.150
 9195POPC   C1A74427  22.986  11.277   6.450
 9195POPC   D2A74428  22.942  11.301   6.750
 9195POPC   C3A74429  22.969  11.317   7.050
 9195POPC   C4A74430  22.946  11.306   7.350
 9195POPC   C1B74431  23.085  11.115   6.450
 9195POPC   C2B74432  23.058  11.072   6.750
 9195POPC   C3B74433  23.086  11.119   7.050
 9195POPC   C4B74434  23.151  11.100   7.350
 9196POPC   NC374435  43.883  40.797   5.550
 9196POPC   PO474436  43.887  40.757   5.850
 9196POPC   GL174437  43.907  40.750   6.150
 9196POPC   GL274438  43.994  40.828   6.150
 9196POPC   C1A74439  43.917  40.761   6.450
 9196POPC   D2A74440  43.868  40.741   6.750
 9196POPC   C3A74441  43.921  40.742   7.050
 9196POPC   C4A74442  43.872  40.746   7.350
 9196POPC   C1B74443  44.112  40.783   6.450
 9196POPC   C2B74444  44.088  40.843   6.750
 9196POPC   C3B74445  44.178  40.855   7.050
 9196POPC   C4B74446  44.115  40.825   7.350
 9197POPC   NC374447   8.993  39.987   5.550
 9197POPC   PO474448   9.011  40.022   5.850
 9197POPC   GL174449   8.953  39.977   6.150
 9197POPC   GL274450   9.078  40.121   6.150
 9197POPC   C1A74451   8.934  40.016   6.450
 9197POPC   D2A74452   8.962  40.047   6.750
 9197POPC   C3A74453   8.945  40.027   7.050
 9197POPC   C4A74454   8.985  39.961   7.350
 9197POPC   C1B74455   9.102  40.191   6.450
 9197POPC   C2B74456   9.064  40.253   6.750
 9197POPC   C3B74457   9.159  40.173   7.050
 9197POPC   C4B74458   9.079  40.218   7.350
 9198POPC   NC374459  30.729  29.140   5.550
 9198POPC   PO474460  30.692  29.115   5.850
 9198POPC   GL174461  30.679  29.138   6.150
 9198POPC   GL274462  30.777  29.007   6.150
 9198POPC   C1A74463  30.694  29.127   6.450
 9198POPC   D2A74464  30.647  29.182   6.750
 9198POPC   C3A74465  30.683  29.129   7.050
 9198POPC   C4A74466  30.682  29.153   7.350
 9198POPC   C1B74467  30.836  28.889   6.450
 9198POPC   C2B74468  30.830  28.908   6.750
 9198POPC   C3B74469  30.800  28.921   7.050
 9198POPC   C4B74470  30.808  28.965   7.350
 9199POPC   NC374471   3.560  34.608   5.550
 9199POPC   PO474472   3.585  34.600   5.850
 9199POPC   GL174473   3.579  34.576   6.150
 9199POPC   GL274474   3.627  34.634   6.150
 9199POPC   C1A74475   3.546  34.559   6.450
 9199POPC   D2A74476   3.498  34.599   6.750
 9199POPC   C3A74477   3.542  34.577   7.050
 9199POPC   C4A74478   3.505  34.616   7.350
 9199POPC   C1B74479   3.824  34.598   6.450
 9199POPC   C2B74480   3.828  34.644   6.750
 9199POPC   C3B74481   3.760  34.564   7.050
 9199POPC   C4B74482   3.786  34.571   7.350
 9200POPC   NC374483  12.809  30.709   5.550
 9200POPC   PO474484  12.887  30.720   5.850
 9200POPC   GL174485  12.833  30.741   6.150
 9200POPC   GL274486  12.907  30.631   6.150
 9200POPC   C1A74487  12.805  30.671   6.450
 9200POPC   D2A74488  12.892  30.745   6.750
 9200POPC   C3A74489  12.866  30.673   7.050
 9200POPC   C4A74490  12.813  30.695   7.350
 9200POPC   C1B74491  12.935  30.437   6.450
 9200POPC   C2B74492  12.960  30.424   6.750
 9200POPC   C3B74493  12.973  30.483   7.050
 9200POPC   C4B74494  12.993  30.495   7.350
 9201POPC   NC374495  29.157  36.950   5.550
 9201POPC   PO474496  29.184  36.919   5.850
 9201POPC   GL174497  29.111  36.938   6.150
 9201POPC   GL274498  29.252  36.992   6.150
 9201POPC   C1A74499  29.190  36.882   6.450
 9201POPC   D2A74500  29.190  36.894   6.750
 9201POPC   C3A74501  29.189  36.885   7.050
 9201POPC   C4A74502  29.170  36.895   7.350
 9201POPC   C1B74503  29.388  36.980   6.450
 9201POPC   C2B74504  29.376  36.983   6.750
 9201POPC   C3B74505  29.355  37.016   7.050
 9201POPC   C4B74506  29.337  37.000   7.350
 9202POPC   NC374507   2.725   1.212   5.550
 9202POPC   PO474508   2.794   1.204   5.850
 9202POPC   GL174509   2.738   1.164   6.150
 9202POPC   GL274510   2.854   1.172   6.150
 9202POPC   C1A74511   2.718   1.172   6.450
 9202POPC   D2A74512   2.741   1.264   6.750
 9202POPC   C3A74513   2.763   1.186   7.050
 9202POPC   C4A74514   2.751   1.241   7.350
 9202POPC   C1B74515   2.963   1.118   6.450
 9202POPC   C2B74516   3.005   1.050   6.750
 9202POPC   C3B74517   2.979   1.042   7.050
 9202POPC   C4B74518   2.973   1.098   7.350
 9203POPC   NC374519   1.185  22.889   5.550
 9203POPC   PO474520   1.191  22.904   5.850
 9203POPC   GL174521   1.164  22.915   6.150
 9203POPC   GL274522   1.099  23.063   6.150
 9203POPC   C1A74523   1.187  22.974   6.450
 9203POPC   D2A74524   1.251  22.917   6.750
 9203POPC   C3A74525   1.172  22.942   7.050
 9203POPC   C4A74526   1.183  22.960   7.350
 9203POPC   C1B74527   1.058  23.079   6.450
 9203POPC   C2B74528   1.078  23.126   6.750
 9203POPC   C3B74529   1.002  23.110   7.050
 9203POPC   C4B74530   1.033  23.138   7.350
 9204POPC   NC374531  28.330  40.816   5.550
 9204POPC   PO474532  28.376  40.760   5.850
 9204POPC   GL174533  28.347  40.830   6.150
 9204POPC   GL274534  28.352  40.648   6.150
 9204POPC   C1A74535  28.378  40.746   6.450
 9204POPC   D2A74536  28.419  40.745   6.750
 9204POPC   C3A74537  28.397  40.831   7.050
 9204POPC   C4A74538  28.326  40.735   7.350
 9204POPC   C1B74539  28.394  40.549   6.450
 9204POPC   C2B74540  28.438  40.496   6.750
 9204POPC   C3B74541  28.391  40.544   7.050
 9204POPC   C4B74542  28.358  40.548   7.350
 9205POPC   NC374543  29.123   1.187   5.550
 9205POPC   PO474544  29.154   1.247   5.850
 9205POPC   GL174545  29.095   1.174   6.150
 9205POPC   GL274546  29.001   1.253   6.150
 9205POPC   C1A74547  29.151   1.191   6.450
 9205POPC   D2A74548  29.191   1.250   6.750
 9205POPC   C3A74549  29.119   1.212   7.050
 9205POPC   C4A74550  29.100   1.215   7.350
 9205POPC   C1B74551  28.872   1.309   6.450
 9205POPC   C2B74552  28.892   1.345   6.750
 9205POPC   C3B74553  28.942   1.346   7.050
 9205POPC   C4B74554  28.884   1.347   7.350
 9206POPC   NC374555  14.432  16.772   5.550
 9206POPC   PO474556  14.379  16.747   5.850
 9206POPC   GL174557  14.365  16.707   6.150
 9206POPC   GL274558  14.461  16.574   6.150
 9206POPC   C1A74559  14.359  16.699   6.450
 9206POPC   D2A74560  14.362  16.769   6.750
 9206POPC   C3A74561  14.442  16.688   7.050
 9206POPC   C4A74562  14.445  16.753   7.350
 9206POPC   C1B74563  14.522  16.544   6.450
 9206POPC   C2B74564  14.494  16.500   6.750
 9206POPC   C3B74565  14.545  16.516   7.050
 9206POPC   C4B74566  14.508  16.477   7.350
 9207POPC   NC374567   2.011   9.776   5.550
 9207POPC   PO474568   2.020   9.759   5.850
 9207POPC   GL174569   1.954   9.750   6.150
 9207POPC   GL274570   2.006   9.905   6.150
 9207POPC   C1A74571   1.951   9.764   6.450
 9207POPC   D2A74572   1.978   9.753   6.750
 9207POPC   C3A74573   2.008   9.785   7.050
 9207POPC   C4A74574   2.036   9.711   7.350
 9207POPC   C1B74575   1.987   9.961   6.450
 9207POPC   C2B74576   2.049  10.037   6.750
 9207POPC   C3B74577   1.999  10.036   7.050
 9207POPC   C4B74578   1.986  10.005   7.350
 9208POPC   NC374579  20.605  22.158   5.550
 9208POPC   PO474580  20.562  22.197   5.850
 9208POPC   GL174581  20.601  22.163   6.150
 9208POPC   GL274582  20.442  22.156   6.150
 9208POPC   C1A74583  20.563  22.142   6.450
 9208POPC   D2A74584  20.610  22.178   6.750
 9208POPC   C3A74585  20.649  22.176   7.050
 9208POPC   C4A74586  20.567  22.134   7.350
 9208POPC   C1B74587  20.335  22.141   6.450
 9208POPC   C2B74588  20.345  22.136   6.750
 9208POPC   C3B74589  20.318  22.217   7.050
 9208POPC   C4B74590  20.409  22.145   7.350
 9209POPC   NC374591  25.298  26.807   5.550
 9209POPC   PO474592  25.225  26.781   5.850
 9209POPC   GL174593  25.294  26.798   6.150
 9209POPC   GL274594  25.222  26.660   6.150
 9209POPC   C1A74595  25.230  26.789   6.450
 9209POPC   D2A74596  25.286  26.840   6.750
 9209POPC   C3A74597  25.287  26.834   7.050
 9209POPC   C4A74598  25.230  26.865   7.350
 9209POPC   C1B74599  25.138  26.634   6.450
 9209POPC   C2B74600  25.146  26.632   6.750
 9209POPC   C3B74601  25.127  26.574   7.050
 9209POPC   C4B74602  25.170  26.630   7.350
 9210POPC   NC374603  26.017  19.833   5.550
 9210POPC   PO474604  26.057  19.867   5.850
 9210POPC   GL174605  26.076  19.821   6.150
 9210POPC   GL274606  26.055  19.940   6.150
 9210POPC   C1A74607  26.027  19.835   6.450
 9210POPC   D2A74608  26.006  19.847   6.750
 9210POPC   C3A74609  26.087  19.821   7.050
 9210POPC   C4A74610  26.047  19.810   7.350
 9210POPC   C1B74611  26.138  20.077   6.450
 9210POPC   C2B74612  26.057  20.070   6.750
 9210POPC   C3B74613  26.135  20.073   7.050
 9210POPC   C4B74614  26.092  20.089   7.350
 9211POPC   NC374615  18.332  26.856   5.550
 9211POPC   PO474616  18.310  26.799   5.850
 9211POPC   GL174617  18.285  26.810   6.150
 9211POPC   GL274618  18.328  26.918   6.150
 9211POPC   C1A74619  18.329  26.807   6.450
 9211POPC   D2A74620  18.272  26.836   6.750
 9211POPC   C3A74621  18.239  26.780   7.050
 9211POPC   C4A74622  18.296  26.771   7.350
 9211POPC   C1B74623  18.352  27.070   6.450
 9211POPC   C2B74624  18.342  27.073   6.750
 9211POPC   C3B74625  18.376  27.029   7.050
 9211POPC   C4B74626  18.309  27.096   7.350
 9212POPC   NC374627  14.393  31.456   5.550
 9212POPC   PO474628  14.400  31.475   5.850
 9212POPC   GL174629  14.393  31.453   6.150
 9212POPC   GL274630  14.559  31.541   6.150
 9212POPC   C1A74631  14.449  31.461   6.450
 9212POPC   D2A74632  14.453  31.436   6.750
 9212POPC   C3A74633  14.422  31.518   7.050
 9212POPC   C4A74634  14.452  31.433   7.350
 9212POPC   C1B74635  14.655  31.568   6.450
 9212POPC   C2B74636  14.685  31.574   6.750
 9212POPC   C3B74637  14.622  31.484   7.050
 9212POPC   C4B74638  14.643  31.566   7.350
 9213POPC   NC374639   5.829  42.327   5.550
 9213POPC   PO474640   5.893  42.320   5.850
 9213POPC   GL174641   5.877  42.357   6.150
 9213POPC   GL274642   5.895  42.483   6.150
 9213POPC   C1A74643   5.854  42.343   6.450
 9213POPC   D2A74644   5.831  42.302   6.750
 9213POPC   C3A74645   5.842  42.325   7.050
 9213POPC   C4A74646   5.894  42.321   7.350
 9213POPC   C1B74647   5.792  42.556   6.450
 9213POPC   C2B74648   5.836  42.569   6.750
 9213POPC   C3B74649   5.829  42.621   7.050
 9213POPC   C4B74650   5.863  42.624   7.350
 9214POPC   NC374651  10.544  36.117   5.550
 9214POPC   PO474652  10.508  36.113   5.850
 9214POPC   GL174653  10.515  36.093   6.150
 9214POPC   GL274654  10.486  35.965   6.150
 9214POPC   C1A74655  10.550  36.116   6.450
 9214POPC   D2A74656  10.503  36.120   6.750
 9214POPC   C3A74657  10.489  36.098   7.050
 9214POPC   C4A74658  10.495  36.080   7.350
 9214POPC   C1B74659  10.519  35.850   6.450
 9214POPC   C2B74660  10.483  35.910   6.750
 9214POPC   C3B74661  10.480  35.906   7.050
 9214POPC   C4B74662  10.459  35.857   7.350
 9215POPC   NC374663   7.408   3.566   5.550
 9215POPC   PO474664   7.436   3.517   5.850
 9215POPC   GL174665   7.393   3.553   6.150
 9215POPC   GL274666   7.527   3.674   6.150
 9215POPC   C1A74667   7.409   3.503   6.450
 9215POPC   D2A74668   7.412   3.522   6.750
 9215POPC   C3A74669   7.464   3.582   7.050
 9215POPC   C4A74670   7.429   3.533   7.350
 9215POPC   C1B74671   7.604   3.770   6.450
 9215POPC   C2B74672   7.538   3.697   6.750
 9215POPC   C3B74673   7.534   3.717   7.050
 9215POPC   C4B74674   7.580   3.729   7.350
 9216POPC   NC374675  33.791  10.572   5.550
 9216POPC   PO474676  33.830  10.494   5.850
 9216POPC   GL174677  33.776  10.486   6.150
 9216POPC   GL274678  33.828  10.440   6.150
 9216POPC   C1A74679  33.829  10.543   6.450
 9216POPC   D2A74680  33.839  10.558   6.750
 9216POPC   C3A74681  33.787  10.561   7.050
 9216POPC   C4A74682  33.821  10.482   7.350
 9216POPC   C1B74683  33.780  10.305   6.450
 9216POPC   C2B74684  33.808  10.301   6.750
 9216POPC   C3B74685  33.812  10.270   7.050
 9216POPC   C4B74686  33.763  10.319   7.350
 9217POPC   NC374687  29.918   8.960   5.550
 9217POPC   PO474688  29.960   9.007   5.850
 9217POPC   GL174689  29.954   8.952   6.150
 9217POPC   GL274690  29.823   8.965   6.150
 9217POPC   C1A74691  29.904   8.948   6.450
 9217POPC   D2A74692  29.894   8.946   6.750
 9217POPC   C3A74693  29.965   8.988   7.050
 9217POPC   C4A74694  29.907   9.008   7.350
 9217POPC   C1B74695  29.659   8.893   6.450
 9217POPC   C2B74696  29.676   8.958   6.750
 9217POPC   C3B74697  29.714   8.916   7.050
 9217POPC   C4B74698  29.671   8.866   7.350
 9218POPC   NC374699  21.342  43.876   5.550
 9218POPC   PO474700  21.337  43.887   5.850
 9218POPC   GL174701  21.400  43.844   6.150
 9218POPC   GL274702  21.417  43.772   6.150
 9218POPC   C1A74703  21.345  43.922   6.450
 9218POPC   D2A74704  21.339  43.915   6.750
 9218POPC   C3A74705  21.362  43.909   7.050
 9218POPC   C4A74706  21.418  43.932   7.350
 9218POPC   C1B74707  21.368  43.594   6.450
 9218POPC   C2B74708  21.427  43.627   6.750
 9218POPC   C3B74709  21.367  43.595   7.050
 9218POPC   C4B74710  21.350  43.645   7.350
 9219POPC   NC374711  36.169  16.681   5.550
 9219POPC   PO474712  36.084  16.696   5.850
 9219POPC   GL174713  36.143  16.687   6.150
 9219POPC   GL274714  36.135  16.623   6.150
 9219POPC   C1A74715  36.101  16.727   6.450
 9219POPC   D2A74716  36.149  16.698   6.750
 9219POPC   C3A74717  36.134  16.705   7.050
 9219POPC   C4A74718  36.172  16.718   7.350
 9219POPC   C1B74719  36.100  16.480   6.450
 9219POPC   C2B74720  36.137  16.523   6.750
 9219POPC   C3B74721  36.090  16.463   7.050
 9219POPC   C4B74722  36.125  16.484   7.350
 9220POPC   NC374723  36.157  27.572   5.550
 9220POPC   PO474724  36.089  27.582   5.850
 9220POPC   GL174725  36.107  27.592   6.150
 9220POPC   GL274726  36.027  27.637   6.150
 9220POPC   C1A74727  36.174  27.579   6.450
 9220POPC   D2A74728  36.174  27.589   6.750
 9220POPC   C3A74729  36.091  27.570   7.050
 9220POPC   C4A74730  36.097  27.601   7.350
 9220POPC   C1B74731  35.907  27.764   6.450
 9220POPC   C2B74732  35.961  27.779   6.750
 9220POPC   C3B74733  35.949  27.791   7.050
 9220POPC   C4B74734  35.903  27.813   7.350
 9221POPC   NC374735  13.657  27.563   5.550
 9221POPC   PO474736  13.612  27.618   5.850
 9221POPC   GL174737  13.601  27.579   6.150
 9221POPC   GL274738  13.747  27.593   6.150
 9221POPC   C1A74739  13.591  27.594   6.450
 9221POPC   D2A74740  13.630  27.611   6.750
 9221POPC   C3A74741  13.653  27.600   7.050
 9221POPC   C4A74742  13.665  27.614   7.350
 9221POPC   C1B74743  13.825  27.515   6.450
 9221POPC   C2B74744  13.889  27.498   6.750
 9221POPC   C3B74745  13.892  27.536   7.050
 9221POPC   C4B74746  13.892  27.549   7.350
 9222POPC   NC374747  24.524  40.829   5.550
 9222POPC   PO474748  24.517  40.821   5.850
 9222POPC   GL174749  24.512  40.824   6.150
 9222POPC   GL274750  24.546  40.898   6.150
 9222POPC   C1A74751  24.451  40.769   6.450
 9222POPC   D2A74752  24.505  40.767   6.750
 9222POPC   C3A74753  24.445  40.787   7.050
 9222POPC   C4A74754  24.504  40.807   7.350
 9222POPC   C1B74755  24.597  41.004   6.450
 9222POPC   C2B74756  24.589  41.018   6.750
 9222POPC   C3B74757  24.559  40.983   7.050
 9222POPC   C4B74758  24.572  41.064   7.350
 9223POPC   NC374759  20.643  36.868   5.550
 9223POPC   PO474760  20.566  36.942   5.850
 9223POPC   GL174761  20.593  36.912   6.150
 9223POPC   GL274762  20.527  36.884   6.150
 9223POPC   C1A74763  20.640  36.908   6.450
 9223POPC   D2A74764  20.611  36.878   6.750
 9223POPC   C3A74765  20.656  36.934   7.050
 9223POPC   C4A74766  20.607  36.943   7.350
 9223POPC   C1B74767  20.398  36.746   6.450
 9223POPC   C2B74768  20.407  36.752   6.750
 9223POPC   C3B74769  20.387  36.720   7.050
 9223POPC   C4B74770  20.407  36.780   7.350
 9224POPC   NC374771   2.769  29.940   5.550
 9224POPC   PO474772   2.810  29.877   5.850
 9224POPC   GL174773   2.761  29.929   6.150
 9224POPC   GL274774   2.733  30.015   6.150
 9224POPC   C1A74775   2.801  29.927   6.450
 9224POPC   D2A74776   2.721  29.895   6.750
 9224POPC   C3A74777   2.797  29.943   7.050
 9224POPC   C4A74778   2.738  29.912   7.350
 9224POPC   C1B74779   2.648  30.090   6.450
 9224POPC   C2B74780   2.615  30.126   6.750
 9224POPC   C3B74781   2.678  30.163   7.050
 9224POPC   C4B74782   2.682  30.128   7.350
 9225POPC   NC374783  39.240  40.051   5.550
 9225POPC   PO474784  39.273  39.988   5.850
 9225POPC   GL174785  39.203  39.992   6.150
 9225POPC   GL274786  39.207  40.171   6.150
 9225POPC   C1A74787  39.279  40.044   6.450
 9225POPC   D2A74788  39.237  40.011   6.750
 9225POPC   C3A74789  39.267  39.986   7.050
 9225POPC   C4A74790  39.246  39.991   7.350
 9225POPC   C1B74791  39.263  40.274   6.450
 9225POPC   C2B74792  39.241  40.235   6.750
 9225POPC   C3B74793  39.295  40.223   7.050
 9225POPC   C4B74794  39.289  40.250   7.350
 9226POPC   NC374795  36.883  41.564   5.550
 9226POPC   PO474796  36.944  41.589   5.850
 9226POPC   GL174797  36.862  41.600   6.150
 9226POPC   GL274798  36.818  41.462   6.150
 9226POPC   C1A74799  36.856  41.544   6.450
 9226POPC   D2A74800  36.863  41.565   6.750
 9226POPC   C3A74801  36.888  41.529   7.050
 9226POPC   C4A74802  36.927  41.581   7.350
 9226POPC   C1B74803  36.658  41.418   6.450
 9226POPC   C2B74804  36.693  41.465   6.750
 9226POPC   C3B74805  36.718  41.456   7.050
 9226POPC   C4B74806  36.639  41.424   7.350
 9227POPC   NC374807  43.860  22.161   5.550
 9227POPC   PO474808  43.874  22.207   5.850
 9227POPC   GL174809  43.841  22.123   6.150
 9227POPC   GL274810  43.946  22.304   6.150
 9227POPC   C1A74811  43.913  22.203   6.450
 9227POPC   D2A74812  43.843  22.178   6.750
 9227POPC   C3A74813  43.882  22.176   7.050
 9227POPC   C4A74814  43.860  22.197   7.350
 9227POPC   C1B74815  43.912  22.384   6.450
 9227POPC   C2B74816  43.927  22.358   6.750
 9227POPC   C3B74817  43.988  22.428   7.050
 9227POPC   C4B74818  43.916  22.389   7.350
 9228POPC   NC374819  12.047   2.777   5.550
 9228POPC   PO474820  12.082   2.718   5.850
 9228POPC   GL174821  12.037   2.716   6.150
 9228POPC   GL274822  12.111   2.615   6.150
 9228POPC   C1A74823  12.086   2.793   6.450
 9228POPC   D2A74824  12.094   2.736   6.750
 9228POPC   C3A74825  12.045   2.722   7.050
 9228POPC   C4A74826  12.028   2.785   7.350
 9228POPC   C1B74827  12.149   2.503   6.450
 9228POPC   C2B74828  12.208   2.505   6.750
 9228POPC   C3B74829  12.200   2.565   7.050
 9228POPC   C4B74830  12.209   2.496   7.350
 9229POPC   NC374831  30.657  10.521   5.550
 9229POPC   PO474832  30.714  10.548   5.850
 9229POPC   GL174833  30.681  10.555   6.150
 9229POPC   GL274834  30.748  10.687   6.150
 9229POPC   C1A74835  30.716  10.496   6.450
 9229POPC   D2A74836  30.700  10.489   6.750
 9229POPC   C3A74837  30.679  10.559   7.050
 9229POPC   C4A74838  30.745  10.556   7.350
 9229POPC   C1B74839  30.671  10.800   6.450
 9229POPC   C2B74840  30.737  10.783   6.750
 9229POPC   C3B74841  30.738  10.786   7.050
 9229POPC   C4B74842  30.765  10.787   7.350
 9230POPC   NC374843  27.579   0.469   5.550
 9230POPC   PO474844  27.638   0.399   5.850
 9230POPC   GL174845  27.582   0.424   6.150
 9230POPC   GL274846  27.747   0.511   6.150
 9230POPC   C1A74847  27.597   0.452   6.450
 9230POPC   D2A74848  27.573   0.445   6.750
 9230POPC   C3A74849  27.570   0.476   7.050
 9230POPC   C4A74850  27.602   0.483   7.350
 9230POPC   C1B74851  27.820   0.535   6.450
 9230POPC   C2B74852  27.864   0.462   6.750
 9230POPC   C3B74853  27.812   0.481   7.050
 9230POPC   C4B74854  27.804   0.510   7.350
 9231POPC   NC374855   9.788  25.253   5.550
 9231POPC   PO474856   9.747  25.313   5.850
 9231POPC   GL174857   9.743  25.228   6.150
 9231POPC   GL274858   9.777  25.362   6.150
 9231POPC   C1A74859   9.755  25.255   6.450
 9231POPC   D2A74860   9.737  25.300   6.750
 9231POPC   C3A74861   9.727  25.267   7.050
 9231POPC   C4A74862   9.754  25.268   7.350
 9231POPC   C1B74863   9.809  25.484   6.450
 9231POPC   C2B74864   9.760  25.495   6.750
 9231POPC   C3B74865   9.738  25.557   7.050
 9231POPC   C4B74866   9.816  25.528   7.350
 9232POPC   NC374867   7.422  35.381   5.550
 9232POPC   PO474868   7.407  35.391   5.850
 9232POPC   GL174869   7.468  35.359   6.150
 9232POPC   GL274870   7.295  35.479   6.150
 9232POPC   C1A74871   7.391  35.378   6.450
 9232POPC   D2A74872   7.429  35.347   6.750
 9232POPC   C3A74873   7.394  35.350   7.050
 9232POPC   C4A74874   7.434  35.345   7.350
 9232POPC   C1B74875   7.260  35.570   6.450
 9232POPC   C2B74876   7.229  35.552   6.750
 9232POPC   C3B74877   7.231  35.556   7.050
 9232POPC   C4B74878   7.306  35.542   7.350
 9233POPC   NC374879  33.799  22.949   5.550
 9233POPC   PO474880  33.827  22.897   5.850
 9233POPC   GL174881  33.755  22.945   6.150
 9233POPC   GL274882  33.861  23.078   6.150
 9233POPC   C1A74883  33.803  22.898   6.450
 9233POPC   D2A74884  33.830  22.969   6.750
 9233POPC   C3A74885  33.800  22.926   7.050
 9233POPC   C4A74886  33.790  22.897   7.350
 9233POPC   C1B74887  33.862  23.153   6.450
 9233POPC   C2B74888  33.909  23.131   6.750
 9233POPC   C3B74889  33.906  23.169   7.050
 9233POPC   C4B74890  33.913  23.213   7.350
 9234POPC   NC374891  16.695  10.530   5.550
 9234POPC   PO474892  16.737  10.486   5.850
 9234POPC   GL174893  16.746  10.504   6.150
 9234POPC   GL274894  16.653  10.472   6.150
 9234POPC   C1A74895  16.773  10.549   6.450
 9234POPC   D2A74896  16.775  10.556   6.750
 9234POPC   C3A74897  16.756  10.566   7.050
 9234POPC   C4A74898  16.711  10.512   7.350
 9234POPC   C1B74899  16.605  10.363   6.450
 9234POPC   C2B74900  16.600  10.363   6.750
 9234POPC   C3B74901  16.530  10.370   7.050
 9234POPC   C4B74902  16.599  10.341   7.350
 9235POPC   NC374903  28.370  43.131   5.550
 9235POPC   PO474904  28.357  43.076   5.850
 9235POPC   GL174905  28.334  43.137   6.150
 9235POPC   GL274906  28.366  43.236   6.150
 9235POPC   C1A74907  28.389  43.146   6.450
 9235POPC   D2A74908  28.399  43.068   6.750
 9235POPC   C3A74909  28.393  43.118   7.050
 9235POPC   C4A74910  28.336  43.073   7.350
 9235POPC   C1B74911  28.357  43.330   6.450
 9235POPC   C2B74912  28.351  43.323   6.750
 9235POPC   C3B74913  28.272  43.358   7.050
 9235POPC   C4B74914  28.362  43.355   7.350
 9236POPC   NC374915  33.781  34.605   5.550
 9236POPC   PO474916  33.802  34.581   5.850
 9236POPC   GL174917  33.827  34.585   6.150
 9236POPC   GL274918  33.939  34.641   6.150
 9236POPC   C1A74919  33.762  34.552   6.450
 9236POPC   D2A74920  33.806  34.623   6.750
 9236POPC   C3A74921  33.801  34.603   7.050
 9236POPC   C4A74922  33.830  34.582   7.350
 9236POPC   C1B74923  33.946  34.719   6.450
 9236POPC   C2B74924  34.013  34.762   6.750
 9236POPC   C3B74925  33.996  34.781   7.050
 9236POPC   C4B74926  33.987  34.752   7.350
 9237POPC   NC374927  39.251  44.696   5.550
 9237POPC   PO474928  39.260  44.631   5.850
 9237POPC   GL174929  39.244  44.688   6.150
 9237POPC   GL274930  39.398  44.587   6.150
 9237POPC   C1A74931  39.248  44.675   6.450
 9237POPC   D2A74932  39.233  44.679   6.750
 9237POPC   C3A74933  39.212  44.629   7.050
 9237POPC   C4A74934  39.279  44.622   7.350
 9237POPC   C1B74935  39.460  44.577   6.450
 9237POPC   C2B74936  39.510  44.604   6.750
 9237POPC   C3B74937  39.471  44.622   7.050
 9237POPC   C4B74938  39.466  44.618   7.350
 9238POPC   NC374939  19.866  43.858   5.550
 9238POPC   PO474940  19.836  43.871   5.850
 9238POPC   GL174941  19.839  43.874   6.150
 9238POPC   GL274942  19.869  43.964   6.150
 9238POPC   C1A74943  19.825  43.909   6.450
 9238POPC   D2A74944  19.809  43.859   6.750
 9238POPC   C3A74945  19.877  43.935   7.050
 9238POPC   C4A74946  19.831  43.918   7.350
 9238POPC   C1B74947  19.810  44.096   6.450
 9238POPC   C2B74948  19.852  44.113   6.750
 9238POPC   C3B74949  19.876  44.185   7.050
 9238POPC   C4B74950  19.858  44.106   7.350
 9239POPC   NC374951  11.267  37.705   5.550
 9239POPC   PO474952  11.286  37.687   5.850
 9239POPC   GL174953  11.313  37.639   6.150
 9239POPC   GL274954  11.206  37.785   6.150
 9239POPC   C1A74955  11.286  37.639   6.450
 9239POPC   D2A74956  11.274  37.660   6.750
 9239POPC   C3A74957  11.270  37.646   7.050
 9239POPC   C4A74958  11.339  37.699   7.350
 9239POPC   C1B74959  11.106  37.879   6.450
 9239POPC   C2B74960  11.152  37.889   6.750
 9239POPC   C3B74961  11.126  37.833   7.050
 9239POPC   C4B74962  11.103  37.898   7.350
 9240POPC   NC374963  10.572  28.399   5.550
 9240POPC   PO474964  10.535  28.388   5.850
 9240POPC   GL174965  10.564  28.398   6.150
 9240POPC   GL274966  10.461  28.494   6.150
 9240POPC   C1A74967  10.534  28.388   6.450
 9240POPC   D2A74968  10.537  28.401   6.750
 9240POPC   C3A74969  10.502  28.391   7.050
 9240POPC   C4A74970  10.484  28.401   7.350
 9240POPC   C1B74971  10.404  28.604   6.450
 9240POPC   C2B74972  10.449  28.623   6.750
 9240POPC   C3B74973  10.481  28.619   7.050
 9240POPC   C4B74974  10.451  28.625   7.350
 9241POPC   NC374975  27.616  16.757   5.550
 9241POPC   PO474976  27.626  16.748   5.850
 9241POPC   GL174977  27.581  16.721   6.150
 9241POPC   GL274978  27.601  16.816   6.150
 9241POPC   C1A74979  27.639  16.759   6.450
 9241POPC   D2A74980  27.631  16.712   6.750
 9241POPC   C3A74981  27.567  16.719   7.050
 9241POPC   C4A74982  27.619  16.754   7.350
 9241POPC   C1B74983  27.533  16.976   6.450
 9241POPC   C2B74984  27.561  16.960   6.750
 9241POPC   C3B74985  27.513  16.968   7.050
 9241POPC   C4B74986  27.530  16.964   7.350
 9242POPC   NC374987  24.483   6.606   5.550
 9242POPC   PO474988  24.490   6.611   5.850
 9242POPC   GL174989  24.540   6.639   6.150
 9242POPC   GL274990  24.422   6.745   6.150
 9242POPC   C1A74991  24.526   6.660   6.450
 9242POPC   D2A74992  24.517   6.608   6.750
 9242POPC   C3A74993  24.522   6.661   7.050
 9242POPC   C4A74994  24.454   6.655   7.350
 9242POPC   C1B74995  24.387   6.799   6.450
 9242POPC   C2B74996  24.323   6.797   6.750
 9242POPC   C3B74997  24.297   6.876   7.050
 9242POPC   C4B74998  24.320   6.882   7.350
 9243POPC   NC374999  24.484  32.198   5.550
 9243POPC   PO475000  24.470  32.224   5.850
 9243POPC   GL175001  24.447  32.202   6.150
 9243POPC   GL275002  24.608  32.330   6.150
 9243POPC   C1A75003  24.529  32.236   6.450
 9243POPC   D2A75004  24.443  32.284   6.750
 9243POPC   C3A75005  24.450  32.293   7.050
 9243POPC   C4A75006  24.445  32.206   7.350
 9243POPC   C1B75007  24.696  32.428   6.450
 9243POPC   C2B75008  24.708  32.393   6.750
 9243POPC   C3B75009  24.691  32.352   7.050
 9243POPC   C4B75010  24.737  32.423   7.350
 9244POPC   NC375011  29.951  28.397   5.550
 9244POPC   PO475012  29.950  28.356   5.850
 9244POPC   GL175013  29.958  28.372   6.150
 9244POPC   GL275014  29.857  28.450   6.150
 9244POPC   C1A75015  29.913  28.377   6.450
 9244POPC   D2A75016  29.879  28.324   6.750
 9244POPC   C3A75017  29.931  28.388   7.050
 9244POPC   C4A75018  29.899  28.373   7.350
 9244POPC   C1B75019  29.747  28.579   6.450
 9244POPC   C2B75020  29.805  28.598   6.750
 9244POPC   C3B75021  29.781  28.614   7.050
 9244POPC   C4B75022  29.769  28.596   7.350
 9245POPC   NC375023  10.553  19.064   5.550
 9245POPC   PO475024  10.571  19.098   5.850
 9245POPC   GL175025  10.514  19.092   6.150
 9245POPC   GL275026  10.377  19.067   6.150
 9245POPC   C1A75027  10.500  19.084   6.450
 9245POPC   D2A75028  10.490  19.025   6.750
 9245POPC   C3A75029  10.525  19.080   7.050
 9245POPC   C4A75030  10.529  19.049   7.350
 9245POPC   C1B75031  10.236  19.086   6.450
 9245POPC   C2B75032  10.259  19.116   6.750
 9245POPC   C3B75033  10.267  19.091   7.050
 9245POPC   C4B75034  10.249  19.080   7.350
 9246POPC   NC375035  35.348  23.716   5.550
 9246POPC   PO475036  35.306  23.717   5.850
 9246POPC   GL175037  35.382  23.697   6.150
 9246POPC   GL275038  35.228  23.799   6.150
 9246POPC   C1A75039  35.319  23.728   6.450
 9246POPC   D2A75040  35.316  23.713   6.750
 9246POPC   C3A75041  35.371  23.689   7.050
 9246POPC   C4A75042  35.326  23.714   7.350
 9246POPC   C1B75043  35.238  23.908   6.450
 9246POPC   C2B75044  35.218  23.946   6.750
 9246POPC   C3B75045  35.211  23.912   7.050
 9246POPC   C4B75046  35.147  23.883   7.350
 9247POPC   NC375047  34.528  16.726   5.550
 9247POPC   PO475048  34.602  16.687   5.850
 9247POPC   GL175049  34.532  16.690   6.150
 9247POPC   GL275050  34.433  16.729   6.150
 9247POPC   C1A75051  34.527  16.706   6.450
 9247POPC   D2A75052  34.569  16.777   6.750
 9247POPC   C3A75053  34.547  16.766   7.050
 9247POPC   C4A75054  34.578  16.773   7.350
 9247POPC   C1B75055  34.337  16.699   6.450
 9247POPC   C2B75056  34.314  16.624   6.750
 9247POPC   C3B75057  34.296  16.649   7.050
 9247POPC   C4B75058  34.379  16.660   7.350
 9248POPC   NC375059  43.122   8.995   5.550
 9248POPC   PO475060  43.143   8.941   5.850
 9248POPC   GL175061  43.108   8.976   6.150
 9248POPC   GL275062  43.017   8.988   6.150
 9248POPC   C1A75063  43.085   8.929   6.450
 9248POPC   D2A75064  43.090   8.989   6.750
 9248POPC   C3A75065  43.072   8.990   7.050
 9248POPC   C4A75066  43.064   9.008   7.350
 9248POPC   C1B75067  42.841   8.954   6.450
 9248POPC   C2B75068  42.826   9.026   6.750
 9248POPC   C3B75069  42.827   8.966   7.050
 9248POPC   C4B75070  42.856   9.019   7.350
 9249POPC   NC375071  27.617   4.287   5.550
 9249POPC   PO475072  27.610   4.290   5.850
 9249POPC   GL175073  27.592   4.272   6.150
 9249POPC   GL275074  27.652   4.419   6.150
 9249POPC   C1A75075  27.635   4.293   6.450
 9249POPC   D2A75076  27.611   4.360   6.750
 9249POPC   C3A75077  27.633   4.312   7.050
 9249POPC   C4A75078  27.628   4.321   7.350
 9249POPC   C1B75079  27.728   4.573   6.450
 9249POPC   C2B75080  27.727   4.574   6.750
 9249POPC   C3B75081  27.702   4.559   7.050
 9249POPC   C4B75082  27.713   4.503   7.350
 9250POPC   NC375083  40.760  22.914   5.550
 9250POPC   PO475084  40.828  22.902   5.850
 9250POPC   GL175085  40.819  22.967   6.150
 9250POPC   GL275086  40.764  23.040   6.150
 9250POPC   C1A75087  40.744  22.940   6.450
 9250POPC   D2A75088  40.825  22.904   6.750
 9250POPC   C3A75089  40.782  22.973   7.050
 9250POPC   C4A75090  40.754  22.968   7.350
 9250POPC   C1B75091  40.812  23.217   6.450
 9250POPC   C2B75092  40.844  23.236   6.750
 9250POPC   C3B75093  40.795  23.215   7.050
 9250POPC   C4B75094  40.797  23.147   7.350
 9251POPC   NC375095  29.934  22.967   5.550
 9251POPC   PO475096  29.952  22.985   5.850
 9251POPC   GL175097  29.957  22.970   6.150
 9251POPC   GL275098  29.836  22.970   6.150
 9251POPC   C1A75099  29.960  22.906   6.450
 9251POPC   D2A75100  29.958  22.892   6.750
 9251POPC   C3A75101  29.897  22.938   7.050
 9251POPC   C4A75102  29.900  22.912   7.350
 9251POPC   C1B75103  29.750  23.037   6.450
 9251POPC   C2B75104  29.694  23.079   6.750
 9251POPC   C3B75105  29.735  23.089   7.050
 9251POPC   C4B75106  29.688  23.090   7.350
 9252POPC   NC375107  17.541   2.763   5.550
 9252POPC   PO475108  17.472   2.782   5.850
 9252POPC   GL175109  17.512   2.814   6.150
 9252POPC   GL275110  17.495   2.904   6.150
 9252POPC   C1A75111  17.482   2.793   6.450
 9252POPC   D2A75112  17.546   2.728   6.750
 9252POPC   C3A75113  17.500   2.768   7.050
 9252POPC   C4A75114  17.509   2.784   7.350
 9252POPC   C1B75115  17.549   3.045   6.450
 9252POPC   C2B75116  17.538   3.052   6.750
 9252POPC   C3B75117  17.511   3.018   7.050
 9252POPC   C4B75118  17.528   3.064   7.350
 9253POPC   NC375119  38.413  43.847   5.550
 9253POPC   PO475120  38.502  43.931   5.850
 9253POPC   GL175121  38.407  43.920   6.150
 9253POPC   GL275122  38.565  43.834   6.150
 9253POPC   C1A75123  38.448  43.873   6.450
 9253POPC   D2A75124  38.493  43.881   6.750
 9253POPC   C3A75125  38.475  43.920   7.050
 9253POPC   C4A75126  38.483  43.936   7.350
 9253POPC   C1B75127  38.612  43.779   6.450
 9253POPC   C2B75128  38.608  43.732   6.750
 9253POPC   C3B75129  38.625  43.694   7.050
 9253POPC   C4B75130  38.641  43.751   7.350
 9254POPC   NC375131   5.048  17.498   5.550
 9254POPC   PO475132   5.048  17.470   5.850
 9254POPC   GL175133   5.056  17.554   6.150
 9254POPC   GL275134   5.146  17.652   6.150
 9254POPC   C1A75135   5.068  17.539   6.450
 9254POPC   D2A75136   5.048  17.551   6.750
 9254POPC   C3A75137   5.051  17.540   7.050
 9254POPC   C4A75138   5.058  17.461   7.350
 9254POPC   C1B75139   5.175  17.792   6.450
 9254POPC   C2B75140   5.096  17.720   6.750
 9254POPC   C3B75141   5.139  17.744   7.050
 9254POPC   C4B75142   5.112  17.705   7.350
 9255POPC   NC375143   1.221  12.863   5.550
 9255POPC   PO475144   1.208  12.805   5.850
 9255POPC   GL175145   1.199  12.868   6.150
 9255POPC   GL275146   1.139  12.875   6.150
 9255POPC   C1A75147   1.195  12.839   6.450
 9255POPC   D2A75148   1.168  12.852   6.750
 9255POPC   C3A75149   1.232  12.854   7.050
 9255POPC   C4A75150   1.206  12.826   7.350
 9255POPC   C1B75151   1.024  13.031   6.450
 9255POPC   C2B75152   0.966  12.956   6.750
 9255POPC   C3B75153   0.969  12.957   7.050
 9255POPC   C4B75154   0.960  12.940   7.350
 9256POPC   NC375155   8.208  44.673   5.550
 9256POPC   PO475156   8.232  44.693   5.850
 9256POPC   GL175157   8.237  44.680   6.150
 9256POPC   GL275158   8.345  44.706   6.150
 9256POPC   C1A75159   8.188  44.638   6.450
 9256POPC   D2A75160   8.220  44.622   6.750
 9256POPC   C3A75161   8.197  44.639   7.050
 9256POPC   C4A75162   8.183  44.658   7.350
 9256POPC   C1B75163   8.434  44.822   6.450
 9256POPC   C2B75164   8.372  44.824   6.750
 9256POPC   C3B75165   8.415  44.820   7.050
 9256POPC   C4B75166   8.372  44.769   7.350
 9257POPC   NC375167   1.253  22.180   5.550
 9257POPC   PO475168   1.242  22.114   5.850
 9257POPC   GL175169   1.258  22.206   6.150
 9257POPC   GL275170   1.136  22.230   6.150
 9257POPC   C1A75171   1.168  22.142   6.450
 9257POPC   D2A75172   1.219  22.186   6.750
 9257POPC   C3A75173   1.237  22.190   7.050
 9257POPC   C4A75174   1.221  22.169   7.350
 9257POPC   C1B75175   0.989  22.338   6.450
 9257POPC   C2B75176   1.054  22.273   6.750
 9257POPC   C3B75177   1.062  22.350   7.050
 9257POPC   C4B75178   1.010  22.273   7.350
 9258POPC   NC375179   3.572  11.306   5.550
 9258POPC   PO475180   3.534  11.336   5.850
 9258POPC   GL175181   3.555  11.348   6.150
 9258POPC   GL275182   3.608  11.414   6.150
 9258POPC   C1A75183   3.544  11.278   6.450
 9258POPC   D2A75184   3.521  11.252   6.750
 9258POPC   C3A75185   3.498  11.343   7.050
 9258POPC   C4A75186   3.561  11.283   7.350
 9258POPC   C1B75187   3.747  11.432   6.450
 9258POPC   C2B75188   3.717  11.491   6.750
 9258POPC   C3B75189   3.681  11.521   7.050
 9258POPC   C4B75190   3.686  11.456   7.350
 9259POPC   NC375191  17.540  40.798   5.550
 9259POPC   PO475192  17.535  40.809   5.850
 9259POPC   GL175193  17.488  40.740   6.150
 9259POPC   GL275194  17.510  40.855   6.150
 9259POPC   C1A75195  17.546  40.807   6.450
 9259POPC   D2A75196  17.480  40.775   6.750
 9259POPC   C3A75197  17.510  40.773   7.050
 9259POPC   C4A75198  17.507  40.736   7.350
 9259POPC   C1B75199  17.584  41.064   6.450
 9259POPC   C2B75200  17.560  40.978   6.750
 9259POPC   C3B75201  17.527  41.069   7.050
 9259POPC   C4B75202  17.571  41.039   7.350
 9260POPC   NC375203  19.837   2.025   5.550
 9260POPC   PO475204  19.869   1.962   5.850
 9260POPC   GL175205  19.835   1.961   6.150
 9260POPC   GL275206  19.794   2.075   6.150
 9260POPC   C1A75207  19.805   1.992   6.450
 9260POPC   D2A75208  19.809   2.002   6.750
 9260POPC   C3A75209  19.788   1.975   7.050
 9260POPC   C4A75210  19.798   2.001   7.350
 9260POPC   C1B75211  19.703   2.205   6.450
 9260POPC   C2B75212  19.714   2.209   6.750
 9260POPC   C3B75213  19.704   2.266   7.050
 9260POPC   C4B75214  19.781   2.179   7.350
 9261POPC   NC375215  12.827  29.140   5.550
 9261POPC   PO475216  12.848  29.143   5.850
 9261POPC   GL175217  12.865  29.166   6.150
 9261POPC   GL275218  12.798  29.044   6.150
 9261POPC   C1A75219  12.884  29.150   6.450
 9261POPC   D2A75220  12.832  29.119   6.750
 9261POPC   C3A75221  12.840  29.139   7.050
 9261POPC   C4A75222  12.902  29.100   7.350
 9261POPC   C1B75223  12.770  28.901   6.450
 9261POPC   C2B75224  12.785  28.925   6.750
 9261POPC   C3B75225  12.789  28.883   7.050
 9261POPC   C4B75226  12.813  28.895   7.350
 9262POPC   NC375227  29.186   2.030   5.550
 9262POPC   PO475228  29.165   1.971   5.850
 9262POPC   GL175229  29.121   1.952   6.150
 9262POPC   GL275230  28.978   2.019   6.150
 9262POPC   C1A75231  29.185   1.953   6.450
 9262POPC   D2A75232  29.163   1.975   6.750
 9262POPC   C3A75233  29.160   1.973   7.050
 9262POPC   C4A75234  29.099   2.037   7.350
 9262POPC   C1B75235  28.894   2.038   6.450
 9262POPC   C2B75236  28.907   1.978   6.750
 9262POPC   C3B75237  28.924   2.030   7.050
 9262POPC   C4B75238  28.859   1.975   7.350
 9263POPC   NC375239  34.566  25.234   5.550
 9263POPC   PO475240  34.583  25.242   5.850
 9263POPC   GL175241  34.603  25.236   6.150
 9263POPC   GL275242  34.675  25.240   6.150
 9263POPC   C1A75243  34.602  25.245   6.450
 9263POPC   D2A75244  34.578  25.263   6.750
 9263POPC   C3A75245  34.540  25.232   7.050
 9263POPC   C4A75246  34.532  25.249   7.350
 9263POPC   C1B75247  34.790  25.276   6.450
 9263POPC   C2B75248  34.852  25.271   6.750
 9263POPC   C3B75249  34.785  25.236   7.050
 9263POPC   C4B75250  34.779  25.262   7.350
 9264POPC   NC375251  38.473  17.514   5.550
 9264POPC   PO475252  38.463  17.494   5.850
 9264POPC   GL175253  38.467  17.548   6.150
 9264POPC   GL275254  38.582  17.555   6.150
 9264POPC   C1A75255  38.448  17.548   6.450
 9264POPC   D2A75256  38.479  17.548   6.750
 9264POPC   C3A75257  38.467  17.545   7.050
 9264POPC   C4A75258  38.460  17.505   7.350
 9264POPC   C1B75259  38.680  17.615   6.450
 9264POPC   C2B75260  38.712  17.593   6.750
 9264POPC   C3B75261  38.696  17.635   7.050
 9264POPC   C4B75262  38.728  17.600   7.350
 9265POPC   NC375263  29.167  39.982   5.550
 9265POPC   PO475264  29.113  40.002   5.850
 9265POPC   GL175265  29.177  39.957   6.150
 9265POPC   GL275266  28.980  39.965   6.150
 9265POPC   C1A75267  29.158  40.051   6.450
 9265POPC   D2A75268  29.186  39.966   6.750
 9265POPC   C3A75269  29.143  39.988   7.050
 9265POPC   C4A75270  29.096  39.999   7.350
 9265POPC   C1B75271  28.931  39.883   6.450
 9265POPC   C2B75272  28.911  39.922   6.750
 9265POPC   C3B75273  28.886  39.950   7.050
 9265POPC   C4B75274  28.944  39.929   7.350
 9266POPC   NC375275  40.771  18.327   5.550
 9266POPC   PO475276  40.797  18.316   5.850
 9266POPC   GL175277  40.758  18.243   6.150
 9266POPC   GL275278  40.765  18.168   6.150
 9266POPC   C1A75279  40.810  18.303   6.450
 9266POPC   D2A75280  40.741  18.251   6.750
 9266POPC   C3A75281  40.830  18.283   7.050
 9266POPC   C4A75282  40.828  18.295   7.350
 9266POPC   C1B75283  40.842  18.077   6.450
 9266POPC   C2B75284  40.826  18.070   6.750
 9266POPC   C3B75285  40.860  18.062   7.050
 9266POPC   C4B75286  40.833  18.050   7.350
 9267POPC   NC375287  32.203  33.046   5.550
 9267POPC   PO475288  32.270  32.987   5.850
 9267POPC   GL175289  32.212  33.026   6.150
 9267POPC   GL275290  32.300  33.170   6.150
 9267POPC   C1A75291  32.219  33.011   6.450
 9267POPC   D2A75292  32.239  33.050   6.750
 9267POPC   C3A75293  32.283  32.994   7.050
 9267POPC   C4A75294  32.262  33.057   7.350
 9267POPC   C1B75295  32.377  33.255   6.450
 9267POPC   C2B75296  32.392  33.182   6.750
 9267POPC   C3B75297  32.415  33.256   7.050
 9267POPC   C4B75298  32.406  33.254   7.350
 9268POPC   NC375299  30.679  13.632   5.550
 9268POPC   PO475300  30.711  13.630   5.850
 9268POPC   GL175301  30.700  13.581   6.150
 9268POPC   GL275302  30.580  13.608   6.150
 9268POPC   C1A75303  30.710  13.663   6.450
 9268POPC   D2A75304  30.657  13.619   6.750
 9268POPC   C3A75305  30.650  13.661   7.050
 9268POPC   C4A75306  30.716  13.608   7.350
 9268POPC   C1B75307  30.500  13.567   6.450
 9268POPC   C2B75308  30.478  13.544   6.750
 9268POPC   C3B75309  30.418  13.573   7.050
 9268POPC   C4B75310  30.485  13.590   7.350
 9269POPC   NC375311  29.934  36.927   5.550
 9269POPC   PO475312  29.929  36.888   5.850
 9269POPC   GL175313  29.922  36.882   6.150
 9269POPC   GL275314  30.019  36.776   6.150
 9269POPC   C1A75315  29.966  36.953   6.450
 9269POPC   D2A75316  29.912  36.951   6.750
 9269POPC   C3A75317  29.954  36.923   7.050
 9269POPC   C4A75318  29.960  36.893   7.350
 9269POPC   C1B75319  30.058  36.684   6.450
 9269POPC   C2B75320  30.135  36.686   6.750
 9269POPC   C3B75321  30.117  36.768   7.050
 9269POPC   C4B75322  30.111  36.688   7.350
 9270POPC   NC375323  44.680  35.316   5.550
 9270POPC   PO475324  44.660  35.313   5.850
 9270POPC   GL175325  44.693  35.332   6.150
 9270POPC   GL275326  44.695  35.431   6.150
 9270POPC   C1A75327  44.709  35.329   6.450
 9270POPC   D2A75328  44.630  35.395   6.750
 9270POPC   C3A75329  44.702  35.323   7.050
 9270POPC   C4A75330  44.672  35.363   7.350
 9270POPC   C1B75331  44.617  35.591   6.450
 9270POPC   C2B75332  44.637  35.633   6.750
 9270POPC   C3B75333  44.632  35.620   7.050
 9270POPC   C4B75334  44.676  35.613   7.350
 9271POPC   NC375335  11.314  39.204   5.550
 9271POPC   PO475336  11.330  39.252   5.850
 9271POPC   GL175337  11.328  39.256   6.150
 9271POPC   GL275338  11.240  39.261   6.150
 9271POPC   C1A75339  11.337  39.280   6.450
 9271POPC   D2A75340  11.319  39.216   6.750
 9271POPC   C3A75341  11.346  39.226   7.050
 9271POPC   C4A75342  11.336  39.258   7.350
 9271POPC   C1B75343  11.114  39.421   6.450
 9271POPC   C2B75344  11.091  39.392   6.750
 9271POPC   C3B75345  11.134  39.377   7.050
 9271POPC   C4B75346  11.143  39.408   7.350
 9272POPC   NC375347  37.690  16.727   5.550
 9272POPC   PO475348  37.674  16.702   5.850
 9272POPC   GL175349  37.671  16.712   6.150
 9272POPC   GL275350  37.727  16.607   6.150
 9272POPC   C1A75351  37.685  16.781   6.450
 9272POPC   D2A75352  37.680  16.778   6.750
 9272POPC   C3A75353  37.691  16.724   7.050
 9272POPC   C4A75354  37.677  16.754   7.350
 9272POPC   C1B75355  37.864  16.566   6.450
 9272POPC   C2B75356  37.782  16.490   6.750
 9272POPC   C3B75357  37.801  16.540   7.050
 9272POPC   C4B75358  37.779  16.517   7.350
 9273POPC   NC375359  13.609  18.290   5.550
 9273POPC   PO475360  13.652  18.315   5.850
 9273POPC   GL175361  13.612  18.261   6.150
 9273POPC   GL275362  13.565  18.180   6.150
 9273POPC   C1A75363  13.668  18.312   6.450
 9273POPC   D2A75364  13.675  18.296   6.750
 9273POPC   C3A75365  13.582  18.326   7.050
 9273POPC   C4A75366  13.597  18.263   7.350
 9273POPC   C1B75367  13.477  18.093   6.450
 9273POPC   C2B75368  13.517  18.083   6.750
 9273POPC   C3B75369  13.448  18.042   7.050
 9273POPC   C4B75370  13.502  18.050   7.350
 9274POPC   NC375371  26.028  32.284   5.550
 9274POPC   PO475372  26.033  32.258   5.850
 9274POPC   GL175373  26.073  32.244   6.150
 9274POPC   GL275374  26.115  32.195   6.150
 9274POPC   C1A75375  26.077  32.271   6.450
 9274POPC   D2A75376  26.014  32.232   6.750
 9274POPC   C3A75377  26.017  32.242   7.050
 9274POPC   C4A75378  26.083  32.253   7.350
 9274POPC   C1B75379  26.287  32.084   6.450
 9274POPC   C2B75380  26.298  32.151   6.750
 9274POPC   C3B75381  26.245  32.104   7.050
 9274POPC   C4B75382  26.233  32.121   7.350
 9275POPC   NC375383  19.077   5.095   5.550
 9275POPC   PO475384  19.092   5.043   5.850
 9275POPC   GL175385  19.037   5.091   6.150
 9275POPC   GL275386  18.993   5.169   6.150
 9275POPC   C1A75387  19.028   5.053   6.450
 9275POPC   D2A75388  19.013   5.102   6.750
 9275POPC   C3A75389  19.051   5.044   7.050
 9275POPC   C4A75390  19.030   5.045   7.350
 9275POPC   C1B75391  19.042   5.371   6.450
 9275POPC   C2B75392  19.024   5.371   6.750
 9275POPC   C3B75393  18.976   5.356   7.050
 9275POPC   C4B75394  19.020   5.296   7.350
 9276POPC   NC375395  19.874  32.238   5.550
 9276POPC   PO475396  19.817  32.292   5.850
 9276POPC   GL175397  19.884  32.231   6.150
 9276POPC   GL275398  19.674  32.301   6.150
 9276POPC   C1A75399  19.825  32.248   6.450
 9276POPC   D2A75400  19.859  32.254   6.750
 9276POPC   C3A75401  19.868  32.284   7.050
 9276POPC   C4A75402  19.861  32.272   7.350
 9276POPC   C1B75403  19.549  32.315   6.450
 9276POPC   C2B75404  19.628  32.287   6.750
 9276POPC   C3B75405  19.619  32.292   7.050
 9276POPC   C4B75406  19.588  32.255   7.350
 9277POPC   NC375407   5.091  39.215   5.550
 9277POPC   PO475408   5.052  39.240   5.850
 9277POPC   GL175409   5.056  39.278   6.150
 9277POPC   GL275410   5.012  39.083   6.150
 9277POPC   C1A75411   5.046  39.256   6.450
 9277POPC   D2A75412   5.113  39.195   6.750
 9277POPC   C3A75413   5.134  39.181   7.050
 9277POPC   C4A75414   5.124  39.254   7.350
 9277POPC   C1B75415   4.911  39.068   6.450
 9277POPC   C2B75416   4.951  38.999   6.750
 9277POPC   C3B75417   4.992  39.018   7.050
 9277POPC   C4B75418   4.919  39.040   7.350
 9278POPC   NC375419  31.502  13.582   5.550
 9278POPC   PO475420  31.448  13.637   5.850
 9278POPC   GL175421  31.488  13.635   6.150
 9278POPC   GL275422  31.386  13.499   6.150
 9278POPC   C1A75423  31.483  13.639   6.450
 9278POPC   D2A75424  31.507  13.587   6.750
 9278POPC   C3A75425  31.503  13.602   7.050
 9278POPC   C4A75426  31.444  13.649   7.350
 9278POPC   C1B75427  31.287  13.477   6.450
 9278POPC   C2B75428  31.330  13.469   6.750
 9278POPC   C3B75429  31.262  13.431   7.050
 9278POPC   C4B75430  31.316  13.462   7.350
 9279POPC   NC375431  43.090  15.219   5.550
 9279POPC   PO475432  43.112  15.208   5.850
 9279POPC   GL175433  43.125  15.174   6.150
 9279POPC   GL275434  43.043  15.239   6.150
 9279POPC   C1A75435  43.153  15.157   6.450
 9279POPC   D2A75436  43.120  15.134   6.750
 9279POPC   C3A75437  43.121  15.147   7.050
 9279POPC   C4A75438  43.133  15.212   7.350
 9279POPC   C1B75439  42.856  15.305   6.450
 9279POPC   C2B75440  42.869  15.332   6.750
 9279POPC   C3B75441  42.900  15.314   7.050
 9279POPC   C4B75442  42.871  15.256   7.350
 9280POPC   NC375443  43.889   6.651   5.550
 9280POPC   PO475444  43.866   6.625   5.850
 9280POPC   GL175445  43.879   6.647   6.150
 9280POPC   GL275446  43.936   6.800   6.150
 9280POPC   C1A75447  43.927   6.672   6.450
 9280POPC   D2A75448  43.871   6.620   6.750
 9280POPC   C3A75449  43.921   6.646   7.050
 9280POPC   C4A75450  43.842   6.637   7.350
 9280POPC   C1B75451  44.013   6.867   6.450
 9280POPC   C2B75452  44.001   6.834   6.750
 9280POPC   C3B75453  43.922   6.862   7.050
 9280POPC   C4B75454  43.936   6.916   7.350
 9281POPC   NC375455  29.941  38.487   5.550
 9281POPC   PO475456  29.902  38.493   5.850
 9281POPC   GL175457  29.883  38.446   6.150
 9281POPC   GL275458  29.851  38.548   6.150
 9281POPC   C1A75459  29.882  38.448   6.450
 9281POPC   D2A75460  29.883  38.415   6.750
 9281POPC   C3A75461  29.957  38.410   7.050
 9281POPC   C4A75462  29.921  38.494   7.350
 9281POPC   C1B75463  29.716  38.589   6.450
 9281POPC   C2B75464  29.717  38.554   6.750
 9281POPC   C3B75465  29.651  38.558   7.050
 9281POPC   C4B75466  29.718  38.593   7.350
 9282POPC   NC375467  23.762  24.507   5.550
 9282POPC   PO475468  23.711  24.490   5.850
 9282POPC   GL175469  23.743  24.477   6.150
 9282POPC   GL275470  23.618  24.417   6.150
 9282POPC   C1A75471  23.739  24.462   6.450
 9282POPC   D2A75472  23.723  24.441   6.750
 9282POPC   C3A75473  23.754  24.474   7.050
 9282POPC   C4A75474  23.709  24.468   7.350
 9282POPC   C1B75475  23.476  24.433   6.450
 9282POPC   C2B75476  23.504  24.366   6.750
 9282POPC   C3B75477  23.499  24.414   7.050
 9282POPC   C4B75478  23.477  24.394   7.350
 9283POPC   NC375479  12.846  26.014   5.550
 9283POPC   PO475480  12.883  26.058   5.850
 9283POPC   GL175481  12.858  26.079   6.150
 9283POPC   GL275482  12.975  26.149   6.150
 9283POPC   C1A75483  12.828  26.079   6.450
 9283POPC   D2A75484  12.885  26.053   6.750
 9283POPC   C3A75485  12.893  26.011   7.050
 9283POPC   C4A75486  12.867  26.088   7.350
 9283POPC   C1B75487  13.084  26.229   6.450
 9283POPC   C2B75488  13.021  26.212   6.750
 9283POPC   C3B75489  13.075  26.195   7.050
 9283POPC   C4B75490  13.010  26.199   7.350
 9284POPC   NC375491   2.759   5.057   5.550
 9284POPC   PO475492   2.744   5.101   5.850
 9284POPC   GL175493   2.766   5.096   6.150
 9284POPC   GL275494   2.836   5.189   6.150
 9284POPC   C1A75495   2.749   5.086   6.450
 9284POPC   D2A75496   2.741   5.071   6.750
 9284POPC   C3A75497   2.719   5.053   7.050
 9284POPC   C4A75498   2.804   5.118   7.350
 9284POPC   C1B75499   2.858   5.262   6.450
 9284POPC   C2B75500   2.911   5.287   6.750
 9284POPC   C3B75501   2.876   5.276   7.050
 9284POPC   C4B75502   2.858   5.330   7.350
 9285POPC   NC375503   2.751  28.364   5.550
 9285POPC   PO475504   2.763  28.341   5.850
 9285POPC   GL175505   2.723  28.374   6.150
 9285POPC   GL275506   2.810  28.540   6.150
 9285POPC   C1A75507   2.764  28.382   6.450
 9285POPC   D2A75508   2.742  28.380   6.750
 9285POPC   C3A75509   2.779  28.339   7.050
 9285POPC   C4A75510   2.768  28.349   7.350
 9285POPC   C1B75511   2.744  28.643   6.450
 9285POPC   C2B75512   2.804  28.660   6.750
 9285POPC   C3B75513   2.787  28.578   7.050
 9285POPC   C4B75514   2.827  28.592   7.350
 9286POPC   NC375515  17.482  15.210   5.550
 9286POPC   PO475516  17.522  15.206   5.850
 9286POPC   GL175517  17.517  15.178   6.150
 9286POPC   GL275518  17.439  15.313   6.150
 9286POPC   C1A75519  17.522  15.192   6.450
 9286POPC   D2A75520  17.511  15.137   6.750
 9286POPC   C3A75521  17.472  15.221   7.050
 9286POPC   C4A75522  17.557  15.141   7.350
 9286POPC   C1B75523  17.350  15.401   6.450
 9286POPC   C2B75524  17.303  15.346   6.750
 9286POPC   C3B75525  17.304  15.336   7.050
 9286POPC   C4B75526  17.349  15.405   7.350
 9287POPC   NC375527  22.899   5.873   5.550
 9287POPC   PO475528  22.910   5.828   5.850
 9287POPC   GL175529  22.953   5.821   6.150
 9287POPC   GL275530  22.928   6.003   6.150
 9287POPC   C1A75531  22.944   5.886   6.450
 9287POPC   D2A75532  22.986   5.853   6.750
 9287POPC   C3A75533  22.936   5.915   7.050
 9287POPC   C4A75534  22.961   5.892   7.350
 9287POPC   C1B75535  22.818   6.101   6.450
 9287POPC   C2B75536  22.901   6.062   6.750
 9287POPC   C3B75537  22.828   6.143   7.050
 9287POPC   C4B75538  22.867   6.059   7.350
 9288POPC   NC375539   6.621  19.878   5.550
 9288POPC   PO475540   6.665  19.823   5.850
 9288POPC   GL175541   6.605  19.856   6.150
 9288POPC   GL275542   6.778  19.815   6.150
 9288POPC   C1A75543   6.656  19.786   6.450
 9288POPC   D2A75544   6.649  19.827   6.750
 9288POPC   C3A75545   6.604  19.814   7.050
 9288POPC   C4A75546   6.651  19.839   7.350
 9288POPC   C1B75547   6.861  19.751   6.450
 9288POPC   C2B75548   6.848  19.806   6.750
 9288POPC   C3B75549   6.867  19.835   7.050
 9288POPC   C4B75550   6.933  19.786   7.350
 9289POPC   NC375551  27.553  19.092   5.550
 9289POPC   PO475552  27.633  19.104   5.850
 9289POPC   GL175553  27.598  19.060   6.150
 9289POPC   GL275554  27.535  19.100   6.150
 9289POPC   C1A75555  27.621  19.043   6.450
 9289POPC   D2A75556  27.620  19.016   6.750
 9289POPC   C3A75557  27.608  19.066   7.050
 9289POPC   C4A75558  27.605  19.047   7.350
 9289POPC   C1B75559  27.434  19.223   6.450
 9289POPC   C2B75560  27.396  19.251   6.750
 9289POPC   C3B75561  27.448  19.268   7.050
 9289POPC   C4B75562  27.415  19.266   7.350
 9290POPC   NC375563  25.284  21.364   5.550
 9290POPC   PO475564  25.252  21.362   5.850
 9290POPC   GL175565  25.305  21.366   6.150
 9290POPC   GL275566  25.285  21.503   6.150
 9290POPC   C1A75567  25.310  21.387   6.450
 9290POPC   D2A75568  25.298  21.345   6.750
 9290POPC   C3A75569  25.216  21.357   7.050
 9290POPC   C4A75570  25.249  21.414   7.350
 9290POPC   C1B75571  25.402  21.647   6.450
 9290POPC   C2B75572  25.364  21.569   6.750
 9290POPC   C3B75573  25.342  21.568   7.050
 9290POPC   C4B75574  25.383  21.574   7.350
 9291POPC   NC375575  26.851  25.229   5.550
 9291POPC   PO475576  26.816  25.253   5.850
 9291POPC   GL175577  26.862  25.272   6.150
 9291POPC   GL275578  26.912  25.397   6.150
 9291POPC   C1A75579  26.837  25.263   6.450
 9291POPC   D2A75580  26.790  25.279   6.750
 9291POPC   C3A75581  26.773  25.314   7.050
 9291POPC   C4A75582  26.789  25.306   7.350
 9291POPC   C1B75583  27.005  25.463   6.450
 9291POPC   C2B75584  27.035  25.409   6.750
 9291POPC   C3B75585  27.037  25.395   7.050
 9291POPC   C4B75586  26.976  25.434   7.350
 9292POPC   NC375587  23.729  42.379   5.550
 9292POPC   PO475588  23.717  42.359   5.850
 9292POPC   GL175589  23.735  42.352   6.150
 9292POPC   GL275590  23.560  42.271   6.150
 9292POPC   C1A75591  23.669  42.360   6.450
 9292POPC   D2A75592  23.737  42.332   6.750
 9292POPC   C3A75593  23.750  42.285   7.050
 9292POPC   C4A75594  23.709  42.312   7.350
 9292POPC   C1B75595  23.465  42.289   6.450
 9292POPC   C2B75596  23.512  42.309   6.750
 9292POPC   C3B75597  23.515  42.350   7.050
 9292POPC   C4B75598  23.465  42.290   7.350
 9293POPC   NC375599  43.931  13.579   5.550
 9293POPC   PO475600  43.892  13.600   5.850
 9293POPC   GL175601  43.884  13.677   6.150
 9293POPC   GL275602  43.939  13.507   6.150
 9293POPC   C1A75603  43.900  13.657   6.450
 9293POPC   D2A75604  43.855  13.587   6.750
 9293POPC   C3A75605  43.860  13.627   7.050
 9293POPC   C4A75606  43.909  13.623   7.350
 9293POPC   C1B75607  44.077  13.433   6.450
 9293POPC   C2B75608  44.039  13.394   6.750
 9293POPC   C3B75609  44.035  13.447   7.050
 9293POPC   C4B75610  44.100  13.433   7.350
 9294POPC   NC375611  38.448   4.323   5.550
 9294POPC   PO475612  38.420   4.349   5.850
 9294POPC   GL175613  38.450   4.350   6.150
 9294POPC   GL275614  38.487   4.160   6.150
 9294POPC   C1A75615  38.453   4.287   6.450
 9294POPC   D2A75616  38.428   4.358   6.750
 9294POPC   C3A75617  38.411   4.289   7.050
 9294POPC   C4A75618  38.451   4.312   7.350
 9294POPC   C1B75619  38.492   4.105   6.450
 9294POPC   C2B75620  38.583   4.107   6.750
 9294POPC   C3B75621  38.524   4.063   7.050
 9294POPC   C4B75622  38.553   4.072   7.350
 9295POPC   NC375623  22.186  41.593   5.550
 9295POPC   PO475624  22.197  41.567   5.850
 9295POPC   GL175625  22.199  41.574   6.150
 9295POPC   GL275626  22.288  41.690   6.150
 9295POPC   C1A75627  22.149  41.544   6.450
 9295POPC   D2A75628  22.124  41.562   6.750
 9295POPC   C3A75629  22.123  41.550   7.050
 9295POPC   C4A75630  22.207  41.550   7.350
 9295POPC   C1B75631  22.374  41.759   6.450
 9295POPC   C2B75632  22.361  41.746   6.750
 9295POPC   C3B75633  22.355  41.783   7.050
 9295POPC   C4B75634  22.348  41.737   7.350
 9296POPC   NC375635  34.558  26.080   5.550
 9296POPC   PO475636  34.545  26.073   5.850
 9296POPC   GL175637  34.541  26.010   6.150
 9296POPC   GL275638  34.440  26.128   6.150
 9296POPC   C1A75639  34.528  25.998   6.450
 9296POPC   D2A75640  34.541  26.061   6.750
 9296POPC   C3A75641  34.562  26.006   7.050
 9296POPC   C4A75642  34.552  26.014   7.350
 9296POPC   C1B75643  34.415  26.172   6.450
 9296POPC   C2B75644  34.392  26.140   6.750
 9296POPC   C3B75645  34.369  26.192   7.050
 9296POPC   C4B75646  34.350  26.172   7.350
 9297POPC   NC375647   8.180  32.248   5.550
 9297POPC   PO475648   8.207  32.215   5.850
 9297POPC   GL175649   8.235  32.262   6.150
 9297POPC   GL275650   8.323  32.329   6.150
 9297POPC   C1A75651   8.203  32.292   6.450
 9297POPC   D2A75652   8.213  32.233   6.750
 9297POPC   C3A75653   8.242  32.287   7.050
 9297POPC   C4A75654   8.195  32.212   7.350
 9297POPC   C1B75655   8.420  32.410   6.450
 9297POPC   C2B75656   8.374  32.401   6.750
 9297POPC   C3B75657   8.429  32.363   7.050
 9297POPC   C4B75658   8.394  32.364   7.350
 9298POPC   NC375659  21.363  14.395   5.550
 9298POPC   PO475660  21.360  14.383   5.850
 9298POPC   GL175661  21.375  14.359   6.150
 9298POPC   GL275662  21.294  14.440   6.150
 9298POPC   C1A75663  21.343  14.441   6.450
 9298POPC   D2A75664  21.402  14.409   6.750
 9298POPC   C3A75665  21.433  14.424   7.050
 9298POPC   C4A75666  21.432  14.426   7.350
 9298POPC   C1B75667  21.186  14.435   6.450
 9298POPC   C2B75668  21.186  14.473   6.750
 9298POPC   C3B75669  21.098  14.462   7.050
 9298POPC   C4B75670  21.124  14.456   7.350
 9299POPC   NC375671  23.694  37.665   5.550
 9299POPC   PO475672  23.760  37.714   5.850
 9299POPC   GL175673  23.714  37.665   6.150
 9299POPC   GL275674  23.580  37.704   6.150
 9299POPC   C1A75675  23.742  37.653   6.450
 9299POPC   D2A75676  23.752  37.693   6.750
 9299POPC   C3A75677  23.713  37.719   7.050
 9299POPC   C4A75678  23.711  37.717   7.350
 9299POPC   C1B75679  23.458  37.823   6.450
 9299POPC   C2B75680  23.520  37.826   6.750
 9299POPC   C3B75681  23.491  37.798   7.050
 9299POPC   C4B75682  23.459  37.775   7.350
 9300POPC   NC375683  26.812  36.146   5.550
 9300POPC   PO475684  26.841  36.090   5.850
 9300POPC   GL175685  26.857  36.078   6.150
 9300POPC   GL275686  26.926  36.200   6.150
 9300POPC   C1A75687  26.776  36.130   6.450
 9300POPC   D2A75688  26.841  36.155   6.750
 9300POPC   C3A75689  26.865  36.116   7.050
 9300POPC   C4A75690  26.817  36.144   7.350
 9300POPC   C1B75691  27.027  36.137   6.450
 9300POPC   C2B75692  27.057  36.184   6.750
 9300POPC   C3B75693  27.026  36.160   7.050
 9300POPC   C4B75694  27.058  36.192   7.350
 9301POPC   NC375695  29.882  43.071   5.550
 9301POPC   PO475696  29.920  43.093   5.850
 9301POPC   GL175697  29.917  43.147   6.150
 9301POPC   GL275698  29.968  43.031   6.150
 9301POPC   C1A75699  29.968  43.100   6.450
 9301POPC   D2A75700  29.871  43.099   6.750
 9301POPC   C3A75701  29.962  43.112   7.050
 9301POPC   C4A75702  29.966  43.082   7.350
 9301POPC   C1B75703  29.951  42.879   6.450
 9301POPC   C2B75704  29.927  42.820   6.750
 9301POPC   C3B75705  29.963  42.895   7.050
 9301POPC   C4B75706  29.946  42.853   7.350
 9302POPC   NC375707   1.226   5.881   5.550
 9302POPC   PO475708   1.204   5.918   5.850
 9302POPC   GL175709   1.188   5.892   6.150
 9302POPC   GL275710   1.259   6.024   6.150
 9302POPC   C1A75711   1.181   5.907   6.450
 9302POPC   D2A75712   1.173   5.844   6.750
 9302POPC   C3A75713   1.245   5.905   7.050
 9302POPC   C4A75714   1.214   5.905   7.350
 9302POPC   C1B75715   1.260   6.126   6.450
 9302POPC   C2B75716   1.290   6.128   6.750
 9302POPC   C3B75717   1.263   6.092   7.050
 9302POPC   C4B75718   1.233   6.072   7.350
 9303POPC   NC375719  32.229  25.996   5.550
 9303POPC   PO475720  32.277  26.013   5.850
 9303POPC   GL175721  32.290  26.036   6.150
 9303POPC   GL275722  32.156  25.962   6.150
 9303POPC   C1A75723  32.257  26.021   6.450
 9303POPC   D2A75724  32.227  25.995   6.750
 9303POPC   C3A75725  32.275  26.016   7.050
 9303POPC   C4A75726  32.267  26.065   7.350
 9303POPC   C1B75727  32.087  25.875   6.450
 9303POPC   C2B75728  32.062  25.864   6.750
 9303POPC   C3B75729  32.033  25.820   7.050
 9303POPC   C4B75730  32.047  25.887   7.350
 9304POPC   NC375731   1.241  34.558   5.550
 9304POPC   PO475732   1.180  34.572   5.850
 9304POPC   GL175733   1.169  34.624   6.150
 9304POPC   GL275734   1.115  34.660   6.150
 9304POPC   C1A75735   1.259  34.574   6.450
 9304POPC   D2A75736   1.165  34.603   6.750
 9304POPC   C3A75737   1.234  34.577   7.050
 9304POPC   C4A75738   1.172  34.587   7.350
 9304POPC   C1B75739   1.047  34.826   6.450
 9304POPC   C2B75740   1.059  34.752   6.750
 9304POPC   C3B75741   1.096  34.828   7.050
 9304POPC   C4B75742   1.080  34.763   7.350
 9305POPC   NC375743  11.309  32.244   5.550
 9305POPC   PO475744  11.306  32.216   5.850
 9305POPC   GL175745  11.282  32.275   6.150
 9305POPC   GL275746  11.459  32.263   6.150
 9305POPC   C1A75747  11.293  32.296   6.450
 9305POPC   D2A75748  11.333  32.257   6.750
 9305POPC   C3A75749  11.344  32.241   7.050
 9305POPC   C4A75750  11.266  32.288   7.350
 9305POPC   C1B75751  11.527  32.246   6.450
 9305POPC   C2B75752  11.560  32.214   6.750
 9305POPC   C3B75753  11.599  32.240   7.050
 9305POPC   C4B75754  11.501  32.236   7.350
 9306POPC   NC375755  26.774  18.254   5.550
 9306POPC   PO475756  26.824  18.268   5.850
 9306POPC   GL175757  26.806  18.313   6.150
 9306POPC   GL275758  26.872  18.148   6.150
 9306POPC   C1A75759  26.780  18.261   6.450
 9306POPC   D2A75760  26.770  18.245   6.750
 9306POPC   C3A75761  26.852  18.272   7.050
 9306POPC   C4A75762  26.815  18.291   7.350
 9306POPC   C1B75763  26.818  18.001   6.450
 9306POPC   C2B75764  26.853  18.060   6.750
 9306POPC   C3B75765  26.846  18.000   7.050
 9306POPC   C4B75766  26.850  17.997   7.350
 9307POPC   NC375767  33.051  16.747   5.550
 9307POPC   PO475768  33.007  16.682   5.850
 9307POPC   GL175769  33.056  16.730   6.150
 9307POPC   GL275770  32.930  16.835   6.150
 9307POPC   C1A75771  33.035  16.713   6.450
 9307POPC   D2A75772  33.048  16.700   6.750
 9307POPC   C3A75773  32.982  16.724   7.050
 9307POPC   C4A75774  33.009  16.706   7.350
 9307POPC   C1B75775  32.937  16.962   6.450
 9307POPC   C2B75776  32.952  16.979   6.750
 9307POPC   C3B75777  32.915  16.947   7.050
 9307POPC   C4B75778  32.949  16.923   7.350
 9308POPC   NC375779   8.227  20.603   5.550
 9308POPC   PO475780   8.243  20.605   5.850
 9308POPC   GL175781   8.243  20.645   6.150
 9308POPC   GL275782   8.233  20.767   6.150
 9308POPC   C1A75783   8.238  20.613   6.450
 9308POPC   D2A75784   8.237  20.608   6.750
 9308POPC   C3A75785   8.150  20.583   7.050
 9308POPC   C4A75786   8.208  20.574   7.350
 9308POPC   C1B75787   8.220  20.874   6.450
 9308POPC   C2B75788   8.274  20.853   6.750
 9308POPC   C3B75789   8.275  20.824   7.050
 9308POPC   C4B75790   8.249  20.894   7.350
 9309POPC   NC375791  20.597   2.796   5.550
 9309POPC   PO475792  20.585   2.760   5.850
 9309POPC   GL175793  20.595   2.741   6.150
 9309POPC   GL275794  20.624   2.893   6.150
 9309POPC   C1A75795  20.649   2.721   6.450
 9309POPC   D2A75796  20.613   2.755   6.750
 9309POPC   C3A75797  20.623   2.779   7.050
 9309POPC   C4A75798  20.595   2.770   7.350
 9309POPC   C1B75799  20.658   2.962   6.450
 9309POPC   C2B75800  20.661   2.992   6.750
 9309POPC   C3B75801  20.644   2.983   7.050
 9309POPC   C4B75802  20.711   3.040   7.350
 9310POPC   NC375803   9.771   9.015   5.550
 9310POPC   PO475804   9.726   9.016   5.850
 9310POPC   GL175805   9.707   8.959   6.150
 9310POPC   GL275806   9.824   8.923   6.150
 9310POPC   C1A75807   9.735   8.949   6.450
 9310POPC   D2A75808   9.701   8.926   6.750
 9310POPC   C3A75809   9.703   8.941   7.050
 9310POPC   C4A75810   9.720   8.943   7.350
 9310POPC   C1B75811   9.880   8.800   6.450
 9310POPC   C2B75812   9.897   8.747   6.750
 9310POPC   C3B75813   9.883   8.800   7.050
 9310POPC   C4B75814   9.863   8.810   7.350
 9311POPC   NC375815  44.683  38.425   5.550
 9311POPC   PO475816  44.708  38.494   5.850
 9311POPC   GL175817  44.638  38.453   6.150
 9311POPC   GL275818  44.550  38.559   6.150
 9311POPC   C1A75819  44.707  38.433   6.450
 9311POPC   D2A75820  44.674  38.488   6.750
 9311POPC   C3A75821  44.673  38.468   7.050
 9311POPC   C4A75822  44.617  38.430   7.350
 9311POPC   C1B75823  44.538  38.641   6.450
 9311POPC   C2B75824  44.505  38.618   6.750
 9311POPC   C3B75825  44.513  38.619   7.050
 9311POPC   C4B75826  44.486  38.631   7.350
 9312POPC   NC375827   6.646  28.345   5.550
 9312POPC   PO475828   6.657  28.410   5.850
 9312POPC   GL175829   6.673  28.385   6.150
 9312POPC   GL275830   6.559  28.298   6.150
 9312POPC   C1A75831   6.596  28.364   6.450
 9312POPC   D2A75832   6.665  28.379   6.750
 9312POPC   C3A75833   6.613  28.378   7.050
 9312POPC   C4A75834   6.665  28.396   7.350
 9312POPC   C1B75835   6.421  28.234   6.450
 9312POPC   C2B75836   6.408  28.249   6.750
 9312POPC   C3B75837   6.439  28.245   7.050
 9312POPC   C4B75838   6.463  28.218   7.350
 9313POPC   NC375839  43.854  20.602   5.550
 9313POPC   PO475840  43.868  20.601   5.850
 9313POPC   GL175841  43.840  20.608   6.150
 9313POPC   GL275842  43.970  20.681   6.150
 9313POPC   C1A75843  43.845  20.643   6.450
 9313POPC   D2A75844  43.849  20.611   6.750
 9313POPC   C3A75845  43.883  20.614   7.050
 9313POPC   C4A75846  43.872  20.654   7.350
 9313POPC   C1B75847  44.094  20.754   6.450
 9313POPC   C2B75848  44.155  20.753   6.750
 9313POPC   C3B75849  44.074  20.730   7.050
 9313POPC   C4B75850  44.130  20.717   7.350
 9314POPC   NC375851  23.747   5.092   5.550
 9314POPC   PO475852  23.760   5.089   5.850
 9314POPC   GL175853  23.681   5.078   6.150
 9314POPC   GL275854  23.842   5.042   6.150
 9314POPC   C1A75855  23.726   5.067   6.450
 9314POPC   D2A75856  23.702   5.047   6.750
 9314POPC   C3A75857  23.740   5.044   7.050
 9314POPC   C4A75858  23.729   5.078   7.350
 9314POPC   C1B75859  23.920   4.943   6.450
 9314POPC   C2B75860  23.914   4.909   6.750
 9314POPC   C3B75861  23.871   4.985   7.050
 9314POPC   C4B75862  23.967   4.985   7.350
 9315POPC   NC375863   3.500  43.099   5.550
 9315POPC   PO475864   3.522  43.107   5.850
 9315POPC   GL175865   3.530  43.160   6.150
 9315POPC   GL275866   3.668  43.215   6.150
 9315POPC   C1A75867   3.533  43.139   6.450
 9315POPC   D2A75868   3.517  43.077   6.750
 9315POPC   C3A75869   3.504  43.078   7.050
 9315POPC   C4A75870   3.587  43.148   7.350
 9315POPC   C1B75871   3.695  43.244   6.450
 9315POPC   C2B75872   3.737  43.276   6.750
 9315POPC   C3B75873   3.769  43.266   7.050
 9315POPC   C4B75874   3.698  43.316   7.350
 9316POPC   NC375875  20.580   5.911   5.550
 9316POPC   PO475876  20.582   5.881   5.850
 9316POPC   GL175877  20.566   5.894   6.150
 9316POPC   GL275878  20.627   5.721   6.150
 9316POPC   C1A75879  20.606   5.900   6.450
 9316POPC   D2A75880  20.613   5.887   6.750
 9316POPC   C3A75881  20.617   5.827   7.050
 9316POPC   C4A75882  20.629   5.918   7.350
 9316POPC   C1B75883  20.616   5.624   6.450
 9316POPC   C2B75884  20.582   5.612   6.750
 9316POPC   C3B75885  20.568   5.605   7.050
 9316POPC   C4B75886  20.635   5.574   7.350
 9317POPC   NC375887  15.202   5.862   5.550
 9317POPC   PO475888  15.213   5.889   5.850
 9317POPC   GL175889  15.160   5.900   6.150
 9317POPC   GL275890  15.221   5.706   6.150
 9317POPC   C1A75891  15.159   5.838   6.450
 9317POPC   D2A75892  15.220   5.844   6.750
 9317POPC   C3A75893  15.158   5.863   7.050
 9317POPC   C4A75894  15.139   5.835   7.350
 9317POPC   C1B75895  15.279   5.629   6.450
 9317POPC   C2B75896  15.207   5.599   6.750
 9317POPC   C3B75897  15.228   5.665   7.050
 9317POPC   C4B75898  15.227   5.592   7.350
 9318POPC   NC375899  40.813  15.171   5.550
 9318POPC   PO475900  40.790  15.168   5.850
 9318POPC   GL175901  40.741  15.158   6.150
 9318POPC   GL275902  40.713  15.270   6.150
 9318POPC   C1A75903  40.781  15.161   6.450
 9318POPC   D2A75904  40.820  15.215   6.750
 9318POPC   C3A75905  40.767  15.212   7.050
 9318POPC   C4A75906  40.777  15.212   7.350
 9318POPC   C1B75907  40.599  15.399   6.450
 9318POPC   C2B75908  40.618  15.350   6.750
 9318POPC   C3B75909  40.621  15.341   7.050
 9318POPC   C4B75910  40.614  15.350   7.350
 9319POPC   NC375911  17.547   1.978   5.550
 9319POPC   PO475912  17.459   1.951   5.850
 9319POPC   GL175913  17.501   1.946   6.150
 9319POPC   GL275914  17.427   2.020   6.150
 9319POPC   C1A75915  17.503   1.945   6.450
 9319POPC   D2A75916  17.469   2.031   6.750
 9319POPC   C3A75917  17.481   2.004   7.050
 9319POPC   C4A75918  17.556   2.037   7.350
 9319POPC   C1B75919  17.238   2.029   6.450
 9319POPC   C2B75920  17.275   2.048   6.750
 9319POPC   C3B75921  17.255   2.047   7.050
 9319POPC   C4B75922  17.219   2.012   7.350
 9320POPC   NC375923  19.089  40.797   5.550
 9320POPC   PO475924  19.080  40.745   5.850
 9320POPC   GL175925  19.025  40.778   6.150
 9320POPC   GL275926  19.077  40.633   6.150
 9320POPC   C1A75927  19.102  40.747   6.450
 9320POPC   D2A75928  19.034  40.814   6.750
 9320POPC   C3A75929  19.075  40.779   7.050
 9320POPC   C4A75930  19.063  40.812   7.350
 9320POPC   C1B75931  19.075  40.579   6.450
 9320POPC   C2B75932  19.131  40.570   6.750
 9320POPC   C3B75933  19.149  40.577   7.050
 9320POPC   C4B75934  19.141  40.534   7.350
 9321POPC   NC375935  35.379  31.511   5.550
 9321POPC   PO475936  35.351  31.520   5.850
 9321POPC   GL175937  35.332  31.511   6.150
 9321POPC   GL275938  35.416  31.421   6.150
 9321POPC   C1A75939  35.396  31.434   6.450
 9321POPC   D2A75940  35.395  31.477   6.750
 9321POPC   C3A75941  35.359  31.460   7.050
 9321POPC   C4A75942  35.369  31.521   7.350
 9321POPC   C1B75943  35.605  31.363   6.450
 9321POPC   C2B75944  35.569  31.310   6.750
 9321POPC   C3B75945  35.513  31.368   7.050
 9321POPC   C4B75946  35.564  31.293   7.350
 9322POPC   NC375947   1.985  10.542   5.550
 9322POPC   PO475948   1.953  10.568   5.850
 9322POPC   GL175949   1.975  10.494   6.150
 9322POPC   GL275950   2.010  10.619   6.150
 9322POPC   C1A75951   1.981  10.508   6.450
 9322POPC   D2A75952   1.981  10.513   6.750
 9322POPC   C3A75953   2.024  10.506   7.050
 9322POPC   C4A75954   2.024  10.507   7.350
 9322POPC   C1B75955   1.991  10.781   6.450
 9322POPC   C2B75956   1.953  10.771   6.750
 9322POPC   C3B75957   1.941  10.745   7.050
 9322POPC   C4B75958   2.003  10.793   7.350
 9323POPC   NC375959   5.131  30.725   5.550
 9323POPC   PO475960   5.050  30.686   5.850
 9323POPC   GL175961   5.068  30.698   6.150
 9323POPC   GL275962   5.043  30.637   6.150
 9323POPC   C1A75963   5.069  30.669   6.450
 9323POPC   D2A75964   5.093  30.653   6.750
 9323POPC   C3A75965   5.118  30.662   7.050
 9323POPC   C4A75966   5.077  30.711   7.350
 9323POPC   C1B75967   4.903  30.556   6.450
 9323POPC   C2B75968   4.905  30.520   6.750
 9323POPC   C3B75969   4.909  30.536   7.050
 9323POPC   C4B75970   4.953  30.506   7.350
 9324POPC   NC375971  40.798  20.594   5.550
 9324POPC   PO475972  40.800  20.624   5.850
 9324POPC   GL175973  40.748  20.578   6.150
 9324POPC   GL275974  40.678  20.546   6.150
 9324POPC   C1A75975  40.817  20.645   6.450
 9324POPC   D2A75976  40.829  20.614   6.750
 9324POPC   C3A75977  40.822  20.582   7.050
 9324POPC   C4A75978  40.753  20.653   7.350
 9324POPC   C1B75979  40.628  20.371   6.450
 9324POPC   C2B75980  40.618  20.352   6.750
 9324POPC   C3B75981  40.638  20.366   7.050
 9324POPC   C4B75982  40.670  20.360   7.350
 9325POPC   NC375983  29.909  10.483   5.550
 9325POPC   PO475984  29.871  10.534   5.850
 9325POPC   GL175985  29.910  10.497   6.150
 9325POPC   GL275986  30.044  10.543   6.150
 9325POPC   C1A75987  29.892  10.486   6.450
 9325POPC   D2A75988  29.885  10.565   6.750
 9325POPC   C3A75989  29.872  10.482   7.050
 9325POPC   C4A75990  29.945  10.549   7.350
 9325POPC   C1B75991  30.177  10.498   6.450
 9325POPC   C2B75992  30.154  10.500   6.750
 9325POPC   C3B75993  30.179  10.551   7.050
 9325POPC   C4B75994  30.199  10.531   7.350
 9326POPC   NC375995  20.568  36.102   5.550
 9326POPC   PO475996  20.572  36.165   5.850
 9326POPC   GL175997  20.567  36.177   6.150
 9326POPC   GL275998  20.604  36.260   6.150
 9326POPC   C1A75999  20.637  36.096   6.450
 9326POPC   D2A76000  20.587  36.148   6.750
 9326POPC   C3A76001  20.569  36.155   7.050
 9326POPC   C4A76002  20.575  36.132   7.350
 9326POPC   C1B76003  20.501  36.329   6.450
 9326POPC   C2B76004  20.473  36.359   6.750
 9326POPC   C3B76005  20.476  36.313   7.050
 9326POPC   C4B76006  20.530  36.318   7.350
 9327POPC   NC376007   0.463  15.939   5.550
 9327POPC   PO476008   0.441  15.924   5.850
 9327POPC   GL176009   0.409  16.005   6.150
 9327POPC   GL276010   0.542  15.914   6.150
 9327POPC   C1A76011   0.401  15.986   6.450
 9327POPC   D2A76012   0.399  15.998   6.750
 9327POPC   C3A76013   0.450  15.949   7.050
 9327POPC   C4A76014   0.461  15.992   7.350
 9327POPC   C1B76015   0.660  15.971   6.450
 9327POPC   C2B76016   0.717  15.924   6.750
 9327POPC   C3B76017   0.639  15.930   7.050
 9327POPC   C4B76018   0.688  15.919   7.350
 9328POPC   NC376019   0.416  40.000   5.550
 9328POPC   PO476020   0.477  39.969   5.850
 9328POPC   GL176021   0.407  39.984   6.150
 9328POPC   GL276022   0.358  40.151   6.150
 9328POPC   C1A76023   0.397  39.985   6.450
 9328POPC   D2A76024   0.474  39.988   6.750
 9328POPC   C3A76025   0.399  40.006   7.050
 9328POPC   C4A76026   0.391  40.041   7.350
 9328POPC   C1B76027   0.311  40.230   6.450
 9328POPC   C2B76028   0.296  40.187   6.750
 9328POPC   C3B76029   0.358  40.253   7.050
 9328POPC   C4B76030   0.328  40.259   7.350
 9329POPC   NC376031  13.649  15.973   5.550
 9329POPC   PO476032  13.641  15.961   5.850
 9329POPC   GL176033  13.646  15.977   6.150
 9329POPC   GL276034  13.557  15.876   6.150
 9329POPC   C1A76035  13.608  15.954   6.450
 9329POPC   D2A76036  13.631  15.912   6.750
 9329POPC   C3A76037  13.646  15.976   7.050
 9329POPC   C4A76038  13.633  15.995   7.350
 9329POPC   C1B76039  13.495  15.688   6.450
 9329POPC   C2B76040  13.503  15.741   6.750
 9329POPC   C3B76041  13.566  15.757   7.050
 9329POPC   C4B76042  13.549  15.683   7.350
 9330POPC   NC376043  19.083  40.047   5.550
 9330POPC   PO476044  19.052  39.981   5.850
 9330POPC   GL176045  19.012  40.037   6.150
 9330POPC   GL276046  18.899  40.070   6.150
 9330POPC   C1A76047  19.032  40.037   6.450
 9330POPC   D2A76048  19.013  39.963   6.750
 9330POPC   C3A76049  19.043  39.996   7.050
 9330POPC   C4A76050  19.009  40.033   7.350
 9330POPC   C1B76051  18.817  40.159   6.450
 9330POPC   C2B76052  18.832  40.161   6.750
 9330POPC   C3B76053  18.863  40.173   7.050
 9330POPC   C4B76054  18.838  40.108   7.350
 9331POPC   NC376055  13.616   2.025   5.550
 9331POPC   PO476056  13.614   2.014   5.850
 9331POPC   GL176057  13.611   1.955   6.150
 9331POPC   GL276058  13.621   1.864   6.150
 9331POPC   C1A76059  13.626   1.999   6.450
 9331POPC   D2A76060  13.637   1.979   6.750
 9331POPC   C3A76061  13.616   1.999   7.050
 9331POPC   C4A76062  13.617   2.018   7.350
 9331POPC   C1B76063  13.600   1.756   6.450
 9331POPC   C2B76064  13.639   1.777   6.750
 9331POPC   C3B76065  13.636   1.764   7.050
 9331POPC   C4B76066  13.630   1.748   7.350
 9332POPC   NC376067  43.885  32.241   5.550
 9332POPC   PO476068  43.921  32.244   5.850
 9332POPC   GL176069  43.859  32.209   6.150
 9332POPC   GL276070  44.026  32.218   6.150
 9332POPC   C1A76071  43.881  32.280   6.450
 9332POPC   D2A76072  43.854  32.199   6.750
 9332POPC   C3A76073  43.911  32.269   7.050
 9332POPC   C4A76074  43.903  32.236   7.350
 9332POPC   C1B76075  44.166  32.219   6.450
 9332POPC   C2B76076  44.111  32.161   6.750
 9332POPC   C3B76077  44.128  32.175   7.050
 9332POPC   C4B76078  44.148  32.208   7.350
 9333POPC   NC376079  39.245  36.117   5.550
 9333POPC   PO476080  39.270  36.116   5.850
 9333POPC   GL176081  39.204  36.123   6.150
 9333POPC   GL276082  39.169  36.216   6.150
 9333POPC   C1A76083  39.271  36.159   6.450
 9333POPC   D2A76084  39.276  36.160   6.750
 9333POPC   C3A76085  39.235  36.158   7.050
 9333POPC   C4A76086  39.223  36.176   7.350
 9333POPC   C1B76087  39.082  36.296   6.450
 9333POPC   C2B76088  38.990  36.253   6.750
 9333POPC   C3B76089  39.084  36.318   7.050
 9333POPC   C4B76090  39.019  36.291   7.350
 9334POPC   NC376091  38.416   2.765   5.550
 9334POPC   PO476092  38.440   2.812   5.850
 9334POPC   GL176093  38.498   2.730   6.150
 9334POPC   GL276094  38.599   2.801   6.150
 9334POPC   C1A76095  38.476   2.741   6.450
 9334POPC   D2A76096  38.496   2.752   6.750
 9334POPC   C3A76097  38.456   2.764   7.050
 9334POPC   C4A76098  38.440   2.790   7.350
 9334POPC   C1B76099  38.733   2.838   6.450
 9334POPC   C2B76100  38.655   2.799   6.750
 9334POPC   C3B76101  38.737   2.853   7.050
 9334POPC   C4B76102  38.666   2.850   7.350
 9335POPC   NC376103  27.569   7.372   5.550
 9335POPC   PO476104  27.638   7.417   5.850
 9335POPC   GL176105  27.620   7.462   6.150
 9335POPC   GL276106  27.600   7.561   6.150
 9335POPC   C1A76107  27.554   7.458   6.450
 9335POPC   D2A76108  27.627   7.434   6.750
 9335POPC   C3A76109  27.589   7.387   7.050
 9335POPC   C4A76110  27.610   7.429   7.350
 9335POPC   C1B76111  27.648   7.654   6.450
 9335POPC   C2B76112  27.601   7.673   6.750
 9335POPC   C3B76113  27.619   7.704   7.050
 9335POPC   C4B76114  27.661   7.685   7.350
 9336POPC   NC376115   1.975  31.521   5.550
 9336POPC   PO476116   2.032  31.475   5.850
 9336POPC   GL176117   1.966  31.447   6.150
 9336POPC   GL276118   1.907  31.409   6.150
 9336POPC   C1A76119   2.001  31.461   6.450
 9336POPC   D2A76120   2.022  31.516   6.750
 9336POPC   C3A76121   2.031  31.460   7.050
 9336POPC   C4A76122   1.971  31.464   7.350
 9336POPC   C1B76123   1.784  31.374   6.450
 9336POPC   C2B76124   1.806  31.349   6.750
 9336POPC   C3B76125   1.801  31.360   7.050
 9336POPC   C4B76126   1.779  31.339   7.350
 9337POPC   NC376127   6.653  10.512   5.550
 9337POPC   PO476128   6.676  10.537   5.850
 9337POPC   GL176129   6.673  10.483   6.150
 9337POPC   GL276130   6.571  10.584   6.150
 9337POPC   C1A76131   6.654  10.489   6.450
 9337POPC   D2A76132   6.625  10.558   6.750
 9337POPC   C3A76133   6.683  10.526   7.050
 9337POPC   C4A76134   6.631  10.554   7.350
 9337POPC   C1B76135   6.377  10.616   6.450
 9337POPC   C2B76136   6.419  10.622   6.750
 9337POPC   C3B76137   6.430  10.594   7.050
 9337POPC   C4B76138   6.406  10.691   7.350
 9338POPC   NC376139  41.546  26.855   5.550
 9338POPC   PO476140  41.581  26.846   5.850
 9338POPC   GL176141  41.547  26.820   6.150
 9338POPC   GL276142  41.674  26.962   6.150
 9338POPC   C1A76143  41.560  26.853   6.450
 9338POPC   D2A76144  41.603  26.850   6.750
 9338POPC   C3A76145  41.569  26.794   7.050
 9338POPC   C4A76146  41.531  26.863   7.350
 9338POPC   C1B76147  41.693  26.970   6.450
 9338POPC   C2B76148  41.699  27.057   6.750
 9338POPC   C3B76149  41.688  27.011   7.050
 9338POPC   C4B76150  41.765  26.967   7.350
 9339POPC   NC376151  29.116  18.248   5.550
 9339POPC   PO476152  29.149  18.259   5.850
 9339POPC   GL176153  29.135  18.247   6.150
 9339POPC   GL276154  29.076  18.357   6.150
 9339POPC   C1A76155  29.099  18.257   6.450
 9339POPC   D2A76156  29.115  18.296   6.750
 9339POPC   C3A76157  29.181  18.295   7.050
 9339POPC   C4A76158  29.116  18.306   7.350
 9339POPC   C1B76159  29.060  18.515   6.450
 9339POPC   C2B76160  29.000  18.534   6.750
 9339POPC   C3B76161  29.033  18.451   7.050
 9339POPC   C4B76162  28.986  18.461   7.350
 9340POPC   NC376163  24.537  12.805   5.550
 9340POPC   PO476164  24.521  12.815   5.850
 9340POPC   GL176165  24.467  12.811   6.150
 9340POPC   GL276166  24.557  12.787   6.150
 9340POPC   C1A76167  24.515  12.900   6.450
 9340POPC   D2A76168  24.449  12.839   6.750
 9340POPC   C3A76169  24.473  12.849   7.050
 9340POPC   C4A76170  24.521  12.882   7.350
 9340POPC   C1B76171  24.586  12.674   6.450
 9340POPC   C2B76172  24.654  12.593   6.750
 9340POPC   C3B76173  24.583  12.668   7.050
 9340POPC   C4B76174  24.618  12.599   7.350
 9341POPC   NC376175  18.238  19.039   5.550
 9341POPC   PO476176  18.246  19.075   5.850
 9341POPC   GL176177  18.281  19.057   6.150
 9341POPC   GL276178  18.373  19.027   6.150
 9341POPC   C1A76179  18.312  19.070   6.450
 9341POPC   D2A76180  18.305  19.050   6.750
 9341POPC   C3A76181  18.267  19.105   7.050
 9341POPC   C4A76182  18.235  19.091   7.350
 9341POPC   C1B76183  18.484  18.952   6.450
 9341POPC   C2B76184  18.503  18.924   6.750
 9341POPC   C3B76185  18.478  18.941   7.050
 9341POPC   C4B76186  18.511  18.935   7.350
 9342POPC   NC376187  34.596  19.813   5.550
 9342POPC   PO476188  34.581  19.817   5.850
 9342POPC   GL176189  34.621  19.845   6.150
 9342POPC   GL276190  34.421  19.937   6.150
 9342POPC   C1A76191  34.609  19.829   6.450
 9342POPC   D2A76192  34.533  19.834   6.750
 9342POPC   C3A76193  34.559  19.801   7.050
 9342POPC   C4A76194  34.563  19.862   7.350
 9342POPC   C1B76195  34.373  19.962   6.450
 9342POPC   C2B76196  34.311  19.907   6.750
 9342POPC   C3B76197  34.351  19.954   7.050
 9342POPC   C4B76198  34.346  19.972   7.350
 9343POPC   NC376199  43.078  43.928   5.550
 9343POPC   PO476200  43.156  43.928   5.850
 9343POPC   GL176201  43.125  43.903   6.150
 9343POPC   GL276202  43.074  43.813   6.150
 9343POPC   C1A76203  43.093  43.852   6.450
 9343POPC   D2A76204  43.118  43.842   6.750
 9343POPC   C3A76205  43.131  43.865   7.050
 9343POPC   C4A76206  43.100  43.864   7.350
 9343POPC   C1B76207  42.994  43.695   6.450
 9343POPC   C2B76208  42.944  43.664   6.750
 9343POPC   C3B76209  42.968  43.649   7.050
 9343POPC   C4B76210  42.941  43.676   7.350
 9344POPC   NC376211   2.024  16.759   5.550
 9344POPC   PO476212   2.034  16.781   5.850
 9344POPC   GL176213   2.014  16.753   6.150
 9344POPC   GL276214   1.972  16.818   6.150
 9344POPC   C1A76215   2.016  16.716   6.450
 9344POPC   D2A76216   1.989  16.706   6.750
 9344POPC   C3A76217   1.940  16.694   7.050
 9344POPC   C4A76218   2.018  16.733   7.350
 9344POPC   C1B76219   1.900  16.968   6.450
 9344POPC   C2B76220   1.959  16.993   6.750
 9344POPC   C3B76221   1.929  16.952   7.050
 9344POPC   C4B76222   1.900  16.955   7.350
 9345POPC   NC376223   6.598  13.594   5.550
 9345POPC   PO476224   6.598  13.651   5.850
 9345POPC   GL176225   6.603  13.648   6.150
 9345POPC   GL276226   6.545  13.718   6.150
 9345POPC   C1A76227   6.657  13.654   6.450
 9345POPC   D2A76228   6.685  13.661   6.750
 9345POPC   C3A76229   6.654  13.587   7.050
 9345POPC   C4A76230   6.609  13.590   7.350
 9345POPC   C1B76231   6.438  13.772   6.450
 9345POPC   C2B76232   6.472  13.821   6.750
 9345POPC   C3B76233   6.438  13.842   7.050
 9345POPC   C4B76234   6.465  13.838   7.350
 9346POPC   NC376235  32.253  34.603   5.550
 9346POPC   PO476236  32.274  34.581   5.850
 9346POPC   GL176237  32.230  34.563   6.150
 9346POPC   GL276238  32.255  34.492   6.150
 9346POPC   C1A76239  32.218  34.563   6.450
 9346POPC   D2A76240  32.262  34.561   6.750
 9346POPC   C3A76241  32.221  34.608   7.050
 9346POPC   C4A76242  32.212  34.536   7.350
 9346POPC   C1B76243  32.352  34.339   6.450
 9346POPC   C2B76244  32.366  34.297   6.750
 9346POPC   C3B76245  32.375  34.312   7.050
 9346POPC   C4B76246  32.323  34.341   7.350
 9347POPC   NC376247  36.150  29.964   5.550
 9347POPC   PO476248  36.167  29.964   5.850
 9347POPC   GL176249  36.097  29.949   6.150
 9347POPC   GL276250  36.070  29.775   6.150
 9347POPC   C1A76251  36.130  29.925   6.450
 9347POPC   D2A76252  36.162  29.917   6.750
 9347POPC   C3A76253  36.113  29.920   7.050
 9347POPC   C4A76254  36.086  29.967   7.350
 9347POPC   C1B76255  36.001  29.708   6.450
 9347POPC   C2B76256  35.993  29.701   6.750
 9347POPC   C3B76257  36.018  29.743   7.050
 9347POPC   C4B76258  35.996  29.682   7.350
 9348POPC   NC376259  39.990  29.114   5.550
 9348POPC   PO476260  39.992  29.107   5.850
 9348POPC   GL176261  39.974  29.112   6.150
 9348POPC   GL276262  39.952  29.246   6.150
 9348POPC   C1A76263  40.005  29.130   6.450
 9348POPC   D2A76264  40.009  29.136   6.750
 9348POPC   C3A76265  40.032  29.144   7.050
 9348POPC   C4A76266  40.020  29.106   7.350
 9348POPC   C1B76267  39.999  29.371   6.450
 9348POPC   C2B76268  40.008  29.417   6.750
 9348POPC   C3B76269  39.958  29.354   7.050
 9348POPC   C4B76270  39.964  29.368   7.350
 9349POPC   NC376271   3.501  20.598   5.550
 9349POPC   PO476272   3.565  20.606   5.850
 9349POPC   GL176273   3.582  20.626   6.150
 9349POPC   GL276274   3.674  20.684   6.150
 9349POPC   C1A76275   3.510  20.579   6.450
 9349POPC   D2A76276   3.576  20.648   6.750
 9349POPC   C3A76277   3.507  20.604   7.050
 9349POPC   C4A76278   3.552  20.633   7.350
 9349POPC   C1B76279   3.681  20.814   6.450
 9349POPC   C2B76280   3.743  20.826   6.750
 9349POPC   C3B76281   3.725  20.771   7.050
 9349POPC   C4B76282   3.711  20.786   7.350
 9350POPC   NC376283  36.854   9.019   5.550
 9350POPC   PO476284  36.895   8.967   5.850
 9350POPC   GL176285  36.860   9.003   6.150
 9350POPC   GL276286  36.808   8.921   6.150
 9350POPC   C1A76287  36.925   8.991   6.450
 9350POPC   D2A76288  36.889   8.994   6.750
 9350POPC   C3A76289  36.866   9.003   7.050
 9350POPC   C4A76290  36.871   8.977   7.350
 9350POPC   C1B76291  36.689   8.879   6.450
 9350POPC   C2B76292  36.718   8.852   6.750
 9350POPC   C3B76293  36.716   8.830   7.050
 9350POPC   C4B76294  36.678   8.913   7.350
 9351POPC   NC376295  38.479  23.751   5.550
 9351POPC   PO476296  38.428  23.678   5.850
 9351POPC   GL176297  38.409  23.762   6.150
 9351POPC   GL276298  38.600  23.706   6.150
 9351POPC   C1A76299  38.445  23.682   6.450
 9351POPC   D2A76300  38.453  23.733   6.750
 9351POPC   C3A76301  38.439  23.697   7.050
 9351POPC   C4A76302  38.437  23.680   7.350
 9351POPC   C1B76303  38.741  23.676   6.450
 9351POPC   C2B76304  38.675  23.653   6.750
 9351POPC   C3B76305  38.661  23.686   7.050
 9351POPC   C4B76306  38.709  23.658   7.350
 9352POPC   NC376307  35.337  22.209   5.550
 9352POPC   PO476308  35.396  22.192   5.850
 9352POPC   GL176309  35.381  22.207   6.150
 9352POPC   GL276310  35.262  22.189   6.150
 9352POPC   C1A76311  35.394  22.157   6.450
 9352POPC   D2A76312  35.386  22.208   6.750
 9352POPC   C3A76313  35.373  22.140   7.050
 9352POPC   C4A76314  35.342  22.148   7.350
 9352POPC   C1B76315  35.170  22.271   6.450
 9352POPC   C2B76316  35.174  22.287   6.750
 9352POPC   C3B76317  35.157  22.249   7.050
 9352POPC   C4B76318  35.106  22.297   7.350
 9353POPC   NC376319  16.712  26.838   5.550
 9353POPC   PO476320  16.719  26.839   5.850
 9353POPC   GL176321  16.761  26.768   6.150
 9353POPC   GL276322  16.781  26.695   6.150
 9353POPC   C1A76323  16.726  26.796   6.450
 9353POPC   D2A76324  16.738  26.802   6.750
 9353POPC   C3A76325  16.718  26.834   7.050
 9353POPC   C4A76326  16.707  26.853   7.350
 9353POPC   C1B76327  16.808  26.561   6.450
 9353POPC   C2B76328  16.716  26.614   6.750
 9353POPC   C3B76329  16.722  26.576   7.050
 9353POPC   C4B76330  16.806  26.599   7.350
 9354POPC   NC376331  14.373   7.408   5.550
 9354POPC   PO476332  14.408   7.388   5.850
 9354POPC   GL176333  14.377   7.396   6.150
 9354POPC   GL276334  14.567   7.409   6.150
 9354POPC   C1A76335  14.431   7.460   6.450
 9354POPC   D2A76336  14.364   7.415   6.750
 9354POPC   C3A76337  14.426   7.412   7.050
 9354POPC   C4A76338  14.440   7.460   7.350
 9354POPC   C1B76339  14.638   7.345   6.450
 9354POPC   C2B76340  14.635   7.321   6.750
 9354POPC   C3B76341  14.594   7.310   7.050
 9354POPC   C4B76342  14.627   7.347   7.350
 9355POPC   NC376343  17.474  41.551   5.550
 9355POPC   PO476344  17.529  41.552   5.850
 9355POPC   GL176345  17.531  41.555   6.150
 9355POPC   GL276346  17.550  41.680   6.150
 9355POPC   C1A76347  17.553  41.539   6.450
 9355POPC   D2A76348  17.475  41.587   6.750
 9355POPC   C3A76349  17.461  41.576   7.050
 9355POPC   C4A76350  17.553  41.552   7.350
 9355POPC   C1B76351  17.592  41.791   6.450
 9355POPC   C2B76352  17.640  41.772   6.750
 9355POPC   C3B76353  17.617  41.780   7.050
 9355POPC   C4B76354  17.647  41.782   7.350
 9356POPC   NC376355   1.198  10.502   5.550
 9356POPC   PO476356   1.231  10.522   5.850
 9356POPC   GL176357   1.195  10.546   6.150
 9356POPC   GL276358   1.051  10.427   6.150
 9356POPC   C1A76359   1.218  10.475   6.450
 9356POPC   D2A76360   1.218  10.546   6.750
 9356POPC   C3A76361   1.207  10.520   7.050
 9356POPC   C4A76362   1.238  10.549   7.350
 9356POPC   C1B76363   0.991  10.462   6.450
 9356POPC   C2B76364   1.014  10.420   6.750
 9356POPC   C3B76365   1.009  10.464   7.050
 9356POPC   C4B76366   1.001  10.392   7.350
 9357POPC   NC376367  27.581  36.905   5.550
 9357POPC   PO476368  27.580  36.901   5.850
 9357POPC   GL176369  27.580  36.901   6.150
 9357POPC   GL276370  27.428  36.888   6.150
 9357POPC   C1A76371  27.623  36.873   6.450
 9357POPC   D2A76372  27.576  36.951   6.750
 9357POPC   C3A76373  27.608  36.883   7.050
 9357POPC   C4A76374  27.599  36.884   7.350
 9357POPC   C1B76375  27.366  36.908   6.450
 9357POPC   C2B76376  27.305  36.915   6.750
 9357POPC   C3B76377  27.394  36.954   7.050
 9357POPC   C4B76378  27.319  36.954   7.350
 9358POPC   NC376379  12.808   1.980   5.550
 9358POPC   PO476380  12.898   1.944   5.850
 9358POPC   GL176381  12.830   2.023   6.150
 9358POPC   GL276382  12.798   2.064   6.150
 9358POPC   C1A76383  12.891   1.985   6.450
 9358POPC   D2A76384  12.822   2.014   6.750
 9358POPC   C3A76385  12.900   2.017   7.050
 9358POPC   C4A76386  12.829   2.008   7.350
 9358POPC   C1B76387  12.733   2.208   6.450
 9358POPC   C2B76388  12.819   2.193   6.750
 9358POPC   C3B76389  12.762   2.266   7.050
 9358POPC   C4B76390  12.823   2.201   7.350
 9359POPC   NC376391  35.393   8.169   5.550
 9359POPC   PO476392  35.399   8.192   5.850
 9359POPC   GL176393  35.319   8.216   6.150
 9359POPC   GL276394  35.183   8.185   6.150
 9359POPC   C1A76395  35.325   8.193   6.450
 9359POPC   D2A76396  35.378   8.181   6.750
 9359POPC   C3A76397  35.357   8.225   7.050
 9359POPC   C4A76398  35.365   8.192   7.350
 9359POPC   C1B76399  35.061   8.126   6.450
 9359POPC   C2B76400  35.102   8.127   6.750
 9359POPC   C3B76401  35.071   8.126   7.050
 9359POPC   C4B76402  35.063   8.126   7.350
 9360POPC   NC376403   0.398   5.888   5.550
 9360POPC   PO476404   0.456   5.888   5.850
 9360POPC   GL176405   0.454   5.872   6.150
 9360POPC   GL276406   0.604   5.891   6.150
 9360POPC   C1A76407   0.424   5.851   6.450
 9360POPC   D2A76408   0.469   5.854   6.750
 9360POPC   C3A76409   0.438   5.897   7.050
 9360POPC   C4A76410   0.448   5.854   7.350
 9360POPC   C1B76411   0.697   5.840   6.450
 9360POPC   C2B76412   0.703   5.909   6.750
 9360POPC   C3B76413   0.643   5.860   7.050
 9360POPC   C4B76414   0.712   5.883   7.350
 9361POPC   NC376415  39.215  32.296   5.550
 9361POPC   PO476416  39.278  32.277   5.850
 9361POPC   GL176417  39.182  32.224   6.150
 9361POPC   GL276418  39.193  32.396   6.150
 9361POPC   C1A76419  39.245  32.213   6.450
 9361POPC   D2A76420  39.209  32.202   6.750
 9361POPC   C3A76421  39.247  32.290   7.050
 9361POPC   C4A76422  39.208  32.252   7.350
 9361POPC   C1B76423  39.233  32.506   6.450
 9361POPC   C2B76424  39.239  32.527   6.750
 9361POPC   C3B76425  39.208  32.493   7.050
 9361POPC   C4B76426  39.292  32.455   7.350
 9362POPC   NC376427  12.058  26.081   5.550
 9362POPC   PO476428  12.104  26.019   5.850
 9362POPC   GL176429  12.113  26.081   6.150
 9362POPC   GL276430  12.222  25.954   6.150
 9362POPC   C1A76431  12.070  26.048   6.450
 9362POPC   D2A76432  12.117  26.019   6.750
 9362POPC   C3A76433  12.057  26.018   7.050
 9362POPC   C4A76434  12.125  26.085   7.350
 9362POPC   C1B76435  12.246  25.861   6.450
 9362POPC   C2B76436  12.234  25.896   6.750
 9362POPC   C3B76437  12.320  25.861   7.050
 9362POPC   C4B76438  12.324  25.922   7.350
 9363POPC   NC376439  11.273  22.946   5.550
 9363POPC   PO476440  11.341  22.901   5.850
 9363POPC   GL176441  11.313  22.954   6.150
 9363POPC   GL276442  11.392  22.932   6.150
 9363POPC   C1A76443  11.268  22.953   6.450
 9363POPC   D2A76444  11.320  22.965   6.750
 9363POPC   C3A76445  11.332  22.903   7.050
 9363POPC   C4A76446  11.261  22.906   7.350
 9363POPC   C1B76447  11.590  22.910   6.450
 9363POPC   C2B76448  11.552  22.996   6.750
 9363POPC   C3B76449  11.560  22.996   7.050
 9363POPC   C4B76450  11.546  22.994   7.350
 9364POPC   NC376451   5.112  10.553   5.550
 9364POPC   PO476452   5.103  10.514   5.850
 9364POPC   GL176453   5.139  10.543   6.150
 9364POPC   GL276454   5.062  10.642   6.150
 9364POPC   C1A76455   5.054  10.548   6.450
 9364POPC   D2A76456   5.102  10.502   6.750
 9364POPC   C3A76457   5.081  10.507   7.050
 9364POPC   C4A76458   5.087  10.486   7.350
 9364POPC   C1B76459   5.168  10.758   6.450
 9364POPC   C2B76460   5.116  10.733   6.750
 9364POPC   C3B76461   5.126  10.758   7.050
 9364POPC   C4B76462   5.150  10.780   7.350
 9365POPC   NC376463  23.721   6.684   5.550
 9365POPC   PO476464  23.758   6.598   5.850
 9365POPC   GL176465  23.739   6.667   6.150
 9365POPC   GL276466  23.607   6.531   6.150
 9365POPC   C1A76467  23.690   6.653   6.450
 9365POPC   D2A76468  23.670   6.640   6.750
 9365POPC   C3A76469  23.741   6.677   7.050
 9365POPC   C4A76470  23.747   6.636   7.350
 9365POPC   C1B76471  23.619   6.396   6.450
 9365POPC   C2B76472  23.602   6.474   6.750
 9365POPC   C3B76473  23.581   6.418   7.050
 9365POPC   C4B76474  23.624   6.394   7.350
 9366POPC   NC376475  43.088   0.481   5.550
 9366POPC   PO476476  43.154   0.473   5.850
 9366POPC   GL176477  43.073   0.464   6.150
 9366POPC   GL276478  42.980   0.505   6.150
 9366POPC   C1A76479  43.096   0.470   6.450
 9366POPC   D2A76480  43.116   0.485   6.750
 9366POPC   C3A76481  43.089   0.400   7.050
 9366POPC   C4A76482  43.152   0.426   7.350
 9366POPC   C1B76483  42.860   0.504   6.450
 9366POPC   C2B76484  42.886   0.510   6.750
 9366POPC   C3B76485  42.822   0.533   7.050
 9366POPC   C4B76486  42.917   0.479   7.350
 9367POPC   NC376487  13.644   1.165   5.550
 9367POPC   PO476488  13.627   1.200   5.850
 9367POPC   GL176489  13.672   1.231   6.150
 9367POPC   GL276490  13.535   1.271   6.150
 9367POPC   C1A76491  13.662   1.261   6.450
 9367POPC   D2A76492  13.598   1.225   6.750
 9367POPC   C3A76493  13.646   1.187   7.050
 9367POPC   C4A76494  13.648   1.197   7.350
 9367POPC   C1B76495  13.343   1.289   6.450
 9367POPC   C2B76496  13.404   1.221   6.750
 9367POPC   C3B76497  13.394   1.235   7.050
 9367POPC   C4B76498  13.343   1.223   7.350
 9368POPC   NC376499  43.091  38.471   5.550
 9368POPC   PO476500  43.115  38.458   5.850
 9368POPC   GL176501  43.072  38.478   6.150
 9368POPC   GL276502  43.196  38.576   6.150
 9368POPC   C1A76503  43.123  38.458   6.450
 9368POPC   D2A76504  43.157  38.446   6.750
 9368POPC   C3A76505  43.084  38.452   7.050
 9368POPC   C4A76506  43.103  38.409   7.350
 9368POPC   C1B76507  43.334  38.652   6.450
 9368POPC   C2B76508  43.264  38.638   6.750
 9368POPC   C3B76509  43.305  38.620   7.050
 9368POPC   C4B76510  43.338  38.600   7.350
 9369POPC   NC376511   1.942  28.327   5.550
 9369POPC   PO476512   1.979  28.417   5.850
 9369POPC   GL176513   1.965  28.349   6.150
 9369POPC   GL276514   2.155  28.347   6.150
 9369POPC   C1A76515   2.016  28.371   6.450
 9369POPC   D2A76516   1.951  28.414   6.750
 9369POPC   C3A76517   1.982  28.336   7.050
 9369POPC   C4A76518   2.031  28.333   7.350
 9369POPC   C1B76519   2.283  28.384   6.450
 9369POPC   C2B76520   2.230  28.388   6.750
 9369POPC   C3B76521   2.228  28.413   7.050
 9369POPC   C4B76522   2.240  28.442   7.350
 9370POPC   NC376523  23.671  33.789   5.550
 9370POPC   PO476524  23.716  33.826   5.850
 9370POPC   GL176525  23.672  33.843   6.150
 9370POPC   GL276526  23.641  33.901   6.150
 9370POPC   C1A76527  23.750  33.801   6.450
 9370POPC   D2A76528  23.689  33.760   6.750
 9370POPC   C3A76529  23.745  33.770   7.050
 9370POPC   C4A76530  23.732  33.771   7.350
 9370POPC   C1B76531  23.560  33.930   6.450
 9370POPC   C2B76532  23.502  33.990   6.750
 9370POPC   C3B76533  23.511  33.938   7.050
 9370POPC   C4B76534  23.512  33.929   7.350
 9371POPC   NC376535  38.407  25.218   5.550
 9371POPC   PO476536  38.424  25.280   5.850
 9371POPC   GL176537  38.412  25.222   6.150
 9371POPC   GL276538  38.470  25.338   6.150
 9371POPC   C1A76539  38.433  25.263   6.450
 9371POPC   D2A76540  38.425  25.239   6.750
 9371POPC   C3A76541  38.464  25.239   7.050
 9371POPC   C4A76542  38.501  25.226   7.350
 9371POPC   C1B76543  38.554  25.469   6.450
 9371POPC   C2B76544  38.502  25.497   6.750
 9371POPC   C3B76545  38.562  25.458   7.050
 9371POPC   C4B76546  38.537  25.518   7.350
 9372POPC   NC376547   5.828  13.606   5.550
 9372POPC   PO476548   5.893  13.599   5.850
 9372POPC   GL176549   5.862  13.609   6.150
 9372POPC   GL276550   5.977  13.602   6.150
 9372POPC   C1A76551   5.905  13.588   6.450
 9372POPC   D2A76552   5.912  13.676   6.750
 9372POPC   C3A76553   5.914  13.648   7.050
 9372POPC   C4A76554   5.892  13.652   7.350
 9372POPC   C1B76555   6.075  13.565   6.450
 9372POPC   C2B76556   6.165  13.596   6.750
 9372POPC   C3B76557   6.092  13.610   7.050
 9372POPC   C4B76558   6.132  13.621   7.350
 9373POPC   NC376559   9.767  19.814   5.550
 9373POPC   PO476560   9.707  19.865   5.850
 9373POPC   GL176561   9.793  19.803   6.150
 9373POPC   GL276562   9.636  19.699   6.150
 9373POPC   C1A76563   9.711  19.801   6.450
 9373POPC   D2A76564   9.727  19.833   6.750
 9373POPC   C3A76565   9.753  19.836   7.050
 9373POPC   C4A76566   9.778  19.802   7.350
 9373POPC   C1B76567   9.588  19.635   6.450
 9373POPC   C2B76568   9.624  19.630   6.750
 9373POPC   C3B76569   9.616  19.624   7.050
 9373POPC   C4B76570   9.613  19.604   7.350
 9374POPC   NC376571  21.407  23.753   5.550
 9374POPC   PO476572  21.427  23.701   5.850
 9374POPC   GL176573  21.402  23.754   6.150
 9374POPC   GL276574  21.368  23.828   6.150
 9374POPC   C1A76575  21.430  23.706   6.450
 9374POPC   D2A76576  21.413  23.714   6.750
 9374POPC   C3A76577  21.379  23.698   7.050
 9374POPC   C4A76578  21.344  23.690   7.350
 9374POPC   C1B76579  21.359  23.974   6.450
 9374POPC   C2B76580  21.388  23.924   6.750
 9374POPC   C3B76581  21.424  23.990   7.050
 9374POPC   C4B76582  21.364  23.927   7.350
 9375POPC   NC376583  22.195  32.250   5.550
 9375POPC   PO476584  22.185  32.264   5.850
 9375POPC   GL176585  22.182  32.257   6.150
 9375POPC   GL276586  22.068  32.387   6.150
 9375POPC   C1A76587  22.172  32.269   6.450
 9375POPC   D2A76588  22.127  32.234   6.750
 9375POPC   C3A76589  22.151  32.209   7.050
 9375POPC   C4A76590  22.170  32.209   7.350
 9375POPC   C1B76591  22.046  32.473   6.450
 9375POPC   C2B76592  22.010  32.424   6.750
 9375POPC   C3B76593  22.011  32.501   7.050
 9375POPC   C4B76594  22.052  32.436   7.350
 9376POPC   NC376595   7.450  39.188   5.550
 9376POPC   PO476596   7.378  39.185   5.850
 9376POPC   GL176597   7.432  39.271   6.150
 9376POPC   GL276598   7.325  39.318   6.150
 9376POPC   C1A76599   7.417  39.204   6.450
 9376POPC   D2A76600   7.388  39.185   6.750
 9376POPC   C3A76601   7.421  39.213   7.050
 9376POPC   C4A76602   7.378  39.271   7.350
 9376POPC   C1B76603   7.292  39.440   6.450
 9376POPC   C2B76604   7.301  39.410   6.750
 9376POPC   C3B76605   7.244  39.478   7.050
 9376POPC   C4B76606   7.316  39.417   7.350
 9377POPC   NC376607  12.038  28.376   5.550
 9377POPC   PO476608  12.104  28.350   5.850
 9377POPC   GL176609  12.098  28.379   6.150
 9377POPC   GL276610  11.983  28.377   6.150
 9377POPC   C1A76611  12.113  28.393   6.450
 9377POPC   D2A76612  12.056  28.411   6.750
 9377POPC   C3A76613  12.068  28.380   7.050
 9377POPC   C4A76614  12.073  28.326   7.350
 9377POPC   C1B76615  11.861  28.461   6.450
 9377POPC   C2B76616  11.812  28.434   6.750
 9377POPC   C3B76617  11.861  28.408   7.050
 9377POPC   C4B76618  11.870  28.454   7.350
 9378POPC   NC376619  33.817   5.088   5.550
 9378POPC   PO476620  33.774   5.102   5.850
 9378POPC   GL176621  33.813   5.065   6.150
 9378POPC   GL276622  33.663   5.151   6.150
 9378POPC   C1A76623  33.847   5.140   6.450
 9378POPC   D2A76624  33.827   5.102   6.750
 9378POPC   C3A76625  33.796   5.070   7.050
 9378POPC   C4A76626  33.789   5.097   7.350
 9378POPC   C1B76627  33.608   5.130   6.450
 9378POPC   C2B76628  33.579   5.163   6.750
 9378POPC   C3B76629  33.518   5.134   7.050
 9378POPC   C4B76630  33.603   5.180   7.350
 9379POPC   NC376631  18.311   5.855   5.550
 9379POPC   PO476632  18.322   5.880   5.850
 9379POPC   GL176633  18.252   5.898   6.150
 9379POPC   GL276634  18.144   5.892   6.150
 9379POPC   C1A76635  18.302   5.890   6.450
 9379POPC   D2A76636  18.245   5.889   6.750
 9379POPC   C3A76637  18.283   5.875   7.050
 9379POPC   C4A76638  18.307   5.906   7.350
 9379POPC   C1B76639  18.077   5.943   6.450
 9379POPC   C2B76640  18.073   6.013   6.750
 9379POPC   C3B76641  18.016   5.924   7.050
 9379POPC   C4B76642  18.007   5.974   7.350
 9380POPC   NC376643  32.999  12.096   5.550
 9380POPC   PO476644  32.987  12.044   5.850
 9380POPC   GL176645  33.032  12.054   6.150
 9380POPC   GL276646  33.077  11.991   6.150
 9380POPC   C1A76647  33.022  12.089   6.450
 9380POPC   D2A76648  32.999  12.046   6.750
 9380POPC   C3A76649  33.049  12.033   7.050
 9380POPC   C4A76650  32.991  12.124   7.350
 9380POPC   C1B76651  33.191  11.853   6.450
 9380POPC   C2B76652  33.150  11.883   6.750
 9380POPC   C3B76653  33.193  11.842   7.050
 9380POPC   C4B76654  33.201  11.834   7.350
 9381POPC   NC376655  42.330  28.382   5.550
 9381POPC   PO476656  42.290  28.408   5.850
 9381POPC   GL176657  42.351  28.361   6.150
 9381POPC   GL276658  42.194  28.293   6.150
 9381POPC   C1A76659  42.317  28.388   6.450
 9381POPC   D2A76660  42.332  28.329   6.750
 9381POPC   C3A76661  42.383  28.368   7.050
 9381POPC   C4A76662  42.351  28.405   7.350
 9381POPC   C1B76663  42.167  28.180   6.450
 9381POPC   C2B76664  42.143  28.160   6.750
 9381POPC   C3B76665  42.150  28.183   7.050
 9381POPC   C4B76666  42.184  28.221   7.350
 9382POPC   NC376667  29.937  40.751   5.550
 9382POPC   PO476668  29.896  40.778   5.850
 9382POPC   GL176669  29.915  40.757   6.150
 9382POPC   GL276670  29.800  40.850   6.150
 9382POPC   C1A76671  29.872  40.770   6.450
 9382POPC   D2A76672  29.949  40.767   6.750
 9382POPC   C3A76673  29.958  40.766   7.050
 9382POPC   C4A76674  29.954  40.751   7.350
 9382POPC   C1B76675  29.769  40.982   6.450
 9382POPC   C2B76676  29.773  41.001   6.750
 9382POPC   C3B76677  29.772  40.973   7.050
 9382POPC   C4B76678  29.760  40.953   7.350
 9383POPC   NC376679  35.304  34.540   5.550
 9383POPC   PO476680  35.386  34.544   5.850
 9383POPC   GL176681  35.328  34.528   6.150
 9383POPC   GL276682  35.242  34.645   6.150
 9383POPC   C1A76683  35.322  34.555   6.450
 9383POPC   D2A76684  35.332  34.547   6.750
 9383POPC   C3A76685  35.331  34.558   7.050
 9383POPC   C4A76686  35.374  34.593   7.350
 9383POPC   C1B76687  35.224  34.766   6.450
 9383POPC   C2B76688  35.198  34.730   6.750
 9383POPC   C3B76689  35.186  34.769   7.050
 9383POPC   C4B76690  35.244  34.773   7.350
 9384POPC   NC376691   3.584  41.554   5.550
 9384POPC   PO476692   3.526  41.591   5.850
 9384POPC   GL176693   3.540  41.510   6.150
 9384POPC   GL276694   3.649  41.422   6.150
 9384POPC   C1A76695   3.571  41.560   6.450
 9384POPC   D2A76696   3.586  41.609   6.750
 9384POPC   C3A76697   3.577  41.521   7.050
 9384POPC   C4A76698   3.571  41.529   7.350
 9384POPC   C1B76699   3.731  41.396   6.450
 9384POPC   C2B76700   3.679  41.374   6.750
 9384POPC   C3B76701   3.729  41.355   7.050
 9384POPC   C4B76702   3.689  41.329   7.350
 9385POPC   NC376703  18.242   4.328   5.550
 9385POPC   PO476704  18.275   4.322   5.850
 9385POPC   GL176705  18.251   4.317   6.150
 9385POPC   GL276706  18.429   4.323   6.150
 9385POPC   C1A76707  18.333   4.271   6.450
 9385POPC   D2A76708  18.297   4.331   6.750
 9385POPC   C3A76709  18.257   4.276   7.050
 9385POPC   C4A76710  18.256   4.316   7.350
 9385POPC   C1B76711  18.492   4.242   6.450
 9385POPC   C2B76712  18.517   4.313   6.750
 9385POPC   C3B76713  18.505   4.315   7.050
 9385POPC   C4B76714  18.488   4.316   7.350
 9386POPC   NC376715  16.748  30.744   5.550
 9386POPC   PO476716  16.724  30.735   5.850
 9386POPC   GL176717  16.709  30.665   6.150
 9386POPC   GL276718  16.844  30.677   6.150
 9386POPC   C1A76719  16.767  30.714   6.450
 9386POPC   D2A76720  16.694  30.692   6.750
 9386POPC   C3A76721  16.720  30.719   7.050
 9386POPC   C4A76722  16.776  30.665   7.350
 9386POPC   C1B76723  16.941  30.793   6.450
 9386POPC   C2B76724  16.967  30.748   6.750
 9386POPC   C3B76725  16.945  30.735   7.050
 9386POPC   C4B76726  17.015  30.708   7.350
 9387POPC   NC376727   5.051  40.771   5.550
 9387POPC   PO476728   5.125  40.755   5.850
 9387POPC   GL176729   5.070  40.819   6.150
 9387POPC   GL276730   5.215  40.809   6.150
 9387POPC   C1A76731   5.054  40.753   6.450
 9387POPC   D2A76732   5.047  40.824   6.750
 9387POPC   C3A76733   5.073  40.805   7.050
 9387POPC   C4A76734   5.124  40.781   7.350
 9387POPC   C1B76735   5.312  40.861   6.450
 9387POPC   C2B76736   5.363  40.778   6.750
 9387POPC   C3B76737   5.346  40.826   7.050
 9387POPC   C4B76738   5.348  40.866   7.350
 9388POPC   NC376739  26.814   6.688   5.550
 9388POPC   PO476740  26.789   6.687   5.850
 9388POPC   GL176741  26.851   6.674   6.150
 9388POPC   GL276742  26.674   6.709   6.150
 9388POPC   C1A76743  26.816   6.644   6.450
 9388POPC   D2A76744  26.864   6.693   6.750
 9388POPC   C3A76745  26.825   6.615   7.050
 9388POPC   C4A76746  26.845   6.682   7.350
 9388POPC   C1B76747  26.636   6.813   6.450
 9388POPC   C2B76748  26.636   6.814   6.750
 9388POPC   C3B76749  26.623   6.809   7.050
 9388POPC   C4B76750  26.653   6.803   7.350
 9389POPC   NC376751  15.175  32.253   5.550
 9389POPC   PO476752  15.195  32.256   5.850
 9389POPC   GL176753  15.137  32.245   6.150
 9389POPC   GL276754  15.334  32.171   6.150
 9389POPC   C1A76755  15.176  32.217   6.450
 9389POPC   D2A76756  15.130  32.282   6.750
 9389POPC   C3A76757  15.132  32.276   7.050
 9389POPC   C4A76758  15.161  32.290   7.350
 9389POPC   C1B76759  15.436  32.157   6.450
 9389POPC   C2B76760  15.429  32.165   6.750
 9389POPC   C3B76761  15.386  32.102   7.050
 9389POPC   C4B76762  15.373  32.150   7.350
 9390POPC   NC376763  21.417  44.668   5.550
 9390POPC   PO476764  21.408  44.646   5.850
 9390POPC   GL176765  21.354  44.628   6.150
 9390POPC   GL276766  21.305  44.718   6.150
 9390POPC   C1A76767  21.404  44.636   6.450
 9390POPC   D2A76768  21.392  44.616   6.750
 9390POPC   C3A76769  21.376  44.615   7.050
 9390POPC   C4A76770  21.424  44.706   7.350
 9390POPC   C1B76771  21.158  44.809   6.450
 9390POPC   C2B76772  21.191  44.795   6.750
 9390POPC   C3B76773  21.141  44.782   7.050
 9390POPC   C4B76774  21.198  44.749   7.350
 9391POPC   NC376775  24.456  36.864   5.550
 9391POPC   PO476776  24.476  36.894   5.850
 9391POPC   GL176777  24.451  36.861   6.150
 9391POPC   GL276778  24.351  36.862   6.150
 9391POPC   C1A76779  24.492  36.899   6.450
 9391POPC   D2A76780  24.455  36.860   6.750
 9391POPC   C3A76781  24.500  36.928   7.050
 9391POPC   C4A76782  24.441  36.913   7.350
 9391POPC   C1B76783  24.276  36.884   6.450
 9391POPC   C2B76784  24.222  36.887   6.750
 9391POPC   C3B76785  24.222  36.910   7.050
 9391POPC   C4B76786  24.268  36.909   7.350
 9392POPC   NC376787  35.397   5.854   5.550
 9392POPC   PO476788  35.307   5.858   5.850
 9392POPC   GL176789  35.338   5.836   6.150
 9392POPC   GL276790  35.477   5.790   6.150
 9392POPC   C1A76791  35.359   5.879   6.450
 9392POPC   D2A76792  35.368   5.902   6.750
 9392POPC   C3A76793  35.313   5.918   7.050
 9392POPC   C4A76794  35.326   5.912   7.350
 9392POPC   C1B76795  35.619   5.747   6.450
 9392POPC   C2B76796  35.572   5.783   6.750
 9392POPC   C3B76797  35.610   5.769   7.050
 9392POPC   C4B76798  35.599   5.734   7.350
 9393POPC   NC376799  21.359  43.113   5.550
 9393POPC   PO476800  21.365  43.086   5.850
 9393POPC   GL176801  21.342  43.109   6.150
 9393POPC   GL276802  21.375  43.229   6.150
 9393POPC   C1A76803  21.347  43.106   6.450
 9393POPC   D2A76804  21.355  43.060   6.750
 9393POPC   C3A76805  21.431  43.081   7.050
 9393POPC   C4A76806  21.424  43.097   7.350
 9393POPC   C1B76807  21.332  43.311   6.450
 9393POPC   C2B76808  21.368  43.398   6.750
 9393POPC   C3B76809  21.339  43.347   7.050
 9393POPC   C4B76810  21.320  43.331   7.350
 9394POPC   NC376811   6.636   7.466   5.550
 9394POPC   PO476812   6.596   7.382   5.850
 9394POPC   GL176813   6.642   7.449   6.150
 9394POPC   GL276814   6.669   7.282   6.150
 9394POPC   C1A76815   6.682   7.423   6.450
 9394POPC   D2A76816   6.642   7.410   6.750
 9394POPC   C3A76817   6.610   7.419   7.050
 9394POPC   C4A76818   6.646   7.424   7.350
 9394POPC   C1B76819   6.627   7.146   6.450
 9394POPC   C2B76820   6.615   7.204   6.750
 9394POPC   C3B76821   6.628   7.190   7.050
 9394POPC   C4B76822   6.699   7.184   7.350
 9395POPC   NC376823   9.002  33.067   5.550
 9395POPC   PO476824   9.011  32.989   5.850
 9395POPC   GL176825   8.964  32.981   6.150
 9395POPC   GL276826   9.041  33.130   6.150
 9395POPC   C1A76827   9.013  33.068   6.450
 9395POPC   D2A76828   9.007  32.976   6.750
 9395POPC   C3A76829   8.981  33.032   7.050
 9395POPC   C4A76830   8.961  33.070   7.350
 9395POPC   C1B76831   9.148  33.214   6.450
 9395POPC   C2B76832   9.089  33.209   6.750
 9395POPC   C3B76833   9.165  33.242   7.050
 9395POPC   C4B76834   9.151  33.202   7.350
 9396POPC   NC376835  38.448   2.037   5.550
 9396POPC   PO476836  38.428   2.004   5.850
 9396POPC   GL176837  38.445   2.025   6.150
 9396POPC   GL276838  38.463   2.140   6.150
 9396POPC   C1A76839  38.416   2.000   6.450
 9396POPC   D2A76840  38.412   2.036   6.750
 9396POPC   C3A76841  38.431   1.971   7.050
 9396POPC   C4A76842  38.473   1.995   7.350
 9396POPC   C1B76843  38.465   2.199   6.450
 9396POPC   C2B76844  38.462   2.239   6.750
 9396POPC   C3B76845  38.442   2.287   7.050
 9396POPC   C4B76846  38.446   2.284   7.350
 9397POPC   NC376847  28.331   8.206   5.550
 9397POPC   PO476848  28.388   8.163   5.850
 9397POPC   GL176849  28.358   8.189   6.150
 9397POPC   GL276850  28.514   8.242   6.150
 9397POPC   C1A76851  28.384   8.155   6.450
 9397POPC   D2A76852  28.358   8.203   6.750
 9397POPC   C3A76853  28.368   8.185   7.050
 9397POPC   C4A76854  28.351   8.172   7.350
 9397POPC   C1B76855  28.606   8.372   6.450
 9397POPC   C2B76856  28.572   8.304   6.750
 9397POPC   C3B76857  28.536   8.375   7.050
 9397POPC   C4B76858  28.551   8.378   7.350
 9398POPC   NC376859   6.603   1.223   5.550
 9398POPC   PO476860   6.673   1.243   5.850
 9398POPC   GL176861   6.652   1.165   6.150
 9398POPC   GL276862   6.566   1.239   6.150
 9398POPC   C1A76863   6.606   1.228   6.450
 9398POPC   D2A76864   6.667   1.251   6.750
 9398POPC   C3A76865   6.611   1.168   7.050
 9398POPC   C4A76866   6.616   1.235   7.350
 9398POPC   C1B76867   6.428   1.397   6.450
 9398POPC   C2B76868   6.479   1.370   6.750
 9398POPC   C3B76869   6.474   1.348   7.050
 9398POPC   C4B76870   6.463   1.315   7.350
 9399POPC   NC376871  27.598  18.331   5.550
 9399POPC   PO476872  27.613  18.281   5.850
 9399POPC   GL176873  27.637  18.292   6.150
 9399POPC   GL276874  27.556  18.158   6.150
 9399POPC   C1A76875  27.577  18.276   6.450
 9399POPC   D2A76876  27.572  18.234   6.750
 9399POPC   C3A76877  27.556  18.243   7.050
 9399POPC   C4A76878  27.557  18.302   7.350
 9399POPC   C1B76879  27.536  18.034   6.450
 9399POPC   C2B76880  27.569  18.048   6.750
 9399POPC   C3B76881  27.536  18.044   7.050
 9399POPC   C4B76882  27.601  18.016   7.350
 9400POPC   NC376883  38.493  15.960   5.550
 9400POPC   PO476884  38.427  15.977   5.850
 9400POPC   GL176885  38.454  15.951   6.150
 9400POPC   GL276886  38.447  15.807   6.150
 9400POPC   C1A76887  38.455  15.963   6.450
 9400POPC   D2A76888  38.436  15.978   6.750
 9400POPC   C3A76889  38.472  15.959   7.050
 9400POPC   C4A76890  38.500  15.970   7.350
 9400POPC   C1B76891  38.399  15.733   6.450
 9400POPC   C2B76892  38.367  15.686   6.750
 9400POPC   C3B76893  38.447  15.729   7.050
 9400POPC   C4B76894  38.362  15.748   7.350
 9401POPC   NC376895  40.771   0.407   5.550
 9401POPC   PO476896  40.748   0.430   5.850
 9401POPC   GL176897  40.788   0.451   6.150
 9401POPC   GL276898  40.846   0.346   6.150
 9401POPC   C1A76899  40.788   0.443   6.450
 9401POPC   D2A76900  40.780   0.418   6.750
 9401POPC   C3A76901  40.811   0.418   7.050
 9401POPC   C4A76902  40.813   0.462   7.350
 9401POPC   C1B76903  40.945   0.279   6.450
 9401POPC   C2B76904  40.943   0.242   6.750
 9401POPC   C3B76905  40.935   0.221   7.050
 9401POPC   C4B76906  40.984   0.206   7.350
 9402POPC   NC376907  32.250  22.966   5.550
 9402POPC   PO476908  32.266  22.935   5.850
 9402POPC   GL176909  32.220  22.959   6.150
 9402POPC   GL276910  32.206  22.784   6.150
 9402POPC   C1A76911  32.253  22.914   6.450
 9402POPC   D2A76912  32.289  22.891   6.750
 9402POPC   C3A76913  32.261  22.910   7.050
 9402POPC   C4A76914  32.281  22.913   7.350
 9402POPC   C1B76915  32.175  22.692   6.450
 9402POPC   C2B76916  32.213  22.664   6.750
 9402POPC   C3B76917  32.176  22.691   7.050
 9402POPC   C4B76918  32.170  22.689   7.350
 9403POPC   NC376919   1.198  27.616   5.550
 9403POPC   PO476920   1.207  27.580   5.850
 9403POPC   GL176921   1.217  27.551   6.150
 9403POPC   GL276922   1.372  27.649   6.150
 9403POPC   C1A76923   1.236  27.623   6.450
 9403POPC   D2A76924   1.184  27.641   6.750
 9403POPC   C3A76925   1.250  27.642   7.050
 9403POPC   C4A76926   1.245  27.618   7.350
 9403POPC   C1B76927   1.470  27.704   6.450
 9403POPC   C2B76928   1.414  27.685   6.750
 9403POPC   C3B76929   1.476  27.694   7.050
 9403POPC   C4B76930   1.481  27.744   7.350
 9404POPC   NC376931   2.780   8.965   5.550
 9404POPC   PO476932   2.794   8.998   5.850
 9404POPC   GL176933   2.738   8.927   6.150
 9404POPC   GL276934   2.858   8.989   6.150
 9404POPC   C1A76935   2.735   8.963   6.450
 9404POPC   D2A76936   2.769   9.000   6.750
 9404POPC   C3A76937   2.723   8.926   7.050
 9404POPC   C4A76938   2.781   9.016   7.350
 9404POPC   C1B76939   2.965   8.912   6.450
 9404POPC   C2B76940   2.985   8.929   6.750
 9404POPC   C3B76941   3.021   8.909   7.050
 9404POPC   C4B76942   3.040   8.875   7.350
 9405POPC   NC376943  22.910  40.809   5.550
 9405POPC   PO476944  22.944  40.805   5.850
 9405POPC   GL176945  22.912  40.804   6.150
 9405POPC   GL276946  23.037  40.828   6.150
 9405POPC   C1A76947  22.962  40.777   6.450
 9405POPC   D2A76948  22.906  40.795   6.750
 9405POPC   C3A76949  22.957  40.773   7.050
 9405POPC   C4A76950  22.924  40.770   7.350
 9405POPC   C1B76951  23.187  40.817   6.450
 9405POPC   C2B76952  23.163  40.782   6.750
 9405POPC   C3B76953  23.229  40.841   7.050
 9405POPC   C4B76954  23.146  40.763   7.350
 9406POPC   NC376955  40.832  43.934   5.550
 9406POPC   PO476956  40.736  43.906   5.850
 9406POPC   GL176957  40.781  43.857   6.150
 9406POPC   GL276958  40.691  43.939   6.150
 9406POPC   C1A76959  40.808  43.929   6.450
 9406POPC   D2A76960  40.810  43.885   6.750
 9406POPC   C3A76961  40.795  43.878   7.050
 9406POPC   C4A76962  40.798  43.922   7.350
 9406POPC   C1B76963  40.662  44.127   6.450
 9406POPC   C2B76964  40.642  44.061   6.750
 9406POPC   C3B76965  40.657  44.068   7.050
 9406POPC   C4B76966  40.671  44.057   7.350
 9407POPC   NC376967  22.948  27.560   5.550
 9407POPC   PO476968  22.940  27.568   5.850
 9407POPC   GL176969  22.923  27.556   6.150
 9407POPC   GL276970  22.863  27.566   6.150
 9407POPC   C1A76971  22.955  27.630   6.450
 9407POPC   D2A76972  22.941  27.624   6.750
 9407POPC   C3A76973  22.928  27.612   7.050
 9407POPC   C4A76974  22.962  27.620   7.350
 9407POPC   C1B76975  22.676  27.511   6.450
 9407POPC   C2B76976  22.647  27.509   6.750
 9407POPC   C3B76977  22.741  27.488   7.050
 9407POPC   C4B76978  22.687  27.531   7.350
 9408POPC   NC376979  43.064   9.756   5.550
 9408POPC   PO476980  43.152   9.751   5.850
 9408POPC   GL176981  43.156   9.718   6.150
 9408POPC   GL276982  43.176   9.902   6.150
 9408POPC   C1A76983  43.119   9.732   6.450
 9408POPC   D2A76984  43.096   9.708   6.750
 9408POPC   C3A76985  43.112   9.738   7.050
 9408POPC   C4A76986  43.144   9.724   7.350
 9408POPC   C1B76987  43.156   9.999   6.450
 9408POPC   C2B76988  43.190   9.989   6.750
 9408POPC   C3B76989  43.227   9.992   7.050
 9408POPC   C4B76990  43.213  10.027   7.350
 9409POPC   NC376991   1.233   2.004   5.550
 9409POPC   PO476992   1.176   1.946   5.850
 9409POPC   GL176993   1.247   2.033   6.150
 9409POPC   GL276994   1.250   1.872   6.150
 9409POPC   C1A76995   1.231   1.986   6.450
 9409POPC   D2A76996   1.259   2.034   6.750
 9409POPC   C3A76997   1.176   2.032   7.050
 9409POPC   C4A76998   1.227   1.994   7.350
 9409POPC   C1B76999   1.267   1.755   6.450
 9409POPC   C2B77000   1.261   1.790   6.750
 9409POPC   C3B77001   1.274   1.729   7.050
 9409POPC   C4B77002   1.217   1.760   7.350
 9410POPC   NC377003  43.108  44.641   5.550
 9410POPC   PO477004  43.090  44.617   5.850
 9410POPC   GL177005  43.160  44.700   6.150
 9410POPC   GL277006  43.000  44.575   6.150
 9410POPC   C1A77007  43.095  44.657   6.450
 9410POPC   D2A77008  43.112  44.710   6.750
 9410POPC   C3A77009  43.124  44.619   7.050
 9410POPC   C4A77010  43.124  44.632   7.350
 9410POPC   C1B77011  42.945  44.439   6.450
 9410POPC   C2B77012  42.896  44.521   6.750
 9410POPC   C3B77013  42.974  44.440   7.050
 9410POPC   C4B77014  42.979  44.526   7.350
 9411POPC   NC377015  41.546   7.376   5.550
 9411POPC   PO477016  41.513   7.394   5.850
 9411POPC   GL177017  41.518   7.413   6.150
 9411POPC   GL277018  41.479   7.426   6.150
 9411POPC   C1A77019  41.560   7.435   6.450
 9411POPC   D2A77020  41.581   7.391   6.750
 9411POPC   C3A77021  41.588   7.420   7.050
 9411POPC   C4A77022  41.514   7.457   7.350
 9411POPC   C1B77023  41.272   7.478   6.450
 9411POPC   C2B77024  41.294   7.481   6.750
 9411POPC   C3B77025  41.287   7.480   7.050
 9411POPC   C4B77026  41.355   7.411   7.350
 9412POPC   NC377027  19.799  43.076   5.550
 9412POPC   PO477028  19.816  43.123   5.850
 9412POPC   GL177029  19.824  43.113   6.150
 9412POPC   GL277030  19.958  43.136   6.150
 9412POPC   C1A77031  19.868  43.123   6.450
 9412POPC   D2A77032  19.801  43.070   6.750
 9412POPC   C3A77033  19.852  43.124   7.050
 9412POPC   C4A77034  19.826  43.158   7.350
 9412POPC   C1B77035  20.113  43.236   6.450
 9412POPC   C2B77036  20.112  43.236   6.750
 9412POPC   C3B77037  20.036  43.191   7.050
 9412POPC   C4B77038  20.091  43.235   7.350
 9413POPC   NC377039  43.903  43.095   5.550
 9413POPC   PO477040  43.932  43.085   5.850
 9413POPC   GL177041  43.929  43.104   6.150
 9413POPC   GL277042  43.953  42.974   6.150
 9413POPC   C1A77043  43.845  43.146   6.450
 9413POPC   D2A77044  43.842  43.072   6.750
 9413POPC   C3A77045  43.898  43.145   7.050
 9413POPC   C4A77046  43.864  43.062   7.350
 9413POPC   C1B77047  44.052  42.962   6.450
 9413POPC   C2B77048  44.033  42.977   6.750
 9413POPC   C3B77049  44.092  42.925   7.050
 9413POPC   C4B77050  44.078  42.934   7.350
 9414POPC   NC377051  34.552  15.963   5.550
 9414POPC   PO477052  34.529  15.999   5.850
 9414POPC   GL177053  34.612  15.995   6.150
 9414POPC   GL277054  34.647  16.117   6.150
 9414POPC   C1A77055  34.609  16.004   6.450
 9414POPC   D2A77056  34.610  16.002   6.750
 9414POPC   C3A77057  34.616  16.005   7.050
 9414POPC   C4A77058  34.609  15.930   7.350
 9414POPC   C1B77059  34.662  16.188   6.450
 9414POPC   C2B77060  34.689  16.152   6.750
 9414POPC   C3B77061  34.660  16.162   7.050
 9414POPC   C4B77062  34.637  16.237   7.350
 9415POPC   NC377063  10.509  32.992   5.550
 9415POPC   PO477064  10.485  33.036   5.850
 9415POPC   GL177065  10.543  33.064   6.150
 9415POPC   GL277066  10.445  32.916   6.150
 9415POPC   C1A77067  10.566  33.037   6.450
 9415POPC   D2A77068  10.486  33.015   6.750
 9415POPC   C3A77069  10.552  32.994   7.050
 9415POPC   C4A77070  10.554  33.018   7.350
 9415POPC   C1B77071  10.450  32.813   6.450
 9415POPC   C2B77072  10.458  32.822   6.750
 9415POPC   C3B77073  10.453  32.753   7.050
 9415POPC   C4B77074  10.461  32.750   7.350
 9416POPC   NC377075  14.403  12.116   5.550
 9416POPC   PO477076  14.396  12.048   5.850
 9416POPC   GL177077  14.386  12.123   6.150
 9416POPC   GL277078  14.302  11.970   6.150
 9416POPC   C1A77079  14.409  12.105   6.450
 9416POPC   D2A77080  14.359  12.113   6.750
 9416POPC   C3A77081  14.440  12.094   7.050
 9416POPC   C4A77082  14.408  12.039   7.350
 9416POPC   C1B77083  14.199  11.915   6.450
 9416POPC   C2B77084  14.202  11.838   6.750
 9416POPC   C3B77085  14.228  11.876   7.050
 9416POPC   C4B77086  14.270  11.843   7.350
 9417POPC   NC377087  11.285  15.183   5.550
 9417POPC   PO477088  11.279  15.147   5.850
 9417POPC   GL177089  11.272  15.137   6.150
 9417POPC   GL277090  11.218  15.194   6.150
 9417POPC   C1A77091  11.311  15.181   6.450
 9417POPC   D2A77092  11.340  15.163   6.750
 9417POPC   C3A77093  11.343  15.194   7.050
 9417POPC   C4A77094  11.298  15.227   7.350
 9417POPC   C1B77095  11.066  15.270   6.450
 9417POPC   C2B77096  11.056  15.283   6.750
 9417POPC   C3B77097  11.099  15.262   7.050
 9417POPC   C4B77098  11.031  15.232   7.350
 9418POPC   NC377099  21.422  36.083   5.550
 9418POPC   PO477100  21.397  36.092   5.850
 9418POPC   GL177101  21.365  36.102   6.150
 9418POPC   GL277102  21.494  36.061   6.150
 9418POPC   C1A77103  21.349  36.143   6.450
 9418POPC   D2A77104  21.382  36.086   6.750
 9418POPC   C3A77105  21.361  36.111   7.050
 9418POPC   C4A77106  21.349  36.101   7.350
 9418POPC   C1B77107  21.676  36.055   6.450
 9418POPC   C2B77108  21.666  36.064   6.750
 9418POPC   C3B77109  21.647  36.116   7.050
 9418POPC   C4B77110  21.647  36.060   7.350
 9419POPC   NC377111   4.293   9.739   5.550
 9419POPC   PO477112   4.358   9.740   5.850
 9419POPC   GL177113   4.309   9.744   6.150
 9419POPC   GL277114   4.176   9.809   6.150
 9419POPC   C1A77115   4.316   9.730   6.450
 9419POPC   D2A77116   4.318   9.746   6.750
 9419POPC   C3A77117   4.270   9.703   7.050
 9419POPC   C4A77118   4.267   9.731   7.350
 9419POPC   C1B77119   4.089   9.810   6.450
 9419POPC   C2B77120   4.080   9.822   6.750
 9419POPC   C3B77121   4.064   9.846   7.050
 9419POPC   C4B77122   4.126   9.792   7.350
 9420POPC   NC377123   8.203  12.855   5.550
 9420POPC   PO477124   8.213  12.852   5.850
 9420POPC   GL177125   8.169  12.829   6.150
 9420POPC   GL277126   8.223  12.732   6.150
 9420POPC   C1A77127   8.162  12.867   6.450
 9420POPC   D2A77128   8.204  12.898   6.750
 9420POPC   C3A77129   8.246  12.900   7.050
 9420POPC   C4A77130   8.181  12.842   7.350
 9420POPC   C1B77131   8.329  12.600   6.450
 9420POPC   C2B77132   8.242  12.582   6.750
 9420POPC   C3B77133   8.303  12.661   7.050
 9420POPC   C4B77134   8.255  12.620   7.350
 9421POPC   NC377135  15.207  29.963   5.550
 9421POPC   PO477136  15.173  29.966   5.850
 9421POPC   GL177137  15.206  29.961   6.150
 9421POPC   GL277138  15.324  29.935   6.150
 9421POPC   C1A77139  15.157  29.962   6.450
 9421POPC   D2A77140  15.202  29.909   6.750
 9421POPC   C3A77141  15.221  29.892   7.050
 9421POPC   C4A77142  15.150  29.953   7.350
 9421POPC   C1B77143  15.435  30.020   6.450
 9421POPC   C2B77144  15.414  29.955   6.750
 9421POPC   C3B77145  15.456  29.957   7.050
 9421POPC   C4B77146  15.386  29.997   7.350
 9422POPC   NC377147  44.636  27.639   5.550
 9422POPC   PO477148  44.680  27.579   5.850
 9422POPC   GL177149  44.615  27.591   6.150
 9422POPC   GL277150  44.541  27.533   6.150
 9422POPC   C1A77151  44.670  27.625   6.450
 9422POPC   D2A77152  44.696  27.599   6.750
 9422POPC   C3A77153  44.665  27.572   7.050
 9422POPC   C4A77154  44.657  27.573   7.350
 9422POPC   C1B77155  44.467  27.515   6.450
 9422POPC   C2B77156  44.474  27.469   6.750
 9422POPC   C3B77157  44.484  27.479   7.050
 9422POPC   C4B77158  44.422  27.475   7.350
 9423POPC   NC377159   4.305  32.215   5.550
 9423POPC   PO477160   4.360  32.260   5.850
 9423POPC   GL177161   4.342  32.246   6.150
 9423POPC   GL277162   4.394  32.315   6.150
 9423POPC   C1A77163   4.300  32.258   6.450
 9423POPC   D2A77164   4.307  32.226   6.750
 9423POPC   C3A77165   4.285  32.263   7.050
 9423POPC   C4A77166   4.343  32.204   7.350
 9423POPC   C1B77167   4.488  32.491   6.450
 9423POPC   C2B77168   4.471  32.471   6.750
 9423POPC   C3B77169   4.442  32.435   7.050
 9423POPC   C4B77170   4.474  32.493   7.350
 9424POPC   NC377171  42.328  19.076   5.550
 9424POPC   PO477172  42.379  19.040   5.850
 9424POPC   GL177173  42.379  19.107   6.150
 9424POPC   GL277174  42.418  19.050   6.150
 9424POPC   C1A77175  42.321  19.012   6.450
 9424POPC   D2A77176  42.340  19.013   6.750
 9424POPC   C3A77177  42.333  19.012   7.050
 9424POPC   C4A77178  42.292  19.043   7.350
 9424POPC   C1B77179  42.544  18.931   6.450
 9424POPC   C2B77180  42.616  18.970   6.750
 9424POPC   C3B77181  42.573  18.983   7.050
 9424POPC   C4B77182  42.619  18.966   7.350
 9425POPC   NC377183  41.520  20.602   5.550
 9425POPC   PO477184  41.576  20.650   5.850
 9425POPC   GL177185  41.553  20.592   6.150
 9425POPC   GL277186  41.442  20.680   6.150
 9425POPC   C1A77187  41.550  20.629   6.450
 9425POPC   D2A77188  41.565  20.621   6.750
 9425POPC   C3A77189  41.604  20.571   7.050
 9425POPC   C4A77190  41.570  20.605   7.350
 9425POPC   C1B77191  41.336  20.708   6.450
 9425POPC   C2B77192  41.366  20.726   6.750
 9425POPC   C3B77193  41.329  20.659   7.050
 9425POPC   C4B77194  41.364  20.666   7.350
 9426POPC   NC377195   8.220  15.975   5.550
 9426POPC   PO477196   8.152  15.999   5.850
 9426POPC   GL177197   8.199  15.924   6.150
 9426POPC   GL277198   8.316  15.888   6.150
 9426POPC   C1A77199   8.228  15.994   6.450
 9426POPC   D2A77200   8.187  15.923   6.750
 9426POPC   C3A77201   8.186  15.978   7.050
 9426POPC   C4A77202   8.198  15.992   7.350
 9426POPC   C1B77203   8.358  15.756   6.450
 9426POPC   C2B77204   8.405  15.797   6.750
 9426POPC   C3B77205   8.333  15.776   7.050
 9426POPC   C4B77206   8.371  15.752   7.350
 9427POPC   NC377207  36.917   1.222   5.550
 9427POPC   PO477208  36.936   1.227   5.850
 9427POPC   GL177209  36.912   1.183   6.150
 9427POPC   GL277210  36.924   1.382   6.150
 9427POPC   C1A77211  36.936   1.182   6.450
 9427POPC   D2A77212  36.944   1.189   6.750
 9427POPC   C3A77213  36.870   1.227   7.050
 9427POPC   C4A77214  36.921   1.168   7.350
 9427POPC   C1B77215  36.983   1.433   6.450
 9427POPC   C2B77216  36.950   1.443   6.750
 9427POPC   C3B77217  37.011   1.417   7.050
 9427POPC   C4B77218  36.928   1.463   7.350
 9428POPC   NC377219   0.410  19.065   5.550
 9428POPC   PO477220   0.475  19.062   5.850
 9428POPC   GL177221   0.457  19.044   6.150
 9428POPC   GL277222   0.534  19.052   6.150
 9428POPC   C1A77223   0.443  19.022   6.450
 9428POPC   D2A77224   0.418  19.052   6.750
 9428POPC   C3A77225   0.437  19.079   7.050
 9428POPC   C4A77226   0.463  19.048   7.350
 9428POPC   C1B77227   0.643  18.995   6.450
 9428POPC   C2B77228   0.643  18.994   6.750
 9428POPC   C3B77229   0.687  19.050   7.050
 9428POPC   C4B77230   0.649  19.015   7.350
 9429POPC   NC377231   5.053   5.825   5.550
 9429POPC   PO477232   5.083   5.827   5.850
 9429POPC   GL177233   5.099   5.878   6.150
 9429POPC   GL277234   4.954   5.862   6.150
 9429POPC   C1A77235   5.141   5.854   6.450
 9429POPC   D2A77236   5.059   5.822   6.750
 9429POPC   C3A77237   5.085   5.875   7.050
 9429POPC   C4A77238   5.093   5.888   7.350
 9429POPC   C1B77239   4.821   5.747   6.450
 9429POPC   C2B77240   4.839   5.808   6.750
 9429POPC   C3B77241   4.891   5.812   7.050
 9429POPC   C4B77242   4.819   5.740   7.350
 9430POPC   NC377243   5.820   9.016   5.550
 9430POPC   PO477244   5.896   9.013   5.850
 9430POPC   GL177245   5.844   9.007   6.150
 9430POPC   GL277246   5.827   8.853   6.150
 9430POPC   C1A77247   5.905   9.022   6.450
 9430POPC   D2A77248   5.820   8.933   6.750
 9430POPC   C3A77249   5.879   9.017   7.050
 9430POPC   C4A77250   5.847   8.998   7.350
 9430POPC   C1B77251   5.890   8.742   6.450
 9430POPC   C2B77252   5.886   8.674   6.750
 9430POPC   C3B77253   5.853   8.737   7.050
 9430POPC   C4B77254   5.830   8.767   7.350
 9431POPC   NC377255  18.263  40.828   5.550
 9431POPC   PO477256  18.312  40.750   5.850
 9431POPC   GL177257  18.240  40.795   6.150
 9431POPC   GL277258  18.117  40.811   6.150
 9431POPC   C1A77259  18.249  40.790   6.450
 9431POPC   D2A77260  18.266  40.822   6.750
 9431POPC   C3A77261  18.310  40.832   7.050
 9431POPC   C4A77262  18.317  40.767   7.350
 9431POPC   C1B77263  18.008  40.845   6.450
 9431POPC   C2B77264  18.047  40.764   6.750
 9431POPC   C3B77265  18.068  40.838   7.050
 9431POPC   C4B77266  18.027  40.781   7.350
 9432POPC   NC377267  35.323  21.410   5.550
 9432POPC   PO477268  35.339  21.361   5.850
 9432POPC   GL177269  35.384  21.396   6.150
 9432POPC   GL277270  35.323  21.525   6.150
 9432POPC   C1A77271  35.370  21.362   6.450
 9432POPC   D2A77272  35.385  21.388   6.750
 9432POPC   C3A77273  35.346  21.336   7.050
 9432POPC   C4A77274  35.397  21.349   7.350
 9432POPC   C1B77275  35.258  21.572   6.450
 9432POPC   C2B77276  35.213  21.604   6.750
 9432POPC   C3B77277  35.264  21.601   7.050
 9432POPC   C4B77278  35.194  21.631   7.350
 9433POPC   NC377279  36.933   5.050   5.550
 9433POPC   PO477280  36.927   5.048   5.850
 9433POPC   GL177281  36.949   5.091   6.150
 9433POPC   GL277282  36.777   5.174   6.150
 9433POPC   C1A77283  36.914   5.055   6.450
 9433POPC   D2A77284  36.915   5.131   6.750
 9433POPC   C3A77285  36.857   5.119   7.050
 9433POPC   C4A77286  36.927   5.127   7.350
 9433POPC   C1B77287  36.692   5.209   6.450
 9433POPC   C2B77288  36.677   5.208   6.750
 9433POPC   C3B77289  36.647   5.162   7.050
 9433POPC   C4B77290  36.651   5.146   7.350
 9434POPC   NC377291  26.034  14.367   5.550
 9434POPC   PO477292  26.075  14.450   5.850
 9434POPC   GL177293  26.062  14.431   6.150
 9434POPC   GL277294  26.091  14.305   6.150
 9434POPC   C1A77295  26.009  14.433   6.450
 9434POPC   D2A77296  25.999  14.425   6.750
 9434POPC   C3A77297  26.002  14.438   7.050
 9434POPC   C4A77298  26.070  14.388   7.350
 9434POPC   C1B77299  26.185  14.196   6.450
 9434POPC   C2B77300  26.206  14.230   6.750
 9434POPC   C3B77301  26.238  14.278   7.050
 9434POPC   C4B77302  26.199  14.266   7.350
 9435POPC   NC377303  43.085  20.611   5.550
 9435POPC   PO477304  43.117  20.615   5.850
 9435POPC   GL177305  43.083  20.638   6.150
 9435POPC   GL277306  43.010  20.507   6.150
 9435POPC   C1A77307  43.071  20.654   6.450
 9435POPC   D2A77308  43.132  20.607   6.750
 9435POPC   C3A77309  43.089  20.593   7.050
 9435POPC   C4A77310  43.114  20.642   7.350
 9435POPC   C1B77311  42.997  20.355   6.450
 9435POPC   C2B77312  42.942  20.428   6.750
 9435POPC   C3B77313  42.959  20.347   7.050
 9435POPC   C4B77314  43.023  20.383   7.350
 9436POPC   NC377315  11.332  42.380   5.550
 9436POPC   PO477316  11.321  42.296   5.850
 9436POPC   GL177317  11.273  42.329   6.150
 9436POPC   GL277318  11.318  42.462   6.150
 9436POPC   C1A77319  11.340  42.323   6.450
 9436POPC   D2A77320  11.292  42.305   6.750
 9436POPC   C3A77321  11.265  42.299   7.050
 9436POPC   C4A77322  11.308  42.367   7.350
 9436POPC   C1B77323  11.394  42.571   6.450
 9436POPC   C2B77324  11.327  42.536   6.750
 9436POPC   C3B77325  11.404  42.613   7.050
 9436POPC   C4B77326  11.409  42.586   7.350
 9437POPC   NC377327  43.843  14.390   5.550
 9437POPC   PO477328  43.858  14.385   5.850
 9437POPC   GL177329  43.861  14.448   6.150
 9437POPC   GL277330  44.005  14.397   6.150
 9437POPC   C1A77331  43.848  14.448   6.450
 9437POPC   D2A77332  43.898  14.377   6.750
 9437POPC   C3A77333  43.897  14.453   7.050
 9437POPC   C4A77334  43.914  14.359   7.350
 9437POPC   C1B77335  44.077  14.311   6.450
 9437POPC   C2B77336  44.123  14.285   6.750
 9437POPC   C3B77337  44.100  14.313   7.050
 9437POPC   C4B77338  44.080  14.348   7.350
 9438POPC   NC377339  10.491   8.164   5.550
 9438POPC   PO477340  10.493   8.225   5.850
 9438POPC   GL177341  10.484   8.231   6.150
 9438POPC   GL277342  10.607   8.130   6.150
 9438POPC   C1A77343  10.513   8.168   6.450
 9438POPC   D2A77344  10.549   8.210   6.750
 9438POPC   C3A77345  10.560   8.185   7.050
 9438POPC   C4A77346  10.550   8.235   7.350
 9438POPC   C1B77347  10.723   8.065   6.450
 9438POPC   C2B77348  10.752   8.134   6.750
 9438POPC   C3B77349  10.756   8.129   7.050
 9438POPC   C4B77350  10.745   8.086   7.350
 9439POPC   NC377351  24.485  42.305   5.550
 9439POPC   PO477352  24.536  42.357   5.850
 9439POPC   GL177353  24.447  42.307   6.150
 9439POPC   GL277354  24.487  42.183   6.150
 9439POPC   C1A77355  24.523  42.370   6.450
 9439POPC   D2A77356  24.443  42.338   6.750
 9439POPC   C3A77357  24.452  42.357   7.050
 9439POPC   C4A77358  24.464  42.384   7.350
 9439POPC   C1B77359  24.475  42.118   6.450
 9439POPC   C2B77360  24.496  42.067   6.750
 9439POPC   C3B77361  24.499  42.108   7.050
 9439POPC   C4B77362  24.412  42.091   7.350
 9440POPC   NC377363  23.684  27.615   5.550
 9440POPC   PO477364  23.687  27.635   5.850
 9440POPC   GL177365  23.672  27.581   6.150
 9440POPC   GL277366  23.676  27.450   6.150
 9440POPC   C1A77367  23.671  27.627   6.450
 9440POPC   D2A77368  23.664  27.574   6.750
 9440POPC   C3A77369  23.730  27.544   7.050
 9440POPC   C4A77370  23.714  27.582   7.350
 9440POPC   C1B77371  23.746  27.367   6.450
 9440POPC   C2B77372  23.702  27.368   6.750
 9440POPC   C3B77373  23.723  27.374   7.050
 9440POPC   C4B77374  23.664  27.302   7.350
 9441POPC   NC377375  15.987  17.520   5.550
 9441POPC   PO477376  15.973  17.466   5.850
 9441POPC   GL177377  15.932  17.551   6.150
 9441POPC   GL277378  16.023  17.425   6.150
 9441POPC   C1A77379  15.978  17.490   6.450
 9441POPC   D2A77380  15.907  17.551   6.750
 9441POPC   C3A77381  15.996  17.479   7.050
 9441POPC   C4A77382  15.958  17.483   7.350
 9441POPC   C1B77383  16.234  17.428   6.450
 9441POPC   C2B77384  16.205  17.426   6.750
 9441POPC   C3B77385  16.150  17.372   7.050
 9441POPC   C4B77386  16.143  17.420   7.350
 9442POPC   NC377387  15.953  43.156   5.550
 9442POPC   PO477388  15.960  43.146   5.850
 9442POPC   GL177389  15.918  43.073   6.150
 9442POPC   GL277390  16.013  43.006   6.150
 9442POPC   C1A77391  15.933  43.133   6.450
 9442POPC   D2A77392  15.989  43.130   6.750
 9442POPC   C3A77393  15.958  43.105   7.050
 9442POPC   C4A77394  15.925  43.127   7.350
 9442POPC   C1B77395  15.979  42.838   6.450
 9442POPC   C2B77396  16.023  42.855   6.750
 9442POPC   C3B77397  15.979  42.844   7.050
 9442POPC   C4B77398  15.999  42.839   7.350
 9443POPC   NC377399  20.587  33.023   5.550
 9443POPC   PO477400  20.632  32.982   5.850
 9443POPC   GL177401  20.632  33.000   6.150
 9443POPC   GL277402  20.567  32.957   6.150
 9443POPC   C1A77403  20.560  33.060   6.450
 9443POPC   D2A77404  20.650  32.982   6.750
 9443POPC   C3A77405  20.618  32.985   7.050
 9443POPC   C4A77406  20.623  33.011   7.350
 9443POPC   C1B77407  20.388  32.800   6.450
 9443POPC   C2B77408  20.438  32.857   6.750
 9443POPC   C3B77409  20.397  32.815   7.050
 9443POPC   C4B77410  20.423  32.839   7.350
 9444POPC   NC377411   8.971   7.446   5.550
 9444POPC   PO477412   8.975   7.411   5.850
 9444POPC   GL177413   8.978   7.412   6.150
 9444POPC   GL277414   8.978   7.544   6.150
 9444POPC   C1A77415   9.013   7.397   6.450
 9444POPC   D2A77416   8.997   7.419   6.750
 9444POPC   C3A77417   8.997   7.373   7.050
 9444POPC   C4A77418   8.979   7.399   7.350
 9444POPC   C1B77419   8.979   7.700   6.450
 9444POPC   C2B77420   9.030   7.676   6.750
 9444POPC   C3B77421   8.968   7.692   7.050
 9444POPC   C4B77422   8.985   7.654   7.350
 9445POPC   NC377423   7.383  26.068   5.550
 9445POPC   PO477424   7.440  26.049   5.850
 9445POPC   GL177425   7.414  26.049   6.150
 9445POPC   GL277426   7.275  26.101   6.150
 9445POPC   C1A77427   7.401  26.086   6.450
 9445POPC   D2A77428   7.392  26.069   6.750
 9445POPC   C3A77429   7.380  26.023   7.050
 9445POPC   C4A77430   7.402  26.072   7.350
 9445POPC   C1B77431   7.181  26.146   6.450
 9445POPC   C2B77432   7.245  26.118   6.750
 9445POPC   C3B77433   7.220  26.100   7.050
 9445POPC   C4B77434   7.207  26.135   7.350
 9446POPC   NC377435  17.546  39.961   5.550
 9446POPC   PO477436  17.490  39.981   5.850
 9446POPC   GL177437  17.512  39.980   6.150
 9446POPC   GL277438  17.540  39.909   6.150
 9446POPC   C1A77439  17.506  39.974   6.450
 9446POPC   D2A77440  17.483  40.023   6.750
 9446POPC   C3A77441  17.503  40.050   7.050
 9446POPC   C4A77442  17.486  39.959   7.350
 9446POPC   C1B77443  17.581  39.809   6.450
 9446POPC   C2B77444  17.563  39.735   6.750
 9446POPC   C3B77445  17.625  39.818   7.050
 9446POPC   C4B77446  17.622  39.736   7.350
 9447POPC   NC377447  19.830  26.027   5.550
 9447POPC   PO477448  19.836  26.065   5.850
 9447POPC   GL177449  19.836  26.079   6.150
 9447POPC   GL277450  19.733  26.043   6.150
 9447POPC   C1A77451  19.815  26.047   6.450
 9447POPC   D2A77452  19.794  26.024   6.750
 9447POPC   C3A77453  19.847  26.045   7.050
 9447POPC   C4A77454  19.810  26.084   7.350
 9447POPC   C1B77455  19.639  26.123   6.450
 9447POPC   C2B77456  19.608  26.093   6.750
 9447POPC   C3B77457  19.568  26.142   7.050
 9447POPC   C4B77458  19.578  26.139   7.350
 9448POPC   NC377459  12.026  38.473   5.550
 9448POPC   PO477460  12.112  38.435   5.850
 9448POPC   GL177461  12.061  38.456   6.150
 9448POPC   GL277462  11.902  38.427   6.150
 9448POPC   C1A77463  12.101  38.440   6.450
 9448POPC   D2A77464  12.090  38.409   6.750
 9448POPC   C3A77465  12.058  38.481   7.050
 9448POPC   C4A77466  12.090  38.501   7.350
 9448POPC   C1B77467  11.857  38.487   6.450
 9448POPC   C2B77468  11.821  38.430   6.750
 9448POPC   C3B77469  11.822  38.424   7.050
 9448POPC   C4B77470  11.795  38.458   7.350
 9449POPC   NC377471  38.413  34.532   5.550
 9449POPC   PO477472  38.411  34.590   5.850
 9449POPC   GL177473  38.414  34.526   6.150
 9449POPC   GL277474  38.572  34.600   6.150
 9449POPC   C1A77475  38.430  34.609   6.450
 9449POPC   D2A77476  38.502  34.575   6.750
 9449POPC   C3A77477  38.423  34.585   7.050
 9449POPC   C4A77478  38.478  34.611   7.350
 9449POPC   C1B77479  38.659  34.675   6.450
 9449POPC   C2B77480  38.672  34.721   6.750
 9449POPC   C3B77481  38.660  34.747   7.050
 9449POPC   C4B77482  38.658  34.688   7.350
 9450POPC   NC377483  25.301   5.087   5.550
 9450POPC   PO477484  25.235   5.070   5.850
 9450POPC   GL177485  25.237   5.112   6.150
 9450POPC   GL277486  25.187   5.077   6.150
 9450POPC   C1A77487  25.281   5.066   6.450
 9450POPC   D2A77488  25.219   5.112   6.750
 9450POPC   C3A77489  25.251   5.126   7.050
 9450POPC   C4A77490  25.223   5.061   7.350
 9450POPC   C1B77491  25.047   5.033   6.450
 9450POPC   C2B77492  24.997   5.067   6.750
 9450POPC   C3B77493  25.004   5.058   7.050
 9450POPC   C4B77494  25.035   5.002   7.350
 9451POPC   NC377495  33.063  33.011   5.550
 9451POPC   PO477496  33.052  33.009   5.850
 9451POPC   GL177497  33.015  32.985   6.150
 9451POPC   GL277498  32.985  32.882   6.150
 9451POPC   C1A77499  33.068  33.004   6.450
 9451POPC   D2A77500  33.054  33.067   6.750
 9451POPC   C3A77501  33.050  33.016   7.050
 9451POPC   C4A77502  33.047  33.057   7.350
 9451POPC   C1B77503  33.037  32.823   6.450
 9451POPC   C2B77504  33.052  32.740   6.750
 9451POPC   C3B77505  33.077  32.749   7.050
 9451POPC   C4B77506  32.978  32.780   7.350
 9452POPC   NC377507  20.569  43.851   5.550
 9452POPC   PO477508  20.595  43.928   5.850
 9452POPC   GL177509  20.592  43.856   6.150
 9452POPC   GL277510  20.471  43.783   6.150
 9452POPC   C1A77511  20.573  43.861   6.450
 9452POPC   D2A77512  20.573  43.925   6.750
 9452POPC   C3A77513  20.618  43.865   7.050
 9452POPC   C4A77514  20.625  43.864   7.350
 9452POPC   C1B77515  20.376  43.736   6.450
 9452POPC   C2B77516  20.412  43.759   6.750
 9452POPC   C3B77517  20.379  43.794   7.050
 9452POPC   C4B77518  20.410  43.734   7.350
 9453POPC   NC377519  19.785  31.507   5.550
 9453POPC   PO477520  19.884  31.470   5.850
 9453POPC   GL177521  19.880  31.434   6.150
 9453POPC   GL277522  19.693  31.577   6.150
 9453POPC   C1A77523  19.861  31.516   6.450
 9453POPC   D2A77524  19.792  31.457   6.750
 9453POPC   C3A77525  19.829  31.504   7.050
 9453POPC   C4A77526  19.832  31.490   7.350
 9453POPC   C1B77527  19.598  31.652   6.450
 9453POPC   C2B77528  19.686  31.621   6.750
 9453POPC   C3B77529  19.670  31.610   7.050
 9453POPC   C4B77530  19.665  31.630   7.350
 9454POPC   NC377531  15.978  29.129   5.550
 9454POPC   PO477532  15.950  29.172   5.850
 9454POPC   GL177533  15.955  29.148   6.150
 9454POPC   GL277534  15.869  29.083   6.150
 9454POPC   C1A77535  15.975  29.110   6.450
 9454POPC   D2A77536  15.973  29.168   6.750
 9454POPC   C3A77537  15.975  29.153   7.050
 9454POPC   C4A77538  15.968  29.137   7.350
 9454POPC   C1B77539  15.736  29.019   6.450
 9454POPC   C2B77540  15.712  29.039   6.750
 9454POPC   C3B77541  15.768  29.019   7.050
 9454POPC   C4B77542  15.744  28.982   7.350
 9455POPC   NC377543  40.788  39.280   5.550
 9455POPC   PO477544  40.766  39.279   5.850
 9455POPC   GL177545  40.739  39.271   6.150
 9455POPC   GL277546  40.683  39.335   6.150
 9455POPC   C1A77547  40.794  39.221   6.450
 9455POPC   D2A77548  40.761  39.206   6.750
 9455POPC   C3A77549  40.777  39.195   7.050
 9455POPC   C4A77550  40.808  39.279   7.350
 9455POPC   C1B77551  40.545  39.355   6.450
 9455POPC   C2B77552  40.536  39.409   6.750
 9455POPC   C3B77553  40.619  39.410   7.050
 9455POPC   C4B77554  40.557  39.405   7.350
 9456POPC   NC377555  12.102  18.270   5.550
 9456POPC   PO477556  12.123  18.259   5.850
 9456POPC   GL177557  12.035  18.281   6.150
 9456POPC   GL277558  12.022  18.205   6.150
 9456POPC   C1A77559  12.092  18.262   6.450
 9456POPC   D2A77560  12.039  18.262   6.750
 9456POPC   C3A77561  12.115  18.237   7.050
 9456POPC   C4A77562  12.086  18.262   7.350
 9456POPC   C1B77563  11.990  18.016   6.450
 9456POPC   C2B77564  11.951  18.078   6.750
 9456POPC   C3B77565  11.956  18.073   7.050
 9456POPC   C4B77566  11.944  18.059   7.350
 9457POPC   NC377567  43.143  33.825   5.550
 9457POPC   PO477568  43.094  33.826   5.850
 9457POPC   GL177569  43.065  33.764   6.150
 9457POPC   GL277570  43.068  33.662   6.150
 9457POPC   C1A77571  43.111  33.802   6.450
 9457POPC   D2A77572  43.126  33.774   6.750
 9457POPC   C3A77573  43.118  33.832   7.050
 9457POPC   C4A77574  43.075  33.753   7.350
 9457POPC   C1B77575  42.973  33.588   6.450
 9457POPC   C2B77576  42.972  33.611   6.750
 9457POPC   C3B77577  42.956  33.563   7.050
 9457POPC   C4B77578  42.988  33.548   7.350
 9458POPC   NC377579  15.944  22.943   5.550
 9458POPC   PO477580  15.945  22.938   5.850
 9458POPC   GL177581  15.981  22.952   6.150
 9458POPC   GL277582  16.090  22.956   6.150
 9458POPC   C1A77583  15.965  22.978   6.450
 9458POPC   D2A77584  15.992  22.974   6.750
 9458POPC   C3A77585  15.973  22.898   7.050
 9458POPC   C4A77586  15.930  22.923   7.350
 9458POPC   C1B77587  16.163  23.042   6.450
 9458POPC   C2B77588  16.188  23.084   6.750
 9458POPC   C3B77589  16.172  23.015   7.050
 9458POPC   C4B77590  16.174  23.024   7.350
 9459POPC   NC377591  10.534  39.989   5.550
 9459POPC   PO477592  10.494  40.027   5.850
 9459POPC   GL177593  10.537  39.967   6.150
 9459POPC   GL277594  10.560  40.136   6.150
 9459POPC   C1A77595  10.551  40.011   6.450
 9459POPC   D2A77596  10.556  40.014   6.750
 9459POPC   C3A77597  10.522  40.044   7.050
 9459POPC   C4A77598  10.515  39.984   7.350
 9459POPC   C1B77599  10.515  40.226   6.450
 9459POPC   C2B77600  10.572  40.301   6.750
 9459POPC   C3B77601  10.571  40.261   7.050
 9459POPC   C4B77602  10.520  40.281   7.350
 9460POPC   NC377603   3.531   0.453   5.550
 9460POPC   PO477604   3.572   0.472   5.850
 9460POPC   GL177605   3.576   0.406   6.150
 9460POPC   GL277606   3.470   0.475   6.150
 9460POPC   C1A77607   3.580   0.484   6.450
 9460POPC   D2A77608   3.540   0.417   6.750
 9460POPC   C3A77609   3.543   0.483   7.050
 9460POPC   C4A77610   3.498   0.449   7.350
 9460POPC   C1B77611   3.385   0.601   6.450
 9460POPC   C2B77612   3.375   0.628   6.750
 9460POPC   C3B77613   3.299   0.571   7.050
 9460POPC   C4B77614   3.383   0.614   7.350
 9461POPC   NC377615   8.938  26.089   5.550
 9461POPC   PO477616   8.931  26.076   5.850
 9461POPC   GL177617   8.968  26.055   6.150
 9461POPC   GL277618   9.072  26.074   6.150
 9461POPC   C1A77619   8.943  26.037   6.450
 9461POPC   D2A77620   8.952  26.014   6.750
 9461POPC   C3A77621   8.978  26.086   7.050
 9461POPC   C4A77622   8.974  26.058   7.350
 9461POPC   C1B77623   9.175  26.063   6.450
 9461POPC   C2B77624   9.265  26.068   6.750
 9461POPC   C3B77625   9.229  26.031   7.050
 9461POPC   C4B77626   9.257  26.043   7.350
 9462POPC   NC377627  44.630  32.265   5.550
 9462POPC   PO477628  44.668  32.268   5.850
 9462POPC   GL177629  44.704  32.205   6.150
 9462POPC   GL277630  44.732  32.082   6.150
 9462POPC   C1A77631  44.681  32.232   6.450
 9462POPC   D2A77632  44.638  32.285   6.750
 9462POPC   C3A77633  44.701  32.249   7.050
 9462POPC   C4A77634  44.615  32.218   7.350
 9462POPC   C1B77635  44.750  32.019   6.450
 9462POPC   C2B77636  44.729  32.054   6.750
 9462POPC   C3B77637  44.752  31.998   7.050
 9462POPC   C4B77638  44.728  32.015   7.350
 9463POPC   NC377639  26.064  29.935   5.550
 9463POPC   PO477640  26.067  29.906   5.850
 9463POPC   GL177641  26.075  29.913   6.150
 9463POPC   GL277642  25.885  30.006   6.150
 9463POPC   C1A77643  26.059  29.970   6.450
 9463POPC   D2A77644  26.078  29.893   6.750
 9463POPC   C3A77645  26.005  29.936   7.050
 9463POPC   C4A77646  26.023  29.945   7.350
 9463POPC   C1B77647  25.854  30.065   6.450
 9463POPC   C2B77648  25.839  30.034   6.750
 9463POPC   C3B77649  25.786  30.043   7.050
 9463POPC   C4B77650  25.816  30.055   7.350
 9464POPC   NC377651  26.863  37.703   5.550
 9464POPC   PO477652  26.862  37.655   5.850
 9464POPC   GL177653  26.833  37.677   6.150
 9464POPC   GL277654  26.840  37.836   6.150
 9464POPC   C1A77655  26.829  37.636   6.450
 9464POPC   D2A77656  26.842  37.639   6.750
 9464POPC   C3A77657  26.773  37.727   7.050
 9464POPC   C4A77658  26.818  37.643   7.350
 9464POPC   C1B77659  26.892  37.897   6.450
 9464POPC   C2B77660  26.915  37.876   6.750
 9464POPC   C3B77661  26.926  37.909   7.050
 9464POPC   C4B77662  26.931  37.872   7.350
 9465POPC   NC377663  42.334   6.630   5.550
 9465POPC   PO477664  42.289   6.634   5.850
 9465POPC   GL177665  42.383   6.666   6.150
 9465POPC   GL277666  42.436   6.628   6.150
 9465POPC   C1A77667  42.333   6.629   6.450
 9465POPC   D2A77668  42.360   6.677   6.750
 9465POPC   C3A77669  42.341   6.650   7.050
 9465POPC   C4A77670  42.325   6.624   7.350
 9465POPC   C1B77671  42.611   6.520   6.450
 9465POPC   C2B77672  42.529   6.521   6.750
 9465POPC   C3B77673  42.610   6.517   7.050
 9465POPC   C4B77674  42.523   6.558   7.350
 9466POPC   NC377675  43.123  35.322   5.550
 9466POPC   PO477676  43.138  35.365   5.850
 9466POPC   GL177677  43.110  35.372   6.150
 9466POPC   GL277678  43.221  35.302   6.150
 9466POPC   C1A77679  43.111  35.354   6.450
 9466POPC   D2A77680  43.072  35.401   6.750
 9466POPC   C3A77681  43.160  35.350   7.050
 9466POPC   C4A77682  43.125  35.306   7.350
 9466POPC   C1B77683  43.286  35.261   6.450
 9466POPC   C2B77684  43.332  35.250   6.750
 9466POPC   C3B77685  43.301  35.200   7.050
 9466POPC   C4B77686  43.328  35.260   7.350
 9467POPC   NC377687  11.279  14.422   5.550
 9467POPC   PO477688  11.346  14.379   5.850
 9467POPC   GL177689  11.333  14.446   6.150
 9467POPC   GL277690  11.164  14.489   6.150
 9467POPC   C1A77691  11.288  14.440   6.450
 9467POPC   D2A77692  11.346  14.369   6.750
 9467POPC   C3A77693  11.265  14.445   7.050
 9467POPC   C4A77694  11.336  14.375   7.350
 9467POPC   C1B77695  11.046  14.560   6.450
 9467POPC   C2B77696  11.061  14.545   6.750
 9467POPC   C3B77697  11.115  14.529   7.050
 9467POPC   C4B77698  11.103  14.517   7.350
 9468POPC   NC377699  18.262  34.587   5.550
 9468POPC   PO477700  18.259  34.606   5.850
 9468POPC   GL177701  18.320  34.596   6.150
 9468POPC   GL277702  18.185  34.620   6.150
 9468POPC   C1A77703  18.295  34.615   6.450
 9468POPC   D2A77704  18.306  34.597   6.750
 9468POPC   C3A77705  18.293  34.561   7.050
 9468POPC   C4A77706  18.241  34.585   7.350
 9468POPC   C1B77707  18.100  34.722   6.450
 9468POPC   C2B77708  18.132  34.772   6.750
 9468POPC   C3B77709  18.096  34.711   7.050
 9468POPC   C4B77710  18.129  34.771   7.350
 9469POPC   NC377711  15.164  39.225   5.550
 9469POPC   PO477712  15.184  39.233   5.850
 9469POPC   GL177713  15.228  39.276   6.150
 9469POPC   GL277714  15.052  39.236   6.150
 9469POPC   C1A77715  15.158  39.188   6.450
 9469POPC   D2A77716  15.147  39.257   6.750
 9469POPC   C3A77717  15.197  39.206   7.050
 9469POPC   C4A77718  15.145  39.186   7.350
 9469POPC   C1B77719  14.961  39.231   6.450
 9469POPC   C2B77720  14.972  39.237   6.750
 9469POPC   C3B77721  14.930  39.314   7.050
 9469POPC   C4B77722  14.912  39.247   7.350
 9470POPC   NC377723  25.284  38.470   5.550
 9470POPC   PO477724  25.221  38.463   5.850
 9470POPC   GL177725  25.314  38.412   6.150
 9470POPC   GL277726  25.333  38.438   6.150
 9470POPC   C1A77727  25.303  38.460   6.450
 9470POPC   D2A77728  25.262  38.475   6.750
 9470POPC   C3A77729  25.278  38.495   7.050
 9470POPC   C4A77730  25.307  38.488   7.350
 9470POPC   C1B77731  25.456  38.364   6.450
 9470POPC   C2B77732  25.517  38.338   6.750
 9470POPC   C3B77733  25.461  38.377   7.050
 9470POPC   C4B77734  25.470  38.329   7.350
 9471POPC   NC377735  29.165  15.971   5.550
 9471POPC   PO477736  29.184  15.909   5.850
 9471POPC   GL177737  29.182  15.984   6.150
 9471POPC   GL277738  29.188  16.100   6.150
 9471POPC   C1A77739  29.103  15.966   6.450
 9471POPC   D2A77740  29.169  15.990   6.750
 9471POPC   C3A77741  29.143  15.920   7.050
 9471POPC   C4A77742  29.116  15.953   7.350
 9471POPC   C1B77743  29.263  16.142   6.450
 9471POPC   C2B77744  29.224  16.234   6.750
 9471POPC   C3B77745  29.201  16.143   7.050
 9471POPC   C4B77746  29.227  16.200   7.350
 9472POPC   NC377747   0.467  18.300   5.550
 9472POPC   PO477748   0.410  18.308   5.850
 9472POPC   GL177749   0.407  18.332   6.150
 9472POPC   GL277750   0.300  18.276   6.150
 9472POPC   C1A77751   0.462  18.324   6.450
 9472POPC   D2A77752   0.435  18.234   6.750
 9472POPC   C3A77753   0.449  18.245   7.050
 9472POPC   C4A77754   0.403  18.272   7.350
 9472POPC   C1B77755   0.191  18.234   6.450
 9472POPC   C2B77756   0.236  18.270   6.750
 9472POPC   C3B77757   0.223  18.213   7.050
 9472POPC   C4B77758   0.190  18.233   7.350
 9473POPC   NC377759  37.634  12.890   5.550
 9473POPC   PO477760  37.697  12.850   5.850
 9473POPC   GL177761  37.639  12.892   6.150
 9473POPC   GL277762  37.606  12.729   6.150
 9473POPC   C1A77763  37.712  12.885   6.450
 9473POPC   D2A77764  37.693  12.805   6.750
 9473POPC   C3A77765  37.703  12.808   7.050
 9473POPC   C4A77766  37.721  12.865   7.350
 9473POPC   C1B77767  37.597  12.599   6.450
 9473POPC   C2B77768  37.601  12.632   6.750
 9473POPC   C3B77769  37.578  12.657   7.050
 9473POPC   C4B77770  37.545  12.639   7.350
 9474POPC   NC377771   9.705  42.288   5.550
 9474POPC   PO477772   9.710  42.333   5.850
 9474POPC   GL177773   9.764  42.352   6.150
 9474POPC   GL277774   9.681  42.383   6.150
 9474POPC   C1A77775   9.728  42.330   6.450
 9474POPC   D2A77776   9.705  42.291   6.750
 9474POPC   C3A77777   9.791  42.306   7.050
 9474POPC   C4A77778   9.756  42.368   7.350
 9474POPC   C1B77779   9.590  42.508   6.450
 9474POPC   C2B77780   9.588  42.460   6.750
 9474POPC   C3B77781   9.584  42.438   7.050
 9474POPC   C4B77782   9.563  42.434   7.350
 9475POPC   NC377783  42.295  33.058   5.550
 9475POPC   PO477784  42.339  33.051   5.850
 9475POPC   GL177785  42.327  32.975   6.150
 9475POPC   GL277786  42.385  32.923   6.150
 9475POPC   C1A77787  42.354  33.049   6.450
 9475POPC   D2A77788  42.318  33.017   6.750
 9475POPC   C3A77789  42.376  33.060   7.050
 9475POPC   C4A77790  42.318  33.040   7.350
 9475POPC   C1B77791  42.470  32.900   6.450
 9475POPC   C2B77792  42.535  32.827   6.750
 9475POPC   C3B77793  42.508  32.814   7.050
 9475POPC   C4B77794  42.469  32.805   7.350
 9476POPC   NC377795  32.207  37.716   5.550
 9476POPC   PO477796  32.242  37.693   5.850
 9476POPC   GL177797  32.290  37.690   6.150
 9476POPC   GL277798  32.148  37.565   6.150
 9476POPC   C1A77799  32.294  37.635   6.450
 9476POPC   D2A77800  32.259  37.671   6.750
 9476POPC   C3A77801  32.286  37.642   7.050
 9476POPC   C4A77802  32.273  37.656   7.350
 9476POPC   C1B77803  32.033  37.488   6.450
 9476POPC   C2B77804  32.080  37.557   6.750
 9476POPC   C3B77805  32.087  37.491   7.050
 9476POPC   C4B77806  32.076  37.463   7.350
 9477W        W77807  19.116  15.688   4.285
 9478W        W77808  23.575  21.522   0.840
 9479W        W77809  31.081  18.736   5.316
 9480W        W77810  12.272  26.952  11.879
 9481W        W77811   6.741  18.240   3.358
 9482W        W77812  24.553  39.000  11.953
 9483W        W77813  22.586  36.549  13.314
 9484W        W77814  21.215   2.395   0.432
 9485W        W77815  38.415  33.965   2.372
 9486W        W77816   5.863  23.698  13.332
 9487W        W77817  41.830   1.444   0.394
 9488W        W77818  21.651  20.686  11.985
 9489W        W77819  20.099  36.529   2.770
 9490W        W77820   3.451  15.195  12.552
 9491W        W77821  16.598   1.358  10.945
 9492W        W77822  44.437   9.769  12.978
 9493W        W77823  16.264   1.975   0.730
 9494W        W77824  42.507  12.252   3.693
 9495W        W77825  39.840  34.115   2.236
 9496W        W77826  29.666  30.626   2.836
 9497W        W77827  39.455  18.681  12.894
 9498W        W77828  34.508  22.239  11.371
 9499W        W77829  34.096   2.274   2.673
 9500W        W77830  17.568   8.675  10.585
 9501W        W77831   7.305  23.055   2.673
 9502W        W77832  43.315  42.462   0.799
 9503W        W77833  43.507  41.975   1.316
 9504W        W77834  18.652  38.544  13.991
 9505W        W77835  32.080  20.582   4.838
 9506W        W77836  41.922  27.037  12.446
 9507W        W77837  36.863   7.836  13.456
 9508W        W77838  12.786   7.358   0.245
 9509W        W77839  19.079  13.136   0.779
 9510W        W77840  23.142  39.047  14.018
 9511W        W77841  10.344  28.652   2.718
 9512W        W77842  24.114  43.271   4.274
 9513W        W77843  32.974   3.360  12.018
 9514W        W77844   1.411  22.093  11.420
 9515W        W77845   1.411   4.732  14.947
 9516W        W77846  22.535  16.748   2.694
 9517W        W77847  38.540  44.404   4.310
 9518W        W77848   1.381   9.757   3.250
 9519W        W77849  19.747  29.155   3.791
 9520W        W77850  25.046  18.210  13.548
 9521W        W77851  34.556  25.102  12.870
 9522W        W77852   5.804   3.750   1.913
 9523W        W77853   6.182   6.245   5.169
 9524W        W77854   8.378  32.583   3.165
 9525W        W77855   4.901  18.688  11.026
 9526W        W77856  35.373  13.216  13.465
 9527W        W77857  20.577  20.208  10.916
 9528W        W77858  32.602  17.730  12.911
 9529W        W77859  14.602  33.444  13.514
 9530W        W77860  40.485   6.340  14.938
 9531W        W77861  19.772  27.059  14.468
 9532W        W77862  30.924  29.135   0.842
 9533W        W77863   7.702   8.350   0.960
 9534W        W77864  33.921  31.040  11.903
 9535W        W77865  19.556  19.672  10.045
 9536W        W77866  18.187  39.832   1.241
 9537W        W77867  16.765  23.613  13.965
 9538W        W77868  29.564  37.405   4.616
 9539W        W77869  32.036  16.700  11.535
 9540W        W77870  44.288  43.936   1.791
 9541W        W77871   3.429  21.256   3.301
 9542W        W77872  25.584  30.954   4.673
 9543W        W77873  42.501  39.537  11.593
 9544W        W77874  27.538  12.198   5.617
 9545W        W77875  12.197  39.446  12.002
 9546W        W77876  17.721   6.677  14.895
 9547W        W77877   7.213   4.877   0.482
 9548W        W77878  14.782  34.080   3.264
 9549W        W77879   4.744  25.981  12.469
 9550W        W77880   2.340  36.493   5.208
 9551W        W77881  39.849  36.038  11.905
 9552W        W77882   0.424  32.447   0.919
 9553W        W77883  35.363   2.845   2.671
 9554W        W77884  10.686   7.337   3.372
 9555W        W77885   4.913   8.846   3.854
 9556W        W77886  27.146   7.177  13.859
 9557W        W77887  42.025  38.508  13.803
 9558W        W77888  17.098  11.758  11.955
 9559W        W77889  44.865  39.427  12.394
 9560W        W77890   3.922  28.137  10.095
 9561W        W77891   3.222  29.173  11.027
 9562W        W77892  31.973  33.949   1.447
 9563W        W77893  11.672  14.813   1.401
 9564W        W77894  19.097  15.740  10.922
 9565W        W77895   1.746  19.182  14.445
 9566W        W77896  28.152  12.646   1.295
 9567W        W77897  22.125  21.210  11.569
 9568W        W77898  37.950  43.811  13.493
 9569W        W77899  11.816   5.872  11.080
 9570W        W77900  42.303   2.768  12.347
 9571W        W77901  10.841  23.537   4.177
 9572W        W77902  26.638  36.076   0.908
 9573W        W77903  11.804  14.711  13.383
 9574W        W77904  41.387  25.502  14.934
 9575W        W77905  20.269  26.620  10.447
 9576W        W77906  17.224  20.671   1.441
 9577W        W77907  18.549  27.553   0.870
 9578W        W77908  31.091   2.273   2.797
 9579W        W77909  40.400   4.941   0.413
 9580W        W77910  36.064  28.528   4.169
 9581W        W77911   9.829   3.854  14.770
 9582W        W77912  21.142   6.259  13.546
 9583W        W77913  20.631  30.596   5.224
 9584W        W77914  33.115   6.734   1.836
 9585W        W77915   4.704  22.241  10.913
 9586W        W77916  17.684  40.899   2.723
 9587W        W77917   9.373  23.161   1.920
 9588W        W77918  32.540  24.543   3.214
 9589W        W77919  23.679   0.258   0.277
 9590W        W77920  15.710   2.441   3.347
 9591W        W77921  15.280  13.695   4.191
 9592W        W77922   1.420   4.357   2.246
 9593W        W77923  28.052   4.238   1.419
 9594W        W77924   3.313  23.206   3.645
 9595W        W77925  29.518   4.787   0.377
 9596W        W77926  37.928  24.982   3.285
 9597W        W77927  24.230  16.254   2.229
 9598W        W77928  22.021  19.638   9.510
 9599W        W77929  35.439  20.718   3.338
 9600W        W77930   3.278  12.838   3.744
 9601W        W77931  26.663  44.343   1.818
 9602W        W77932  44.283  21.236  11.516
 9603W        W77933  37.370  27.064   2.395
 9604W        W77934  34.957   7.841  11.037
 9605W        W77935  31.135   7.343  14.800
 9606W        W77936   4.789  34.901  14.481
 9607W        W77937   2.894   2.304   2.679
 9608W        W77938  25.166   2.828  14.335
 9609W        W77939  22.208   5.202   2.874
 9610W        W77940  15.591  18.191  12.874
 9611W        W77941  32.470   7.186   1.852
 9612W        W77942  26.099   4.924   1.727
 9613W        W77943  42.940  44.363  11.081
 9614W        W77944   7.295  38.917  10.552
 9615W        W77945  20.062   4.392  10.977
 9616W        W77946  18.186  40.027   0.907
 9617W        W77947  29.423   2.472   1.777
 9618W        W77948  37.519  18.784  14.024
 9619W        W77949  37.439  30.507   3.383
 9620W        W77950  19.042   8.316   0.818
 9621W        W77951   5.711  33.900   3.146
 9622W        W77952  23.651  34.601  11.502
 9623W        W77953  14.764  36.488   4.262
 9624W        W77954  35.993  10.198  14.319
 9625W        W77955  17.264  20.259   3.718
 9626W        W77956   4.437   2.263  13.871
 9627W        W77957  13.217  17.226   1.295
 9628W        W77958   2.470  40.373   4.686
 9629W        W77959   0.411  26.195   0.453
 9630W        W77960  33.624  17.283   2.763
 9631W        W77961  11.363  20.216  13.898
 9632W        W77962  14.330   8.686   3.336
 9633W        W77963  42.374  14.770  10.634
 9634W        W77964  19.618  16.692   2.738
 9635W        W77965  13.241  29.472  13.039
 9636W        W77966  24.719  36.862  10.572
 9637W        W77967  42.901  25.168  13.339
 9638W        W77968  43.832  44.784   2.188
 9639W        W77969  40.054  36.465  13.418
 9640W        W77970  41.895   2.435   2.795
 9641W        W77971  19.219  12.154  11.899
 9642W        W77972  39.526  19.215  13.892
 9643W        W77973  28.486  33.924  14.763
 9644W        W77974  21.186   3.456   1.417
 9645W        W77975  29.933  30.931   2.317
 9646W        W77976  16.697  18.653  12.081
 9647W        W77977   5.199  23.675  12.092
 9648W        W77978  42.495  33.011  10.593
 9649W        W77979  14.221  10.866   4.739
 9650W        W77980   7.337  34.440   4.176
 9651W        W77981  15.804   5.273  13.001
 9652W        W77982  32.113   0.261   4.826
 9653W        W77983  10.839  41.811   3.858
 9654W        W77984  17.644  31.947  12.080
 9655W        W77985   3.725  30.540   3.329
 9656W        W77986  30.533  42.398   1.349
 9657W        W77987  17.673  20.619   2.201
 9658W        W77988  37.458  39.853   1.707
 9659W        W77989  36.933  12.716   2.864
 9660W        W77990  18.218  43.022   4.160
 9661W        W77991   6.723  22.692   2.809
 9662W        W77992   5.924  43.348  13.515
 9663W        W77993  43.455  28.600  10.940
 9664W        W77994  13.303   1.354   3.808
 9665W        W77995   0.493  39.877   0.780
 9666W        W77996  37.840  13.195  10.476
 9667W        W77997  35.603  26.004   0.819
 9668W        W77998  42.972  39.902  14.289
 9669W        W77999  27.483   1.777   3.313
 9670W        W78000   2.855  38.499  12.983
 9671W        W78001  28.557  18.564   2.796
 9672W        W78002  39.381  38.467   1.790
 9673W        W78003  32.005  25.102  14.373
 9674W        W78004  16.313  14.315   3.251
 9675W        W78005   2.271  41.428   3.307
 9676W        W78006  16.808  34.014  11.405
 9677W        W78007  11.259  34.964  11.412
 9678W        W78008  41.023  26.077  14.361
 9679W        W78009   6.874   4.913   3.843
 9680W        W78010  42.939   6.394  13.909
 9681W        W78011  25.575   0.800  12.935
 9682W        W78012  18.661   0.893   2.355
 9683W        W78013   5.736  44.425  10.546
 9684W        W78014   9.187   8.842   3.854
 9685W        W78015  35.027  22.547   0.809
 9686W        W78016  28.145  17.778  12.991
 9687W        W78017  38.883  41.343  11.052
 9688W        W78018  31.913   3.247   2.391
 9689W        W78019   0.442  25.073  13.006
 9690W        W78020  30.452  11.346  13.966
 9691W        W78021  11.325   4.444   2.822
 9692W        W78022  21.602  23.231  13.986
 9693W        W78023  40.933  33.040  10.479
 9694W        W78024   8.202  42.829  12.368
 9695W        W78025  15.605  15.755  11.056
 9696W        W78026  44.925   1.976   4.275
 9697W        W78027  21.210  42.976   1.816
 9698W        W78028  40.951  10.196  13.515
 9699W        W78029  15.594  28.605   3.789
 9700W        W78030   2.771  42.940  14.895
 9701W        W78031  25.471   8.721  11.473
 9702W        W78032  29.568  36.570  11.002
 9703W        W78033  25.015  34.513   4.317
 9704W        W78034  16.195  39.384   3.188
 9705W        W78035  22.700  24.692   3.265
 9706W        W78036  23.065  37.548  13.881
 9707W        W78037   9.175  21.595  14.372
 9708W        W78038  36.588   6.292   4.601
 9709W        W78039  21.242  34.438  13.913
 9710W        W78040  24.992   9.785   2.793
 9711W        W78041  35.383  16.167   4.291
 9712W        W78042  38.920   6.224  14.881
 9713W        W78043  42.954  35.419   2.777
 9714W        W78044   2.346  27.043   2.752
 9715W        W78045   9.319  32.064  10.531
 9716W        W78046  37.381  34.543   1.853
 9717W        W78047  29.595  36.910  14.306
 9718W        W78048  41.536  27.123  13.006
 9719W        W78049  39.557  12.689  13.796
 9720W        W78050  32.593  13.608  13.390
 9721W        W78051   5.373  34.395  12.054
 9722W        W78052  44.854   0.790   1.362
 9723W        W78053  18.056  18.117  14.411
 9724W        W78054  34.482  15.166   1.367
 9725W        W78055   4.437   4.300   4.837
 9726W        W78056  38.882  34.926   1.328
 9727W        W78057  28.175  35.376  14.423
 9728W        W78058  29.102  11.279  12.081
 9729W        W78059  32.528  30.612   0.471
 9730W        W78060  37.537  35.450  13.503
 9731W        W78061  42.926  28.023   0.401
 9732W        W78062  40.315  43.323   1.856
 9733W        W78063  42.908  35.406   3.803
 9734W        W78064  32.541  40.338  11.062
 9735W        W78065   2.738  34.441  14.366
 9736W        W78066   9.682  40.330   3.699
 9737W        W78067   7.766   8.757  13.995
 9738W        W78068   2.396  13.647  11.945
 9739W        W78069  44.994  30.163   1.719
 9740W        W78070   3.321  14.604   4.189
 9741W        W78071  33.451  42.954   3.356
 9742W        W78072   4.262  38.491   4.690
 9743W        W78073  43.942  31.503   1.388
 9744W        W78074  15.705  22.670   4.233
 9745W        W78075   0.276  36.377   2.348
 9746W        W78076  25.044  23.185  12.357
 9747W        W78077  20.256   6.225   4.796
 9748W        W78078   6.844  14.624   2.235
 9749W        W78079  32.081   8.836  14.908
 9750W        W78080   0.761  40.478  14.845
 9751W        W78081  22.199  18.707  12.913
 9752W        W78082  14.728  17.067  12.546
 9753W        W78083   3.356  18.281  14.029
 9754W        W78084  36.462  33.496  14.308
 9755W        W78085  42.877  11.693   0.253
 9756W        W78086   8.266   6.275   4.147
 9757W        W78087   2.761  12.255   1.750
 9758W        W78088   1.859  36.566   4.678
 9759W        W78089  35.895  27.598   1.269
 9760W        W78090  13.276   1.253   4.677
 9761W        W78091  33.105  19.640  11.934
 9762W        W78092  40.489  38.031   4.322
 9763W        W78093   5.238  37.339  14.869
 9764W        W78094  19.057  31.429  10.585
 9765W        W78095  31.563  24.558  10.585
 9766W        W78096  39.975   6.233   2.205
 9767W        W78097   6.257  43.480   2.222
 9768W        W78098  23.593  19.268  14.365
 9769W        W78099  30.071  12.231   1.351
 9770W        W78100  26.123   5.836  10.616
 9771W        W78101  28.075  32.569   4.791
 9772W        W78102  22.040  31.961  10.993
 9773W        W78103   5.760   4.430  12.040
 9774W        W78104  17.138  30.552   0.329
 9775W        W78105   6.830  43.377   3.670
 9776W        W78106   8.313  24.681   2.846
 9777W        W78107  15.694   8.747  12.460
 9778W        W78108  26.125  18.578  11.093
 9779W        W78109  35.937  13.745  13.794
 9780W        W78110  25.684  22.689   4.129
 9781W        W78111  28.005  22.232   2.312
 9782W        W78112   7.361  14.824   3.635
 9783W        W78113  24.604   3.409  12.899
 9784W        W78114  28.955  31.509  10.965
 9785W        W78115  40.012  28.527   3.381
 9786W        W78116  37.962   1.481   3.681
 9787W        W78117  21.654   8.792  12.450
 9788W        W78118   0.255  39.487  14.312
 9789W        W78119  38.838  40.039   3.739
 9790W        W78120   6.320  16.618   1.695
 9791W        W78121  32.895  20.733  12.887
 9792W        W78122  43.909  33.388   2.345
 9793W        W78123   3.406  23.237   4.615
 9794W        W78124  13.603  43.916   1.444
 9795W        W78125   7.392  38.854   4.340
 9796W        W78126   0.358  19.117  13.867
 9797W        W78127  35.082  28.133   4.696
 9798W        W78128  12.305  28.564   0.393
 9799W        W78129   2.776  15.139  10.990
 9800W        W78130  20.589  15.695  14.903
 9801W        W78131   5.404  42.810   1.263
 9802W        W78132  15.583  10.363   1.739
 9803W        W78133  38.332  11.678  13.924
 9804W        W78134  40.517  42.976  11.930
 9805W        W78135  18.209  23.701   3.868
 9806W        W78136  25.714  29.962   1.791
 9807W        W78137  16.666  12.238  10.470
 9808W        W78138  43.920   7.788  10.913
 9809W        W78139   1.766  29.487   4.743
 9810W        W78140   7.360  40.871   2.196
 9811W        W78141  27.484  11.753   1.774
 9812W        W78142  17.639  19.719  12.832
 9813W        W78143   2.240   9.287   0.388
 9814W        W78144  40.304  38.349  13.336
 9815W        W78145  26.548  42.390  12.926
 9816W        W78146  34.937  36.456   1.811
 9817W        W78147  37.576  14.774   0.477
 9818W        W78148  26.112  33.541   2.230
 9819W        W78149  10.717   5.199  13.869
 9820W        W78150  25.186   0.376  10.983
 9821W        W78151  34.985  19.708  13.919
 9822W        W78152  38.980  29.974  13.979
 9823W        W78153  26.459  13.625   1.210
 9824W        W78154   2.910  26.592   0.835
 9825W        W78155   3.908   6.804  13.437
 9826W        W78156  14.175   5.895  13.433
 9827W        W78157  22.513  19.267  10.451
 9828W        W78158  22.101  38.926  13.019
 9829W        W78159  34.114  20.047   2.806
 9830W        W78160  23.079  13.230  13.388
 9831W        W78161   5.756   9.154  13.475
 9832W        W78162  33.128  39.369  12.079
 9833W        W78163  37.993  44.969  12.399
 9834W        W78164  16.110   3.254  10.569
 9835W        W78165  24.485   7.321  10.579
 9836W        W78166  17.656  35.362  13.885
 9837W        W78167  40.865  44.465  13.857
 9838W        W78168  31.556  35.878  14.886
 9839W        W78169   9.344  32.953   2.256
 9840W        W78170  19.155  20.594  12.939
 9841W        W78171  31.062  20.741  10.966
 9842W        W78172   2.765   4.279  12.986
 9843W        W78173  31.085  42.435   0.408
 9844W        W78174  20.637   8.230   5.138
 9845W        W78175  29.993  43.997  13.418
 9846W        W78176   4.899  22.182   4.224
 9847W        W78177  31.058  24.662   4.818
 9848W        W78178  44.271  32.589  10.917
 9849W        W78179  29.486  36.488  13.887
 9850W        W78180  29.614   6.426   3.210
 9851W        W78181  36.403  17.112  14.291
 9852W        W78182  32.026  41.472  14.324
 9853W        W78183  18.700   5.297   1.437
 9854W        W78184  10.297  30.563  10.051
 9855W        W78185  31.037  41.517   3.789
 9856W        W78186  14.689   5.360  12.951
 9857W        W78187  43.782  36.524  14.280
 9858W        W78188  14.680  25.217   3.218
 9859W        W78189  43.818   0.326   4.741
 9860W        W78190  32.508  43.780  10.587
 9861W        W78191  40.324  32.987  11.553
 9862W        W78192  18.173   5.203   2.812
 9863W        W78193   4.281  26.108   1.432
 9864W        W78194  31.977  19.091   3.373
 9865W        W78195  25.034  38.053  12.937
 9866W        W78196  17.203  36.988  13.831
 9867W        W78197  14.316  28.676  12.520
 9868W        W78198  32.422  22.599  13.800
 9869W        W78199  26.696  18.119  14.004
 9870W        W78200  13.158  22.100  11.012
 9871W        W78201  35.054  42.806   2.872
 9872W        W78202  24.509  28.114  12.448
 9873W        W78203   1.890   3.290  12.572
 9874W        W78204  35.557  17.069   0.767
 9875W        W78205  24.113  16.289   3.316
 9876W        W78206  14.141  29.171  11.890
 9877W        W78207  38.828  18.664   2.208
 9878W        W78208  36.366  37.935  10.481
 9879W        W78209  10.820   6.218  14.405
 9880W        W78210   5.859  14.130  12.081
 9881W        W78211   2.466  25.984   3.848
 9882W        W78212  15.686  44.479  12.072
 9883W        W78213   2.385   0.441  11.064
 9884W        W78214  41.297  33.988   4.336
 9885W        W78215  30.045  11.131   4.745
 9886W        W78216   4.275  23.134   3.629
 9887W        W78217  31.491  41.445  13.443
 9888W        W78218  13.222  40.852  11.586
 9889W        W78219  36.948  11.754  10.898
 9890W        W78220  20.165  17.584  10.104
 9891W        W78221  16.647  25.132   9.935
 9892W        W78222  20.207  12.351  14.017
 9893W        W78223   8.679   3.799   3.695
 9894W        W78224   9.851  22.199   4.698
 9895W        W78225   7.215  43.423  11.071
 9896W        W78226  26.674  10.298   2.762
 9897W        W78227  41.475  30.004   4.335
 9898W        W78228   7.830  18.616   1.227
 9899W        W78229  34.377  36.884  11.485
 9900W        W78230   3.344   8.713  13.882
 9901W        W78231   0.921  12.259   0.829
 9902W        W78232  28.525  11.788  10.940
 9903W        W78233  29.995  14.199   3.712
 9904W        W78234  44.396  25.648  14.850
 9905W        W78235   4.334  43.963   2.289
 9906W        W78236  18.638  38.953  14.979
 9907W        W78237  44.369   9.227   1.873
 9908W        W78238  25.650  26.099   3.260
 9909W        W78239  35.476   0.864  10.618
 9910W        W78240  29.951  11.239   1.287
 9911W        W78241  19.564  36.926   2.403
 9912W        W78242  39.979  20.655   1.429
 9913W        W78243   3.749  37.491  10.427
 9914W        W78244  20.568  15.747  10.910
 9915W        W78245  23.623  12.219   1.245
 9916W        W78246  31.542   1.886   4.670
 9917W        W78247   7.694   1.878   1.293
 9918W        W78248  26.984   8.165  13.827
 9919W        W78249  40.026  15.188  10.581
 9920W        W78250  24.647  29.022  13.363
 9921W        W78251  33.499  32.964  13.046
 9922W        W78252  22.712  38.478   0.369
 9923W        W78253  36.053  19.240   0.879
 9924W        W78254  25.983  14.715   1.856
 9925W        W78255  19.273  27.940  12.891
 9926W        W78256  30.979  35.973  14.777
 9927W        W78257  32.590  13.252  10.964
 9928W        W78258  20.559  17.767   2.682
 9929W        W78259   9.702  10.672  13.334
 9930W        W78260  27.008  24.121   4.603
 9931W        W78261   1.311  42.903  11.096
 9932W        W78262  36.570  24.120  14.365
 9933W        W78263  17.157  38.070  13.498
 9934W        W78264   5.758  19.237   1.922
 9935W        W78265  28.131  36.863   0.959
 9936W        W78266  34.923  16.118   3.839
 9937W        W78267  15.823   8.222  14.404
 9938W        W78268   7.324  32.623  12.999
 9939W        W78269  40.998  36.565  12.885
 9940W        W78270  18.253   6.777   2.315
 9941W        W78271  35.431  16.625  14.364
 9942W        W78272  29.121  22.124   1.870
 9943W        W78273  32.015  41.917   2.396
 9944W        W78274   6.917  32.903   4.228
 9945W        W78275   0.813  10.305  13.057
 9946W        W78276  39.481  28.578   1.754
 9947W        W78277  32.012  18.230   1.874
 9948W        W78278  10.814  33.408   2.393
 9949W        W78279  13.742  21.599   2.808
 9950W        W78280  10.663  42.964  10.410
 9951W        W78281  38.939  13.139   2.676
 9952W        W78282   0.422  42.970  14.797
 9953W        W78283  26.030  20.223  13.809
 9954W        W78284  25.520   2.455  14.938
 9955W        W78285  36.055  34.389   1.243
 9956W        W78286  24.997   9.335   0.307
 9957W        W78287  15.810  16.789  10.620
 9958W        W78288  28.936  42.890   5.285
 9959W        W78289   7.314  43.939   3.686
 9960W        W78290  41.307  23.670  10.478
 9961W        W78291  39.006  34.519   2.412
 9962W        W78292   7.398  30.415   1.838
 9963W        W78293  16.170  12.134   0.726
 9964W        W78294  19.182  22.146  10.439
 9965W        W78295  36.505  40.870  11.076
 9966W        W78296  24.716  16.277  13.964
 9967W        W78297  16.217  11.187  10.529
 9968W        W78298  18.720  18.717  13.334
 9969W        W78299   3.242  35.074   0.438
 9970W        W78300  21.671  12.236   3.829
 9971W        W78301  35.012  22.741   4.193
 9972W        W78302  18.719  22.204   0.434
 9973W        W78303  20.135  21.546  11.449
 9974W        W78304  28.609   1.401  11.081
 9975W        W78305  20.029   8.813   3.380
 9976W        W78306   1.298   9.350  13.377
 9977W        W78307  41.355   4.806   1.835
 9978W        W78308  22.118  42.829  14.350
 9979W        W78309  20.649  18.079   4.609
 9980W        W78310  39.952  30.595  10.922
 9981W        W78311  28.094  36.888   3.630
 9982W        W78312  12.299   4.796  14.488
 9983W        W78313  35.545  13.131  12.080
 9984W        W78314  38.958  39.492  11.912
 9985W        W78315  19.743  16.170   1.450
 9986W        W78316  37.503  18.785   4.731
 9987W        W78317  42.845  12.775  10.095
 9988W        W78318  26.691  21.098   4.264
 9989W        W78319   9.211   9.206  14.810
 9990W        W78320  32.625  25.160   4.133
 9991W        W78321  20.041  24.211  11.036
 9992W        W78322  13.130  35.865  11.478
 9993W        W78323   1.792  41.935  10.931
 9994W        W78324   3.430  27.982  12.886
 9995W        W78325   5.338  35.460  11.126
 9996W        W78326  39.331   7.720   2.286
 9997W        W78327  44.353  39.400   1.449
 9998W        W78328  23.722   4.445  11.462
 9999W        W78329  15.292  16.629  14.808
10000W        W78330  18.563   0.406   2.693
10001W        W78331  44.948  11.235  13.057
10002W        W78332  20.033  34.549   4.250
10003W        W78333  23.126  41.985   2.815
10004W        W78334  32.555  10.161   4.746
10005W        W78335   7.830  15.790  12.969
10006W        W78336  12.750  13.619   0.259
10007W        W78337  29.990  40.536  11.003
10008W        W78338  13.639  27.080   4.245
10009W        W78339  18.170  31.917  10.555
10010W        W78340  23.527   8.750   1.314
10011W        W78341  10.156  43.771   2.382
10012W        W78342  28.616   0.773   3.155
10013W        W78343   8.859  17.726   2.782
10014W        W78344  29.649  16.313   4.188
10015W        W78345  15.756  35.417   3.781
10016W        W78346  32.899   5.245  11.876
10017W        W78347   1.921  44.980   2.194
10018W        W78348  37.425  21.734   0.906
10019W        W78349  27.670  24.023  12.032
10020W        W78350  27.680  27.687   3.668
10021W        W78351  20.602  41.983  11.086
10022W        W78352  22.712  10.141   1.797
10023W        W78353   9.379  20.754  13.966
10024W        W78354  29.136  40.924  13.534
10025W        W78355  35.453  19.218  11.576
10026W        W78356  18.229  14.309  12.477
10027W        W78357   4.874   4.708   0.920
10028W        W78358   0.252  20.637   2.777
10029W        W78359  17.147  21.719   4.775
10030W        W78360  15.236  40.017  12.528
10031W        W78361  33.461  12.327   1.731
10032W        W78362  27.118  34.429   2.185
10033W        W78363  14.695  21.574  10.887
10034W        W78364  20.651  12.693  14.834
10035W        W78365   2.929  16.669   3.735
10036W        W78366  22.214  30.562   0.953
10037W        W78367   7.285  34.995   2.667
10038W        W78368   4.231  10.365  12.063
10039W        W78369  11.197  21.694   4.715
10040W        W78370  43.769  10.809  14.309
10041W        W78371  44.417  20.604  11.901
10042W        W78372   6.196  37.984   4.689
10043W        W78373  16.294  17.233  10.514
10044W        W78374  33.584   9.183   4.766
10045W        W78375  18.157  35.879  12.444
10046W        W78376   1.789  26.171  11.889
10047W        W78377   8.293  28.456  11.430
10048W        W78378  32.964  23.642  10.519
10049W        W78379  13.666  18.199  10.635
10050W        W78380   7.365  16.731  10.931
10051W        W78381  36.039   1.922  12.824
10052W        W78382  40.897  37.439   2.816
10053W        W78383  17.175  15.675   3.659
10054W        W78384  11.636  32.946  10.513
10055W        W78385  12.261   4.301  10.897
10056W        W78386  42.374  33.520   2.784
10057W        W78387  33.453   5.874  14.513
10058W        W78388  30.495  11.297   4.215
10059W        W78389  20.154  23.666  13.942
10060W        W78390  40.370  21.676   2.728
10061W        W78391   8.822  22.566  13.063
10062W        W78392  31.516  16.773  12.352
10063W        W78393  26.966  40.958  10.973
10064W        W78394  27.536  41.424   2.781
10065W        W78395   2.355   5.774  11.909
10066W        W78396  23.125   5.701  12.000
10067W        W78397   6.807  18.711   4.163
10068W        W78398  15.604   9.885   2.835
10069W        W78399  29.479  19.540  14.801
10070W        W78400  38.919  15.088  12.556
10071W        W78401   4.393  20.551   3.318
10072W        W78402  29.951  34.995  10.945
10073W        W78403  27.947  39.330  11.936
10074W        W78404  41.786  13.155  12.937
10075W        W78405  10.237   0.406  12.388
10076W        W78406  23.724  29.446   3.860
10077W        W78407  37.963  29.970  12.533
10078W        W78408  17.103   8.304   2.362
10079W        W78409  44.275   4.743   1.412
10080W        W78410   5.776  20.765  13.971
10081W        W78411  22.704  25.617  12.893
10082W        W78412   3.921  41.457  11.011
10083W        W78413  24.181  41.925  10.452
10084W        W78414  21.128  44.330  12.989
10085W        W78415  34.598   2.888  10.405
10086W        W78416  13.261  44.267  14.512
10087W        W78417   3.251   1.260   3.191
10088W        W78418  36.367   8.821   0.451
10089W        W78419  10.851   5.895   1.773
10090W        W78420  19.269   7.215  10.532
10091W        W78421  21.113  30.576  13.530
10092W        W78422   0.950  29.168  13.948
10093W        W78423  26.032  26.657   2.784
10094W        W78424  18.068  34.872  12.422
10095W        W78425  29.505  38.524   1.250
10096W        W78426  41.537  32.500   4.760
10097W        W78427  24.656   7.705   1.340
10098W        W78428  30.638  36.511   1.797
10099W        W78429  42.435  15.250   2.192
10100W        W78430  12.164  15.265  13.385
10101W        W78431  32.054   3.443  14.890
10102W        W78432  31.059  23.568   2.677
10103W        W78433  19.662   0.324  10.911
10104W        W78434  21.176  26.668   2.277
10105W        W78435  31.929  33.094  12.867
10106W        W78436  41.905   8.900  12.913
10107W        W78437   4.320   1.933   2.226
10108W        W78438  24.501   2.732  14.382
10109W        W78439  18.629  37.546  11.962
10110W        W78440  25.191   5.359  13.916
10111W        W78441  22.673  36.574  11.555
10112W        W78442   7.776  22.501  14.952
10113W        W78443  17.779  41.921  13.323
10114W        W78444   3.794   0.438  10.988
10115W        W78445  35.357  22.130  12.502
10116W        W78446  35.981  12.237   2.213
10117W        W78447  18.054  18.688  11.099
10118W        W78448   5.800  18.120  12.926
10119W        W78449  24.079   3.757  12.859
10120W        W78450  22.544   7.781   0.329
10121W        W78451  43.874  27.486   2.239
10122W        W78452  19.742  36.581  11.384
10123W        W78453   9.869  12.335  11.909
10124W        W78454  42.374  32.541   0.922
10125W        W78455  14.800  44.782   1.304
10126W        W78456  31.486  10.305   0.478
10127W        W78457  25.705   8.299  12.502
10128W        W78458  28.105  16.244  12.405
10129W        W78459  19.766   6.791   0.328
10130W        W78460  38.467  11.221   4.208
10131W        W78461  37.007  31.414   1.928
10132W        W78462  41.822  40.974  14.277
10133W        W78463   3.460  32.036   2.862
10134W        W78464  23.161  35.980   4.658
10135W        W78465  39.559  42.354   3.211
10136W        W78466   9.871   2.377   3.775
10137W        W78467  14.278  12.849   1.410
10138W        W78468  12.725   7.351   2.884
10139W        W78469   3.766  40.922  14.929
10140W        W78470  23.104  16.303  13.319
10141W        W78471  13.786  10.307   4.342
10142W        W78472  40.418  36.895  12.027
10143W        W78473   3.936  10.868  13.793
10144W        W78474  12.148   0.413   0.931
10145W        W78475   9.364   8.393   0.251
10146W        W78476   3.812  11.368   1.854
10147W        W78477  23.136  37.434  12.922
10148W        W78478  14.239  44.824   0.856
10149W        W78479  15.308  43.890   0.401
10150W        W78480  29.146  29.487  13.813
10151W        W78481   3.932   3.259  11.495
10152W        W78482  10.242  27.637   1.427
10153W        W78483  11.237  30.027  11.863
10154W        W78484  20.194   4.732  10.953
10155W        W78485   4.897  11.287   2.819
10156W        W78486  38.030   9.825  13.025
10157W        W78487   7.328  38.885   2.408
10158W        W78488  32.957  41.408   1.426
10159W        W78489  18.562  16.137  13.980
10160W        W78490  31.901  27.067  10.575
10161W        W78491   1.770   6.261  14.817
10162W        W78492  35.853  36.440   3.692
10163W        W78493   8.770  30.453  10.564
10164W        W78494   5.735   3.741  13.961
10165W        W78495  32.046  36.463  12.020
10166W        W78496   7.366   9.842   0.956
10167W        W78497  24.226  19.090   4.330
10168W        W78498  14.284  34.470  11.568
10169W        W78499  11.721  33.060  11.575
10170W        W78500  30.075  37.550  14.940
10171W        W78501   1.328   1.257  12.492
10172W        W78502  36.569  29.514   3.364
10173W        W78503  20.035  28.098  14.809
10174W        W78504   2.337  11.717   2.664
10175W        W78505   7.797   6.367   2.285
10176W        W78506  34.502  26.112   0.893
10177W        W78507  43.454   2.900   0.747
10178W        W78508  33.480  36.896  10.018
10179W        W78509  33.910   4.857  14.302
10180W        W78510   5.866  10.856  11.518
10181W        W78511  31.557  15.115   1.912
10182W        W78512  37.973  13.826   4.605
10183W        W78513  25.097  14.173  13.372
10184W        W78514  34.382  38.563  14.418
10185W        W78515  26.137  31.939  13.461
10186W        W78516  26.148   4.360   4.762
10187W        W78517   6.798  29.109   3.201
10188W        W78518  29.064  39.061  14.895
10189W        W78519   6.699  40.316   3.239
10190W        W78520  25.208  29.986   0.288
10191W        W78521  44.331  14.308   4.598
10192W        W78522  42.353  39.959  11.464
10193W        W78523  36.048  15.602   4.325
10194W        W78524  30.501  13.257  13.322
10195W        W78525  22.115  22.203   1.415
10196W        W78526   5.291  36.926   1.886
10197W        W78527   8.324  20.643   0.779
10198W        W78528   6.294  22.208   4.303
10199W        W78529  28.980  19.750   0.896
10200W        W78530  34.917  20.689  10.943
10201W        W78531  18.184  15.231   3.287
10202W        W78532   3.812  20.684  10.427
10203W        W78533   2.932   5.311   4.174
10204W        W78534   7.862   8.715  12.371
10205W        W78535  39.874  39.858  11.902
10206W        W78536   7.878  23.106  10.923
10207W        W78537   4.383  31.137  10.464
10208W        W78538  13.751  19.198   3.167
10209W        W78539  24.098   5.399  11.113
10210W        W78540   0.487  14.698  11.062
10211W        W78541  34.035  40.039   3.665
10212W        W78542  40.841  28.000  10.578
10213W        W78543   4.901  39.064  11.119
10214W        W78544  34.002  24.182  14.307
10215W        W78545  19.647  11.813   4.772
10216W        W78546  12.326  13.267  11.463
10217W        W78547  41.355  15.632   1.349
10218W        W78548  30.587  39.539   4.154
10219W        W78549  39.441  33.108  11.464
10220W        W78550  37.423  32.922  13.378
10221W        W78551  24.702  14.737   3.762
10222W        W78552  41.922  39.918  13.949
10223W        W78553   6.402  18.727   1.757
10224W        W78554  38.429  24.623  10.520
10225W        W78555   0.300  12.771  14.312
10226W        W78556  32.946  10.645  11.095
10227W        W78557   3.937  20.530   3.782
10228W        W78558  36.093  25.007  10.489
10229W        W78559   6.224  33.523  13.992
10230W        W78560   5.292  20.720   2.708
10231W        W78561  24.616  42.381   1.264
10232W        W78562  33.520  40.824   1.410
10233W        W78563  31.076   7.800   2.753
10234W        W78564  39.051  13.643   2.781
10235W        W78565  38.921   5.885   5.261
10236W        W78566  16.203   6.212   3.649
10237W        W78567  43.988  38.389   3.857
10238W        W78568  35.999  37.372   3.771
10239W        W78569  25.539  22.103   0.312
10240W        W78570  13.127  38.903  14.915
10241W        W78571  39.481  16.580   0.897
10242W        W78572  23.190  38.045  14.462
10243W        W78573   1.383   6.735   0.292
10244W        W78574   2.339   4.208   4.268
10245W        W78575   7.276  10.734  12.359
10246W        W78576  32.001  13.312  12.948
10247W        W78577  26.167  39.834  14.308
10248W        W78578  15.591   6.889   3.788
10249W        W78579  13.817  13.243   0.431
10250W        W78580   2.779  30.916   0.888
10251W        W78581  34.003  23.527   3.159
10252W        W78582  31.495  43.970  12.010
10253W        W78583  36.064  22.030  14.312
10254W        W78584  10.366  27.946  10.614
10255W        W78585  44.367  22.653  11.405
10256W        W78586  12.633  12.205   4.643
10257W        W78587  40.490  22.679  14.907
10258W        W78588   9.164   0.816  14.313
10259W        W78589  26.552  21.097   4.617
10260W        W78590  14.335  13.646  14.995
10261W        W78591   7.867  12.349   4.805
10262W        W78592  41.934  19.701   3.319
10263W        W78593  27.454  43.962   0.818
10264W        W78594  43.485  28.593   0.478
10265W        W78595   9.852  17.725   4.297
10266W        W78596  23.690  34.448  10.423
10267W        W78597  11.314   5.270  11.381
10268W        W78598  28.534   5.778   2.858
10269W        W78599  18.686  41.520  12.857
10270W        W78600  12.243  32.042   0.744
10271W        W78601   4.404  38.869  14.427
10272W        W78602  21.549  41.832  11.434
10273W        W78603  36.560  19.664  14.418
10274W        W78604  14.771  36.994   0.876
10275W        W78605  11.303  19.700  13.961
10276W        W78606  20.183  14.765  10.553
10277W        W78607  15.657  28.088  13.368
10278W        W78608  42.800  11.654   4.150
10279W        W78609  20.186  25.177   0.418
10280W        W78610  14.756  18.272  12.405
10281W        W78611  16.715  44.003   0.962
10282W        W78612  19.773   4.204   1.304
10283W        W78613  33.942  39.029  10.093
10284W        W78614  34.568  37.446   4.289
10285W        W78615  19.040   2.863  11.580
10286W        W78616   1.294   1.863   4.343
10287W        W78617   4.371  26.960   3.693
10288W        W78618  24.988  34.458  14.953
10289W        W78619  38.045  39.033  10.522
10290W        W78620  17.207  27.166   3.803
10291W        W78621  25.664  17.166   2.705
10292W        W78622  27.449   2.856  10.422
10293W        W78623  37.976   7.311  11.524
10294W        W78624   4.814  39.043   2.312
10295W        W78625  42.841   0.929   1.244
10296W        W78626  23.697  32.924  14.408
10297W        W78627   1.311  10.754  11.569
10298W        W78628  44.491  33.489  12.014
10299W        W78629  18.673   2.889  14.778
10300W        W78630  14.138  32.039   2.326
10301W        W78631  35.908  43.338   2.258
10302W        W78632  42.478   6.301  14.806
10303W        W78633  25.989  41.021  12.974
10304W        W78634  34.452  25.079  13.426
10305W        W78635  15.650   0.321   5.212
10306W        W78636  24.023  24.615  10.626
10307W        W78637  25.690  23.194  11.883
10308W        W78638  30.923   1.446  13.944
10309W        W78639  39.480  28.639   3.654
10310W        W78640  16.568   2.759  12.912
10311W        W78641  36.464  27.142  10.478
10312W        W78642  26.009  19.740   3.766
10313W        W78643  31.452  44.888  10.440
10314W        W78644  25.135  40.429   5.320
10315W        W78645   9.813  36.039   4.226
10316W        W78646  26.589  27.654  10.478
10317W        W78647  36.394   1.272  13.415
10318W        W78648  41.995  43.778   0.460
10319W        W78649  41.340  31.144   1.421
10320W        W78650  21.622  31.599  14.445
10321W        W78651  21.193  30.053  10.635
10322W        W78652  30.138  38.883   4.207
10323W        W78653  12.840  20.117  13.378
10324W        W78654  16.291  33.905   5.204
10325W        W78655  13.206  22.038  13.502
10326W        W78656  16.091   2.274   4.786
10327W        W78657   1.347  37.581  14.794
10328W        W78658  43.889  41.904   1.928
10329W        W78659  18.072  42.406   0.914
10330W        W78660  42.312  40.838   3.232
10331W        W78661  32.081  30.105   4.656
10332W        W78662  31.487  40.355  14.927
10333W        W78663  25.194  36.023   0.303
10334W        W78664   1.794  30.128   1.344
10335W        W78665  15.628  25.600   3.226
10336W        W78666  20.077   5.332  12.499
10337W        W78667  42.022  41.943  13.528
10338W        W78668  20.239  28.517   4.281
10339W        W78669  18.057   0.974  10.919
10340W        W78670  12.724   3.772  11.058
10341W        W78671   3.371   6.189   4.780
10342W        W78672   3.796   9.719   1.824
10343W        W78673  35.456  21.740  11.916
10344W        W78674  12.702  34.529  13.393
10345W        W78675  31.141  14.798   4.822
10346W        W78676  21.731  30.932   4.705
10347W        W78677  32.095   5.859  12.857
10348W        W78678  37.548  17.157   4.258
10349W        W78679   1.441  13.716   4.658
10350W        W78680  13.174  15.781  12.048
10351W        W78681  25.656  18.581   0.289
10352W        W78682  10.292   0.876   1.708
10353W        W78683   7.255   4.908  14.297
10354W        W78684  27.979   1.918  13.487
10355W        W78685  36.868  18.175  10.608
10356W        W78686   7.175   6.750  14.505
10357W        W78687  22.528  19.575  13.884
10358W        W78688  43.011  32.567  14.946
10359W        W78689  38.410   6.332  10.124
10360W        W78690  14.321  28.010  10.977
10361W        W78691   4.313  44.917   3.864
10362W        W78692  13.672   3.899   2.387
10363W        W78693   8.811  31.127   3.840
10364W        W78694  39.419  38.909   1.918
10365W        W78695  29.076  33.445   2.392
10366W        W78696   2.406  10.221  10.555
10367W        W78697  22.668  12.334  14.928
10368W        W78698  19.663  29.600  13.860
10369W        W78699  36.844  30.060   0.324
10370W        W78700  18.593  26.162  10.111
10371W        W78701  20.629   4.402   2.202
10372W        W78702   0.416  28.035  14.428
10373W        W78703  32.598  32.045   4.664
10374W        W78704  26.049  27.563  10.554
10375W        W78705   8.760  29.658   0.877
10376W        W78706  23.655  17.642   1.210
10377W        W78707  22.109  11.753   0.789
10378W        W78708  14.207   3.788  10.988
10379W        W78709  42.323  26.482   5.311
10380W        W78710  43.843  25.691  11.107
10381W        W78711  18.218  17.711   4.247
10382W        W78712  34.455  13.691  13.421
10383W        W78713  33.046   5.268   4.158
10384W        W78714   7.223  32.636  14.489
10385W        W78715  39.911  39.374   0.353
10386W        W78716  32.924  24.186  11.891
10387W        W78717  14.288  16.207  14.850
10388W        W78718  29.614  21.024   5.268
10389W        W78719   3.291  13.311   4.622
10390W        W78720  16.688  23.108   0.371
10391W        W78721  25.083   4.211  10.947
10392W        W78722  37.915   7.851  11.019
10393W        W78723  22.649  21.728  14.969
10394W        W78724  11.222  12.234  14.821
10395W        W78725  32.582  20.062   1.930
10396W        W78726  44.450  24.630  11.028
10397W        W78727   9.352  22.126   2.871
10398W        W78728  40.538  32.013   1.421
10399W        W78729  15.286  28.630  10.488
10400W        W78730  29.103   3.752   4.277
10401W        W78731  28.165  44.429   2.823
10402W        W78732  32.501  20.591   2.855
10403W        W78733   7.878  16.599  10.604
10404W        W78734   3.724  42.845  13.545
10405W        W78735   5.932  35.537  11.488
10406W        W78736  29.599  33.600   1.274
10407W        W78737  23.609  28.485   0.469
10408W        W78738  44.479  43.363  11.579
10409W        W78739  10.655  18.190  13.422
10410W        W78740  42.490  44.394  12.004
10411W        W78741   7.171  23.048  12.034
10412W        W78742  34.109  29.036   3.311
10413W        W78743   6.899  27.474   0.364
10414W        W78744  23.091  25.691  12.445
10415W        W78745  38.071  36.406  11.868
10416W        W78746  33.622  35.920  11.110
10417W        W78747   6.726  12.767   2.335
10418W        W78748  23.668  25.969   0.450
10419W        W78749  18.779  11.178   1.386
10420W        W78750  33.936  23.736   1.417
10421W        W78751  31.916  18.220   4.819
10422W        W78752  36.998  38.337   1.919
10423W        W78753  31.134  43.005   0.765
10424W        W78754   1.293  32.422  12.409
10425W        W78755  43.827  39.379  11.486
10426W        W78756  21.041  28.971  12.349
10427W        W78757  38.437   0.906   2.720
10428W        W78758  31.010  12.235   2.886
10429W        W78759  39.477  30.153   0.829
10430W        W78760  38.330   7.209   3.286
10431W        W78761  18.100  19.158   4.817
10432W        W78762  26.121  26.561   3.649
10433W        W78763  21.569  15.653  11.105
10434W        W78764  10.237  41.326  11.409
10435W        W78765  39.355  12.241  10.434
10436W        W78766  10.232  42.818   1.345
10437W        W78767  44.320  25.212   0.259
10438W        W78768  34.996  30.565  13.484
10439W        W78769  13.674  19.111  12.554
10440W        W78770  32.530  40.008   2.209
10441W        W78771  16.734  11.647   3.170
10442W        W78772   4.732   1.268   4.752
10443W        W78773  23.596   4.347   3.329
10444W        W78774  10.288  19.628   0.280
10445W        W78775  40.437  23.993  10.632
10446W        W78776   7.370  39.054  14.280
10447W        W78777  26.083  42.403  14.285
10448W        W78778  17.783  22.613   2.419
10449W        W78779  19.605  14.727  10.594
10450W        W78780  10.295   2.914  12.432
10451W        W78781  27.126   6.260  11.029
10452W        W78782  11.287  40.814   0.871
10453W        W78783   9.774  33.435   1.741
10454W        W78784  25.701  42.951   3.864
10455W        W78785  10.218  19.264  13.437
10456W        W78786  28.944   6.418   1.715
10457W        W78787  34.492   8.684   3.171
10458W        W78788  16.132   6.711   0.839
10459W        W78789   7.375  42.480  11.060
10460W        W78790  29.479  25.011   3.776
10461W        W78791  11.333  16.729  13.963
10462W        W78792   2.453  34.901  11.553
10463W        W78793  27.500  41.952   1.271
10464W        W78794  38.564   1.470   1.743
10465W        W78795  38.500  28.117   0.315
10466W        W78796  17.787  18.215  13.885
10467W        W78797  39.362  24.157  11.440
10468W        W78798  19.276  16.779  11.046
10469W        W78799  38.884  17.665   0.304
10470W        W78800  38.047  20.266   3.819
10471W        W78801  32.596  42.930   3.292
10472W        W78802  22.057  18.276  10.501
10473W        W78803  27.166  24.118   1.793
10474W        W78804   9.843  13.336  12.433
10475W        W78805  18.635  12.164   4.259
10476W        W78806  28.146   9.315   2.412
10477W        W78807   6.744  44.908  11.010
10478W        W78808  21.708  18.099  13.406
10479W        W78809  29.533  13.263   0.262
10480W        W78810  17.673  17.773   2.790
10481W        W78811   1.455  32.007  10.970
10482W        W78812  16.648   5.828  12.988
10483W        W78813  40.011  29.640  11.029
10484W        W78814  20.162   5.373  10.614
10485W        W78815   0.442   4.447   3.320
10486W        W78816  44.792  10.270   1.787
10487W        W78817  16.667  23.541   3.843
10488W        W78818  10.784  38.062   2.889
10489W        W78819  40.467  11.186   3.679
10490W        W78820  10.316  26.123  12.524
10491W        W78821  35.584  17.108  14.325
10492W        W78822  16.240  14.743  13.312
10493W        W78823  29.622  35.458  12.943
10494W        W78824  27.665  15.663   5.097
10495W        W78825  44.849  17.615  11.430
10496W        W78826  42.786  25.556  12.072
10497W        W78827  31.952   4.280   1.726
10498W        W78828  17.224   7.220  10.430
10499W        W78829  16.076  42.365  10.449
10500W        W78830  15.179  42.407  12.899
10501W        W78831  25.028  31.630  13.845
10502W        W78832  34.050  13.180   0.258
10503W        W78833   7.787  25.041  10.595
10504W        W78834  31.484  14.208   2.410
10505W        W78835  22.012   8.243  13.856
10506W        W78836  39.939  30.560   2.408
10507W        W78837   1.472  13.126   0.435
10508W        W78838  30.609  27.103  13.917
10509W        W78839  26.959  35.972  12.397
10510W        W78840  10.191   9.658   2.708
10511W        W78841  34.021  26.544  10.914
10512W        W78842   0.270   0.936  12.467
10513W        W78843  40.826  23.518  13.827
10514W        W78844  27.183  25.091  13.475
10515W        W78845  19.041  41.959  11.483
10516W        W78846   1.786   7.847  14.313
10517W        W78847   1.849  18.748  14.828
10518W        W78848  31.139   6.709  14.430
10519W        W78849   0.825  43.454   1.330
10520W        W78850   3.421  43.401   2.818
10521W        W78851  25.164   5.815  10.945
10522W        W78852  41.832  10.289   4.645
10523W        W78853  22.117  14.641  13.931
10524W        W78854  24.216  23.103   3.357
10525W        W78855  21.649  27.654   0.822
10526W        W78856  38.824  26.660   1.758
10527W        W78857  40.325   0.268   3.718
10528W        W78858  41.466  14.140  14.913
10529W        W78859  30.435  31.511   2.356
10530W        W78860  30.477  35.906  12.572
10531W        W78861   2.248  39.457   1.893
10532W        W78862  14.756   4.784   1.352
10533W        W78863  34.580  27.079  13.852
10534W        W78864  13.840  31.051  11.589
10535W        W78865   1.892  26.632  14.328
10536W        W78866  10.254   2.806  10.972
10537W        W78867  26.037  43.419  12.847
10538W        W78868  32.086  18.644   2.352
10539W        W78869  20.129  43.906   2.189
10540W        W78870   4.262  42.783  14.818
10541W        W78871   3.834  29.043  12.514
10542W        W78872   7.188  20.146   1.337
10543W        W78873   4.846  16.769  13.806
10544W        W78874  16.258   3.780   1.223
10545W        W78875   7.276  39.555  13.439
10546W        W78876  18.754   8.832  10.491
10547W        W78877  39.515  11.231   4.338
10548W        W78878  12.331  15.206   0.459
10549W        W78879  44.327  31.922  12.076
10550W        W78880  14.186   1.744   0.265
10551W        W78881  10.818  25.984  13.535
10552W        W78882  36.075   7.912  12.406
10553W        W78883   9.354   3.305  13.353
10554W        W78884  39.967  11.294   3.151
10555W        W78885  31.412  18.593  11.003
10556W        W78886  34.864  43.827  12.471
10557W        W78887  33.993  28.536  12.445
10558W        W78888  23.561  37.345  12.062
10559W        W78889   6.700  11.185  10.560
10560W        W78890  26.001  34.442  12.580
10561W        W78891  26.025  38.537   3.843
10562W        W78892  18.144   2.803   4.717
10563W        W78893   3.851   8.213   0.350
10564W        W78894   2.347  40.348   1.883
10565W        W78895  27.076   8.683   0.337
10566W        W78896  31.088  22.607  11.912
10567W        W78897  16.198  44.479  13.045
10568W        W78898  14.640   5.913   3.722
10569W        W78899  26.956  19.048  10.944
10570W        W78900   4.392  11.238  11.073
10571W        W78901  35.879  44.786  11.914
10572W        W78902  44.496  28.656  14.763
10573W        W78903  35.892   8.729  12.927
10574W        W78904  11.708  36.391  11.110
10575W        W78905  10.288  42.835  10.072
10576W        W78906   4.805  40.382  14.496
10577W        W78907  18.771  11.234  13.998
10578W        W78908   4.754  32.062  10.643
10579W        W78909  33.875   7.271  11.471
10580W        W78910  39.314  24.546  13.036
10581W        W78911  44.364  39.048  10.945
10582W        W78912  13.241  11.778   1.857
10583W        W78913  17.772  31.521  13.345
10584W        W78914   3.400  35.568   2.351
10585W        W78915   4.313  13.713  13.451
10586W        W78916  33.454  19.192   4.660
10587W        W78917  23.001  32.134  12.862
10588W        W78918  36.457  22.553  14.472
10589W        W78919  41.966  26.656  11.376
10590W        W78920  26.593   2.403   1.753
10591W        W78921   4.808  34.055   1.357
10592W        W78922  35.942  41.836  14.948
10593W        W78923  41.023  35.580  12.485
10594W        W78924  28.561   2.962  11.435
10595W        W78925   6.867  44.402  11.994
10596W        W78926  44.779  43.884  11.507
10597W        W78927  32.408  30.461  12.495
10598W        W78928  38.055  40.488  12.965
10599W        W78929  26.660  18.760  14.346
10600W        W78930  12.207  13.201  11.109
10601W        W78931  13.215  39.809   9.975
10602W        W78932  43.438   1.750   3.813
10603W        W78933  33.055  10.312  14.404
10604W        W78934  23.027  26.171   0.419
10605W        W78935  20.590  36.372  14.298
10606W        W78936  12.789  31.035   3.838
10607W        W78937  11.776  10.270  10.592
10608W        W78938  28.662   9.674  12.422
10609W        W78939   9.665   8.224  13.391
10610W        W78940  39.353  22.061  12.070
10611W        W78941  38.906   1.348  14.402
10612W        W78942  27.123  44.441  11.372
10613W        W78943  22.244  25.088   3.760
10614W        W78944  18.689   2.298   3.653
10615W        W78945   7.805  21.538  13.413
10616W        W78946   2.242   9.741  10.577
10617W        W78947  40.883  12.764  11.861
10618W        W78948  41.406  31.575  11.914
10619W        W78949  17.147  33.520  12.431
10620W        W78950   3.937  37.379   1.845
10621W        W78951  30.441  31.039   0.271
10622W        W78952  44.823  26.123   1.337
10623W        W78953  23.499  41.030  14.030
10624W        W78954  37.023  22.692   1.744
10625W        W78955  11.224  29.947  10.420
10626W        W78956   2.756   1.326   3.264
10627W        W78957  27.959  42.820  14.947
10628W        W78958  33.383  29.112   4.118
10629W        W78959  27.961  11.747  14.992
10630W        W78960  38.345  29.491   2.362
10631W        W78961   5.306  28.996  11.062
10632W        W78962  19.228  43.900   4.280
10633W        W78963  35.545  11.341  13.989
10634W        W78964   0.897  34.443   2.764
10635W        W78965  36.952  35.471   3.835
10636W        W78966   9.657  20.567  13.355
10637W        W78967  14.125  19.242  14.792
10638W        W78968  37.489  10.214  14.291
10639W        W78969  21.226   5.258   4.769
10640W        W78970  44.420  12.192  11.437
10641W        W78971   9.736  14.259  13.422
10642W        W78972  14.292  30.048  11.892
10643W        W78973  25.089   9.193   2.369
10644W        W78974   2.937   5.749  13.941
10645W        W78975   2.823  43.499  10.642
10646W        W78976  40.944  13.712  14.859
10647W        W78977  13.108   5.221  13.794
10648W        W78978  36.082  36.454  14.346
10649W        W78979  40.846  16.124  11.095
10650W        W78980   5.370  29.148  12.418
10651W        W78981  23.678   6.223   0.431
10652W        W78982   0.951  18.237   2.874
10653W        W78983  40.470  13.645   1.444
10654W        W78984  11.719  14.174   3.170
10655W        W78985   4.325  37.864  13.863
10656W        W78986  13.126  18.191  11.936
10657W        W78987  17.604  16.614   1.298
10658W        W78988  37.502  37.577   5.126
10659W        W78989  20.726  33.087  12.580
10660W        W78990  33.380  14.339   4.275
10661W        W78991  39.064  10.819   1.226
10662W        W78992  30.529  30.035   1.711
10663W        W78993  31.586  10.240   3.716
10664W        W78994  22.609  32.522   3.709
10665W        W78995  37.363  21.668  11.374
10666W        W78996  20.029  22.511  13.353
10667W        W78997   2.790  22.533   2.831
10668W        W78998   9.395  10.350  14.027
10669W        W78999  35.095  25.538  12.563
10670W        W79000  21.552  26.579   9.939
10671W        W79001   2.930  29.149   2.859
10672W        W79002   8.814  27.534   3.356
10673W        W79003  19.099  14.619  14.806
10674W        W79004  35.539   9.698   4.137
10675W        W79005   8.372  18.760   2.725
10676W        W79006  11.310  33.944  11.409
10677W        W79007  33.466  34.060  13.866
10678W        W79008  16.163  27.533   4.727
10679W        W79009  35.566  28.173   4.353
10680W        W79010  21.251   3.420  14.293
10681W        W79011  16.579  41.390   4.243
10682W        W79012   9.210  22.638   0.855
10683W        W79013  21.555  25.118   3.676
10684W        W79014   2.866  13.259   3.350
10685W        W79015  33.027  18.643   2.274
10686W        W79016  44.300  43.844   2.349
10687W        W79017  15.821  37.917   1.922
10688W        W79018   8.688  42.879  13.512
10689W        W79019  26.670  33.569   3.321
10690W        W79020  44.406  20.185   0.256
10691W        W79021  18.078   8.254   3.206
10692W        W79022  33.414  22.155   3.281
10693W        W79023  41.964  28.604   4.747
10694W        W79024  17.801   9.781  14.993
10695W        W79025  10.670  12.208   4.733
10696W        W79026   3.342  28.620  14.779
10697W        W79027   2.392  28.116   0.738
10698W        W79028   9.767   2.358   2.682
10699W        W79029  12.277  10.259  13.042
10700W        W79030  18.647  19.753   1.803
10701W        W79031  13.603  39.959  11.388
10702W        W79032  24.534  43.906  11.030
10703W        W79033   6.804  24.060  13.987
10704W        W79034  26.148  26.032  12.868
10705W        W79035  42.362  44.000   4.734
10706W        W79036  25.000  39.950   4.723
10707W        W79037  29.486  12.246   2.716
10708W        W79038   1.789  39.822  12.880
10709W        W79039  19.648   3.714   0.748
10710W        W79040  40.873  18.176   1.929
10711W        W79041   9.336   8.400  14.338
10712W        W79042  42.297  14.248   2.734
10713W        W79043  40.448  38.839   4.703
10714W        W79044  19.157  31.953  10.412
10715W        W79045  19.277   6.694  10.536
10716W        W79046   3.954  36.044   2.315
10717W        W79047  25.129   6.368  12.492
10718W        W79048  23.513  22.079   2.728
10719W        W79049   4.363  33.450  10.598
10720W        W79050   6.807   8.313  12.342
10721W        W79051  35.073   4.872  11.008
10722W        W79052  10.375   9.761   1.307
10723W        W79053  22.196  14.201  13.534
10724W        W79054   2.743   9.821   2.722
10725W        W79055  43.767  25.627  14.296
10726W        W79056  31.055  23.562   0.256
10727W        W79057  22.050  19.753   3.841
10728W        W79058  19.279  15.237   3.838
10729W        W79059  17.730  42.413   4.638
10730W        W79060   1.810  32.410  11.939
10731W        W79061  35.024  31.051  14.813
10732W        W79062  19.545  40.985   2.755
10733W        W79063  36.002  26.645   3.821
10734W        W79064  24.554  10.332   0.923
10735W        W79065  37.447  29.428   5.239
10736W        W79066  21.200  27.570   9.658
10737W        W79067  31.104  29.966   0.353
10738W        W79068  15.620  10.142   4.271
10739W        W79069   9.392  22.691  10.119
10740W        W79070  25.097  25.618  10.619
10741W        W79071  39.050  24.554  12.547
10742W        W79072  12.223   0.410  14.799
10743W        W79073  15.750  14.323  14.968
10744W        W79074  44.972  34.411   2.726
10745W        W79075  40.450  28.100   2.850
10746W        W79076  30.474   0.882  11.926
10747W        W79077  22.583  16.110   2.701
10748W        W79078   9.799   2.927   1.853
10749W        W79079  38.961  35.941   5.108
10750W        W79080   8.253   1.766  12.561
10751W        W79081  38.558  24.578  12.401
10752W        W79082  29.570  20.744   0.295
10753W        W79083  31.908  26.039  13.970
10754W        W79084  11.234   8.741  10.932
10755W        W79085  25.174   9.817  12.917
10756W        W79086  13.309  15.186  14.859
10757W        W79087   3.328  37.543   0.285
10758W        W79088  14.653   6.741   2.258
10759W        W79089  11.363  44.366   3.767
10760W        W79090  16.598  19.222   2.730
10761W        W79091  29.546  35.561   3.774
10762W        W79092   0.883  43.995  13.425
10763W        W79093  26.987  24.710  13.424
10764W        W79094  18.547  10.787  13.978
10765W        W79095  26.952  24.017  11.936
10766W        W79096  28.015  23.025  13.977
10767W        W79097   6.369  12.177   0.261
10768W        W79098   9.219  12.722  12.534
10769W        W79099  23.148  35.495  12.359
10770W        W79100  19.564  11.793   3.216
10771W        W79101  19.227  26.634   1.211
10772W        W79102  43.900  29.145  10.599
10773W        W79103  40.364  29.119  11.970
10774W        W79104  39.012  10.708  12.861
10775W        W79105  16.272  35.570   1.810
10776W        W79106   9.728  40.017  14.997
10777W        W79107  14.800   7.349  11.512
10778W        W79108   2.236  10.698  13.902
10779W        W79109  43.814  34.065  11.865
10780W        W79110   0.452  38.035   2.751
10781W        W79111   0.460   0.950   1.753
10782W        W79112  26.139  11.300  14.441
10783W        W79113   1.789   9.391   1.773
10784W        W79114  36.876   5.300  13.535
10785W        W79115  17.245  16.279  13.518
10786W        W79116  11.170  12.151   4.610
10787W        W79117   3.782  43.903  11.033
10788W        W79118   2.277  28.140  14.378
10789W        W79119   7.290  40.521  11.416
10790W        W79120  30.067  34.916   0.428
10791W        W79121  44.456  21.545  11.857
10792W        W79122  22.580  31.445  11.385
10793W        W79123  33.579  26.699  14.427
10794W        W79124  40.458   6.822   4.772
10795W        W79125  16.629  41.372  10.970
10796W        W79126  17.559  39.880  11.964
10797W        W79127  17.276  31.454  11.033
10798W        W79128  13.219  40.528  12.343
10799W        W79129  40.459  20.628  13.456
10800W        W79130  18.259   4.914   1.371
10801W        W79131  17.595   3.454   4.635
10802W        W79132  29.077  34.603   2.680
10803W        W79133  13.629  27.486   1.410
10804W        W79134  43.302  21.650   3.148
10805W        W79135   0.388  41.440   3.306
10806W        W79136  39.980  16.235  11.923
10807W        W79137   1.961   7.197   0.481
10808W        W79138  31.492  12.125  12.347
10809W        W79139  28.544  36.387   4.651
10810W        W79140   7.678  35.106  13.972
10811W        W79141  16.220  44.976  11.986
10812W        W79142  24.005   1.765   4.206
10813W        W79143   1.369  40.534  11.891
10814W        W79144  26.136  17.783   4.138
10815W        W79145  21.652  29.126   4.729
10816W        W79146   2.300   5.297   4.750
10817W        W79147   8.897  23.175  10.498
10818W        W79148  19.710  41.861   4.220
10819W        W79149   6.811  37.408  10.525
10820W        W79150   4.802  43.932   1.881
10821W        W79151  25.190  35.938   0.727
10822W        W79152  10.770  33.483   3.846
10823W        W79153  10.262   1.329  13.382
10824W        W79154  41.897  34.408  10.909
10825W        W79155   3.952  32.524   2.341
10826W        W79156   5.275   2.817  12.543
10827W        W79157  39.823  19.760   4.759
10828W        W79158  13.623  35.061   2.863
10829W        W79159   6.293  28.156   4.746
10830W        W79160  21.028  10.776  12.568
10831W        W79161  35.548  42.394  13.808
10832W        W79162  42.524   0.779  13.408
10833W        W79163  33.475  10.320  13.053
10834W        W79164  25.664  43.490   0.331
10835W        W79165  40.998  18.269   4.700
10836W        W79166   3.267  40.317   3.274
10837W        W79167  39.314   6.367  12.499
10838W        W79168  35.977  12.168   3.817
10839W        W79169  26.995  17.564   3.233
10840W        W79170  15.207  21.126  11.470
10841W        W79171  10.382  10.335   3.761
10842W        W79172  33.515  14.275   3.634
10843W        W79173   3.857  27.054   3.152
10844W        W79174  19.710   5.852   4.710
10845W        W79175  22.690  31.435  14.889
10846W        W79176  23.152  42.286   3.306
10847W        W79177  14.148  16.105   4.774
10848W        W79178  43.299   9.798   0.836
10849W        W79179   4.292  23.609   1.401
10850W        W79180  24.998  41.357  12.416
10851W        W79181  44.866   1.426   0.928
10852W        W79182  24.539   9.722   2.239
10853W        W79183   6.690  40.921  13.384
10854W        W79184  15.235  36.490   4.292
10855W        W79185  31.993  19.214   5.274
10856W        W79186  40.435  34.908   2.413
10857W        W79187  31.648  30.021  11.462
10858W        W79188   5.378  31.468   4.275
10859W        W79189  37.970  27.144   3.243
10860W        W79190  14.222  38.061   2.855
10861W        W79191   7.180  39.435  12.840
10862W        W79192  29.619  10.250  14.393
10863W        W79193  11.791  39.882   4.332
10864W        W79194  12.303  14.288   4.633
10865W        W79195  42.932  16.617   0.245
10866W        W79196  11.673   0.378   3.816
10867W        W79197  35.013  16.107   1.372
10868W        W79198  28.641  35.102   3.659
10869W        W79199  13.846  24.180   1.909
10870W        W79200  10.303  36.899   1.775
10871W        W79201  39.050  31.556  10.068
10872W        W79202  41.934  27.629  14.888
10873W        W79203  36.008   8.363  10.973
10874W        W79204  27.618  18.675   4.250
10875W        W79205  37.984  22.192  14.970
10876W        W79206  41.534  13.754  13.004
10877W        W79207   4.749  22.248  12.026
10878W        W79208  41.974  32.632   0.768
10879W        W79209  33.514   1.909   2.356
10880W        W79210  30.623   8.899  11.421
10881W        W79211  10.229  35.005  10.428
10882W        W79212  30.517  11.343   1.836
10883W        W79213  20.180  10.732   4.337
10884W        W79214  22.530   6.241  12.994
10885W        W79215  43.300  36.874  11.445
10886W        W79216   2.782  22.136   0.859
10887W        W79217   9.728  13.232   3.330
10888W        W79218  34.399  27.185   0.337
10889W        W79219  21.154  40.933  11.552
10890W        W79220  32.588   2.443   1.881
10891W        W79221   2.885   1.392   0.368
10892W        W79222  38.936  40.366  11.016
10893W        W79223  27.094  21.676  12.347
10894W        W79224  22.034   8.308  10.549
10895W        W79225  32.472   4.712  11.979
10896W        W79226   9.696  19.751  14.346
10897W        W79227  31.511   1.786  10.603
10898W        W79228  11.798  37.904  11.606
10899W        W79229  33.026  10.331   3.679
10900W        W79230  25.981  26.999  11.925
10901W        W79231  22.021  44.825   4.354
10902W        W79232  30.453  44.814  14.449
10903W        W79233  36.030  21.527   2.413
10904W        W79234  23.994  27.658   0.778
10905W        W79235  21.025  16.671   5.270
10906W        W79236  43.314   4.338  13.986
10907W        W79237  30.097   6.786   4.732
10908W        W79238  31.508   1.454   1.232
10909W        W79239  29.167  27.945   3.770
10910W        W79240  19.592   0.485   3.825
10911W        W79241  42.525  24.081   4.700
10912W        W79242   2.360  27.469   1.220
10913W        W79243  16.808  37.423  10.560
10914W        W79244  11.766   8.858  13.982
10915W        W79245   9.726  18.686  13.323
10916W        W79246   0.972  40.345  11.543
10917W        W79247  27.997  20.650   3.291
10918W        W79248  36.532  36.889  13.313
10919W        W79249  10.674  15.809  10.982
10920W        W79250  18.240   4.311  13.883
10921W        W79251  36.849  13.262   4.830
10922W        W79252   6.375  11.839   3.177
10923W        W79253   4.699   8.269   2.315
10924W        W79254  43.377  36.904  11.865
10925W        W79255  23.611  27.692  10.509
10926W        W79256  38.039  14.190  14.478
10927W        W79257   0.811  24.643  11.522
10928W        W79258  15.730  27.165   1.830
10929W        W79259  28.174  29.073   0.400
10930W        W79260  17.711  40.364   3.732
10931W        W79261   9.287  38.539   3.737
10932W        W79262  29.483  34.906  10.569
10933W        W79263  23.204   2.772   4.799
10934W        W79264   8.868  37.574  13.548
10935W        W79265  38.550  19.674  14.959
10936W        W79266  35.579  26.504   4.132
10937W        W79267   4.440  18.606   0.255
10938W        W79268   7.693  15.715   3.301
10939W        W79269  24.079  40.952  13.008
10940W        W79270  11.292  18.290   4.288
10941W        W79271  26.593  37.937  12.835
10942W        W79272  10.275  34.592  13.407
10943W        W79273   1.409  17.285  12.489
10944W        W79274  35.080   2.409  10.585
10945W        W79275  44.470   0.410   0.359
10946W        W79276  38.395  29.120   0.759
10947W        W79277  12.334  11.766  11.610
10948W        W79278  29.972  31.905   2.324
10949W        W79279  23.672   6.233  14.844
10950W        W79280  11.692  24.699   3.697
10951W        W79281   3.845   4.387   2.209
10952W        W79282  10.200  42.861   3.869
10953W        W79283   6.781   4.869  11.031
10954W        W79284  32.564   2.467  11.078
10955W        W79285   8.160   7.235  13.363
10956W        W79286  32.041  39.443  13.513
10957W        W79287  30.974  17.625   4.123
10958W        W79288   7.735  31.957   2.256
10959W        W79289   9.643  28.677   3.865
10960W        W79290  21.565  25.686   4.121
10961W        W79291  14.809  35.466  11.877
10962W        W79292  23.598  42.315   3.644
10963W        W79293  17.301  11.816   0.437
10964W        W79294  15.708  11.672  10.558
10965W        W79295  36.537  26.025   1.730
10966W        W79296  40.897  28.670  13.849
10967W        W79297  10.769  19.771  12.967
10968W        W79298  13.258  28.995  12.417
10969W        W79299  21.031  19.679   3.313
10970W        W79300  22.732  27.488  10.590
10971W        W79301  24.108  14.100   3.674
10972W        W79302   2.848   4.411   4.306
10973W        W79303  15.781   1.257   4.760
10974W        W79304   3.412   7.190  10.135
10975W        W79305  38.429   4.767  10.521
10976W        W79306  18.690  39.011  10.991
10977W        W79307   5.728  20.708   4.730
10978W        W79308  27.025  20.599  14.980
10979W        W79309  44.492   9.211   4.175
10980W        W79310   1.392  35.536  13.453
10981W        W79311  23.608   0.847  12.910
10982W        W79312  19.269  14.126  11.966
10983W        W79313  13.172  40.946  10.926
10984W        W79314  18.107   2.231  12.473
10985W        W79315  16.740  44.871  14.776
10986W        W79316  40.521  28.942  13.806
10987W        W79317  13.692   2.822   3.268
10988W        W79318   3.321   4.425   3.328
10989W        W79319  17.256  24.486   0.846
10990W        W79320  11.132  14.136   1.721
10991W        W79321  43.432  26.104   0.777
10992W        W79322  37.556  11.335  13.891
10993W        W79323  15.683  13.733   1.216
10994W        W79324  23.676  23.236   0.806
10995W        W79325  32.046  37.511   2.349
10996W        W79326  28.933  15.599   4.680
10997W        W79327  38.873  24.506   2.404
10998W        W79328  25.613   9.346   1.239
10999W        W79329  19.576   9.266  13.850
11000W        W79330  34.443  17.645   2.766
11001W        W79331   0.466  13.145  14.390
11002W        W79332   7.811  18.629  12.992
11003W        W79333  25.471  44.859   1.314
11004W        W79334  16.251  16.142  14.816
11005W        W79335  31.471  19.746   0.730
11006W        W79336  19.736  43.359   3.386
11007W        W79337  41.818  39.499   2.373
11008W        W79338  25.484  44.277   2.807
11009W        W79339  44.999  16.193   0.358
11010W        W79340   6.320  10.358   4.291
11011W        W79341  19.606   2.327   1.223
11012W        W79342   6.285   2.950  13.904
11013W        W79343  25.541  26.670  11.485
11014W        W79344  36.453  21.034  11.921
11015W        W79345  16.166  15.610  10.938
11016W        W79346   3.260  18.221   2.761
11017W        W79347  14.149  43.439   3.232
11018W        W79348  10.769   7.268  11.089
11019W        W79349  16.589  20.660  10.530
11020W        W79350  40.811   7.739   1.925
11021W        W79351  44.777  12.126   2.899
11022W        W79352  27.153  21.177  11.600
11023W        W79353  29.537  22.582   0.309
11024W        W79354  10.755  21.213   0.827
11025W        W79355  28.062  36.926  14.515
11026W        W79356  11.199  29.528  10.533
11027W        W79357  27.952   7.883  13.855
11028W        W79358  12.199   4.907  11.023
11029W        W79359  26.672   8.892  11.978
11030W        W79360  23.990  20.541  10.463
11031W        W79361  31.154  15.220  12.947
11032W        W79362  19.091  11.272  13.024
11033W        W79363  29.521  13.718  11.464
11034W        W79364  35.051  26.610   0.782
11035W        W79365  41.799  40.376   3.357
11036W        W79366   8.807  30.566   1.815
11037W        W79367  41.491   0.254   1.288
11038W        W79368  29.554  43.284   1.259
11039W        W79369   3.865   2.279  13.844
11040W        W79370  40.811   5.792   1.430
11041W        W79371  33.434  42.826   4.769
11042W        W79372  44.950  31.426   0.776
11043W        W79373  41.528  40.963  10.621
11044W        W79374   2.230   9.232   4.163
11045W        W79375  40.040  42.965  14.841
11046W        W79376  18.632  44.292   9.987
11047W        W79377  34.477  24.003  11.917
11048W        W79378  18.159  16.257  11.507
11049W        W79379  22.554  28.959   4.694
11050W        W79380   1.432  20.137   1.787
11051W        W79381   1.898  23.067  11.031
11052W        W79382  19.153  43.851  10.635
11053W        W79383   4.776  29.109  11.877
11054W        W79384  44.760   6.396   1.812
11055W        W79385  32.964  37.365  12.038
11056W        W79386  25.169  24.192  11.108
11057W        W79387  23.071  10.635  10.584
11058W        W79388  33.925  29.592   0.965
11059W        W79389   7.849  41.399  14.311
11060W        W79390  10.649  35.875  12.840
11061W        W79391  34.087  42.946  13.964
11062W        W79392  29.074  12.722  10.417
11063W        W79393  12.721   2.894  12.855
11064W        W79394   7.408  23.997   1.861
11065W        W79395  17.656  10.849   3.767
11066W        W79396   6.301   3.403   3.288
11067W        W79397  37.959  15.177   1.731
11068W        W79398  31.941  42.952   2.315
11069W        W79399  24.094  27.652  12.370
11070W        W79400   1.949  33.427  13.361
11071W        W79401  28.130   5.847   2.196
11072W        W79402  18.132  34.457   3.146
11073W        W79403   3.738  34.425   0.905
11074W        W79404  22.544  21.259   4.322
11075W        W79405  11.262  15.611  10.120
11076W        W79406  39.055  42.003  12.427
11077W        W79407  24.035  44.321   3.290
11078W        W79408  31.004  30.520  11.610
11079W        W79409  41.917  28.450  11.996
11080W        W79410   6.718  37.886  13.479
11081W        W79411  23.507  33.075  12.523
11082W        W79412  17.213   1.844   1.439
11083W        W79413  23.165   9.826  12.500
11084W        W79414  40.482  24.061   0.761
11085W        W79415  16.616  34.037  13.867
11086W        W79416   4.848  14.832  13.404
11087W        W79417   6.893  34.056  11.881
11088W        W79418   2.318  11.668   2.387
11089W        W79419  38.930  33.953  14.776
11090W        W79420  12.244  24.507   4.349
11091W        W79421   5.282  39.945   3.278
11092W        W79422  27.555   6.905  13.798
11093W        W79423   5.217   5.787  13.015
11094W        W79424  19.177  37.910   4.690
11095W        W79425  40.320  19.132  11.555
11096W        W79426  28.447   1.384  13.874
11097W        W79427  39.408   8.743  11.070
11098W        W79428  17.072  14.149  11.504
11099W        W79429  38.440  36.841  12.050
11100W        W79430   9.856   0.785   0.415
11101W        W79431  11.761  24.061  14.947
11102W        W79432  12.148  20.168   1.407
11103W        W79433  14.833  30.090  13.046
11104W        W79434   0.465  21.057   2.233
11105W        W79435  40.833  14.732  11.905
11106W        W79436  37.458  17.642  12.925
11107W        W79437   9.830  35.429  10.636
11108W        W79438   4.376   4.430  13.988
11109W        W79439  43.921   6.302  13.343
11110W        W79440  44.313  33.518   0.360
11111W        W79441  27.632  28.601  14.427
11112W        W79442  42.959  25.989   3.286
11113W        W79443  26.571  16.157   3.255
11114W        W79444   1.865   7.185   4.217
11115W        W79445  10.185  12.672  12.854
11116W        W79446  30.551   5.906  12.560
11117W        W79447   4.224  36.434   3.847
11118W        W79448  19.067   7.305  14.921
11119W        W79449  28.576  31.908  11.005
11120W        W79450  27.191   0.431  13.526
11121W        W79451  34.432  25.523  11.961
11122W        W79452   1.796  17.092   3.360
11123W        W79453   8.745  11.175   0.854
11124W        W79454  10.304  39.054  10.499
11125W        W79455  28.168  26.979   3.730
11126W        W79456   3.299   2.274  11.559
11127W        W79457  17.248  41.533  11.968
11128W        W79458  39.044  32.522  14.788
11129W        W79459  32.112   0.467   1.868
11130W        W79460   9.798   7.305  13.026
11131W        W79461  28.121  17.765  11.027
11132W        W79462  34.881  39.387  13.402
11133W        W79463  10.778  17.170   1.269
11134W        W79464   2.935   5.364  12.016
11135W        W79465  24.650   1.346   4.834
11136W        W79466  41.306   6.332  14.934
11137W        W79467  17.797  26.990   3.763
11138W        W79468  30.081  21.064  14.389
11139W        W79469   8.683   8.810  13.443
11140W        W79470  16.717   3.747   1.230
11141W        W79471  32.578  38.434  12.999
11142W        W79472   0.875  44.943  13.830
11143W        W79473   9.702   9.825   4.316
11144W        W79474   4.301   3.313   0.252
11145W        W79475  38.473  21.645  13.029
11146W        W79476   6.809  23.646  14.505
11147W        W79477   5.797  39.560   1.216
11148W        W79478  33.035  25.204   0.747
11149W        W79479  41.314  12.321  11.458
11150W        W79480  17.583  44.845  13.926
11151W        W79481  29.556   6.694   1.372
11152W        W79482  20.160  32.623  11.562
11153W        W79483  17.764  18.276  14.981
11154W        W79484  26.478  39.828  14.451
11155W        W79485  34.075  17.742   3.146
11156W        W79486  41.876  42.819  11.904
11157W        W79487  25.588  13.719   0.480
11158W        W79488  24.671  26.056  14.793
11159W        W79489  41.875  42.435   4.193
11160W        W79490  37.534   6.758  11.440
11161W        W79491  20.670  14.701  10.514
11162W        W79492  40.031  13.689  11.108
11163W        W79493  42.406  38.350   1.227
11164W        W79494  38.927  43.429  14.295
11165W        W79495  26.468  20.706   0.350
11166W        W79496  21.166  41.525   0.249
11167W        W79497  41.360  32.986   2.709
11168W        W79498  19.674  40.995  12.933
11169W        W79499   1.815   1.424  13.055
11170W        W79500  19.284   6.781   1.890
11171W        W79501  29.962  35.371  14.421
11172W        W79502   8.779  27.098   3.251
11173W        W79503  22.570   1.783  14.798
11174W        W79504  41.316  22.230   1.778
11175W        W79505  31.403  22.029  11.392
11176W        W79506  38.391  35.873   4.600
11177W        W79507  38.918   4.721   4.156
11178W        W79508   0.897   2.318   2.890
11179W        W79509  37.553  15.202  14.465
11180W        W79510  18.117  22.242  11.992
11181W        W79511   4.324  10.142   2.689
11182W        W79512  41.418  24.606   3.212
11183W        W79513  19.276  44.754   4.683
11184W        W79514  42.032  25.173   5.148
11185W        W79515  23.618  28.107   3.170
11186W        W79516  14.281  33.128   0.815
11187W        W79517  14.193  23.207   0.954
11188W        W79518  33.904   4.208  11.480
11189W        W79519  27.517  23.091  11.403
11190W        W79520  19.732  10.310  13.827
11191W        W79521  14.752  21.032  11.602
11192W        W79522  39.061  34.907  12.854
11193W        W79523  13.632  42.937  13.847
11194W        W79524   8.847  37.447  10.417
11195W        W79525  38.457  19.710   3.737
11196W        W79526  22.162  13.814  11.970
11197W        W79527  30.578  11.826  12.907
11198W        W79528  21.047  10.830  11.425
11199W        W79529  26.162  22.737  14.768
11200W        W79530  15.800  30.565  10.632
11201W        W79531  28.942   1.791   1.293
11202W        W79532   6.909   8.844   4.799
11203W        W79533  31.900  17.751   0.418
11204W        W79534  25.612  19.665  12.045
11205W        W79535  12.784  33.075  10.949
11206W        W79536  25.061  27.091   3.334
11207W        W79537  41.377  20.065  10.965
11208W        W79538  31.938  16.710  11.869
11209W        W79539   5.903  24.043  12.380
11210W        W79540  32.592  28.176   2.738
11211W        W79541  31.100  30.925   0.785
11212W        W79542  37.483  36.879  13.027
11213W        W79543  30.422  41.862  11.463
11214W        W79544  10.754  24.054  13.443
11215W        W79545  38.031  19.065  13.385
11216W        W79546  37.843  33.610   0.450
11217W        W79547  16.794   5.238  13.465
11218W        W79548  25.592  39.862  10.524
11219W        W79549  40.932  24.006   1.430
11220W        W79550   1.958   8.725   4.308
11221W        W79551   6.265  19.122  11.074
11222W        W79552  15.633  15.324   0.278
11223W        W79553  42.431   2.307   2.799
11224W        W79554   1.386  33.554  14.441
11225W        W79555  27.183  30.656  13.461
11226W        W79556  29.478  18.226   0.439
11227W        W79557   2.399  35.452   2.258
11228W        W79558   0.301  36.026  11.477
11229W        W79559   7.255  14.590   1.215
11230W        W79560  37.486  43.394  11.460
11231W        W79561  11.702  18.678  12.856
11232W        W79562  36.859  41.446   1.753
11233W        W79563  33.076  34.503   3.702
11234W        W79564  15.269  25.988   1.288
11235W        W79565  36.469  23.604  12.492
11236W        W79566  12.618   2.737   1.775
11237W        W79567  17.706  18.644  14.405
11238W        W79568  16.680  28.557  11.011
11239W        W79569  32.891  10.213  10.135
11240W        W79570  40.870   0.783  14.392
11241W        W79571  44.804   2.795   3.206
11242W        W79572  36.093  18.079   2.898
11243W        W79573   9.172  44.470   4.621
11244W        W79574  20.527  12.724  11.446
11245W        W79575  11.164   9.178   4.632
11246W        W79576   6.801  28.484   2.230
11247W        W79577   6.342  37.008  14.343
11248W        W79578  33.946  15.216  10.437
11249W        W79579   3.937  43.508   1.930
11250W        W79580  36.519  40.370   1.897
11251W        W79581  42.853  32.636   2.411
11252W        W79582   7.276   0.305  10.592
11253W        W79583   2.942  13.188   0.917
11254W        W79584  29.461  35.361  14.766
11255W        W79585  37.871  36.363   4.169
11256W        W79586  15.783  17.704  12.555
11257W        W79587  28.931   4.302  12.994
11258W        W79588   5.365  22.539  12.987
11259W        W79589   7.879  16.701   2.832
11260W        W79590   0.748  20.632   4.135
11261W        W79591  37.050  10.243   0.954
11262W        W79592  26.483  41.957  12.891
11263W        W79593  40.441  27.975   5.136
11264W        W79594  17.088  29.960   1.274
11265W        W79595   0.419  24.625   0.940
11266W        W79596   2.252  32.134   3.854
11267W        W79597   1.310  34.374   1.811
11268W        W79598  29.967  26.031   3.169
11269W        W79599  39.519   4.809   4.762
11270W        W79600  20.188  44.786   4.291
11271W        W79601  29.635  17.759   2.385
11272W        W79602  22.546  34.569   4.308
11273W        W79603  13.779  10.150  14.464
11274W        W79604  33.380  16.279   0.462
11275W        W79605  41.832  25.045  14.004
11276W        W79606   4.905  38.570   4.617
11277W        W79607  27.549  39.985   4.145
11278W        W79608  21.564  37.054   4.683
11279W        W79609  44.851  29.659   4.201
11280W        W79610  36.075   0.486  12.427
11281W        W79611  20.266  22.244   0.480
11282W        W79612   3.736  21.166  10.455
11283W        W79613  38.460  20.550   0.335
11284W        W79614  31.093  22.661  13.999
11285W        W79615  35.504  30.594   3.743
11286W        W79616  30.491   5.331  11.033
11287W        W79617  27.195  22.143  14.312
11288W        W79618  28.079  16.612   0.321
11289W        W79619  20.134  30.064   9.976
11290W        W79620  12.171  13.833  13.474
11291W        W79621  15.154  19.695   3.176
11292W        W79622   4.888   2.440  10.526
11293W        W79623   7.393  30.009   0.870
11294W        W79624  27.979  42.350   3.754
11295W        W79625  34.531  25.009  11.530
11296W        W79626   5.866  24.132   3.823
11297W        W79627  25.501   8.873  10.594
11298W        W79628  40.330  39.850   2.901
11299W        W79629  33.009   0.364   3.645
11300W        W79630  34.497  18.155   0.273
11301W        W79631  36.531  12.827  11.122
11302W        W79632  10.343  16.274   3.360
11303W        W79633  13.289   1.257  12.894
11304W        W79634  24.696  40.373   0.303
11305W        W79635  37.531   6.285   2.775
11306W        W79636  39.463  33.418  11.901
11307W        W79637  10.668  18.675  12.428
11308W        W79638   2.747   3.912  12.077
11309W        W79639   8.802  41.841  11.923
11310W        W79640  34.580  38.874  14.426
11311W        W79641  22.684  14.108   3.713
11312W        W79642  19.068   1.902  12.352
11313W        W79643  28.992  43.410   1.293
11314W        W79644  24.119  27.492  10.943
11315W        W79645  18.761  17.235   0.740
11316W        W79646   1.283   0.419   2.194
11317W        W79647   7.242   6.774   3.780
11318W        W79648   6.193  31.901   2.310
11319W        W79649   7.793  30.417  10.483
11320W        W79650  35.861  22.635   2.832
11321W        W79651  14.659   2.778  11.100
11322W        W79652   9.288  13.262   0.463
11323W        W79653   1.847   4.938  10.098
11324W        W79654   3.418  11.865   0.323
11325W        W79655  19.183  19.698  13.866
11326W        W79656  24.632  14.271  11.442
11327W        W79657   2.467  38.361  14.016
11328W        W79658  36.912  31.602  13.986
11329W        W79659  26.524  39.369  12.855
11330W        W79660  17.139  13.774  11.531
11331W        W79661   5.260  14.815   3.198
11332W        W79662  21.261  30.633   9.545
11333W        W79663  14.236   0.330  14.335
11334W        W79664  38.849  23.682   2.264
11335W        W79665  16.305  29.661   3.818
11336W        W79666  29.432  21.065   4.172
11337W        W79667   0.477  32.477  10.466
11338W        W79668  13.203  18.262   1.443
11339W        W79669  21.612  28.465   3.259
11340W        W79670  14.157  24.590  14.839
11341W        W79671  28.008  22.693   0.374
11342W        W79672  43.489  17.194   4.724
11343W        W79673  26.535  21.540  13.376
11344W        W79674  34.036  26.140  13.026
11345W        W79675  33.491   1.908   2.763
11346W        W79676  44.834   5.701  11.028
11347W        W79677  27.681  39.366  14.303
11348W        W79678  16.108  30.465   1.813
11349W        W79679  38.869   1.867   4.602
11350W        W79680   5.403  37.507  11.569
11351W        W79681  13.347   7.770   5.258
11352W        W79682  38.066  10.659  11.877
11353W        W79683  27.033  44.382  10.087
11354W        W79684  40.501  23.518   1.742
11355W        W79685  27.119  10.847  13.335
11356W        W79686  25.511   2.863   1.298
11357W        W79687  17.677  20.618  12.549
11358W        W79688  12.208  16.102   0.330
11359W        W79689  22.579  17.586   2.226
11360W        W79690  30.044  21.684   4.336
11361W        W79691  13.229  37.034   4.123
11362W        W79692  22.073  39.548  12.548
11363W        W79693  14.667  31.485   0.955
11364W        W79694   0.360  44.994   1.425
11365W        W79695  26.207  30.496   1.343
11366W        W79696   1.430  43.344   3.227
11367W        W79697  18.584  41.358  10.522
11368W        W79698   9.870   0.858  14.855
11369W        W79699  29.525   1.349  12.562
11370W        W79700  27.575  12.799   3.372
11371W        W79701  12.295  41.902   0.756
11372W        W79702   0.895  25.145   4.794
11373W        W79703  18.145  33.553   0.867
11374W        W79704  14.736  28.572  12.542
11375W        W79705  19.550  10.216   0.764
11376W        W79706  11.197  29.927  12.411
11377W        W79707   5.212  41.391  12.034
11378W        W79708  10.369   7.798  11.030
11379W        W79709  44.362   2.934   2.315
11380W        W79710  31.137   2.450   3.307
11381W        W79711  24.593  13.710   2.200
11382W        W79712  35.966  31.935   0.425
11383W        W79713  13.767  36.580   2.235
11384W        W79714  41.925  32.028   2.340
11385W        W79715   1.833  26.695   3.165
11386W        W79716  43.447  24.518   0.427
11387W        W79717  37.866  27.581  13.965
11388W        W79718  34.400  38.969  12.568
11389W        W79719  44.368  37.437  10.583
11390W        W79720  26.015  16.311  13.896
11391W        W79721   4.346  13.193   1.716
11392W        W79722  39.842  23.055  10.540
11393W        W79723  25.495   8.816   1.310
11394W        W79724  21.569  39.315   2.853
11395W        W79725  10.143  44.354   1.267
11396W        W79726  26.556  43.016   4.808
11397W        W79727  28.139  35.370  13.818
11398W        W79728   4.228  12.720  11.072
11399W        W79729   4.910  19.585   3.672
11400W        W79730  36.453  11.168   1.784
11401W        W79731  13.282   1.956   4.623
11402W        W79732  18.203   8.190   0.774
11403W        W79733  37.409  12.824   3.867
11404W        W79734  30.048   1.837  11.480
11405W        W79735   9.209  35.986   1.916
11406W        W79736  44.444   3.378  10.921
11407W        W79737   7.791  13.237   3.818
11408W        W79738  19.667   4.750   3.805
11409W        W79739   0.769   5.400  13.521
11410W        W79740  16.755  25.976   2.233
11411W        W79741  43.851  11.133  10.622
11412W        W79742   1.401   2.741   4.613
11413W        W79743  23.206  34.985  13.434
11414W        W79744  20.662  17.602  12.954
11415W        W79745  25.489  10.663   1.278
11416W        W79746  44.340   6.766  12.823
11417W        W79747  15.239   2.438   2.227
11418W        W79748  24.146   3.788   0.827
11419W        W79749   2.877  43.337   1.732
11420W        W79750   4.224   6.361   3.814
11421W        W79751   2.298  14.287   0.243
11422W        W79752  21.063  40.370   3.706
11423W        W79753  15.282  21.562   3.204
11424W        W79754  40.486  23.090   1.379
11425W        W79755   2.955   3.714  11.597
11426W        W79756  20.091  34.517  14.831
11427W        W79757   4.768  27.685  10.476
11428W        W79758  17.700  22.707  13.020
11429W        W79759  25.205  39.008   4.598
11430W        W79760  20.544  13.609   2.779
11431W        W79761   8.329  42.355   1.220
11432W        W79762   6.843  19.217  14.920
11433W        W79763  39.333   1.779   3.369
11434W        W79764  18.055  24.064  11.545
11435W        W79765   4.887  14.638   0.949
11436W        W79766   2.234  26.033   4.790
11437W        W79767  13.206  25.980  13.368
11438W        W79768  34.550  28.550   1.810
11439W        W79769  22.011  29.480  14.510
11440W        W79770  40.524  28.578   1.791
11441W        W79771  34.598   5.899   0.784
11442W        W79772   6.780   2.894  12.374
11443W        W79773  13.636  35.918  12.828
11444W        W79774  16.656  10.690   2.896
11445W        W79775  22.582  15.800   2.761
11446W        W79776  16.171  36.055   4.138
11447W        W79777  16.256  11.754  14.476
11448W        W79778  16.137  20.208  12.872
11449W        W79779  13.662  25.595   0.949
11450W        W79780  16.151   5.350   2.723
11451W        W79781   5.313  12.236   3.268
11452W        W79782   2.935  34.514   2.692
11453W        W79783   9.311  33.478   4.758
11454W        W79784  17.566  21.241   2.308
11455W        W79785  26.496   1.277  13.543
11456W        W79786  38.545  33.596   2.337
11457W        W79787   5.875  33.482  14.396
11458W        W79788  44.853   3.718   4.351
11459W        W79789  12.314  41.349   4.251
11460W        W79790  11.194   4.260   3.843
11461W        W79791  31.057  12.256  14.337
11462W        W79792  42.422  35.543   2.781
11463W        W79793  41.520  18.787  13.897
11464W        W79794  31.917  36.375   0.901
11465W        W79795  39.366   2.231  10.539
11466W        W79796  10.139   2.867  12.079
11467W        W79797  28.108  41.503   4.160
11468W        W79798  24.035  21.755  11.990
11469W        W79799  34.385  42.346   3.183
11470W        W79800   7.268  15.118   4.290
11471W        W79801  16.642   1.266   1.348
11472W        W79802  38.044  39.375  11.493
11473W        W79803  44.893  29.433  13.924
11474W        W79804  19.586  36.038   4.623
11475W        W79805   6.695  14.643  13.424
11476W        W79806  32.515  17.244  12.393
11477W        W79807   2.796  39.361  14.795
11478W        W79808   5.855  29.026  11.117
11479W        W79809   7.302  20.654  14.315
11480W        W79810   2.965  41.919  11.111
11481W        W79811  33.977  18.730   1.315
11482W        W79812   9.369  38.407   0.902
11483W        W79813   1.781  20.249   3.812
11484W        W79814  41.489  17.712   0.871
11485W        W79815  29.056  38.059   4.167
11486W        W79816  32.618  43.000   1.697
11487W        W79817  14.778  15.766   3.791
11488W        W79818  41.516  24.004   4.603
11489W        W79819  19.772  36.403  13.432
11490W        W79820   7.784   0.398   3.189
11491W        W79821  40.333  18.770  11.573
11492W        W79822   5.750  40.951   3.375
11493W        W79823  18.171   6.218   0.926
11494W        W79824  40.838  30.949   0.315
11495W        W79825  38.493   3.251  11.014
11496W        W79826  18.629  38.377   0.309
11497W        W79827   2.956  25.176   2.240
11498W        W79828   8.284  23.239  12.975
11499W        W79829  37.934  29.017   4.267
11500W        W79830  10.203  43.771  14.774
11501W        W79831   3.945  15.581   4.342
11502W        W79832  24.226  44.848  12.000
11503W        W79833  14.191   9.210   3.861
11504W        W79834  21.236  19.219   5.693
11505W        W79835  12.345  42.943  12.891
11506W        W79836  11.146   4.398   1.296
11507W        W79837  41.525  18.065   4.347
11508W        W79838  11.339  23.120   4.291
11509W        W79839  19.723  30.095  12.043
11510W        W79840  24.684   8.816  14.893
11511W        W79841  30.653  35.578   4.818
11512W        W79842  23.084  24.003   3.190
11513W        W79843  16.312  28.647  13.791
11514W        W79844   3.439  17.172  11.058
11515W        W79845  44.931  11.292   1.886
11516W        W79846  26.034   3.347  12.068
11517W        W79847  41.408  42.379  12.577
11518W        W79848  21.631  23.172  10.502
11519W        W79849  44.445  44.888   1.717
11520W        W79850  40.991   4.394  12.916
11521W        W79851  30.434  16.082   2.205
11522W        W79852  33.044  35.097  13.361
11523W        W79853  32.025   1.383   1.911
11524W        W79854  27.008  17.595  13.046
11525W        W79855  18.100  10.750   3.717
11526W        W79856   1.383  15.226   1.754
11527W        W79857   9.676   9.756  12.560
11528W        W79858   2.324  39.521  13.907
11529W        W79859   8.668  44.854   3.237
11530W        W79860   3.395  44.895  13.997
11531W        W79861  29.451  22.542  12.875
11532W        W79862  29.080  30.447  10.529
11533W        W79863  31.914  31.595   2.302
11534W        W79864   6.343  40.419  11.469
11535W        W79865   1.902  27.676  11.601
11536W        W79866  23.576  34.994   3.824
11537W        W79867  44.895  34.536  14.961
11538W        W79868   0.410   2.261  10.573
11539W        W79869  27.976   8.869  12.962
11540W        W79870   9.203   0.823   3.655
11541W        W79871   9.370  18.089  13.422
11542W        W79872  18.248  18.586  13.798
11543W        W79873  24.481  13.639  12.480
11544W        W79874  42.906  17.125  13.864
11545W        W79875  38.565  35.509  13.003
11546W        W79876  28.600  26.687   5.293
11547W        W79877  35.926  18.142  14.857
11548W        W79878   0.760  28.570   2.179
11549W        W79879  17.280  33.927   1.287
11550W        W79880  22.739  35.563   3.287
11551W        W79881  17.193  42.950  10.031
11552W        W79882  13.731   9.255  11.602
11553W        W79883   7.738  32.963   3.159
11554W        W79884  10.729  33.032   1.417
11555W        W79885   3.253  10.862  10.496
11556W        W79886  15.656  15.251  12.927
11557W        W79887  27.143  41.848   1.299
11558W        W79888  22.150   0.742  14.017
11559W        W79889  39.445  10.636   3.648
11560W        W79890  18.176   1.949   1.245
11561W        W79891  12.176  32.633   1.856
11562W        W79892  23.062   3.793  14.015
11563W        W79893  41.841  15.134  11.946
11564W        W79894  28.523  39.965   3.214
11565W        W79895  31.524  25.532  12.466
11566W        W79896  31.526  38.396  14.402
11567W        W79897  13.209  38.521   2.224
11568W        W79898   5.859  25.031  11.597
11569W        W79899  40.433  19.108   1.349
11570W        W79900  12.741  28.629   1.811
11571W        W79901  20.260  27.494   1.351
11572W        W79902  32.434  33.468   2.216
11573W        W79903  39.428  27.614  14.362
11574W        W79904  39.551   2.423   0.414
11575W        W79905   8.782  29.154   3.827
11576W        W79906   7.817   2.881   1.694
11577W        W79907  38.542  34.565   2.201
11578W        W79908  24.559  29.920  13.855
11579W        W79909   0.349  34.556  12.944
11580W        W79910  31.039  29.606   4.782
11581W        W79911  21.611  42.453   2.686
11582W        W79912   4.428  26.966   0.470
11583W        W79913  33.885  22.731   4.642
11584W        W79914  43.351  19.091  10.890
11585W        W79915   0.910  43.964   0.914
11586W        W79916  37.831   6.182   5.111
11587W        W79917  11.214   0.797   0.403
11588W        W79918  18.569  34.882   3.765
11589W        W79919  29.647  43.794   4.267
11590W        W79920  17.264  16.236  12.005
11591W        W79921   3.754  25.708   0.792
11592W        W79922  21.725   7.248   4.143
11593W        W79923  34.886  11.182   1.706
11594W        W79924  30.653  29.505   5.272
11595W        W79925  40.875  39.481  10.531
11596W        W79926  15.824  25.543  11.409
11597W        W79927  40.040   2.847   2.859
11598W        W79928  40.539  37.893  14.865
11599W        W79929  37.052   3.941   0.322
11600W        W79930   7.370   3.791  13.505
11601W        W79931  13.349  10.718   3.758
11602W        W79932  25.622  38.948   2.419
11603W        W79933  36.419  17.133  13.320
11604W        W79934  30.481  10.301   0.277
11605W        W79935  16.162   8.360   1.895
11606W        W79936  15.678   8.241  11.525
11607W        W79937  36.456  16.306   2.309
11608W        W79938  43.785  17.266   1.746
11609W        W79939  27.518  35.988   4.616
11610W        W79940  17.735   5.197  11.553
11611W        W79941  14.311  25.154  10.580
11612W        W79942   9.234  27.687  13.507
11613W        W79943   9.665   2.966   0.734
11614W        W79944   9.230  28.545   2.364
11615W        W79945   1.768  37.087  10.085
11616W        W79946  31.922  31.919   1.750
11617W        W79947  32.624  34.407   1.711
11618W        W79948  22.127  24.065   0.762
11619W        W79949   0.822  43.345   1.704
11620W        W79950   8.716  25.635   4.814
11621W        W79951  13.272  25.998  12.081
11622W        W79952   9.289  28.179   0.395
11623W        W79953  19.714  11.832   2.248
11624W        W79954  10.312  27.595   0.901
11625W        W79955  33.107   5.836   4.261
11626W        W79956  29.632   1.938   3.770
11627W        W79957  17.246  35.587  13.327
11628W        W79958   1.735  33.043   4.219
11629W        W79959  37.549   3.811  10.901
11630W        W79960  22.031  24.641   4.835
11631W        W79961  25.109  38.569  11.528
11632W        W79962  27.447  31.129  13.446
11633W        W79963  31.982   6.784   4.627
11634W        W79964  18.233  32.027   1.928
11635W        W79965  17.778  31.512   2.212
11636W        W79966  17.639   5.704   3.337
11637W        W79967   6.411  21.143  13.927
11638W        W79968  31.973  37.463  13.352
11639W        W79969  11.759  40.536   4.600
11640W        W79970  31.512  14.121  12.846
11641W        W79971   4.843   5.910   2.826
11642W        W79972  34.977  25.471  13.537
11643W        W79973  29.538  39.018   5.297
11644W        W79974  39.049  19.251  13.533
11645W        W79975  12.815  15.748   3.748
11646W        W79976  10.789  30.575   1.364
11647W        W79977  15.089  10.753   0.307
11648W        W79978  11.148  11.207  10.592
11649W        W79979  23.676  14.607  14.400
11650W        W79980  16.699  16.245  12.030
11651W        W79981   4.726  32.450   1.928
11652W        W79982   1.850  23.107  14.874
11653W        W79983  27.112  27.943  14.513
11654W        W79984  32.478  44.839   1.281
11655W        W79985  44.353  26.127   4.185
11656W        W79986   2.310   1.954   1.791
11657W        W79987  22.630  43.307  11.119
11658W        W79988  33.481  44.798   1.911
11659W        W79989  36.946  23.580   1.239
11660W        W79990  34.935  26.612  14.935
11661W        W79991  27.019  43.861   4.684
11662W        W79992   5.208  12.621  13.364
11663W        W79993   8.655   5.265   4.242
11664W        W79994  17.591  22.050   1.343
11665W        W79995  37.010  27.686   1.368
11666W        W79996  22.684  22.239  12.469
11667W        W79997  11.809  40.367  11.963
11668W        W79998  38.458  32.924  14.341
11669W        W79999  36.568   1.830   0.421
11670W        W80000   2.376   0.370  13.338
11671W        W80001  19.755  27.487   1.212
11672W        W80002  22.064  30.480  14.985
11673W        W80003  38.441  31.941  10.601
11674W        W80004   7.269  31.583  14.765
11675W        W80005  43.918  16.796  10.416
11676W        W80006  20.075  26.613   0.322
11677W        W80007  43.946  25.190   0.300
11678W        W80008  19.692  29.004  12.909
11679W        W80009   7.250   3.331  14.806
11680W        W80010  28.129  42.979   9.923
11681W        W80011  33.482  39.817   2.862
11682W        W80012  41.519   5.836   2.686
11683W        W80013  43.500  26.169   4.339
11684W        W80014  38.993  31.002   3.662
11685W        W80015  26.981   1.385   2.202
11686W        W80016  24.203  18.239  13.852
11687W        W80017  18.290  35.434   0.807
11688W        W80018  10.149  32.955   2.779
11689W        W80019  26.596  24.084  11.507
11690W        W80020  41.310   8.829   3.166
11691W        W80021   5.378   4.716  10.944
11692W        W80022   1.786  25.129  13.995
11693W        W80023  22.027  25.094  10.478
11694W        W80024   5.853  35.915  14.886
11695W        W80025  44.791  36.042   2.747
11696W        W80026  44.944  39.003   1.928
11697W        W80027  24.198  40.373  11.029
11698W        W80028  14.339  10.186   3.378
11699W        W80029  15.689  23.012   2.684
11700W        W80030  12.304  43.895  13.390
11701W        W80031  13.804   8.286  14.494
11702W        W80032  34.865  17.271  14.843
11703W        W80033  24.567  28.010   3.671
11704W        W80034  15.635  12.620  14.997
11705W        W80035  30.462  24.214   2.345
11706W        W80036   2.881   0.457  14.425
11707W        W80037  13.640  32.974  10.897
11708W        W80038  37.050  29.453   2.698
11709W        W80039  29.143   7.861  13.484
11710W        W80040  25.967  13.742   2.382
11711W        W80041  23.630   4.270   2.198
11712W        W80042  15.678  13.842  14.330
11713W        W80043   0.289  33.109  13.345
11714W        W80044  21.639  33.901  10.580
11715W        W80045   3.837  28.643  12.459
11716W        W80046  27.539  38.510  11.930
11717W        W80047  13.109  41.982   0.460
11718W        W80048  16.107  32.622   1.740
11719W        W80049  29.445  23.002   0.811
11720W        W80050  42.013  34.568   3.795
11721W        W80051  27.448  12.839  12.432
11722W        W80052  35.600  25.529  12.943
11723W        W80053  32.122  14.198  10.148
11724W        W80054  31.920  28.436  11.868
11725W        W80055  28.553   6.795   3.294
11726W        W80056  35.931   9.712  14.812
11727W        W80057   1.802  36.525  12.480
11728W        W80058  21.229  28.105  13.950
11729W        W80059   2.756   5.848   4.702
11730W        W80060  43.457  14.715  13.021
11731W        W80061  24.162  20.741  11.103
11732W        W80062  36.548  22.017  11.403
11733W        W80063   9.241  17.236   0.921
11734W        W80064   5.284  27.650  10.979
11735W        W80065  14.271   9.837   4.821
11736W        W80066  40.480  20.121  14.830
11737W        W80067  39.407  12.814   3.176
11738W        W80068  36.574  39.922   1.373
11739W        W80069   9.193  43.311   4.313
11740W        W80070  16.155  35.372   2.823
11741W        W80071  42.384  18.566  13.391
11742W        W80072  44.877  29.539  11.928
11743W        W80073   3.828   6.385  14.459
11744W        W80074   0.909  22.677   2.370
11745W        W80075  23.093   3.245  12.349
11746W        W80076  17.265  11.191  13.839
11747W        W80077  25.184  37.353   0.737
11748W        W80078   8.207   2.452   2.672
11749W        W80079  22.127  24.106  12.088
11750W        W80080  28.083  21.653   3.783
11751W        W80081  27.535  22.640  14.981
11752W        W80082  19.582   1.936   3.344
11753W        W80083   9.851  15.109  11.991
11754W        W80084  41.383  17.573  11.880
11755W        W80085  42.417   1.476  13.834
11756W        W80086  39.511  30.975  12.059
11757W        W80087  19.113  20.246   2.382
11758W        W80088  17.636  22.720   9.538
11759W        W80089   2.327  31.616  11.457
11760W        W80090  35.537   6.414   3.725
11761W        W80091  16.800  39.957  12.376
11762W        W80092  37.902   7.673  12.882
11763W        W80093  10.757  28.049   1.435
11764W        W80094  10.733  26.662  11.436
11765W        W80095  34.405  20.156  11.496
11766W        W80096  20.104  27.583   0.730
11767W        W80097   1.269  12.661   1.317
11768W        W80098   6.303  36.530  14.479
11769W        W80099  17.790  33.894   1.700
11770W        W80100  42.344  37.875  13.456
11771W        W80101  24.021   2.234  11.897
11772W        W80102  22.675   3.331  13.474
11773W        W80103   9.158  10.157   2.300
11774W        W80104  12.849  16.221  13.464
11775W        W80105  33.520  24.500  12.391
11776W        W80106  26.520   1.356   1.212
11777W        W80107  36.932  35.090  12.467
11778W        W80108  36.425  37.571   4.289
11779W        W80109   4.347  34.908  14.313
11780W        W80110   6.783   0.894   1.746
11781W        W80111   4.848  20.194   2.841
11782W        W80112  42.489   7.714  11.402
11783W        W80113   0.312  37.336  11.952
11784W        W80114  36.505  32.446  10.589
11785W        W80115   4.839  41.977   0.245
11786W        W80116  26.539  11.127   4.155
11787W        W80117  32.139  37.463  12.548
11788W        W80118  32.021   3.354   4.699
11789W        W80119  40.326  23.735  10.112
11790W        W80120  13.666  10.239   2.861
11791W        W80121   7.777  14.154  12.992
11792W        W80122  36.492  36.061  14.901
11793W        W80123  32.939  31.647   0.274
11794W        W80124  11.653  42.362  12.005
11795W        W80125  18.684  32.526  14.817
11796W        W80126  30.962  33.000   2.724
11797W        W80127  42.505  11.356  13.951
11798W        W80128   2.353   9.740   4.178
11799W        W80129  41.998  20.268  14.778
11800W        W80130  36.574   4.828   4.234
11801W        W80131  15.724  26.106   1.265
11802W        W80132  35.892  27.114  14.404
11803W        W80133  42.374  26.594   0.937
11804W        W80134   3.901  44.900   4.651
11805W        W80135  38.821  10.215   0.265
11806W        W80136  21.174  41.403   1.411
11807W        W80137  20.039  18.074   4.121
11808W        W80138  29.573  25.567   1.309
11809W        W80139  37.357   7.355  12.985
11810W        W80140  23.564  10.826   4.715
11811W        W80141   3.831  25.614   2.388
11812W        W80142   3.361  38.435   9.534
11813W        W80143  35.386   6.239  11.098
11814W        W80144  17.708  32.998   4.278
11815W        W80145  44.762   9.183   4.667
11816W        W80146  20.080  15.750  13.345
11817W        W80147  33.085  11.146  14.809
11818W        W80148  28.639   7.712  13.505
11819W        W80149  15.622   3.409   3.152
11820W        W80150  37.011  16.716  12.570
11821W        W80151   1.257  26.466  11.992
11822W        W80152  36.545  42.822  12.579
11823W        W80153  21.593   9.825   9.485
11824W        W80154  33.386   0.447   0.256
11825W        W80155   2.260   6.286  11.973
11826W        W80156  40.819  22.090  12.432
11827W        W80157   2.803  17.176   1.909
11828W        W80158  25.608  11.822  12.069
11829W        W80159  30.554   1.836   3.697
11830W        W80160   0.781  20.614   4.696
11831W        W80161  37.500  17.636  11.572
11832W        W80162   4.206   5.403  12.863
11833W        W80163  42.845  30.093  12.475
11834W        W80164  17.751  36.497   1.883
11835W        W80165  32.061   9.835  12.397
11836W        W80166  29.496   7.349  10.601
11837W        W80167   6.796  26.666   3.361
11838W        W80168  36.562  18.230   2.250
11839W        W80169  13.775   2.887   4.763
11840W        W80170  29.150   4.236   2.737
11841W        W80171  15.581  35.882  13.505
11842W        W80172   3.948  42.934   1.804
11843W        W80173  38.384   0.804  14.009
11844W        W80174  34.963  39.455   4.599
11845W        W80175  31.952  35.075  10.523
11846W        W80176  44.286   4.791  11.081
11847W        W80177  20.585  23.672  12.911
11848W        W80178  32.934   2.457   4.757
11849W        W80179   7.827  37.958  10.557
11850W        W80180   3.421  43.825   2.708
11851W        W80181  36.060  33.619   5.250
11852W        W80182  34.919  43.398  11.580
11853W        W80183  39.880  34.453   3.180
11854W        W80184   0.889  36.402   0.837
11855W        W80185  36.487  19.269  12.365
11856W        W80186  42.832  19.123   0.751
11857W        W80187   3.783  36.479  11.583
11858W        W80188  31.049  17.719  14.957
11859W        W80189  16.246  22.182  13.389
11860W        W80190  28.936  38.462  14.346
11861W        W80191  24.547  39.826  11.029
11862W        W80192  21.640  11.843  10.120
11863W        W80193  30.649  43.789   1.922
11864W        W80194  36.936  32.466   3.843
11865W        W80195  24.036  34.588  14.010
11866W        W80196  29.048   0.831   2.372
11867W        W80197   2.927  31.991   1.933
11868W        W80198  15.758  35.909  13.858
11869W        W80199  43.350  36.522  13.910
11870W        W80200  37.991  12.294  11.594
11871W        W80201  43.778  26.107  14.487
11872W        W80202  15.118   5.353   0.759
11873W        W80203  29.078  10.300   1.289
11874W        W80204  35.061   7.220   2.870
11875W        W80205  10.769  35.560   0.267
11876W        W80206  32.391   4.798  11.523
11877W        W80207  15.726  37.972   4.158
11878W        W80208   9.294  30.659  12.966
11879W        W80209  26.137  26.552   1.383
11880W        W80210  18.565  43.390  11.062
11881W        W80211  11.858  40.002   0.356
11882W        W80212  25.990  22.038  14.305
11883W        W80213  39.864  35.579   3.660
11884W        W80214  31.031  23.634  12.877
11885W        W80215  12.205   4.423  13.334
11886W        W80216  30.025  19.590  12.430
11887W        W80217  36.030  17.257   4.260
11888W        W80218  13.147  23.540   0.808
11889W        W80219   4.758  39.038  11.572
11890W        W80220  27.197  27.190   1.397
11891W        W80221  20.705  22.644   2.346
11892W        W80222  14.264  27.471  13.903
11893W        W80223   3.945  23.183  14.390
11894W        W80224  38.824  26.200   2.710
11895W        W80225  36.041  13.838  12.393
11896W        W80226  29.151  17.195   4.746
11897W        W80227  19.228  39.932  14.787
11898W        W80228  38.539  36.875   4.249
11899W        W80229  43.764   6.341   0.475
11900W        W80230  22.640  36.874   4.299
11901W        W80231  20.729  36.999   2.839
11902W        W80232  26.092  40.373   1.229
11903W        W80233  27.045  12.620   1.745
11904W        W80234  41.991  24.218  12.005
11905W        W80235  14.785   0.978  13.941
11906W        W80236   2.238  29.618   1.852
11907W        W80237   0.351  43.994  10.404
11908W        W80238   1.921   7.318  11.997
11909W        W80239  14.214  35.408   5.676
11910W        W80240  34.998  23.136   0.372
11911W        W80241   5.300  37.927   2.854
11912W        W80242  26.566  34.515   1.759
11913W        W80243  27.642  19.596   5.259
11914W        W80244  19.564  33.015   1.887
11915W        W80245  40.363  33.880  14.819
11916W        W80246  22.704   8.294   3.760
11917W        W80247  28.519  24.605   0.303
11918W        W80248  36.427   1.949  10.447
11919W        W80249   5.768  32.007   0.261
11920W        W80250  27.638  10.330   4.827
11921W        W80251  26.622  24.633   2.788
11922W        W80252  20.536   4.256   3.345
11923W        W80253  14.327  32.561  11.539
11924W        W80254  21.134  24.173  13.347
11925W        W80255  20.560  19.111   2.210
11926W        W80256  29.934  40.029   2.201
11927W        W80257  12.813  44.303  13.476
11928W        W80258  23.705  15.742  10.123
11929W        W80259  25.689   0.773   1.370
11930W        W80260  11.634   3.360   3.871
11931W        W80261  39.932   9.740  12.395
11932W        W80262  11.677  22.509   3.747
11933W        W80263  29.142  12.750   3.190
11934W        W80264  23.561   5.263  10.462
11935W        W80265  30.089  42.400   0.265
11936W        W80266  21.191  35.050  11.962
11937W        W80267  27.075  11.730   1.800
11938W        W80268  11.641  40.041  10.964
11939W        W80269  27.466  39.000  12.417
11940W        W80270   8.239  42.990  13.911
11941W        W80271  27.958  35.976  13.506
11942W        W80272   5.915  18.557   1.402
11943W        W80273   3.769   9.353   3.631
11944W        W80274  44.479   7.683   5.262
11945W        W80275   6.879  43.389  13.023
11946W        W80276  15.820  35.973   4.259
11947W        W80277  11.364   0.373  13.308
11948W        W80278  39.902  22.086  12.577
11949W        W80279  35.390  19.120   3.231
11950W        W80280  13.255  43.021   9.977
11951W        W80281  28.557  18.780  11.544
11952W        W80282   9.279  22.672   3.781
11953W        W80283  27.455  18.060  13.824
11954W        W80284   4.711  22.217  14.874
11955W        W80285   3.751  21.518   0.943
11956W        W80286  39.932  44.441  11.605
11957W        W80287  34.993  14.608  12.830
11958W        W80288  39.850  17.687   3.270
11959W        W80289  15.604  33.463  14.351
11960W        W80290  43.011   7.888   3.240
11961W        W80291  23.175   8.373  13.492
11962W        W80292   1.946  16.622  13.980
11963W        W80293  42.837   0.331  14.346
11964W        W80294  29.469  23.629   3.790
11965W        W80295  19.050   4.853  12.575
11966W        W80296   9.328  25.551  12.015
11967W        W80297   3.405  20.706  12.973
11968W        W80298  37.414  19.230   1.227
11969W        W80299  34.993   5.837   1.741
11970W        W80300  23.173  14.589  13.015
11971W        W80301  16.798  10.758  10.585
11972W        W80302  41.951  39.427  13.930
11973W        W80303  24.482   1.451   2.731
11974W        W80304  13.248   4.773   5.284
11975W        W80305  28.095  22.076  10.098
11976W        W80306  16.599  40.899   1.821
11977W        W80307  28.556  27.621  13.046
11978W        W80308  24.168  37.080  11.895
11979W        W80309  29.517  44.871  14.837
11980W        W80310  26.045  42.824  12.072
11981W        W80311  34.467  11.266  12.449
11982W        W80312  17.674  21.249  12.954
11983W        W80313  25.553  36.007  11.049
11984W        W80314   0.466   2.385  11.985
11985W        W80315  20.212  26.464   2.722
11986W        W80316  12.279  21.229   4.149
11987W        W80317   6.231  33.938  10.533
11988W        W80318  15.177  37.852  14.361
11989W        W80319  37.335  34.038  13.941
11990W        W80320  25.468  40.432   4.243
11991W        W80321  43.883   7.188   2.358
11992W        W80322  15.743  33.537  12.534
11993W        W80323   6.852  19.748  11.416
11994W        W80324   5.353   8.224   2.679
11995W        W80325   2.305   3.419  10.961
11996W        W80326  19.664  43.350   1.285
11997W        W80327  16.698  22.112   2.228
11998W        W80328  37.563   5.256   1.906
11999W        W80329   5.200  13.776   2.848
12000W        W80330   5.771  23.157  12.952
12001W        W80331  42.875  38.975   4.713
12002W        W80332  36.053  39.537   4.192
12003W        W80333  39.948   9.835   1.876
12004W        W80334   4.886   6.728   1.896
12005W        W80335   7.243   4.717  13.330
12006W        W80336   1.244  38.451  14.854
12007W        W80337  31.570   2.859  11.973
12008W        W80338   5.341  13.708  10.991
12009W        W80339  28.497   9.283  14.329
12010W        W80340  38.530  21.557   1.817
12011W        W80341   4.872  19.174  12.094
12012W        W80342  38.453  37.916  13.389
12013W        W80343   5.233   4.238   0.346
12014W        W80344  44.390  15.166  12.860
12015W        W80345   5.843  12.748  13.985
12016W        W80346   1.734  23.136  10.536
12017W        W80347  35.540   5.314  11.564
12018W        W80348   1.875   8.865   2.304
12019W        W80349  26.954  29.160   0.951
12020W        W80350  19.262  12.618   3.193
12021W        W80351  40.911  22.143  10.597
12022W        W80352  15.736  17.659   3.657
12023W        W80353   1.737  37.473   4.818
12024W        W80354  43.467  19.647   1.287
12025W        W80355  22.619  38.913  11.455
12026W        W80356  37.883  18.174  14.819
12027W        W80357   5.886  11.200  13.963
12028W        W80358  43.465  11.243  12.421
12029W        W80359  19.150  37.371  14.958
12030W        W80360   4.919  28.118  14.909
12031W        W80361  20.049  34.098   3.704
12032W        W80362  40.812   3.395   0.791
12033W        W80363  26.966  24.167   2.831
12034W        W80364  10.383  25.632   3.663
12035W        W80365  26.461  17.619  13.324
12036W        W80366  10.162  14.819  12.954
12037W        W80367   0.921  27.530   4.161
12038W        W80368  28.594  43.954  11.919
12039W        W80369  22.601   4.904   3.240
12040W        W80370  40.332  43.302  11.528
12041W        W80371  25.127  22.589   1.719
12042W        W80372   1.849  17.258  12.926
12043W        W80373  25.572  33.030  12.471
12044W        W80374   4.321  27.478   3.699
12045W        W80375  37.958  44.467  14.852
12046W        W80376  26.586  32.895  13.307
12047W        W80377  31.598  38.017   0.911
12048W        W80378  41.037  33.591  13.509
12049W        W80379  13.143  34.391  10.576
12050W        W80380  25.962  34.968  14.284
12051W        W80381   3.808  36.361   4.684
12052W        W80382  10.703  11.796  14.442
12053W        W80383   0.780  27.077  11.920
12054W        W80384  23.010  44.496   2.246
12055W        W80385  35.863  20.647   2.737
12056W        W80386  20.679  41.330   2.675
12057W        W80387  44.345   1.818  13.983
12058W        W80388  42.012  29.609  12.019
12059W        W80389   4.242  36.503   1.213
12060W        W80390  16.198  44.357   3.266
12061W        W80391  28.174  14.704  11.590
12062W        W80392  16.146  39.963   3.340
12063W        W80393  17.641  32.960  14.991
12064W        W80394  39.533  34.015   0.354
12065W        W80395  26.666  10.144   0.443
12066W        W80396  25.631   6.692   1.307
12067W        W80397  37.463  38.330  14.833
12068W        W80398   5.901  27.998  12.380
12069W        W80399  20.635   5.336   4.121
12070W        W80400  29.115  37.074   1.346
12071W        W80401  27.084  23.568  11.127
12072W        W80402  41.308  21.733  11.984
12073W        W80403  12.771  13.697   1.427
12074W        W80404  32.600  36.983  11.959
12075W        W80405  15.100  23.496  11.469
12076W        W80406   9.395   1.344  10.907
12077W        W80407   4.943  26.157   1.739
12078W        W80408  14.226  30.083   1.758
12079W        W80409  12.179  40.411  13.011
12080W        W80410   2.268  31.561   0.250
12081W        W80411   1.753  44.830  11.037
12082W        W80412  10.179   2.940   0.933
12083W        W80413  11.340  23.675   0.838
12084W        W80414   5.801   2.323   4.145
12085W        W80415   3.793   9.815  12.447
12086W        W80416   1.326  28.525  12.922
12087W        W80417  18.635  11.199   4.177
12088W        W80418   9.348  30.464  10.528
12089W        W80419  10.313   3.320   4.653
12090W        W80420  22.611   6.898   2.903
12091W        W80421  17.264  43.948   4.700
12092W        W80422  12.656  13.729  14.979
12093W        W80423  42.423  37.537   1.818
12094W        W80424  12.126  39.857  11.448
12095W        W80425  10.809  14.681  13.543
12096W        W80426  26.657   7.796   4.741
12097W        W80427   3.811   8.845   3.690
12098W        W80428  13.112   4.370   1.932
12099W        W80429  10.746  29.051  10.947
12100W        W80430  35.976  29.539  11.862
12101W        W80431  28.112  17.198  10.941
12102W        W80432  18.687   8.241  11.610
12103W        W80433  11.827  10.873   3.268
12104W        W80434  21.181  23.146   0.344
12105W        W80435  32.988   8.845   2.419
12106W        W80436  18.200  12.187   2.322
12107W        W80437  39.399  24.124  12.496
12108W        W80438  27.461  13.650   1.327
12109W        W80439   4.435  13.623  12.846
12110W        W80440  22.137  15.706  12.366
12111W        W80441  40.993  10.186  12.941
12112W        W80442  26.084  30.618  13.309
12113W        W80443  34.936  14.183   3.741
12114W        W80444   5.331   7.265   0.850
12115W        W80445  43.829  34.968  14.800
12116W        W80446  22.675  15.152   2.848
12117W        W80447  14.809  12.677   4.757
12118W        W80448   6.818  37.535   0.448
12119W        W80449  29.095  14.707   2.183
12120W        W80450   3.882   4.829   1.371
12121W        W80451  26.539  44.460   0.795
12122W        W80452  35.479   0.777  11.478
12123W        W80453  37.517  43.808   1.347
12124W        W80454   8.726  44.008  10.446
12125W        W80455  23.229  34.102   0.453
12126W        W80456  29.551  29.641   4.798
12127W        W80457  22.656  30.013   9.484
12128W        W80458   0.925  12.182  11.465
12129W        W80459  39.888  11.263  12.413
12130W        W80460  29.443  10.783   1.234
12131W        W80461  31.450   8.792   4.706
12132W        W80462  12.177  12.729   2.726
12133W        W80463  13.287   7.324  12.561
12134W        W80464  35.005   4.913   4.646
12135W        W80465   0.405  27.491  14.939
12136W        W80466  10.858  44.434   1.775
12137W        W80467   7.236  36.457  13.032
12138W        W80468  42.830  13.157  13.013
12139W        W80469  12.618  22.243   1.913
12140W        W80470  21.259  43.492  13.048
12141W        W80471  21.255  27.676  14.941
12142W        W80472  17.582   5.196   4.283
12143W        W80473  22.695   7.209  10.892
12144W        W80474  26.514  33.475  14.297
12145W        W80475   5.277  36.095   4.631
12146W        W80476  37.871  11.364  14.922
12147W        W80477  35.468  29.490  11.956
12148W        W80478  35.879  12.205   3.242
12149W        W80479  21.134  24.487   3.643
12150W        W80480  18.286  10.824  14.942
12151W        W80481  16.258  10.231  14.968
12152W        W80482  12.633  33.908  10.497
12153W        W80483  16.600   0.896  10.887
12154W        W80484  11.227  10.302  13.018
12155W        W80485  18.132  37.351   2.692
12156W        W80486   8.705   6.846   3.643
12157W        W80487   3.737  31.565  13.882
12158W        W80488  30.485   8.267   3.222
12159W        W80489   3.796  38.556  13.527
12160W        W80490  12.727  24.084  10.595
12161W        W80491  41.353  18.235  10.509
12162W        W80492  43.453   9.346  12.883
12163W        W80493  36.515  27.455  12.345
12164W        W80494   4.329  12.266  12.863
12165W        W80495  24.602  16.651  13.916
12166W        W80496   3.796  43.374  14.506
12167W        W80497  33.482  28.063   2.795
12168W        W80498  35.544   1.904  11.585
12169W        W80499  19.645   4.329  13.330
12170W        W80500  32.549  32.453  13.343
12171W        W80501  43.400  30.443  12.388
12172W        W80502  31.148  37.870   3.767
12173W        W80503  37.457  39.978   4.678
12174W        W80504  37.950  22.170   0.470
12175W        W80505  33.461  35.068   3.255
12176W        W80506  44.267  34.033   2.384
12177W        W80507  35.507  24.026  12.915
12178W        W80508  40.836  34.061  10.555
12179W        W80509   0.333  25.573   0.867
12180W        W80510   3.296  17.568   4.742
12181W        W80511  13.791  23.648  14.796
12182W        W80512  11.659  24.188   2.735
12183W        W80513  32.034  27.062   2.202
12184W        W80514  27.128  17.148   1.785
12185W        W80515   8.664  40.941  10.578
12186W        W80516   6.758  32.983  11.115
12187W        W80517  18.736   7.892   1.449
12188W        W80518  20.049  12.250  14.949
12189W        W80519  39.535   9.883  10.990
12190W        W80520  32.889  21.754   5.746
12191W        W80521   6.840  24.125  11.427
12192W        W80522   2.289  32.997   2.749
12193W        W80523  27.023  10.348   5.607
12194W        W80524   3.836  30.521  14.349
12195W        W80525  17.638  41.793  12.491
12196W        W80526   3.921  16.579  13.060
12197W        W80527  17.195  21.572   0.836
12198W        W80528  22.514  38.963  14.393
12199W        W80529  42.841   1.279   4.784
12200W        W80530  14.098   9.162  13.813
12201W        W80531  10.859  21.563  11.505
12202W        W80532   8.724  35.370   4.790
12203W        W80533  11.213  34.986   3.701
12204W        W80534  13.806  36.592   1.718
12205W        W80535  14.130  17.765  10.981
12206W        W80536  40.513  13.206  11.540
12207W        W80537   0.744  21.753  12.535
12208W        W80538  23.047  13.673   0.388
12209W        W80539  32.061  28.600   2.222
12210W        W80540  41.014   9.346  14.407
12211W        W80541  40.420  10.710  11.400
12212W        W80542  19.694  22.598  13.913
12213W        W80543  15.720   6.896  12.013
12214W        W80544  22.562  10.646  12.532
12215W        W80545  25.077   9.846   4.676
12216W        W80546  32.636   2.887  11.855
12217W        W80547   6.917  37.552  14.897
12218W        W80548  19.152   3.279  13.804
12219W        W80549  24.056  36.567   0.345
12220W        W80550   6.897  23.994   3.259
12221W        W80551  42.840  11.309  14.444
12222W        W80552  43.287  28.121   2.769
12223W        W80553  36.975  25.574   0.865
12224W        W80554  24.204  20.055   3.715
12225W        W80555  44.415  19.626   3.283
12226W        W80556  10.285  43.916   3.742
12227W        W80557  20.634  22.728   4.195
12228W        W80558  27.666   7.202   3.258
12229W        W80559   0.275   7.196   4.206
12230W        W80560   6.370  29.476   1.260
12231W        W80561  28.616  18.172  12.991
12232W        W80562  30.494  19.579  14.760
12233W        W80563  33.927   2.777  13.890
12234W        W80564  36.358   1.482   1.434
12235W        W80565   7.416  18.723  13.536
12236W        W80566   8.287  20.641  14.472
12237W        W80567  30.147  25.166   2.179
12238W        W80568  10.320  43.506   1.348
12239W        W80569  20.104   0.776  14.881
12240W        W80570  26.972  36.028   1.786
12241W        W80571  27.648   6.333  14.972
12242W        W80572   9.889  35.571  13.327
12243W        W80573   1.363  22.191   0.794
12244W        W80574  21.121  32.434   1.817
12245W        W80575  32.390  20.631   2.212
12246W        W80576  35.387  28.603  10.620
12247W        W80577  32.533  40.502   3.368
12248W        W80578  25.671  16.311   2.705
12249W        W80579  22.746   6.688   0.775
12250W        W80580  31.086   4.262  14.506
12251W        W80581  23.528  29.593  12.829
12252W        W80582  32.046   3.365  13.024
12253W        W80583   3.401  23.191   0.378
12254W        W80584  28.064  20.156  14.318
12255W        W80585  13.217  13.837   4.829
12256W        W80586  39.823  31.449  12.022
12257W        W80587  29.171   1.904   3.267
12258W        W80588   3.709  35.476   4.114
12259W        W80589  38.474  14.818   2.209
12260W        W80590  28.082  25.675  10.560
12261W        W80591  39.421   6.819  13.868
12262W        W80592  19.090   4.447   2.213
12263W        W80593  20.529  16.090   1.266
12264W        W80594  27.084   1.470  12.943
12265W        W80595  32.940  38.360  14.420
12266W        W80596   1.751  34.379  12.942
12267W        W80597   8.880  27.167  12.828
12268W        W80598   9.798   9.381  11.521
12269W        W80599  22.101   9.328   2.385
12270W        W80600  30.135  42.391  11.563
12271W        W80601   9.283   2.805  11.586
12272W        W80602  32.637  35.067  12.381
12273W        W80603  44.760  42.349  11.863
12274W        W80604  33.062  17.165   1.215
12275W        W80605  13.733  17.199  13.334
12276W        W80606  19.126  10.867  12.491
12277W        W80607   1.279  31.120  12.040
12278W        W80608  41.806  13.764   0.359
12279W        W80609  32.429  39.528   1.819
12280W        W80610  22.576  35.081   0.420
12281W        W80611  15.308  10.849  11.563
12282W        W80612  34.602  42.445   3.751
12283W        W80613  22.541   3.798   1.256
12284W        W80614   8.332  40.055  11.027
12285W        W80615  19.072  38.330  11.125
12286W        W80616  35.403   5.909   2.189
12287W        W80617   0.439   5.885   3.299
12288W        W80618  39.947  34.542   1.254
12289W        W80619  37.532  21.213  14.795
12290W        W80620  34.406   1.414   1.383
12291W        W80621   6.274  15.639  13.496
12292W        W80622  16.270  25.599   3.819
12293W        W80623  31.610   6.324   0.381
12294W        W80624   9.198  10.183   1.877
12295W        W80625  29.645  43.852   2.191
12296W        W80626  22.570   5.793   0.350
12297W        W80627  26.122   0.800   4.805
12298W        W80628  26.540  23.724   3.368
12299W        W80629  12.346   9.854   0.267
12300W        W80630  34.377  42.936  14.424
12301W        W80631   4.208  35.390   1.879
12302W        W80632  23.228  34.579  10.612
12303W        W80633  23.061  30.127   2.333
12304W        W80634  10.718  25.713  10.519
12305W        W80635  34.433  41.839  12.072
12306W        W80636   9.381  23.222  10.468
12307W        W80637  14.808  35.429  11.472
12308W        W80638  12.790  12.174  13.823
12309W        W80639  37.013  37.380  14.511
12310W        W80640  30.575   3.395  13.327
12311W        W80641   6.282  26.503  14.765
12312W        W80642  33.012  20.254   2.737
12313W        W80643  42.002  41.011   3.788
12314W        W80644   9.179   0.903  11.957
12315W        W80645  12.116  18.120   3.374
12316W        W80646  12.718   4.793  13.480
12317W        W80647  26.014  11.268  12.467
12318W        W80648  35.362  16.307  12.963
12319W        W80649  34.903  41.027  14.839
12320W        W80650   1.789  25.198   0.318
12321W        W80651  44.322  14.665  12.086
12322W        W80652  44.330  36.913  11.007
12323W        W80653  26.143  37.086  11.453
12324W        W80654   2.347  20.580   2.193
12325W        W80655  25.041  24.117   3.188
12326W        W80656  24.651  26.460   1.443
12327W        W80657  31.431  14.819  14.375
12328W        W80658  11.730  41.003  13.508
12329W        W80659  32.931  43.805   2.300
12330W        W80660  28.468  35.911   4.123
12331W        W80661  12.746  32.391   4.681
12332W        W80662  19.255  13.239  12.903
12333W        W80663  22.244  22.740   0.857
12334W        W80664   0.300  42.527  12.554
12335W        W80665  27.613   0.802   2.254
12336W        W80666   7.319  17.788  11.115
12337W        W80667  18.786  14.303  12.506
12338W        W80668  33.440  20.728   4.661
12339W        W80669  15.232  37.505  11.582
12340W        W80670  17.162   9.299   4.251
12341W        W80671  31.420  26.058   2.839
12342W        W80672  19.549  30.508   2.859
12343W        W80673  23.538  36.863   4.754
12344W        W80674   0.412  38.449  12.397
12345W        W80675  23.104  18.099  13.540
12346W        W80676  16.294  22.043   1.414
12347W        W80677   0.794  22.064  12.859
12348W        W80678  30.585  26.517   2.403
12349W        W80679  14.828  21.047  12.441
12350W        W80680   9.290  12.245   1.742
12351W        W80681   3.310  42.480  13.467
12352W        W80682   6.733  37.511  11.493
12353W        W80683   5.771  11.838  13.045
12354W        W80684  14.658  44.265  11.518
12355W        W80685  35.079  13.209  14.868
12356W        W80686   1.805  31.481   3.252
12357W        W80687  22.018  25.133  13.500
12358W        W80688  16.304  16.645   0.912
12359W        W80689  32.392  21.189  13.907
12360W        W80690  14.774  15.764  12.094
12361W        W80691   7.730  17.577  13.865
12362W        W80692  20.267  33.519   3.633
12363W        W80693   2.910   9.239   0.363
12364W        W80694  44.941  19.565   3.856
12365W        W80695  23.110  12.141   3.183
12366W        W80696  23.619   5.796   3.334
12367W        W80697  21.179   1.804   1.829
12368W        W80698  22.201   9.703  10.955
12369W        W80699  44.913  28.968  14.499
12370W        W80700  31.994  41.999   3.661
12371W        W80701  18.704   7.730  13.996
12372W        W80702  27.656   4.262  14.359
12373W        W80703  43.281  33.906  14.405
12374W        W80704  40.950  41.354  11.984
12375W        W80705  20.130   3.888  11.102
12376W        W80706  14.137  22.630  11.883
12377W        W80707  14.598  44.302  11.860
12378W        W80708  17.063  15.704   1.260
12379W        W80709  20.125  11.745  12.395
12380W        W80710  42.513  25.626  14.860
12381W        W80711   9.648  17.713   2.383
12382W        W80712   5.282  29.080   0.901
12383W        W80713  15.286  33.894  12.530
12384W        W80714  10.731  22.524   1.269
12385W        W80715  39.926  23.512   0.272
12386W        W80716  42.502  19.729  12.573
12387W        W80717   6.742  27.970   3.250
12388W        W80718   7.394  23.057   3.176
12389W        W80719  34.068   9.649  12.450
12390W        W80720  23.592  37.905  13.922
12391W        W80721   0.453   5.751  10.553
12392W        W80722   1.975  38.832   0.455
12393W        W80723   3.934  43.316   3.754
12394W        W80724   5.390  28.036  14.417
12395W        W80725  14.642  35.417   1.237
12396W        W80726  28.479  15.661   1.304
12397W        W80727  30.950  17.627  12.551
12398W        W80728  35.020  20.078  11.034
12399W        W80729  42.361  22.606   3.821
12400W        W80730  17.069   7.242   0.265
12401W        W80731   3.809  15.161   0.417
12402W        W80732  11.802  21.164  14.317
12403W        W80733  29.034  15.731   1.276
12404W        W80734   0.368  37.853   1.332
12405W        W80735  16.147   7.678   0.269
12406W        W80736   4.934  44.307   4.612
12407W        W80737  43.506  12.675  11.932
12408W        W80738  33.509  15.291   4.317
12409W        W80739  24.625  15.719   0.417
12410W        W80740  17.615  36.506   2.871
12411W        W80741  15.230   5.314   1.877
12412W        W80742  14.198  17.705   2.191
12413W        W80743  25.035   8.709  12.961
12414W        W80744  28.529  34.605  13.468
12415W        W80745   1.954  17.625   4.822
12416W        W80746  32.120  11.784   4.727
12417W        W80747   1.884   9.308   4.236
12418W        W80748  40.531  20.560  12.554
12419W        W80749  34.612  37.490  13.016
12420W        W80750  11.372   6.767   4.601
12421W        W80751  30.124  12.139  14.278
12422W        W80752  44.828  36.011   1.314
12423W        W80753  24.608  34.566  14.008
12424W        W80754  42.973  13.712   4.798
12425W        W80755  41.527   5.326   0.481
12426W        W80756   9.849  26.489   0.476
12427W        W80757  35.590   9.801  10.555
12428W        W80758  29.980  24.156   3.729
12429W        W80759   3.226  14.786   1.764
12430W        W80760  15.732  34.979   2.741
12431W        W80761   3.291  18.246  11.507
12432W        W80762  24.095   6.213   5.187
12433W        W80763   8.326  21.678   4.267
12434W        W80764  23.097  37.400   0.842
12435W        W80765  27.000  20.526  12.907
12436W        W80766  24.519   7.724  13.406
12437W        W80767   9.652  12.223  10.969
12438W        W80768  35.862  13.129   2.377
12439W        W80769  32.575  40.841  10.899
12440W        W80770  34.935  27.034   3.649
12441W        W80771   3.884  43.511   4.737
12442W        W80772  14.679  15.805  10.138
12443W        W80773  18.583  32.961   3.148
12444W        W80774  34.554  34.110  11.593
12445W        W80775  13.281  18.688  13.317
12446W        W80776  38.390  40.825  11.007
12447W        W80777   8.705   6.199   4.799
12448W        W80778  20.179  40.977  10.587
12449W        W80779  18.739   5.828  14.405
12450W        W80780  26.607  43.862  11.011
12451W        W80781  24.103  24.212  10.418
12452W        W80782  29.962   7.776  12.549
12453W        W80783  36.015  29.513  14.001
12454W        W80784  43.867  20.534   4.671
12455W        W80785  30.911  43.421   1.696
12456W        W80786  21.233  32.603  12.000
12457W        W80787  38.922  18.206  10.114
12458W        W80788  39.995   8.704  13.062
12459W        W80789  17.699  27.512   3.361
12460W        W80790   6.765  14.280  12.358
12461W        W80791   7.180  26.068   4.200
12462W        W80792  32.891   1.802   1.340
12463W        W80793   3.392   6.742  13.034
12464W        W80794  15.752  36.537  11.479
12465W        W80795  31.896  35.428   2.874
12466W        W80796  24.517  43.805   4.774
12467W        W80797   4.775  17.194   4.180
12468W        W80798  20.604   1.745   0.827
12469W        W80799   5.369  19.107   0.856
12470W        W80800  19.192  25.077   4.156
12471W        W80801  11.856   8.847   1.802
12472W        W80802  44.490  11.330  13.535
12473W        W80803  29.475  29.993  12.339
12474W        W80804   2.936  24.067   2.852
12475W        W80805  16.148  16.681  12.388
12476W        W80806   1.759  30.552  12.366
12477W        W80807  13.114   4.849   4.203
12478W        W80808  43.990   1.420  12.896
12479W        W80809  36.458  42.378  14.485
12480W        W80810  14.801  25.106  12.560
12481W        W80811  41.864  43.422  13.450
12482W        W80812   7.837  10.337  10.589
12483W        W80813  22.112   5.838   2.716
12484W        W80814  34.410  20.598   1.854
12485W        W80815   4.929  20.529  11.401
12486W        W80816  35.081   3.844  14.942
12487W        W80817   1.734   2.250  13.531
12488W        W80818  41.371  36.509   0.943
12489W        W80819  41.914  43.871   2.266
12490W        W80820  27.135   9.160   5.661
12491W        W80821  24.588  21.726   4.189
12492W        W80822  36.864  38.967   1.220
12493W        W80823  26.649  12.785   1.732
12494W        W80824  41.821  41.387   4.666
12495W        W80825   2.760  32.044   0.437
12496W        W80826  41.006   1.376   2.743
12497W        W80827  22.143   4.780   3.180
12498W        W80828  22.575   8.685  14.275
12499W        W80829  38.993  24.671  10.926
12500W        W80830   3.293  16.799   4.699
12501W        W80831  26.977  36.566   4.166
12502W        W80832  13.269   7.671  10.895
12503W        W80833   0.328  22.056  14.313
12504W        W80834  35.920  41.360  11.967
12505W        W80835  14.803  33.582   2.248
12506W        W80836   1.269  14.172   4.631
12507W        W80837   4.740   8.687   1.865
12508W        W80838  16.630  19.072   1.718
12509W        W80839  10.791   8.764  13.800
12510W        W80840  18.295  19.553  11.105
12511W        W80841  23.506  42.389   2.801
12512W        W80842  32.475  25.554   3.814
12513W        W80843  30.610  28.985  11.569
12514W        W80844  22.746  44.273  14.282
12515W        W80845  26.571  34.898  13.397
12516W        W80846  15.770  17.700   4.194
12517W        W80847  38.901   9.692   0.403
12518W        W80848   4.732   5.898  10.157
12519W        W80849  26.469  20.173   5.260
12520W        W80850   8.359  42.974  13.323
12521W        W80851  28.069  25.089   3.745
12522W        W80852  24.544  28.024   1.335
12523W        W80853  28.669  23.053   3.790
12524W        W80854  22.133  12.133  13.400
12525W        W80855   4.915  26.042  14.966
12526W        W80856  14.209   1.829   1.266
12527W        W80857  34.481  20.639  14.400
12528W        W80858   4.892  17.614  12.486
12529W        W80859  25.702  33.383   3.346
12530W        W80860  20.631  28.998  14.509
12531W        W80861  21.155   7.366  13.978
12532W        W80862  13.136   6.916   2.770
12533W        W80863  43.365  44.439   4.135
12534W        W80864  18.157  29.130  14.804
12535W        W80865  42.859  13.777  14.500
12536W        W80866  25.496   6.343   4.290
12537W        W80867  41.440  13.718   4.827
12538W        W80868  16.706   0.426  13.446
12539W        W80869  26.467  39.923  10.484
12540W        W80870  26.529  41.800   3.866
12541W        W80871   3.420  36.521  11.993
12542W        W80872  31.061  12.647   0.289
12543W        W80873  40.977  31.030  13.802
12544W        W80874  12.171  25.578   4.755
12545W        W80875   7.395  19.109   2.768
12546W        W80876  13.788  20.173  13.814
12547W        W80877   2.280  30.139   1.735
12548W        W80878   4.847  24.530   1.221
12549W        W80879  21.694  33.004   1.300
12550W        W80880  18.184   7.808  12.450
12551W        W80881  18.680  21.524   1.748
12552W        W80882  44.342  17.143   1.721
12553W        W80883  10.723   2.345  13.526
12554W        W80884  24.571  39.514   2.789
12555W        W80885   9.755  35.575  10.977
12556W        W80886  28.533   1.269   3.301
12557W        W80887  37.848  40.047   0.944
12558W        W80888  24.190  32.489  11.053
12559W        W80889   9.783  28.996   0.736
12560W        W80890  38.034  43.001  13.045
12561W        W80891  34.038  30.968   3.164
12562W        W80892  36.429   4.856   1.852
12563W        W80893  14.622   4.704  13.991
12564W        W80894  37.032  21.750  14.436
12565W        W80895  36.037  44.878   3.384
12566W        W80896  34.937   2.296  13.406
12567W        W80897  33.105  30.640  11.879
12568W        W80898  24.601   3.242   0.908
12569W        W80899  23.169  13.107   2.324
12570W        W80900  38.877   6.420  12.389
12571W        W80901  30.521  21.747  13.445
12572W        W80902   5.276  42.866   9.941
12573W        W80903  20.727  33.053  14.411
12574W        W80904  24.089   2.452  11.050
12575W        W80905  21.043  18.052  11.520
12576W        W80906  29.581   2.369  14.867
12577W        W80907  42.877  43.878   3.259
12578W        W80908  43.919   4.222  10.962
12579W        W80909  18.184  40.015  12.449
12580W        W80910  40.314  33.938  12.946
12581W        W80911  31.430  20.742   3.861
12582W        W80912   4.204  35.460   0.316
12583W        W80913  29.508   7.723   0.894
12584W        W80914  41.970  34.873   5.142
12585W        W80915  21.126   2.441  10.977
12586W        W80916  11.178  19.197   0.406
12587W        W80917  14.160   0.457  10.119
12588W        W80918  42.957   1.794  13.063
12589W        W80919  43.429  25.069  11.041
12590W        W80920  25.568  27.467   3.288
12591W        W80921  33.447  22.631   4.291
12592W        W80922  11.273  11.333   3.190
12593W        W80923  16.206  25.545  13.826
12594W        W80924   4.846  42.884   2.342
12595W        W80925  18.235  19.590  13.949
12596W        W80926  38.526  30.460   3.286
12597W        W80927  26.172  17.697  13.851
12598W        W80928  17.297  44.983   3.865
12599W        W80929  35.546  43.896  13.308
12600W        W80930  14.701  13.844   2.298
12601W        W80931  38.480  15.147   3.643
12602W        W80932  37.996   2.867  13.323
12603W        W80933  43.482   0.282  14.479
12604W        W80934  39.361  16.141  13.851
12605W        W80935  43.307  43.298  13.942
12606W        W80936  15.622  33.981   0.357
12607W        W80937   9.780  36.881  13.360
12608W        W80938  14.808  37.944   4.272
12609W        W80939  44.825  14.734   0.865
12610W        W80940  40.334  32.453  14.427
12611W        W80941  40.304  35.015  11.994
12612W        W80942  12.265  14.648   4.225
12613W        W80943   6.686  16.679   0.825
12614W        W80944  36.975  33.530   3.226
12615W        W80945  29.169   4.378  10.645
12616W        W80946   0.920  27.153  10.436
12617W        W80947  32.928  17.684   0.836
12618W        W80948  26.511  22.666   4.789
12619W        W80949  31.079   3.936   2.194
12620W        W80950  28.575  35.083   2.206
12621W        W80951  36.931  20.030  12.001
12622W        W80952  38.877  32.046   4.251
12623W        W80953   7.712  44.464  12.343
12624W        W80954   9.288  32.896   1.296
12625W        W80955  17.667  13.194   4.265
12626W        W80956   2.866  28.168  11.541
12627W        W80957  16.296  21.162  11.065
12628W        W80958  38.855  25.169   1.263
12629W        W80959  11.678  42.777  11.490
12630W        W80960  43.339  18.574  13.015
12631W        W80961  23.010  19.633  14.436
12632W        W80962  24.007  43.929   4.230
12633W        W80963   1.347   1.393   3.848
12634W        W80964  24.221  35.896  14.495
12635W        W80965  16.153  27.123   1.926
12636W        W80966   6.791   3.322   0.243
12637W        W80967  41.377  27.671  13.338
12638W        W80968  40.347  42.847  10.947
12639W        W80969  27.455  17.763  10.957
12640W        W80970  19.653  24.974   0.432
12641W        W80971  17.797   6.317   0.350
12642W        W80972   7.413   3.871  12.082
12643W        W80973  32.412  40.048   1.895
12644W        W80974  43.017  22.516  11.891
12645W        W80975  22.537  26.156  13.954
12646W        W80976  13.778  23.720  12.503
12647W        W80977  33.423   0.292  12.070
12648W        W80978  10.733  29.919  11.856
12649W        W80979  32.515   3.444  10.535
12650W        W80980   9.230  44.886   3.863
12651W        W80981   3.450  24.046  14.286
12652W        W80982  11.853  22.711  13.963
12653W        W80983  18.723   1.927   4.303
12654W        W80984  25.140  18.237   0.427
12655W        W80985  19.621  28.643   2.389
12656W        W80986  14.185   4.229   0.935
12657W        W80987  21.017  23.149  12.911
12658W        W80988  37.543  36.377   0.798
12659W        W80989  20.632  11.173  12.841
12660W        W80990  41.894   0.789   5.270
12661W        W80991  44.955  39.371   4.710
12662W        W80992   6.298  25.585   1.253
12663W        W80993  30.500  26.073   0.859
12664W        W80994   0.423  12.648   3.702
12665W        W80995  20.190   7.727  14.023
12666W        W80996   5.692   2.247   3.200
12667W        W80997  21.697  31.965  12.994
12668W        W80998   8.167   4.779  14.887
12669W        W80999  22.674  40.415   1.263
12670W        W81000   5.866  36.987  11.052
12671W        W81001  41.301  29.587   2.855
12672W        W81002  34.530  34.877   4.299
12673W        W81003  16.585   5.810   1.371
12674W        W81004   6.363  15.621   0.745
12675W        W81005  17.618  34.491   3.341
12676W        W81006  30.570  35.070   1.260
12677W        W81007  10.643  13.613   4.307
12678W        W81008  38.518  27.601  13.952
12679W        W81009  39.537   3.424  12.365
12680W        W81010  27.602  19.283  11.592
12681W        W81011  25.520   5.260   0.283
12682W        W81012  23.086  33.934  13.995
12683W        W81013  31.479  10.277  13.037
12684W        W81014  33.910   6.396  14.934
12685W        W81015  26.558  36.482  14.874
12686W        W81016  25.037  32.130   3.796
12687W        W81017  32.086  26.072  11.442
12688W        W81018  25.154  10.289   3.737
12689W        W81019  39.477  12.199  14.853
12690W        W81020  33.008  18.192   2.887
12691W        W81021  17.782  22.713   1.364
12692W        W81022  11.201   1.369  10.622
12693W        W81023   2.774   6.878   2.232
12694W        W81024  26.521   5.388  14.378
12695W        W81025  40.988  29.664   2.676
12696W        W81026  25.616   0.352   4.181
12697W        W81027  26.109  43.928  14.332
12698W        W81028  12.683  32.918   4.277
12699W        W81029  22.107  13.662   4.613
12700W        W81030   2.888  34.944   2.356
12701W        W81031  37.852   8.790  11.099
12702W        W81032  31.947  43.371   3.796
12703W        W81033   2.858  23.517   1.894
12704W        W81034  16.573  20.062  13.966
12705W        W81035  15.277  13.228   1.884
12706W        W81036  34.387  37.411  11.867
12707W        W81037  44.378  32.421  13.051
12708W        W81038  14.704  12.762   1.341
12709W        W81039  22.543  12.307  13.838
12710W        W81040  39.065  39.876   1.809
12711W        W81041   5.193  17.759   0.815
12712W        W81042  33.489  19.101  12.901
12713W        W81043  25.218  19.252  11.971
12714W        W81044  41.876   2.385  11.568
12715W        W81045   4.356  30.029   2.302
12716W        W81046   6.805   1.439  13.481
12717W        W81047   6.416  31.943  13.532
12718W        W81048  41.292  11.313   0.401
12719W        W81049  39.371  40.537   0.248
12720W        W81050  21.257  14.749   4.222
12721W        W81051  16.764  34.573   2.762
12722W        W81052  18.216   7.732   3.705
12723W        W81053   0.764   1.443   2.367
12724W        W81054   8.830  42.430  11.593
12725W        W81055  39.866   0.826   3.781
12726W        W81056  32.138   1.301   0.269
12727W        W81057  41.511  15.214  10.573
12728W        W81058   2.368  34.017  11.983
12729W        W81059  28.673   8.159   3.633
12730W        W81060  22.186  22.646  11.964
12731W        W81061   9.293  40.042   3.681
12732W        W81062  19.118   1.966   0.941
12733W        W81063  31.566  35.550  14.419
12734W        W81064  27.961  26.489  14.498
12735W        W81065   2.358  25.147  12.037
12736W        W81066  37.508   3.274  14.366
12737W        W81067  27.151   3.238  14.943
12738W        W81068  20.590  30.467   0.337
12739W        W81069  34.940  39.000  10.999
12740W        W81070  24.645  42.345  12.902
12741W        W81071  11.349  19.144   4.251
12742W        W81072  20.578  41.843   3.743
12743W        W81073   5.214  44.956   4.248
12744W        W81074  25.517  15.215  10.543
12745W        W81075  36.497   5.305  14.280
12746W        W81076  19.242  44.909   3.232
12747W        W81077  32.582   9.358   2.398
12748W        W81078  40.001  21.651  14.307
12749W        W81079  32.054  28.590   4.740
12750W        W81080   4.217  17.777   1.292
12751W        W81081  20.271  44.768  11.540
12752W        W81082   8.822  15.780  12.089
12753W        W81083   9.718  19.701  12.388
12754W        W81084  13.644  11.258   2.760
12755W        W81085   9.703   8.841   4.133
12756W        W81086  14.746  37.045  14.863
12757W        W81087  13.757   4.750  12.427
12758W        W81088   1.245   5.405   4.798
12759W        W81089   0.760   6.316   2.231
12760W        W81090  36.497  28.028   4.676
12761W        W81091  10.305  28.462   0.250
12762W        W81092  17.071  23.077   9.564
12763W        W81093  30.504   8.268   2.872
12764W        W81094  19.774  24.562   5.613
12765W        W81095  34.968   3.926   3.737
12766W        W81096   0.903  41.347   0.908
12767W        W81097  12.675   3.392  11.404
12768W        W81098  15.670   8.872   5.299
12769W        W81099   7.401  35.417   1.726
12770W        W81100  41.355   5.323  12.501
12771W        W81101   9.854   1.929   2.662
12772W        W81102  37.844  25.143   0.383
12773W        W81103  16.759  40.508  12.832
12774W        W81104  35.995   1.290   3.671
12775W        W81105  22.079   2.872   0.868
12776W        W81106  41.470  24.092  10.944
12777W        W81107  36.900  37.363   2.383
12778W        W81108  43.823  22.526   2.663
12779W        W81109  37.510  12.675  13.007
12780W        W81110  21.664   5.734   2.317
12781W        W81111  19.641   0.942   2.766
12782W        W81112  41.905  21.743   0.775
12783W        W81113  42.515  22.222  14.497
12784W        W81114   7.733   4.289   1.726
12785W        W81115  20.031  29.635  12.996
12786W        W81116  15.710  25.556  10.461
12787W        W81117  28.100  13.161   1.328
12788W        W81118  16.111  31.988   1.338
12789W        W81119  12.353  33.563  10.476
12790W        W81120   9.183  35.964  12.466
12791W        W81121  12.738  44.842  13.945
12792W        W81122  32.442  17.171   4.116
12793W        W81123   4.735  10.664   4.704
12794W        W81124  17.691  24.177   4.709
12795W        W81125   5.898  40.339   2.898
12796W        W81126  10.206  33.487   1.720
12797W        W81127  44.843   8.374  14.481
12798W        W81128  33.485  28.144  11.928
12799W        W81129  26.544   4.786  10.956
12800W        W81130  10.189  32.067  11.590
12801W        W81131  31.582  18.690  13.338
12802W        W81132   8.763  43.305  11.575
12803W        W81133  19.257   7.323  11.871
12804W        W81134  34.915   3.289   2.400
12805W        W81135   5.757   7.312  14.377
12806W        W81136  40.308  30.996   0.744
12807W        W81137  17.754  38.543  14.506
12808W        W81138  11.665  17.626   4.271
12809W        W81139  26.046  14.280  12.906
12810W        W81140  23.996  11.835  12.944
12811W        W81141  27.508  21.063   2.665
12812W        W81142  41.447  42.998  11.129
12813W        W81143  28.572  42.775   0.405
12814W        W81144  19.202  13.652  12.546
12815W        W81145  38.492   6.751   4.170
12816W        W81146   3.310  17.164  13.906
12817W        W81147  21.113  35.860   2.733
12818W        W81148  34.590   6.787   1.222
12819W        W81149   8.358  18.606  13.336
12820W        W81150  23.642  29.168   3.241
12821W        W81151  21.548  27.454  11.929
12822W        W81152  16.775  19.652  11.469
12823W        W81153  33.494  41.309   4.701
12824W        W81154  16.127  22.663   4.177
12825W        W81155   9.788  35.522  11.951
12826W        W81156   9.375  37.847   2.226
12827W        W81157   0.282  21.234   3.769
12828W        W81158  21.589  24.174  14.388
12829W        W81159   0.793   4.816   2.396
12830W        W81160  30.977  37.468   3.246
12831W        W81161  12.759  32.937  13.012
12832W        W81162  40.897   0.865   3.324
12833W        W81163   3.729  19.193  10.986
12834W        W81164   7.711  27.138   1.749
12835W        W81165  10.280   2.361   5.204
12836W        W81166  17.687  37.951  13.518
12837W        W81167  24.062   6.861  11.599
12838W        W81168  42.433  11.210  13.463
12839W        W81169  43.856  32.982  12.531
12840W        W81170  40.030   0.861   2.356
12841W        W81171  22.732  36.997   1.792
12842W        W81172  27.978  42.320  13.398
12843W        W81173   5.331  36.844  11.463
12844W        W81174  32.045   7.692  14.338
12845W        W81175   0.748  38.450   2.786
12846W        W81176  39.922   3.310   2.222
12847W        W81177  38.820  22.223   2.765
12848W        W81178  36.472  14.714   1.352
12849W        W81179  20.553  28.139  14.419
12850W        W81180  24.572  10.231  10.977
12851W        W81181  43.347  18.612   2.254
12852W        W81182   1.830  36.469  13.438
12853W        W81183  42.788  31.044   3.844
12854W        W81184  19.759  44.788  13.366
12855W        W81185  35.405  34.937   3.840
12856W        W81186   8.901   1.808   3.188
12857W        W81187  25.125  27.119  10.888
12858W        W81188  24.508  33.397   2.195
12859W        W81189  24.565  21.525   1.715
12860W        W81190  20.572  32.045  13.963
12861W        W81191  12.158  13.649  12.515
12862W        W81192   3.296  35.543  10.625
12863W        W81193  11.258  31.974  11.939
12864W        W81194  18.094  24.112  11.930
12865W        W81195  28.516  22.137   1.741
12866W        W81196  20.249  39.533  13.327
12867W        W81197  26.017  26.011  12.370
12868W        W81198  43.425   1.922   5.139
12869W        W81199  39.545  26.021   3.359
12870W        W81200   1.244  32.134  12.362
12871W        W81201  28.534  25.215  12.899
12872W        W81202  27.128   0.912  14.969
12873W        W81203   8.827  11.700   0.962
12874W        W81204   0.377   5.881   4.673
12875W        W81205  28.451  27.173   1.223
12876W        W81206  15.580  16.697   2.218
12877W        W81207  24.703  44.835  14.801
12878W        W81208  22.210  30.141  13.344
12879W        W81209   9.703  36.872   3.316
12880W        W81210  28.979   4.378   1.880
12881W        W81211   7.345  31.088   3.209
12882W        W81212  18.266  23.118   0.829
12883W        W81213  18.652   2.451   1.304
12884W        W81214  30.541  12.820   1.445
12885W        W81215   0.981  42.793  14.303
12886W        W81216  32.480   5.317  14.911
12887W        W81217  24.669   4.272   1.382
12888W        W81218  29.934  28.605  10.527
12889W        W81219   2.317   0.272  11.865
12890W        W81220  16.746  12.270  12.029
12891W        W81221  10.670  40.952   0.942
12892W        W81222  29.584  34.998   0.945
12893W        W81223  36.433   9.678  12.367
12894W        W81224  29.936  34.556  12.021
12895W        W81225   1.732  21.517  14.479
12896W        W81226  20.734  22.131   3.777
12897W        W81227   1.389   1.803  10.487
12898W        W81228  12.217   4.908  12.899
12899W        W81229  26.991   1.937   2.711
12900W        W81230  22.647  27.049   2.312
12901W        W81231  26.480  14.794  14.327
12902W        W81232  11.280  12.821   3.356
12903W        W81233  23.188  29.596  11.401
12904W        W81234  17.756  22.128   2.869
12905W        W81235  31.438  36.403   1.822
12906W        W81236  34.003  21.062   0.406
12907W        W81237  29.007  13.622   1.869
12908W        W81238  31.444  19.612  10.635
12909W        W81239  40.987  24.632  10.955
12910W        W81240  41.412  22.043   3.824
12911W        W81241  29.000  33.923  11.405
12912W        W81242  34.988  16.654  13.911
12913W        W81243   1.418   9.842  14.876
12914W        W81244  39.341  38.877  13.882
12915W        W81245   7.193  24.481   3.192
12916W        W81246  17.226  26.975   2.821
12917W        W81247  34.540  25.180  12.343
12918W        W81248  13.603   2.228  10.617
12919W        W81249   5.289  26.512  11.988
12920W        W81250  22.537  12.847   3.755
12921W        W81251  37.967   4.832  14.849
12922W        W81252  29.560   7.295  11.463
12923W        W81253   1.317  33.917  14.366
12924W        W81254  12.272  35.556   1.842
12925W        W81255  41.991  30.947  11.862
12926W        W81256  34.467  42.899   2.787
12927W        W81257   5.416  43.307   3.148
12928W        W81258  27.008  20.176  12.514
12929W        W81259  36.559  16.672   2.402
12930W        W81260  14.297  13.773  11.430
12931W        W81261   8.838   9.855  11.377
12932W        W81262  28.671  28.132   1.734
12933W        W81263  35.372  23.004  12.351
12934W        W81264  29.961  33.926   0.880
12935W        W81265  43.878  22.549  14.763
12936W        W81266   1.393  30.056   3.347
12937W        W81267  42.976   1.972  11.080
12938W        W81268  37.392  18.207   2.406
12939W        W81269  31.034  42.850  14.761
12940W        W81270  11.233   0.286   0.846
12941W        W81271  28.128  13.127  12.474
12942W        W81272   1.954  16.736  10.943
12943W        W81273  10.332  42.443  14.324
12944W        W81274  36.364  12.327  13.911
12945W        W81275   2.915  25.056  12.076
12946W        W81276  38.460  12.782   3.358
12947W        W81277   4.237  24.096  13.922
12948W        W81278   0.934   2.792   2.855
12949W        W81279  17.277  34.082   3.773
12950W        W81280  34.095  41.830   0.338
12951W        W81281  37.521  19.709   1.876
12952W        W81282  16.711  39.439  12.365
12953W        W81283   5.280   2.254  10.627
12954W        W81284  19.700  23.099  12.978
12955W        W81285  37.339  11.694  10.439
12956W        W81286  13.233   5.800   9.947
12957W        W81287  41.296  38.911   5.109
12958W        W81288  30.455  39.912  13.313
12959W        W81289  22.643   1.273   4.214
12960W        W81290   9.267  15.745  11.940
12961W        W81291  28.034  11.634  13.376
12962W        W81292  42.507   4.913  11.381
12963W        W81293  30.525  32.591   3.332
12964W        W81294   8.729  37.422   0.475
12965W        W81295  12.718  12.165  11.039
12966W        W81296  13.203  20.226   4.787
12967W        W81297  13.313   0.264   0.886
12968W        W81298   3.869  39.025  11.612
12969W        W81299  26.673  16.588  12.981
12970W        W81300   9.236  33.481   2.872
12971W        W81301   9.213  41.943  14.980
12972W        W81302  16.277  15.597  12.577
12973W        W81303  31.139   4.853  14.883
12974W        W81304  14.101  27.160  10.952
12975W        W81305  21.730  31.455   2.322
12976W        W81306  43.001  38.441  10.595
12977W        W81307  36.085  13.250  12.961
12978W        W81308   0.413  28.514   3.374
12979W        W81309  17.209  12.847   4.263
12980W        W81310  26.653  20.200  12.397
12981W        W81311   4.759   9.731  12.343
12982W        W81312  24.121  25.513  13.888
12983W        W81313  24.490  16.802   2.188
12984W        W81314   6.338   1.324  13.538
12985W        W81315   8.289  25.077   3.351
12986W        W81316  11.289  18.680  12.008
12987W        W81317   5.865  31.603   1.361
12988W        W81318  18.085  30.116  12.028
12989W        W81319  32.892  25.473   4.657
12990W        W81320  32.588  17.776  11.467
12991W        W81321  41.814   1.390  14.424
12992W        W81322  31.641   0.869  12.969
12993W        W81323  37.561  20.716  12.393
12994W        W81324  26.157  19.194  12.511
12995W        W81325  27.096  33.008  10.159
12996W        W81326  39.359  18.708   0.306
12997W        W81327  18.704  41.856   0.357
12998W        W81328  24.566  20.766  13.348
12999W        W81329  10.190  31.150  10.523
13000W        W81330   3.762  35.061   1.805
13001W        W81331   8.849  32.903  14.965
13002W        W81332   0.292  33.101  14.350
13003W        W81333  38.839  30.592   0.953
13004W        W81334   2.897  31.590  14.997
13005W        W81335  43.299  28.138   1.224
13006W        W81336   2.436  24.513   1.429
13007W        W81337  36.471  22.525   2.742
13008W        W81338   6.890   6.399   3.155
13009W        W81339   4.277  18.140  10.928
13010W        W81340  44.985  13.237   2.345
13011W        W81341   0.962  14.732  12.044
13012W        W81342  27.637  23.616   0.418
13013W        W81343  27.639  27.657   2.310
13014W        W81344  37.506  10.289   9.993
13015W        W81345  14.115   5.792   4.138
13016W        W81346  29.469  32.016  11.404
13017W        W81347  36.008   4.241   2.338
13018W        W81348  38.057  28.658  10.968
13019W        W81349  41.361   6.343   4.231
13020W        W81350   0.838   7.754   4.714
13021W        W81351   5.819   9.805  13.021
13022W        W81352  31.067  37.940   4.172
13023W        W81353  33.938  23.057  10.466
13024W        W81354  25.031   8.354   3.864
13025W        W81355  15.309  39.511  14.407
13026W        W81356  13.692  29.645  10.407
13027W        W81357  25.526  28.503  14.402
13028W        W81358  29.132   9.302  11.428
13029W        W81359  31.539  12.613   2.814
13030W        W81360  33.019  39.004  12.062
13031W        W81361  22.183  27.144  11.117
13032W        W81362  19.269   6.215  14.282
13033W        W81363  43.290  13.690   1.359
13034W        W81364  42.853  28.575   3.327
13035W        W81365  38.488   0.917  11.532
13036W        W81366   8.696  18.773   4.754
13037W        W81367  33.048  12.709  12.386
13038W        W81368   4.376   1.752  11.573
13039W        W81369   6.904  15.616   2.901
13040W        W81370   7.193   1.764  12.922
13041W        W81371  15.642  23.631  10.954
13042W        W81372  33.382  41.330   1.447
13043W        W81373  41.929  27.519   0.360
13044W        W81374   3.862  24.046   4.273
13045W        W81375   5.698  37.844  12.413
13046W        W81376  25.022  25.506   4.625
13047W        W81377  37.346  32.462  10.477
13048W        W81378  16.667  32.637  13.797
13049W        W81379  32.571  44.293   1.375
13050W        W81380  13.334  15.787  12.910
13051W        W81381  32.626   3.808  12.989
13052W        W81382  24.210   3.325   1.838
13053W        W81383  34.578  26.618  12.529
13054W        W81384  15.733  43.341   0.393
13055W        W81385  35.991  17.734  14.807
13056W        W81386   2.370  35.418  11.121
13057W        W81387   0.840   6.250   4.759
13058W        W81388   1.942  37.398   0.446
13059W        W81389  34.866  19.667   0.427
13060W        W81390   7.871  23.530   0.391
13061W        W81391   7.832   2.834  12.022
13062W        W81392  23.535  16.700   2.293
13063W        W81393  12.628  19.556  11.094
13064W        W81394  19.164  15.716  12.077
13065W        W81395  15.637  26.464  11.012
13066W        W81396  22.091  26.687   1.377
13067W        W81397  24.032   2.274  14.346
13068W        W81398  20.531  22.558  14.804
13069W        W81399  20.140  34.607  13.898
13070W        W81400  24.508   0.471   2.862
13071W        W81401  42.526  14.222  10.584
13072W        W81402  10.277  22.186  13.055
13073W        W81403  40.961  11.366  14.831
13074W        W81404  22.040  19.177   2.390
13075W        W81405  11.135  16.135   3.846
13076W        W81406  15.225  26.595   4.230
13077W        W81407  37.898  18.059   0.311
13078W        W81408  29.483  43.991   2.856
13079W        W81409  15.792  30.108   3.749
13080W        W81410   7.895  29.603   4.149
13081W        W81411  13.727  34.115   0.877
13082W        W81412   1.772   8.315  11.052
13083W        W81413   8.354  21.090  13.501
13084W        W81414   0.423  13.310   4.283
13085W        W81415  44.429  10.219   3.869
13086W        W81416  12.666  19.126  12.910
13087W        W81417  14.748  24.040  14.461
13088W        W81418  18.759  35.485  12.415
13089W        W81419   5.699  18.769   2.371
13090W        W81420  15.746  17.751   0.778
13091W        W81421  36.456  24.063   3.847
13092W        W81422  20.180   9.768  11.909
13093W        W81423  42.445  37.082   2.409
13094W        W81424  44.450  20.572   3.341
13095W        W81425  12.272   0.484  11.479
13096W        W81426  22.633  23.555  13.347
13097W        W81427  25.141  14.612   2.864
13098W        W81428  15.670  37.968  12.494
13099W        W81429  21.120   0.854  14.948
13100W        W81430   8.796  30.148  13.956
13101W        W81431  44.002  40.455   3.825
13102W        W81432  28.011  10.381  14.822
13103W        W81433  37.835  19.557  11.909
13104W        W81434  36.572   3.346   0.249
13105W        W81435  23.676  16.142   4.184
13106W        W81436  11.706  28.549  12.897
13107W        W81437   2.766  26.654   3.820
13108W        W81438  14.747   5.932   1.222
13109W        W81439  21.720  19.152   4.128
13110W        W81440  25.636  35.361  10.981
13111W        W81441  28.085  25.220   1.332
13112W        W81442   2.333  33.562  14.834
13113W        W81443  36.522  28.580  10.580
13114W        W81444  35.896  30.128   3.826
13115W        W81445  36.095   8.811  13.994
13116W        W81446  10.372  14.274   2.780
13117W        W81447   9.692  43.819   1.698
13118W        W81448  26.575  32.500   1.435
13119W        W81449  14.698  14.717   4.670
13120W        W81450  15.270  15.700   4.279
13121W        W81451  42.902  22.602   1.298
13122W        W81452  14.677  19.079   4.212
13123W        W81453  22.672   1.356  14.806
13124W        W81454  18.649  37.948   4.819
13125W        W81455  27.648  41.978  12.831
13126W        W81456  26.012  36.355  12.983
13127W        W81457   1.828  10.384  10.949
13128W        W81458   7.336  17.595   2.311
13129W        W81459  44.442   8.215   2.392
13130W        W81460   8.817   0.772  10.639
13131W        W81461  31.952   2.403   4.703
13132W        W81462  22.189  21.155   0.264
13133W        W81463  38.426  33.491  11.486
13134W        W81464   4.358   8.758  10.542
13135W        W81465  38.987   5.230   0.818
13136W        W81466  34.509   6.261   2.713
13137W        W81467  21.565  35.971  11.060
13138W        W81468  39.899  42.460   0.410
13139W        W81469   1.436  26.525  14.501
13140W        W81470  27.183  34.509  13.887
13141W        W81471  17.648  42.018   2.237
13142W        W81472  32.031  10.171   3.273
13143W        W81473  24.610   8.771   3.191
13144W        W81474  19.233  24.509   2.193
13145W        W81475  32.630  12.643   4.707
13146W        W81476  19.067   1.479   3.706
13147W        W81477  37.411   8.686   0.393
13148W        W81478  18.565  10.333  13.875
13149W        W81479  40.940  44.360   2.330
13150W        W81480  18.263   9.684  13.993
13151W        W81481  26.644  19.596  10.518
13152W        W81482  23.176  26.559  13.462
13153W        W81483  17.781  24.200   3.800
13154W        W81484  16.705  29.615  12.486
13155W        W81485   5.361  22.048   0.945
13156W        W81486   1.919  35.575   1.275
13157W        W81487   0.407  26.155  10.553
13158W        W81488  25.595   4.816  11.508
13159W        W81489  18.070  27.636  10.994
13160W        W81490  11.845  16.088   0.262
13161W        W81491  25.483  24.661   4.599
13162W        W81492  13.118  12.296   0.909
13163W        W81493  17.627  28.463   1.856
13164W        W81494  24.180  31.058   1.375
13165W        W81495  12.671  27.055   0.825
13166W        W81496  35.072  11.773   3.807
13167W        W81497   6.760  36.046  12.469
13168W        W81498  40.487  42.503   4.813
13169W        W81499   2.399  19.172   3.840
13170W        W81500   4.925  24.513   3.635
13171W        W81501  35.864  39.918  10.489
13172W        W81502  29.964  15.103  13.471
13173W        W81503   9.220  21.749  13.487
13174W        W81504  37.870  22.609   0.774
13175W        W81505  33.096  17.782  10.935
13176W        W81506  24.984  13.610   3.861
13177W        W81507  17.756  44.376   2.291
13178W        W81508   0.952   6.365   3.363
13179W        W81509  42.863  15.705  14.894
13180W        W81510  11.348  21.544   2.783
13181W        W81511   2.892  44.883   3.264
13182W        W81512  18.600  43.767   4.597
13183W        W81513  26.001  15.107   3.325
13184W        W81514  21.068  23.004  12.539
13185W        W81515  17.119  20.716  14.416
13186W        W81516  20.570  12.140  14.491
13187W        W81517  25.113  10.753  11.610
13188W        W81518  32.583  18.735  13.878
13189W        W81519  22.150  17.658  10.529
13190W        W81520  43.863  17.067   2.719
13191W        W81521  19.088   0.931  13.449
13192W        W81522  17.153  38.466   3.261
13193W        W81523  28.009  27.507   1.805
13194W        W81524  17.276  35.421   3.177
13195W        W81525   5.741  17.202  12.400
13196W        W81526  29.049   5.253   2.668
13197W        W81527  24.024  14.696  13.860
13198W        W81528   1.479   5.298   4.276
13199W        W81529  16.096  19.757  14.921
13200W        W81530  10.793  40.506   3.377
13201W        W81531   0.366  14.740   0.898
13202W        W81532  27.586  23.577   0.921
13203W        W81533  11.677  14.206  14.989
13204W        W81534  18.557  16.129  13.530
13205W        W81535  40.966   2.374  12.413
13206W        W81536  21.564   4.256  13.361
13207W        W81537  10.831  23.573   1.302
13208W        W81538  23.056  30.926   3.344
13209W        W81539   1.809   8.769  14.797
13210W        W81540  27.182  24.998   3.231
13211W        W81541   5.360   4.918   0.484
13212W        W81542   3.771   7.187  12.411
13213W        W81543  13.743  24.621  13.391
13214W        W81544  34.957  38.888   3.752
13215W        W81545  43.460   2.862   4.279
13216W        W81546  18.662  42.389  10.632
13217W        W81547  12.237  36.926  14.375
13218W        W81548  41.002   2.269   3.200
13219W        W81549  33.082  25.205   3.357
13220W        W81550   6.745  20.037  14.948
13221W        W81551   4.242   4.282  14.973
13222W        W81552  31.507  17.574  13.973
13223W        W81553   6.721  30.950   4.817
13224W        W81554  20.532   1.429  10.599
13225W        W81555  16.232  14.772  14.410
13226W        W81556  31.560  21.636   5.729
13227W        W81557  40.822  35.477   2.351
13228W        W81558  19.596  24.708  11.522
13229W        W81559  18.740  20.206   1.317
13230W        W81560  14.665  42.349  13.394
13231W        W81561  16.099  42.800   5.293
13232W        W81562   7.212  14.255   0.319
13233W        W81563  18.675   3.292   3.377
13234W        W81564  14.326  42.002  11.469
13235W        W81565   9.805  35.029  14.793
13236W        W81566  42.439  30.576  12.429
13237W        W81567  37.368  28.588  11.012
13238W        W81568  11.344  24.629   2.340
13239W        W81569   5.728  36.015  13.916
13240W        W81570  40.424  12.150   3.659
13241W        W81571   5.351  19.278   0.432
13242W        W81572  27.452  38.073  14.515
13243W        W81573  44.966  27.493   1.773
13244W        W81574   1.364  33.900  13.988
13245W        W81575  13.256  39.428   4.139
13246W        W81576  21.239  12.232   0.911
13247W        W81577   9.154  40.909  12.882
13248W        W81578   2.862  35.531  14.887
13249W        W81579  13.767  29.054   4.748
13250W        W81580  43.862  44.364   4.651
13251W        W81581  35.076  39.339   1.402
13252W        W81582  29.016  20.245  12.425
13253W        W81583  24.068  24.549   0.731
13254W        W81584   6.739  38.383  13.451
13255W        W81585  39.969  38.838   3.670
13256W        W81586  31.145  18.745   2.356
13257W        W81587  37.008  28.081  13.967
13258W        W81588  30.507  33.905  11.390
13259W        W81589   6.897  34.987  14.845
13260W        W81590   2.361  20.244  12.002
13261W        W81591  30.485  41.503   3.675
13262W        W81592  37.376  20.210   3.186
13263W        W81593  25.688  27.566  12.410
13264W        W81594  38.478  11.677   4.227
13265W        W81595   4.891   6.246  12.973
13266W        W81596  12.230  26.083   2.855
13267W        W81597  24.175  18.163  10.496
13268W        W81598  37.378  44.782  13.467
13269W        W81599   2.900  38.060  11.510
13270W        W81600   3.810  18.668  11.102
13271W        W81601  24.091  24.621   2.716
13272W        W81602   9.716   8.340  11.509
13273W        W81603  28.114  19.561  11.533
13274W        W81604  25.105  10.868   9.964
13275W        W81605  40.320  12.839  11.080
13276W        W81606  23.178   0.433  13.516
13277W        W81607  39.889  32.091   4.244
13278W        W81608   6.209  36.967   2.216
13279W        W81609   5.839  10.724  12.387
13280W        W81610  34.984  27.058   4.804
13281W        W81611   1.788  33.457  12.869
13282W        W81612  28.941  42.865   2.307
13283W        W81613  24.976  23.694  13.002
13284W        W81614  40.891  39.932  13.390
13285W        W81615  22.641   3.848  12.083
13286W        W81616  15.317  30.034  13.795
13287W        W81617  19.747  43.918   0.756
13288W        W81618   0.402  40.010   1.813
13289W        W81619   2.947  20.591  11.573
13290W        W81620  10.836  30.509   1.864
13291W        W81621  23.146   8.379   3.249
13292W        W81622  20.682  20.156  11.509
13293W        W81623   9.212  14.620  11.886
13294W        W81624   5.429  23.012   2.874
13295W        W81625  36.009  39.481  10.974
13296W        W81626  33.435  32.961  12.052
13297W        W81627  13.779  32.963  11.603
13298W        W81628  19.207  13.240  14.459
13299W        W81629  39.918  13.675  11.998
13300W        W81630  30.133  39.434   1.768
13301W        W81631  28.972  15.156  11.900
13302W        W81632  35.598  33.108   4.732
13303W        W81633  34.093  14.634  12.498
13304W        W81634  19.670  20.629   4.697
13305W        W81635  14.692   2.358   3.837
13306W        W81636   7.201  29.973  12.868
13307W        W81637  30.157  35.106  12.920
13308W        W81638  34.547  19.277   0.305
13309W        W81639  16.655  30.930   2.393
13310W        W81640  31.530  36.586  13.449
13311W        W81641  11.281  25.978  11.059
13312W        W81642  35.519  18.194  13.873
13313W        W81643  34.549   1.258  14.889
13314W        W81644  38.974  32.892   0.321
13315W        W81645   4.415  10.243  11.445
13316W        W81646  16.693  27.115  11.516
13317W        W81647  42.440  43.372  14.898
13318W        W81648  27.996  28.979   1.224
13319W        W81649  13.778  27.622  13.520
13320W        W81650   8.752  15.804   0.483
13321W        W81651   9.678  38.457   2.841
13322W        W81652  33.496   4.377   3.358
13323W        W81653  28.647  22.112   4.264
13324W        W81654  17.128  20.068   0.780
13325W        W81655  36.082  41.018   0.323
13326W        W81656  29.953  25.082   3.805
13327W        W81657  30.630  20.159  10.935
13328W        W81658   6.704  18.630  10.894
13329W        W81659  41.941  37.439   2.302
13330W        W81660  32.608  17.592   2.863
13331W        W81661  38.992  15.166   4.224
13332W        W81662  11.653  36.981   3.242
13333W        W81663  14.771  44.462  14.984
13334W        W81664  40.863  10.258   0.905
13335W        W81665  15.242  44.494   1.864
13336W        W81666   0.308   2.336  13.941
13337W        W81667  40.438  44.394   1.798
13338W        W81668  13.647  18.562   3.160
13339W        W81669   8.342  44.486  14.979
13340W        W81670  22.149  36.358  12.978
13341W        W81671  30.920  13.752   1.245
13342W        W81672  36.093  35.435   4.317
13343W        W81673   9.301   5.689  11.887
13344W        W81674  44.273  11.140  11.917
13345W        W81675   6.402  39.047  12.075
13346W        W81676  27.154   0.309   0.901
13347W        W81677  44.905  27.463  10.606
13348W        W81678  24.205  28.449  13.994
13349W        W81679  25.647  41.448  12.552
13350W        W81680  31.053  12.853  11.461
13351W        W81681  26.558  37.047  13.355
13352W        W81682  35.081  42.472   3.776
13353W        W81683  25.989  21.591  11.560
13354W        W81684  31.610  37.867   3.756
13355W        W81685  21.071  39.824   0.857
13356W        W81686  33.411  29.045  13.888
13357W        W81687   2.779  16.086   0.270
13358W        W81688   4.859  42.030   3.346
13359W        W81689  19.727  19.725   0.319
13360W        W81690  42.865  29.638   1.744
13361W        W81691  36.504  24.705   0.785
13362W        W81692  41.994  13.178  11.584
13363W        W81693  42.373  12.718   3.339
13364W        W81694  43.497   2.355  11.431
13365W        W81695  10.737  31.460   2.301
13366W        W81696  40.012   6.334   3.828
13367W        W81697   5.792  39.430  12.882
13368W        W81698  11.725   9.710  12.450
13369W        W81699  38.355  10.141  10.897
13370W        W81700   4.944  17.148  14.778
13371W        W81701   5.234  12.818   4.278
13372W        W81702  23.109  44.921  12.988
13373W        W81703  26.587  22.676   1.919
13374W        W81704  38.912  10.302   2.235
13375W        W81705  29.067  11.864   1.410
13376W        W81706  35.969  33.067  11.871
13377W        W81707   1.425  42.796   3.650
13378W        W81708  39.024  33.485   0.441
13379W        W81709  19.123  25.562   0.318
13380W        W81710  14.756  13.844   3.843
13381W        W81711  17.231  36.948   9.956
13382W        W81712  22.106  41.895   3.749
13383W        W81713   4.315  26.555   4.203
13384W        W81714  17.249  35.527  12.466
13385W        W81715  18.105  39.409  12.899
13386W        W81716  21.531  27.446   5.595
13387W        W81717  36.975  22.213  13.951
13388W        W81718  10.167  29.563   1.793
13389W        W81719  22.685  11.339  14.994
13390W        W81720  24.170  17.297   0.824
13391W        W81721   0.895   6.793   4.663
13392W        W81722  36.561  28.669  11.434
13393W        W81723  42.787  36.421   2.280
13394W        W81724   5.252  44.297   2.413
13395W        W81725   4.292  23.061  11.996
13396W        W81726  43.856   9.645   2.238
13397W        W81727  25.648  26.979  14.763
13398W        W81728  22.624  27.074  10.985
13399W        W81729  15.260   1.941  12.359
13400W        W81730  29.027   0.818  10.462
13401W        W81731  31.639  37.923  13.975
13402W        W81732  26.534  38.545   3.663
13403W        W81733   5.704  18.629   4.678
13404W        W81734  42.366  38.455   2.744
13405W        W81735  29.436  23.087   2.771
13406W        W81736  18.059  11.805   4.141
13407W        W81737  38.076  13.624   2.193
13408W        W81738  36.495   3.314  14.302
13409W        W81739   6.298  15.246   4.797
13410W        W81740  39.469  22.667   2.255
13411W        W81741  16.664  31.639   2.744
13412W        W81742  38.404  37.069  10.592
13413W        W81743  41.016   0.899  10.972
13414W        W81744  14.723  13.186  12.361
13415W        W81745  23.529   0.806  11.037
13416W        W81746  40.011   5.380  13.391
13417W        W81747  22.710  29.607  12.414
13418W        W81748  23.126  34.904   1.292
13419W        W81749  31.471   6.373   2.313
13420W        W81750   6.405  20.047   1.360
13421W        W81751  29.104  20.173  14.285
13422W        W81752  13.290  30.585  13.871
13423W        W81753  39.495   2.754   1.704
13424W        W81754  35.931  29.525  14.277
13425W        W81755  14.161   3.711  14.452
13426W        W81756  18.091   7.404  10.641
13427W        W81757  23.515  15.714  14.352
13428W        W81758  40.377  34.566  13.526
13429W        W81759  18.615  15.322  10.614
13430W        W81760   5.302  14.257  14.921
13431W        W81761  29.995  31.104   1.760
13432W        W81762  33.527  44.878   3.202
13433W        W81763  15.317  34.578  13.353
13434W        W81764   7.721   5.862   3.353
13435W        W81765  22.708  13.722   3.291
13436W        W81766  33.977  41.913   4.216
13437W        W81767  31.641  38.339  10.471
13438W        W81768   6.877  25.066   0.408
13439W        W81769  28.488  22.685  11.550
13440W        W81770  26.667  35.552  12.909
13441W        W81771  19.192   0.890   4.317
13442W        W81772  41.028  18.623  14.963
13443W        W81773  27.110  28.647   1.257
13444W        W81774  26.102  44.850   0.314
13445W        W81775  35.898   9.708  14.309
13446W        W81776   0.420  27.110   4.693
13447W        W81777   7.327  39.511   0.775
13448W        W81778  31.984   5.405   3.255
13449W        W81779  25.498   8.766   2.297
13450W        W81780   8.860  32.958   4.703
13451W        W81781  17.653   5.902  13.415
13452W        W81782  16.145  43.899   4.692
13453W        W81783  34.056  14.809   4.640
13454W        W81784   6.382   6.357  12.084
13455W        W81785  14.226  35.899   2.751
13456W        W81786  43.463  17.158   1.807
13457W        W81787  43.467  42.391  14.950
13458W        W81788  31.502  18.622   1.813
13459W        W81789  25.705  43.980   4.231
13460W        W81790  28.593   6.881  14.939
13461W        W81791  41.006   8.775  14.514
13462W        W81792  39.432  16.569   4.207
13463W        W81793  33.885   2.371  12.077
13464W        W81794  33.095  28.617  14.020
13465W        W81795   4.814  42.293   1.797
13466W        W81796  22.602   6.884  11.894
13467W        W81797  38.491  18.146  11.046
13468W        W81798  12.240   0.749   3.844
13469W        W81799  25.651  14.158   2.215
13470W        W81800  37.460  43.793   3.834
13471W        W81801  32.412  30.957   1.719
13472W        W81802  20.727  14.804  11.495
13473W        W81803  39.040  36.070  13.387
13474W        W81804  21.643  20.142   4.761
13475W        W81805  33.938  26.144   4.804
13476W        W81806  40.439   0.795   4.764
13477W        W81807  21.115  32.457  13.454
13478W        W81808   0.849  40.903  12.975
13479W        W81809  22.607  27.618  13.472
13480W        W81810   2.327  16.730  13.915
13481W        W81811  40.855  21.054   1.914
13482W        W81812   9.843  16.239  12.854
13483W        W81813  18.549  23.238  10.566
13484W        W81814  43.348   8.805  14.025
13485W        W81815  34.095  31.533   4.733
13486W        W81816  24.172  17.770  13.362
13487W        W81817  36.489  23.239  13.470
13488W        W81818   8.370  39.063  12.456
13489W        W81819  29.444  12.734   0.264
13490W        W81820  22.744   8.679  13.375
13491W        W81821  42.812   4.251   1.751
13492W        W81822  25.111  22.213  11.942
13493W        W81823  17.154  37.962   4.820
13494W        W81824  27.157  28.507   3.763
13495W        W81825  37.919  34.906  11.863
13496W        W81826  34.380  11.278   4.255
13497W        W81827   0.813  34.529   0.433
13498W        W81828   2.470  26.607   4.331
13499W        W81829  23.053  35.453  11.515
13500W        W81830   4.775  14.226  12.507
13501W        W81831  37.013  33.394  13.058
13502W        W81832  34.881  11.337   0.900
13503W        W81833   9.236   8.856   2.345
13504W        W81834  25.102  11.146   3.854
13505W        W81835  14.313  22.206  11.007
13506W        W81836  31.064  10.322   3.843
13507W        W81837  16.721  27.056   4.325
13508W        W81838   8.285  29.129   2.710
13509W        W81839  16.770  17.607  14.809
13510W        W81840  12.660   8.347  10.959
13511W        W81841  23.106  39.941  11.938
13512W        W81842  39.035  23.167  10.995
13513W        W81843   4.924  39.331  11.997
13514W        W81844  10.179   2.829  13.893
13515W        W81845   7.344  29.470  14.862
13516W        W81846  36.365  21.111  11.479
13517W        W81847  38.823  44.430   3.644
13518W        W81848  17.261  44.492   3.792
13519W        W81849  22.533   1.900  13.857
13520W        W81850   4.294  17.751   2.808
13521W        W81851  22.648  22.590  11.122
13522W        W81852   1.836  20.614  13.827
13523W        W81853  36.447  16.807   3.320
13524W        W81854  13.799  40.928  14.987
13525W        W81855   8.328  15.205  13.513
13526W        W81856   7.216  42.839  12.028
13527W        W81857  38.855  35.535   3.356
13528W        W81858   5.778  31.580  14.319
13529W        W81859  29.434   5.234   4.141
13530W        W81860  25.118  16.751   1.749
13531W        W81861  34.529  33.523   1.711
13532W        W81862  31.002  35.576  14.429
13533W        W81863  34.590  41.395  12.481
13534W        W81864   2.344   9.880  14.015
13535W        W81865  11.655  24.620   0.771
13536W        W81866  16.687   2.960  12.092
13537W        W81867  15.620  19.561   1.897
13538W        W81868  19.629   1.260  14.337
13539W        W81869  29.611  22.046   2.226
13540W        W81870  19.066  18.261  12.867
13541W        W81871  36.895  42.890   0.343
13542W        W81872  30.045  38.518  10.600
13543W        W81873  18.752  42.855   3.159
13544W        W81874   2.727  39.984  11.037
13545W        W81875  17.110  25.496   5.160
13546W        W81876  15.302  44.289  13.403
13547W        W81877  17.779  14.708   2.779
13548W        W81878   2.368  16.630   0.332
13549W        W81879   0.977  31.020   4.233
13550W        W81880  30.986  18.266   1.265
13551W        W81881  11.630  41.330  12.838
13552W        W81882  30.571  40.525   2.747
13553W        W81883   8.702  41.424   4.212
13554W        W81884  37.061   2.360  10.623
13555W        W81885  17.265  43.419  13.836
13556W        W81886   4.339  34.556  13.010
13557W        W81887   7.905  35.462  11.957
13558W        W81888  42.838  29.982   1.856
13559W        W81889   3.854  38.430  11.069
13560W        W81890  27.568  33.912   0.926
13561W        W81891  35.097  40.017  12.506
13562W        W81892  34.869  15.131  13.799
13563W        W81893  38.010   7.326   0.845
13564W        W81894  15.673  15.123  13.979
13565W        W81895  22.658  41.899  13.036
13566W        W81896  27.634   5.808   0.923
13567W        W81897  14.753  35.024   4.720
13568W        W81898  14.650   3.781  11.474
13569W        W81899  10.688  44.300   1.434
13570W        W81900  27.453  36.394  13.985
13571W        W81901  31.065  16.247  13.007
13572W        W81902  44.400  44.372   1.725
13573W        W81903  16.299  15.581   1.767
13574W        W81904  36.527   6.678  12.427
13575W        W81905  34.987   8.808  11.456
13576W        W81906  36.857  42.421   1.372
13577W        W81907   1.964  19.575   1.724
13578W        W81908   7.745  16.239   0.472
13579W        W81909   9.323  10.774   1.431
13580W        W81910  17.680   5.780   0.910
13581W        W81911  13.216  30.601  11.010
13582W        W81912  17.762  23.609   2.763
13583W        W81913  12.140  20.041   3.188
13584W        W81914  26.163  37.995   0.325
13585W        W81915  31.949  25.129  10.983
13586W        W81916  33.877  37.569  10.617
13587W        W81917  10.262  24.619  11.891
13588W        W81918  42.959  24.982   2.810
13589W        W81919  11.696  30.967  11.540
13590W        W81920  31.420   0.988   2.184
13591W        W81921  44.259  36.958  13.362
13592W        W81922  34.865  24.527   0.332
13593W        W81923  38.983  43.014   2.702
13594W        W81924   3.267  10.341  13.318
13595W        W81925  16.170   0.365  14.285
13596W        W81926  14.161   3.856  12.421
13597W        W81927  44.484   9.700   4.688
13598W        W81928   1.909   5.212  11.592
13599W        W81929  32.999  14.771  11.562
13600W        W81930  39.431  24.995   0.444
13601W        W81931  33.584  37.850  11.117
13602W        W81932  30.007  22.125  10.969
13603W        W81933  11.785  11.202   4.789
13604W        W81934   4.381  41.788  10.524
13605W        W81935  17.148  26.505  14.993
13606W        W81936  44.757   0.362   4.708
13607W        W81937  41.422  35.375  11.571
13608W        W81938  11.277  11.851   4.753
13609W        W81939   3.900  23.100   0.325
13610W        W81940  23.604  12.770   1.915
13611W        W81941  11.671  34.534  12.055
13612W        W81942  23.153  38.451  14.841
13613W        W81943   9.733   9.357   4.656
13614W        W81944  24.586  39.468   2.390
13615W        W81945  11.849   6.747  11.417
13616W        W81946  37.938   6.327   2.869
13617W        W81947  22.078  23.592   2.296
13618W        W81948  21.635  36.346  10.628
13619W        W81949  30.509  39.319  11.937
13620W        W81950  24.541  21.232  12.954
13621W        W81951  31.464  26.019  13.966
13622W        W81952  16.731  26.530  12.036
13623W        W81953   6.808  42.856  12.357
13624W        W81954  34.020   3.928   3.785
13625W        W81955  26.494  38.462   1.295
13626W        W81956  34.045  44.498   4.226
13627W        W81957  39.414  39.545  13.810
13628W        W81958   6.267  18.692   2.778
13629W        W81959  34.424  14.819   2.771
13630W        W81960  35.076   6.816  10.958
13631W        W81961  44.852  10.870   3.797
13632W        W81962   1.262  11.693   4.750
13633W        W81963  38.451   6.823  10.911
13634W        W81964   4.885  41.957  13.054
13635W        W81965  40.331  23.649  13.458
13636W        W81966  21.092  25.487  14.896
13637W        W81967  25.668  33.438  12.540
13638W        W81968  12.783  21.205   4.597
13639W        W81969   7.181  12.801   1.302
13640W        W81970  38.535  15.679   2.307
13641W        W81971   1.417  30.595   4.689
13642W        W81972  32.944  31.906   2.380
13643W        W81973   1.250  16.701   3.808
13644W        W81974  11.161  16.756   0.758
13645W        W81975  30.462  13.674  13.851
13646W        W81976  37.345  11.218  12.022
13647W        W81977  17.099  32.392   2.350
13648W        W81978   8.868  42.281   3.755
13649W        W81979  35.461  28.496   2.834
13650W        W81980  34.988  15.713   4.132
13651W        W81981   3.780  25.176   3.250
13652W        W81982  42.355   8.259  10.599
13653W        W81983  36.591  33.442  11.902
13654W        W81984   5.348  35.929  11.897
13655W        W81985  34.066   5.403   2.720
13656W        W81986  29.572  25.201   4.658
13657W        W81987  27.650  25.148   2.778
13658W        W81988   2.771   9.282  12.509
13659W        W81989  20.229  37.958   0.313
13660W        W81990  21.197  18.263  12.457
13661W        W81991   6.312   8.772  14.451
13662W        W81992  38.063  20.538   1.379
13663W        W81993  40.962  27.079  12.862
13664W        W81994  25.680  40.878   4.665
13665W        W81995  23.087  14.196  11.420
13666W        W81996   7.412  10.365  13.938
13667W        W81997  10.356  11.847  14.462
13668W        W81998  35.583  16.272  10.459
13669W        W81999  24.670  33.905  10.925
13670W        W82000  36.367  23.543   2.395
13671W        W82001   3.844  40.389   2.239
13672W        W82002  39.456   2.908   1.258
13673W        W82003  44.960  13.656  12.543
13674W        W82004  36.408  15.785  13.910
13675W        W82005  38.051  29.633  14.318
13676W        W82006  40.955  32.476  10.961
13677W        W82007  23.153   8.656   4.310
13678W        W82008  22.543  36.528  12.455
13679W        W82009  34.576   5.818  12.857
13680W        W82010  22.541   2.775   1.277
13681W        W82011  20.683  40.000  14.287
13682W        W82012  42.820  12.293  13.407
13683W        W82013  27.460   2.765  12.029
13684W        W82014  26.593  11.327  10.971
13685W        W82015   0.768   9.841   2.334
13686W        W82016  37.528  32.929   0.458
13687W        W82017   4.811  14.653  14.491
13688W        W82018  40.503  32.064  11.950
13689W        W82019  15.197  39.910  13.052
13690W        W82020  16.619  22.669   2.227
13691W        W82021  23.136  26.662  11.492
13692W        W82022  11.845   8.697  13.034
13693W        W82023  29.926  44.821  13.037
13694W        W82024  38.054  43.282  12.344
13695W        W82025  18.121   4.353  14.333
13696W        W82026  19.777  43.482   0.844
13697W        W82027  17.179   4.786  14.295
13698W        W82028  23.141  29.148  10.000
13699W        W82029  21.053  36.057  11.570
13700W        W82030  26.518  16.570   3.795
13701W        W82031  14.152  13.328   0.914
13702W        W82032  12.295   4.241   4.639
13703W        W82033  13.346   6.818   4.212
13704W        W82034  23.544   9.299  14.983
13705W        W82035   0.314  22.620  13.984
13706W        W82036  19.069  27.997   1.871
13707W        W82037  29.111  29.992  13.526
13708W        W82038  28.016   2.428   1.906
13709W        W82039   4.790   2.299   3.790
13710W        W82040   0.855   2.806   3.835
13711W        W82041  23.230   4.740   3.170
13712W        W82042  33.616  22.660  14.388
13713W        W82043   8.655  40.381  13.334
13714W        W82044  38.960  22.232  14.944
13715W        W82045  22.505  37.410   4.186
13716W        W82046  42.786  35.065   0.925
13717W        W82047  16.277   0.847   4.692
13718W        W82048  21.032  12.703  10.950
13719W        W82049  12.223   3.371  10.456
13720W        W82050   1.440  36.532   3.757
13721W        W82051  18.702   5.885  13.435
13722W        W82052  40.857  40.528  11.041
13723W        W82053  24.627   3.353  13.795
13724W        W82054   0.759  42.939   0.792
13725W        W82055   3.885  37.976   2.405
13726W        W82056  33.429  16.683  12.403
13727W        W82057  25.995  34.442   3.363
13728W        W82058  18.076   5.909   3.660
13729W        W82059  14.295  23.730   3.841
13730W        W82060  19.778  41.014  11.484
13731W        W82061  39.032  10.164   0.765
13732W        W82062  22.036   7.403   3.363
13733W        W82063  41.844  37.388  13.420
13734W        W82064   0.821  41.530   2.805
13735W        W82065  15.686  31.575   0.347
13736W        W82066  10.777  35.028   3.268
13737W        W82067   3.342  40.438  13.016
13738W        W82068  44.916   4.923   2.248
13739W        W82069  42.914  35.440  10.894
13740W        W82070   7.676   1.315  13.415
13741W        W82071  26.099   2.857  11.429
13742W        W82072  38.051  29.571   2.745
13743W        W82073  15.608  35.377  11.044
13744W        W82074  29.489  29.112   2.287
13745W        W82075   5.899   7.740  11.991
13746W        W82076   2.808   4.750   0.284
13747W        W82077   0.856  36.063   2.890
13748W        W82078  32.958   6.831   2.229
13749W        W82079   2.430  42.302   4.650
13750W        W82080  23.128  20.643  12.883
13751W        W82081  40.035  12.857  11.532
13752W        W82082   1.792  34.534   1.283
13753W        W82083   2.896   5.201   4.805
13754W        W82084   6.393  29.003  14.378
13755W        W82085  20.201  33.441   4.287
13756W        W82086  23.084  38.918   0.755
13757W        W82087   3.829  33.431  12.527
13758W        W82088   3.895  12.215  11.983
13759W        W82089  32.141  32.914  11.046
13760W        W82090  40.998   5.847   2.876
13761W        W82091  13.168  11.655   0.810
13762W        W82092  12.356  19.194   0.388
13763W        W82093  38.960  41.448  11.452
13764W        W82094  18.229  31.913   2.699
13765W        W82095  19.202  17.648   0.894
13766W        W82096  21.602  26.964  13.056
13767W        W82097  36.484  29.564   1.403
13768W        W82098   6.715  14.233   4.227
13769W        W82099  26.206  23.014  14.310
13770W        W82100   8.675  29.447  10.959
13771W        W82101  20.174  32.458  10.964
13772W        W82102  35.475   9.391  10.993
13773W        W82103  25.709   7.215  12.580
13774W        W82104  16.780  36.348  12.053
13775W        W82105  30.149   5.909  10.499
13776W        W82106  36.934  19.263   0.327
13777W        W82107  44.282  20.572   0.804
13778W        W82108  26.466  38.014   4.804
13779W        W82109  34.054  27.647   0.923
13780W        W82110  29.159  14.147  12.488
13781W        W82111  33.103  30.420   3.273
13782W        W82112   1.910   1.841   0.434
13783W        W82113  33.606   3.927  10.495
13784W        W82114  19.236  25.483   3.287
13785W        W82115  22.253  16.576   2.374
13786W        W82116  41.994   9.674   2.192
13787W        W82117   3.336   9.664  13.382
13788W        W82118  39.456  28.085   0.864
13789W        W82119   3.266  44.389   2.861
13790W        W82120  20.148  44.872   2.372
13791W        W82121  35.960  30.979  11.031
13792W        W82122  11.632  15.134   2.354
13793W        W82123  41.491  22.653   3.727
13794W        W82124  13.199  34.565   9.986
13795W        W82125  16.655  12.266   0.889
13796W        W82126  30.565  34.060   3.157
13797W        W82127  25.157  21.187   1.238
13798W        W82128  11.717   6.857   1.822
13799W        W82129  27.467  16.701  11.408
13800W        W82130   6.676   7.274   2.335
13801W        W82131   0.917  26.694  11.886
13802W        W82132  35.025  13.822   1.403
13803W        W82133   2.845   1.850  12.548
13804W        W82134  13.182  40.016  13.983
13805W        W82135  32.561  31.124  11.056
13806W        W82136  24.497  30.651  14.373
13807W        W82137  29.922  28.046   3.807
13808W        W82138  29.629  24.562  11.049
13809W        W82139  16.813  17.646   3.799
13810W        W82140  17.120   2.776   1.712
13811W        W82141  30.091   5.274  11.421
13812W        W82142   1.927  37.970  11.953
13813W        W82143  22.159   0.939  11.127
13814W        W82144  44.921   1.771   3.175
13815W        W82145  28.019  34.027  11.408
13816W        W82146  44.260  35.958   5.187
13817W        W82147  25.705  28.527  12.967
13818W        W82148  32.901  37.081  10.520
13819W        W82149  15.586  33.498  13.366
13820W        W82150  37.437   4.863  13.885
13821W        W82151  14.779  38.535   2.767
13822W        W82152   1.462  23.715   0.948
13823W        W82153  27.122  40.852  13.034
13824W        W82154  11.160   2.462  12.849
13825W        W82155  11.288   1.833   2.268
13826W        W82156  25.122  32.465   3.362
13827W        W82157   9.345   0.953  10.108
13828W        W82158  30.086   2.266   4.313
13829W        W82159  26.966  35.990   0.417
13830W        W82160  10.173  18.670   3.797
13831W        W82161  26.474   8.348   1.213
13832W        W82162  34.053  40.863  11.597
13833W        W82163   2.922  11.868  10.437
13834W        W82164   9.831  20.033  14.321
13835W        W82165  10.240  23.001  11.873
13836W        W82166  16.729  31.030   1.349
13837W        W82167  25.146  16.078  12.032
13838W        W82168  17.242  24.681  12.826
13839W        W82169  13.239   3.768  10.514
13840W        W82170  38.508  28.160  11.056
13841W        W82171  11.129  22.198  13.400
13842W        W82172  19.260  13.122   3.662
13843W        W82173  36.357  24.985  13.878
13844W        W82174   7.287  34.404   4.638
13845W        W82175  44.902  29.502   3.239
13846W        W82176  36.564   2.887  12.468
13847W        W82177   1.831  38.017   5.099
13848W        W82178  13.126  28.584   0.892
13849W        W82179  19.171   0.907  11.488
13850W        W82180  24.166  39.934   3.228
13851W        W82181  41.401  32.995   2.266
13852W        W82182  18.750  34.601  12.007
13853W        W82183   7.720   9.783  11.381
13854W        W82184  27.579  13.209   1.271
13855W        W82185  19.056  22.145  12.368
13856W        W82186   2.239  15.178   2.765
13857W        W82187  42.382  42.515  11.885
13858W        W82188  28.173  35.488  12.922
13859W        W82189  16.271  27.121   0.331
13860W        W82190   3.829   8.733  11.562
13861W        W82191   1.338   4.880  13.832
13862W        W82192  22.730   0.426  14.794
13863W        W82193  30.119   1.251  12.941
13864W        W82194  21.156  23.044   0.892
13865W        W82195  36.064  23.733   0.885
13866W        W82196   4.307   3.429  14.931
13867W        W82197   5.278  44.982  13.953
13868W        W82198   0.471   7.864   4.612
13869W        W82199  27.133  33.601  12.562
13870W        W82200  24.061  19.109   4.667
13871W        W82201   9.721  21.066   3.252
13872W        W82202  29.493   7.172   0.311
13873W        W82203   7.309  22.536   2.781
13874W        W82204  43.285  15.733  12.934
13875W        W82205  14.673   2.458  12.954
13876W        W82206  10.149   3.812   4.326
13877W        W82207  43.991  29.146   4.738
13878W        W82208   9.242  19.115  11.454
13879W        W82209   5.435  33.623   1.789
13880W        W82210  27.555  37.499   2.853
13881W        W82211  35.950  35.860   4.809
13882W        W82212  44.782  11.822   2.381
13883W        W82213  28.482  26.690  10.608
13884W        W82214  38.865  17.234  14.355
13885W        W82215  31.937   6.734   3.733
13886W        W82216  29.079  20.186   4.175
13887W        W82217  14.695   8.377   4.320
13888W        W82218  28.572  31.071  14.412
13889W        W82219  34.440   9.275   4.155
13890W        W82220   6.216   3.841   1.391
13891W        W82221  21.512   0.787   3.246
13892W        W82222  22.723  15.327  13.421
13893W        W82223  36.047   0.423  10.462
13894W        W82224  23.713   3.791   4.785
13895W        W82225   7.408   7.392  11.121
13896W        W82226  43.788  42.996  11.021
13897W        W82227  30.092  41.475   3.748
13898W        W82228  30.615  17.620  14.308
13899W        W82229  35.412  28.567  11.543
13900W        W82230  16.307  27.510   1.866
13901W        W82231  29.597  40.847   1.220
13902W        W82232   5.337  40.430  11.373
13903W        W82233  30.512  20.595  11.061
13904W        W82234   5.251   1.301   0.273
13905W        W82235  42.473  15.602  14.776
13906W        W82236   1.331  14.775   0.840
13907W        W82237  12.700  44.768   3.155
13908W        W82238   9.783   4.340   0.911
13909W        W82239  14.766  23.649   0.803
13910W        W82240  10.638  35.957  12.438
13911W        W82241  42.826   3.919  14.388
13912W        W82242  32.513  12.194   0.763
13913W        W82243  27.642  21.104   3.704
13914W        W82244  20.038   0.744   1.210
13915W        W82245  29.488  32.047  12.578
13916W        W82246  27.458  27.156  10.571
13917W        W82247  24.602  11.197   0.388
13918W        W82248  36.502  33.620  11.103
13919W        W82249  20.110  17.278   0.430
13920W        W82250  20.190  33.945   2.282
13921W        W82251  41.383   0.889   4.792
13922W        W82252  31.920  13.803  14.810
13923W        W82253  19.265   1.939  13.839
13924W        W82254  11.246  29.559   1.408
13925W        W82255   3.881  36.008   4.347
13926W        W82256  26.552  32.108   3.730
13927W        W82257   3.263  16.190  11.570
13928W        W82258  36.542  41.037  10.519
13929W        W82259   5.243   4.234   2.755
13930W        W82260  26.029  43.440   3.674
13931W        W82261   0.290  24.503  12.529
13932W        W82262  22.141  17.105   1.367
13933W        W82263  20.033   7.723  11.381
13934W        W82264  34.056  23.696   2.356
13935W        W82265  41.436  23.560  12.536
13936W        W82266   8.859  36.489  11.908
13937W        W82267  34.474  30.432  13.855
13938W        W82268  32.965   1.319  14.479
13939W        W82269  33.931  26.593   3.813
13940W        W82270  44.939  19.062  13.051
13941W        W82271   8.689   4.364   2.886
13942W        W82272  12.345  25.474   1.309
13943W        W82273   5.227  23.116   4.602
13944W        W82274   1.856  15.130  13.053
13945W        W82275   2.453   6.710   3.865
13946W        W82276  27.526  12.795  13.378
13947W        W82277   4.219  43.969  14.959
13948W        W82278  19.668  30.548  12.903
13949W        W82279  12.182  10.318   3.753
13950W        W82280   3.361   6.922   0.296
13951W        W82281   9.367  20.214  10.452
13952W        W82282  23.127  14.708   2.307
13953W        W82283  22.182  17.611  13.840
13954W        W82284   4.325   2.264  12.397
13955W        W82285  24.158  32.441   2.881
13956W        W82286  24.120  29.544   3.689
13957W        W82287   4.726  11.312   4.115
13958W        W82288  42.461  16.693   1.370
13959W        W82289   6.843  44.884  11.957
13960W        W82290   5.195  40.418  14.348
13961W        W82291  24.173  39.881   4.255
13962W        W82292   0.973  22.556   5.176
13963W        W82293  40.422  28.490   4.342
13964W        W82294   0.930  11.662  12.559
13965W        W82295  34.947  19.609  14.990
13966W        W82296  44.922  36.385  11.522
13967W        W82297  21.740  31.084   1.852
13968W        W82298  23.034  17.784   2.822
13969W        W82299  18.131  25.120  14.002
13970W        W82300  16.789  44.398  12.516
13971W        W82301   9.883  29.495   3.172
13972W        W82302  34.088   0.794   1.372
13973W        W82303   3.226  16.635  12.340
13974W        W82304  11.279  43.368  12.093
13975W        W82305  39.840  14.191  14.337
13976W        W82306  10.299  13.282   2.372
13977W        W82307  24.142   5.855   1.245
13978W        W82308  32.608  33.588   4.248
13979W        W82309  15.706  32.588   3.671
13980W        W82310  41.042  28.061   1.752
13981W        W82311   0.248  15.151   1.815
13982W        W82312  28.172  39.809   0.389
13983W        W82313   7.864  15.752  13.812
13984W        W82314   8.839  20.099  14.352
13985W        W82315  25.667  41.837   4.261
13986W        W82316  29.971  19.550   3.335
13987W        W82317  27.475  35.107   1.336
13988W        W82318  15.117  30.995   2.706
13989W        W82319  18.785  26.568   0.881
13990W        W82320   3.727  39.549   1.898
13991W        W82321  22.622  30.656  14.438
13992W        W82322   6.795   7.740  14.849
13993W        W82323  18.115  37.843   0.300
13994W        W82324  28.023  23.711   2.411
13995W        W82325  21.101  14.664   3.191
13996W        W82326  29.595   6.414  12.981
13997W        W82327   7.774  29.040   4.213
13998W        W82328  39.387  18.624   2.832
13999W        W82329  37.417  30.445   3.741
14000W        W82330  42.837  30.093  14.480
14001W        W82331   3.808   6.727  12.993
14002W        W82332  17.573  32.138  12.891
14003W        W82333  22.532  31.432   1.800
14004W        W82334  11.846  28.991   1.274
14005W        W82335  39.409  21.245   2.741
14006W        W82336  30.639  22.111  13.339
14007W        W82337  19.638  28.580   2.705
14008W        W82338  21.166   7.177   4.283
14009W        W82339   9.216  22.210  11.941
14010W        W82340  15.674  11.860  11.070
14011W        W82341  14.338   9.873   2.335
14012W        W82342  19.647   8.181   0.284
14013W        W82343  21.226  19.766  14.768
14014W        W82344  11.181  26.114  11.918
14015W        W82345  34.545  40.396   1.697
14016W        W82346   8.370  22.024  13.006
14017W        W82347   2.377  16.597  10.487
14018W        W82348  44.894  22.139  13.900
14019W        W82349   9.786  20.746   4.121
14020W        W82350  25.652  34.456  14.345
14021W        W82351   0.933  43.873   1.874
14022W        W82352  44.289  20.229  12.401
14023W        W82353  18.120  34.427   4.315
14024W        W82354  20.563  39.537   4.346
14025W        W82355  40.313  24.987   2.263
14026W        W82356  18.241  23.706  13.543
14027W        W82357  41.488   0.474  14.853
14028W        W82358  16.231  22.525  12.006
14029W        W82359  11.678  31.511   0.408
14030W        W82360  12.662  11.650  14.328
14031W        W82361  43.921  26.474  13.454
14032W        W82362  12.624  29.987   3.374
14033W        W82363  31.405  37.581   5.256
14034W        W82364  42.985   9.690   0.930
14035W        W82365  24.988   1.372   4.617
14036W        W82366  37.356  29.071   4.623
14037W        W82367  34.938  32.011  11.097
14038W        W82368  39.393  36.405  11.601
14039W        W82369  29.141   5.230   1.884
14040W        W82370  24.652  28.050  13.475
14041W        W82371  14.788  40.000   4.794
14042W        W82372  39.808  37.048  13.977
14043W        W82373  37.337  10.725  13.031
14044W        W82374   6.387  33.432  12.955
14045W        W82375   2.933   1.948   0.886
14046W        W82376   3.944   2.914   1.281
14047W        W82377   6.705   9.828   3.210
14048W        W82378  14.741   7.892   0.802
14049W        W82379  16.682  15.181   1.352
14050W        W82380  14.589  18.276  11.124
14051W        W82381  25.687  35.099   0.342
14052W        W82382  23.579  38.061   2.897
14053W        W82383  40.819   8.899  12.987
14054W        W82384   3.836  25.685  11.935
14055W        W82385  12.802  26.006  12.414
14056W        W82386  14.665   4.276   1.900
14057W        W82387   3.861   1.858   0.345
14058W        W82388   3.878   9.371  11.611
14059W        W82389  39.834  30.975  14.871
14060W        W82390   1.910  11.734  11.386
14061W        W82391  38.951  44.374  12.578
14062W        W82392  13.297  23.556  14.767
14063W        W82393  43.790  18.288   3.184
14064W        W82394   5.690  11.867  11.465
14065W        W82395   3.416  37.527   9.937
14066W        W82396  35.450  28.624   0.777
14067W        W82397  26.036  40.045   0.849
14068W        W82398  35.515  22.134   3.657
14069W        W82399   2.235  10.656  11.376
14070W        W82400  19.065  32.047  12.481
14071W        W82401  13.162  10.669  11.069
14072W        W82402  29.092  38.533  10.550
14073W        W82403   1.464  26.146  12.564
14074W        W82404  14.762  35.935  13.910
14075W        W82405   8.193   4.411   1.224
14076W        W82406  38.520  44.907  12.009
14077W        W82407  14.771  26.199   0.324
14078W        W82408  16.163  35.904   0.330
14079W        W82409  23.721  26.995   3.798
14080W        W82410  42.002   3.894   4.732
14081W        W82411   7.317  15.139  11.050
14082W        W82412   9.308  17.207  10.620
14083W        W82413  44.367  22.562   3.369
14084W        W82414  29.120  29.960   4.150
14085W        W82415  43.471   7.396   4.623
14086W        W82416   9.781  37.396  10.574
14087W        W82417  11.255   1.400  10.900
14088W        W82418  37.464  19.127   4.230
14089W        W82419  21.017  32.028   3.658
14090W        W82420  21.748  23.659   4.210
14091W        W82421  18.261  23.493   5.318
14092W        W82422  21.090  42.516   1.737
14093W        W82423  27.474   3.719   1.427
14094W        W82424  13.173   4.292  12.380
14095W        W82425  37.368  44.346   1.269
14096W        W82426  31.994   9.714  10.096
14097W        W82427  21.156  25.480   0.778
14098W        W82428  34.865  41.966   3.787
14099W        W82429  34.871   0.438  14.913
14100W        W82430  23.210  30.487  13.818
14101W        W82431  42.430  38.556   1.761
14102W        W82432  43.356   9.860   3.173
14103W        W82433   5.436  41.363   3.660
14104W        W82434  30.657  44.848  13.808
14105W        W82435  12.647  30.942  13.518
14106W        W82436  40.382  21.225   5.081
14107W        W82437  35.053  39.527   3.760
14108W        W82438   7.328  21.739   3.235
14109W        W82439   0.976  25.142  11.047
14110W        W82440  34.015   9.160   1.831
14111W        W82441  21.056  37.841  14.347
14112W        W82442  23.713  29.577  14.310
14113W        W82443  24.205  13.183   4.330
14114W        W82444  18.710   5.234   3.368
14115W        W82445   2.469  25.635  11.429
14116W        W82446   0.361   5.900  12.845
14117W        W82447  34.055  40.354   0.846
14118W        W82448   9.812  35.937  14.897
14119W        W82449  10.356   9.694  14.869
14120W        W82450  24.674  39.824   1.339
14121W        W82451   3.372  30.435  12.006
14122W        W82452  10.643  36.490  11.093
14123W        W82453  13.811  27.099  11.014
14124W        W82454  12.250  38.571   0.306
14125W        W82455  19.716  30.033  11.093
14126W        W82456  15.717  13.846   2.830
14127W        W82457  37.848  15.766  12.501
14128W        W82458   1.334  22.595   3.804
14129W        W82459  28.971  25.596   4.161
14130W        W82460   9.857  14.291   1.770
14131W        W82461  22.248  42.482  12.891
14132W        W82462  28.493  12.838  13.945
14133W        W82463  28.641  42.337  13.028
14134W        W82464  41.969  16.282   1.864
14135W        W82465   2.911  15.739   3.369
14136W        W82466  23.694   4.843   4.633
14137W        W82467  30.500  25.472  13.851
14138W        W82468   6.805  26.969   0.459
14139W        W82469  29.513  26.628  10.465
14140W        W82470   9.215   9.651  12.450
14141W        W82471  34.370  31.536   2.410
14142W        W82472  38.952  37.020  11.587
14143W        W82473  37.428   1.911   4.308
14144W        W82474  31.099  40.542   0.350
14145W        W82475   0.879  26.032  14.973
14146W        W82476   1.791   7.695   0.906
14147W        W82477  33.065   5.236  11.078
14148W        W82478  35.956  41.890  13.835
14149W        W82479  35.101   0.471   2.279
14150W        W82480  29.477  17.788   4.193
14151W        W82481  44.946  41.394  10.900
14152W        W82482   7.757  14.720  10.889
14153W        W82483  33.103   5.779   4.821
14154W        W82484  28.172  15.589   3.643
14155W        W82485  34.412   0.849   1.387
14156W        W82486  43.821  37.565  10.437
14157W        W82487  21.622  15.792   4.350
14158W        W82488  43.778  27.101   3.218
14159W        W82489  17.290  31.139   0.744
14160W        W82490   7.400  27.534  11.003
14161W        W82491   1.948  27.692  10.432
14162W        W82492  43.272  32.539   4.807
14163W        W82493  38.400  37.554  11.080
14164W        W82494  29.127  40.813   4.180
14165W        W82495  40.969   6.820   0.835
14166W        W82496  38.819  40.316   1.348
14167W        W82497  15.786  13.835   3.869
14168W        W82498  12.159  18.129   1.260
14169W        W82499  40.992  40.867  12.343
14170W        W82500  27.591  29.643   4.743
14171W        W82501  13.207  22.616   2.847
14172W        W82502   8.194  15.312  10.458
14173W        W82503   2.258  18.218  12.908
14174W        W82504  10.766  43.809  10.549
14175W        W82505  39.478  12.810  14.372
14176W        W82506  25.995  35.975  12.944
14177W        W82507  11.849   3.918  12.041
14178W        W82508  25.076  12.324   0.741
14179W        W82509  22.164  20.218  11.465
14180W        W82510  36.909  16.105  14.961
14181W        W82511   1.970   2.324   4.229
14182W        W82512  29.962  28.464  13.007
14183W        W82513  18.057   9.833   4.824
14184W        W82514  14.326  43.368  13.504
14185W        W82515  16.250  20.247  12.467
14186W        W82516  42.429   1.890  12.420
14187W        W82517   4.896  30.466  13.037
14188W        W82518   3.420  25.510  14.977
14189W        W82519  25.514  11.214  11.582
14190W        W82520   7.290  24.029  12.081
14191W        W82521  24.683  43.420   0.941
14192W        W82522  24.572  21.017  11.581
14193W        W82523  33.982  42.482   3.336
14194W        W82524  15.644  27.676  11.892
14195W        W82525   3.726  13.234  13.525
14196W        W82526   8.673  23.685  11.379
14197W        W82527  11.772  39.446  14.280
14198W        W82528   3.727  15.599  13.520
14199W        W82529  25.021   4.813   2.265
14200W        W82530  30.420   1.461  12.501
14201W        W82531  30.054   2.332  13.909
14202W        W82532  22.675  24.580   4.227
14203W        W82533  17.107  23.007  12.835
14204W        W82534  42.400  25.664  11.917
14205W        W82535   5.837  18.729   2.743
14206W        W82536  16.729  34.886  14.015
14207W        W82537  35.404  34.053   0.814
14208W        W82538  13.129  22.738   5.216
14209W        W82539  43.845  29.430  13.519
14210W        W82540  13.317   9.857   3.796
14211W        W82541  22.512  29.016   4.158
14212W        W82542  42.974  36.968  12.386
14213W        W82543   7.678  38.857   2.341
14214W        W82544   9.747  40.457  13.426
14215W        W82545  17.680   9.224  12.045
14216W        W82546  42.507  42.933   2.245
14217W        W82547   2.801   3.373   4.214
14218W        W82548   8.369  36.083  11.862
14219W        W82549   3.369  26.690  13.397
14220W        W82550  29.425   8.822   1.273
14221W        W82551  17.562  33.901   3.738
14222W        W82552  16.727   6.253  10.890
14223W        W82553  25.655  19.604   9.965
14224W        W82554  11.276  12.715  11.930
14225W        W82555  14.732  20.082  10.606
14226W        W82556  36.435  13.779  10.921
14227W        W82557   9.764  19.615  13.901
14228W        W82558  19.596   7.773   5.227
14229W        W82559   8.774  29.454   1.321
14230W        W82560  37.945  34.060   3.206
14231W        W82561   3.817   0.750   1.905
14232W        W82562  19.047  26.954  14.292
14233W        W82563   6.291  21.090  11.457
14234W        W82564  21.702  14.790  11.020
14235W        W82565  42.403  33.412  12.823
14236W        W82566  29.669  18.139  10.901
14237W        W82567  12.673  26.581  14.912
14238W        W82568  44.789  36.443   4.738
14239W        W82569  12.666  12.704  14.998
14240W        W82570  29.532  13.601   0.919
14241W        W82571  11.129   6.737  13.366
14242W        W82572  12.762  30.984  13.966
14243W        W82573   8.195  16.663   2.273
14244W        W82574   2.823  16.608  14.863
14245W        W82575  19.129   5.285   4.601
14246W        W82576  26.094  19.610  14.987
14247W        W82577  23.077  31.610  11.544
14248W        W82578  24.059   1.950  13.412
14249W        W82579  25.071  31.435  13.322
14250W        W82580  23.561  29.107  11.393
14251W        W82581  30.088   6.732   0.791
14252W        W82582  14.221  37.445  12.462
14253W        W82583  21.072  35.032   1.282
14254W        W82584  21.706  34.598  11.398
14255W        W82585  41.846  16.583   3.226
14256W        W82586   9.853  28.967   0.273
14257W        W82587  42.959  31.024  10.895
14258W        W82588  24.635  25.181   1.780
14259W        W82589  19.042   2.367  12.343
14260W        W82590  11.335   0.851   4.195
14261W        W82591  39.462   3.323  11.019
14262W        W82592  19.561  14.647  11.610
14263W        W82593  30.517  38.408   2.347
14264W        W82594  30.634  10.212  10.542
14265W        W82595   2.239  35.006   4.309
14266W        W82596   2.811  42.785  12.062
14267W        W82597   7.838  30.470   3.319
14268W        W82598  25.022  21.578  13.479
14269W        W82599  15.181   6.360  11.439
14270W        W82600   4.329  34.993   1.419
14271W        W82601  37.970  18.740   1.888
14272W        W82602   7.401  17.236   2.358
14273W        W82603  31.621  19.644  13.819
14274W        W82604  12.320  43.906  14.813
14275W        W82605  17.636   5.373  10.616
14276W        W82606  23.690  17.154  13.936
14277W        W82607  19.768  17.216   3.212
14278W        W82608  42.932   9.233   3.706
14279W        W82609  23.994   3.230   4.348
14280W        W82610  13.657  42.296   4.822
14281W        W82611   6.799  41.980  12.418
14282W        W82612  37.083  31.057  13.381
14283W        W82613   7.315  18.206   4.230
14284W        W82614  36.428  33.557  13.395
14285W        W82615   7.219  11.651   2.687
14286W        W82616  12.637  34.985   0.465
14287W        W82617  18.603  43.394   4.276
14288W        W82618   0.279  39.324  13.310
14289W        W82619  10.663  21.659  12.885
14290W        W82620  39.846  35.936  11.104
14291W        W82621  34.038   9.848  10.898
14292W        W82622  33.075  33.060  12.020
14293W        W82623  30.035  34.386   1.918
14294W        W82624  42.526  19.123   4.743
14295W        W82625  16.618  21.136  13.033
14296W        W82626  19.662  34.894   1.259
14297W        W82627  33.544  33.518   4.744
14298W        W82628  37.395  28.981  14.879
14299W        W82629  16.812  25.017  12.839
14300W        W82630   3.847  24.212  13.938
14301W        W82631  35.949  14.659   2.360
14302W        W82632  30.617  13.812   3.832
14303W        W82633  44.262  41.874  14.783
14304W        W82634   1.238  38.427   4.119
14305W        W82635  39.852  23.554  11.111
14306W        W82636  32.915  16.153  12.430
14307W        W82637  17.147  37.499   4.135
14308W        W82638  21.579  28.469   1.924
14309W        W82639  13.838  21.743  11.870
14310W        W82640   3.818  14.796   4.674
14311W        W82641   1.308  44.299   0.962
14312W        W82642  38.550  12.230  14.372
14313W        W82643   6.868  38.030  13.822
14314W        W82644  37.383   2.742  12.474
14315W        W82645   7.296   4.359  11.009
14316W        W82646  33.946  24.064   4.319
14317W        W82647   0.322  34.582  11.931
14318W        W82648  25.998  35.460  11.934
14319W        W82649  30.133  28.560  12.080
14320W        W82650  20.233  44.942  13.535
14321W        W82651  44.843   0.440  11.596
14322W        W82652  15.122  43.963   2.390
14323W        W82653  25.503  37.388   1.216
14324W        W82654  18.279  18.654  13.307
14325W        W82655  30.973  16.152  11.974
14326W        W82656  34.398  11.858   1.702
14327W        W82657   8.268  14.649   1.752
14328W        W82658  22.035  37.573  14.424
14329W        W82659  22.996   4.700  11.382
14330W        W82660  42.374   6.420  10.620
14331W        W82661  41.387   9.357   1.898
14332W        W82662  11.781  40.508  10.985
14333W        W82663  19.176  24.629  11.403
14334W        W82664  20.243  43.961  12.565
14335W        W82665  18.562   8.304  12.009
14336W        W82666   5.350   3.289   4.722
14337W        W82667  38.957  33.489  12.465
14338W        W82668  12.649  20.089  13.820
14339W        W82669  29.499   0.938   2.296
14340W        W82670  35.447  41.355  11.027
14341W        W82671   3.925  21.684  11.043
14342W        W82672  31.609  24.154   1.700
14343W        W82673  32.003  19.768   5.228
14344W        W82674  44.379  21.175   5.267
14345W        W82675  21.019   3.344   4.351
14346W        W82676  16.148  26.207   4.227
14347W        W82677  17.280  29.547   3.781
14348W        W82678  28.455   7.705  13.829
14349W        W82679   5.435  24.702   3.330
14350W        W82680  15.678  24.997   4.631
14351W        W82681  43.977  12.316   0.847
14352W        W82682  29.940  33.992  14.448
14353W        W82683  27.653  35.405  13.939
14354W        W82684  13.157   4.357  13.413
14355W        W82685   5.348   4.776   1.392
14356W        W82686   7.845  42.429   1.293
14357W        W82687  42.297   6.826   3.173
14358W        W82688  32.412  35.369   0.822
14359W        W82689  29.929  21.102  13.953
14360W        W82690  31.113  36.045  10.142
14361W        W82691  23.713  30.912  10.524
14362W        W82692   3.813  40.807   1.398
14363W        W82693  15.621  28.646  12.440
14364W        W82694  15.124   1.346  11.567
14365W        W82695  22.716  26.202  10.590
14366W        W82696   4.350  24.499   3.649
14367W        W82697  38.946   1.334  11.446
14368W        W82698  38.956  16.123  13.864
14369W        W82699  15.269  24.559  12.096
14370W        W82700  21.738  14.257  11.941
14371W        W82701  29.174  19.098   3.176
14372W        W82702   2.835   6.879   0.764
14373W        W82703  24.569  13.305  10.565
14374W        W82704  40.441   7.888   0.732
14375W        W82705   5.349   3.330   3.148
14376W        W82706   1.319  43.767  13.980
14377W        W82707   4.723  11.829   4.298
14378W        W82708  11.331  37.486   1.406
14379W        W82709   1.804  21.021   1.250
14380W        W82710  12.283  26.115   1.410
14381W        W82711  26.152  27.562  11.970
14382W        W82712  34.547  29.043   2.296
14383W        W82713  23.188   7.671   0.383
14384W        W82714  33.051  39.845   2.733
14385W        W82715  12.130  18.252  14.283
14386W        W82716   8.392  29.160   1.407
14387W        W82717  41.015   7.374   1.813
14388W        W82718   3.769  39.056  13.812
14389W        W82719  34.017  39.011   1.848
14390W        W82720  25.198   4.375   4.233
14391W        W82721  44.349  11.671  12.911
14392W        W82722   3.323  31.979   1.343
14393W        W82723  32.449  43.926  12.359
14394W        W82724   6.199  20.663  13.051
14395W        W82725  21.059  26.538  10.464
14396W        W82726  22.017  39.491   2.696
14397W        W82727  21.226  42.865   2.877
14398W        W82728  15.721  20.626  12.377
14399W        W82729  23.637  26.014   4.607
14400W        W82730  14.588  32.136   0.403
14401W        W82731  40.847  18.636   0.796
14402W        W82732  41.434  40.363   0.941
14403W        W82733  34.026  24.040   3.688
14404W        W82734  20.715  38.390  10.904
14405W        W82735  12.676  28.932  12.349
14406W        W82736  22.701  26.661   1.284
14407W        W82737  33.052  42.006  10.412
14408W        W82738  12.329  22.587  12.895
14409W        W82739   7.905  29.561   2.712
14410W        W82740  34.891  37.028  10.967
14411W        W82741  39.386  23.583   3.169
14412W        W82742  12.352  10.335   2.274
14413W        W82743  11.854  42.805  10.088
14414W        W82744  29.992  19.775   0.858
14415W        W82745  27.968  30.595  12.475
14416W        W82746  29.124  29.622  11.528
14417W        W82747  18.251   9.198   1.410
14418W        W82748  13.732  28.947  13.941
14419W        W82749  23.513   8.841   9.939
14420W        W82750   7.724  18.755  14.887
14421W        W82751  35.916  38.064   3.848
14422W        W82752  18.647  42.921   0.370
14423W        W82753  32.054   4.250   2.835
14424W        W82754  44.972  23.712   2.823
14425W        W82755  12.185  15.755   1.409
14426W        W82756  11.674  12.717  14.448
14427W        W82757  22.096  34.077  14.794
14428W        W82758  36.589  12.734  14.920
14429W        W82759  16.228   1.745   3.259
14430W        W82760   8.322   1.376   4.666
14431W        W82761  44.991  10.262   9.924
14432W        W82762   4.917  34.992  10.498
14433W        W82763  18.767  20.683  11.910
14434W        W82764  35.517  22.729   1.346
14435W        W82765  35.564   6.345   4.675
14436W        W82766  44.002  34.943  10.614
14437W        W82767  17.199  37.886  10.567
14438W        W82768  30.929  14.778  14.852
14439W        W82769  30.127  33.431   5.287
14440W        W82770  12.154  13.181   4.833
14441W        W82771  43.992  10.753  12.413
14442W        W82772  35.888  10.168  14.930
14443W        W82773   8.198  31.992   1.239
14444W        W82774  32.939  31.520   2.251
14445W        W82775  25.510  29.015   2.757
14446W        W82776  25.080  42.501   2.786
14447W        W82777  20.139  32.930  11.964
14448W        W82778   8.244  36.469   4.716
14449W        W82779  28.113  26.129  13.833
14450W        W82780  22.053   7.399  14.492
14451W        W82781  40.454  26.607  13.478
14452W        W82782  40.381  12.658  10.518
14453W        W82783   5.314  25.487   3.295
14454W        W82784  43.780  29.492   2.779
14455W        W82785   1.827   9.174   3.798
14456W        W82786  30.006  40.519   0.257
14457W        W82787  37.565  43.302  14.313
14458W        W82788   2.747  20.549  12.525
14459W        W82789  21.199  30.458   2.667
14460W        W82790   3.394  24.063  11.995
14461W        W82791  19.250  31.003   2.242
14462W        W82792  26.703  29.149   3.192
14463W        W82793  32.582  13.186   3.790
14464W        W82794  19.542  41.365  11.587
14465W        W82795  10.138  18.228   1.376
14466W        W82796  32.113   5.931   2.862
14467W        W82797  43.510  34.434  10.545
14468W        W82798  38.976  17.282  13.953
14469W        W82799  31.018  13.207   3.699
14470W        W82800  11.771  38.542  10.457
14471W        W82801  41.871  30.106  14.783
14472W        W82802   6.762  16.106  13.043
14473W        W82803  12.837  25.479   1.374
14474W        W82804  25.578  14.126   3.705
14475W        W82805  31.060  38.927   4.660
14476W        W82806   0.378  37.513  14.848
14477W        W82807  26.999   5.209  12.439
14478W        W82808   2.964  17.148  13.543
14479W        W82809  41.948  33.891   2.308
14480W        W82810   0.960   6.249  11.111
14481W        W82811  23.565  41.370  12.873
14482W        W82812  44.857  21.753  11.477
14483W        W82813  26.004   3.272   2.696
14484W        W82814   3.317  13.297  10.506
14485W        W82815  37.404  13.254  11.424
14486W        W82816  39.017  31.928  11.934
14487W        W82817  37.021  13.219   3.335
14488W        W82818   3.360  35.029  11.099
14489W        W82819  39.935  28.178   3.647
14490W        W82820   1.275  14.716   3.155
14491W        W82821   8.720  44.000   1.882
14492W        W82822  17.774   7.367  12.390
14493W        W82823  40.822  32.058  13.398
14494W        W82824   7.217  14.154   1.363
14495W        W82825   1.866  26.999  13.878
14496W        W82826  39.450  35.056   0.371
14497W        W82827  35.573  12.355   0.872
14498W        W82828  23.653  28.031   4.344
14499W        W82829  21.546  35.544  13.803
14500W        W82830  36.465  39.503  10.993
14501W        W82831   2.724  27.490  14.926
14502W        W82832  42.449  42.942  14.819
14503W        W82833  44.331  33.900  14.414
14504W        W82834  13.732  42.971  14.360
14505W        W82835  37.021   3.388  13.487
14506W        W82836   4.766  39.340   2.783
14507W        W82837   5.207  13.349   0.867
14508W        W82838  18.132  40.388   2.842
14509W        W82839  32.976  40.375   0.835
14510W        W82840  13.728  17.197   1.334
14511W        W82841   0.348  33.523  12.554
14512W        W82842  27.610  14.166  12.914
14513W        W82843   5.392   7.237  12.345
14514W        W82844   1.456  18.224   0.783
14515W        W82845  27.975  20.078   0.735
14516W        W82846  30.441   8.337  13.335
14517W        W82847   7.188  28.678   0.462
14518W        W82848  24.553  34.895   0.342
14519W        W82849  21.160  41.471   3.718
14520W        W82850  26.961  33.413   3.786
14521W        W82851  11.825  30.646  12.554
14522W        W82852  26.102  42.418   1.214
14523W        W82853  34.058  18.770  14.988
14524W        W82854  12.665  22.115   1.320
14525W        W82855  25.517  18.626  12.913
14526W        W82856  19.559  40.009  10.025
14527W        W82857  38.909  17.591  12.354
14528W        W82858  10.140  13.155  12.034
14529W        W82859  41.507  24.705   4.760
14530W        W82860  27.508  33.427   2.233
14531W        W82861   9.290  34.909   1.451
14532W        W82862  14.098  14.130  10.146
14533W        W82863  13.743   3.333   0.875
14534W        W82864  18.110   2.274  12.944
14535W        W82865  26.188  14.722  14.495
14536W        W82866  24.002  44.336   1.348
14537W        W82867  35.493   3.886  11.537
14538W        W82868  28.179  17.139  14.976
14539W        W82869  35.066   3.225  13.513
14540W        W82870  18.135  30.555   0.259
14541W        W82871  22.249  26.612   2.414
14542W        W82872  35.029  27.587  12.485
14543W        W82873  16.727  37.835   4.640
14544W        W82874  15.711  42.365   1.211
14545W        W82875  32.134  25.523   0.731
14546W        W82876  24.176  12.260   1.855
14547W        W82877  34.369  33.426  13.391
14548W        W82878  19.632   6.692  13.495
14549W        W82879  22.042  15.693   2.281
14550W        W82880  14.224  12.641   1.833
14551W        W82881  29.432  14.241  13.413
14552W        W82882  34.913  29.443  14.290
14553W        W82883  17.714  42.783  13.051
14554W        W82884  30.458  25.549   3.834
14555W        W82885  18.203  43.962   1.761
14556W        W82886  30.539  28.513  10.974
14557W        W82887  34.484  39.993  14.000
14558W        W82888  17.200  43.308   3.789
14559W        W82889   7.901   0.374   2.311
14560W        W82890   6.730  40.860   0.773
14561W        W82891  34.615   1.452   4.807
14562W        W82892  29.173  41.358   2.844
14563W        W82893  10.824  22.623   3.786
14564W        W82894  18.664  36.975  13.911
14565W        W82895  28.981  12.227  11.536
14566W        W82896  43.986  39.488   1.714
14567W        W82897  18.191  34.614  10.576
14568W        W82898  29.462  28.631   0.932
14569W        W82899   3.716  18.221   2.819
14570W        W82900   6.858  33.049  12.976
14571W        W82901  24.083   6.681   0.783
14572W        W82902  16.224  38.424  12.858
14573W        W82903  38.912  26.613   1.293
14574W        W82904  25.060  39.882   4.318
14575W        W82905  26.972  19.262  12.990
14576W        W82906  17.175  17.568   0.319
14577W        W82907  29.016   8.226  12.900
14578W        W82908   3.932   3.712  12.938
14579W        W82909  19.053  26.646   4.752
14580W        W82910   6.721   5.746  11.559
14581W        W82911  14.177  25.184   2.671
14582W        W82912  36.031  37.396  12.868
14583W        W82913  42.393  22.133  13.802
14584W        W82914  33.097   3.882   4.232
14585W        W82915  36.411  16.659  10.957
14586W        W82916  19.246  37.082  14.001
14587W        W82917  37.998  13.821   3.246
14588W        W82918  28.494  12.345   3.256
14589W        W82919  39.055  22.524   4.803
14590W        W82920   8.397  29.954  13.032
14591W        W82921  41.800  41.472   1.215
14592W        W82922  12.316  33.531  14.866
14593W        W82923  26.699   8.829   1.894
14594W        W82924   6.323  27.608   4.296
14595W        W82925  32.039  17.297   0.379
14596W        W82926  37.480  36.347  13.432
14597W        W82927  14.266  24.577  10.983
14598W        W82928  18.785   2.376  12.577
14599W        W82929  27.122  13.329  13.441
14600W        W82930  25.642  43.925   3.837
14601W        W82931  26.627  24.023   2.346
14602W        W82932  37.988  12.695   1.307
14603W        W82933  16.686  17.611   2.401
14604W        W82934  31.629  25.118   0.730
14605W        W82935   3.905  34.385   4.334
14606W        W82936  41.488  36.504  12.456
14607W        W82937  20.640  24.211   3.663
14608W        W82938   3.365  11.778   3.148
14609W        W82939   3.347  15.628   2.408
14610W        W82940   8.361   0.866  10.544
14611W        W82941  40.040  22.090   1.905
14612W        W82942   5.287  14.802  13.808
14613W        W82943  28.156  41.029  12.460
14614W        W82944   5.249   6.910   1.904
14615W        W82945  10.249   6.770   2.860
14616W        W82946  37.916  39.510   4.352
14617W        W82947  42.434  14.833   1.284
14618W        W82948   5.869  32.571  13.452
14619W        W82949   4.781  37.463  10.062
14620W        W82950  17.694  28.984  14.398
14621W        W82951  32.900  23.507  12.014
14622W        W82952  38.474  17.648   0.734
14623W        W82953  38.516  19.146  14.813
14624W        W82954  36.971  39.022  10.602
14625W        W82955  10.172  35.889   2.858
14626W        W82956  38.564  36.868   3.708
14627W        W82957  24.665  11.735   1.318
14628W        W82958  12.830   5.842   4.233
14629W        W82959  38.989  13.678  10.897
14630W        W82960   0.958   3.833   0.760
14631W        W82961  19.550  11.145   4.612
14632W        W82962  22.743  33.996   4.268
14633W        W82963   4.303  11.300  12.491
14634W        W82964  15.098  32.892   2.832
14635W        W82965  10.667  28.997   2.694
14636W        W82966   3.223  36.924  13.326
14637W        W82967  28.934   5.834   4.799
14638W        W82968  29.481  31.564  12.912
14639W        W82969  27.591  18.594   2.401
14640W        W82970  10.730  28.636  14.986
14641W        W82971  34.938  25.657   4.656
14642W        W82972   6.347  16.783   2.887
14643W        W82973  25.506  36.929  11.606
14644W        W82974  26.192   4.780   2.393
14645W        W82975  23.036  17.757  11.923
14646W        W82976  20.260  28.675  10.486
14647W        W82977  22.525  44.774   2.228
14648W        W82978  17.639  39.930   4.268
14649W        W82979   6.274  34.387  12.386
14650W        W82980  39.919  41.377   2.339
14651W        W82981  13.345  42.907   4.683
14652W        W82982  16.726  41.518   4.635
14653W        W82983  19.051   4.334  14.860
14654W        W82984   4.355  33.598   3.311
14655W        W82985   6.335  18.551  12.084
14656W        W82986  29.971  28.120  10.519
14657W        W82987   5.389  35.574  14.928
14658W        W82988  21.067   5.718  12.982
14659W        W82989   6.369  37.929  14.448
14660W        W82990  31.460  12.265  14.793
14661W        W82991  34.980  26.646  13.922
14662W        W82992  30.444  14.278   3.780
14663W        W82993  44.376  41.527   3.221
14664W        W82994  23.553  16.302   4.711
14665W        W82995   6.186  29.428  14.352
14666W        W82996  20.152   0.956   0.761
14667W        W82997  12.251   1.764  10.968
14668W        W82998   3.276   0.429  14.969
14669W        W82999  16.580  34.035   4.664
14670W        W83000  43.989   2.282  11.076
14671W        W83001  12.728  35.053  12.831
14672W        W83002  22.220  15.640   4.651
14673W        W83003  34.864  12.614   2.740
14674W        W83004  16.743  42.355   2.305
14675W        W83005  24.580   3.813  12.038
14676W        W83006  37.891  15.213   1.433
14677W        W83007  33.129   4.364  12.388
14678W        W83008  32.110   8.393   1.319
14679W        W83009  31.421  11.744   4.720
14680W        W83010  13.748  30.964   2.668
14681W        W83011  24.190  44.861   2.313
14682W        W83012  20.742  20.258  14.294
14683W        W83013  26.477  14.307   5.084
14684W        W83014  36.097   4.849   0.879
14685W        W83015   8.180  10.294   3.768
14686W        W83016   6.252  27.676   1.915
14687W        W83017  39.546  32.010   3.380
14688W        W83018  38.075  31.912  12.871
14689W        W83019   2.293  15.748   3.719
14690W        W83020   5.283  30.459   3.795
14691W        W83021  30.141  38.332   0.388
14692W        W83022   7.237  32.600   1.433
14693W        W83023  17.657  23.732   2.283
14694W        W83024  29.544  10.672   3.813
14695W        W83025  43.399   3.880  10.910
14696W        W83026  32.430  28.147   3.156
14697W        W83027  21.114  42.980   0.312
14698W        W83028   0.461  31.141   3.191
14699W        W83029   0.322  20.665  13.993
14700W        W83030  36.367  26.663  11.538
14701W        W83031  16.313  20.252   4.665
14702W        W83032  15.156  19.081  10.436
14703W        W83033  39.980  12.614   4.253
14704W        W83034   7.837  13.641   1.760
14705W        W83035   3.349  38.875   4.259
14706W        W83036   8.254  23.613  12.418
14707W        W83037  31.549  31.051   3.794
14708W        W83038   3.235   6.379   2.358
14709W        W83039  11.630  10.285  11.004
14710W        W83040  18.132  24.528   3.320
14711W        W83041  44.328   4.785  13.035
14712W        W83042  32.418  12.235  10.416
14713W        W83043   2.229  20.050   1.385
14714W        W83044  23.019  19.606   2.703
14715W        W83045  39.323  10.681   4.195
14716W        W83046  16.616  15.715   3.808
14717W        W83047  35.073  12.815  12.979
14718W        W83048  11.136  28.075   1.366
14719W        W83049  17.094   9.706   0.813
14720W        W83050  21.641   6.239   1.809
14721W        W83051  22.526   7.179   4.241
14722W        W83052  25.174  38.365   3.767
14723W        W83053  20.043  11.736   3.725
14724W        W83054  11.633  40.345  12.530
14725W        W83055   6.202  22.677  12.380
14726W        W83056   2.740  44.462  10.973
14727W        W83057  11.279  29.146   2.353
14728W        W83058  30.052   6.781  13.920
14729W        W83059   6.738  35.472   1.255
14730W        W83060  27.957  21.173   1.436
14731W        W83061  43.984  11.660   3.365
14732W        W83062   1.461  10.211   4.146
14733W        W83063   2.267  20.748   4.664
14734W        W83064  38.518   0.314  13.017
14735W        W83065   7.756   2.470   3.214
14736W        W83066   4.795  23.694  10.002
14737W        W83067  32.401  10.703   3.738
14738W        W83068  42.517  44.501   2.885
14739W        W83069   1.264  40.993   1.216
14740W        W83070   2.294  11.670  14.816
14741W        W83071   4.417  35.968   4.645
14742W        W83072  36.932  34.577   1.849
14743W        W83073   5.267  31.979   2.411
14744W        W83074  19.257  20.217   3.166
14745W        W83075  21.603  40.415  10.890
14746W        W83076  23.065  36.935  11.534
14747W        W83077  18.589  44.862  12.474
14748W        W83078  29.006  22.727   2.705
14749W        W83079   0.446  26.052  10.897
14750W        W83080   8.370  18.621  12.905
14751W        W83081  34.410  23.581  12.343
14752W        W83082  24.048   5.834  11.449
14753W        W83083   5.782  10.710  12.002
14754W        W83084  28.929  11.674  13.353
14755W        W83085  34.468   3.810  11.543
14756W        W83086  39.466  13.238   0.964
14757W        W83087  13.292   2.927   1.275
14758W        W83088  10.876   3.248   1.258
14759W        W83089  30.419  10.740   3.831
14760W        W83090   3.236  28.126  10.508
14761W        W83091  34.557  28.177  11.070
14762W        W83092  42.935  40.839   4.143
14763W        W83093  38.922  28.584  14.770
14764W        W83094   0.973  14.823   1.355
14765W        W83095  33.041  23.656  14.287
14766W        W83096   9.248  39.002   2.276
14767W        W83097  41.912  14.760   1.843
14768W        W83098   8.251  13.128   4.274
14769W        W83099  24.629   4.450  12.430
14770W        W83100  25.599  30.455   3.269
14771W        W83101  13.338  27.671  14.375
14772W        W83102  36.927  37.404  10.609
14773W        W83103  20.674   2.454   3.812
14774W        W83104  12.196  36.410   1.336
14775W        W83105   3.782  40.406  11.519
14776W        W83106  39.855  18.704   4.312
14777W        W83107  26.630  41.887   2.674
14778W        W83108  21.697   1.755  12.994
14779W        W83109  20.550  30.622  12.931
14780W        W83110  42.825   3.799   3.656
14781W        W83111  36.848  39.500   2.776
14782W        W83112   3.309  28.531   4.205
14783W        W83113  17.778  25.099  12.084
14784W        W83114  13.349  29.139   1.805
14785W        W83115  11.214   4.446  12.517
14786W        W83116  31.444  25.146  11.573
14787W        W83117  37.570   2.295  14.290
14788W        W83118   8.878  24.180   1.846
14789W        W83119  40.528  43.382   2.415
14790W        W83120  26.208   5.818   3.191
14791W        W83121  37.544  20.638  14.952
14792W        W83122  43.282  23.614   0.319
14793W        W83123  29.998   2.451   0.299
14794W        W83124  27.038  43.022   2.221
14795W        W83125  34.991   8.900  12.870
14796W        W83126  25.511  42.979  11.550
14797W        W83127   8.870  20.731   3.810
14798W        W83128   8.365  22.562  14.878
14799W        W83129  44.472  28.510  14.318
14800W        W83130  36.026  16.201   4.785
14801W        W83131  25.502   1.249   3.183
14802W        W83132  17.147  12.173   0.874
14803W        W83133  31.061  36.511  12.530
14804W        W83134  37.935  34.045  13.546
14805W        W83135  24.675  23.057  13.515
14806W        W83136  31.556  14.237   4.198
14807W        W83137  11.366  14.164   4.335
14808W        W83138   3.723  44.505   3.201
14809W        W83139   9.383  18.069  13.022
14810W        W83140  30.164   9.386  13.362
14811W        W83141  28.061  14.788   1.744
14812W        W83142  20.705  16.578   5.631
14813W        W83143  39.835   4.739  11.410
14814W        W83144  17.097  32.986   3.732
14815W        W83145   4.302  35.075   2.208
14816W        W83146   3.393  25.209   3.280
14817W        W83147  38.923  18.594   4.795
14818W        W83148  27.621  17.186  11.063
14819W        W83149   0.330  15.180  10.560
14820W        W83150  25.125  35.535  10.448
14821W        W83151  34.373  40.906  14.371
14822W        W83152  32.955  13.194  12.962
14823W        W83153  26.021  16.780  10.911
14824W        W83154  44.493  15.234  13.906
14825W        W83155  30.987  22.176   5.144
14826W        W83156  10.225  15.760  12.830
14827W        W83157  12.707  38.325   0.761
14828W        W83158  32.560   4.348   3.340
14829W        W83159  21.164   4.415  12.538
14830W        W83160  31.039  40.472  13.014
14831W        W83161  12.304  31.564  14.027
14832W        W83162  42.410  16.696   2.803
14833W        W83163  16.791  37.498   2.274
14834W        W83164   3.299  20.090  13.428
14835W        W83165   8.800  32.139  14.776
14836W        W83166  30.010  24.497   2.729
14837W        W83167  20.751  25.964  11.892
14838W        W83168  29.445  14.277  14.027
14839W        W83169  15.172  40.344   2.683
14840W        W83170  29.662  39.388  12.086
14841W        W83171  12.754  43.857   3.674
14842W        W83172  14.303   1.328  14.884
14843W        W83173   2.737  19.657   2.754
14844W        W83174   1.263  32.563  11.076
14845W        W83175   3.373   8.836   4.317
14846W        W83176  29.015   7.707  11.020
14847W        W83177   7.879  18.675   0.797
14848W        W83178  32.503  40.033   2.880
14849W        W83179  38.461  15.601  10.543
14850W        W83180  34.077  19.224   3.166
14851W        W83181  13.288  18.066  13.310
14852W        W83182  33.462  37.071   4.140
14853W        W83183  39.953  17.226   3.846
14854W        W83184  44.899  15.326  11.994
14855W        W83185  22.576  18.690   0.892
14856W        W83186  42.955  12.780  13.950
14857W        W83187  13.330   4.227  14.443
14858W        W83188  43.515  33.562   4.283
14859W        W83189   9.887  34.560   1.792
14860W        W83190   9.212   5.897   3.632
14861W        W83191  19.107  41.033   3.855
14862W        W83192  26.549  31.052  11.996
14863W        W83193  16.792  36.377   3.294
14864W        W83194  16.601  35.051  12.463
14865W        W83195   8.331  13.682  14.787
14866W        W83196  21.694   1.819   3.744
14867W        W83197  14.619  43.454   2.687
14868W        W83198  27.963  10.341   5.677
14869W        W83199  12.736  43.772   2.410
14870W        W83200  12.280  17.121  10.594
14871W        W83201  25.200   3.942   0.396
14872W        W83202  26.156  13.658  14.326
14873W        W83203  24.562  33.411  12.402
14874W        W83204   4.215  39.909  12.033
14875W        W83205   8.711  25.077   1.436
14876W        W83206  23.547   1.940   2.763
14877W        W83207   5.733  43.371  11.493
14878W        W83208  34.875   1.320  12.978
14879W        W83209  14.667  10.293   0.871
14880W        W83210   9.751  39.396  14.397
14881W        W83211   1.959  24.631   4.716
14882W        W83212  31.910  22.107   0.419
14883W        W83213  17.697  40.421  10.525
14884W        W83214  15.698   4.234   1.734
14885W        W83215  10.855  28.053  11.008
14886W        W83216   7.793  12.796   3.672
14887W        W83217  31.094  35.511   2.684
14888W        W83218  39.947  35.005   4.656
14889W        W83219   3.393  27.515   0.293
14890W        W83220   0.925  28.970   1.737
14891W        W83221  24.686   9.887   1.914
14892W        W83222  37.853  20.743  11.929
14893W        W83223  30.138  42.013   1.424
14894W        W83224  44.433  28.564   4.791
14895W        W83225  41.897  33.014  14.418
14896W        W83226  18.148  14.320  10.990
14897W        W83227  18.590  35.952   2.180
14898W        W83228  40.815  42.987  10.143
14899W        W83229   3.792  30.513   9.925
14900W        W83230  24.644  30.522  12.577
14901W        W83231  37.426  31.468   0.296
14902W        W83232   3.285  24.078  11.112
14903W        W83233  30.445  26.572   4.114
14904W        W83234  21.069  11.159   0.807
14905W        W83235  19.652   2.948  10.496
14906W        W83236   5.374  16.094  13.975
14907W        W83237  18.605  23.699   2.240
14908W        W83238  29.632  32.141   0.909
14909W        W83239   0.788  17.677  12.458
14910W        W83240  18.710   0.310   1.443
14911W        W83241  27.527  39.914   1.385
14912W        W83242  31.466   8.355   0.475
14913W        W83243   0.772   5.742  12.084
14914W        W83244   0.946  32.109  10.045
14915W        W83245  31.921  10.162   3.737
14916W        W83246  35.364  28.610   3.669
14917W        W83247   9.858  17.217   4.708
14918W        W83248   8.767  17.294  11.514
14919W        W83249  13.330  39.826   1.451
14920W        W83250  33.893  39.033  10.557
14921W        W83251   2.454  12.277   0.941
14922W        W83252  13.184  12.847   4.684
14923W        W83253  17.143   5.312  14.884
14924W        W83254   8.876   6.689   2.250
14925W        W83255  44.493  21.237   1.779
14926W        W83256   1.332   2.942   0.325
14927W        W83257  13.337   3.710  11.911
14928W        W83258   7.735  10.228   2.781
14929W        W83259  11.291   1.272   1.876
14930W        W83260  34.918   6.361   0.821
14931W        W83261  13.191   8.705  10.072
14932W        W83262  44.891  14.823   1.419
14933W        W83263  33.514  16.711  13.938
14934W        W83264   4.787  11.742   3.744
14935W        W83265   8.766  43.897  14.414
14936W        W83266   0.752  33.461  14.335
14937W        W83267  26.688  14.752   1.367
14938W        W83268  44.412  26.164  11.903
14939W        W83269  23.551   6.370   2.357
14940W        W83270  25.178   9.243   1.294
14941W        W83271  35.549   3.902  10.625
14942W        W83272  19.104  39.017  12.075
14943W        W83273  29.132  11.204   1.918
14944W        W83274  38.837  10.802   3.287
14945W        W83275   8.376  25.162   2.736
14946W        W83276  42.866  26.097  14.883
14947W        W83277   3.306  13.607  12.994
14948W        W83278  20.651  12.264  14.814
14949W        W83279  22.245  36.918   3.229
14950W        W83280  40.998  14.822  14.842
14951W        W83281  38.363  19.729   2.204
14952W        W83282  17.761  26.095  13.499
14953W        W83283  27.497  41.928  10.639
14954W        W83284  17.138   5.285   1.811
14955W        W83285  44.975  19.589   4.242
14956W        W83286  44.997  27.987   1.241
14957W        W83287   6.277  37.959   1.394
14958W        W83288   2.896  38.827  11.083
14959W        W83289  38.548  41.415   4.189
14960W        W83290  35.543  33.060  12.353
14961W        W83291  29.023  37.580  13.849
14962W        W83292  11.258  17.131  12.839
14963W        W83293  36.009  26.020   2.787
14964W        W83294  40.968   3.388  14.420
14965W        W83295  22.144  20.196   0.790
14966W        W83296   9.804  35.901   1.831
14967W        W83297  13.122  31.620  13.810
14968W        W83298  21.019  34.495   2.825
14969W        W83299  27.038  13.835   0.766
14970W        W83300  11.762  19.734  11.882
14971W        W83301  14.149  44.428  13.529
14972W        W83302   9.248   1.480   3.345
14973W        W83303  26.601  33.120  14.283
14974W        W83304   1.301  17.649  10.429
14975W        W83305   4.701   7.188  11.421
14976W        W83306  43.321  17.680   3.183
14977W        W83307  38.931  22.542   5.189
14978W        W83308  21.053  12.255   1.253
14979W        W83309   3.864  27.589  12.830
14980W        W83310  22.590  43.285  11.374
14981W        W83311   4.727  24.496   1.771
14982W        W83312  38.492  21.068   3.817
14983W        W83313  13.805  19.642   0.297
14984W        W83314  37.083  23.639  11.915
14985W        W83315  21.112  33.071  14.005
14986W        W83316  22.061   3.282   2.778
14987W        W83317   8.773  39.815   2.843
14988W        W83318  33.493  37.344   3.172
14989W        W83319  18.728  39.369   4.252
14990W        W83320  22.666  32.893  12.392
14991W        W83321   8.700   4.899  14.856
14992W        W83322  17.705   6.378  12.078
14993W        W83323  36.437  43.460  13.408
14994W        W83324  40.343  21.525  11.392
14995W        W83325  21.117   8.679  13.826
14996W        W83326  27.482  37.951   2.370
14997W        W83327  21.208  13.231  14.960
14998W        W83328   2.767   4.427   1.828
14999W        W83329   1.426  41.789   3.235
15000W        W83330  13.665  26.993  12.515
15001W        W83331   4.765  44.011  13.851
15002W        W83332  20.143  30.162  12.063
15003W        W83333   4.778  15.626  13.839
15004W        W83334  40.800  12.189  11.005
15005W        W83335   6.884  17.164   0.242
15006W        W83336  33.450  15.714  11.013
15007W        W83337  17.565  31.591  14.767
15008W        W83338   1.883   9.802  13.448
15009W        W83339  16.229   3.873   2.276
15010W        W83340  13.335  12.227  14.778
15011W        W83341  27.086  27.507   4.236
15012W        W83342  15.092  37.977   2.786
15013W        W83343  13.627   3.791  11.387
15014W        W83344   1.854  19.062  10.613
15015W        W83345   3.374  28.645   3.804
15016W        W83346  36.942  30.458   3.251
15017W        W83347  30.543  41.492   4.788
15018W        W83348  12.846   3.833  13.793
15019W        W83349  39.352  30.434   4.345
15020W        W83350   2.468  37.566  12.824
15021W        W83351  29.653   0.472   0.917
15022W        W83352   9.203  30.614   2.865
15023W        W83353  21.207   4.430  14.493
15024W        W83354  18.708  10.289   1.798
15025W        W83355   0.282  11.308   3.253
15026W        W83356   0.425  10.305   1.352
15027W        W83357  16.774  20.244   4.154
15028W        W83358  22.712  41.343   0.341
15029W        W83359  35.564   1.405   2.211
15030W        W83360  40.917  23.610  10.496
15031W        W83361  44.498   6.678  10.905
15032W        W83362  11.848   4.326   4.178
15033W        W83363  34.897  23.543   2.685
15034W        W83364  10.714  40.474  10.524
15035W        W83365  41.957  33.906  11.892
15036W        W83366  44.494  28.511   0.829
15037W        W83367  41.416  32.409   0.807
15038W        W83368  24.078   0.422  12.947
15039W        W83369  12.809  33.047  14.510
15040W        W83370   3.857  29.118   0.735
15041W        W83371  28.108  39.049  14.305
15042W        W83372  30.642   3.870   2.403
15043W        W83373  23.596   4.282   0.737
15044W        W83374  32.563  25.051  12.453
15045W        W83375  19.268  14.655  11.500
15046W        W83376   5.880  12.170   2.867
15047W        W83377  38.833   9.343   5.140
15048W        W83378  42.866  36.990  14.292
15049W        W83379   2.347   6.800  14.030
15050W        W83380  11.278   4.266  14.361
15051W        W83381   4.296  39.462   1.275
15052W        W83382  14.712  25.644   0.885
15053W        W83383  18.252  33.481  11.978
15054W        W83384  30.150  27.467  13.822
15055W        W83385  21.729   6.342   9.926
15056W        W83386  17.774  35.964  12.358
15057W        W83387  17.589  20.713   3.266
15058W        W83388  18.731  12.668   4.249
15059W        W83389  39.342  29.080   3.656
15060W        W83390   9.293  10.834  12.930
15061W        W83391   7.895  22.668   2.291
15062W        W83392  29.028  31.600  12.968
15063W        W83393   5.692  33.609  14.846
15064W        W83394  17.684   0.858  14.989
15065W        W83395  26.496  44.948   3.265
15066W        W83396  29.937  35.887   1.927
15067W        W83397  32.115  34.546   0.956
15068W        W83398   2.288   2.828  13.500
15069W        W83399  22.116  26.051   0.275
15070W        W83400  44.936   0.819  13.973
15071W        W83401   6.389  17.635   1.772
15072W        W83402  38.332  37.526  13.966
15073W        W83403  19.581  30.141  12.537
15074W        W83404  13.225   3.376  12.890
15075W        W83405  15.581  33.463   5.304
15076W        W83406  15.204  39.396  11.070
15077W        W83407  43.516  26.576   2.381
15078W        W83408  12.191  25.531   0.913
15079W        W83409  32.071  33.027   1.340
15080W        W83410  34.387   5.411  11.083
15081W        W83411  38.333  39.996  12.424
15082W        W83412  17.070  17.647   0.923
15083W        W83413  22.654  22.607   1.222
15084W        W83414  18.729  12.321   0.790
15085W        W83415  15.316  27.594   0.849
15086W        W83416  16.213  12.310  14.945
15087W        W83417  13.750  19.696  12.413
15088W        W83418   2.280  18.590  13.973
15089W        W83419   5.815   1.321  10.530
15090W        W83420   2.341   9.163   0.953
15091W        W83421  26.107  10.312   0.726
15092W        W83422  21.199  42.870  12.462
15093W        W83423  22.593  24.207  11.109
15094W        W83424  39.526   3.898   4.257
15095W        W83425  30.449  17.577   2.205
15096W        W83426  43.829  32.577   3.353
15097W        W83427  17.287  14.618  13.531
15098W        W83428  17.754  23.988   0.807
15099W        W83429  10.709  16.706  12.039
15100W        W83430  31.977  31.568   0.835
15101W        W83431  39.410   0.915  13.497
15102W        W83432   0.463  13.228  12.573
15103W        W83433  30.040  24.140  12.520
15104W        W83434  13.831  14.280   0.751
15105W        W83435   9.236  17.166  14.992
15106W        W83436  17.766  14.330  11.448
15107W        W83437   6.907  35.517   2.743
15108W        W83438   8.324  33.072  13.407
15109W        W83439  23.639  18.248  11.584
15110W        W83440   6.309  10.361   1.306
15111W        W83441  22.025  15.112  10.943
15112W        W83442  13.827   3.404  10.599
15113W        W83443  27.945  27.102  11.556
15114W        W83444  42.839  15.744   5.297
15115W        W83445  10.749  41.818  12.412
15116W        W83446   8.824  35.376  12.958
15117W        W83447   8.207  37.364   3.214
15118W        W83448  35.978   6.787  11.553
15119W        W83449  35.994  19.717   0.438
15120W        W83450  22.682  39.831  10.069
15121W        W83451  22.176  19.201   2.845
15122W        W83452  36.950  41.443   1.382
15123W        W83453  35.526  15.168   2.323
15124W        W83454  15.319  24.508  10.958
15125W        W83455  30.935  11.176   3.207
15126W        W83456   7.224  34.574   3.238
15127W        W83457  14.246  17.574   3.778
15128W        W83458  13.662  25.708  11.976
15129W        W83459   1.422   8.205  11.916
15130W        W83460   8.837   0.485  13.535
15131W        W83461  39.055  21.241   3.782
15132W        W83462  20.691  26.967  12.973
15133W        W83463  26.466   1.335   4.170
15134W        W83464  12.622   4.714  12.393
15135W        W83465  29.174  44.277   2.299
15136W        W83466  23.101  22.638  12.564
15137W        W83467  20.070  19.616  13.453
15138W        W83468  42.939  10.310  14.357
15139W        W83469  13.209  17.731   4.174
15140W        W83470   4.333  42.781  12.480
15141W        W83471  27.131  15.613   0.908
15142W        W83472  24.128  18.626  12.392
15143W        W83473   9.381  35.520   1.836
15144W        W83474  37.003  21.118   5.225
15145W        W83475  25.984  40.974  12.451
15146W        W83476  23.689  17.251   3.292
15147W        W83477   8.807  17.681  13.440
15148W        W83478  17.594  18.239   2.194
15149W        W83479   2.877  32.107  11.028
15150W        W83480   1.423   8.810   2.849
15151W        W83481  31.106  10.635  10.410
15152W        W83482  24.574  42.777   2.347
15153W        W83483  14.212  13.676  14.374
15154W        W83484  32.946  28.651  11.102
15155W        W83485  41.823  15.619   1.815
15156W        W83486  39.996  39.339  11.003
15157W        W83487  32.103  37.478  14.019
15158W        W83488  31.901  28.082  13.348
15159W        W83489  38.894   2.746  14.817
15160W        W83490  20.762  17.720   3.803
15161W        W83491  16.266  16.313  12.859
15162W        W83492  15.210   9.712  10.993
15163W        W83493   4.846   6.245  10.548
15164W        W83494  35.939  23.190   1.882
15165W        W83495  37.054  27.965  11.109
15166W        W83496  32.004  42.870   3.232
15167W        W83497  40.870  40.541   0.388
15168W        W83498  32.057   0.452   1.281
15169W        W83499  25.985  12.270  12.859
15170W        W83500  10.662  21.634   3.338
15171W        W83501  42.907   9.876   3.223
15172W        W83502  35.408  39.411   4.818
15173W        W83503  35.013  44.006  14.927
15174W        W83504  20.196  16.690   3.665
15175W        W83505  37.549  17.256   0.456
15176W        W83506  32.024   4.296  12.869
15177W        W83507  12.322  17.608   2.786
15178W        W83508  21.514  34.037  12.846
15179W        W83509   1.794  38.381   9.608
15180W        W83510   2.315   5.897  13.902
15181W        W83511   3.738  40.922  13.432
15182W        W83512  15.256   8.288  14.902
15183W        W83513  28.964   4.272   0.823
15184W        W83514  25.050  26.652   2.775
15185W        W83515   3.391  28.663   3.306
15186W        W83516  19.115  20.036  13.315
15187W        W83517  21.535  37.471  12.956
15188W        W83518  19.590  34.591  11.430
15189W        W83519  41.310  23.560  11.605
15190W        W83520   6.335  43.354  14.780
15191W        W83521  34.469  10.323  11.024
15192W        W83522  14.646  14.097  10.940
15193W        W83523   7.358  28.165  10.591
15194W        W83524  39.941  32.050  11.606
15195W        W83525  38.474  20.261   1.292
15196W        W83526  23.510  35.932   1.737
15197W        W83527  20.568   2.314   4.204
15198W        W83528  23.121   6.883  10.530
15199W        W83529  43.295  40.995  12.488
15200W        W83530  26.028   6.817  14.329
15201W        W83531   1.742  38.452  11.094
15202W        W83532  35.939  21.074   0.919
15203W        W83533  22.609  36.971  14.029
15204W        W83534  12.721   6.220   0.776
15205W        W83535  43.843  40.459  13.427
15206W        W83536  17.737  24.987  14.377
15207W        W83537  40.898  34.581   4.299
15208W        W83538  40.953  22.059  13.474
15209W        W83539  17.225  12.213   2.254
15210W        W83540   6.425  29.447  13.341
15211W        W83541   7.342  40.440  13.363
15212W        W83542  18.556  21.082   0.311
15213W        W83543  38.409   9.364   0.328
15214W        W83544   6.794  36.442  13.867
15215W        W83545  32.432   8.816  12.925
15216W        W83546  36.037  12.722  13.792
15217W        W83547  21.648  40.410  13.976
15218W        W83548   6.781  34.490  11.406
15219W        W83549   0.297   6.695  13.943
15220W        W83550  27.097  28.666   4.271
15221W        W83551  19.102   1.441   0.824
15222W        W83552  21.082  42.882   0.863
15223W        W83553   6.718  12.727  10.904
15224W        W83554  19.674   8.716   1.910
15225W        W83555   7.241  18.605   2.763
15226W        W83556  26.976  11.332  10.082
15227W        W83557   5.417   5.385  12.947
15228W        W83558  12.777  14.192  13.532
15229W        W83559  11.179   8.269   4.122
15230W        W83560   8.345  22.696   2.272
15231W        W83561   0.878  36.541  11.536
15232W        W83562   8.682   0.453   2.239
15233W        W83563  33.079  23.579   2.245
15234W        W83564  12.843  27.113  10.960
15235W        W83565   1.799  13.112  10.910
15236W        W83566  26.140  40.440  11.548
15237W        W83567  29.597  31.947   9.544
15238W        W83568  10.744  29.938  12.425
15239W        W83569  34.540  29.549   0.923
15240W        W83570  37.343  25.574   5.157
15241W        W83571  21.714   7.802   2.834
15242W        W83572  44.902   5.258  12.964
15243W        W83573  44.475  16.670  10.117
15244W        W83574  40.545  29.058   4.750
15245W        W83575  40.512   4.256   2.848
15246W        W83576  16.276   2.293  14.780
15247W        W83577  20.069  39.408  14.456
15248W        W83578  40.978  36.000   1.419
15249W        W83579  10.266  30.583  11.051
15250W        W83580   6.877  38.391   1.234
15251W        W83581  27.049   4.850   1.235
15252W        W83582  24.021  34.376   3.829
15253W        W83583  36.567  23.231   2.807
15254W        W83584  15.624  12.218   4.702
15255W        W83585  18.639  33.019  14.916
15256W        W83586  10.721  35.950  10.987
15257W        W83587  43.859   9.262   2.402
15258W        W83588  33.608  34.390  11.475
15259W        W83589  28.597  17.134   0.253
15260W        W83590  24.656  40.957  11.586
15261W        W83591  25.539  26.091  10.552
15262W        W83592  18.684  42.833  14.457
15263W        W83593  40.916  11.779  10.903
15264W        W83594  42.426   2.393  14.948
15265W        W83595  36.863  30.153  12.574
15266W        W83596  12.821  26.560  14.031
15267W        W83597  14.721  39.365   4.270
15268W        W83598  30.656  30.137   0.394
15269W        W83599   7.705  28.461   4.114
15270W        W83600  40.487   5.433  11.525
15271W        W83601  40.418   1.475   0.351
15272W        W83602  13.666  31.449   2.744
15273W        W83603   2.306  42.856   4.335
15274W        W83604  25.032   6.391   0.950
15275W        W83605  42.898  16.644  10.987
15276W        W83606   7.259  24.080   2.290
15277W        W83607  33.579  11.262   2.197
15278W        W83608  23.231  27.956   3.255
15279W        W83609   3.779  34.393  11.054
15280W        W83610  30.944   3.362   3.820
15281W        W83611   5.872   8.215  11.444
15282W        W83612  13.147  44.807   0.907
15283W        W83613  19.611  14.608  14.759
15284W        W83614  34.981  30.419  10.973
15285W        W83615  14.606  37.391  12.380
15286W        W83616  20.271  38.446   3.650
15287W        W83617  13.663  12.162  11.932
15288W        W83618  36.897  30.934  11.968
15289W        W83619  38.998  21.068  13.859
15290W        W83620   6.713  29.523  12.867
15291W        W83621   0.851  12.362  13.439
15292W        W83622  38.491   7.393  10.477
15293W        W83623  38.434  23.601   1.840
15294W        W83624  31.043  17.636   1.733
15295W        W83625  40.532  23.602  10.973
15296W        W83626  42.349   4.796  13.058
15297W        W83627  30.918  11.751   3.213
15298W        W83628  36.996   6.408  14.821
15299W        W83629  22.146  25.708   4.316
15300W        W83630  35.578  15.806   3.321
15301W        W83631  29.462  34.990   4.255
15302W        W83632  38.012  17.626   2.319
15303W        W83633   9.352  28.436  13.033
15304W        W83634  10.196  10.847   3.788
15305W        W83635  36.555  29.113  14.316
15306W        W83636  44.394   4.942   2.884
15307W        W83637  25.167  29.500   4.784
15308W        W83638   9.215  34.400   2.851
15309W        W83639   5.734  33.524   1.763
15310W        W83640   4.895  27.191  13.453
15311W        W83641   3.808  18.666  13.337
15312W        W83642   6.232  24.691  14.826
15313W        W83643   5.722  39.904  10.994
15314W        W83644  35.472  34.022  14.891
15315W        W83645   3.759  41.008   3.732
15316W        W83646   0.392  41.322  13.513
15317W        W83647  12.811  32.072   2.769
15318W        W83648  13.284  20.035   0.776
15319W        W83649  12.221  13.707   2.738
15320W        W83650  28.591  28.460  11.077
15321W        W83651  43.298  34.897   3.710
15322W        W83652  10.240  19.547  14.505
15323W        W83653  33.453  19.620  11.522
15324W        W83654  26.954  44.272   3.229
15325W        W83655   5.250   1.303   3.333
15326W        W83656  20.243  23.542   3.685
15327W        W83657   4.410  19.270   3.156
15328W        W83658  26.512  37.578  11.590
15329W        W83659  18.745  18.051   3.366
15330W        W83660  24.584  13.724   0.776
15331W        W83661  34.954  39.889   2.412
15332W        W83662  43.806   1.315   1.401
15333W        W83663  25.643  38.551   3.301
15334W        W83664  36.026  23.020   2.874
15335W        W83665  28.043  38.853   5.132
15336W        W83666  30.027  28.065   1.367
15337W        W83667   6.248  12.816  14.764
15338W        W83668  37.051  22.142   3.223
15339W        W83669  33.511   5.881   4.683
15340W        W83670  22.535  26.489  14.013
15341W        W83671  18.251  35.389  14.342
15342W        W83672  21.231   6.227   2.377
15343W        W83673  20.119  23.207  13.937
15344W        W83674  21.742  10.732   0.797
15345W        W83675   2.448  43.297  11.022
15346W        W83676  33.103  38.877   0.288
15347W        W83677   3.718   3.738  14.875
15348W        W83678  14.167   2.846   4.248
15349W        W83679  36.435   3.726  11.557
15350W        W83680  11.134   6.387   3.257
15351W        W83681  37.979  23.610  14.871
15352W        W83682   1.271   2.771  12.348
15353W        W83683   3.789  37.926  14.004
15354W        W83684  44.874  29.145   4.696
15355W        W83685  43.303  26.640  10.967
15356W        W83686  25.652  43.331   3.723
15357W        W83687  23.045  16.587  10.516
15358W        W83688  26.558  31.001  11.105
15359W        W83689  25.662  17.624   1.362
15360W        W83690  44.378   5.286   3.245
15361W        W83691  34.454  34.985   1.359
15362W        W83692   5.250  11.830   2.734
15363W        W83693   0.325  15.096   0.927
15364W        W83694  38.931   0.492   1.314
15365W        W83695  15.647   9.276  11.022
15366W        W83696  31.021  43.802  12.450
15367W        W83697  30.450  34.951  14.512
15368W        W83698  14.607  26.151  13.803
15369W        W83699  14.707  30.067   2.777
15370W        W83700  28.961  33.953  13.406
15371W        W83701   9.652  20.525   3.731
15372W        W83702   4.779  36.583  13.977
15373W        W83703  41.817  20.589  13.335
15374W        W83704  24.609  35.460   3.859
15375W        W83705  24.517  38.009   0.246
15376W        W83706  18.603   8.265   2.752
15377W        W83707  26.982   2.773   3.664
15378W        W83708  28.523  28.543   4.703
15379W        W83709  41.962  43.474   3.349
15380W        W83710  36.395  44.359   9.924
15381W        W83711  29.512  16.604   0.396
15382W        W83712  17.175  38.003  12.468
15383W        W83713   1.851  39.060  12.372
15384W        W83714  20.181  20.153   0.844
15385W        W83715  35.475  36.011   0.955
15386W        W83716  33.940  29.581  14.368
15387W        W83717  18.208  22.131  10.512
15388W        W83718  40.412  25.086  10.554
15389W        W83719   7.693  22.051   2.191
15390W        W83720  40.445  32.084  12.489
15391W        W83721  20.741  37.379  12.824
15392W        W83722  10.323   9.192   3.267
15393W        W83723   0.488   0.427  14.959
15394W        W83724  22.636  38.476  11.095
15395W        W83725   3.401  33.526   1.697
15396W        W83726  23.731  18.655  14.347
15397W        W83727  13.136  17.672   1.335
15398W        W83728  22.540  42.934  12.545
15399W        W83729  19.080   6.732   3.667
15400W        W83730   5.766  29.017  11.468
15401W        W83731  38.867  11.201   0.801
15402W        W83732  24.144  36.422   2.307
15403W        W83733  41.034  29.932   4.823
15404W        W83734  20.266  13.680  14.006
15405W        W83735   6.222  13.676  12.091
15406W        W83736  13.631  43.886  11.514
15407W        W83737   1.294  24.612   0.380
15408W        W83738   6.831   9.301   2.354
15409W        W83739  37.491  13.670  14.774
15410W        W83740  31.116  20.197   4.827
15411W        W83741  31.007  29.925  12.935
15412W        W83742  36.897   7.370   1.847
15413W        W83743   9.330  38.569  11.597
15414W        W83744  44.387  26.691   2.224
15415W        W83745   6.325  25.991  11.497
15416W        W83746   8.774  34.582   3.777
15417W        W83747  38.022  13.704  11.889
15418W        W83748  39.982  13.679   0.281
15419W        W83749  12.664  16.301   3.810
15420W        W83750  17.156  17.262   3.221
15421W        W83751   0.790  26.184   3.688
15422W        W83752   5.340   4.802  14.314
15423W        W83753  42.521  36.562  11.036
15424W        W83754  17.731  36.527  12.859
15425W        W83755  32.567  43.796   2.244
15426W        W83756  41.310  34.067   2.828
15427W        W83757   8.317  34.574  10.471
15428W        W83758  31.450  22.699   9.546
15429W        W83759   7.762   7.683  12.542
15430W        W83760  38.981  37.079  13.917
15431W        W83761   8.228   1.752  10.920
15432W        W83762  44.321   6.381   2.672
15433W        W83763  37.465  31.435   1.392
15434W        W83764   9.682  30.580  14.942
15435W        W83765  33.567  29.599  14.904
15436W        W83766   8.277  10.810   4.233
15437W        W83767  43.514  42.919  13.479
15438W        W83768  33.035   2.783   2.852
15439W        W83769  42.366  31.621   2.779
15440W        W83770  28.545  41.931   1.728
15441W        W83771  18.105   9.850   2.317
15442W        W83772   7.793  42.871   1.920
15443W        W83773   4.739  40.328  12.502
15444W        W83774  19.179  22.194   3.167
15445W        W83775  39.978  38.014   1.722
15446W        W83776  14.616  28.480   1.792
15447W        W83777   8.834  26.666  11.982
15448W        W83778  10.741  12.281  11.449
15449W        W83779   5.850  21.142   4.284
15450W        W83780  16.249  24.980   0.268
15451W        W83781  31.950   5.195   3.760
15452W        W83782   4.255  23.537  14.491
15453W        W83783  39.443  17.087   4.703
15454W        W83784   2.231  17.263   4.269
15455W        W83785  30.029  14.765  13.880
15456W        W83786   4.853  32.460   0.403
15457W        W83787   5.691  29.601   0.246
15458W        W83788  14.188  36.460  11.386
15459W        W83789  32.440  22.008   0.786
15460W        W83790  37.418  43.776   9.976
15461W        W83791   3.449  28.096   0.395
15462W        W83792  11.354   6.859   2.876
15463W        W83793  44.287   1.397   0.927
15464W        W83794  44.828  41.041   1.922
15465W        W83795  39.874   4.301   0.389
15466W        W83796  36.543   3.823   1.767
15467W        W83797  15.796  26.560  10.487
15468W        W83798  21.198  32.927  13.509
15469W        W83799  12.142   7.212  10.554
15470W        W83800   6.810  39.876  11.041
15471W        W83801  34.405  34.879  13.510
15472W        W83802  41.407  27.165  10.604
15473W        W83803  43.320  44.313   3.822
15474W        W83804  40.454   3.383  10.068
15475W        W83805  30.028  28.930   3.263
15476W        W83806  44.461  27.550  13.898
15477W        W83807  25.209  15.297  14.979
15478W        W83808  20.603  29.160   4.178
15479W        W83809   2.861  21.056  11.561
15480W        W83810   4.875  42.945  10.105
15481W        W83811  31.004  40.041   2.202
15482W        W83812  40.837  34.575   1.707
15483W        W83813  13.271  17.183   4.757
15484W        W83814  32.111  29.436  12.945
15485W        W83815  22.528   9.384  11.519
15486W        W83816  13.701  35.469   4.834
15487W        W83817  42.524  15.698  14.443
15488W        W83818  43.890  31.052  13.390
15489W        W83819  14.680  34.964   5.241
15490W        W83820   1.774  36.401   2.826
15491W        W83821  12.145   6.338   2.705
15492W        W83822   3.855  39.446  11.432
15493W        W83823   3.263   9.843  14.410
15494W        W83824  14.181  26.100  14.410
15495W        W83825  42.848  21.599  12.434
15496W        W83826  42.315   6.272  11.454
15497W        W83827  33.401  15.786  14.882
15498W        W83828  27.178  39.039   1.775
15499W        W83829  15.817  34.423   2.692
15500W        W83830  17.647  18.590  12.529
15501W        W83831  32.499   9.329  14.816
15502W        W83832  23.103  42.836   1.430
15503W        W83833  11.783   2.413  14.780
15504W        W83834  13.143  43.855   0.274
15505W        W83835  17.569  33.095   0.477
15506W        W83836  42.366  28.968  14.339
15507W        W83837  25.194   9.763  11.969
15508W        W83838  39.529  13.613   3.191
15509W        W83839  29.618  38.071   3.643
15510W        W83840  25.567  29.078  13.506
15511W        W83841  18.257  30.146  10.455
15512W        W83842  33.612   0.272  13.338
15513W        W83843  12.318  18.657   0.319
15514W        W83844  11.319  13.634   4.229
15515W        W83845  13.132  22.162   0.256
15516W        W83846  35.432  44.277   4.702
15517W        W83847  10.250  31.611  14.029
15518W        W83848   6.309  28.673  12.903
15519W        W83849   8.291  44.858  11.049
15520W        W83850  41.309   9.812  12.010
15521W        W83851  44.447   7.248  14.354
15522W        W83852   5.754  16.705  10.626
15523W        W83853  20.073  32.036  11.978
15524W        W83854   8.330  39.499   2.713
15525W        W83855  41.804  21.036  13.345
15526W        W83856  31.100  14.194   0.839
15527W        W83857  37.464  26.192   3.162
15528W        W83858   7.754  23.075   1.794
15529W        W83859  21.721  24.982   1.875
15530W        W83860  14.204  25.005  14.910
15531W        W83861  30.976  37.345  12.860
15532W        W83862   7.238   5.915   0.339
15533W        W83863   3.436  12.262   0.756
15534W        W83864  17.146  44.287   3.382
15535W        W83865  28.505   8.798  14.840
15536W        W83866   2.389  28.520   1.425
15537W        W83867  10.748   0.465  14.966
15538W        W83868  33.109  11.746   0.907
15539W        W83869   0.834  17.584   4.267
15540W        W83870  29.434  18.110  10.587
15541W        W83871  18.668  23.154   1.717
15542W        W83872   6.187  20.205  12.469
15543W        W83873   5.856  26.032  13.362
15544W        W83874  29.564  20.645   4.660
15545W        W83875  27.567  10.240   2.203
15546W        W83876  31.418  23.225  11.463
15547W        W83877  27.528  21.057  13.800
15548W        W83878  32.459   4.723   2.357
15549W        W83879  29.930  20.150   3.322
15550W        W83880  32.403  43.285   3.645
15551W        W83881  32.929  33.960  13.908
15552W        W83882  23.535  21.254   2.856
15553W        W83883   4.227  32.943  14.929
15554W        W83884   6.789  44.922   3.211
15555W        W83885  40.804  38.457   2.200
15556W        W83886  29.104  39.330  11.386
15557W        W83887  27.476  33.956   3.372
15558W        W83888  37.547   0.847   2.402
15559W        W83889  12.783   8.403   4.829
15560W        W83890  31.440  22.152  12.024
15561W        W83891  42.333   0.352   2.740
15562W        W83892  35.593  23.024   4.322
15563W        W83893  21.021  21.583   2.359
15564W        W83894  21.057  44.824  14.332
15565W        W83895   1.974  34.391   0.373
15566W        W83896  37.004   1.736   3.750
15567W        W83897   6.414  18.142   5.128
15568W        W83898  35.462  17.161  10.430
15569W        W83899  15.820  35.085  13.440
15570W        W83900  37.481  13.614  11.129
15571W        W83901  31.456  21.524  11.873
15572W        W83902  40.313   4.306  13.970
15573W        W83903  25.674   1.447   0.389
15574W        W83904   9.788   0.447  11.031
15575W        W83905  33.088  25.521  11.537
15576W        W83906  28.445  24.725  12.354
15577W        W83907  27.610   1.755   2.293
15578W        W83908  35.874  39.055  13.520
15579W        W83909  21.547  10.198   1.715
15580W        W83910  32.475  16.738  10.951
15581W        W83911  14.775   9.673   4.181
15582W        W83912   1.869  30.124   4.747
15583W        W83913   0.799  27.620   0.360
15584W        W83914  14.636  12.223   1.271
15585W        W83915  27.125  37.024   4.164
15586W        W83916   4.786  35.070   0.775
15587W        W83917  24.713  38.969  12.388
15588W        W83918   9.165  33.100  12.856
15589W        W83919   9.684  25.083  10.477
15590W        W83920  17.292  33.511  11.879
15591W        W83921   6.897  24.196  14.911
15592W        W83922  38.545  25.634   4.258
15593W        W83923   3.411  29.453   2.815
15594W        W83924   8.387  10.326   2.387
15595W        W83925  43.495  17.643  11.941
15596W        W83926  28.019  37.857   2.696
15597W        W83927   8.721   2.944  11.066
15598W        W83928   4.336  27.500  10.933
15599W        W83929  16.303  43.506   1.737
15600W        W83930   1.752  44.260  14.294
15601W        W83931  34.867  40.886   4.275
15602W        W83932  12.805  39.402   1.264
15603W        W83933   6.312   3.315  13.033
15604W        W83934   5.421  36.942  14.320
15605W        W83935   0.456  12.136  10.613
15606W        W83936  28.014  40.477   5.257
15607W        W83937   4.846  11.229  13.440
15608W        W83938   0.319  17.187  14.792
15609W        W83939  20.659  30.566  10.160
15610W        W83940  30.075  24.175   0.421
15611W        W83941  44.505  35.877  10.936
15612W        W83942   4.900  43.894   1.263
15613W        W83943  34.916  31.560  14.404
15614W        W83944  11.221  36.965  13.815
15615W        W83945  18.695  41.454  13.355
15616W        W83946  24.494  39.979   3.638
15617W        W83947  28.620  29.613  13.846
15618W        W83948  28.954  30.490   4.131
15619W        W83949  27.027  19.058   4.733
15620W        W83950   8.873  37.052   3.266
15621W        W83951  18.076  19.535  13.387
15622W        W83952  18.269  29.497  11.515
15623W        W83953  10.783  11.649  10.631
15624W        W83954  37.876  29.079  14.426
15625W        W83955   8.232  34.499  11.090
15626W        W83956  18.731  24.603   3.816
15627W        W83957  26.978  12.147  10.088
15628W        W83958  41.415  10.217  11.584
15629W        W83959  41.326  21.546   1.366
15630W        W83960  30.485  17.086  13.888
15631W        W83961  26.684  42.840   1.279
15632W        W83962  30.474  11.184   0.463
15633W        W83963  15.659   2.295   4.817
15634W        W83964  17.590   7.800   0.881
15635W        W83965  26.080  39.910   2.679
15636W        W83966  17.560  15.643  14.438
15637W        W83967   0.326  38.549   4.179
15638W        W83968  41.847  39.030   9.931
15639W        W83969  12.276  43.897   4.185
15640W        W83970  10.348  19.094  11.455
15641W        W83971   9.344  25.645  13.486
15642W        W83972  22.144  43.432   0.382
15643W        W83973  35.427  28.636   2.294
15644W        W83974  35.906  13.154  14.909
15645W        W83975  36.856   8.354  13.800
15646W        W83976   2.333  12.321   2.788
15647W        W83977   3.710  16.727  13.460
15648W        W83978  11.654  17.149  14.303
15649W        W83979  41.887  17.603   0.951
15650W        W83980  18.188  25.487   0.801
15651W        W83981  34.389  40.489  12.055
15652W        W83982  44.474  28.610   0.379
15653W        W83983  40.429  17.122  10.491
15654W        W83984  30.622  19.056   1.349
15655W        W83985  20.616  12.304  13.958
15656W        W83986   7.334  19.243   1.232
15657W        W83987  41.384  16.794  11.083
15658W        W83988  42.982   9.791  13.359
15659W        W83989  44.862  44.302   3.327
15660W        W83990  31.097  40.334  13.448
15661W        W83991  43.496  27.685  10.628
15662W        W83992   5.852  33.013  12.482
15663W        W83993   5.749  19.229   3.244
15664W        W83994  41.484  30.965  14.845
15665W        W83995  27.006  29.167   2.683
15666W        W83996  44.419  20.685  13.853
15667W        W83997  19.276   5.695  14.792
15668W        W83998  22.155   9.796   9.959
15669W        W83999   1.443  42.002  14.426
15670W        W84000   9.176  12.161  12.065
15671W        W84001  11.807  44.291  13.928
15672W        W84002  39.032   9.188  14.461
15673W        W84003  27.008  11.685   3.173
15674W        W84004  41.878  11.277   9.929
15675W        W84005  14.152  22.505   0.277
15676W        W84006  38.846   4.233  14.776
15677W        W84007   2.824  33.547  12.940
15678W        W84008  13.711  11.859  14.317
15679W        W84009  34.487  31.113  13.522
15680W        W84010  39.883  41.893  14.771
15681W        W84011  24.662  33.029   1.418
15682W        W84012  35.868   0.817   1.907
15683W        W84013  25.521  43.798  11.032
15684W        W84014  23.180   0.271  12.876
15685W        W84015  10.647  19.122   3.366
15686W        W84016  24.479  27.557   0.904
15687W        W84017   1.875  35.910  10.008
15688W        W84018  41.443  34.542  10.481
15689W        W84019   1.259  10.306   1.850
15690W        W84020  34.936  17.649   1.896
15691W        W84021  38.027  23.728   4.247
15692W        W84022  18.564   5.345  13.831
15693W        W84023   2.250  14.148   1.335
15694W        W84024  18.563  35.959  13.311
15695W        W84025  20.113  44.279  14.320
15696W        W84026  37.410  36.446   1.916
15697W        W84027  26.590  28.059   4.178
15698W        W84028  22.090  16.721   0.898
15699W        W84029   9.652  17.242  11.978
15700W        W84030  17.742  37.846   4.131
15701W        W84031  22.210  17.751   3.827
15702W        W84032  33.439  33.599   3.333
15703W        W84033  10.382  40.321  10.514
15704W        W84034   2.409  39.359   3.709
15705W        W84035   7.700  20.605  14.855
15706W        W84036  12.612  12.348   2.811
15707W        W84037  19.772  31.972   4.704
15708W        W84038   9.871  25.479  13.891
15709W        W84039  38.055  41.936  14.344
15710W        W84040  21.138  28.958  10.422
15711W        W84041   7.201  16.079  12.891
15712W        W84042   4.352  38.424  12.045
15713W        W84043  38.376  44.462   1.265
15714W        W84044   4.362   3.322   3.171
15715W        W84045  28.440  28.029   3.362
15716W        W84046  41.441  27.177  13.347
15717W        W84047  40.348  29.015  13.511
15718W        W84048  29.609  24.650   4.345
15719W        W84049  24.982   6.333  14.960
15720W        W84050  10.271   0.987   2.742
15721W        W84051   6.755  29.461  12.549
15722W        W84052  42.471  15.083   4.713
15723W        W84053  15.142  11.163   3.633
15724W        W84054   0.816  34.461   9.997
15725W        W84055  33.483  39.936   2.393
15726W        W84056  15.187  14.745   3.203
15727W        W84057   6.707  26.003   1.397
15728W        W84058  44.981  28.949  11.988
15729W        W84059  25.606  16.135   2.390
15730W        W84060  28.060  42.469   2.749
15731W        W84061  19.206  37.512  13.830
15732W        W84062  20.551   3.775  12.025
15733W        W84063  21.263  29.008   1.352
15734W        W84064  28.439  19.283  12.528
15735W        W84065  13.347  15.108  11.873
15736W        W84066  43.016  17.070  11.095
15737W        W84067  42.435  41.334   3.814
15738W        W84068  27.593  38.943  10.895
15739W        W84069   4.289   9.378   0.460
15740W        W84070  19.644  37.001   4.785
15741W        W84071  36.930  30.601   0.255
15742W        W84072  44.825   6.798   3.284
15743W        W84073  12.190   8.165  12.572
15744W        W84074  13.660  23.629  11.434
15745W        W84075  18.577   3.714  12.000
15746W        W84076   5.715  40.998   0.785
15747W        W84077  20.188   2.239  14.778
15748W        W84078  21.028  32.073   5.258
15749W        W84079  21.757   4.292   4.633
15750W        W84080  43.939  43.297   2.317
15751W        W84081  40.548  28.628   0.276
15752W        W84082  31.566  24.048   2.684
15753W        W84083  13.680  11.249   1.737
15754W        W84084  23.581  16.209  14.833
15755W        W84085  11.806  35.999   3.333
15756W        W84086  17.766  12.781   2.400
15757W        W84087  29.482  15.138  13.847
15758W        W84088  43.870  26.660   3.844
15759W        W84089  25.568  33.065  12.018
15760W        W84090  26.531   6.884  11.392
15761W        W84091   7.807   8.736   0.894
15762W        W84092  43.399  43.382   1.805
15763W        W84093  28.057   9.839   0.465
15764W        W84094  18.614  41.493   1.373
15765W        W84095   1.859   5.201  14.987
15766W        W84096  44.372  41.413  12.512
15767W        W84097  23.992  38.049  12.360
15768W        W84098  35.544  13.148  14.952
15769W        W84099  17.186   5.260   0.818
15770W        W84100  30.474  42.432  11.108
15771W        W84101   1.435  20.093   1.364
15772W        W84102  25.577  44.783   0.340
15773W        W84103  10.696   2.867   2.219
15774W        W84104   5.435  18.765   1.855
15775W        W84105  15.152  38.964   1.243
15776W        W84106   2.249  16.168   2.745
15777W        W84107   9.690  30.908  14.889
15778W        W84108  19.119   1.938   2.222
15779W        W84109  27.631  17.629   4.764
15780W        W84110  16.276  31.118   4.788
15781W        W84111  36.433  17.061  10.526
15782W        W84112  37.563  13.276   1.404
15783W        W84113  38.885  41.440   4.801
15784W        W84114  15.757  10.639   3.757
15785W        W84115  42.777   3.837   2.340
15786W        W84116  39.474  21.256  13.480
15787W        W84117  41.920  24.167   2.796
15788W        W84118  14.705  24.600  14.028
15789W        W84119  41.013  16.585  13.983
15790W        W84120  44.848  27.188  12.043
15791W        W84121  21.553  30.959   5.226
15792W        W84122   0.352  37.432   1.396
15793W        W84123   2.879  17.732   0.444
15794W        W84124  42.965  43.355   0.825
15795W        W84125   7.326  26.962  11.948
15796W        W84126  10.862  24.580  14.381
15797W        W84127  14.239   5.397  11.929
15798W        W84128  33.103  36.536  12.827
15799W        W84129  36.508  10.844   2.184
15800W        W84130  34.579  43.420   1.390
15801W        W84131  31.461  29.101   1.765
15802W        W84132  13.788  43.810   0.477
15803W        W84133  14.125  14.250  13.888
15804W        W84134  18.711  10.348   3.384
15805W        W84135  40.530  41.911   0.809
15806W        W84136  15.815  20.572   0.804
15807W        W84137   0.455  36.472  12.924
15808W        W84138  22.552  44.896   1.228
15809W        W84139  34.387  27.099  10.980
15810W        W84140  40.016  25.704  11.958
15811W        W84141   8.798   7.312  12.403
15812W        W84142  12.229  17.582   1.827
15813W        W84143  15.647  33.548  11.015
15814W        W84144   1.752  11.721   0.963
15815W        W84145  34.379  28.502  13.429
15816W        W84146   6.686   0.425  12.823
15817W        W84147  11.266   9.173   4.258
15818W        W84148  18.158  31.627   3.353
15819W        W84149  12.611  36.881   3.777
15820W        W84150  34.888  19.708   1.876
15821W        W84151  31.049   6.704   4.354
15822W        W84152  32.631  31.091   3.651
15823W        W84153  39.820  35.091  12.861
15824W        W84154   3.854   1.731  14.851
15825W        W84155  23.171  18.644  12.958
15826W        W84156  36.450  42.788  14.875
15827W        W84157  18.263  43.340   0.851
15828W        W84158  10.294   8.864  10.626
15829W        W84159  18.158   6.826  14.514
15830W        W84160  31.073  14.702  13.548
15831W        W84161  13.658  26.671  12.085
15832W        W84162  40.833  19.671  12.007
15833W        W84163  43.272  25.490   3.290
15834W        W84164  29.148  33.549  12.378
15835W        W84165   6.216  13.307  13.872
15836W        W84166  11.290   8.179   4.658
15837W        W84167  40.939   3.903   3.294
15838W        W84168   4.939  39.495  14.993
15839W        W84169  29.977  18.233   3.810
15840W        W84170   6.188  35.008  12.886
15841W        W84171  33.037  25.537   0.766
15842W        W84172  31.564  32.607  12.390
15843W        W84173  32.461  30.944  11.463
15844W        W84174  37.564   1.376   4.320
15845W        W84175  23.652  24.575   0.854
15846W        W84176  42.309  18.763   3.723
15847W        W84177  35.943   4.403   2.829
15848W        W84178  21.107  35.469  14.913
15849W        W84179  39.463  12.853  11.057
15850W        W84180  16.246   2.722   0.357
15851W        W84181   9.671  22.242  10.510
15852W        W84182   2.765  41.915   4.352
15853W        W84183  15.202  40.942   0.242
15854W        W84184  32.021   6.242  11.454
15855W        W84185  22.512   9.182   0.475
15856W        W84186  32.982  24.723  11.037
15857W        W84187  20.700   9.815   3.653
15858W        W84188  44.316   4.305   0.811
15859W        W84189  13.707  23.030  12.573
15860W        W84190  26.980  14.108   0.785
15861W        W84191  34.489  25.530   4.320
15862W        W84192  30.591  41.482  13.393
15863W        W84193   6.888  25.642  14.388
15864W        W84194  32.142  13.137   3.722
15865W        W84195   3.805   7.297   1.924
15866W        W84196  37.044  23.143  10.477
15867W        W84197  12.297  19.052  13.341
15868W        W84198  39.452  33.417  10.625
15869W        W84199  19.557   3.878   3.369
15870W        W84200  17.638  17.214  13.441
15871W        W84201  35.442  38.928   0.352
15872W        W84202  14.287  14.681   4.133
15873W        W84203  11.206  41.971  13.461
15874W        W84204  38.849  28.000  14.458
15875W        W84205  37.889  26.648   3.865
15876W        W84206  19.263  21.255   5.268
15877W        W84207   9.713  32.405   0.894
15878W        W84208   1.737  11.645  10.644
15879W        W84209  31.646   8.312   2.737
15880W        W84210  23.991  16.095  11.863
15881W        W84211   4.744  35.085   3.839
15882W        W84212   4.845  20.151   3.163
15883W        W84213  41.989  34.955  13.364
15884W        W84214  38.526   4.763  11.494
15885W        W84215  40.048  42.779   3.643
15886W        W84216  18.276  43.955   0.358
15887W        W84217  27.638  27.535   4.313
15888W        W84218   6.889  36.977  13.450
15889W        W84219  42.295  43.400  12.068
15890W        W84220  12.170  25.064   2.786
15891W        W84221   0.265  20.218   3.360
15892W        W84222  19.698  42.295   3.786
15893W        W84223  13.667   6.260  14.388
15894W        W84224   2.786  31.402  14.451
15895W        W84225  38.553  30.058  11.600
15896W        W84226  17.707  15.323   0.262
15897W        W84227   7.688  13.766  10.404
15898W        W84228   6.245   2.841   3.180
15899W        W84229  39.422  40.858   3.151
15900W        W84230  41.353   6.281   3.675
15901W        W84231  23.560  21.171  14.918
15902W        W84232  34.979   9.157  13.062
15903W        W84233  43.428  41.506   3.751
15904W        W84234  36.915   0.407  11.388
15905W        W84235  17.179  20.582   0.740
15906W        W84236  22.174  20.573  11.568
15907W        W84237   8.739   1.444   2.308
15908W        W84238  23.074  25.472   1.301
15909W        W84239   1.446  11.636  14.460
15910W        W84240  26.512  31.600  13.377
15911W        W84241  41.982   5.421   4.139
15912W        W84242  20.710  37.425  11.007
15913W        W84243  12.713  32.393   2.353
15914W        W84244  35.081   9.181  11.059
15915W        W84245   7.338  10.364  14.459
15916W        W84246   6.401   8.267  13.535
15917W        W84247  40.524  22.196   1.342
15918W        W84248   8.665  28.118  13.804
15919W        W84249  17.108  28.046  10.436
15920W        W84250  44.360   9.741   1.254
15921W        W84251  28.142  43.337   3.222
15922W        W84252  27.493  25.969  14.843
15923W        W84253  37.995   5.295   4.597
15924W        W84254  30.970  16.228  14.400
15925W        W84255  38.570  22.721   2.780
15926W        W84256  24.064  36.362  13.868
15927W        W84257  28.560  31.936   5.161
15928W        W84258  32.983  25.041   0.282
15929W        W84259  36.510   9.393  14.296
15930W        W84260  32.506  13.315  14.759
15931W        W84261  26.160  41.944  14.950
15932W        W84262   3.911   3.296   1.354
15933W        W84263   9.681  21.536  13.863
15934W        W84264  15.794  23.986   1.724
15935W        W84265  38.471  33.123  10.487
15936W        W84266  25.564  15.249  12.345
15937W        W84267  37.982  28.176   2.792
15938W        W84268  33.012   3.352   1.327
15939W        W84269   1.330  10.686   4.829
15940W        W84270   5.739   6.875   1.839
15941W        W84271  26.534  22.243   1.898
15942W        W84272  16.257   5.769  10.623
15943W        W84273  37.025   7.665  14.808
15944W        W84274  44.311  21.132  14.945
15945W        W84275  24.721  21.141  10.501
15946W        W84276   0.315  36.955  10.897
15947W        W84277  41.528  16.154   4.246
15948W        W84278   0.288  35.551  14.823
15949W        W84279   6.869  34.985  10.610
15950W        W84280  42.413  19.580   4.350
15951W        W84281  41.825  40.334   3.748
15952W        W84282  32.407  36.863  13.432
15953W        W84283   1.934  32.026  12.986
15954W        W84284  25.475   1.936  10.048
15955W        W84285  32.430  44.786  11.434
15956W        W84286  11.701  10.193   1.338
15957W        W84287   8.691  40.994   1.718
15958W        W84288  29.517   6.372  13.348
15959W        W84289  40.425  21.660   2.311
15960W        W84290  16.075  36.921   2.363
15961W        W84291  32.467   6.913  14.910
15962W        W84292  33.057   9.778   2.681
15963W        W84293  20.211   3.807   0.741
15964W        W84294  30.614   1.904   3.333
15965W        W84295  33.619   8.770   4.171
15966W        W84296  19.616  29.089  14.511
15967W        W84297  31.584   6.833  14.464
15968W        W84298  29.070  27.067  13.372
15969W        W84299  29.039   0.960  13.054
15970W        W84300   5.200  35.432  12.385
15971W        W84301  44.432  10.673   3.338
15972W        W84302  39.554  17.160   2.384
15973W        W84303  23.554  31.912  14.806
15974W        W84304   6.336   9.686   1.924
15975W        W84305   2.318   8.217   4.731
15976W        W84306   0.925  39.475   2.310
15977W        W84307  35.426  36.417  14.358
15978W        W84308  38.398  16.780   2.680
15979W        W84309   3.710  40.500  12.391
15980W        W84310  15.816  12.245   3.646
15981W        W84311  21.524  11.661   4.698
15982W        W84312  26.006   0.760   1.420
15983W        W84313  13.273  31.637   3.832
15984W        W84314  19.127  42.880   3.696
15985W        W84315  18.100   3.295  14.821
15986W        W84316  42.343  12.789  10.546
15987W        W84317  27.686   2.288   3.253
15988W        W84318  35.040  15.689  14.398
15989W        W84319  30.655  26.673  11.380
15990W        W84320  22.507  28.581  12.002
15991W        W84321  27.559  10.872  13.460
15992W        W84322  25.501  27.960   0.838
15993W        W84323  14.326   2.472  11.457
15994W        W84324  38.343  37.414  11.478
15995W        W84325  20.107  38.429  11.995
15996W        W84326  11.690  20.662  11.995
15997W        W84327   6.311  29.597   4.717
15998W        W84328  32.403   9.669   4.677
15999W        W84329  29.536  18.586  13.051
16000W        W84330   0.802   2.336   4.155
16001W        W84331  43.875   9.850  12.560
16002W        W84332  14.189  23.520  13.974
16003W        W84333  28.669  27.105  11.910
16004W        W84334  15.310  17.598  11.956
16005W        W84335  25.636  14.245  10.954
16006W        W84336  12.220  27.658   1.301
16007W        W84337  15.255  14.263  11.052
16008W        W84338  22.648   5.759   2.397
16009W        W84339  10.815  16.081   1.367
16010W        W84340  16.696  20.246  14.423
16011W        W84341   8.824  32.565   4.784
16012W        W84342  27.024  35.057  10.489
16013W        W84343  24.052  12.676   1.855
16014W        W84344  10.733  13.833   3.240
16015W        W84345  34.094   9.851   4.705
16016W        W84346  34.951   5.814   2.261
16017W        W84347  35.960  36.926   0.853
16018W        W84348  18.705  29.442   2.407
16019W        W84349  19.567  33.617  13.459
16020W        W84350  20.698  39.387   1.694
16021W        W84351   0.423   0.922  10.436
16022W        W84352  29.050  29.563  10.556
16023W        W84353  16.650   9.389   0.304
16024W        W84354  13.799  35.043  13.019
16025W        W84355  44.447  42.439  10.437
16026W        W84356  32.961   7.709   1.856
16027W        W84357  18.244  17.690  14.828
16028W        W84358   1.784  33.132   1.842
16029W        W84359  28.053  37.348  14.910
16030W        W84360   4.873  30.600   4.150
16031W        W84361   9.185  41.519   2.774
16032W        W84362  21.550   6.355   4.114
16033W        W84363  31.074   7.743  12.036
16034W        W84364  40.026   0.296  13.000
16035W        W84365  23.079  16.299  14.460
16036W        W84366  33.507  22.996   1.762
16037W        W84367   7.803  29.167  11.400
16038W        W84368   5.262   9.349   2.249
16039W        W84369   9.380  10.332  14.793
16040W        W84370  14.279  44.824   1.767
16041W        W84371  10.835  20.079  11.586
16042W        W84372  34.956  11.297   3.755
16043W        W84373  35.428  28.606  12.011
16044W        W84374  25.649  16.180   4.686
16045W        W84375  14.656  42.874   3.187
16046W        W84376  22.567  41.439  12.007
16047W        W84377  28.152   6.851   1.341
16048W        W84378  17.633  21.149  13.335
16049W        W84379  31.980  14.317  12.824
16050W        W84380  38.886   9.875  14.361
16051W        W84381  25.081  11.181   3.262
16052W        W84382  29.504   0.453  11.883
16053W        W84383  10.182  38.434  12.534
16054W        W84384  14.627  33.022   4.161
16055W        W84385  15.749  35.415   1.814
16056W        W84386  18.249  23.175   2.666
16057W        W84387   6.275  22.532  13.426
16058W        W84388  16.737  43.477  12.409
16059W        W84389  21.547   2.817   3.185
16060W        W84390  11.843  12.298  11.399
16061W        W84391  14.811  37.871   0.938
16062W        W84392  16.110  33.084  13.003
16063W        W84393  10.671   4.813  14.304
16064W        W84394  29.621  29.475  11.043
16065W        W84395  35.070  29.087  13.808
16066W        W84396  21.147  40.318   1.778
16067W        W84397  26.029  13.334   4.329
16068W        W84398  27.046  16.632  10.566
16069W        W84399  32.463  17.100  14.460
16070W        W84400   9.305  35.444   3.750
16071W        W84401  19.591  34.511   1.327
16072W        W84402  44.834   1.430   1.365
16073W        W84403  13.840  32.138   0.343
16074W        W84404  24.033   1.832  12.935
16075W        W84405   6.791  15.186   4.179
16076W        W84406  41.817   4.829  10.458
16077W        W84407   5.204   9.232  14.378
16078W        W84408   6.268  31.898   1.447
16079W        W84409  18.089  35.070  11.603
16080W        W84410  44.308  22.229  11.875
16081W        W84411  12.176  13.321   1.222
16082W        W84412  38.335   3.797   1.719
16083W        W84413  12.287  37.934  12.352
16084W        W84414   7.767  35.500  11.503
16085W        W84415   6.286   9.644   2.226
16086W        W84416  17.798  38.008  10.488
16087W        W84417  29.532  28.444  12.092
16088W        W84418   2.334   1.757   0.963
16089W        W84419  10.794  30.925   0.324
16090W        W84420  28.940   2.812  14.897
16091W        W84421  43.456  25.979   2.213
16092W        W84422  12.227  35.512  11.561
16093W        W84423   6.355  16.258   1.322
16094W        W84424  13.606  40.547  13.027
16095W        W84425  35.099  21.616  12.352
16096W        W84426  34.413  41.853  10.906
16097W        W84427  37.002  22.208  13.486
16098W        W84428  21.107   3.847  11.893
16099W        W84429   6.315  27.471  13.057
16100W        W84430  19.777  19.757  11.919
16101W        W84431  40.526  11.622  10.128
16102W        W84432  32.413  17.083  13.946
16103W        W84433  11.640  41.940   4.147
16104W        W84434  10.658  43.907   0.457
16105W        W84435   6.216  28.947   1.348
16106W        W84436  27.519  18.286   1.923
16107W        W84437  28.624  34.427   4.308
16108W        W84438  18.067  22.028   1.330
16109W        W84439  12.808  42.020  12.835
16110W        W84440   5.405  10.342  11.055
16111W        W84441   6.211  40.002  13.791
16112W        W84442  44.968  37.383  11.127
16113W        W84443  26.995  33.535  11.041
16114W        W84444  25.660  11.845  10.606
16115W        W84445  30.431  43.272   1.807
16116W        W84446   7.688  34.422  14.840
16117W        W84447  32.524  37.453  14.764
16118W        W84448  33.046  34.461  10.920
16119W        W84449  34.427  43.510   2.841
16120W        W84450  40.999   3.938   4.636
16121W        W84451  19.043  15.231  10.505
16122W        W84452  35.907  22.024  13.812
16123W        W84453   3.375  28.108  13.999
16124W        W84454  32.456  36.028  14.470
16125W        W84455  28.079  35.440   0.891
16126W        W84456  20.247  21.626   4.213
16127W        W84457  14.262   8.817   4.637
16128W        W84458  32.599   1.902   2.743
16129W        W84459  16.084  24.062  14.404
16130W        W84460  37.568  42.847  12.994
16131W        W84461  37.046  29.173  14.444
16132W        W84462  28.508  13.602   2.747
16133W        W84463  44.499  28.047   2.811
16134W        W84464   9.264  42.291   0.361
16135W        W84465  32.465   5.922  11.981
16136W        W84466  36.365  26.488   3.198
16137W        W84467   5.295  23.140  10.994
16138W        W84468   5.295   0.441   2.695
16139W        W84469  31.937   5.301  14.024
16140W        W84470  13.155  16.243  13.966
16141W        W84471   7.317  14.750   2.728
16142W        W84472  30.421  37.850  13.027
16143W        W84473  38.545   9.737   3.763
16144W        W84474  27.504  35.091   4.615
16145W        W84475   5.709  22.608   0.727
16146W        W84476   4.434   5.354  10.473
16147W        W84477  27.045  44.928   2.268
16148W        W84478  10.858  34.886  11.578
16149W        W84479  42.822  27.667   0.740
16150W        W84480   5.772  20.260   0.761
16151W        W84481  19.674   9.664   1.858
16152W        W84482   8.217  34.931  14.318
16153W        W84483  11.662  32.412   4.281
16154W        W84484  37.358  36.862  14.409
16155W        W84485  36.383  15.242   1.715
16156W        W84486  39.495  44.449   2.754
16157W        W84487   2.772   9.796   2.301
16158W        W84488   0.306   9.850   4.164
16159W        W84489  21.074  34.955   0.258
16160W        W84490   9.217  38.885  11.529
16161W        W84491  39.043  20.565   4.730
16162W        W84492  43.418  11.222   1.237
16163W        W84493  34.871  13.828   3.817
16164W        W84494  22.518  15.638   4.657
16165W        W84495  35.922  30.636   1.229
16166W        W84496  41.044   4.929   3.856
16167W        W84497  28.172   5.329   2.738
16168W        W84498   8.328   0.428  13.874
16169W        W84499  10.770   2.844   0.365
16170W        W84500   3.457  39.356   3.337
16171W        W84501  28.965  34.089  13.813
16172W        W84502   1.299  20.230  13.960
16173W        W84503  28.624   5.924   3.280
16174W        W84504  15.592  20.757   4.670
16175W        W84505   3.740  14.209  14.440
16176W        W84506  29.486  17.155  13.478
16177W        W84507  20.148  31.989  10.935
16178W        W84508   4.919  12.615  10.435
16179W        W84509  37.863  44.781   1.253
16180W        W84510   4.857  40.033   2.776
16181W        W84511  13.830  13.243   3.291
16182W        W84512  35.994  23.695   2.748
16183W        W84513   2.308  28.041  14.948
16184W        W84514  40.937  36.907   0.933
16185W        W84515  25.623  29.018  14.511
16186W        W84516  22.055  41.310  10.890
16187W        W84517  22.194  18.666  14.432
16188W        W84518  18.752  30.131   3.837
16189W        W84519  12.116  15.301   4.344
16190W        W84520   1.785  35.452  14.853
16191W        W84521   1.348  44.398   3.811
16192W        W84522  11.309  43.867   0.939
16193W        W84523  23.568  36.044  13.805
16194W        W84524  14.145   8.344   0.295
16195W        W84525  40.396  14.757  11.490
16196W        W84526  42.922   8.698   2.668
16197W        W84527  18.673  23.046  13.499
16198W        W84528  30.923  33.954  11.950
16199W        W84529   8.839   3.923  13.470
16200W        W84530  22.154  34.588   0.758
16201W        W84531  37.353  30.440   4.220
16202W        W84532  34.594   8.760  12.998
16203W        W84533  14.815  35.602  12.442
16204W        W84534  25.150  21.153   3.253
16205W        W84535  35.423  43.338  14.311
16206W        W84536  42.981  15.617  12.422
16207W        W84537   7.316  38.548   2.710
16208W        W84538  34.603   8.336   0.932
16209W        W84539  17.610  39.821  13.415
16210W        W84540  35.071   8.300  11.077
16211W        W84541  15.768  27.196   3.250
16212W        W84542  30.421  37.950   1.352
16213W        W84543  11.689   5.925   1.361
16214W        W84544  34.412   8.216  14.393
16215W        W84545  34.068  37.403   4.686
16216W        W84546  11.318  15.641   4.798
16217W        W84547  43.982  44.480   0.332
16218W        W84548  41.296  29.051  14.340
16219W        W84549  16.809  18.610  10.924
16220W        W84550   4.395  38.340  14.463
16221W        W84551  11.300  31.986   2.253
16222W        W84552   0.324  32.595  14.280
16223W        W84553  17.065  43.786   2.714
16224W        W84554   6.240   6.189   1.802
16225W        W84555  18.238  35.954   1.312
16226W        W84556  42.002  18.697  12.510
16227W        W84557   7.899  40.507  11.506
16228W        W84558  11.349  20.133   0.348
16229W        W84559  26.587  23.985  13.865
16230W        W84560   1.936  32.637   0.279
16231W        W84561   6.887   2.760   4.149
16232W        W84562  31.077  28.937   3.206
16233W        W84563  16.569  24.686  10.122
16234W        W84564  34.865  13.196  13.420
16235W        W84565   4.227  24.568   1.439
16236W        W84566  28.550   4.274  12.873
16237W        W84567  44.433  19.255   4.774
16238W        W84568  28.530  41.891   3.843
16239W        W84569  26.046  21.043  14.924
16240W        W84570  19.277  35.393  12.346
16241W        W84571  21.240   6.767   2.885
16242W        W84572  43.373  29.149  14.798
16243W        W84573  33.406  42.425   1.261
16244W        W84574  35.011  16.664  14.280
16245W        W84575  11.842  38.366  12.883
16246W        W84576  10.229  40.397  14.412
16247W        W84577   0.418  38.394  14.317
16248W        W84578  27.008  15.614  14.928
16249W        W84579  44.344  40.546  14.375
16250W        W84580  12.166  30.560   3.274
16251W        W84581  37.011  28.601  11.880
16252W        W84582  38.451  28.028  13.419
16253W        W84583  11.341  28.995  14.867
16254W        W84584  14.167  44.342   5.226
16255W        W84585   9.349   1.839  11.926
16256W        W84586  41.972  10.153  14.781
16257W        W84587   4.277  36.993   3.215
16258W        W84588  20.032  23.039   0.923
16259W        W84589  23.986  31.488  10.919
16260W        W84590   1.299  12.842  13.467
16261W        W84591  40.505   8.705   1.759
16262W        W84592  10.267  31.514  11.489
16263W        W84593  35.999  36.051  13.898
16264W        W84594  35.488  12.631  12.462
16265W        W84595  39.503  38.460  11.468
16266W        W84596   8.818   5.801   1.851
16267W        W84597   8.272  19.612  11.895
16268W        W84598   4.210  27.126   4.195
16269W        W84599   5.283  14.724   1.802
16270W        W84600  10.726   0.986  14.971
16271W        W84601  42.379  28.599  11.073
16272W        W84602  10.781  22.686  10.902
16273W        W84603  34.926  37.979   2.409
16274W        W84604  27.487  42.803   1.802
16275W        W84605  13.160  36.091   0.781
16276W        W84606  15.108   6.290  10.530
16277W        W84607  27.941  38.889   1.319
16278W        W84608  30.977  41.981  11.440
16279W        W84609  25.599  20.150  11.020
16280W        W84610  44.427  11.176   1.336
16281W        W84611  36.481  20.636   2.846
16282W        W84612  18.721  22.051   2.834
16283W        W84613  39.040  22.023  12.861
16284W        W84614  28.493  13.774  14.771
16285W        W84615  21.757  10.768  11.027
16286W        W84616   4.824  37.999   2.694
16287W        W84617  15.316  14.791  14.387
16288W        W84618  30.980  22.008  12.069
16289W        W84619  26.008  21.186  10.576
16290W        W84620  30.566   1.883  14.998
16291W        W84621  17.286  38.325  10.971
16292W        W84622  18.720   0.799   3.755
16293W        W84623  23.029  36.951   4.757
16294W        W84624  24.585  27.998  11.088
16295W        W84625  11.750   8.319  10.560
16296W        W84626   4.340   8.777  14.942
16297W        W84627  39.522  30.555  13.307
16298W        W84628   8.758  30.466   3.152
16299W        W84629  14.673  42.400   3.715
16300W        W84630  14.610   2.736  11.857
16301W        W84631  24.011  41.024  14.781
16302W        W84632  37.562  35.421   2.835
16303W        W84633  36.035  31.019  12.058
16304W        W84634   6.360  12.715  13.532
16305W        W84635   1.253  27.956   3.716
16306W        W84636  40.991  31.444   0.304
16307W        W84637  43.839   8.862  14.342
16308W        W84638  10.794   4.435  14.869
16309W        W84639  15.170   0.364   1.444
16310W        W84640  17.742  32.594  12.410
16311W        W84641  32.436  13.740   2.817
16312W        W84642  39.867  11.158   0.255
16313W        W84643  25.635  23.104   2.822
16314W        W84644   1.757  28.672  14.902
16315W        W84645   1.860   0.932  10.603
16316W        W84646  13.632   5.863  14.812
16317W        W84647  27.488  21.587  12.490
16318W        W84648  25.691  11.763   1.308
16319W        W84649  18.153  15.658  13.828
16320W        W84650  22.745  24.212  13.474
16321W        W84651  27.482  19.615   1.270
16322W        W84652  14.733  13.755  14.856
16323W        W84653   3.852  21.264  11.508
16324W        W84654  43.506  16.253   1.439
16325W        W84655  33.574  36.573  14.302
16326W        W84656  27.103  36.547  11.491
16327W        W84657  39.458  39.494   0.769
16328W        W84658  39.881  22.998   4.705
16329W        W84659   6.729  23.083   2.737
16330W        W84660  33.492  43.493   3.667
16331W        W84661  38.477   6.291   3.650
16332W        W84662  39.947   0.323  10.532
16333W        W84663  18.115  38.995  12.914
16334W        W84664  39.386  19.276  12.057
16335W        W84665  43.420  16.603  14.937
16336W        W84666  25.627  18.569   3.339
16337W        W84667  28.101  37.367  11.602
16338W        W84668  22.512  34.026  13.927
16339W        W84669  18.676   5.722   3.176
16340W        W84670  31.516  25.076   0.372
16341W        W84671  29.533  15.114  11.383
16342W        W84672   6.821  11.311  13.034
16343W        W84673  23.042  23.587   1.386
16344W        W84674   7.807  24.089  14.825
16345W        W84675  11.650   9.758   0.861
16346W        W84676  35.944  41.323  14.312
16347W        W84677  38.465  15.164  10.629
16348W        W84678  21.586  36.981  11.992
16349W        W84679  31.434  22.211   3.154
16350W        W84680  42.797  23.710   4.168
16351W        W84681  35.949   8.785   1.316
16352W        W84682   4.737   1.477   3.849
16353W        W84683   9.358  39.939  10.445
16354W        W84684  37.480  26.037   4.648
16355W        W84685  19.763  41.856  11.409
16356W        W84686  16.317  33.063   0.748
16357W        W84687   9.335  31.991   9.948
16358W        W84688  15.654  26.157  12.344
16359W        W84689  27.990  28.120  12.042
16360W        W84690  30.640  22.707  14.290
16361W        W84691  16.111  15.209  10.922
16362W        W84692  37.435   7.363   5.102
16363W        W84693  27.549  31.588   4.727
16364W        W84694  13.684   7.799  12.953
16365W        W84695  12.155  17.608  13.032
16366W        W84696  40.478  20.534   4.796
16367W        W84697   4.870  31.993  10.969
16368W        W84698  40.925  18.586  10.544
16369W        W84699  30.141  35.375  11.001
16370W        W84700  11.640  25.110   2.317
16371W        W84701  17.629  34.032  11.401
16372W        W84702  36.890  41.908  12.407
16373W        W84703  15.820  12.855   1.789
16374W        W84704  39.863  19.708   0.384
16375W        W84705  42.919  41.295  11.993
16376W        W84706  17.134  24.648   1.355
16377W        W84707  30.050  22.545  11.092
16378W        W84708  17.662   6.834   3.840
16379W        W84709  13.221  35.408   2.784
16380W        W84710   8.669  44.489  11.050
16381W        W84711  10.191  38.011  14.379
16382W        W84712   2.296   8.268  12.895
16383W        W84713  21.193  32.412   2.783
16384W        W84714   9.725  36.953  13.886
16385W        W84715  10.320   0.894  11.949
16386W        W84716  12.837   8.798   2.407
16387W        W84717  33.121  29.474   2.718
16388W        W84718  25.058   6.723   0.398
16389W        W84719  20.671  19.603  10.587
16390W        W84720  39.547  22.014   3.810
16391W        W84721  23.033  29.658   0.242
16392W        W84722  12.636  25.679  12.046
16393W        W84723  29.995  25.679   3.849
16394W        W84724   9.343   6.780   0.940
16395W        W84725   7.171  24.487  13.003
16396W        W84726  39.049  18.646  11.560
16397W        W84727  36.858  33.593   1.736
16398W        W84728  24.174  44.421  13.336
16399W        W84729  30.458   1.252   2.314
16400W        W84730   2.233  18.170   4.294
16401W        W84731  18.186  32.119   3.644
16402W        W84732  37.456  38.993  12.911
16403W        W84733  32.111   0.849  11.468
16404W        W84734  43.306  20.734   2.366
16405W        W84735  10.140  21.049  13.063
16406W        W84736  31.411   7.759   3.780
16407W        W84737  16.141   1.343  14.818
16408W        W84738  31.938  20.269   4.792
16409W        W84739  37.537  15.593   3.345
16410W        W84740   4.327  28.934  10.606
16411W        W84741  16.246  24.165   1.249
16412W        W84742   3.290  36.974   4.155
16413W        W84743  44.366  24.067   0.387
16414W        W84744  40.979   2.456   0.748
16415W        W84745  17.564  17.265   1.914
16416W        W84746   6.840   0.306  14.005
16417W        W84747  30.990  13.843  14.764
16418W        W84748   6.277   9.888  13.951
16419W        W84749  21.119  31.417   3.760
16420W        W84750  15.209   8.298   4.628
16421W        W84751  35.073   1.426   0.764
16422W        W84752  36.885   7.697   1.305
16423W        W84753   5.720  14.645  14.934
16424W        W84754  33.905  17.163  13.530
16425W        W84755  22.542  13.229   4.664
16426W        W84756  25.536   8.848   4.312
16427W        W84757   0.923  26.510  13.032
16428W        W84758  18.159  16.750  14.327
16429W        W84759   7.739  35.890   4.717
16430W        W84760  41.878  41.796  13.930
16431W        W84761  32.111  19.180   2.734
16432W        W84762  10.817  39.448   0.268
16433W        W84763  32.076  15.193  11.540
16434W        W84764  12.807  33.542  14.384
16435W        W84765  34.890   5.240   2.193
16436W        W84766   5.872   2.440   4.668
16437W        W84767   6.274  32.095   2.879
16438W        W84768  31.546  10.674  14.023
16439W        W84769   4.372  44.436   4.625
16440W        W84770   2.905  24.190  12.850
16441W        W84771  20.159   4.322   1.214
16442W        W84772   8.364   9.389  10.966
16443W        W84773  30.538  23.112   2.865
16444W        W84774  40.548  21.640   1.741
16445W        W84775   7.911  11.348  10.644
16446W        W84776  22.503   8.838   5.165
16447W        W84777   2.399  43.940  12.071
16448W        W84778  34.026  40.461  10.902
16449W        W84779  38.447  13.748   3.818
16450W        W84780   1.877   3.759   2.869
16451W        W84781   2.846  26.561  14.840
16452W        W84782  11.709  21.244   1.244
16453W        W84783  35.907  25.607   1.903
16454W        W84784  19.681  37.041  13.853
16455W        W84785  16.205   3.804  11.429
16456W        W84786  17.096  37.860   1.875
16457W        W84787  19.213  26.623  13.510
16458W        W84788  29.083  12.123   3.663
16459W        W84789  34.019   4.838   0.919
16460W        W84790  43.317  21.707   0.309
16461W        W84791  41.308  16.638  11.894
16462W        W84792  43.911   0.870   0.859
16463W        W84793  11.190  29.540   0.869
16464W        W84794  30.488   1.870  10.996
16465W        W84795  23.162  22.528  10.574
16466W        W84796  41.494  15.274  12.845
16467W        W84797  37.402  24.193  13.006
16468W        W84798  11.283  19.755  12.579
16469W        W84799  19.632  24.601   5.319
16470W        W84800   3.851  17.226  11.522
16471W        W84801  11.253  20.148  12.517
16472W        W84802  14.186  26.987  12.080
16473W        W84803  16.300  36.361   2.246
16474W        W84804  17.104  42.315  11.523
16475W        W84805  18.624  31.942   1.297
16476W        W84806   9.728  36.951   4.341
16477W        W84807  30.959  38.408   0.775
16478W        W84808  16.237  37.342  11.872
16479W        W84809  27.012  30.035   3.767
16480W        W84810  21.570  20.686  13.488
16481W        W84811   3.289   3.802  14.979
16482W        W84812  23.112  26.197   0.915
16483W        W84813  23.021  40.352   1.825
16484W        W84814  18.559   7.757  10.595
16485W        W84815  35.109  41.838   1.299
16486W        W84816  35.357  29.089   3.220
16487W        W84817  27.620   9.296   4.176
16488W        W84818  14.130  25.083   3.372
16489W        W84819   7.350  27.109  11.477
16490W        W84820  18.757  28.089   5.155
16491W        W84821  33.595  14.765   1.324
16492W        W84822   8.901   9.671   4.628
16493W        W84823  24.525  30.546   2.387
16494W        W84824  23.545  38.566   1.398
16495W        W84825   3.793  36.980   3.715
16496W        W84826   7.907   7.842  11.925
16497W        W84827  32.608  33.593  11.550
16498W        W84828  10.760  21.604   1.374
16499W        W84829  27.576  26.121   2.888
16500W        W84830   8.246  41.931  14.995
16501W        W84831   8.824  10.858  14.416
16502W        W84832   0.331   1.790   2.825
16503W        W84833  17.654   0.846   4.245
16504W        W84834   4.235   8.210  13.950
16505W        W84835  14.811  39.499   1.878
16506W        W84836  10.707  26.182  10.617
16507W        W84837  16.604  38.849  14.775
16508W        W84838  44.906  21.710  14.367
16509W        W84839  36.425  12.631   1.900
16510W        W84840  26.150  43.803   3.325
16511W        W84841  38.347  13.651   2.251
16512W        W84842  10.172  37.964  13.942
16513W        W84843  25.507  25.066  13.455
16514W        W84844  14.165  41.914   2.779
16515W        W84845  16.572  22.079   2.880
16516W        W84846  14.206  34.447  12.442
16517W        W84847  21.026  42.420  11.603
16518W        W84848  24.585  12.794   0.476
16519W        W84849  36.896  31.487  14.823
16520W        W84850  15.186  32.550   1.364
16521W        W84851  16.267   4.737   0.810
16522W        W84852  17.306  21.675  13.341
16523W        W84853  10.368  17.169   3.257
16524W        W84854  34.918  32.411  12.065
16525W        W84855  11.134  39.549   4.336
16526W        W84856  21.191   4.257   2.698
16527W        W84857  28.593   2.866   2.753
16528W        W84858  41.846  34.590  13.541
16529W        W84859  23.626   0.398   3.314
16530W        W84860  14.278  34.979   9.978
16531W        W84861   6.680  42.494   3.316
16532W        W84862  12.222  15.116   4.757
16533W        W84863  28.068  11.134  10.111
16534W        W84864  17.159  44.825  12.355
16535W        W84865   2.744   7.170   0.953
16536W        W84866  12.706   9.760  12.360
16537W        W84867  12.660  20.166   2.298
16538W        W84868  39.937  42.496   4.655
16539W        W84869  18.646  42.857  14.837
16540W        W84870  40.015  13.715   4.652
16541W        W84871   1.471  25.054   1.865
16542W        W84872  41.967  30.424   5.222
16543W        W84873  13.220  31.118  13.911
16544W        W84874   6.864  22.513  14.995
16545W        W84875  11.273  17.663  11.523
16546W        W84876  41.415  24.086  14.499
16547W        W84877  14.230   9.813  11.550
16548W        W84878  23.006  22.611   3.249
16549W        W84879  28.102   6.816   2.258
16550W        W84880  27.585  44.311  12.052
16551W        W84881  28.997  31.435  14.309
16552W        W84882  12.362  21.178  12.044
16553W        W84883  10.734  37.397  13.816
16554W        W84884   6.914   0.906   3.227
16555W        W84885   9.242  32.549   0.336
16556W        W84886  31.454  43.347   2.871
16557W        W84887  36.470   9.744  12.841
16558W        W84888  37.868  22.245   1.379
16559W        W84889  29.146   6.320  13.024
16560W        W84890  40.500   6.408   4.792
16561W        W84891  13.192  44.339  10.921
16562W        W84892  20.033  16.090   2.348
16563W        W84893  10.262  34.086   4.775
16564W        W84894   0.919  20.095  14.414
16565W        W84895  29.594   7.281   1.888
16566W        W84896   1.341   0.759  13.037
16567W        W84897   3.800  31.023   0.345
16568W        W84898  10.784  30.546  14.926
16569W        W84899  39.990  27.638   2.896
16570W        W84900   3.280  30.599  13.890
16571W        W84901  27.980   2.828   5.307
16572W        W84902   3.305  29.010   3.826
16573W        W84903  10.162  14.201  12.091
16574W        W84904  24.030  10.215  10.595
16575W        W84905   7.710  12.687   0.339
16576W        W84906   1.355  37.514   1.437
16577W        W84907  30.493  25.698  14.341
16578W        W84908  35.027  38.532   0.269
16579W        W84909  17.725  20.102  13.058
16580W        W84910   2.781   3.915   0.890
16581W        W84911  20.747   4.878  13.504
16582W        W84912  32.097  33.557  12.924
16583W        W84913  17.072  36.051  14.487
16584W        W84914  23.686  43.888  13.038
16585W        W84915  31.108  14.199  14.341
16586W        W84916   1.825   6.341   1.801
16587W        W84917  28.985  14.117   3.264
16588W        W84918  39.832  43.456   4.753
16589W        W84919  19.135  40.346   3.702
16590W        W84920  15.645  41.008  10.420
16591W        W84921  28.980  13.830   4.610
16592W        W84922  34.532  40.399   1.374
16593W        W84923  31.062  21.682   0.244
16594W        W84924  18.126   8.405   2.715
16595W        W84925  24.655  34.002  13.358
16596W        W84926   4.406  18.155  10.509
16597W        W84927   3.396  34.030   1.696
16598W        W84928  19.107  34.561  14.379
16599W        W84929  15.580   5.262   1.900
16600W        W84930  17.611  27.953  13.389
16601W        W84931   6.890  17.306   1.785
16602W        W84932  14.758  43.437  14.886
16603W        W84933  29.065  42.300  10.467
16604W        W84934  11.806  35.441   2.324
16605W        W84935  30.105  40.837   1.250
16606W        W84936  36.875  29.955   1.821
16607W        W84937  33.594  33.594   2.250
16608W        W84938  34.091   1.879   4.707
16609W        W84939  29.632   6.837  13.898
16610W        W84940  40.394  20.558   3.635
16611W        W84941  25.632  13.782  10.988
16612W        W84942   5.282  31.916  13.534
16613W        W84943  40.473  30.659   3.787
16614W        W84944  42.942  24.033   4.820
16615W        W84945  27.624  23.080   3.301
16616W        W84946  11.295  24.997  12.972
16617W        W84947  28.579   0.796  14.319
16618W        W84948   0.391  34.993   2.198
16619W        W84949   6.815  25.000   1.338
16620W        W84950   8.682  36.003  10.572
16621W        W84951  39.541  20.247   3.817
16622W        W84952  36.052   7.718   0.961
16623W        W84953   9.238  26.044  12.465
16624W        W84954  21.108  16.626   5.730
16625W        W84955   7.880  28.042   0.948
16626W        W84956  10.750   3.917   1.866
16627W        W84957  23.128  37.398   1.353
16628W        W84958   2.443  33.387   1.303
16629W        W84959  36.010  44.414   4.687
16630W        W84960   2.857   6.336  13.028
16631W        W84961  28.646  26.680  12.033
16632W        W84962  37.446  42.924  10.577
16633W        W84963  36.392  32.630   2.347
16634W        W84964  44.286  41.797  13.912
16635W        W84965  32.500  33.433   3.202
16636W        W84966  38.974  19.733  13.432
16637W        W84967  10.791   9.655  13.995
16638W        W84968  39.471   6.291  13.792
16639W        W84969  13.682   9.223  14.465
16640W        W84970  36.563  39.965  13.442
16641W        W84971  20.083  12.144   1.436
16642W        W84972  23.633  41.832  14.493
16643W        W84973  15.232  41.842  11.932
16644W        W84974   5.242  35.945  14.306
16645W        W84975   8.771  37.087  11.017
16646W        W84976  31.960  33.923  12.490
16647W        W84977  39.543  33.895   1.431
16648W        W84978  20.119  28.174   3.318
16649W        W84979  12.215   1.865  13.480
16650W        W84980  16.270  42.779   1.450
16651W        W84981  33.001  43.782  14.867
16652W        W84982  34.432  19.113   2.293
16653W        W84983  18.180  33.615   1.333
16654W        W84984  30.052  32.002   5.645
16655W        W84985  34.454  12.736  11.576
16656W        W84986  32.012  41.319   1.286
16657W        W84987  27.630  39.541   2.209
16658W        W84988   8.333   3.873  11.918
16659W        W84989   7.774  27.627  12.436
16660W        W84990  36.397  43.991   2.698
16661W        W84991   6.727  34.014  12.922
16662W        W84992  19.212  30.142  10.542
16663W        W84993   5.712  14.626   1.922
16664W        W84994   6.396   7.734  11.565
16665W        W84995  24.148  23.673  13.857
16666W        W84996  16.268  38.341  13.810
16667W        W84997  14.174  38.441  10.625
16668W        W84998  23.512  44.007  13.487
16669W        W84999   4.840  10.325   4.326
16670W        W85000   6.390  30.472   0.327
16671W        W85001  41.795  40.314  10.424
16672W        W85002   5.362  33.935  14.455
16673W        W85003  31.482  23.702   3.245
16674W        W85004  38.001  10.314   1.878
16675W        W85005   5.813  21.742  10.449
16676W        W85006  27.042  18.706  10.984
16677W        W85007  25.673  27.559   0.772
16678W        W85008  14.259  16.075  14.302
16679W        W85009   0.913  10.170  13.923
16680W        W85010  36.901  40.898  12.919
16681W        W85011  29.005  41.986   3.152
16682W        W85012   1.802   2.956   3.735
16683W        W85013  31.444  13.708  12.379
16684W        W85014  19.701  38.336  14.454
16685W        W85015  25.183  43.332  13.493
16686W        W85016  33.507  23.993  13.016
16687W        W85017  31.135  17.129  12.840
16688W        W85018   8.899  17.762  14.370
16689W        W85019  19.205  10.176  13.028
16690W        W85020  21.229  36.351  13.950
16691W        W85021  29.640  39.867   4.319
16692W        W85022  34.453  11.257  13.830
16693W        W85023  42.303  14.600  14.373
16694W        W85024  42.975  16.812  11.959
16695W        W85025  32.051  27.046   3.671
16696W        W85026  16.073  24.632  12.864
16697W        W85027  38.922  32.044  14.459
16698W        W85028   7.190   5.701   2.350
16699W        W85029   1.936  17.129  13.373
16700W        W85030  26.543  18.704  12.964
16701W        W85031   0.404  33.412   0.761
16702W        W85032  38.344  15.099  11.460
16703W        W85033  36.079  20.184  13.931
16704W        W85034  34.993  43.322   0.889
16705W        W85035  39.986  29.033  13.989
16706W        W85036   0.880  38.960  14.509
16707W        W85037  15.637  32.008   2.777
16708W        W85038  10.681  32.458   2.311
16709W        W85039  12.804   5.804   1.321
16710W        W85040   3.834  13.248  14.873
16711W        W85041  37.495   0.882   5.277
16712W        W85042  17.722  37.427   1.316
16713W        W85043  17.144  20.672   3.694
16714W        W85044  34.480   9.712   1.355
16715W        W85045  42.525  20.095  14.795
16716W        W85046  43.297   9.252  13.319
16717W        W85047  12.644  20.230   2.760
16718W        W85048   7.865   5.858  12.096
16719W        W85049   7.859  42.494   0.480
16720W        W85050  36.986  43.483  12.390
16721W        W85051   7.350  38.560  14.432
16722W        W85052   1.847  28.934   2.811
16723W        W85053  19.766  26.956   2.667
16724W        W85054  32.532  20.162  12.827
16725W        W85055  22.746  11.255   0.283
16726W        W85056  24.668  29.069   3.869
16727W        W85057   6.869  14.316   0.415
16728W        W85058  37.527  23.002  13.858
16729W        W85059  14.783   5.231   0.798
16730W        W85060   9.278   1.854  13.370
16731W        W85061   9.786   7.258  14.404
16732W        W85062  19.664  17.085  12.010
16733W        W85063   3.736   8.322  12.032
16734W        W85064   4.844  21.248  14.830
16735W        W85065   3.327  13.683  10.507
16736W        W85066  16.127  21.218  14.306
16737W        W85067  41.469   8.855  13.402
16738W        W85068  31.991  30.995   4.187
16739W        W85069  32.503   9.848   3.779
16740W        W85070   4.731  36.472  12.995
16741W        W85071  29.521  24.040  12.570
16742W        W85072  27.962  23.233   3.382
16743W        W85073   1.375  26.539   2.380
16744W        W85074  41.505  20.200  13.413
16745W        W85075  17.682   3.751   3.793
16746W        W85076  43.908  39.865   1.239
16747W        W85077  20.590  19.274   3.284
16748W        W85078   9.374  37.415   9.939
16749W        W85079  26.023  12.285   3.165
16750W        W85080  31.464   3.720  13.545
16751W        W85081  39.472  24.155  10.941
16752W        W85082  29.058  26.501   2.286
16753W        W85083  27.178   1.904   5.237
16754W        W85084  12.818  43.981  13.828
16755W        W85085  25.575  26.634  10.141
16756W        W85086  39.027  13.816   1.260
16757W        W85087  29.133  44.263  11.382
16758W        W85088  26.050   5.380   4.203
16759W        W85089  21.017  36.871  14.864
16760W        W85090  41.816  30.491  10.937
16761W        W85091  23.986  19.776   0.338
16762W        W85092  21.207  28.479  13.445
16763W        W85093   9.771  17.229  13.804
16764W        W85094  23.629  43.769  12.352
16765W        W85095  39.368  16.122   3.682
16766W        W85096  17.772  30.956  13.537
16767W        W85097  28.604  32.946  14.921
16768W        W85098  20.028   5.730   1.339
16769W        W85099   6.241   0.958   0.881
16770W        W85100  10.151   8.732  13.408
16771W        W85101  19.106  23.182  10.067
16772W        W85102  25.098  21.121   4.659
16773W        W85103   8.678   9.253   3.304
16774W        W85104  23.129  18.218   4.759
16775W        W85105  41.427  13.282   4.260
16776W        W85106  25.086  41.413   3.157
16777W        W85107  24.480  39.875   2.701
16778W        W85108   4.417  15.680   5.101
16779W        W85109  19.591  35.587   2.732
16780W        W85110  12.228  44.304  11.082
16781W        W85111  10.141   4.385  14.763
16782W        W85112  42.006  22.579  14.484
16783W        W85113  35.472  26.546   3.863
16784W        W85114  14.155   4.775   1.242
16785W        W85115  35.409   7.363  13.056
16786W        W85116  25.153   3.294  14.801
16787W        W85117  20.694  14.151  12.394
16788W        W85118  22.680  21.590   4.738
16789W        W85119  25.987  10.794  14.404
16790W        W85120  40.432  28.659   4.612
16791W        W85121  30.584  36.424  14.778
16792W        W85122  32.019  34.563  12.967
16793W        W85123  37.921  41.909   3.241
16794W        W85124   8.669  19.736  11.002
16795W        W85125  20.235   6.807  13.421
16796W        W85126  40.000   1.901  10.937
16797W        W85127  37.505  42.885   4.757
16798W        W85128   5.197   7.666   4.597
16799W        W85129  15.673   3.907  12.938
16800W        W85130  20.598   4.908  14.872
16801W        W85131  25.070   5.920   2.708
16802W        W85132  40.506  21.734  11.906
16803W        W85133   8.274  28.500   1.934
16804W        W85134  21.260  40.539   4.227
16805W        W85135  39.439   3.234  13.004
16806W        W85136  28.044   5.348   4.257
16807W        W85137   1.794  24.580   0.746
16808W        W85138  33.396   0.360  14.954
16809W        W85139  10.678  32.515   4.303
16810W        W85140  38.397  12.718  10.442
16811W        W85141  24.094  34.567  11.562
16812W        W85142  44.996  15.259   1.724
16813W        W85143  32.136  13.238  13.325
16814W        W85144  17.150  34.040  10.468
16815W        W85145  31.558  40.409  14.291
16816W        W85146  16.777   7.887   3.385
16817W        W85147  34.524   4.273   1.925
16818W        W85148  27.529  14.818  14.762
16819W        W85149   4.747  12.855   2.859
16820W        W85150   8.774   9.350  11.571
16821W        W85151  17.772  13.705  14.491
16822W        W85152  27.962  36.502  13.376
16823W        W85153  20.228   2.428  14.425
16824W        W85154  41.823  40.499  11.430
16825W        W85155  12.826  27.135   1.445
16826W        W85156  39.870  16.687   1.912
16827W        W85157  12.808  29.143  12.981
16828W        W85158  30.584  40.931   0.866
16829W        W85159   0.327  28.563  14.342
16830W        W85160  38.428  16.312  14.843
16831W        W85161  29.431  29.520  10.453
16832W        W85162   8.395  22.067  11.533
16833W        W85163  18.258  10.714   2.259
16834W        W85164  11.299   9.162  11.453
16835W        W85165  15.774  42.304   4.705
16836W        W85166  34.117  42.336  14.915
16837W        W85167  43.963  15.821   3.172
16838W        W85168   0.863  44.419   0.849
16839W        W85169  26.578  19.752  14.919
16840W        W85170  17.570  20.689  13.899
16841W        W85171  18.108  27.172  10.419
16842W        W85172  30.129  43.353  14.297
16843W        W85173  28.541   8.812  14.434
16844W        W85174  28.076  17.609   2.330
16845W        W85175  21.192  31.019   4.744
16846W        W85176  28.488  15.110  10.956
16847W        W85177  39.438  18.261   2.680
16848W        W85178  25.077  35.091  12.954
16849W        W85179  19.589   8.206  10.448
16850W        W85180  39.997  20.195  13.546
16851W        W85181  42.503  10.232  13.945
16852W        W85182  34.011  27.578   3.355
16853W        W85183  43.482  31.976   4.252
16854W        W85184  37.048  27.027   2.317
16855W        W85185  30.521  10.266  14.944
16856W        W85186  43.933  12.830   1.367
16857W        W85187  39.971   5.892   9.938
16858W        W85188  39.328  26.558  14.935
16859W        W85189  42.283  33.404  12.422
16860W        W85190  38.900  33.900   1.843
16861W        W85191  17.089  40.879   3.373
16862W        W85192  36.579  13.149   0.797
16863W        W85193  28.002  42.875   2.250
16864W        W85194  35.033  28.519  11.562
16865W        W85195  41.926  19.276  14.348
16866W        W85196  42.929  44.320  11.436
16867W        W85197   4.942  31.630   1.350
16868W        W85198  16.761  22.196  12.371
16869W        W85199   3.411  19.776   3.309
16870W        W85200  16.727  15.685  14.816
16871W        W85201  35.029   0.277   0.942
16872W        W85202  21.022  23.012   2.198
16873W        W85203  19.114  30.524  10.940
16874W        W85204  15.083   3.904   0.431
16875W        W85205   1.890  22.560  12.943
16876W        W85206   8.177  10.640  14.337
16877W        W85207  22.582  37.350  14.989
16878W        W85208   3.290  15.660   3.865
16879W        W85209  39.911  18.695   1.280
16880W        W85210   3.952  36.365  12.468
16881W        W85211  38.493  26.557  11.411
16882W        W85212  20.113  22.637   3.660
16883W        W85213  36.393  22.724   1.242
16884W        W85214  36.875  29.449  12.549
16885W        W85215   7.350  32.058   4.724
16886W        W85216  14.201   8.787   0.875
16887W        W85217  32.997   6.325   4.242
16888W        W85218  10.319  39.325  11.517
16889W        W85219   4.434  22.140   1.766
16890W        W85220  10.657   0.292   2.781
16891W        W85221   6.750  32.981  13.982
16892W        W85222  13.697   8.670  14.350
16893W        W85223  19.622  12.703  12.966
16894W        W85224  26.477  25.701  10.414
16895W        W85225  19.192  36.401   4.237
16896W        W85226  43.362  14.626  11.076
16897W        W85227   6.330  37.994  11.011
16898W        W85228   0.428   2.436   4.608
16899W        W85229  37.480   6.922  11.856
16900W        W85230   6.801  11.727   3.741
16901W        W85231  30.023   6.818   3.279
16902W        W85232   5.886  13.692  12.001
16903W        W85233   9.651   9.387  14.912
16904W        W85234  15.738  23.038  13.478
16905W        W85235   7.243   4.330  12.534
16906W        W85236  11.656  11.280   2.703
16907W        W85237  39.337  15.619  11.398
16908W        W85238  11.811   7.364  12.449
16909W        W85239  15.606   0.384  13.349
16910W        W85240  23.200  37.864  10.562
16911W        W85241   6.836  20.112   3.749
16912W        W85242  36.084  38.447  14.902
16913W        W85243   6.915  12.309   4.254
16914W        W85244   0.451  31.616   1.913
16915W        W85245   8.876  22.708  13.815
16916W        W85246  37.880  11.189   2.419
16917W        W85247   0.803  40.897  14.311
16918W        W85248  19.225   3.261  14.372
16919W        W85249  44.284  39.967  14.919
16920W        W85250  23.097  27.524  10.574
16921W        W85251  35.899  34.583   1.750
16922W        W85252  16.756  13.706   1.722
16923W        W85253  36.518   4.249   0.744
16924W        W85254  22.549  39.909   4.641
16925W        W85255   1.735   6.337   0.370
16926W        W85256  30.009  43.881   3.347
16927W        W85257  15.198  14.096  14.428
16928W        W85258   5.212  12.841  12.458
16929W        W85259  28.544   8.772   2.849
16930W        W85260  24.160  36.390  12.906
16931W        W85261   8.722  26.191  10.413
16932W        W85262  13.185   4.910   4.774
16933W        W85263   2.796   5.721  14.391
16934W        W85264   5.330  32.097   4.161
16935W        W85265  31.552  25.151  10.629
16936W        W85266  19.266  36.542  11.417
16937W        W85267  30.637   9.282  14.384
16938W        W85268  14.701  11.162  13.976
16939W        W85269  29.629   7.275   0.950
16940W        W85270  35.099  37.495  14.447
16941W        W85271  19.043   3.905  13.364
16942W        W85272   1.382   2.923  13.923
16943W        W85273  22.558  25.988   2.222
16944W        W85274  20.639  18.578  14.455
16945W        W85275  19.257   9.215  11.954
16946W        W85276  31.448  29.080  13.486
16947W        W85277  43.869   7.285   1.920
16948W        W85278  23.709  24.109  14.841
16949W        W85279  29.612  39.859   4.766
16950W        W85280  23.171  16.265   4.614
16951W        W85281  38.529  17.657   4.181
16952W        W85282  23.157  18.714   2.835
16953W        W85283  24.556   2.835  10.923
16954W        W85284  43.272  19.140  12.914
16955W        W85285  42.484  29.012  12.463
16956W        W85286  39.332  44.386  12.908
16957W        W85287  28.499  35.915   1.365
16958W        W85288   9.838  34.880   4.727
16959W        W85289  13.753   4.921  10.610
16960W        W85290  28.652   0.398  14.366
16961W        W85291  24.223  31.467  10.450
16962W        W85292   8.820  18.179   0.754
16963W        W85293  19.685   6.278  12.827
16964W        W85294  22.741  32.512   2.189
16965W        W85295  29.968  22.206  13.441
16966W        W85296  39.891  32.487   1.438
16967W        W85297  24.081  18.668   1.784
16968W        W85298  12.350  33.945  12.381
16969W        W85299  24.608   5.386   0.946
16970W        W85300   2.245   3.927  14.293
16971W        W85301  11.856  40.454   1.328
16972W        W85302  20.181   6.317  14.029
16973W        W85303   6.886   8.406   4.182
16974W        W85304  37.941  31.477   2.667
16975W        W85305  40.387  11.637  14.853
16976W        W85306   3.379  29.463   2.415
16977W        W85307  14.340  41.525   0.411
16978W        W85308  15.724  29.990  11.950
16979W        W85309   2.900  39.835   1.926
16980W        W85310  33.966  35.062  12.829
16981W        W85311  22.136  13.673   1.432
16982W        W85312  16.115  27.577  12.852
16983W        W85313  18.747  37.905  13.454
16984W        W85314  36.405  42.880   0.416
16985W        W85315  28.598  30.922   0.891
16986W        W85316  33.973   8.706  13.803
16987W        W85317  18.557  30.966  11.017
16988W        W85318  39.852  40.836   0.892
16989W        W85319  29.923  21.641   3.674
16990W        W85320  41.832  14.315   3.256
16991W        W85321  30.441  11.319  11.417
16992W        W85322  10.151   0.880   4.264
16993W        W85323   1.765  18.213  14.027
16994W        W85324  44.809  40.965  14.812
16995W        W85325  37.531  10.191   1.450
16996W        W85326   0.321  31.104   0.900
16997W        W85327  35.493  21.027   1.265
16998W        W85328  17.119  35.015  12.877
16999W        W85329   9.779  36.072  13.530
17000W        W85330   6.186  44.800  12.867
17001W        W85331  37.404   0.845   0.342
17002W        W85332   5.829  37.844   0.808
17003W        W85333  17.596  25.689   4.200
17004W        W85334   1.753   8.258  10.530
17005W        W85335   1.938  29.526  10.467
17006W        W85336  10.291  17.748  13.865
17007W        W85337  31.483  19.207  12.434
17008W        W85338  10.353  39.420   4.186
17009W        W85339   1.823  41.963   0.484
17010W        W85340  27.573  26.491  14.998
17011W        W85341   7.415  15.755   2.416
17012W        W85342  11.284  22.537   0.963
17013W        W85343  25.158   6.224  13.510
17014W        W85344  16.782  22.528  10.936
17015W        W85345  20.252  42.962   3.646
17016W        W85346  24.608  11.731  14.850
17017W        W85347   9.206  19.217   0.754
17018W        W85348  32.465  33.910  11.553
17019W        W85349   5.813  41.324  12.478
17020W        W85350  16.088  40.395  11.056
17021W        W85351  33.098   6.800  10.501
17022W        W85352   2.961  38.529  14.760
17023W        W85353   1.392  41.404  11.553
17024W        W85354   5.808  29.492  13.944
17025W        W85355  14.696  17.145   4.169
17026W        W85356  35.053  18.283  10.977
17027W        W85357  17.149   3.882  12.901
17028W        W85358  34.582  40.901  13.337
17029W        W85359   8.358  29.424   0.256
17030W        W85360  26.467  20.250  13.383
17031W        W85361   4.408  11.814  14.334
17032W        W85362  16.143   2.323   0.272
17033W        W85363  22.606  36.085   2.781
17034W        W85364   4.795   6.232   2.399
17035W        W85365  41.937   7.689  13.994
17036W        W85366  25.155  22.558   0.359
17037W        W85367   9.151  32.123   2.213
17038W        W85368   3.788  16.613   1.779
17039W        W85369  11.224   5.424  13.343
17040W        W85370  37.883   8.213   1.397
17041W        W85371   2.859   7.225  12.343
17042W        W85372  44.318  44.992  13.323
17043W        W85373   0.422  44.004   2.766
17044W        W85374  20.254  42.919  13.794
17045W        W85375  22.021  34.906   0.852
17046W        W85376   7.234   1.407  12.402
17047W        W85377  15.153  40.479   3.189
17048W        W85378  38.527  23.570  14.378
17049W        W85379  37.971   4.767   0.304
17050W        W85380   5.845  12.354   1.210
17051W        W85381  31.900  39.825  11.403
17052W        W85382  32.426   3.366   0.364
17053W        W85383  39.881   5.382  13.821
17054W        W85384  32.537  22.617  14.395
17055W        W85385  26.138  10.366   5.611
17056W        W85386  19.718   0.383   1.712
17057W        W85387   8.769  34.604   3.356
17058W        W85388   2.251  39.537   2.734
17059W        W85389  15.582  38.858  11.074
17060W        W85390  15.293  35.544   3.338
17061W        W85391  13.807  42.784   3.656
17062W        W85392  37.401   9.297  13.862
17063W        W85393  15.719  15.597  10.424
17064W        W85394  33.562  20.174  12.892
17065W        W85395  35.060  41.955  11.521
17066W        W85396   5.396  43.999   2.324
17067W        W85397   4.871  19.191   4.278
17068W        W85398  44.981   8.273   0.805
17069W        W85399  20.250   8.829   2.216
17070W        W85400  14.758  43.822   3.355
17071W        W85401  44.264  36.544  14.333
17072W        W85402   7.248  35.983   3.333
17073W        W85403  33.892  43.960   3.770
17074W        W85404  23.013  44.798  12.041
17075W        W85405   5.273  40.306   3.637
17076W        W85406  38.507  13.233  14.277
17077W        W85407  26.134  24.095  13.038
17078W        W85408  32.633  12.659  13.980
17079W        W85409  15.610   5.232  13.829
17080W        W85410  29.469   8.758  11.875
17081W        W85411   4.806  25.526  11.050
17082W        W85412  14.725  22.639   3.293
17083W        W85413   9.666  19.578  11.926
17084W        W85414  30.106  44.856   0.772
17085W        W85415  34.981  34.120   1.726
17086W        W85416  26.588  18.204  13.543
17087W        W85417  18.183   8.268  12.874
17088W        W85418  30.444  26.013   4.650
17089W        W85419  17.679   5.732  14.802
17090W        W85420  21.533  31.619   5.606
17091W        W85421  31.137  30.083   4.788
17092W        W85422   8.229  12.209  10.487
17093W        W85423   7.299   2.472   5.288
17094W        W85424  40.410   2.469  14.022
17095W        W85425   1.348  41.964  11.511
17096W        W85426  23.622   1.787  13.442
17097W        W85427   1.941  40.325   2.703
17098W        W85428  15.170  15.311  12.479
17099W        W85429   5.740  11.704   2.718
17100W        W85430   5.212   8.800   0.958
17101W        W85431  13.206   3.822   2.731
17102W        W85432   2.944  42.793   4.606
17103W        W85433  28.071  17.786  13.319
17104W        W85434  16.279  29.978  12.485
17105W        W85435   0.904  22.539   2.832
17106W        W85436  23.103  20.646   4.272
17107W        W85437  40.525   3.326   0.346
17108W        W85438  26.564  34.409  10.010
17109W        W85439  24.521  17.649   0.266
17110W        W85440  10.860  17.566   3.703
17111W        W85441  34.369  31.011   0.860
17112W        W85442   1.420   4.897  14.353
17113W        W85443   5.266  42.810   1.725
17114W        W85444  14.794  41.840   0.896
17115W        W85445  32.530  11.704   1.848
17116W        W85446  33.912  42.464  11.469
17117W        W85447  26.994  42.012  14.924
17118W        W85448   3.405  14.279  14.962
17119W        W85449  24.230  36.589   1.377
17120W        W85450  33.608  15.740   0.246
17121W        W85451  31.927  14.287  13.331
17122W        W85452  22.606  31.012   4.292
17123W        W85453   9.689  39.445  13.809
17124W        W85454  19.640  19.256   1.317
17125W        W85455  10.791  16.172   1.868
17126W        W85456  25.150   2.312   1.759
17127W        W85457   8.311   7.388   2.754
17128W        W85458   7.826  31.574   2.695
17129W        W85459   3.393   5.821   0.291
17130W        W85460  28.016  12.302   4.195
17131W        W85461  43.409  10.341   2.325
17132W        W85462  23.646  31.438   0.462
17133W        W85463  35.055   1.353  11.411
17134W        W85464   5.863  15.611  13.914
17135W        W85465   2.834  41.505   0.910
17136W        W85466  12.821  39.404  11.520
17137W        W85467  12.753  18.752   1.400
17138W        W85468  17.564  32.051  14.295
17139W        W85469  36.041  35.445  14.772
17140W        W85470  11.249   6.906  10.473
17141W        W85471  12.258  41.440  11.981
17142W        W85472  31.944  19.275   0.249
17143W        W85473  43.889  13.616   4.282
17144W        W85474  11.694   9.381   1.770
17145W        W85475  23.080  23.583   0.477
17146W        W85476  14.171  16.626  14.980
17147W        W85477   2.420  36.015   1.363
17148W        W85478  34.906  29.456   9.938
17149W        W85479   5.240  33.128   3.657
17150W        W85480  32.416   3.903  11.120
17151W        W85481  40.342  25.673  14.919
17152W        W85482  30.567  20.639   1.430
17153W        W85483  28.956  42.863   4.805
17154W        W85484  36.477  25.119   1.906
17155W        W85485  43.386  37.481  10.126
17156W        W85486  44.384  27.165   1.922
17157W        W85487  26.467   8.272  10.581
17158W        W85488  31.055  38.345   2.380
17159W        W85489  26.653  43.944   4.205
17160W        W85490  13.214  15.767   5.191
17161W        W85491  26.164  40.922  13.428
17162W        W85492  32.959  42.914   2.755
17163W        W85493  17.274  27.627  12.491
17164W        W85494  44.454  14.763  11.482
17165W        W85495  25.047  36.864  14.344
17166W        W85496  14.205  22.705   3.726
17167W        W85497  14.735  35.108  11.506
17168W        W85498  27.049  25.215   0.924
17169W        W85499   1.448  23.672   3.146
17170W        W85500  44.316   0.794  10.592
17171W        W85501  12.835  30.623   3.648
17172W        W85502  33.964  27.662  10.943
17173W        W85503  31.106  34.902  13.432
17174W        W85504   1.780  15.721  11.991
17175W        W85505  13.164  17.273  12.357
17176W        W85506  15.795  27.616  13.849
17177W        W85507  31.106  13.270   1.806
17178W        W85508  20.693  24.517  14.804
17179W        W85509  32.551  11.638  14.274
17180W        W85510  30.092  34.522  11.399
17181W        W85511   2.752   9.685   0.726
17182W        W85512  27.097  21.093   4.227
17183W        W85513   5.899  43.815  14.885
17184W        W85514  13.128  39.559   2.319
17185W        W85515   2.287  44.842   3.195
17186W        W85516  20.067  43.779   3.817
17187W        W85517   7.293  13.207  14.288
17188W        W85518  20.153   8.775  11.510
17189W        W85519  11.247  17.764   0.766
17190W        W85520  14.120  35.487   0.330
17191W        W85521  43.889  23.077   0.318
17192W        W85522  30.421   9.334   3.656
17193W        W85523  21.654  43.916  11.593
17194W        W85524  28.163  38.508  12.462
17195W        W85525  37.925  38.461   3.813
17196W        W85526  41.853  27.992   1.901
17197W        W85527  12.708  19.184   1.755
17198W        W85528  44.950   6.877  13.892
17199W        W85529   5.705  42.526   1.717
17200W        W85530  41.308  31.031  11.003
17201W        W85531  36.410   7.892  13.831
17202W        W85532  43.319  18.234   1.289
17203W        W85533  42.952   4.253   4.639
17204W        W85534  10.756  23.114  13.029
17205W        W85535   4.737  32.007  11.564
17206W        W85536  35.412  21.548   4.714
17207W        W85537  38.973   6.737  12.060
17208W        W85538  17.563  11.357  10.582
17209W        W85539  36.526   5.764   2.797
17210W        W85540  24.596  18.661  12.885
17211W        W85541   8.744  44.407  12.441
17212W        W85542  15.208  18.763  14.830
17213W        W85543  34.571  33.441  14.453
17214W        W85544  20.110  15.592   1.422
17215W        W85545  42.955  21.562   3.815
17216W        W85546  33.527  42.320   4.736
17217W        W85547  38.958  24.585   0.247
17218W        W85548  34.887   9.666   0.960
17219W        W85549  42.326  43.366  14.024
17220W        W85550  25.665  20.211  14.387
17221W        W85551  21.028  41.000   1.787
17222W        W85552  13.258  42.501   0.295
17223W        W85553  40.926  12.659   0.344
17224W        W85554  14.705  15.730  12.435
17225W        W85555  34.512  44.890   2.849
17226W        W85556   9.384  35.376  13.941
17227W        W85557  12.829  42.940   3.289
17228W        W85558  32.928  16.694  13.462
17229W        W85559  43.298  32.107   0.891
17230W        W85560  21.234  15.812  11.442
17231W        W85561  19.615   2.232  12.037
17232W        W85562  31.571  11.796   0.907
17233W        W85563  40.852  17.781  14.284
17234W        W85564  13.710  10.715   2.267
17235W        W85565  22.579  31.141   5.102
17236W        W85566  19.267  42.009  14.409
17237W        W85567  30.643  33.051  13.962
17238W        W85568  31.539   7.186   0.864
17239W        W85569  28.997   5.363  10.984
17240W        W85570  42.950  15.126  14.511
17241W        W85571  42.344  37.404   2.251
17242W        W85572  36.389  32.546   4.290
17243W        W85573  33.009  12.317  14.844
17244W        W85574  35.030  23.235   2.377
17245W        W85575  39.996  21.254  12.987
17246W        W85576  22.089  33.404   2.400
17247W        W85577   3.920  27.181   4.187
17248W        W85578  41.316  44.801   1.698
17249W        W85579  21.645  36.000  12.348
17250W        W85580  41.909  32.435  13.423
17251W        W85581  12.730   5.356   1.379
17252W        W85582  43.913  11.172  14.905
17253W        W85583  10.228  30.528   1.840
17254W        W85584  22.010  15.249   2.354
17255W        W85585  24.638   3.898   4.763
17256W        W85586  30.646  23.491  13.320
17257W        W85587   2.358  10.328   3.849
17258W        W85588  16.736  42.318  14.400
17259W        W85589  35.049  17.556   1.409
17260W        W85590   3.742  33.444   0.819
17261W        W85591  31.499  10.249  13.859
17262W        W85592   9.717  15.821   3.150
17263W        W85593   2.249   8.795  12.928
17264W        W85594  11.369   4.289  13.916
17265W        W85595  36.543  17.170   4.176
17266W        W85596  21.694  13.207  14.289
17267W        W85597   9.862   5.772  11.451
17268W        W85598   2.311   9.152  12.855
17269W        W85599  20.532  25.577  12.571
17270W        W85600  41.941  35.582   1.788
17271W        W85601  25.206  35.101  14.365
17272W        W85602  28.101  14.223   0.257
17273W        W85603   1.268  40.407  13.987
17274W        W85604  33.092  23.041   2.225
17275W        W85605  42.775  31.964  10.579
17276W        W85606  20.125  12.148   3.270
17277W        W85607  37.885   8.320   4.297
17278W        W85608  15.192  15.684  14.505
17279W        W85609  15.255  33.084  11.029
17280W        W85610   8.251  10.171   0.833
17281W        W85611   5.305  19.688  10.985
17282W        W85612  36.919  15.293   1.751
17283W        W85613   2.826  37.358   3.362
17284W        W85614  28.519  31.581   3.376
17285W        W85615  13.636  34.911   3.689
17286W        W85616  28.470  15.704   1.801
17287W        W85617  21.159  38.042   0.833
17288W        W85618   3.904  20.130   2.217
17289W        W85619  27.467  20.762  10.479
17290W        W85620   9.310  42.832  14.288
17291W        W85621  14.675  42.964  14.970
17292W        W85622  14.144  14.792   0.764
17293W        W85623   6.233  44.826  12.580
17294W        W85624  28.605  17.581  14.987
17295W        W85625  19.281  10.367  12.565
17296W        W85626  41.458  32.888   3.162
17297W        W85627   1.952   9.836   0.928
17298W        W85628   4.806   0.926   1.300
17299W        W85629  26.584  12.679   2.339
17300W        W85630  31.074   5.365  12.864
17301W        W85631  43.989   5.257  14.413
17302W        W85632  38.038  34.984  12.457
17303W        W85633   7.769  32.020  11.013
17304W        W85634  32.914  22.564  11.093
17305W        W85635  25.203   5.695   2.251
17306W        W85636   5.909  41.929   2.879
17307W        W85637  34.407   0.986  13.434
17308W        W85638  28.604   0.885  14.981
17309W        W85639  23.647  11.211   2.184
17310W        W85640  16.660  34.958  10.050
17311W        W85641  20.195   2.823  14.816
17312W        W85642   2.939  36.427  10.966
17313W        W85643  23.191  10.351   3.838
17314W        W85644  41.314  41.356  13.395
17315W        W85645  27.147  37.473   0.276
17316W        W85646  41.300   6.371  13.830
17317W        W85647   9.837   8.842  14.999
17318W        W85648  42.805  10.801  14.415
17319W        W85649  33.567  43.320   2.882
17320W        W85650  37.023  10.149   2.328
17321W        W85651  14.703  32.418  13.879
17322W        W85652  42.475  29.427   2.759
17323W        W85653  31.971   4.319   1.342
17324W        W85654  43.274  27.191   3.630
17325W        W85655  33.998  26.678  13.519
17326W        W85656  40.979  15.820  14.822
17327W        W85657  21.160   1.787   2.704
17328W        W85658  17.111   3.354  10.139
17329W        W85659  17.119  10.218   1.808
17330W        W85660  44.006  25.668  13.483
17331W        W85661  38.384  21.230  10.441
17332W        W85662  22.725   7.774  11.860
17333W        W85663  18.759  40.366   1.417
17334W        W85664  30.466  24.979   1.440
17335W        W85665  26.664  22.153  13.873
17336W        W85666  24.031  25.964   0.928
17337W        W85667  17.074  23.594   4.307
17338W        W85668  35.484   2.869   4.667
17339W        W85669  23.010  27.645   1.444
17340W        W85670  27.562   1.441  12.385
17341W        W85671  32.037  30.430   0.866
17342W        W85672  42.415  15.277  14.860
17343W        W85673  36.876   4.933   4.211
17344W        W85674   4.350  40.002  10.409
17345W        W85675  20.680  23.627   4.650
17346W        W85676  17.625   1.333  14.814
17347W        W85677  40.854  41.449  13.035
17348W        W85678  15.675  25.664   0.923
17349W        W85679  36.061  31.444   3.201
17350W        W85680  24.715  27.461   3.803
17351W        W85681   3.868   8.341   0.751
17352W        W85682  39.377  36.992   2.219
17353W        W85683  20.712  29.658   2.240
17354W        W85684  14.590   0.403   2.362
17355W        W85685  19.535  31.947  13.444
17356W        W85686  30.655  22.576   3.660
17357W        W85687  10.784  35.958  13.491
17358W        W85688  11.637   3.900   0.308
17359W        W85689   1.300   3.343  11.100
17360W        W85690   6.852  32.410   4.765
17361W        W85691  20.272  11.756   2.705
17362W        W85692  34.430  22.549  12.011
17363W        W85693  40.498  24.674  12.440
17364W        W85694   5.833  11.265   1.307
17365W        W85695  32.473  38.954   3.762
17366W        W85696  27.960  15.730   4.625
17367W        W85697  39.422   9.156  13.980
17368W        W85698   7.268  37.527  13.902
17369W        W85699  44.267  30.028   1.227
17370W        W85700   4.749  33.091   1.290
17371W        W85701  41.304  29.957   0.296
17372W        W85702  34.111  17.702  10.472
17373W        W85703  36.971  21.155  14.485
17374W        W85704  29.098  23.006  12.400
17375W        W85705  16.102  38.005   4.324
17376W        W85706   5.357  15.099  14.827
17377W        W85707   8.279  19.677   3.782
17378W        W85708  25.476   5.314  13.535
17379W        W85709  40.854   0.892  11.386
17380W        W85710  13.209  12.627  13.464
17381W        W85711  11.683  28.016   3.715
17382W        W85712  39.941  22.572  12.995
17383W        W85713  26.533  42.518   4.174
17384W        W85714  34.558  41.425   2.335
17385W        W85715  12.724   5.311  11.514
17386W        W85716  19.652  41.337   0.736
17387W        W85717  16.780  40.418   4.836
17388W        W85718   9.810  33.062  14.008
17389W        W85719  36.554  15.597  11.020
17390W        W85720  24.057  17.585   3.754
17391W        W85721  41.000  25.005   0.249
17392W        W85722   7.204  39.043   3.319
17393W        W85723  40.045  25.218  14.982
17394W        W85724   4.783   7.690   0.865
17395W        W85725  42.914  27.000  13.865
17396W        W85726  23.135  17.276   0.449
17397W        W85727  44.850  17.206   2.410
17398W        W85728  33.091  24.714   2.779
17399W        W85729  10.157  14.268   3.203
17400W        W85730  20.550  35.935  12.524
17401W        W85731  44.346  23.171  14.395
17402W        W85732  38.355  41.865  11.937
17403W        W85733  43.333  27.631   1.853
17404W        W85734   4.222  25.700   3.854
17405W        W85735  22.624   5.787  12.073
17406W        W85736  21.522   6.406  11.043
17407W        W85737  21.518  38.987  11.402
17408W        W85738  32.418   1.819   0.354
17409W        W85739   9.170  30.053   2.416
17410W        W85740  42.809  42.886  11.443
17411W        W85741  13.287  39.951   2.824
17412W        W85742   1.838  29.488   3.865
17413W        W85743  20.693  30.601   4.115
17414W        W85744  28.634  17.086  13.459
17415W        W85745   0.343  12.740  14.981
17416W        W85746  12.622   2.452  13.064
17417W        W85747  42.009  12.767  10.977
17418W        W85748  39.496  36.543   2.340
17419W        W85749   0.248  28.100  12.054
17420W        W85750  36.041  32.634   1.860
17421W        W85751  33.106  32.541  13.841
17422W        W85752  19.566  27.567   4.158
17423W        W85753   5.253  33.076  14.856
17424W        W85754   3.940  14.680  12.375
17425W        W85755   8.349   6.328   2.261
17426W        W85756   9.395   9.325  13.991
17427W        W85757   7.365   7.225   0.866
17428W        W85758  33.515  30.117  10.501
17429W        W85759  15.236  37.929   3.648
17430W        W85760   5.357  32.065  12.442
17431W        W85761  20.273  42.449   0.754
17432W        W85762   2.887   9.702  12.882
17433W        W85763  21.670  38.462   2.748
17434W        W85764  15.603  12.634  10.522
17435W        W85765   9.395  29.050  10.122
17436W        W85766  37.964  12.299  12.020
17437W        W85767  15.577  38.517   3.720
17438W        W85768  20.745  27.685  13.351
17439W        W85769  18.200  39.986   1.870
17440W        W85770  18.070  30.142  12.470
17441W        W85771   6.853   6.375   1.748
17442W        W85772  31.441  28.060   2.347
17443W        W85773  44.287  33.502  10.904
17444W        W85774  18.159  37.566   2.349
17445W        W85775  40.344  29.003  12.985
17446W        W85776   8.785  12.694  14.863
17447W        W85777  27.675  37.520  11.560
17448W        W85778  21.109  42.962   1.441
17449W        W85779  27.010  17.090  14.979
17450W        W85780   9.362   7.895  10.944
17451W        W85781  19.538  23.550   5.302
17452W        W85782  30.092  10.152  14.296
17453W        W85783  18.601  26.205  13.807
17454W        W85784  28.081  15.736   1.307
17455W        W85785  20.179   1.854  10.928
17456W        W85786  19.727  13.340  13.448
17457W        W85787  30.457  35.472   0.366
17458W        W85788  35.529   2.446   1.395
17459W        W85789   0.980   2.450   3.191
17460W        W85790  39.856  14.824   4.814
17461W        W85791  28.988   6.358  11.910
17462W        W85792  19.717  21.522   3.210
17463W        W85793   6.263  16.723  13.918
17464W        W85794   7.282  21.568   4.264
17465W        W85795   4.897  10.828   3.833
17466W        W85796  35.365  17.143   0.263
17467W        W85797  32.127  25.688   1.233
17468W        W85798  27.020  26.201  14.970
17469W        W85799   6.714  15.146   4.683
17470W        W85800  30.982  24.036   1.341
17471W        W85801  29.634   0.823  10.939
17472W        W85802  16.704  33.102  14.877
17473W        W85803  41.964  19.057  12.911
17474W        W85804  29.956  29.520  13.425
17475W        W85805  22.583  31.995  12.932
17476W        W85806  34.906  13.650   2.737
17477W        W85807  28.501  35.439   3.822
17478W        W85808  19.572  13.837   1.360
17479W        W85809   3.809   5.888  14.960
17480W        W85810  20.202  26.108  10.424
17481W        W85811  34.022   6.386   4.125
17482W        W85812   4.751  26.553  13.956
17483W        W85813  10.656   7.808   4.772
17484W        W85814  23.087  16.686  12.883
17485W        W85815  33.986  16.285  12.009
17486W        W85816  33.933  13.154  13.857
17487W        W85817  28.590  30.988   4.772
17488W        W85818  33.908   7.294  13.813
17489W        W85819   7.233  10.228  10.106
17490W        W85820   2.907  22.077   4.695
17491W        W85821   9.865  18.631  11.552
17492W        W85822  24.002  38.345  11.075
17493W        W85823   5.903  33.564   1.321
17494W        W85824   2.270  16.659  14.418
17495W        W85825   7.811  16.114   2.378
17496W        W85826  38.537  32.124  13.873
17497W        W85827  19.272  33.098  10.917
17498W        W85828  22.203  34.537   0.411
17499W        W85829  37.515  17.114   2.896
17500W        W85830  38.487  41.421  12.968
17501W        W85831  14.791  40.479  10.901
17502W        W85832  27.681  10.719   4.729
17503W        W85833  10.352  10.645  14.020
17504W        W85834  34.478   1.329   3.342
17505W        W85835  21.562  32.581   2.859
17506W        W85836  32.905  13.682   4.329
17507W        W85837  15.218  35.855  13.527
17508W        W85838   5.436  14.726   3.744
17509W        W85839  39.388  23.075  12.553
17510W        W85840  18.785  25.000   0.964
17511W        W85841  33.881  14.719  14.874
17512W        W85842   4.447  39.960   1.232
17513W        W85843  38.048  31.547   3.193
17514W        W85844   0.760   4.934  13.835
17515W        W85845  25.524  42.416   1.704
17516W        W85846  21.746   3.932  11.914
17517W        W85847  36.470  26.973  11.902
17518W        W85848  39.500  16.242  11.545
17519W        W85849  44.828  11.626  12.850
17520W        W85850  18.062  10.307   2.251
17521W        W85851  33.431   4.224  13.991
17522W        W85852  12.694  16.206   1.851
17523W        W85853   6.720  23.071  14.886
17524W        W85854  17.076   7.363   2.687
17525W        W85855  36.855   9.220  14.768
17526W        W85856  40.515  40.949  12.353
17527W        W85857   4.329  37.548  13.371
17528W        W85858  17.263  43.387  11.056
17529W        W85859  30.070   0.777   1.902
17530W        W85860  23.085   0.390  14.401
17531W        W85861  19.759  21.673   2.687
17532W        W85862  29.938  19.084  12.845
17533W        W85863  40.945  38.077  11.112
17534W        W85864  42.019  36.539  11.022
17535W        W85865  40.429   0.813   1.438
17536W        W85866  37.077  13.175   0.954
17537W        W85867  17.739  29.588  13.383
17538W        W85868  28.072  10.353   1.218
17539W        W85869  27.082  40.534   3.634
17540W        W85870  34.077  41.923  12.038
17541W        W85871  43.835  42.803  13.034
17542W        W85872  26.044  10.187  13.535
17543W        W85873   1.813  38.534   0.744
17544W        W85874  20.586  40.985   2.797
17545W        W85875   3.393  20.634   3.250
17546W        W85876  23.592  12.279  14.485
17547W        W85877  33.462  33.558   5.236
17548W        W85878  29.118  43.348   2.854
17549W        W85879   5.337  29.610   4.648
17550W        W85880  18.565  40.051   1.817
17551W        W85881   7.672  43.772  12.827
17552W        W85882  12.661  14.751   2.718
17553W        W85883  35.400  43.774   1.800
17554W        W85884  39.537  28.482   0.259
17555W        W85885  27.604  11.631  11.505
17556W        W85886  13.762  11.849   3.345
17557W        W85887   4.732  30.977  11.045
17558W        W85888  31.007  28.108  14.387
17559W        W85889  31.562  18.545  10.429
17560W        W85890  41.788  32.508  11.110
17561W        W85891  21.571   8.300  11.999
17562W        W85892  28.016  19.556  13.019
17563W        W85893   0.450   1.366   3.252
17564W        W85894  33.525  15.798  12.533
17565W        W85895  31.498  13.798   3.859
17566W        W85896  32.538  20.172   5.244
17567W        W85897  10.147  25.623  14.274
17568W        W85898  25.007  28.628  15.000
17569W        W85899  30.944  37.480  14.330
17570W        W85900  33.412  14.276   0.278
17571W        W85901   7.706  22.242  13.796
17572W        W85902  31.930  22.504  12.375
17573W        W85903  11.266  36.538  10.490
17574W        W85904  26.090  42.463   4.693
17575W        W85905  43.305  28.942   1.230
17576W        W85906  31.969  33.909   2.346
17577W        W85907  15.090   7.190  10.617
17578W        W85908  40.946  25.139  11.915
17579W        W85909   7.243   4.269  10.429
17580W        W85910   1.392  26.560  11.014
17581W        W85911  22.107   5.439  11.106
17582W        W85912  30.579  14.215   2.675
17583W        W85913  34.464  35.537   2.204
17584W        W85914  44.300  40.505   0.920
17585W        W85915   3.250   7.683   1.819
17586W        W85916   8.802   2.252   5.190
17587W        W85917  24.981  34.917   5.258
17588W        W85918   1.774  44.793   4.629
17589W        W85919  36.926  27.613  11.959
17590W        W85920  42.928  38.830  10.486
17591W        W85921  24.646  37.971   4.198
17592W        W85922  34.020  11.320   0.933
17593W        W85923  40.959  11.817  13.802
17594W        W85924  40.440  10.251  11.975
17595W        W85925  26.552  20.184   3.820
17596W        W85926  44.446  15.247  13.460
17597W        W85927   0.893  33.533  10.460
17598W        W85928  25.680  38.937  12.530
17599W        W85929  42.968   2.434   3.720
17600W        W85930  15.636   4.232   0.823
17601W        W85931  38.016  42.284  11.431
17602W        W85932  16.105  28.167  12.971
17603W        W85933  43.863   5.788   1.323
17604W        W85934  41.912  42.406  13.486
17605W        W85935  19.779  27.143  10.497
17606W        W85936  12.760   8.369   0.334
17607W        W85937  12.347  17.084   2.760
17608W        W85938   2.375  29.924   0.327
17609W        W85939  30.014  33.414   4.824
17610W        W85940  35.469   5.196  10.987
17611W        W85941  44.765  15.771  13.983
17612W        W85942  21.238  28.940  13.545
17613W        W85943  41.983   1.758  13.966
17614W        W85944   0.877  44.957  13.481
17615W        W85945   0.895  44.908   2.232
17616W        W85946  26.068  11.290   4.652
17617W        W85947  33.005  12.252  14.335
17618W        W85948  39.530   6.797  11.375
17619W        W85949   6.735  13.626   2.293
17620W        W85950  21.137  38.976   3.825
17621W        W85951  43.389  41.940   2.245
17622W        W85952  34.086  19.538   0.839
17623W        W85953  33.007  39.040   2.222
17624W        W85954  21.605  25.046   2.849
17625W        W85955  10.297   4.350   1.884
17626W        W85956  40.810   1.952   2.893
17627W        W85957  26.198  33.459  12.461
17628W        W85958  27.651  38.027  11.982
17629W        W85959  25.468  43.795   0.443
17630W        W85960  11.728  17.557   0.746
17631W        W85961  26.574  10.337   0.766
17632W        W85962   2.847  35.969  14.009
17633W        W85963  18.257  33.041   4.606
17634W        W85964  30.487  44.463   2.241
17635W        W85965   3.334   8.257  13.414
17636W        W85966  39.928  14.164   0.362
17637W        W85967  28.620  32.997   1.823
17638W        W85968  13.336  33.956   0.954
17639W        W85969  29.463  21.531   5.269
17640W        W85970  26.135  15.228  13.479
17641W        W85971  37.562  10.834   0.847
17642W        W85972  42.422   5.368   3.643
17643W        W85973   9.840  38.377   3.784
17644W        W85974  36.563  41.296   3.731
17645W        W85975  14.801  22.007  14.803
17646W        W85976  25.495   7.350   2.818
17647W        W85977   9.876  15.195  11.087
17648W        W85978  10.286   3.912   4.781
17649W        W85979  43.001  25.597   2.777
17650W        W85980   2.229  35.408   1.403
17651W        W85981  26.659  23.545   2.671
17652W        W85982  37.385  22.594  14.449
17653W        W85983   7.820  16.316  13.444
17654W        W85984  35.545   4.355   4.735
17655W        W85985  44.754  17.129   4.339
17656W        W85986  25.063   3.737   1.280
17657W        W85987  42.916  34.376  13.996
17658W        W85988  22.720   8.768   2.396
17659W        W85989  17.582  29.485  14.920
17660W        W85990  36.012  37.847   0.907
17661W        W85991  12.677  24.069  12.829
17662W        W85992  27.018  26.631   4.801
17663W        W85993   6.349  25.194  14.463
17664W        W85994  23.187  30.552  10.573
17665W        W85995  33.110   5.287  14.924
17666W        W85996  42.785   5.708   0.930
17667W        W85997  44.905  30.505   2.376
17668W        W85998  16.606  37.009  12.920
17669W        W85999  14.111   1.768  12.343
17670W        W86000  34.510   2.358  14.442
17671W        W86001  21.189  12.651   2.263
17672W        W86002  32.404   5.736   2.688
17673W        W86003   1.734  33.881  12.564
17674W        W86004   6.713  36.411   4.753
17675W        W86005   0.298  37.507   4.724
17676W        W86006   5.860  28.606  13.009
17677W        W86007  38.441   5.284   0.912
17678W        W86008   6.746  22.242   4.813
17679W        W86009   8.175  33.978   4.759
17680W        W86010  28.156   9.646   5.162
17681W        W86011   3.442  11.255   1.907
17682W        W86012   7.375   2.773   4.758
17683W        W86013  25.112  39.372   0.894
17684W        W86014   5.287  26.003   1.809
17685W        W86015   8.703  14.174  11.924
17686W        W86016  36.449  25.199   3.632
17687W        W86017  18.607  41.837   4.771
17688W        W86018  37.576   5.347  11.509
17689W        W86019  43.012  34.484   0.735
17690W        W86020  11.322  13.175  12.993
17691W        W86021   3.373  38.936   5.583
17692W        W86022  33.459  40.516   1.339
17693W        W86023   3.913  44.368  13.525
17694W        W86024  44.333   2.907  14.331
17695W        W86025  25.038  18.173  12.401
17696W        W86026  16.161  15.616  13.357
17697W        W86027  39.419  26.564  12.492
17698W        W86028  24.089  16.567  14.771
17699W        W86029   4.273  38.036   4.272
17700W        W86030  20.206  21.645  14.021
17701W        W86031  28.592   5.796  14.405
17702W        W86032   7.395  33.470   4.802
17703W        W86033  43.512  15.739   1.234
17704W        W86034  30.014  15.749   2.833
17705W        W86035  13.612  11.834   2.667
17706W        W86036   6.415  35.599  12.877
17707W        W86037  25.479  24.591   2.318
17708W        W86038  44.939  13.153   1.851
17709W        W86039  31.546  12.318  10.506
17710W        W86040  11.292   1.739  13.468
17711W        W86041  12.178  23.218   1.764
17712W        W86042  28.938  14.622   1.800
17713W        W86043   3.902   3.777   3.304
17714W        W86044  27.472  13.793   2.376
17715W        W86045  19.115  27.016  13.836
17716W        W86046  22.139  34.110   2.687
17717W        W86047  29.486  37.557  10.064
17718W        W86048  36.881   8.804  14.993
17719W        W86049  14.144   4.898  10.600
17720W        W86050  14.287  36.389   3.380
17721W        W86051  21.744  17.688  13.041
17722W        W86052  28.541  23.169  10.962
17723W        W86053  24.123  42.834  11.128
17724W        W86054  30.579   1.438   4.313
17725W        W86055  35.885  25.144  11.383
17726W        W86056  35.480  12.636   0.245
17727W        W86057  32.419  24.664   1.393
17728W        W86058  13.115  25.492   1.728
17729W        W86059   1.388  15.197  10.527
17730W        W86060   3.387  14.659  12.389
17731W        W86061  25.654  36.844  13.476
17732W        W86062  19.096  38.544   4.657
17733W        W86063   9.685  34.475  10.517
17734W        W86064  13.202  11.141  13.833
17735W        W86065  33.455  10.691  11.895
17736W        W86066  26.041   6.717  13.458
17737W        W86067  38.444  12.828  13.845
17738W        W86068   6.358  15.597   4.822
17739W        W86069  11.847  13.761  13.894
17740W        W86070   5.280  32.909  14.371
17741W        W86071  18.075  16.723   3.195
17742W        W86072   5.241  40.358  13.902
17743W        W86073  22.070  30.038   1.403
17744W        W86074  37.337  30.464   2.256
17745W        W86075  43.992   4.782  10.631
17746W        W86076  43.893  15.312   4.684
17747W        W86077  32.917   0.870  13.497
17748W        W86078   3.858  15.091  14.312
17749W        W86079  15.264  21.703  14.862
17750W        W86080  25.523  44.419  12.863
17751W        W86081  38.927  10.840  14.496
17752W        W86082   3.355  21.552   3.318
17753W        W86083  17.795  33.499  13.356
17754W        W86084  36.451   1.771  13.031
17755W        W86085   3.739   1.882  12.830
17756W        W86086   4.298  37.371   5.198
17757W        W86087  24.208   7.411   1.362
17758W        W86088  36.533   9.167  11.056
17759W        W86089  11.180   0.910   0.880
17760W        W86090   9.706   6.733  13.890
17761W        W86091   2.939  20.234  12.017
17762W        W86092  16.660  24.052  11.555
17763W        W86093   1.778  33.406   3.635
17764W        W86094  11.282  37.862  13.837
17765W        W86095  29.547  38.520  13.056
17766W        W86096  24.148  16.294  13.448
17767W        W86097  35.518  11.830   4.332
17768W        W86098  37.932  20.272   1.871
17769W        W86099   9.857  10.640  11.547
17770W        W86100  22.136  28.985  12.972
17771W        W86101   3.782  41.899  13.462
17772W        W86102  22.138  30.107  10.020
17773W        W86103  19.587  34.987   0.901
17774W        W86104  19.590  40.914  12.363
17775W        W86105  40.529  20.727   4.233
17776W        W86106   5.904  11.759  11.005
17777W        W86107  31.072  35.490  12.962
17778W        W86108  22.203  23.176   0.447
17779W        W86109  17.265  43.504   1.342
17780W        W86110  19.609  24.594  12.893
17781W        W86111  18.577  18.557   1.846
17782W        W86112  28.674  44.961  13.447
17783W        W86113   3.246  18.112   4.621
17784W        W86114  21.659  24.004  14.758
17785W        W86115   3.805  24.672   0.735
17786W        W86116  30.131  19.098   4.753
17787W        W86117   9.734  28.177   2.762
17788W        W86118  24.521  24.091   1.861
17789W        W86119  32.904  21.616   5.287
17790W        W86120  29.076  10.240  13.869
17791W        W86121  25.051  34.476  11.565
17792W        W86122  18.207  38.544  14.977
17793W        W86123  30.045  34.970  13.426
17794W        W86124  22.712   9.664  14.299
17795W        W86125   1.418  19.750   4.721
17796W        W86126   7.305  10.818  14.927
17797W        W86127  29.008  13.217  14.896
17798W        W86128  32.095  12.792   9.973
17799W        W86129  18.185   1.837  11.403
17800W        W86130   6.756  10.202   3.356
17801W        W86131   9.856  20.683   3.368
17802W        W86132   0.255   5.226   1.369
17803W        W86133  16.103  37.904   3.304
17804W        W86134   2.387  42.908  12.899
17805W        W86135  14.743   8.220  12.909
17806W        W86136  34.516  35.995   2.290
17807W        W86137  10.375  35.899  11.065
17808W        W86138   4.945   7.383   0.741
17809W        W86139  24.546  33.553   1.334
17810W        W86140  18.747  26.553  11.021
17811W        W86141   7.331  16.794   3.715
17812W        W86142   8.764  19.629   1.265
17813W        W86143  13.678  33.435   2.342
17814W        W86144  36.590  10.250  11.061
17815W        W86145   5.722  19.264  10.947
17816W        W86146   1.262  28.081  12.463
17817W        W86147  21.045  40.363   4.722
17818W        W86148  40.985  38.373   4.228
17819W        W86149   6.426  38.328   1.929
17820W        W86150  37.491  37.074   0.392
17821W        W86151  43.424  22.597  10.582
17822W        W86152  38.053  26.102   1.782
17823W        W86153  24.637  42.936  11.940
17824W        W86154   7.256  10.306  11.374
17825W        W86155  27.532  31.425  14.398
17826W        W86156  37.496  19.585  12.071
17827W        W86157  20.100   8.172  11.557
17828W        W86158  28.171  22.089  14.380
17829W        W86159  39.900  42.396   1.869
17830W        W86160  28.667  36.013   2.291
17831W        W86161  28.543   1.321   4.740
17832W        W86162  42.878   1.403  11.603
17833W        W86163   5.721   1.847   2.833
17834W        W86164   4.909   7.796   2.807
17835W        W86165  40.046  35.543  13.939
17836W        W86166  37.347  12.830   3.281
17837W        W86167  17.063  30.527   3.177
17838W        W86168  22.671   7.233   2.849
17839W        W86169  14.218   7.368   1.254
17840W        W86170  28.084  29.479  13.872
17841W        W86171  16.207   7.185   0.810
17842W        W86172  17.140  31.038   4.660
17843W        W86173  16.676   8.244  12.446
17844W        W86174  40.982  22.644  13.358
17845W        W86175   8.325  35.524   3.657
17846W        W86176  20.119  16.626   1.863
17847W        W86177  11.276  27.684   2.258
17848W        W86178  38.075  16.308   0.247
17849W        W86179  30.433  36.402   0.301
17850W        W86180  18.719  30.427  11.011
17851W        W86181  29.622  18.704   1.728
17852W        W86182  12.180   2.298  11.462
17853W        W86183  35.513  10.183  11.980
17854W        W86184  14.678  36.431   0.250
17855W        W86185  24.996  20.728  12.401
17856W        W86186  37.850  26.493   1.292
17857W        W86187  28.074  11.741   3.832
17858W        W86188  12.695   4.856   4.767
17859W        W86189  13.276  12.293   1.694
17860W        W86190  39.838  22.052  12.059
17861W        W86191  38.031  33.488   1.782
17862W        W86192   2.380   9.227   1.777
17863W        W86193  33.992  12.687   0.840
17864W        W86194   8.668  23.181  13.319
17865W        W86195  34.477  32.072  13.526
17866W        W86196  14.189  12.713   2.273
17867W        W86197  19.180  11.264  11.444
17868W        W86198  26.500  16.619   0.831
17869W        W86199  11.200  19.592   0.434
17870W        W86200  13.261   1.946  13.007
17871W        W86201  24.036  21.550  11.425
17872W        W86202  22.738  16.143   1.372
17873W        W86203  14.280  24.111   3.672
17874W        W86204  10.775   0.305   4.752
17875W        W86205  17.587  37.841   0.806
17876W        W86206  44.788  42.351  10.944
17877W        W86207   0.833  16.161  10.961
17878W        W86208  19.724  21.546  13.369
17879W        W86209   3.405  40.932   3.378
17880W        W86210  28.631  13.336   5.173
17881W        W86211   7.873  10.841   4.607
17882W        W86212  38.979  19.283  10.478
17883W        W86213   4.422   8.384  12.944
17884W        W86214  35.407  41.464  14.473
17885W        W86215   3.842  23.696   4.772
17886W        W86216  42.955   8.900  11.541
17887W        W86217  31.896   4.813   1.878
17888W        W86218  26.134  10.356   5.156
17889W        W86219  17.123  41.982   0.320
17890W        W86220  18.295  26.964   1.249
17891W        W86221  29.086  42.948  14.843
17892W        W86222  28.447   6.852  12.459
17893W        W86223   4.383  43.301   1.879
17894W        W86224  21.144  18.615   0.935
17895W        W86225  35.072  42.906   2.210
17896W        W86226   5.383   3.427  13.841
17897W        W86227  17.563  42.898   3.728
17898W        W86228  40.424  34.880   1.835
17899W        W86229  30.004  44.352  14.857
17900W        W86230  29.140  30.468   1.931
17901W        W86231  29.626  22.012   4.172
17902W        W86232  19.219  19.616   1.355
17903W        W86233  10.869  40.319  10.014
17904W        W86234  19.687  28.038  11.993
17905W        W86235   2.238  38.872   0.773
17906W        W86236  32.960  33.586  14.473
17907W        W86237  16.215  38.479   1.898
17908W        W86238  40.044  12.181   1.841
17909W        W86239  35.452  38.440   0.930
17910W        W86240  24.132  15.640   3.769
17911W        W86241   0.761  32.929  11.977
17912W        W86242   8.893   9.846  10.912
17913W        W86243  40.405   7.867  10.031
17914W        W86244  44.466   8.787   0.483
17915W        W86245  16.808  28.553  13.413
17916W        W86246  39.965  23.589   3.198
17917W        W86247  14.826  22.517  13.887
17918W        W86248  32.945  19.066  14.458
17919W        W86249  12.169  16.753   0.729
17920W        W86250  36.058   0.789  13.480
17921W        W86251  30.524   4.210  14.450
17922W        W86252  37.018  34.987  10.544
17923W        W86253  16.240   1.757   0.268
17924W        W86254  38.364  44.407  14.826
17925W        W86255  32.414  42.913   1.297
17926W        W86256  40.026   3.373   3.356
17927W        W86257   3.788  29.476  14.372
17928W        W86258  23.518   6.806  12.566
17929W        W86259   5.257  40.036  12.406
17930W        W86260  24.213  24.053   0.938
17931W        W86261  43.835  35.487  14.869
17932W        W86262   8.334  28.017  13.357
17933W        W86263  38.401  35.556  13.409
17934W        W86264   4.419  20.756  13.920
17935W        W86265  22.227  26.587   4.164
17936W        W86266  31.923  15.808   2.294
17937W        W86267  17.155  38.037   0.802
17938W        W86268  14.275  12.843  13.856
17939W        W86269  22.623  17.244   5.228
17940W        W86270  27.609  25.040   2.256
17941W        W86271  41.935   2.457  12.853
17942W        W86272   9.301  10.344  10.424
17943W        W86273   5.714   7.321   3.696
17944W        W86274   3.747  17.720  12.500
17945W        W86275  17.276  12.168  11.377
17946W        W86276  36.392   8.402  12.391
17947W        W86277   6.240   8.160   2.327
17948W        W86278  23.618  37.013   0.264
17949W        W86279  36.393  24.007  11.386
17950W        W86280  14.676   0.393  13.531
17951W        W86281   5.423  15.237  12.345
17952W        W86282   5.316  43.953   2.844
17953W        W86283  36.044   8.388   1.305
17954W        W86284  44.466  39.466   3.263
17955W        W86285  10.283  20.101  12.568
17956W        W86286  19.209  14.177   2.804
17957W        W86287  17.065  15.809  14.890
17958W        W86288  42.972   5.764   4.751
17959W        W86289  41.914  34.114  14.417
17960W        W86290  37.575  17.740  12.084
17961W        W86291   9.194  36.878   4.161
17962W        W86292   8.696   4.385   4.114
17963W        W86293  23.140  21.141  13.352
17964W        W86294  40.856  20.259   1.377
17965W        W86295  38.012  11.722  11.438
17966W        W86296  25.143  13.685   1.792
17967W        W86297  39.828   9.692  14.330
17968W        W86298   6.325   9.385  14.983
17969W        W86299  13.123  15.112  13.828
17970W        W86300  23.602  15.273   2.387
17971W        W86301  39.422  38.939   0.915
17972W        W86302   8.665  28.586  11.869
17973W        W86303  41.963  30.022  13.346
17974W        W86304  39.970  18.263   4.226
17975W        W86305  14.124  37.881  10.092
17976W        W86306  24.699  14.724   1.814
17977W        W86307  24.157  33.535   1.407
17978W        W86308  34.578  42.495   4.785
17979W        W86309  30.648  40.887  11.525
17980W        W86310   5.735  32.558   2.318
17981W        W86311  22.691  41.443   4.822
17982W        W86312   5.385   6.383  14.971
17983W        W86313  43.318  39.830  14.510
17984W        W86314  35.038   5.421   3.665
17985W        W86315  44.477  10.140   5.181
17986W        W86316  27.048   1.971  10.437
17987W        W86317  26.557  44.833  14.491
17988W        W86318  34.400  34.988   3.644
17989W        W86319   1.769  20.256   0.273
17990W        W86320  35.010  28.136   1.751
17991W        W86321  39.061  35.076  11.917
17992W        W86322  41.331  17.650  13.033
17993W        W86323   3.812  32.142   4.642
17994W        W86324  21.130  43.400   3.778
17995W        W86325  31.006  23.073   4.216
17996W        W86326  22.063  26.508  14.342
17997W        W86327   8.817  40.513  11.981
17998W        W86328  13.336  11.319  12.897
17999W        W86329   3.857   0.413  14.355
18000W        W86330  28.608  32.440  11.548
18001W        W86331  12.825   1.805   4.694
18002W        W86332  17.649   4.451   2.894
18003W        W86333  31.521  15.104  11.394
18004W        W86334  40.950   9.822   2.688
18005W        W86335  27.591   8.383  13.406
18006W        W86336  38.462  19.063   3.277
18007W        W86337  21.077  10.727   2.399
18008W        W86338  14.302  37.442   9.961
18009W        W86339   8.263   1.276   3.842
18010W        W86340   4.208  33.574  13.804
18011W        W86341  14.713   4.323  14.470
18012W        W86342   7.708  29.932  13.385
18013W        W86343  25.108   8.719   1.915
18014W        W86344  16.606  44.461  14.397
18015W        W86345  27.168  16.647   4.115
18016W        W86346  25.588  12.138  10.640
18017W        W86347  18.229  32.566  14.923
18018W        W86348   9.320  44.918   4.598
18019W        W86349  12.170  26.474   1.301
18020W        W86350   7.176  26.133  11.426
18021W        W86351   8.659   3.775   2.674
18022W        W86352  29.587  11.184   3.660
18023W        W86353  25.988  43.805  13.545
18024W        W86354  26.690   6.721   4.164
18025W        W86355  28.967  32.392  14.294
18026W        W86356  41.329   3.307   3.864
18027W        W86357  26.986  33.953   9.925
18028W        W86358  18.121   2.396  11.599
18029W        W86359  11.768  20.541   0.314
18030W        W86360  39.054  17.729  14.311
18031W        W86361  18.651  28.469  14.943
18032W        W86362  14.267  40.867   0.731
18033W        W86363  41.433  19.078  10.978
18034W        W86364   6.368  14.226  14.802
18035W        W86365   4.771  36.851  12.549
18036W        W86366   0.437  20.067  11.120
18037W        W86367  31.572  13.248  12.067
18038W        W86368  20.261  38.039   1.314
18039W        W86369  34.384  30.023  14.835
18040W        W86370  25.168  23.524   1.368
18041W        W86371  16.289  44.886   2.690
18042W        W86372  33.402  33.099   3.691
18043W        W86373   0.899  35.897   0.472
18044W        W86374   0.861  12.673  12.834
18045W        W86375  24.016  37.431  13.899
18046W        W86376   3.355  28.536  11.543
18047W        W86377  29.005  34.545   3.200
18048W        W86378   1.734  41.928  14.341
18049W        W86379  39.975  13.198   1.311
18050W        W86380  31.419  41.328   0.266
18051W        W86381  20.525  24.975  11.513
18052W        W86382  30.623  17.173   0.798
18053W        W86383  39.855  33.402  14.310
18054W        W86384  27.623  15.198  13.920
18055W        W86385  29.021  43.011   1.840
18056W        W86386   4.831  16.737  12.493
18057W        W86387  39.535  37.539  13.015
18058W        W86388   5.865   3.746  13.371
18059W        W86389  15.599  13.159  10.406
18060W        W86390  17.565  15.703   0.746
18061W        W86391  15.777  24.709  14.929
18062W        W86392  23.160  20.767   2.177
18063W        W86393  17.678  17.707   3.704
18064W        W86394  39.914  43.878   3.356
18065W        W86395   8.389   8.377   0.390
18066W        W86396  38.024  16.645  10.631
18067W        W86397  13.669  23.984   4.326
18068W        W86398   8.239  43.279   1.699
18069W        W86399   1.458  13.689   2.374
18070W        W86400  41.852  19.666  12.479
18071W        W86401  34.578  35.063  13.856
18072W        W86402   7.193  32.038  14.776
18073W        W86403   5.918  16.099  14.807
18074W        W86404  43.378   5.839  10.998
18075W        W86405   5.367  21.683  14.980
18076W        W86406  36.500   5.754   3.745
18077W        W86407  10.707  44.862  11.037
18078W        W86408  22.017  21.690   0.425
18079W        W86409  11.318  18.682  14.880
18080W        W86410  44.813  29.018   3.283
18081W        W86411  19.153  44.445   0.730
18082W        W86412   3.793  41.438   3.175
18083W        W86413  31.978  18.632  13.965
18084W        W86414   4.825  10.684  13.391
18085W        W86415  14.681  42.367  13.862
18086W        W86416  29.127   5.754   2.251
18087W        W86417  19.662  38.351  10.897
18088W        W86418  43.336  23.178   0.802
18089W        W86419  27.973  14.201   3.263
18090W        W86420  10.638  36.906  12.948
18091W        W86421  33.526  36.060   0.310
18092W        W86422  39.937  10.276   1.898
18093W        W86423  36.417  23.678  12.892
18094W        W86424  12.337  10.821   3.305
18095W        W86425   5.747  16.671   3.291
18096W        W86426  33.006  17.207   1.723
18097W        W86427  32.585  27.076  11.602
18098W        W86428  20.068  15.753  11.093
18099W        W86429  13.779  42.941   1.897
18100W        W86430   4.872  41.999  11.571
18101W        W86431  29.920  30.108  12.509
18102W        W86432  16.680  26.114   9.618
18103W        W86433  31.488  42.375   2.358
18104W        W86434  12.768  22.561  12.578
18105W        W86435  27.550  41.041   2.414
18106W        W86436  39.436   9.205  11.877
18107W        W86437  25.668  38.043  11.496
18108W        W86438  12.733  34.026   4.599
18109W        W86439  29.502   1.733  14.311
18110W        W86440   2.242   0.954   2.662
18111W        W86441  33.448  44.456  14.462
18112W        W86442  34.035  28.534   2.186
18113W        W86443  12.651  10.214   3.178
18114W        W86444  16.280   3.454   4.204
18115W        W86445  14.766  22.571   0.949
18116W        W86446  16.710  23.588   3.244
18117W        W86447  40.801  19.080   2.878
18118W        W86448  33.517  35.434   3.831
18119W        W86449  28.496  17.207   0.784
18120W        W86450  31.605  12.617   4.703
18121W        W86451  18.564  15.676  14.394
18122W        W86452   1.845  30.954  14.780
18123W        W86453   5.791  36.442   2.731
18124W        W86454  35.865  12.641  14.798
18125W        W86455  28.479   4.879  13.349
18126W        W86456  12.855  34.523   2.274
18127W        W86457  22.640   2.350  14.760
18128W        W86458  28.169  30.140   4.663
18129W        W86459  12.692   1.426   0.864
18130W        W86460  16.149  16.091   3.377
18131W        W86461   4.845  35.400   1.266
18132W        W86462  24.554   4.378   4.658
18133W        W86463  33.966  26.469  10.480
18134W        W86464  37.368   4.900   4.239
18135W        W86465   8.235   7.274   3.247
18136W        W86466   1.774   4.337  12.892
18137W        W86467  41.978  21.188   9.940
18138W        W86468  32.591  22.178  11.524
18139W        W86469   0.772  29.573  12.834
18140W        W86470  30.143  32.543  14.900
18141W        W86471  33.969   5.314   3.774
18142W        W86472  23.660  23.540  10.639
18143W        W86473  35.965  13.687  12.062
18144W        W86474  38.531  16.671  12.940
18145W        W86475  42.812  37.900  10.963
18146W        W86476   7.833  15.621  11.525
18147W        W86477  15.126  22.020   3.296
18148W        W86478  31.025  25.977   4.339
18149W        W86479  11.757  36.451   2.224
18150W        W86480  14.158  37.843  11.976
18151W        W86481   2.290  32.003  14.984
18152W        W86482  40.973  10.294  12.084
18153W        W86483  15.822   3.220   4.309
18154W        W86484  38.992   3.423  12.086
18155W        W86485  38.938  33.513   5.238
18156W        W86486  17.728  31.967   3.167
18157W        W86487  36.384   0.757   3.194
18158W        W86488  15.741  33.107   2.393
18159W        W86489  21.694  29.429   4.746
18160W        W86490   6.735  40.531  12.345
18161W        W86491  20.734   8.383   0.291
18162W        W86492   9.208   3.948   4.624
18163W        W86493   1.397  15.603   4.243
18164W        W86494  39.878  37.368   3.368
18165W        W86495  36.539  43.900  12.513
18166W        W86496  40.501  44.936  12.992
18167W        W86497  30.565   6.372  14.937
18168W        W86498  12.222  41.929   3.676
18169W        W86499   7.307  26.679   2.181
18170W        W86500   4.285  36.583   0.814
18171W        W86501  12.690  35.966   4.734
18172W        W86502  40.438  30.576   0.427
18173W        W86503  36.476  43.797   3.637
18174W        W86504  19.271  43.766  11.505
18175W        W86505  30.523   5.202  13.484
18176W        W86506  18.095  16.587  14.849
18177W        W86507  24.498  33.053  12.030
18178W        W86508  15.734   4.827   1.323
18179W        W86509  26.676  26.153   0.787
18180W        W86510  30.969  39.960  11.413
18181W        W86511  29.628  41.525   1.445
18182W        W86512  35.531  10.687  11.393
18183W        W86513  12.737  22.093   2.212
18184W        W86514  26.531  14.743  10.533
18185W        W86515  11.725  37.958  13.878
18186W        W86516   1.368   9.865   0.307
18187W        W86517  23.198  41.446   0.321
18188W        W86518  28.600   9.755  13.368
18189W        W86519  32.398  29.104   1.242
18190W        W86520  23.497  42.002   1.279
18191W        W86521  19.699   8.894  11.093
18192W        W86522  36.351  21.539  13.374
18193W        W86523  14.175   5.834  14.805
18194W        W86524   0.450  14.599  13.452
18195W        W86525   5.821  39.866  12.417
18196W        W86526  42.505   5.193  14.306
18197W        W86527  35.918  20.545  11.894
18198W        W86528  42.922   5.758   2.760
18199W        W86529  31.137  37.983   2.350
18200W        W86530   1.878  21.246   4.745
18201W        W86531  34.436  36.541  13.954
18202W        W86532  26.023  16.579   1.418
18203W        W86533   2.721  20.751   0.259
18204W        W86534  36.049  26.184   3.311
18205W        W86535   8.355  43.391  14.369
18206W        W86536  26.989  41.879  13.511
18207W        W86537  25.552   6.765   2.792
18208W        W86538  21.057  27.019  12.442
18209W        W86539  32.571  13.285  14.455
18210W        W86540   8.826   8.704   3.856
18211W        W86541  23.524   1.945   0.467
18212W        W86542  41.044  14.249   3.713
18213W        W86543  21.639  11.803   2.290
18214W        W86544  21.709  38.060  14.976
18215W        W86545   8.693  21.176  12.356
18216W        W86546  31.048  11.838  13.487
18217W        W86547  13.264  22.203  10.629
18218W        W86548  31.974  18.142   3.698
18219W        W86549  23.628  38.861   0.317
18220W        W86550   9.845  29.511   4.174
18221W        W86551  20.610   3.402   0.345
18222W        W86552  12.193   8.332  14.830
18223W        W86553   5.716  41.365  10.896
18224W        W86554   3.941  31.630   1.832
18225W        W86555  19.630  43.851  13.390
18226W        W86556  23.131   5.913  11.375
18227W        W86557  19.779   8.663  10.052
18228W        W86558  10.811  10.750   4.829
18229W        W86559   7.224  25.202  14.369
18230W        W86560  40.942  11.154  10.972
18231W        W86561   4.856   5.803  14.977
18232W        W86562  39.033  16.217  14.853
18233W        W86563   6.801   2.788   0.865
18234W        W86564  40.901  29.446   4.711
18235W        W86565  30.583   8.796   5.222
18236W        W86566   4.823   5.388  11.604
18237W        W86567  31.607  41.455   4.689
18238W        W86568  27.595   9.311  13.926
18239W        W86569  33.405  24.561   4.742
18240W        W86570  25.631  21.233   4.751
18241W        W86571  11.195  14.315   0.384
18242W        W86572  27.479  31.549  11.039
18243W        W86573  10.738   9.251  12.421
18244W        W86574   5.285  18.164  10.536
18245W        W86575  26.632  22.722   1.273
18246W        W86576  38.399  44.909   1.868
18247W        W86577  29.628  15.680   2.815
18248W        W86578  36.571   5.876   4.202
18249W        W86579  38.029  33.981   1.428
18250W        W86580  43.444  17.724  13.819
18251W        W86581  26.081  38.953   1.710
18252W        W86582  18.617  32.078  13.058
18253W        W86583  23.582  26.532  14.512
18254W        W86584  36.868  41.468  12.450
18255W        W86585   7.222  16.087   0.899
18256W        W86586  10.744  22.010   3.190
18257W        W86587  35.940  36.587   2.682
18258W        W86588  28.103   4.712   4.158
18259W        W86589  25.712   7.882   2.305
18260W        W86590  22.544  16.079  14.778
18261W        W86591  41.981   3.452   9.947
18262W        W86592  43.337  15.667   4.265
18263W        W86593  10.338   6.183  12.047
18264W        W86594  32.097  30.028   4.125
18265W        W86595  25.984  20.747  10.564
18266W        W86596  41.928   7.405  12.435
18267W        W86597  29.984  17.682  13.838
18268W        W86598  37.397   6.388  12.539
18269W        W86599   6.397  22.074   1.266
18270W        W86600  27.194  13.657  14.340
18271W        W86601  20.757   9.788   2.213
18272W        W86602  27.108  43.793  10.484
18273W        W86603  32.960  26.179  14.458
18274W        W86604  10.259  30.554   2.731
18275W        W86605  40.864  17.581   2.712
18276W        W86606  32.537  26.115  11.419
18277W        W86607   8.295   0.770   0.904
18278W        W86608   7.753   6.810  12.912
18279W        W86609  14.616  41.529  11.902
18280W        W86610  42.413   6.395   0.278
18281W        W86611  44.308  39.319  10.903
18282W        W86612  24.226  20.082   1.797
18283W        W86613   1.307  21.193  11.395
18284W        W86614   5.263  19.613   0.368
18285W        W86615  24.981  24.004   3.774
18286W        W86616  21.078  22.018  11.048
18287W        W86617   0.809   0.979  12.942
18288W        W86618  40.433  35.476  13.994
18289W        W86619  14.674  14.655   1.753
18290W        W86620  18.631  19.100   2.266
18291W        W86621  25.707  13.297  12.529
18292W        W86622  16.637  29.460  14.417
18293W        W86623  20.727  23.091  14.797
18294W        W86624  33.401  30.164  13.965
18295W        W86625  35.538   2.364   3.830
18296W        W86626  21.021  29.492  13.388
18297W        W86627  18.295   3.220  14.401
18298W        W86628   2.746  35.042  11.999
18299W        W86629  36.088  30.498   2.310
18300W        W86630  18.273  20.687   0.474
18301W        W86631   5.929  35.048  14.297
18302W        W86632  34.595  41.920   0.248
18303W        W86633  29.510  13.127   2.730
18304W        W86634  19.281  16.140  14.332
18305W        W86635  35.015   3.369   3.748
18306W        W86636  22.564  30.441   0.965
18307W        W86637  16.172  37.534   0.273
18308W        W86638  25.551  12.645   0.791
18309W        W86639   0.435  12.737  10.632
18310W        W86640   3.911  22.007  13.535
18311W        W86641  35.503  37.086   3.319
18312W        W86642  23.193   5.923  12.407
18313W        W86643  17.679   3.235  11.964
18314W        W86644   2.239  29.429  11.020
18315W        W86645  37.538  27.457   2.727
18316W        W86646  10.175  42.382  14.790
18317W        W86647  42.785  14.659  13.953
18318W        W86648  43.422  41.301  14.962
18319W        W86649  22.233  18.755   4.821
18320W        W86650  13.233   6.428  10.888
18321W        W86651  18.699  17.601   1.718
18322W        W86652  26.142  24.228   2.878
18323W        W86653   6.373  14.672   4.799
18324W        W86654  43.878  39.538   4.220
18325W        W86655  23.730   4.852  13.461
18326W        W86656  38.853  28.052  11.463
18327W        W86657   2.834   6.739   3.362
18328W        W86658  29.520  32.502   2.754
18329W        W86659  21.519  27.193   0.937
18330W        W86660  23.986  20.703  12.850
18331W        W86661   1.247   1.949   3.204
18332W        W86662   5.202  33.973  13.523
18333W        W86663  33.065  17.567  11.403
18334W        W86664   8.680  20.626   4.638
18335W        W86665  10.863  11.639   3.302
18336W        W86666  10.164  11.192   2.269
18337W        W86667  14.136  13.699  13.826
18338W        W86668  41.361  41.504   3.705
18339W        W86669  13.706  23.087  12.007
18340W        W86670  41.447  20.567  12.013
18341W        W86671  22.175  18.672   1.269
18342W        W86672  18.684  21.163   3.145
18343W        W86673  15.766   3.418   1.707
18344W        W86674  10.198  13.312   0.352
18345W        W86675  33.604  21.033  10.999
18346W        W86676  42.014  27.510  12.478
18347W        W86677  20.620  25.199  12.970
18348W        W86678  33.889  10.256  14.991
18349W        W86679  23.594  21.135  13.354
18350W        W86680  17.764  11.684   1.840
18351W        W86681   5.303  33.051  10.430
18352W        W86682  28.028  32.421   5.315
18353W        W86683  10.647  35.046  12.889
18354W        W86684  22.048  18.603  11.890
18355W        W86685  16.099  15.287   3.359
18356W        W86686  23.708  32.947  10.892
18357W        W86687  21.158   9.267  11.535
18358W        W86688  15.225  16.072  11.495
18359W        W86689   3.382   8.837  14.953
18360W        W86690   1.359  16.680  13.466
18361W        W86691  32.958  29.503  11.596
18362W        W86692  17.782  31.427  11.940
18363W        W86693   5.349  10.277   4.785
18364W        W86694  29.619  28.127   0.760
18365W        W86695  24.668  43.437   1.424
18366W        W86696   6.912  42.496   4.139
18367W        W86697  16.293  11.674  12.068
18368W        W86698  33.522  28.107   4.115
18369W        W86699  11.644  26.666  11.419
18370W        W86700  14.273  23.188  12.439
18371W        W86701   6.836  16.716   0.244
18372W        W86702  21.676  42.005  14.833
18373W        W86703  23.102  14.712  14.335
18374W        W86704   7.891  27.969  10.507
18375W        W86705  25.702  32.450   0.293
18376W        W86706  13.660  39.975  12.486
18377W        W86707   8.212  12.184   2.303
18378W        W86708   1.426  17.064  10.633
18379W        W86709  29.172  31.986  11.897
18380W        W86710  15.227  34.093   2.204
18381W        W86711   7.405  17.138  13.314
18382W        W86712  15.750   8.260  14.854
18383W        W86713  37.965  19.553   1.856
18384W        W86714  15.603  30.023  12.875
18385W        W86715  24.002  19.710  11.459
18386W        W86716  35.011  20.764   2.723
18387W        W86717  20.550  42.520   4.339
18388W        W86718  27.452  13.174  10.961
18389W        W86719  12.753  34.067  12.969
18390W        W86720  29.921  38.327  12.929
18391W        W86721   4.330   5.713   0.774
18392W        W86722  12.349  10.825  12.875
18393W        W86723   1.956  10.775  13.428
18394W        W86724  22.535  21.646  13.447
18395W        W86725   4.790  27.549  11.868
18396W        W86726   6.834   2.426   2.826
18397W        W86727  32.079  33.498   1.239
18398W        W86728  24.686  22.551   0.391
18399W        W86729  24.219  30.929  14.477
18400W        W86730  28.439  30.625  14.958
18401W        W86731  33.507  23.177   2.343
18402W        W86732   6.235  44.784   3.844
18403W        W86733  40.036  11.244  14.990
18404W        W86734   3.287   6.885   1.813
18405W        W86735   8.789  16.619   3.343
18406W        W86736  10.878  25.477   1.832
18407W        W86737  14.812  20.650   4.301
18408W        W86738  14.733  20.615   2.350
18409W        W86739   9.823  19.230   0.434
18410W        W86740  25.187   0.946  12.936
18411W        W86741  39.342  18.709  13.499
18412W        W86742   8.790  12.132   2.394
18413W        W86743  17.101  23.702  13.362
18414W        W86744  41.325  21.747  13.963
18415W        W86745  40.927   1.901   3.723
18416W        W86746   9.317   7.387   2.324
18417W        W86747   3.780  12.190   3.690
18418W        W86748  42.776  44.974  10.545
18419W        W86749  26.050  37.969  11.513
18420W        W86750  14.762  35.942  13.315
18421W        W86751   7.861   5.313  12.394
18422W        W86752  21.631  33.969  12.481
18423W        W86753  26.167  36.492   1.825
18424W        W86754  36.027  17.135  10.528
18425W        W86755   2.850  20.761   3.736
18426W        W86756  31.959  10.842   3.325
18427W        W86757  41.373  43.493   2.247
18428W        W86758  41.942  29.429   0.967
18429W        W86759  20.610  35.481   1.340
18430W        W86760  14.242  17.236  10.495
18431W        W86761  37.386  32.919   3.177
18432W        W86762  10.325  42.902  13.844
18433W        W86763  36.399  41.494  10.008
18434W        W86764   5.355  12.215   0.820
18435W        W86765  30.927   6.858   3.759
18436W        W86766  36.946  27.128  12.991
18437W        W86767  25.621  30.552  10.973
18438W        W86768   2.329  29.591   3.870
18439W        W86769  33.491  24.069   0.311
18440W        W86770  15.242   4.331   1.917
18441W        W86771  10.170  36.030  11.867
18442W        W86772  36.996  27.494   4.273
18443W        W86773   7.861  41.471  14.837
18444W        W86774  10.185  30.565   4.327
18445W        W86775   3.910   9.737   0.386
18446W        W86776  37.007   4.750   1.815
18447W        W86777  18.599  24.996   3.346
18448W        W86778  40.963  43.320   3.339
18449W        W86779  40.320  11.787  11.068
18450W        W86780  20.046   6.850  12.349
18451W        W86781  12.240   1.743   1.322
18452W        W86782  42.827  19.607   1.329
18453W        W86783  19.764  11.822  13.435
18454W        W86784   1.861   6.234  14.027
18455W        W86785  43.944  38.440   2.386
18456W        W86786  25.105  39.968   1.722
18457W        W86787  40.906   7.721   0.804
18458W        W86788   4.435  19.634   5.292
18459W        W86789   1.265  12.694  12.373
18460W        W86790  18.657  25.993   9.658
18461W        W86791  26.090  41.321  12.019
18462W        W86792  30.947  16.710   2.693
18463W        W86793   0.821  44.299  14.357
18464W        W86794   2.894  18.676   3.232
18465W        W86795  25.119  13.819  10.477
18466W        W86796  10.780   9.855   3.326
18467W        W86797  13.681  26.100   1.825
18468W        W86798  28.942  27.462   0.395
18469W        W86799  31.548  37.046   0.763
18470W        W86800  40.034  16.162  14.795
18471W        W86801  33.005  31.628  13.972
18472W        W86802  12.297  11.298  12.894
18473W        W86803  40.418  44.913   3.753
18474W        W86804  17.089  23.135   2.721
18475W        W86805   2.304   6.794   1.352
18476W        W86806  43.823  16.205   3.854
18477W        W86807  21.115  25.184  12.960
18478W        W86808  22.565  21.210   0.927
18479W        W86809  36.510  34.603   2.377
18480W        W86810  40.922   2.819  11.596
18481W        W86811  24.218   4.837  14.926
18482W        W86812   1.259  11.670  11.047
18483W        W86813  32.420  44.903  13.463
18484W        W86814  31.431  32.967   1.885
18485W        W86815   3.426  29.995   0.780
18486W        W86816  44.996  34.548  13.823
18487W        W86817  23.053  14.640   1.877
18488W        W86818  42.799  41.306  14.451
18489W        W86819   3.877   9.319   0.268
18490W        W86820  44.925  23.003  14.450
18491W        W86821  44.803   4.237   1.890
18492W        W86822  29.010  44.955   1.873
18493W        W86823  33.069   2.365   4.187
18494W        W86824  15.601  13.106   2.825
18495W        W86825  31.437  35.375   3.845
18496W        W86826  42.369  39.466  10.434
18497W        W86827   4.806  23.656  14.388
18498W        W86828   5.916  10.299   2.681
18499W        W86829  30.140  31.435  13.982
18500W        W86830  42.816  18.597   4.785
18501W        W86831  32.990  14.192   3.835
18502W        W86832  14.278   6.843   1.854
18503W        W86833   3.263  22.200   0.749
18504W        W86834  20.137  35.011  10.972
18505W        W86835  30.475  23.617   1.229
18506W        W86836  36.849  14.639  12.051
18507W        W86837  44.807   7.770   3.749
18508W        W86838   5.319  12.323   2.230
18509W        W86839  33.452  40.988  10.525
18510W        W86840  39.956  27.685   3.707
18511W        W86841  37.563  39.065   0.782
18512W        W86842  17.729  27.110   4.276
18513W        W86843  42.956   5.723   4.147
18514W        W86844  24.506  44.970   0.417
18515W        W86845   8.759   6.915   4.703
18516W        W86846  22.037  43.505   4.223
18517W        W86847  11.303  12.641   3.684
18518W        W86848  34.884  10.745  10.629
18519W        W86849  32.412  18.115  11.018
18520W        W86850  21.531  34.940  14.424
18521W        W86851  33.529  44.458  13.870
18522W        W86852  31.108  42.904   1.694
18523W        W86853  31.443  19.068   3.174
18524W        W86854  36.902  43.843  13.332
18525W        W86855  25.666   1.293   1.416
18526W        W86856  11.280  10.632   1.802
18527W        W86857  11.360   9.194  12.523
18528W        W86858  39.381   3.804   1.738
18529W        W86859  42.862  34.882  11.411
18530W        W86860  41.381   1.738  14.383
18531W        W86861  44.455   6.210  14.845
18532W        W86862   6.832  44.339   2.874
18533W        W86863   7.245  39.976  12.063
18534W        W86864  34.008  25.077   0.450
18535W        W86865  18.227  24.505  14.298
18536W        W86866  19.564  42.499   1.773
18537W        W86867  40.979  14.761   0.265
18538W        W86868  32.063  23.177  14.826
18539W        W86869  14.321  29.474   0.370
18540W        W86870  31.976  10.189   0.787
18541W        W86871  16.129   5.302   0.471
18542W        W86872  16.263  26.004   2.753
18543W        W86873  31.541  39.808  11.867
18544W        W86874  28.446  19.614  13.838
18545W        W86875  25.580  31.918   0.370
18546W        W86876  28.079  24.535  14.922
18547W        W86877  23.669  43.324  13.450
18548W        W86878  38.856  19.582  14.471
18549W        W86879  32.453   1.837  11.523
18550W        W86880   7.856  44.775   0.429
18551W        W86881  19.761  31.108   3.853
18552W        W86882  43.449  10.760  12.933
18553W        W86883  20.531  13.610  12.439
18554W        W86884   9.681  39.349   2.287
18555W        W86885   3.825  20.629   2.206
18556W        W86886  25.968  29.623   4.723
18557W        W86887  32.892  21.190   1.820
18558W        W86888  32.030  12.122   1.854
18559W        W86889  22.617   7.723   3.639
18560W        W86890  10.318   7.399   0.774
18561W        W86891  19.055  17.741   4.295
18562W        W86892   1.345  16.076  12.483
18563W        W86893  34.970  31.410   1.243
18564W        W86894  42.466  17.614   1.832
18565W        W86895  14.143  19.178   1.852
18566W        W86896  24.573   1.739  13.323
18567W        W86897  44.292  30.949  10.963
18568W        W86898  16.145  37.571   4.345
18569W        W86899  41.877  24.110  11.046
18570W        W86900  44.433  21.659   3.728
18571W        W86901  20.585   4.252   4.314
18572W        W86902  41.931  32.913   4.206
18573W        W86903   4.889  11.144  14.501
18574W        W86904  10.287  19.555  13.810
18575W        W86905  33.128  19.615   0.432
18576W        W86906  17.613  17.251   1.355
18577W        W86907   8.203  11.269   3.869
18578W        W86908   4.930  27.484   3.277
18579W        W86909  15.227  39.025  14.777
18580W        W86910  21.660  34.110   0.808
18581W        W86911  32.535  40.406   3.863
18582W        W86912   3.323  19.183   0.935
18583W        W86913   9.347   2.746   4.123
18584W        W86914  14.715  11.704   3.330
18585W        W86915   5.435  24.065   3.795
18586W        W86916  16.643  32.112   4.743
18587W        W86917  20.680  40.539   1.909
18588W        W86918  33.448  43.961  12.892
18589W        W86919  34.410  40.849  11.964
18590W        W86920  33.073  15.730  13.503
18591W        W86921  31.536  11.154   1.826
18592W        W86922   3.294   7.819   1.429
18593W        W86923  41.373  13.130  13.856
18594W        W86924  43.947  37.908  14.448
18595W        W86925  31.044  25.135   3.194
18596W        W86926  20.695  26.173   0.789
18597W        W86927  35.001  16.313  13.448
18598W        W86928   8.760  15.216  13.892
18599W        W86929  34.003  22.616   3.786
18600W        W86930  35.091  14.715   3.725
18601W        W86931  15.673  31.907  11.380
18602W        W86932   0.888  21.173   4.189
18603W        W86933  17.707  26.694   0.939
18604W        W86934  22.024  20.686   4.179
18605W        W86935  27.619   6.419   4.621
18606W        W86936  37.382  34.987  10.447
18607W        W86937  43.295  12.637   4.161
18608W        W86938  22.186  23.039  11.029
18609W        W86939   3.426  18.727  12.495
18610W        W86940  11.770  27.009   3.319
18611W        W86941  12.338   0.976  13.531
18612W        W86942  13.777  36.932  13.545
18613W        W86943  19.115   0.476  11.593
18614W        W86944   2.956  40.359  14.780
18615W        W86945   7.903  40.954  10.925
18616W        W86946  32.111   6.827  14.898
18617W        W86947   7.260  33.392   3.794
18618W        W86948  17.181  14.106  13.344
18619W        W86949   7.675  22.091  12.003
18620W        W86950  36.020  23.019   0.824
18621W        W86951  20.097   6.253   5.131
18622W        W86952  26.594   6.842  14.884
18623W        W86953  32.910  32.964   3.823
18624W        W86954  35.418  31.147   4.170
18625W        W86955   3.372  44.294  10.435
18626W        W86956  31.056   8.168  12.057
18627W        W86957  33.875   0.984   2.321
18628W        W86958  42.498   7.185  14.377
18629W        W86959  22.667  36.943  12.083
18630W        W86960  41.519  10.819   2.284
18631W        W86961  44.316   3.244   0.786
18632W        W86962   9.313  23.494  11.036
18633W        W86963  24.095   9.343   0.247
18634W        W86964  21.037  10.294  14.434
18635W        W86965   7.246  11.636  14.879
18636W        W86966  36.493  17.781  13.380
18637W        W86967  44.382   1.803   3.798
18638W        W86968   8.700  14.196   1.301
18639W        W86969  20.228  40.801  12.874
18640W        W86970  13.182  37.467  13.364
18641W        W86971  10.282  40.303  12.512
18642W        W86972  12.683  37.861  12.029
18643W        W86973  29.039   0.474  14.019
18644W        W86974   8.803  24.189   2.776
18645W        W86975  16.282   2.437  12.411
18646W        W86976  22.072   5.421   1.764
18647W        W86977  30.464  33.555   3.687
18648W        W86978  37.980  44.505   2.750
18649W        W86979  21.055  18.158  14.361
18650W        W86980   1.398   3.837  14.896
18651W        W86981  10.825  34.576   1.915
18652W        W86982  17.732  27.120  13.824
18653W        W86983   3.874   1.907  13.982
18654W        W86984  31.525  24.039  13.451
18655W        W86985  24.208  16.745   1.380
18656W        W86986  14.766  44.943  10.612
18657W        W86987   2.902  33.102  14.923
18658W        W86988  31.512   7.214  11.449
18659W        W86989  22.679  41.428   4.205
18660W        W86990  31.518   2.736   2.677
18661W        W86991   2.753  36.982   5.119
18662W        W86992  30.107  12.130  14.963
18663W        W86993  14.720  13.286   3.772
18664W        W86994  36.425   8.254  12.036
18665W        W86995  26.651  36.077  11.562
18666W        W86996  34.094  10.295   0.811
18667W        W86997  33.080   4.883  14.888
18668W        W86998  31.496  26.544  13.848
18669W        W86999  23.152  44.481  14.304
18670W        W87000  41.463  17.229  12.873
18671W        W87001   8.805   8.386  13.373
18672W        W87002  26.036  24.983  13.523
18673W        W87003  40.430  35.964  13.845
18674W        W87004  37.530   1.919  12.486
18675W        W87005  29.435   0.965  14.424
18676W        W87006  20.274   4.213   4.340
18677W        W87007  23.736  19.609   3.384
18678W        W87008  36.031  29.635   2.376
18679W        W87009  22.644  10.843  12.082
18680W        W87010  38.383  35.582   1.734
18681W        W87011  34.397  40.946  13.004
18682W        W87012  21.030  28.542  11.991
18683W        W87013  35.045  33.448  11.997
18684W        W87014  20.530  34.441  13.353
18685W        W87015  26.149   5.694  14.458
18686W        W87016  24.547  13.346   0.943
18687W        W87017  26.992  29.972  11.526
18688W        W87018   3.230  11.249   3.763
18689W        W87019   7.772  42.341   2.727
18690W        W87020  36.081  43.860  12.849
18691W        W87021  15.669   5.725   4.209
18692W        W87022  15.189  18.102  10.992
18693W        W87023   9.340  32.543   2.218
18694W        W87024  23.505  30.575   0.290
18695W        W87025  30.980  15.109  10.948
18696W        W87026  37.942  25.167   0.770
18697W        W87027   1.429  43.806  11.499
18698W        W87028   5.260   4.858   4.328
18699W        W87029  29.606  10.652  11.960
18700W        W87030   1.462  28.099  14.350
18701W        W87031  11.792  28.533   3.165
18702W        W87032  43.508   4.724   3.650
18703W        W87033   9.267   9.184   3.866
18704W        W87034  38.960  15.137   0.309
18705W        W87035  39.924   7.179  13.397
18706W        W87036  21.164  12.780  12.402
18707W        W87037  26.007  12.226   2.769
18708W        W87038  44.922   2.277   0.412
18709W        W87039  43.861  35.422  13.990
18710W        W87040   9.257  26.650  14.290
18711W        W87041   4.888  10.262   0.942
18712W        W87042  25.161  26.188  11.520
18713W        W87043  24.697  11.131   1.398
18714W        W87044  22.539  14.727  13.535
18715W        W87045  20.714   0.274  14.399
18716W        W87046  34.580  10.349  12.366
18717W        W87047  40.534  36.060   3.301
18718W        W87048  41.466  26.059  13.976
18719W        W87049  17.207  30.084  10.548
18720W        W87050  40.867  16.640  12.942
18721W        W87051  40.984  43.935   1.779
18722W        W87052  30.981  27.512  10.404
18723W        W87053  18.119  15.648   2.344
18724W        W87054  22.243   5.284   4.676
18725W        W87055  26.490  11.254   0.793
18726W        W87056  43.287  21.034  14.397
18727W        W87057   2.284  17.652  11.995
18728W        W87058  43.895   0.765   0.420
18729W        W87059  22.010   6.805  13.912
18730W        W87060  23.099  13.772   2.271
18731W        W87061  36.891  33.551  12.486
18732W        W87062  36.031  17.789  14.426
18733W        W87063   8.723  10.678   2.275
18734W        W87064  12.308   2.324  11.008
18735W        W87065  41.491  22.051  12.939
18736W        W87066  17.748  23.706   9.990
18737W        W87067  33.108   1.856   0.762
18738W        W87068  43.806  21.585   4.812
18739W        W87069  11.823  18.209  11.396
18740W        W87070  26.131  42.005  11.866
18741W        W87071  25.494  37.939  11.076
18742W        W87072  35.960  25.494   5.178
18743W        W87073  38.843  27.969  12.393
18744W        W87074  15.303  31.492  11.998
18745W        W87075   1.287  37.081  14.474
18746W        W87076  37.493  29.991   4.828
18747W        W87077  24.111  13.145   0.818
18748W        W87078  25.965  23.067   4.139
18749W        W87079  33.934  43.395   4.137
18750W        W87080  15.641  27.541   2.744
18751W        W87081  21.041  44.264   5.245
18752W        W87082  41.324  44.843  13.352
18753W        W87083  21.119  25.080   3.235
18754W        W87084  38.872   3.287   4.837
18755W        W87085  27.019  21.081  13.052
18756W        W87086   7.335  43.402  14.792
18757W        W87087  19.200  42.829   4.773
18758W        W87088   9.677  34.508  13.812
18759W        W87089  39.908  10.745   1.852
18760W        W87090  21.118  44.872  10.466
18761W        W87091  44.380  43.991  14.289
18762W        W87092  11.862  33.521  11.075
18763W        W87093  43.860  41.016   2.776
18764W        W87094  32.077  12.663  14.464
18765W        W87095  23.558  23.228   2.729
18766W        W87096  31.640  19.235   9.993
18767W        W87097  11.832  26.531  11.116
18768W        W87098  18.077  26.700  10.403
18769W        W87099  42.915  33.583  12.075
18770W        W87100  31.966   5.716  11.121
18771W        W87101  12.193  33.016   3.715
18772W        W87102   4.893  11.824  12.875
18773W        W87103  44.314   2.264  10.480
18774W        W87104  34.097  22.690   4.190
18775W        W87105  30.944  25.150   0.270
18776W        W87106   7.307   2.229   3.729
18777W        W87107  28.138   7.903  14.854
18778W        W87108   1.786   6.906  11.431
18779W        W87109  15.138  42.020   2.750
18780W        W87110  27.038   0.873   3.751
18781W        W87111   0.352  32.078   4.249
18782W        W87112   0.743   1.459  12.048
18783W        W87113   3.298  23.159  12.854
18784W        W87114   4.273  22.569  11.029
18785W        W87115   7.666  42.441  11.919
18786W        W87116  27.021   3.461   0.421
18787W        W87117  14.727  13.811  13.847
18788W        W87118  13.192  20.582  12.979
18789W        W87119  40.037  36.568  13.919
18790W        W87120  21.631  27.952   5.749
18791W        W87121  26.488  27.487  10.027
18792W        W87122  41.427  23.610  11.126
18793W        W87123   0.296   8.756  10.623
18794W        W87124  19.077  39.430  14.861
18795W        W87125   3.389  44.265  14.966
18796W        W87126  30.053  22.621  11.912
18797W        W87127  26.978  12.813   3.339
18798W        W87128  29.114  13.800   0.848
18799W        W87129  23.629  38.435   2.179
18800W        W87130  25.568  35.424   2.181
18801W        W87131  20.248   8.371   0.320
18802W        W87132  37.969  17.664   0.268
18803W        W87133  19.069   4.389   1.927
18804W        W87134   2.744  33.411   4.739
18805W        W87135  44.755   4.243   0.443
18806W        W87136   3.918   1.481  13.864
18807W        W87137  44.781  21.558  10.631
18808W        W87138   1.801  34.509  13.944
18809W        W87139  11.299  31.505  11.588
18810W        W87140  15.283  43.375  12.510
18811W        W87141  22.661  30.535  11.049
18812W        W87142  44.957  19.266   2.209
18813W        W87143   1.326  37.869  14.938
18814W        W87144  12.810  21.641  12.470
18815W        W87145  26.185  32.429  11.102
18816W        W87146  18.076  39.387  11.540
18817W        W87147   8.865  11.126   2.825
18818W        W87148  24.175   5.838  11.001
18819W        W87149  12.274  23.205   3.166
18820W        W87150  23.054  32.544  12.444
18821W        W87151   1.259  29.001  14.409
18822W        W87152  43.847  11.278   2.823
18823W        W87153  16.238  36.575   1.816
18824W        W87154  38.914  30.452   2.378
18825W        W87155  36.870  36.501   2.391
18826W        W87156  28.968   9.694   2.214
18827W        W87157  21.262  25.042  12.442
18828W        W87158  23.147  32.011   4.180
18829W        W87159   8.699  16.712   4.335
18830W        W87160   7.897   9.208   0.318
18831W        W87161  14.236  38.920   3.785
18832W        W87162   5.339  20.725  12.366
18833W        W87163  26.195  14.653  12.486
18834W        W87164  25.687  42.339  12.390
18835W        W87165   2.903   7.300   1.835
18836W        W87166   8.275  29.467  13.841
18837W        W87167  30.057  24.184   3.251
18838W        W87168  15.283  35.047   4.257
18839W        W87169  23.150  27.617   4.776
18840W        W87170  41.446  14.731   2.833
18841W        W87171   2.939   9.329   4.193
18842W        W87172  42.368  37.867   1.225
18843W        W87173  27.469  16.228  10.916
18844W        W87174  21.728  44.770  14.490
18845W        W87175  22.714  15.615  14.432
18846W        W87176   7.768  36.976  10.499
18847W        W87177  17.217  44.871   1.356
18848W        W87178  20.623  37.507  12.434
18849W        W87179  17.223  14.176  14.431
18850W        W87180  16.726  14.757   3.220
18851W        W87181  30.947  33.603   2.313
18852W        W87182   9.831  13.147   1.895
18853W        W87183   2.446  37.362  14.285
18854W        W87184  36.395  22.562  10.926
18855W        W87185  42.953  39.823  14.803
18856W        W87186  13.133  37.048  13.875
18857W        W87187  22.211  40.034  14.995
18858W        W87188  34.612  37.910  12.018
18859W        W87189  20.549  21.561   1.323
18860W        W87190  12.818  22.237   0.865
18861W        W87191  16.632  23.106   5.768
18862W        W87192   8.349   6.792   1.414
18863W        W87193  25.023  18.621   3.263
18864W        W87194   2.322  41.304   1.825
18865W        W87195  11.838  16.281  12.962
18866W        W87196  26.186  39.808   3.804
18867W        W87197   0.832   4.432   2.386
18868W        W87198  29.617  15.775   1.907
18869W        W87199  33.505   3.431  12.407
18870W        W87200  39.485  44.489   2.393
18871W        W87201  38.396  25.536   4.606
18872W        W87202  29.152   1.799   4.701
18873W        W87203  15.199  14.290   4.617
18874W        W87204  32.890  43.280  11.939
18875W        W87205  10.875   9.679  12.499
18876W        W87206  26.463   5.237  11.418
18877W        W87207   0.946  14.191  12.836
18878W        W87208   9.849  40.540  11.888
18879W        W87209   2.816  28.017   2.869
18880W        W87210  14.722  42.911  13.791
18881W        W87211  15.218   0.469  13.407
18882W        W87212   9.176   4.731   0.297
18883W        W87213  30.460  35.522  14.329
18884W        W87214   4.739  38.972   9.953
18885W        W87215   5.766  37.494  13.356
18886W        W87216  44.921  13.255  13.456
18887W        W87217  32.561  35.997   2.834
18888W        W87218  42.460  12.787   4.754
18889W        W87219  26.622  31.073  13.400
18890W        W87220  13.229  28.054   5.102
18891W        W87221  38.468  35.415  11.612
18892W        W87222  11.785   0.356  12.985
18893W        W87223  11.138  28.463  11.505
18894W        W87224  20.236  28.094   1.863
18895W        W87225  36.842  30.048  11.897
18896W        W87226  36.865  16.155   1.786
18897W        W87227  11.703  31.457   4.761
18898W        W87228  22.174   3.243   1.288
18899W        W87229   3.724  38.563   3.716
18900W        W87230  15.758  30.546  13.840
18901W        W87231   4.834  29.516   1.798
18902W        W87232  41.829  11.127  14.506
18903W        W87233  30.152  12.850  13.821
18904W        W87234  26.571  10.808  11.905
18905W        W87235  39.504  14.279   3.187
18906W        W87236   3.946  24.559  10.484
18907W        W87237  40.962  33.903  14.769
18908W        W87238   3.855  18.645  14.447
18909W        W87239  36.955  19.729   4.211
18910W        W87240  44.442   1.763  13.321
18911W        W87241  29.446   4.822  12.510
18912W        W87242  21.239   7.851   2.238
18913W        W87243  34.524  40.937   2.355
18914W        W87244  25.621  10.842   2.766
18915W        W87245  40.493  23.528  12.984
18916W        W87246  16.185  19.101   3.317
18917W        W87247  38.868  26.041  13.391
18918W        W87248  27.500  32.435  12.853
18919W        W87249   4.212   2.408   2.790
18920W        W87250  10.354  35.884  14.015
18921W        W87251  30.568  22.100   3.673
18922W        W87252  19.610   3.228   0.421
18923W        W87253  36.502  34.052   3.824
18924W        W87254  11.726  23.734  13.791
18925W        W87255   2.919  24.218  11.513
18926W        W87256  26.633  14.284  12.407
18927W        W87257   0.257  31.993   5.174
18928W        W87258  44.359  43.421   4.180
18929W        W87259   8.818  25.479   2.288
18930W        W87260  10.786  11.363   1.852
18931W        W87261  38.397  20.630  12.357
18932W        W87262   2.819  18.766  10.449
18933W        W87263  34.609  43.388  11.420
18934W        W87264  17.164  17.165  12.500
18935W        W87265  44.500  20.136   3.348
18936W        W87266  11.180  37.887   3.775
18937W        W87267  32.606  13.754   2.287
18938W        W87268  36.348  15.684  10.148
18939W        W87269  33.587   4.939   1.283
18940W        W87270  18.125  21.120  13.048
18941W        W87271  28.149  29.166   3.697
18942W        W87272  41.958   9.389  12.394
18943W        W87273  31.989  26.963   5.313
18944W        W87274  37.393  39.406   2.223
18945W        W87275  37.898  27.517   0.411
18946W        W87276  17.799  18.582   0.273
18947W        W87277  15.231   5.320   2.699
18948W        W87278  37.545  37.000   0.912
18949W        W87279  17.061   7.309   0.816
18950W        W87280  34.072  27.657  11.992
18951W        W87281  41.464  14.251  13.469
18952W        W87282   3.802   3.908  11.555
18953W        W87283  40.529  16.632   1.886
18954W        W87284  30.460  34.072   1.870
18955W        W87285  30.495   3.430   4.715
18956W        W87286  17.237  40.487   3.356
18957W        W87287  31.904  13.637  13.539
18958W        W87288  33.467  33.081  13.475
18959W        W87289  19.633  30.103  11.419
18960W        W87290  14.334  13.334  14.904
18961W        W87291  44.457  10.152  12.879
18962W        W87292  14.619   8.654   9.965
18963W        W87293  13.310  35.974  14.385
18964W        W87294  28.117  30.630  13.833
18965W        W87295  20.669  15.277   0.861
18966W        W87296  11.214  15.318   0.886
18967W        W87297  42.939   3.215   2.333
18968W        W87298  31.022   2.381  11.009
18969W        W87299   1.802  37.555  12.360
18970W        W87300  28.156  28.018   4.175
18971W        W87301   1.353  43.293  11.489
18972W        W87302  14.249  42.288  13.919
18973W        W87303  40.017  12.781  12.576
18974W        W87304  18.176  15.233  13.860
18975W        W87305  23.191  29.670  13.501
18976W        W87306  41.386  26.188  14.972
18977W        W87307  10.670  42.920  11.510
18978W        W87308   1.740  16.737   0.440
18979W        W87309  20.627  24.504   0.354
18980W        W87310  40.465  19.680  14.371
18981W        W87311  14.257  26.636  11.487
18982W        W87312  39.978   8.254  13.920
18983W        W87313   3.865   0.978  11.532
18984W        W87314  21.146  32.489  13.881
18985W        W87315   9.708  29.153   2.414
18986W        W87316  38.465  10.719   3.718
18987W        W87317  23.558  22.569   4.813
18988W        W87318  28.514  11.868   2.207
18989W        W87319  41.439  15.245  10.949
18990W        W87320   7.363   0.444  12.902
18991W        W87321  24.108  33.480  14.511
18992W        W87322  30.063  32.105  12.478
18993W        W87323   2.900   9.202  12.040
18994W        W87324  13.724   7.787  12.552
18995W        W87325  34.386  43.478  12.888
18996W        W87326   7.382  11.187   0.327
18997W        W87327   1.367  31.918  11.550
18998W        W87328   2.795  16.146  13.396
18999W        W87329  19.705  18.292  14.759
19000W        W87330   5.729  21.233   4.691
19001W        W87331  11.344  13.328   0.895
19002W        W87332  28.130   6.335  13.361
19003W        W87333  16.113  15.237  14.767
19004W        W87334  17.226  24.066   4.702
19005W        W87335  23.522  38.544  10.593
19006W        W87336  23.603  33.076  14.916
19007W        W87337  12.733  19.648  12.015
19008W        W87338  15.780  28.499   1.795
19009W        W87339   2.876  28.048  12.405
19010W        W87340  25.519  35.104  12.375
19011W        W87341   6.886  32.896   0.967
19012W        W87342  42.509  11.788  13.433
19013W        W87343  26.207  26.638   0.427
19014W        W87344  26.648  12.654  13.539
19015W        W87345  22.129   5.347  14.986
19016W        W87346   1.425  44.806   0.935
19017W        W87347  42.976  21.726  11.961
19018W        W87348   1.324  36.457   4.776
19019W        W87349  33.897  27.613   2.247
19020W        W87350  44.929  25.967  12.421
19021W        W87351   3.736  19.658  14.460
19022W        W87352  36.936  39.409  10.985
19023W        W87353   8.394  11.213   0.469
19024W        W87354  23.634  39.832   4.191
19025W        W87355  42.295  19.258  12.579
19026W        W87356  43.278  34.387   1.894
19027W        W87357  28.491   9.210  11.007
19028W        W87358  32.438  22.696  14.913
19029W        W87359  26.700  28.460   1.421
19030W        W87360  31.541  38.985  13.824
19031W        W87361  16.705  32.940  12.073
19032W        W87362  40.399  33.099   4.714
19033W        W87363   6.300  19.241  14.843
19034W        W87364   3.358  16.077  12.985
19035W        W87365  24.570   4.398   3.866
19036W        W87366  29.469  30.013   3.343
19037W        W87367  26.605  28.442   4.207
19038W        W87368  34.479   5.261  14.920
19039W        W87369  15.265  23.995  13.798
19040W        W87370  17.192   2.452  11.077
19041W        W87371  20.698  10.649  10.490
19042W        W87372  37.560  43.334  12.552
19043W        W87373  42.791  42.304   3.835
19044W        W87374  26.977  33.066   1.261
19045W        W87375  28.950  36.385   1.399
19046W        W87376  38.464  22.517   4.140
19047W        W87377  21.166   9.820  13.936
19048W        W87378  43.770  10.671   2.710
19049W        W87379   8.391  12.819  13.053
19050W        W87380   6.814  36.438   2.255
19051W        W87381   8.839   1.385  14.951
19052W        W87382  12.819  17.292   0.362
19053W        W87383  11.223  24.186  11.577
19054W        W87384  40.355  10.328   0.863
19055W        W87385  27.168   0.360   3.695
19056W        W87386   1.894  16.647   2.366
19057W        W87387  11.227  30.934   4.666
19058W        W87388  28.451   1.331   2.894
19059W        W87389  26.565  43.000  12.007
19060W        W87390  31.595   5.706   4.739
19061W        W87391  31.555   2.458  10.472
19062W        W87392  18.654  33.062   0.908
19063W        W87393  32.909  17.665   1.820
19064W        W87394   2.300   1.978  11.989
19065W        W87395   8.348  38.408   0.851
19066W        W87396  14.104  15.781  13.864
19067W        W87397  13.671  25.537   3.189
19068W        W87398  21.128  37.517   0.755
19069W        W87399  13.822  43.922   2.741
19070W        W87400  24.621  15.689  10.898
19071W        W87401  42.442  29.616   0.441
19072W        W87402   2.455  27.050   4.159
19073W        W87403   9.300  23.153   4.192
19074W        W87404  19.133   4.753  13.845
19075W        W87405  26.490  25.560  12.465
19076W        W87406  23.595  16.767  12.569
19077W        W87407  15.674  24.025  13.955
19078W        W87408  37.484   6.219  13.374
19079W        W87409  21.064  41.804  14.345
19080W        W87410   0.804   7.306   5.145
19081W        W87411  24.174  39.826  12.947
19082W        W87412   5.409  38.008  13.353
19083W        W87413  27.045  44.948   4.236
19084W        W87414  38.953   5.720   5.726
19085W        W87415  11.318  13.175  14.832
19086W        W87416  18.102  20.174  13.811
19087W        W87417  14.222  20.665   4.351
19088W        W87418  41.897  21.166  14.901
19089W        W87419  28.136  12.812  13.054
19090W        W87420  17.712  29.139   4.649
19091W        W87421  43.337  18.184   4.242
19092W        W87422  12.347   0.850  14.405
19093W        W87423  21.557  38.897  12.534
19094W        W87424  26.612  23.190   0.360
19095W        W87425   4.344   0.260   1.228
19096W        W87426  14.671  20.573  11.587
19097W        W87427  10.157   0.743  14.290
19098W        W87428   4.917  37.059   3.257
19099W        W87429  29.087  18.155   1.418
19100W        W87430  44.985  32.496   4.812
19101W        W87431  14.625  29.465   2.890
19102W        W87432  18.583  30.628  13.886
19103W        W87433  26.463  37.858   2.820
19104W        W87434  38.959  35.539  14.766
19105W        W87435  39.996  28.018   2.418
19106W        W87436  35.914  22.080   0.441
19107W        W87437   6.684  15.181  14.404
19108W        W87438  38.990  39.991   2.703
19109W        W87439  24.094  16.237   3.671
19110W        W87440  25.055  40.817   0.306
19111W        W87441  13.606  17.284  12.558
19112W        W87442  38.565  24.068  12.984
19113W        W87443  25.642  14.598   4.673
19114W        W87444  30.071  35.392  10.552
19115W        W87445   3.357  14.618  12.833
19116W        W87446  13.683  44.396  10.451
19117W        W87447  31.020  26.521   2.360
19118W        W87448  26.973   7.799  10.531
19119W        W87449   3.728  30.567  10.983
19120W        W87450   6.268  22.610   3.832
19121W        W87451  29.654   5.862   4.657
19122W        W87452  10.207  21.046   1.870
19123W        W87453   4.283  39.391  11.884
19124W        W87454  40.844  29.441   4.266
19125W        W87455  22.588  41.500   1.739
19126W        W87456  23.536  25.097   4.748
19127W        W87457  12.656  11.723   0.415
19128W        W87458  15.156  26.162  14.032
19129W        W87459  34.548  22.613   0.368
19130W        W87460  28.093   9.184   0.777
19131W        W87461  20.173  21.627  14.820
19132W        W87462  19.259  38.889   2.730
19133W        W87463   9.724  21.529   0.354
19134W        W87464  41.481  40.968  11.060
19135W        W87465  14.226   8.320  12.443
19136W        W87466   6.428   9.274  13.863
19137W        W87467  17.236   3.874   4.314
19138W        W87468  44.975  41.500   1.790
19139W        W87469  16.592  42.933   1.711
19140W        W87470  21.224  20.078  11.416
19141W        W87471  12.837  32.484   0.244
19142W        W87472  32.055  20.109   3.870
19143W        W87473  42.927  30.600   0.342
19144W        W87474  10.871  22.612   1.801
19145W        W87475   2.379  18.054  13.886
19146W        W87476  21.730  39.018   3.357
19147W        W87477   9.252  37.017   4.710
19148W        W87478  12.283   3.280  12.838
19149W        W87479  24.058  18.235   4.128
19150W        W87480  24.679  33.994  13.875
19151W        W87481   4.218  20.745  12.094
19152W        W87482  20.754  27.129  12.067
19153W        W87483  39.829  38.870  13.948
19154W        W87484  30.575  42.358   4.343
19155W        W87485   5.767   2.373   1.792
19156W        W87486   9.150  23.578  12.893
19157W        W87487  15.602  15.691  11.550
19158W        W87488   3.888  41.796   3.333
19159W        W87489  26.985  19.553   0.736
19160W        W87490   4.933   4.800  10.622
19161W        W87491  44.001  13.623   0.465
19162W        W87492  32.018  16.737  14.021
19163W        W87493  19.697  39.870  12.041
19164W        W87494  21.070  29.647  13.979
19165W        W87495  19.624  29.088  11.579
19166W        W87496  44.421  10.245   9.970
19167W        W87497   1.808   4.766   4.696
19168W        W87498  26.067   7.857   0.776
19169W        W87499   5.411  23.039   0.272
19170W        W87500  15.719  37.346  14.982
19171W        W87501  39.943  16.694   3.340
19172W        W87502  30.572  19.774   9.540
19173W        W87503  42.009   6.741   0.875
19174W        W87504   7.879  41.329  12.500
19175W        W87505  42.956   1.387   0.948
19176W        W87506   6.276  29.043  11.421
19177W        W87507  29.439  31.977  14.384
19178W        W87508   2.782  12.759   1.822
19179W        W87509   6.310  22.248  11.420
19180W        W87510  24.000   4.310  13.457
19181W        W87511  15.824  31.035  12.465
19182W        W87512   6.337  38.835  11.087
19183W        W87513  37.356  25.198  13.906
19184W        W87514  19.613   2.949  11.381
19185W        W87515   3.334  43.436  11.934
19186W        W87516  13.296  40.962  12.044
19187W        W87517  40.993  16.075   4.801
19188W        W87518  29.943   1.875  10.950
19189W        W87519  26.134  24.637   1.802
19190W        W87520  12.148  44.288   4.779
19191W        W87521  15.132  31.898   0.387
19192W        W87522   3.359  22.544   2.241
19193W        W87523   2.784  44.336   2.684
19194W        W87524  32.554   1.475  12.521
19195W        W87525   1.744  38.522  12.531
19196W        W87526  23.711   2.945  14.303
19197W        W87527  27.580  28.614  11.532
19198W        W87528  24.015  22.719   5.187
19199W        W87529  43.384  18.590   1.323
19200W        W87530  33.080  43.482  12.381
19201W        W87531  32.421  26.629   4.746
19202W        W87532   7.315  36.464  14.284
19203W        W87533  12.700  13.207  10.562
19204W        W87534   2.949   0.390  11.571
19205W        W87535  22.041   3.843   0.349
19206W        W87536  28.078  10.753   3.158
19207W        W87537  15.246  16.597  11.484
19208W        W87538  21.087  43.806   3.328
19209W        W87539   5.757  10.758  11.072
19210W        W87540  26.645  32.919  11.469
19211W        W87541  18.736  14.280  13.307
19212W        W87542  41.943   1.795  14.440
19213W        W87543  23.191  38.971   1.232
19214W        W87544   7.359  25.583  14.801
19215W        W87545   0.444   4.817   1.301
19216W        W87546  28.987  11.368  11.048
19217W        W87547  10.769  23.703   0.479
19218W        W87548  44.755  41.451   3.823
19219W        W87549  24.590  27.448   1.756
19220W        W87550  24.675   4.296  11.901
19221W        W87551   5.297  11.793   0.874
19222W        W87552   3.924  12.697  13.881
19223W        W87553  39.379   9.164  10.929
19224W        W87554  35.585  32.410   2.250
19225W        W87555  21.198   6.775   0.846
19226W        W87556  19.182  30.479   3.806
19227W        W87557   6.889  17.209  11.013
19228W        W87558   2.252   8.339  11.884
19229W        W87559  23.588  17.795  13.385
19230W        W87560  32.052   8.226   2.746
19231W        W87561   2.363   1.401   2.370
19232W        W87562  40.441  43.811   4.647
19233W        W87563   3.292  42.909  14.889
19234W        W87564  26.084  17.171   0.303
19235W        W87565  12.342   5.195  14.509
19236W        W87566  18.232  12.732   1.236
19237W        W87567  44.377   7.828  14.406
19238W        W87568  41.341  30.608   3.702
19239W        W87569  27.989  41.017  13.867
19240W        W87570   8.274   3.323   5.096
19241W        W87571  16.744  34.494   3.701
19242W        W87572  18.056  11.812   2.870
19243W        W87573  41.316  27.975  13.538
19244W        W87574  31.438   7.244   1.712
19245W        W87575  34.563  40.329   3.856
19246W        W87576  36.990  23.128  13.402
19247W        W87577  32.098   0.903   3.827
19248W        W87578  35.378  42.506   2.398
19249W        W87579   0.344   4.401  13.021
19250W        W87580  43.352  14.746   4.620
19251W        W87581  40.854  41.402  10.434
19252W        W87582  11.343  39.553   3.151
19253W        W87583  29.653  28.181   9.943
19254W        W87584  21.254   6.911   1.828
19255W        W87585  36.509  35.536   3.685
19256W        W87586  31.969  14.341   0.412
19257W        W87587   9.199  13.287   2.849
19258W        W87588  12.330  27.451   2.709
19259W        W87589  14.746   6.694   0.416
19260W        W87590  17.179  33.421   1.380
19261W        W87591  19.644  26.671   0.248
19262W        W87592   9.254  24.020   4.717
19263W        W87593   3.362  19.772   2.754
19264W        W87594  29.094  32.934  11.997
19265W        W87595  11.809   6.760   4.327
19266W        W87596  19.069  11.162  12.082
19267W        W87597   7.859  23.154  10.421
19268W        W87598   2.959   5.922   3.280
19269W        W87599  16.182  38.343  10.543
19270W        W87600   2.893  40.934   2.708
19271W        W87601   9.712  14.117   4.114
19272W        W87602  32.469   0.333   1.290
19273W        W87603   5.915   0.948   0.891
19274W        W87604  34.066  38.525  12.955
19275W        W87605  20.712  20.186  13.448
19276W        W87606  38.418  29.551  10.532
19277W        W87607  19.762  17.253  14.440
19278W        W87608  29.467  30.133   2.373
19279W        W87609  24.667   9.749   4.712
19280W        W87610  19.161  13.764  14.366
19281W        W87611  23.169  44.834  13.353
19282W        W87612  12.789  24.624  13.499
19283W        W87613   7.715  42.879   3.282
19284W        W87614  20.624  37.551   2.382
19285W        W87615  30.141   5.855   3.332
19286W        W87616  12.122  33.541  12.434
19287W        W87617  13.793  29.950   2.891
19288W        W87618  36.439   8.869  14.436
19289W        W87619  35.892  32.601   2.718
19290W        W87620  43.458  38.834   2.789
19291W        W87621  13.749  13.668   1.755
19292W        W87622  27.175  40.431   1.326
19293W        W87623   8.870  39.329   2.835
19294W        W87624  44.979  22.218  11.969
19295W        W87625  40.838   5.728   5.264
19296W        W87626   2.878  40.447   2.817
19297W        W87627  32.038   8.364  13.841
19298W        W87628  14.265  31.551   0.913
19299W        W87629  33.021  29.146   1.910
19300W        W87630   5.750   6.233   4.817
19301W        W87631  33.513  23.046   2.764
19302W        W87632  40.443   2.809   4.264
19303W        W87633  15.584  10.338  14.410
19304W        W87634  26.660  15.702   4.823
19305W        W87635  38.823  31.028  13.926
19306W        W87636  34.396  13.350  13.403
19307W        W87637  44.978  30.070   4.802
19308W        W87638  39.376   9.865   3.363
19309W        W87639  18.768  26.002   5.275
19310W        W87640  22.996  22.736   4.302
19311W        W87641  10.784  43.501  14.452
19312W        W87642  18.272  17.584   2.252
19313W        W87643  19.210  34.904  14.847
19314W        W87644  42.378  13.785   2.251
19315W        W87645   2.375  31.093  13.456
19316W        W87646  43.850   8.835   4.244
19317W        W87647  40.845  27.653   1.266
19318W        W87648   6.749   3.330   4.673
19319W        W87649  14.588  32.601   0.857
19320W        W87650   9.651  15.690   0.264
19321W        W87651  11.773  44.796   4.263
19322W        W87652  25.029   3.893  14.918
19323W        W87653  44.826  15.782   1.442
19324W        W87654   6.703  17.629   3.174
19325W        W87655   3.947  18.570   0.457
19326W        W87656  27.038  15.100   2.678
19327W        W87657  19.570   4.441   3.812
19328W        W87658  11.242  13.131   3.759
19329W        W87659   4.345  38.557  10.132
19330W        W87660  19.210  23.508   0.332
19331W        W87661  28.628  19.551  11.966
19332W        W87662  14.141   0.841   4.712
19333W        W87663  39.969  41.524  12.900
19334W        W87664  42.294  33.576  11.914
19335W        W87665  37.993  43.397   1.713
19336W        W87666   5.868  14.652  12.481
19337W        W87667  34.900  32.432  10.944
19338W        W87668  33.463  36.364  13.383
19339W        W87669  16.138   2.724  10.570
19340W        W87670  40.820  36.051  11.945
19341W        W87671   4.890   0.260   2.709
19342W        W87672  27.130  18.623  13.525
19343W        W87673  18.196  15.103   1.819
19344W        W87674  18.213  12.745  10.435
19345W        W87675  23.033  30.416   3.757
19346W        W87676  34.588  21.038   0.272
19347W        W87677  35.078  40.846   2.238
19348W        W87678  37.972  11.186  11.596
19349W        W87679  26.582  36.864   0.276
19350W        W87680  18.290  12.717  14.860
19351W        W87681  19.087  19.572   0.947
19352W        W87682  31.090  23.087  10.049
19353W        W87683   3.737   3.303   3.161
19354W        W87684  12.116  32.132  10.481
19355W        W87685  18.295  31.997  14.950
19356W        W87686   8.227   7.791   4.118
19357W        W87687  20.593  43.398   3.367
19358W        W87688  16.729  38.411   4.668
19359W        W87689   6.222   0.289  14.946
19360W        W87690  11.724  14.293  13.387
19361W        W87691  33.407  31.567   4.279
19362W        W87692  28.119   2.446  11.564
19363W        W87693  31.910   6.891   3.154
19364W        W87694  15.595  24.682   1.304
19365W        W87695  26.108  41.439   4.209
19366W        W87696  32.903   7.181   1.375
19367W        W87697  11.866  11.370   1.251
19368W        W87698  34.551  17.556  13.310
19369W        W87699  22.243  44.311   4.291
19370W        W87700  24.622  42.894   0.357
19371W        W87701   2.796  36.094   0.242
19372W        W87702  34.002   5.325   1.733
19373W        W87703  43.915  39.430  10.946
19374W        W87704   9.305  36.414   4.796
19375W        W87705  11.779  41.963   2.817
19376W        W87706  27.685  36.456   1.316
19377W        W87707   1.401   5.377  11.999
19378W        W87708   5.429  26.670   0.789
19379W        W87709  33.447  34.933  10.453
19380W        W87710  14.686  19.649   0.845
19381W        W87711  40.516   5.248   4.721
19382W        W87712  24.008   7.867  12.847
19383W        W87713  28.149   8.241   1.840
19384W        W87714  36.429  39.864  14.285
19385W        W87715  25.018  34.373   0.406
19386W        W87716  11.133   9.168  10.541
19387W        W87717   9.798  33.070   4.819
19388W        W87718  33.492   7.812   0.774
19389W        W87719  20.533   6.743  12.419
19390W        W87720   2.851  42.401  12.418
19391W        W87721  40.337   6.317   0.383
19392W        W87722  33.029  13.836   0.739
19393W        W87723   6.222  13.214   2.807
19394W        W87724  23.512  26.108  11.514
19395W        W87725  15.140  19.534  11.588
19396W        W87726  19.719  18.079   1.717
19397W        W87727  29.052   3.401   1.748
19398W        W87728   5.335   6.333  12.537
19399W        W87729  37.914  12.192   4.160
19400W        W87730  29.618  22.128  10.454
19401W        W87731  39.552  16.289  12.088
19402W        W87732  30.154  12.815  14.855
19403W        W87733  21.644  12.220  12.849
19404W        W87734  21.525  13.248  11.045
19405W        W87735   0.969   4.910   4.796
19406W        W87736  44.894  42.393   1.804
19407W        W87737  15.781  42.955   1.921
19408W        W87738   6.304  42.861  11.123
19409W        W87739  29.921  20.649  11.389
19410W        W87740  10.661  19.163  10.895
19411W        W87741   7.356  19.761   1.239
19412W        W87742  44.434  26.507   0.478
19413W        W87743   1.375  28.581  12.458
19414W        W87744   1.451   3.814  13.401
19415W        W87745   8.393  18.786   3.704
19416W        W87746   6.809  37.941   2.903
19417W        W87747  25.993   8.725  14.427
19418W        W87748   1.844  44.857   3.747
19419W        W87749  35.581  21.172  11.524
19420W        W87750  29.106  21.598   0.256
19421W        W87751  16.310   3.270  14.995
19422W        W87752  17.568  33.944   1.293
19423W        W87753  40.302   1.311   3.853
19424W        W87754  28.107  29.151  13.002
19425W        W87755   2.299  17.563  14.802
19426W        W87756  24.130  42.824   1.762
19427W        W87757  10.232  25.686   4.343
19428W        W87758   4.899  18.269   4.811
19429W        W87759  44.375  19.647   1.429
19430W        W87760  28.032   2.387   1.284
19431W        W87761   6.749   5.342  14.465
19432W        W87762  16.657   2.864  12.448
19433W        W87763  13.325   8.660   1.793
19434W        W87764  19.051  16.739   1.887
19435W        W87765  21.735  19.708   1.709
19436W        W87766   0.295  15.795   4.787
19437W        W87767  12.170  15.753  12.440
19438W        W87768  34.954   4.300   0.322
19439W        W87769   4.808  39.377  13.455
19440W        W87770   2.414  44.940   3.841
19441W        W87771  19.562  18.716  14.413
19442W        W87772   6.890  19.720  12.942
19443W        W87773  44.462  39.423   9.979
19444W        W87774  20.675  16.107   3.234
19445W        W87775   6.285  21.656   0.357
19446W        W87776  40.512   2.462   3.279
19447W        W87777  12.357  39.030  11.431
19448W        W87778  29.062  27.460  13.453
19449W        W87779  41.843  37.836  11.492
19450W        W87780  32.526   1.472  12.913
19451W        W87781  23.059  28.457  14.462
19452W        W87782  25.091  17.202   1.273
19453W        W87783  44.432   5.874   4.836
19454W        W87784  24.153  36.538   1.871
19455W        W87785   8.726  24.996  11.101
19456W        W87786   1.937  23.701  11.454
19457W        W87787  37.393   7.206   1.929
19458W        W87788  17.645  21.079   4.167
19459W        W87789  14.786  10.184  12.434
19460W        W87790  12.122  29.542   3.828
19461W        W87791  37.046  19.043  10.907
19462W        W87792  43.901  22.134  11.990
19463W        W87793  33.596   5.433  14.812
19464W        W87794  43.824  24.532  14.760
19465W        W87795   1.379  43.868   3.241
19466W        W87796  41.422  30.617   1.706
19467W        W87797  21.693   7.306   2.809
19468W        W87798  19.235  19.774  13.315
19469W        W87799  19.088   1.248   4.675
19470W        W87800  35.075  36.583   1.347
19471W        W87801  19.711  13.183  12.881
19472W        W87802  24.597  35.884  11.537
19473W        W87803  33.908  34.989  13.307
19474W        W87804  15.720  44.008   9.999
19475W        W87805  29.016  31.427   1.892
19476W        W87806   8.859   9.779   3.239
19477W        W87807   4.797   6.826  11.875
19478W        W87808  19.708  26.183   2.197
19479W        W87809  20.673  28.163  13.879
19480W        W87810  26.072  44.831   1.397
19481W        W87811  25.150   8.729   3.850
19482W        W87812  36.483   1.866   5.110
19483W        W87813  25.169   9.266  12.940
19484W        W87814  35.578  21.185   0.864
19485W        W87815  22.566  16.644  11.498
19486W        W87816   0.430  16.217   1.299
19487W        W87817   1.887  15.299   1.723
19488W        W87818  30.929  24.725  13.548
19489W        W87819  40.513   8.806   4.151
19490W        W87820  21.053  28.986   3.367
19491W        W87821  15.611   2.757  10.988
19492W        W87822   7.226  30.561   4.189
19493W        W87823   5.842  41.817  12.040
19494W        W87824  41.027  15.088  10.534
19495W        W87825   9.798   3.411  13.401
19496W        W87826   0.896  43.783  12.888
19497W        W87827  10.837   6.185  11.408
19498W        W87828  15.673  22.562  13.825
19499W        W87829  10.169  17.221   4.118
19500W        W87830  31.434   5.229  12.478
19501W        W87831   4.227  38.024  11.447
19502W        W87832  24.647  40.818  11.026
19503W        W87833  35.936  14.641  14.784
19504W        W87834  22.589   2.835  12.845
19505W        W87835   0.854  28.626   1.283
19506W        W87836  26.978   9.374   2.379
19507W        W87837  35.899  42.862   1.405
19508W        W87838  43.457  39.329  14.791
19509W        W87839  26.098  30.114  14.466
19510W        W87840  25.201  35.033  10.972
19511W        W87841  37.900  30.497   4.783
19512W        W87842  30.092   4.901   2.772
19513W        W87843  31.647  23.562  10.491
19514W        W87844  42.934  28.934   3.170
19515W        W87845   2.808   5.286   0.863
19516W        W87846  38.888  20.057   1.876
19517W        W87847  38.473   1.356  11.545
19518W        W87848  20.090   5.719  12.473
19519W        W87849   1.928  43.442   1.719
19520W        W87850  31.602  21.138  11.547
19521W        W87851  29.074  34.974   3.812
19522W        W87852  23.645  38.473   3.158
19523W        W87853  15.771   4.276  13.486
19524W        W87854  19.628   1.445   4.261
19525W        W87855  36.007  20.220   3.321
19526W        W87856  17.118   5.751   0.866
19527W        W87857  34.606  35.553  11.968
19528W        W87858  14.707  36.955   4.243
19529W        W87859   5.230  23.143   1.738
19530W        W87860   8.245   2.941  13.485
19531W        W87861  34.918  16.740   4.297
19532W        W87862  10.318  18.676   3.363
19533W        W87863   7.270  19.780  12.911
19534W        W87864  38.825  29.984  10.427
19535W        W87865  18.607  38.996   0.806
19536W        W87866  34.394  17.775  11.563
19537W        W87867  44.438  43.816  12.499
19538W        W87868  28.597  10.186   0.367
19539W        W87869  18.578  25.605  11.436
19540W        W87870  21.217  35.566   2.259
19541W        W87871  26.986  17.234   4.806
19542W        W87872  19.738  27.991   0.884
19543W        W87873  13.612  36.903  14.406
19544W        W87874   5.419  21.197  11.991
19545W        W87875  38.870  26.562   0.409
19546W        W87876  33.962  26.972   0.446
19547W        W87877  15.811   4.355   4.783
19548W        W87878  28.471  44.418   0.888
19549W        W87879  11.330  30.513  11.611
19550W        W87880  13.844  19.734  14.897
19551W        W87881   0.276  25.053   4.766
19552W        W87882  36.892  38.451  13.820
19553W        W87883   8.386  32.566   3.679
19554W        W87884   0.377  36.422   0.305
19555W        W87885  35.852  28.963   2.791
19556W        W87886  32.585  26.000   4.690
19557W        W87887  25.091  36.440   4.309
19558W        W87888  33.971  42.889   0.733
19559W        W87889  43.393  36.454   0.820
19560W        W87890  10.293  12.152  14.844
19561W        W87891  21.648  19.737  10.587
19562W        W87892  34.590  26.549  13.313
19563W        W87893  42.353  18.281   4.274
19564W        W87894  29.125  43.827   1.252
19565W        W87895  29.082  12.764  11.858
19566W        W87896  38.961  31.501  12.363
19567W        W87897   3.214  24.669  14.362
19568W        W87898  15.657  31.641  10.086
19569W        W87899  14.229  21.597  10.421
19570W        W87900  26.038  39.352   3.716
19571W        W87901  27.975  42.005   1.924
19572W        W87902  34.412  35.439  10.965
19573W        W87903  24.008  15.661  10.985
19574W        W87904   7.702  17.259   2.185
19575W        W87905  36.849  25.117   4.727
19576W        W87906   3.452  25.141   3.783
19577W        W87907  36.452  20.666  14.902
19578W        W87908  18.267  42.894  14.457
19579W        W87909  41.496  21.607   2.852
19580W        W87910  28.462   1.937   1.363
19581W        W87911  26.682  31.975  14.894
19582W        W87912   2.250  13.233   1.732
19583W        W87913  34.950  28.679   2.889
19584W        W87914  20.052  19.720  12.974
19585W        W87915  19.580  16.615  11.881
19586W        W87916   3.921  41.910  14.857
19587W        W87917  14.251  20.260   1.796
19588W        W87918  19.752  36.900  10.957
19589W        W87919  33.908   0.833  13.431
19590W        W87920  22.212   3.361  14.419
19591W        W87921  18.671  17.644   1.251
19592W        W87922   6.207   3.743  12.086
19593W        W87923   1.779   2.927   4.280
19594W        W87924  36.043  18.098   2.284
19595W        W87925  16.314  24.634   3.760
19596W        W87926  31.419  27.544  14.278
19597W        W87927  13.692   6.868   4.132
19598W        W87928   2.394   9.688   4.794
19599W        W87929   4.794  27.611  11.538
19600W        W87930  27.134  34.550   5.280
19601W        W87931  17.755  19.098  11.991
19602W        W87932  29.143  33.954   0.955
19603W        W87933  12.309  29.564  13.506
19604W        W87934  11.826  31.974  12.991
19605W        W87935  22.562  33.440  13.959
19606W        W87936  38.419  39.527   2.319
19607W        W87937  19.638  24.197  13.912
19608W        W87938  21.023  27.060   1.452
19609W        W87939  17.095   9.350  11.052
19610W        W87940  44.786   7.791   4.252
19611W        W87941  37.361  24.644  12.889
19612W        W87942   8.724   7.823   2.358
19613W        W87943   1.357  12.760   2.354
19614W        W87944   5.791  26.670  14.485
19615W        W87945  31.630  24.666  14.024
19616W        W87946  33.521  23.019  13.918
19617W        W87947  21.616  31.951   5.086
19618W        W87948  19.181   9.289  10.931
19619W        W87949  22.706   4.762   4.160
19620W        W87950  41.850  30.039   4.340
19621W        W87951  30.438  26.621  13.999
19622W        W87952  25.545  38.959  12.855
19623W        W87953  31.112  30.499  10.615
19624W        W87954  35.580  11.675  12.359
19625W        W87955  21.086   6.304  10.523
19626W        W87956  19.167  25.990   9.614
19627W        W87957  44.856  39.878  14.838
19628W        W87958  23.014  29.584   5.745
19629W        W87959  38.994  25.522   4.812
19630W        W87960   2.281  12.259  14.853
19631W        W87961  40.932  18.782  11.012
19632W        W87962  20.570  24.720   1.883
19633W        W87963  33.606  12.217  12.390
19634W        W87964   7.221  21.551   1.818
19635W        W87965  15.264  16.743   2.261
19636W        W87966  11.709  11.651  14.491
19637W        W87967   6.350  44.473   4.274
19638W        W87968  38.999  36.069  14.971
19639W        W87969  36.376  11.697   3.369
19640W        W87970   8.196  32.508   1.370
19641W        W87971  34.086  15.823   1.331
19642W        W87972   2.441   2.331   1.357
19643W        W87973  31.067  42.458  12.018
19644W        W87974  18.716   3.880  14.942
19645W        W87975  14.102  24.499   1.356
19646W        W87976   3.755  39.331  14.954
19647W        W87977  16.730  29.529  13.375
19648W        W87978  33.470  31.929  11.462
19649W        W87979  30.064  40.822   0.896
19650W        W87980  24.978  11.367  14.759
19651W        W87981  35.020  26.983  13.487
19652W        W87982  25.205   2.415   0.299
19653W        W87983  26.503  22.521   3.374
19654W        W87984  41.437  25.541  10.441
19655W        W87985  39.891  26.960  11.883
19656W        W87986  33.404  17.172  11.595
19657W        W87987  26.612  28.084   1.844
19658W        W87988   8.817   6.681   1.822
19659W        W87989  17.772  38.383   4.621
19660W        W87990  32.889  25.475  12.536
19661W        W87991  40.357  13.202   2.789
19662W        W87992   5.295  41.494  14.930
19663W        W87993   7.200  15.732  13.893
19664W        W87994  23.540   2.871  11.028
19665W        W87995  31.426  18.697  13.931
19666W        W87996   1.924  11.179   1.752
19667W        W87997  16.604  34.918  11.938
19668W        W87998   8.742   3.344  10.484
19669W        W87999  14.270  39.982   1.843
19670W        W88000   1.373   0.456   3.756
19671W        W88001  42.778  37.440   4.701
19672W        W88002  40.973  15.231  12.872
19673W        W88003  23.578  22.528  14.885
19674W        W88004  29.002   9.765   3.695
19675W        W88005  44.830  35.054  12.474
19676W        W88006  17.066  43.315   0.733
19677W        W88007  41.490  29.933   3.730
19678W        W88008   1.793  19.641   4.264
19679W        W88009  37.558  34.050  11.111
19680W        W88010  41.404  11.747   1.317
19681W        W88011  12.128   5.912   4.135
19682W        W88012   5.731   9.750  10.459
19683W        W88013  30.014   1.453   1.431
19684W        W88014  42.842  39.366   1.444
19685W        W88015   6.327  43.495   4.204
19686W        W88016  37.905  33.988  12.931
19687W        W88017  23.013   5.404  13.882
19688W        W88018  24.665  20.636   4.635
19689W        W88019  10.240  19.150   2.327
19690W        W88020  13.122  19.759  13.872
19691W        W88021  13.223  34.555  13.795
19692W        W88022  24.034  42.379  14.801
19693W        W88023  41.953   7.342  14.444
19694W        W88024  21.648   3.235   2.233
19695W        W88025  31.984   0.770   3.160
19696W        W88026  16.786  36.877   9.525
19697W        W88027  28.486  32.476  13.512
19698W        W88028  44.367  41.419   5.285
19699W        W88029  39.000  40.328  13.502
19700W        W88030  19.072  16.209   3.152
19701W        W88031  41.795   0.770  13.480
19702W        W88032  21.217  10.138   0.923
19703W        W88033  11.295  41.358   1.414
19704W        W88034  35.033  25.071   3.190
19705W        W88035  20.103   7.757   2.415
19706W        W88036  42.825  34.373   2.276
19707W        W88037  21.116   7.416   4.626
19708W        W88038   2.436  34.956   4.683
19709W        W88039  35.882  23.687   3.307
19710W        W88040  33.494  40.322   3.816
19711W        W88041  14.658  16.693  14.279
19712W        W88042  40.336  27.472  14.909
19713W        W88043  23.105  26.159  13.026
19714W        W88044  37.886  38.862   3.655
19715W        W88045  41.925  39.409   3.676
19716W        W88046  15.248  39.452  11.588
19717W        W88047  25.122   1.257   2.848
19718W        W88048  28.003  15.608  10.594
19719W        W88049  11.727  22.014  13.030
19720W        W88050  23.670   5.230   1.245
19721W        W88051  23.056  40.801   0.468
19722W        W88052  38.405   2.375  13.320
19723W        W88053   4.863  26.697  13.548
19724W        W88054  15.676  29.594   2.742
19725W        W88055  33.547  41.420   0.881
19726W        W88056  24.154  12.168  11.947
19727W        W88057  30.101  16.276   2.823
19728W        W88058  11.343  12.363   1.400
19729W        W88059  43.013  33.421  13.536
19730W        W88060   6.422  31.444  11.889
19731W        W88061  42.790  44.009  11.108
19732W        W88062  31.570   1.263   2.416
19733W        W88063  19.144  23.672   1.811
19734W        W88064  31.097  27.460  11.021
19735W        W88065  10.315  18.546   2.268
19736W        W88066   6.199  21.130  11.079
19737W        W88067   2.467  19.100  12.428
19738W        W88068  35.038  26.081  12.005
19739W        W88069   2.771  11.652   0.875
19740W        W88070  31.482   6.738  14.913
19741W        W88071  43.835   6.823   1.396
19742W        W88072  29.595  33.490   2.383
19743W        W88073  24.526  16.105  12.914
19744W        W88074   5.759  28.520  11.921
19745W        W88075  34.599  40.895   3.307
19746W        W88076   0.881  30.517   2.241
19747W        W88077  29.966  37.927   1.720
19748W        W88078  42.013   1.864  10.465
19749W        W88079  11.774   0.930   0.828
19750W        W88080   1.320   2.926  10.404
19751W        W88081  43.315  35.472  14.341
19752W        W88082  15.582   3.933  10.530
19753W        W88083  24.696  35.998   1.866
19754W        W88084  43.361  30.627  13.865
19755W        W88085  31.565  13.140  12.831
19756W        W88086  21.129  35.947  11.115
19757W        W88087  23.177   1.382  14.314
19758W        W88088  44.366  22.639   4.829
19759W        W88089  12.720   0.413   1.854
19760W        W88090  25.197  34.598  12.405
19761W        W88091   2.347  38.968   3.241
19762W        W88092  38.958   7.905  11.409
19763W        W88093  28.055  27.659  12.417
19764W        W88094  16.796   2.452  13.887
19765W        W88095   7.877  43.384   2.674
19766W        W88096  36.941  17.213  10.416
19767W        W88097  32.067  23.736  13.373
19768W        W88098  16.239   0.891   4.136
19769W        W88099   0.424  34.475   4.150
19770W        W88100   7.768  34.552  12.461
19771W        W88101  41.443  24.698  12.034
19772W        W88102  41.527  41.332   0.257
19773W        W88103   1.781   6.896   0.424
19774W        W88104  24.031  21.732  13.522
19775W        W88105  35.376  44.375  11.917
19776W        W88106  14.239  33.894  14.834
19777W        W88107  36.472  38.411   4.628
19778W        W88108  23.555   1.966  14.497
19779W        W88109   4.314   8.736   1.833
19780W        W88110  18.735   1.745  13.001
19781W        W88111   4.231  39.489  13.331
19782W        W88112  42.851  22.544  12.349
19783W        W88113  35.054   4.841   2.827
19784W        W88114   5.712  36.378  10.608
19785W        W88115  27.074  38.035   2.699
19786W        W88116  23.723  37.988  14.365
19787W        W88117  36.013   6.742   4.728
19788W        W88118  17.611  23.061   5.639
19789W        W88119  10.838  28.180  10.152
19790W        W88120  44.427  28.948   1.314
19791W        W88121   2.965  21.732   0.765
19792W        W88122  26.194   6.890   3.788
19793W        W88123  24.135   2.300  11.507
19794W        W88124  36.055  40.411  12.478
19795W        W88125  27.532  36.919  12.045
19796W        W88126  37.489   5.381   3.250
19797W        W88127  20.033  40.406   3.307
19798W        W88128  16.617  32.131   2.263
19799W        W88129  32.004  27.116   1.430
19800W        W88130  24.558  28.676   4.159
19801W        W88131   7.735  20.540   0.446
19802W        W88132  16.596  31.939  10.455
19803W        W88133  19.158  35.971  10.490
19804W        W88134  25.125  44.265  10.572
19805W        W88135   1.290  42.008   2.812
19806W        W88136  17.174  18.206   1.380
19807W        W88137  30.557  14.258  11.948
19808W        W88138   9.292  35.004  14.331
19809W        W88139  24.561  14.801  14.776
19810W        W88140  20.749   5.256   3.733
19811W        W88141  44.331   4.270   3.778
19812W        W88142  39.438   1.904  14.491
19813W        W88143  29.000  18.108   2.340
19814W        W88144   7.762  18.295   0.395
19815W        W88145  38.526  20.659  13.453
19816W        W88146  20.752  40.840   2.339
19817W        W88147  33.048  17.221  10.585
19818W        W88148   4.251   7.729   3.641
19819W        W88149  14.190  14.245   3.170
19820W        W88150  25.713  34.502  12.393
19821W        W88151  38.429   8.265  13.922
19822W        W88152  10.356   4.732  11.082
19823W        W88153  38.040  11.284   4.837
19824W        W88154  17.792  25.556   2.840
19825W        W88155  44.784  44.983  13.319
19826W        W88156  38.859  15.618   4.264
19827W        W88157  40.309  18.652  11.066
19828W        W88158  10.714  32.088  11.119
19829W        W88159  12.667  20.674  11.072
19830W        W88160  21.666  42.455   0.824
19831W        W88161  29.174  19.723  14.955
19832W        W88162  16.188  13.787  13.975
19833W        W88163  19.642   4.850  14.979
19834W        W88164  16.623  43.867   2.769
19835W        W88165  19.725  19.160  12.880
19836W        W88166  39.321  28.094   0.447
19837W        W88167  25.073  39.896  10.503
19838W        W88168  27.570   3.242   2.274
19839W        W88169  37.415  39.434  12.031
19840W        W88170  17.652  29.627  13.825
19841W        W88171  28.092  29.958  10.432
19842W        W88172  30.952   7.210  10.034
19843W        W88173  20.750  14.259   2.395
19844W        W88174  22.127  28.985   3.303
19845W        W88175  36.092  20.032  11.942
19846W        W88176  31.125  27.042   3.783
19847W        W88177  40.304  44.973  12.497
19848W        W88178   4.349  28.156   1.825
19849W        W88179   6.305  12.292  11.942
19850W        W88180  42.871   2.794   0.764
19851W        W88181   3.268  13.276  14.002
19852W        W88182  37.423  41.486  14.303
19853W        W88183  43.893  26.143  10.557
19854W        W88184  18.581   3.369   0.831
19855W        W88185  31.407  43.924  14.288
19856W        W88186   3.778  40.304  13.489
19857W        W88187   6.713   5.312   4.616
19858W        W88188  25.629  43.341  11.473
19859W        W88189  33.614  10.878  12.509
19860W        W88190  34.975  36.919   2.196
19861W        W88191  15.103  28.967   4.684
19862W        W88192  13.624  12.222  14.782
19863W        W88193   4.853  44.261  13.324
19864W        W88194  24.695  16.712  14.305
19865W        W88195   1.356   5.865  13.524
19866W        W88196  22.574  39.884   0.853
19867W        W88197   2.928   2.231   1.859
19868W        W88198  27.520  39.402  12.082
19869W        W88199  20.213  39.944  12.575
19870W        W88200   0.965   4.845  10.972
19871W        W88201  30.959  13.665  10.404
19872W        W88202  30.630  12.797   2.379
19873W        W88203  20.118  33.532   4.793
19874W        W88204  20.150  15.709  12.835
19875W        W88205  26.484   1.437   0.811
19876W        W88206  19.039  22.635  13.977
19877W        W88207   1.370  11.763   1.408
19878W        W88208   2.357  26.194  12.045
19879W        W88209   8.730   5.323   3.809
19880W        W88210   4.446  21.090   1.343
19881W        W88211  41.868  25.054  11.062
19882W        W88212  24.089  12.362   3.799
19883W        W88213   5.248  28.660   0.934
19884W        W88214  23.586  11.835   1.449
19885W        W88215  16.096   5.350  14.770
19886W        W88216  32.954  44.344  13.862
19887W        W88217  34.509   1.798  10.493
19888W        W88218  21.194  39.329  12.468
19889W        W88219   6.325   8.346  10.524
19890W        W88220  31.116  19.585   1.732
19891W        W88221  32.956  37.945  12.914
19892W        W88222  36.846  20.082  14.010
19893W        W88223  38.989   9.302  13.341
19894W        W88224  11.744  13.728   2.714
19895W        W88225  17.796   2.455   0.928
19896W        W88226  11.850  41.505  13.952
19897W        W88227  13.322   8.269  12.404
19898W        W88228  33.554   8.853   1.395
19899W        W88229  16.251  14.704  11.486
19900W        W88230   3.438  22.616   1.420
19901W        W88231  44.854  25.672   4.816
19902W        W88232   0.369  33.609  12.862
19903W        W88233   5.242  13.735  14.934
19904W        W88234  21.038  20.082   1.294
19905W        W88235  14.637  38.423   3.334
19906W        W88236  16.666  32.040   1.892
19907W        W88237  23.155  19.215   4.268
19908W        W88238  13.738  29.602  14.836
19909W        W88239  11.278  14.626  11.395
19910W        W88240  24.113  39.956  11.004
19911W        W88241   2.381  31.903  14.280
19912W        W88242  19.655  32.591  10.892
19913W        W88243  34.984  17.731  12.432
19914W        W88244  41.029  14.140   1.904
19915W        W88245   2.292  24.039  12.088
19916W        W88246   4.762   1.738  10.610
19917W        W88247   7.361  34.936  10.927
19918W        W88248   4.845  41.818   5.320
19919W        W88249  11.667  28.090  12.411
19920W        W88250   4.215  11.700  12.929
19921W        W88251  37.418  36.033   2.675
19922W        W88252  11.800  18.691   2.308
19923W        W88253  43.453   9.669   4.348
19924W        W88254   7.178  18.262  11.508
19925W        W88255   7.679  17.280  13.951
19926W        W88256  27.678  20.093  14.900
19927W        W88257   0.807   6.745   4.219
19928W        W88258  35.538  29.926  10.593
19929W        W88259   7.199  12.637   4.318
19930W        W88260  29.142  42.513  13.345
19931W        W88261   5.805  25.616  12.952
19932W        W88262  24.584  33.002  14.991
19933W        W88263  18.245   7.742   4.618
19934W        W88264   7.308  41.789  10.972
19935W        W88265  39.008   8.786   0.851
19936W        W88266  26.470   7.405  12.370
19937W        W88267  13.232  42.325  12.884
19938W        W88268  19.286   4.755   0.348
19939W        W88269  44.397  38.933   5.228
19940W        W88270  34.516  38.906   0.890
19941W        W88271   1.331  40.352   4.700
19942W        W88272  40.924  31.448   2.689
19943W        W88273  21.560  42.395   4.764
19944W        W88274  25.520  25.012   3.363
19945W        W88275  29.624  15.128   4.725
19946W        W88276  33.054   6.265   1.294
19947W        W88277  27.964   7.765   4.280
19948W        W88278  39.535  30.128   3.346
19949W        W88279  12.854  23.498  12.421
19950W        W88280   2.941  33.099  13.921
19951W        W88281   6.855  35.480  11.514
19952W        W88282   4.372  23.999   1.323
19953W        W88283   4.772   3.313   0.866
19954W        W88284  41.916  12.619  14.020
19955W        W88285  25.681   9.743   3.316
19956W        W88286  11.747  16.594  10.962
19957W        W88287  36.560  30.150  13.985
19958W        W88288  10.335  17.268   5.228
19959W        W88289  41.304  10.181   1.431
19960W        W88290  13.620   7.233   4.731
19961W        W88291  42.344  40.043  14.363
19962W        W88292  17.611   8.736  11.070
19963W        W88293  28.088  38.517   3.728
19964W        W88294  35.586  41.516   3.146
19965W        W88295  42.820  26.068   2.238
19966W        W88296  20.570   5.373   1.239
19967W        W88297   4.771   4.370  11.963
19968W        W88298  29.991  15.581  12.828
19969W        W88299  21.614  41.826  10.918
19970W        W88300  23.668  22.508   2.266
19971W        W88301  16.672   8.776  13.823
19972W        W88302  37.428   7.769   4.230
19973W        W88303  24.595   9.740  11.553
19974W        W88304  24.185   9.236  13.361
19975W        W88305  31.435  20.035   3.288
19976W        W88306  21.664  12.689  11.090
19977W        W88307  28.526  35.916  14.504
19978W        W88308  44.765  23.103   1.805
19979W        W88309   1.796  15.118  14.381
19980W        W88310  41.535  11.806   2.225
19981W        W88311  40.868  21.622   4.232
19982W        W88312  29.517  17.782  11.933
19983W        W88313  11.358  11.172   2.350
19984W        W88314  18.184   8.898  11.981
19985W        W88315  36.473  37.430  13.352
19986W        W88316  18.703  44.907  13.811
19987W        W88317  21.612  35.508   2.300
19988W        W88318  32.462  42.876   4.184
19989W        W88319  39.914  40.972   1.425
19990W        W88320  27.189   1.942   2.312
19991W        W88321  37.897  33.106  11.404
19992W        W88322   6.742  22.236   0.812
19993W        W88323  28.538  14.695  11.105
19994W        W88324  21.722  13.808  12.036
19995W        W88325  11.846  26.992  13.397
19996W        W88326  42.956   3.409   2.858
19997W        W88327  22.511  38.521  14.798
19998W        W88328  43.366   7.884   1.932
19999W        W88329   9.656   8.181  10.584
20000W        W88330   5.368  11.274   4.249
20001W        W88331  26.465  19.563  14.409
20002W        W88332  24.528   1.978  13.797
20003W        W88333  25.584  25.581  12.990
20004W        W88334   7.246   9.203   4.259
20005W        W88335  15.733   9.323  10.551
20006W        W88336   1.962   7.232  11.428
20007W        W88337   9.335  43.397   1.930
20008W        W88338  12.680  39.029  10.462
20009W        W88339  40.948   7.306  11.586
20010W        W88340  20.167   7.193   2.803
20011W        W88341  44.321  11.640  10.407
20012W        W88342   9.277  29.077  11.019
20013W        W88343   2.355  14.747   3.655
20014W        W88344   1.307   0.851   3.795
20015W        W88345  28.166  38.491  13.857
20016W        W88346   0.908   9.359  13.897
20017W        W88347   7.209  32.014   3.762
20018W        W88348  38.978  32.101   1.429
20019W        W88349  11.696  35.923   2.834
20020W        W88350  34.547  12.742   4.757
20021W        W88351   8.235  38.823  10.431
20022W        W88352  35.599  36.910  12.507
20023W        W88353   6.396  24.082   1.854
20024W        W88354  35.100  38.504  13.046
20025W        W88355  44.267  20.554  13.419
20026W        W88356   6.408  37.392  12.483
20027W        W88357   0.776  21.172   0.343
20028W        W88358  31.920  22.100   1.226
20029W        W88359  33.452  40.911  14.493
20030W        W88360  32.002  28.521  12.885
20031W        W88361  28.516  10.147  11.036
20032W        W88362  24.080   8.254  12.528
20033W        W88363   3.370  27.095  12.489
20034W        W88364  43.825  15.289   3.311
20035W        W88365  12.116   4.881   3.148
20036W        W88366   6.225  16.675  13.062
20037W        W88367  36.095   0.900  12.960
20038W        W88368  40.382   7.396   9.995
20039W        W88369  13.687  20.533  13.310
20040W        W88370  40.026  19.630  14.870
20041W        W88371  39.973   6.756  11.594
20042W        W88372  36.577  24.998  12.506
20043W        W88373  12.134  27.522  14.934
20044W        W88374  41.955  28.031  14.890
20045W        W88375  42.338  40.969  10.511
20046W        W88376  28.165  33.605  13.802
20047W        W88377  37.015  37.017  10.568
20048W        W88378  44.888  43.462  14.491
20049W        W88379   0.857  44.008  10.519
20050W        W88380   1.257   0.460  14.420
20051W        W88381  13.309  28.956  12.030
20052W        W88382  36.534  38.067   3.189
20053W        W88383  18.611   2.391   1.726
20054W        W88384   5.714   1.914  14.018
20055W        W88385  19.714  37.916   1.715
20056W        W88386   3.913  44.940   3.633
20057W        W88387  17.720  18.666   1.901
20058W        W88388  12.322  20.118  13.497
20059W        W88389  19.576  17.559  12.994
20060W        W88390  41.006  39.943   2.207
20061W        W88391  14.188  10.731  11.881
20062W        W88392  23.153  44.346  10.632
20063W        W88393   2.779  15.209   3.690
20064W        W88394  40.987   3.277   3.246
20065W        W88395  23.111  21.038   1.749
20066W        W88396  34.475  21.171  11.873
20067W        W88397  11.262   5.380   1.916
20068W        W88398  17.738  26.166  10.044
20069W        W88399   7.888   5.850  10.558
20070W        W88400   5.808  43.357   2.190
20071W        W88401   0.867  11.310  11.391
20072W        W88402  39.508  24.120   3.661
20073W        W88403  39.482  19.138  12.517
20074W        W88404  24.679  15.204   1.267
20075W        W88405   0.889  32.578   0.470
20076W        W88406  36.516  19.753   0.455
20077W        W88407  10.650  11.695   1.735
20078W        W88408  17.213  12.317  13.886
20079W        W88409   2.831  12.253  13.533
20080W        W88410   8.809  30.013  14.879
20081W        W88411  42.338   8.257  14.026
20082W        W88412   2.236  13.235   4.240
20083W        W88413  22.701  39.424  14.774
20084W        W88414  25.039  32.060   3.245
20085W        W88415  23.550  40.498   2.319
20086W        W88416  41.914  11.770  12.957
20087W        W88417  26.000  44.443   2.211
20088W        W88418  37.035  34.482   4.805
20089W        W88419  31.081  27.067  11.128
20090W        W88420  31.609  21.244   0.301
20091W        W88421  36.953   3.381  13.890
20092W        W88422   7.413  31.564   4.140
20093W        W88423  30.655  18.189   1.931
20094W        W88424  13.627  17.161  11.443
20095W        W88425  24.526  26.127   3.632
20096W        W88426  37.844  36.447   2.184
20097W        W88427  33.942   9.730   2.736
20098W        W88428   9.160  27.951   1.926
20099W        W88429   6.707  31.523  11.064
20100W        W88430   8.707   1.803   1.418
20101W        W88431  16.257  40.458  12.962
20102W        W88432  22.120  12.637  10.556
20103W        W88433  12.785  19.577   0.368
20104W        W88434  11.312  19.266  10.484
20105W        W88435  33.432  14.629  14.401
20106W        W88436  29.537  20.028   0.964
20107W        W88437  10.794  32.595   0.342
20108W        W88438  31.617  33.081   2.257
20109W        W88439   3.901  20.577  12.983
20110W        W88440  18.681  41.941  14.345
20111W        W88441  27.516  10.700   1.765
20112W        W88442  18.765   1.472   0.962
20113W        W88443   4.299  13.324  11.080
20114W        W88444  27.173  42.481  11.103
20115W        W88445  39.501  32.411  14.358
20116W        W88446  22.250  26.673  10.990
20117W        W88447   3.922  15.749   3.702
20118W        W88448  41.881  44.868  12.451
20119W        W88449  20.544   3.826   2.384
20120W        W88450  38.830  13.308  10.582
20121W        W88451  22.608  42.839   0.256
20122W        W88452   7.815   0.263   2.859
20123W        W88453  38.871   0.745   1.423
20124W        W88454  32.989  22.740   0.359
20125W        W88455   0.258  34.085  11.537
20126W        W88456  11.802  20.745  12.953
20127W        W88457  28.029  21.650   2.880
20128W        W88458   7.790  23.135  14.986
20129W        W88459  23.511  31.425  10.502
20130W        W88460  38.032  16.584  13.933
20131W        W88461  29.544   0.775  13.990
20132W        W88462  25.974   2.399  12.083
20133W        W88463  16.725  12.702   0.432
20134W        W88464  29.464  28.608  12.477
20135W        W88465  14.101  35.069  13.857
20136W        W88466  10.645  14.630   4.324
20137W        W88467  18.632  13.256   3.327
20138W        W88468   9.647  15.787   2.822
20139W        W88469  23.119  30.610   4.789
20140W        W88470   6.226  42.440  12.539
20141W        W88471  21.145  11.284  12.093
20142W        W88472   4.865   7.319   3.161
20143W        W88473  42.934   7.842  13.503
20144W        W88474  44.010  32.128  14.799
20145W        W88475  43.012  40.469   3.379
20146W        W88476  28.975  10.155  11.868
20147W        W88477  16.215  41.292  12.959
20148W        W88478  14.647  10.800   1.862
20149W        W88479  43.844  19.191   1.777
20150W        W88480  35.525  29.495   3.818
20151W        W88481  31.461   8.689  12.390
20152W        W88482  36.435  22.057  12.933
20153W        W88483   3.891  35.550   2.181
20154W        W88484  22.671  29.493  13.876
20155W        W88485  38.919   1.416   1.216
20156W        W88486  21.583  17.158   9.940
20157W        W88487  37.911  15.264  14.304
20158W        W88488  37.565  19.195  11.518
20159W        W88489  16.774  33.100  14.377
20160W        W88490  12.709   0.797   4.176
20161W        W88491  43.343  11.857   2.208
20162W        W88492  42.409  22.639   2.673
20163W        W88493  17.101   5.691  12.856
20164W        W88494  25.971  14.252  10.528
20165W        W88495  19.615  23.044   3.182
20166W        W88496  13.110  40.004  14.836
20167W        W88497  24.105  21.575   1.930
20168W        W88498  23.515   5.818   1.883
20169W        W88499   6.685   6.681  11.867
20170W        W88500  12.852   9.367   4.207
20171W        W88501  43.334  40.432   4.184
20172W        W88502  43.899  13.730   2.191
20173W        W88503  12.341  36.898  10.644
20174W        W88504  34.060  16.793   2.717
20175W        W88505  19.108   6.208   1.925
20176W        W88506   5.417  37.934   2.292
20177W        W88507  17.656  38.464   0.341
20178W        W88508  40.472  22.562  11.974
20179W        W88509   1.845  12.266  12.479
20180W        W88510   9.815  38.437   1.222
20181W        W88511  30.510   0.303  12.474
20182W        W88512  44.914  31.039  14.496
20183W        W88513  28.641  33.388   5.748
20184W        W88514  37.448   3.267  13.421
20185W        W88515  21.120   9.287  10.616
20186W        W88516  21.739  18.750  14.767
20187W        W88517   1.927  31.116  13.794
20188W        W88518  28.956  27.487  10.416
20189W        W88519  43.474   4.845  13.326
20190W        W88520  26.098  32.582   0.395
20191W        W88521  34.114   8.777   2.380
20192W        W88522  31.081   5.727  11.944
20193W        W88523  40.051   5.896  13.932
20194W        W88524  19.654  32.117  14.830
20195W        W88525   8.219  10.329  11.564
20196W        W88526  26.096  10.696   2.185
20197W        W88527   4.777  23.174   1.746
20198W        W88528  15.671  20.674  11.457
20199W        W88529   5.735  39.445  12.383
20200W        W88530  16.148  39.832   0.876
20201W        W88531  37.507  15.151  10.911
20202W        W88532  37.916   4.896   3.171
20203W        W88533  20.095   8.881  12.032
20204W        W88534  29.152  37.883  14.770
20205W        W88535  44.847  15.743   0.284
20206W        W88536  29.922   9.652  13.019
20207W        W88537  42.468  20.638   0.474
20208W        W88538  29.071   7.279   4.813
20209W        W88539  22.143  39.549   0.734
20210W        W88540   9.654  21.617   2.411
20211W        W88541  19.229  38.994   0.442
20212W        W88542  17.612  11.164   0.374
20213W        W88543  22.122   9.240   1.832
20214W        W88544  44.872   9.206  14.481
20215W        W88545  42.826  35.937   3.340
20216W        W88546  19.626  15.802  11.551
20217W        W88547  32.442  42.903  12.460
20218W        W88548  29.167  13.637   2.261
20219W        W88549  42.953  42.416  10.455
20220W        W88550  37.069   8.217  11.049
20221W        W88551  31.009   8.404   3.757
20222W        W88552  15.722  39.357  12.946
20223W        W88553  31.032   2.351  10.626
20224W        W88554   9.206  27.465  13.051
20225W        W88555   1.246   9.288  11.072
20226W        W88556  19.155  12.207  14.955
20227W        W88557  13.723  41.903   3.831
20228W        W88558  38.570  24.130  14.309
20229W        W88559  32.530  16.621   3.645
20230W        W88560  26.100  25.609   2.753
20231W        W88561   6.274  16.643  10.912
20232W        W88562  12.806  14.689  12.454
20233W        W88563  13.718   9.331   3.185
20234W        W88564   9.858  34.533   0.834
20235W        W88565  19.042   5.333   2.797
20236W        W88566   1.908  33.937  10.459
20237W        W88567  11.675  28.988  10.134
20238W        W88568  26.112  44.291  10.554
20239W        W88569   6.791   4.859   0.456
20240W        W88570  14.654  15.725  14.392
20241W        W88571   1.927  10.783  14.497
20242W        W88572  19.632   3.940   4.759
20243W        W88573  29.174  23.215  12.074
20244W        W88574   3.311  12.744   4.703
20245W        W88575  30.430  37.436   4.270
20246W        W88576  16.153  28.092  13.400
20247W        W88577  13.123   3.880  12.576
20248W        W88578  42.398   0.758  12.071
20249W        W88579  21.669   6.264   0.448
20250W        W88580  16.803  37.536   0.809
20251W        W88581  42.294   2.301  13.954
20252W        W88582  42.993  26.667  12.566
20253W        W88583  29.938   9.290   4.621
20254W        W88584  18.152  33.107  11.102
20255W        W88585  20.113  21.531   1.225
20256W        W88586  32.950  20.032  13.352
20257W        W88587  19.669   1.897   1.758
20258W        W88588  37.001  34.370   0.922
20259W        W88589  44.276  30.079   0.264
20260W        W88590  15.227  35.456  13.361
20261W        W88591  12.660  11.863   2.296
20262W        W88592   7.816  16.640   1.804
20263W        W88593  24.011  11.771   4.652
20264W        W88594   4.741   2.358  11.928
20265W        W88595  15.107  21.694  12.561
20266W        W88596  39.320  42.501   0.369
20267W        W88597  18.116  10.758  12.543
20268W        W88598   3.925  16.794   0.389
20269W        W88599   7.899  36.986   0.277
20270W        W88600  19.651   4.810   0.410
20271W        W88601   4.853   5.298   0.304
20272W        W88602  37.449  44.766   3.381
20273W        W88603  41.902  40.443  12.434
20274W        W88604   5.367   6.330   0.901
20275W        W88605  13.132  10.302   3.153
20276W        W88606  28.529  23.634  12.830
20277W        W88607  32.899  24.525  11.858
20278W        W88608   6.343  12.281   0.962
20279W        W88609  36.015  24.544   2.295
20280W        W88610   2.776   3.709   0.418
20281W        W88611  42.795  39.400  10.502
20282W        W88612   3.280  38.362  14.855
20283W        W88613  36.564   2.932   1.416
20284W        W88614  30.944  20.658   3.695
20285W        W88615   1.264   8.229  13.519
20286W        W88616  11.311  11.863   3.257
20287W        W88617  27.019  30.088  11.897
20288W        W88618  22.663  35.448   4.775
20289W        W88619  15.096   0.920   2.715
20290W        W88620  34.522   2.768  13.373
20291W        W88621  13.289   4.893  10.443
20292W        W88622  39.530  28.089   1.276
20293W        W88623  44.862  31.912   4.349
20294W        W88624   0.897  25.979  10.914
20295W        W88625  25.656   6.706  13.341
20296W        W88626  23.201  39.430   3.200
20297W        W88627  36.005   8.311  11.573
20298W        W88628  16.278  43.016   4.235
20299W        W88629  12.725  10.251  13.506
20300W        W88630   9.366  30.462  11.401
20301W        W88631  28.519  27.493   3.778
20302W        W88632  35.086   0.370   4.318
20303W        W88633  39.447  16.703   0.300
20304W        W88634   7.762  14.300  11.057
20305W        W88635  22.202  31.604  10.892
20306W        W88636  21.561  31.037  14.856
20307W        W88637  25.584   4.935   2.695
20308W        W88638  10.668   0.445  13.933
20309W        W88639  28.186  16.606  13.442
20310W        W88640  41.798  28.173  11.884
20311W        W88641  33.599   1.262  11.033
20312W        W88642  22.631  30.507   0.403
20313W        W88643  25.625   3.910  12.439
20314W        W88644  16.232  10.802  10.935
20315W        W88645  12.168  25.534  12.953
20316W        W88646  24.175  20.595  12.020
20317W        W88647  15.724   6.922   4.667
20318W        W88648  27.174  27.996   0.898
20319W        W88649  17.556  17.764  13.896
20320W        W88650   1.912  27.189   1.732
20321W        W88651  19.042  31.620  12.026
20322W        W88652  27.166  21.018  11.048
20323W        W88653  29.984  30.078  11.005
20324W        W88654  28.057  13.741  10.918
20325W        W88655  29.640  35.016  13.441
20326W        W88656  35.890  41.892   3.839
20327W        W88657  20.522  12.274  10.443
20328W        W88658  24.007  20.541   0.299
20329W        W88659  22.655  11.803   2.345
20330W        W88660  26.457   7.806   0.309
20331W        W88661  35.853  41.498  13.334
20332W        W88662  38.014  10.809   1.740
20333W        W88663   3.713  29.124  12.042
20334W        W88664  26.601  29.505   0.955
20335W        W88665  32.626  13.764  10.404
20336W        W88666  44.491   6.266  12.038
20337W        W88667  31.039   0.341  14.397
20338W        W88668   1.866  30.525  14.411
20339W        W88669  12.306   7.724  13.792
20340W        W88670  38.569  12.845  12.013
20341W        W88671  38.485  38.819  12.086
20342W        W88672   3.747  36.039  10.621
20343W        W88673  42.346  36.005  12.521
20344W        W88674   3.736  21.174  10.119
20345W        W88675  31.140  21.233   2.667
20346W        W88676  15.708  32.483  14.914
20347W        W88677  43.906  22.142  13.476
20348W        W88678  39.041  10.244   2.836
20349W        W88679  21.729  34.977   3.846
20350W        W88680   0.280   8.257  13.894
20351W        W88681  17.213   0.948  13.038
20352W        W88682  43.021  23.193  14.931
20353W        W88683   7.244  42.960  13.908
20354W        W88684  26.155  20.608   2.266
20355W        W88685   6.377  28.633   4.691
20356W        W88686  14.744   8.748  12.519
20357W        W88687   7.219   1.376   2.217
20358W        W88688  15.814  12.206  12.015
20359W        W88689   0.898  21.720   0.275
20360W        W88690  13.150  19.280  10.958
20361W        W88691   7.715  40.450   3.151
20362W        W88692  35.591  37.526   0.362
20363W        W88693   7.723  17.576  10.942
20364W        W88694  24.532  40.503   1.416
20365W        W88695  37.957  20.673  11.101
20366W        W88696   2.868  38.491   2.755
20367W        W88697   9.159  40.911  12.504
20368W        W88698   9.706   9.660  11.379
20369W        W88699  26.555   2.408  13.954
20370W        W88700  35.890  22.647   1.314
20371W        W88701   0.909  33.558   5.317
20372W        W88702  26.058   0.862  14.438
20373W        W88703  10.855  10.840   1.285
20374W        W88704  43.016  11.622  12.580
20375W        W88705   9.721   9.363  12.992
20376W        W88706  18.700  41.972   3.308
20377W        W88707  36.503  29.508  13.532
20378W        W88708   2.250  21.640  14.896
20379W        W88709   1.251  38.044  14.456
20380W        W88710  34.071  24.091   4.715
20381W        W88711  28.531  16.316  11.573
20382W        W88712  10.283   1.818   2.415
20383W        W88713  27.645  11.809   4.303
20384W        W88714  11.338   5.834   2.257
20385W        W88715  21.042  25.545  13.879
20386W        W88716  23.012   6.346  10.429
20387W        W88717  13.259  15.707   3.164
20388W        W88718  24.036   1.446  11.372
20389W        W88719   6.423  28.560  11.078
20390W        W88720  44.425  41.307   3.737
20391W        W88721  30.549  15.103   3.866
20392W        W88722  43.006  13.336   4.778
20393W        W88723  10.244  30.037  11.896
20394W        W88724  25.547  21.170   3.732
20395W        W88725  22.174  36.420   1.913
20396W        W88726  20.568  15.103  11.119
20397W        W88727  35.467  16.645  13.544
20398W        W88728  20.031  24.031  14.029
20399W        W88729  44.372  25.608   4.217
20400W        W88730   1.902  18.594   4.802
20401W        W88731  36.931  11.692   4.175
20402W        W88732  44.922   3.831   1.217
20403W        W88733  17.268   7.203  13.965
20404W        W88734  38.946  15.763   2.325
20405W        W88735  36.989  30.572   1.761
20406W        W88736  21.538  30.145  14.276
20407W        W88737   3.845  22.063   4.152
20408W        W88738  26.091  32.049  11.005
20409W        W88739  26.067  13.158   3.198
20410W        W88740  43.399  22.584  10.901
20411W        W88741  28.514  23.133  13.058
20412W        W88742  28.049  27.195   2.353
20413W        W88743  33.968  33.612  12.024
20414W        W88744  18.701  17.750   2.190
20415W        W88745  39.828   6.914  14.914
20416W        W88746  32.011   9.165  11.087
20417W        W88747  20.643  15.628  12.546
20418W        W88748  38.863  33.487   1.378
20419W        W88749  22.027  24.508   0.961
20420W        W88750  39.903  17.261  13.826
20421W        W88751  36.027  32.936   1.809
20422W        W88752  29.964  37.909  13.483
20423W        W88753  26.690  38.892  11.094
20424W        W88754  10.261  13.128  11.117
20425W        W88755  36.347  41.033   1.224
20426W        W88756   0.296  12.216   4.246
20427W        W88757  10.261  38.986   1.821
20428W        W88758  13.302  16.311   1.786
20429W        W88759  38.495  38.983  14.301
20430W        W88760   9.817   1.748   4.772
20431W        W88761  27.027  14.298   4.785
20432W        W88762  19.581  23.067   2.876
20433W        W88763  15.198   1.798  13.955
20434W        W88764  28.078  25.668   2.809
20435W        W88765  18.663  43.881  10.614
20436W        W88766  42.831  29.012   1.331
20437W        W88767   1.431  24.676   1.276
20438W        W88768   8.220   5.904  11.114
20439W        W88769   9.225  13.605  13.049
20440W        W88770  10.320  29.145   1.394
20441W        W88771   8.292  36.377   1.447
20442W        W88772   4.937  33.938  13.063
20443W        W88773  44.444  31.899   4.736
20444W        W88774  15.187  17.624   4.753
20445W        W88775  21.121  34.382   1.438
20446W        W88776  25.009  22.181  14.413
20447W        W88777  24.632  21.178   4.350
20448W        W88778  30.158  36.012   1.398
20449W        W88779  44.006  26.681   0.475
20450W        W88780  24.644  36.977   4.683
20451W        W88781  19.187  28.578  11.489
20452W        W88782  38.971  21.178   1.867
20453W        W88783  35.600  15.083  10.939
20454W        W88784  33.049  30.115  12.389
20455W        W88785  39.002   2.292   3.203
20456W        W88786  33.007  38.503  11.944
20457W        W88787   0.979   8.325   4.194
20458W        W88788  17.298  26.011  13.040
20459W        W88789  44.852  15.305   4.161
20460W        W88790  23.159  20.097   0.761
20461W        W88791  31.936  17.075  11.607
20462W        W88792  27.154   3.354   2.214
20463W        W88793  27.027  26.637   0.393
20464W        W88794   6.715  37.457  12.858
20465W        W88795  28.577  42.467  10.413
20466W        W88796   7.303  18.242  13.867
20467W        W88797  42.007   9.201   2.254
20468W        W88798  43.413   6.883   0.744
20469W        W88799   6.916  29.609  13.502
20470W        W88800   4.823  37.978  10.082
20471W        W88801  41.405  37.007  12.012
20472W        W88802  11.349  18.148   0.741
20473W        W88803  29.588  28.524   0.276
20474W        W88804  44.317  30.583  13.457
20475W        W88805  13.772   7.234   1.440
20476W        W88806  19.568   5.820  14.359
20477W        W88807  16.130  35.053  11.872
20478W        W88808  32.054  41.348   2.339
20479W        W88809  12.176   8.661  13.347
20480W        W88810   1.460  42.860   4.142
20481W        W88811  41.944  20.180   2.351
20482W        W88812  44.828  34.989  10.520
20483W        W88813  32.576  10.696  13.042
20484W        W88814  11.805  24.120  11.575
20485W        W88815  33.065  42.462   0.301
20486W        W88816  40.889  18.644  11.454
20487W        W88817  28.979  29.125  11.380
20488W        W88818  12.163   8.349  14.349
20489W        W88819  39.378   3.891  13.924
20490W        W88820  30.521  44.900  14.965
20491W        W88821  26.467  19.164   0.286
20492W        W88822  30.608  11.693  11.970
20493W        W88823  20.141   4.271   2.192
20494W        W88824  28.041  40.396   3.669
20495W        W88825  35.439  26.662   3.348
20496W        W88826  13.185  18.668  10.574
20497W        W88827   8.783   3.378  14.414
20498W        W88828  25.470  36.020   1.381
20499W        W88829  28.638  44.869   0.252
20500W        W88830  22.633  28.619   3.302
20501W        W88831   8.838  11.844   1.358
20502W        W88832  18.161  12.267   1.789
20503W        W88833  36.076   5.790   2.874
20504W        W88834  44.931  31.610   3.249
20505W        W88835  36.356  44.846   3.215
20506W        W88836  43.492  13.342  11.457
20507W        W88837  23.593  12.779   1.269
20508W        W88838  44.843  44.387   4.268
20509W        W88839  16.286  23.187  11.583
20510W        W88840  17.302   2.937   0.788
20511W        W88841  33.925  43.022   3.226
20512W        W88842  41.336  20.720  13.975
20513W        W88843  29.484   1.786  10.149
20514W        W88844  38.873   0.247  11.065
20515W        W88845   4.795  21.529   4.714
20516W        W88846  32.112   9.764   2.806
20517W        W88847  15.713  15.577   2.415
20518W        W88848  19.640  10.740  11.091
20519W        W88849   9.271   7.330   3.337
20520W        W88850  42.819  11.864   1.761
20521W        W88851  38.351  17.299  13.033
20522W        W88852  22.515  18.776   4.759
20523W        W88853  16.220   6.361   4.229
20524W        W88854   2.312  24.075   2.869
20525W        W88855  30.047   9.772   4.603
20526W        W88856  16.601   7.207   4.666
20527W        W88857  43.892  11.307  13.823
20528W        W88858  28.668  10.854   2.699
20529W        W88859   0.309  34.960  14.482
20530W        W88860  27.947  17.285  14.512
20531W        W88861  34.385  35.515  12.952
20532W        W88862  31.043  33.970  14.432
20533W        W88863  18.708  33.443   2.361
20534W        W88864   5.279   5.324   2.341
20535W        W88865  28.010  15.181   3.727
20536W        W88866   0.336  28.546  13.394
20537W        W88867   0.467  26.692  12.847
20538W        W88868   4.881  38.886   5.307
20539W        W88869  20.754  13.253   4.229
20540W        W88870   7.859   3.239   0.316
20541W        W88871  43.317  39.468  10.917
20542W        W88872  29.544  25.672   1.866
20543W        W88873   0.844   8.357  13.443
20544W        W88874  12.811  17.728   0.470
20545W        W88875  40.826  31.000  14.896
20546W        W88876   3.723  22.224   0.414
20547W        W88877  40.309  44.915   1.789
20548W        W88878  22.530  23.004  13.050
20549W        W88879  25.544   0.335  12.897
20550W        W88880   7.414  34.071   2.194
20551W        W88881   0.455   4.792  14.429
20552W        W88882   2.855  41.374  11.993
20553W        W88883  14.632   9.243  10.535
20554W        W88884   1.896  25.194   2.344
20555W        W88885  13.761  13.839  11.956
20556W        W88886   8.326   7.381  11.028
20557W        W88887  31.620  23.189   3.174
20558W        W88888  36.477  32.933   4.282
20559W        W88889  36.026  17.587   2.870
20560W        W88890  21.637  15.134   2.749
20561W        W88891  10.223  23.057  13.007
20562W        W88892  43.317  38.883   0.325
20563W        W88893  18.082  40.002  11.591
20564W        W88894  28.524  20.162   2.390
20565W        W88895  22.159  10.755   2.309
20566W        W88896  24.538  15.265   4.245
20567W        W88897  16.294  16.801  12.906
20568W        W88898  24.097   9.179   1.226
20569W        W88899  12.682  38.869   3.675
20570W        W88900   3.299   6.405  11.061
20571W        W88901  31.054  15.689  12.861
20572W        W88902  36.447   1.362   0.418
20573W        W88903  32.953  12.137   2.771
20574W        W88904  20.694  44.991   4.353
20575W        W88905  28.639  15.124  13.046
20576W        W88906  26.599  29.489  14.965
20577W        W88907  23.080  13.803   4.653
20578W        W88908  41.041   4.737   4.243
20579W        W88909  44.428  17.797  12.578
20580W        W88910  35.033  35.890  10.633
20581W        W88911  41.043   3.853   3.755
20582W        W88912   7.723   8.182  12.394
20583W        W88913   6.187  25.984   2.827
20584W        W88914   8.309   7.902   1.757
20585W        W88915  12.203   2.439   1.826
20586W        W88916  22.060  37.854   3.814
20587W        W88917  26.614  32.459   2.259
20588W        W88918  36.470  17.162  11.487
20589W        W88919  37.552  39.324   0.317
20590W        W88920   3.414  44.420  13.909
20591W        W88921  14.815   3.941   2.267
20592W        W88922  20.124  16.589   9.628
20593W        W88923  42.859   9.660   4.190
20594W        W88924   3.798  35.505   1.421
20595W        W88925  34.905  16.218  10.971
20596W        W88926  11.699  30.469   3.292
20597W        W88927  43.954  19.569   4.323
20598W        W88928  32.593  36.083  11.992
20599W        W88929  43.867  25.070   3.214
20600W        W88930  36.954  37.445   2.879
20601W        W88931  27.059  25.104   2.814
20602W        W88932  20.682  25.606   0.757
20603W        W88933  28.492  11.698   9.964
20604W        W88934  44.453  27.554  12.555
20605W        W88935  20.706   5.771   4.770
20606W        W88936  14.308  20.157   4.627
20607W        W88937  41.509  28.024   1.910
20608W        W88938  39.857  17.179   1.717
20609W        W88939  29.621  21.064   3.650
20610W        W88940  24.220  14.271  12.946
20611W        W88941   5.723   7.829   2.360
20612W        W88942  41.390  10.829  10.973
20613W        W88943   1.365  17.758   1.397
20614W        W88944  42.311   8.317   2.885
20615W        W88945  15.766  32.119   0.883
20616W        W88946  23.043   7.312   3.663
20617W        W88947  15.702  39.315   2.826
20618W        W88948  30.643  12.322  12.354
20619W        W88949  28.991   6.283  10.889
20620W        W88950  36.481  38.360   2.804
20621W        W88951   1.974  43.330   0.338
20622W        W88952   4.772   9.645  13.334
20623W        W88953  39.499   7.396   4.172
20624W        W88954  15.086  19.760   4.340
20625W        W88955  41.512  26.118  11.882
20626W        W88956  38.007   1.949  12.892
20627W        W88957  14.173  38.425   4.338
20628W        W88958   3.738  15.581   1.709
20629W        W88959  28.441  27.965   0.834
20630W        W88960  40.469  14.203  10.156
20631W        W88961   0.448  18.297   2.849
20632W        W88962   9.833  19.102   4.346
20633W        W88963  35.595  39.358   1.439
20634W        W88964  27.648  22.246   1.429
20635W        W88965  23.657   4.799  14.842
20636W        W88966  22.530  29.089   0.253
20637W        W88967  16.608   2.304   1.847
20638W        W88968  18.712  36.903   2.199
20639W        W88969  38.978  12.736  11.461
20640W        W88970  43.889  23.503   0.365
20641W        W88971  35.413  16.239   0.762
20642W        W88972  21.600  41.489   0.741
20643W        W88973   8.270   0.928   1.827
20644W        W88974   5.205  30.916   0.438
20645W        W88975  29.594   4.205  11.557
20646W        W88976  25.983  22.246  13.804
20647W        W88977  18.083  16.244  13.994
20648W        W88978   4.399  11.735   1.743
20649W        W88979   1.434  33.473  14.785
20650W        W88980  29.474  42.934   0.389
20651W        W88981  33.908  24.616  14.382
20652W        W88982  10.323   4.881  13.542
20653W        W88983  34.479  21.644   4.611
20654W        W88984  32.448   0.985  14.450
20655W        W88985  24.683  21.035   1.697
20656W        W88986   6.729   1.395   2.732
20657W        W88987  36.070  18.220   3.331
20658W        W88988  44.899  12.712  11.902
20659W        W88989  37.023  17.138  13.411
20660W        W88990  23.664   1.785   4.600
20661W        W88991   3.899  33.904  12.026
20662W        W88992  17.789  34.079  12.987
20663W        W88993  16.182  16.613  11.920
20664W        W88994  27.163  15.163  14.301
20665W        W88995   9.663  11.820   2.880
20666W        W88996  42.976  37.991  12.881
20667W        W88997  34.499  11.649   0.306
20668W        W88998   1.866   1.957   3.338
20669W        W88999  41.985  13.749  12.454
20670W        W89000  42.974  29.625  12.023
20671W        W89001  23.650  34.482  14.973
20672W        W89002  38.954   5.867  14.279
20673W        W89003  25.195  14.179  13.889
20674W        W89004  44.772  39.949   2.275
20675W        W89005  20.102   4.827  13.524
20676W        W89006  28.459   9.384   2.862
20677W        W89007   8.842  44.372  11.886
20678W        W89008  12.759  11.773  10.519
20679W        W89009  41.974  18.195  11.013
20680W        W89010  21.212  20.568   1.282
20681W        W89011  17.704  40.848  11.593
20682W        W89012  37.575  39.354  12.420
20683W        W89013   7.841  12.707   9.933
20684W        W89014  31.049  43.914   3.313
20685W        W89015  28.625   9.679   3.257
20686W        W89016  26.052   7.709  13.495
20687W        W89017  25.965   5.373   4.835
20688W        W89018  22.252  26.040  10.638
20689W        W89019  29.614  16.813  13.916
20690W        W89020  35.890  39.488  10.423
20691W        W89021  28.139  40.516  11.086
20692W        W89022  33.023  15.329   3.643
20693W        W89023  32.613  11.194  11.096
20694W        W89024  33.619   8.259   0.256
20695W        W89025   6.828  10.317  14.425
20696W        W89026  35.963  27.967  14.792
20697W        W89027  24.101  11.715   0.438
20698W        W89028  41.902  37.956   1.867
20699W        W89029  34.385  22.539  14.931
20700W        W89030  13.233  30.576  12.957
20701W        W89031  33.426  35.493  11.563
20702W        W89032  17.772  17.114   4.833
20703W        W89033   1.284  37.890   4.625
20704W        W89034  14.639  39.529  14.954
20705W        W89035  35.055  23.139  12.428
20706W        W89036  37.566  24.525  14.346
20707W        W89037  12.213  37.937  10.906
20708W        W89038  44.006  39.408   4.677
20709W        W89039  33.018  14.099  11.023
20710W        W89040  20.228  36.578   2.359
20711W        W89041  27.186  22.099   0.317
20712W        W89042  37.480  36.924   1.241
20713W        W89043  39.852  15.192  13.459
20714W        W89044  24.710  36.897   2.388
20715W        W89045   5.208   6.243   3.816
20716W        W89046  14.273   5.817   1.779
20717W        W89047  20.727  33.545   1.448
20718W        W89048  21.568  13.278   3.220
20719W        W89049  32.988  40.496   4.722
20720W        W89050  12.116  23.079  14.989
20721W        W89051  33.131   8.168  11.938
20722W        W89052  36.396  32.457  14.988
20723W        W89053  17.560   1.869  11.385
20724W        W89054  36.848  44.866   1.814
20725W        W89055  31.947  17.681  13.532
20726W        W89056  40.517  28.151   1.279
20727W        W89057  25.140   7.235   4.776
20728W        W89058  16.685  15.113  11.035
20729W        W89059  40.934  11.152   1.757
20730W        W89060  28.141  22.100  11.386
20731W        W89061  26.165  42.494  14.024
20732W        W89062  11.845  31.410  13.318
20733W        W89063  24.997   1.243   1.911
20734W        W89064  15.622   4.782   2.232
20735W        W89065   3.364  24.223  12.453
20736W        W89066   5.861  17.137  11.987
20737W        W89067  14.163  12.246  12.883
20738W        W89068  26.536  35.860  14.787
20739W        W89069  44.757  10.638   2.811
20740W        W89070   2.929  14.129  12.854
20741W        W89071  27.484  38.971   1.434
20742W        W89072  20.746  20.562   1.872
20743W        W89073  24.149  23.602   1.432
20744W        W89074  42.300  40.358   1.400
20745W        W89075   2.881  13.212  13.355
20746W        W89076   4.428  42.430  11.484
20747W        W89077  13.217  25.009  10.575
20748W        W89078   9.200  24.153  12.355
20749W        W89079   7.776  19.596  13.533
20750W        W89080   0.920  18.261  12.546
20751W        W89081   1.252   1.750  14.826
20752W        W89082  42.444  15.798   3.767
20753W        W89083   5.705  15.811  13.447
20754W        W89084  33.607  12.181  13.873
20755W        W89085   9.336  36.951  14.467
20756W        W89086  26.504  18.116  12.519
20757W        W89087  34.387  20.573   2.210
20758W        W89088  12.621  35.051  10.963
20759W        W89089  41.449  13.198  14.929
20760W        W89090  44.449  19.644  10.451
20761W        W89091  39.839  39.480  12.085
20762W        W89092  35.040  39.847  14.346
20763W        W89093  24.597   4.277  14.292
20764W        W89094  36.362   0.420  14.391
20765W        W89095  13.775  15.663  12.893
20766W        W89096  34.388  20.180  13.794
20767W        W89097   4.872   1.959  10.071
20768W        W89098  11.834  35.984   0.244
20769W        W89099  30.415   1.906  11.610
20770W        W89100  34.549  25.041   1.284
20771W        W89101   1.391  44.954   3.845
20772W        W89102  44.392  39.008   4.176
20773W        W89103  17.560  30.041  13.955
20774W        W89104   1.278  39.442  14.990
20775W        W89105  30.022   4.340  11.602
20776W        W89106   7.294  26.981  14.395
20777W        W89107  33.979  23.049  13.020
20778W        W89108   8.380  40.914  12.830
20779W        W89109  33.954   3.873   3.377
20780W        W89110  24.218  22.703  11.088
20781W        W89111  19.131  29.937   4.167
20782W        W89112   1.364  18.695  13.030
20783W        W89113  40.008  42.895  13.322
20784W        W89114   6.279  29.058  14.967
20785W        W89115  14.825  16.155   4.219
20786W        W89116  29.065  19.184   2.323
20787W        W89117   9.157  27.577  10.428
20788W        W89118  26.183  19.740  12.350
20789W        W89119   9.724   7.717  14.931
20790W        W89120  13.257  30.511   0.852
20791W        W89121   6.812   6.862  13.317
20792W        W89122  41.322  21.609  11.476
20793W        W89123  21.522  27.961   4.778
20794W        W89124  32.065  42.010  12.986
20795W        W89125  17.150  40.480   0.818
20796W        W89126  28.950   3.418   0.359
20797W        W89127  14.175  15.137   1.731
20798W        W89128  14.746  23.619   2.376
20799W        W89129  33.422   2.929   1.881
20800W        W89130  36.963  39.497   4.609
20801W        W89131  10.732  18.190   2.722
20802W        W89132  15.748  44.299   1.720
20803W        W89133  14.294  27.948   5.255
20804W        W89134  36.024   4.838   0.408
20805W        W89135  33.945  19.597  10.941
20806W        W89136  21.134  20.207   2.877
20807W        W89137   7.238  18.067  10.966
20808W        W89138  21.089  41.819   2.881
20809W        W89139  26.521  21.758   4.161
20810W        W89140  21.192  22.602  12.048
20811W        W89141  16.096  42.383   4.607
20812W        W89142   9.168  19.567  14.982
20813W        W89143   5.204  13.752   0.322
20814W        W89144  29.978  22.662  11.496
20815W        W89145  27.690  10.202   0.728
20816W        W89146  30.582   2.467  13.928
20817W        W89147  28.030   5.776   1.718
20818W        W89148  22.731  33.528  10.043
20819W        W89149   5.295  20.575  14.473
20820W        W89150  38.485  10.799  13.047
20821W        W89151   4.393  31.499  10.986
20822W        W89152  13.279  13.738   3.860
20823W        W89153  44.979   6.861   4.741
20824W        W89154  35.997  44.771  13.958
20825W        W89155  19.227  27.027  13.032
20826W        W89156  39.818  32.423   2.205
20827W        W89157  25.547  26.492  12.929
20828W        W89158  43.897  12.326   4.742
20829W        W89159  40.045   0.471  13.483
20830W        W89160  27.649   8.276   3.369
20831W        W89161  12.849  37.356  12.516
20832W        W89162  39.905  38.033  11.931
20833W        W89163  44.829  35.567   3.752
20834W        W89164  25.658  35.954  13.991
20835W        W89165  29.994  42.871   3.320
20836W        W89166   1.399  24.095  12.846
20837W        W89167   5.758  44.898   1.410
20838W        W89168  23.174  16.629   4.284
20839W        W89169  18.750  22.086   5.286
20840W        W89170  11.818  35.487   2.748
20841W        W89171  21.539  26.078  12.518
20842W        W89172  39.315  28.595   1.412
20843W        W89173  30.012   2.255  11.403
20844W        W89174  31.013  14.801  13.898
20845W        W89175  40.042  18.552  14.493
20846W        W89176  41.419  28.502  10.986
20847W        W89177  34.051  35.912   2.689
20848W        W89178   2.958  28.490   3.813
20849W        W89179  36.564  11.677   2.682
20850W        W89180  16.183  42.289   3.356
20851W        W89181  13.738  20.629   0.277
20852W        W89182   8.379   1.839   4.234
20853W        W89183  14.109  22.728  14.480
20854W        W89184  37.360  16.721  11.905
20855W        W89185  29.060  16.143  11.503
20856W        W89186  13.831  29.647   0.390
20857W        W89187  29.580  25.204  12.511
20858W        W89188   8.162  13.217   2.812
20859W        W89189  14.097   9.688  10.588
20860W        W89190  17.223  25.664  12.965
20861W        W89191  21.251  42.402  13.936
20862W        W89192  11.734  37.895   0.256
20863W        W89193   9.734  39.959  14.509
20864W        W89194  27.624   1.900  11.860
20865W        W89195  21.060  20.557   4.749
20866W        W89196   8.199  19.274  11.443
20867W        W89197  10.777  38.396  13.978
20868W        W89198  29.984  21.539  14.487
20869W        W89199  40.429   5.842   9.952
20870W        W89200  22.050  35.517   0.827
20871W        W89201  33.409   9.168  11.927
20872W        W89202   3.834  40.825  12.066
20873W        W89203  21.182  27.120   2.377
20874W        W89204  14.143   1.243   2.364
20875W        W89205  37.942  35.924   1.897
20876W        W89206   1.284  42.788   4.693
20877W        W89207   6.910  14.635   2.871
20878W        W89208  25.675  43.847  14.778
20879W        W89209  10.359  16.119  10.556
20880W        W89210  34.901  27.941  11.111
20881W        W89211  44.492  38.401  10.466
20882W        W89212  19.661  39.360   1.761
20883W        W89213  12.788  34.882   2.851
20884W        W89214  38.967  34.390  14.025
20885W        W89215  42.932  10.299  10.628
20886W        W89216  39.393  20.062   2.673
20887W        W89217   4.876  27.576   0.325
20888W        W89218  23.533  36.095   3.197
20889W        W89219   6.241   6.195   0.889
20890W        W89220  40.855  30.924   0.834
20891W        W89221   5.698  22.028  14.330
20892W        W89222  37.431  16.771  10.559
20893W        W89223  14.809  26.487   0.772
20894W        W89224   0.935  36.849   2.408
20895W        W89225  42.957  29.639  11.587
20896W        W89226  40.421  29.002  14.473
20897W        W89227  40.530  34.577   4.691
20898W        W89228  30.581  29.431  13.452
20899W        W89229   5.720  27.145   1.764
20900W        W89230  42.998  16.734  13.816
20901W        W89231  18.754  15.304   4.748
20902W        W89232  29.939  27.974   2.675
20903W        W89233  24.710  10.870   4.673
20904W        W89234  12.772  26.694  13.042
20905W        W89235   0.778   6.196  10.100
20906W        W89236  33.524  17.191  13.947
20907W        W89237  22.600   7.393  11.863
20908W        W89238  15.777  32.897  11.582
20909W        W89239  29.031  39.909  13.376
20910W        W89240  10.805  23.124  13.402
20911W        W89241  32.420  29.590   0.421
20912W        W89242  15.159  32.948   3.749
20913W        W89243  20.530  32.527   4.822
20914W        W89244  38.906  36.002  14.307
20915W        W89245  34.607  30.976  11.379
20916W        W89246  30.565  32.410  12.560
20917W        W89247  19.756  32.005   3.750
20918W        W89248  20.652  35.887   4.160
20919W        W89249  39.003  28.485   0.266
20920W        W89250  30.594   2.780   2.759
20921W        W89251  35.063  40.435   4.212
20922W        W89252  24.059  22.656   2.752
20923W        W89253  16.767   8.751  14.988
20924W        W89254  16.601  41.987   4.609
20925W        W89255  14.340   0.916  14.500
20926W        W89256   7.674  29.526  14.848
20927W        W89257  44.505  35.028   4.302
20928W        W89258  27.097  25.212   2.418
20929W        W89259  35.906  37.497   2.766
20930W        W89260  24.616  23.492   2.857
20931W        W89261  17.556  29.933  13.023
20932W        W89262  15.646  39.819   2.248
20933W        W89263  41.971  13.822  10.930
20934W        W89264  10.732   9.885   3.723
20935W        W89265   1.746  43.325   3.258
20936W        W89266   3.268  10.865  12.409
20937W        W89267   9.719  29.533  10.555
20938W        W89268  13.314   8.852  14.280
20939W        W89269  20.667  23.200  13.911
20940W        W89270   8.179   4.380   3.357
20941W        W89271  24.596  33.574   3.276
20942W        W89272  35.404  41.921  12.849
20943W        W89273  10.817  40.500  14.890
20944W        W89274   5.727  33.905   1.357
20945W        W89275   4.913  34.078   0.341
20946W        W89276  17.142  11.200  10.482
20947W        W89277  18.718  44.354  13.368
20948W        W89278  17.672  32.424  12.018
20949W        W89279   1.777  36.431   1.803
20950W        W89280  24.140  14.236   4.117
20951W        W89281  22.088  29.452  11.924
20952W        W89282  34.569  15.621   4.821
20953W        W89283  33.429  41.524  12.482
20954W        W89284  38.481  33.108   4.128
20955W        W89285   6.837  23.221   1.707
20956W        W89286  38.486   8.820  13.461
20957W        W89287  34.051   6.325   1.259
20958W        W89288  41.501  27.066   0.761
20959W        W89289   1.426   0.864  13.358
20960W        W89290  31.974  34.076   0.828
20961W        W89291  26.648  44.425   2.781
20962W        W89292  34.500  15.205  13.822
20963W        W89293   5.931  41.339  14.759
20964W        W89294  27.973  10.706   0.329
20965W        W89295  20.718   8.784   1.921
20966W        W89296  37.371  42.399   4.794
20967W        W89297  27.977  27.982  10.105
20968W        W89298  25.518  22.131  14.352
20969W        W89299  34.996  44.315  10.103
20970W        W89300   1.238   4.911   3.806
20971W        W89301  10.856   7.737   2.334
20972W        W89302   2.355   6.701  14.297
20973W        W89303   7.326   1.852  13.330
20974W        W89304  25.197  34.078   1.259
20975W        W89305  38.346   5.849   1.285
20976W        W89306  32.596  16.594  14.896
20977W        W89307  20.621   8.252   3.219
20978W        W89308  43.430   9.813  14.949
20979W        W89309  32.476  42.369   1.894
20980W        W89310   7.412  22.595  14.350
20981W        W89311  11.355   6.262   4.636
20982W        W89312  22.591  23.180   1.799
20983W        W89313  17.109  38.492   1.877
20984W        W89314  36.448  16.739   3.825
20985W        W89315   5.778  43.313  11.045
20986W        W89316  13.816  26.505   0.956
20987W        W89317  14.763  29.485  12.532
20988W        W89318  25.110  18.133  13.799
20989W        W89319  42.970   8.314   2.704
20990W        W89320  19.081  35.446   1.843
20991W        W89321   3.851   3.718  14.380
20992W        W89322  15.728  28.679  13.522
20993W        W89323   4.227  37.506   3.867
20994W        W89324  22.553  19.684  14.395
20995W        W89325   2.301   8.361   3.225
20996W        W89326  43.479  20.213   3.807
20997W        W89327  28.456  21.542   2.280
20998W        W89328  33.946  30.582   2.368
20999W        W89329  28.975  22.036  12.410
21000W        W89330  15.158  11.810   3.336
21001W        W89331  25.480  33.962   2.325
21002W        W89332  42.910   8.406   3.311
21003W        W89333   9.716  27.986   3.270
21004W        W89334  25.685  19.696   3.715
21005W        W89335  22.186  11.340  11.007
21006W        W89336   2.413   3.896   2.210
21007W        W89337  43.892  16.774  10.944
21008W        W89338  27.955  19.227  14.494
21009W        W89339  38.452   1.855  11.492
21010W        W89340  34.918  30.121  14.950
21011W        W89341  37.888  31.036  11.532
21012W        W89342   7.831  42.001   2.781
21013W        W89343  37.993  24.487  10.915
21014W        W89344  44.505  13.783   3.286
21015W        W89345  18.197  11.351   3.643
21016W        W89346  43.284  20.615  14.363
21017W        W89347  33.046  23.599   3.718
21018W        W89348  30.452  14.313  14.324
21019W        W89349  41.358  31.627  12.883
21020W        W89350  11.298  32.427  11.129
21021W        W89351  27.133  12.120   3.798
21022W        W89352   6.388  10.872   2.859
21023W        W89353  21.557   3.413   5.197
21024W        W89354   5.270  10.859  13.935
21025W        W89355  21.581  40.860   2.722
21026W        W89356  20.704  21.113   2.825
21027W        W89357  11.156   6.428  13.378
21028W        W89358  15.703   9.706   0.438
21029W        W89359  32.483  37.939   4.194
21030W        W89360  42.895  30.604  13.840
21031W        W89361  31.941  22.742   3.386
21032W        W89362  33.411   0.342   2.360
21033W        W89363  25.071  41.944  12.540
21034W        W89364   8.381   5.325  13.443
21035W        W89365  24.052  27.639   3.659
21036W        W89366  16.078  26.114  12.416
21037W        W89367   3.786  12.645  10.453
21038W        W89368   2.884  32.886  13.001
21039W        W89369  26.018  30.655   3.766
21040W        W89370  35.076   1.819   5.210
21041W        W89371  30.951  36.511   0.801
21042W        W89372  39.387  10.198   3.225
21043W        W89373  18.070   8.660  12.344
21044W        W89374  32.625  29.166  12.397
21045W        W89375  28.931  41.938   1.412
21046W        W89376  22.178  27.994   5.116
21047W        W89377  24.122  26.959  11.515
21048W        W89378  12.326  25.010   3.321
21049W        W89379  42.832   7.883  14.453
21050W        W89380  36.067  10.328  12.346
21051W        W89381  34.901  33.610  13.037
21052W        W89382  20.587   7.187  14.763
21053W        W89383  25.168  13.328  10.602
21054W        W89384  33.545  31.463  13.377
21055W        W89385  14.834   7.323  10.418
21056W        W89386  44.461  33.895  13.918
21057W        W89387  25.184  34.421   1.810
21058W        W89388  11.803  34.544   9.928
21059W        W89389   4.237  36.545  12.986
21060W        W89390   6.264  30.450  11.052
21061W        W89391  22.129  41.951  11.869
21062W        W89392   9.196  19.103  10.999
21063W        W89393  39.810  30.508   0.401
21064W        W89394  14.241  26.580  10.538
21065W        W89395  27.159  31.539   9.517
21066W        W89396   2.264   8.700   1.320
21067W        W89397  29.976  10.736  14.330
21068W        W89398  15.317  25.067   3.766
21069W        W89399  27.534  22.159   3.216
21070W        W89400  36.381  14.655  12.424
21071W        W89401  35.541  43.940   3.279
21072W        W89402  32.567   6.879  10.517
21073W        W89403  31.460  41.514   3.302
21074W        W89404  17.695   8.784  11.892
21075W        W89405  18.570  22.621  11.951
21076W        W89406   2.948  41.956   1.772
21077W        W89407   2.383   4.747  10.128
21078W        W89408  13.846  37.913   0.755
21079W        W89409   8.741  23.069   0.451
21080W        W89410  24.687   2.748   4.703
21081W        W89411  33.625  15.117  11.030
21082W        W89412  32.442  41.970  11.507
21083W        W89413  12.143  18.552   0.790
21084W        W89414  14.634  41.967  11.563
21085W        W89415  35.899   2.253  12.836
21086W        W89416  39.907  26.103  14.934
21087W        W89417  12.159   7.788   4.165
21088W        W89418  32.067  15.614  14.788
21089W        W89419  21.219  26.477   1.239
21090W        W89420   1.363   1.849   0.445
21091W        W89421  41.931   2.253   1.748
21092W        W89422  15.632  13.136   1.411
21093W        W89423  11.229  19.171   3.677
21094W        W89424   7.409   1.402   4.816
21095W        W89425  21.194  14.267  11.378
21096W        W89426   9.232  20.560  14.425
21097W        W89427  35.466   3.381  13.911
21098W        W89428  39.921  11.238   0.906
21099W        W89429   5.302  35.503  12.969
21100W        W89430   1.379  20.083   2.342
21101W        W89431  36.567  17.645   3.768
21102W        W89432  27.593  22.591   2.809
21103W        W89433  24.492   6.754  12.077
21104W        W89434  25.153  27.589   0.727
21105W        W89435  10.796  32.940  13.995
21106W        W89436  42.385  26.175   2.714
21107W        W89437   8.398  26.476   2.401
21108W        W89438  21.635   3.406  14.511
21109W        W89439  27.085  24.053   4.195
21110W        W89440  32.915  22.231   5.251
21111W        W89441  33.057  16.638   2.847
21112W        W89442  25.080  33.420   5.144
21113W        W89443  14.755  33.591  11.446
21114W        W89444   9.308  39.338   4.600
21115W        W89445  13.798  10.306  11.972
21116W        W89446  12.795   3.461  13.450
21117W        W89447  17.619  25.131   1.825
21118W        W89448  44.978  36.037   0.251
21119W        W89449  27.095  12.181  12.574
21120W        W89450  38.848  39.901  10.039
21121W        W89451  20.663  22.069   2.203
21122W        W89452  18.680  23.159   3.258
21123W        W89453   2.805  15.092  12.500
21124W        W89454  40.476  42.396  10.974
21125W        W89455  18.582   7.772   0.753
21126W        W89456  16.218  26.509  12.353
21127W        W89457  34.993   7.200  11.962
21128W        W89458  22.502  38.389   2.185
21129W        W89459  40.979  36.996   3.685
21130W        W89460  19.080  37.841  12.956
21131W        W89461  26.475  36.002  13.795
21132W        W89462  19.056  17.695  11.982
21133W        W89463  29.456  16.586   3.827
21134W        W89464  11.810  41.316  12.483
21135W        W89465  31.407  28.438  10.527
21136W        W89466  20.037  28.612  12.072
21137W        W89467  14.257  28.078  11.926
21138W        W89468  11.150  12.133   1.710
21139W        W89469  12.152  40.894   4.231
21140W        W89470   5.694  24.989   1.432
21141W        W89471  13.230  22.173   0.884
21142W        W89472  16.620  33.958  13.060
21143W        W89473  14.806  44.396  13.046
21144W        W89474  28.539  39.386  11.044
21145W        W89475  26.475  34.948   5.224
21146W        W89476  27.572   0.784   1.350
21147W        W89477  26.521  44.388   1.268
21148W        W89478   4.440  41.887  14.359
21149W        W89479   6.405   5.738   4.290
21150W        W89480   0.755  36.931  13.010
21151W        W89481  27.480  39.065  13.529
21152W        W89482   7.341  10.340   4.749
21153W        W89483  16.623  20.557  12.384
21154W        W89484  39.396  41.802  13.416
21155W        W89485  39.890  23.098  13.384
21156W        W89486  38.346   7.714   1.406
21157W        W89487  36.461  37.462   3.369
21158W        W89488   9.346  18.733  12.906
21159W        W89489  38.475  33.922   1.782
21160W        W89490  39.020   8.332   0.279
21161W        W89491  24.688  30.634  13.858
21162W        W89492  23.082   3.228  14.985
21163W        W89493  21.220  28.678   3.332
21164W        W89494  22.212  17.784  14.418
21165W        W89495   0.470  26.581   5.146
21166W        W89496   3.935  30.988   2.271
21167W        W89497   6.724  31.409   4.132
21168W        W89498  37.534   2.382   1.927
21169W        W89499  11.241   6.879   3.822
21170W        W89500   6.200  43.833  10.929
21171W        W89501  35.000  41.396   0.346
21172W        W89502  12.332  25.525   0.316
21173W        W89503  13.718  33.890   4.257
21174W        W89504  20.526  33.083  12.896
21175W        W89505   8.329   2.919   1.799
21176W        W89506  42.467  40.531  14.396
21177W        W89507  16.304  29.447  14.985
21178W        W89508   2.303  12.201  12.975
21179W        W89509  17.720  28.525  12.480
21180W        W89510  41.469  37.023   4.795
21181W        W89511   2.287   7.735  10.475
21182W        W89512  27.639  24.608   4.258
21183W        W89513  18.666  38.462   3.867
21184W        W89514   2.402  22.664  13.338
21185W        W89515  27.958  22.571  13.348
21186W        W89516   6.406  31.109  13.322
21187W        W89517  15.784  21.647  11.575
21188W        W89518  33.116   0.832   0.844
21189W        W89519  12.672  40.380  11.924
21190W        W89520   9.794  17.155  10.971
21191W        W89521  12.856  12.843  13.518
21192W        W89522  14.737  42.394   1.872
21193W        W89523  41.467  26.674  10.926
21194W        W89524  17.757  20.139  14.441
21195W        W89525  34.577  34.030   1.212
21196W        W89526   2.730   1.356  13.447
21197W        W89527  19.559   7.189   3.839
21198W        W89528  30.065  24.156   2.768
21199W        W89529  29.091  37.575   4.814
21200W        W89530  37.498   4.943  10.969
21201W        W89531  43.328  13.654   0.817
21202W        W89532  33.092   1.358   3.157
21203W        W89533  28.099  44.828  10.922
21204W        W89534  26.109   4.902  11.965
21205W        W89535  32.889   4.278  13.915
21206W        W89536  20.577  14.805  10.944
21207W        W89537  19.103   7.364   1.380
21208W        W89538  17.605  29.041  10.610
21209W        W89539   3.337   9.871   4.690
21210W        W89540  32.094  18.075   0.374
21211W        W89541  31.113   1.781  12.377
21212W        W89542  44.383  42.867  14.982
21213W        W89543  24.698  29.038   0.938
21214W        W89544   6.209  21.154   0.798
21215W        W89545  20.260   2.332  10.482
21216W        W89546  13.171   4.743   2.684
21217W        W89547  38.065   2.947   3.218
21218W        W89548  13.768  23.043  12.927
21219W        W89549  23.160   3.725   2.347
21220W        W89550  39.029  10.803  13.487
21221W        W89551  21.584  18.556   2.828
21222W        W89552  17.743   8.312  11.041
21223W        W89553  17.149   9.674  12.971
21224W        W89554  43.882  41.919   1.217
21225W        W89555  23.229  42.513  11.048
21226W        W89556  32.934  18.730   1.753
21227W        W89557  38.001  13.738   4.142
21228W        W89558  44.473  21.245  13.459
21229W        W89559  19.574  32.522   0.868
21230W        W89560  31.514  28.015  10.979
21231W        W89561  39.065   6.394   4.642
21232W        W89562  42.405  22.514   1.246
21233W        W89563  27.972  17.178  13.369
21234W        W89564   7.310  42.285  14.406
21235W        W89565  43.441  19.689   0.445
21236W        W89566  29.499  33.434  14.820
21237W        W89567  14.764  11.637  14.926
21238W        W89568  11.643  17.241   2.787
21239W        W89569  34.118   2.302   3.221
21240W        W89570  19.182  34.080   3.684
21241W        W89571  20.627  38.822  11.416
21242W        W89572  17.623  17.795   1.348
21243W        W89573  40.528   6.887  10.475
21244W        W89574  19.061  11.174   4.263
21245W        W89575   5.402  37.065  14.962
21246W        W89576  21.603   2.793  11.045
21247W        W89577   2.795  14.122  13.950
21248W        W89578   5.906  22.526  12.377
21249W        W89579  18.617  35.031   3.292
21250W        W89580  29.641  33.044  13.932
21251W        W89581  23.126  17.731  14.974
21252W        W89582  24.660  30.130  13.495
21253W        W89583  18.715  30.028  12.950
21254W        W89584  29.936  38.363   1.728
21255W        W89585  13.112  40.930  12.850
21256W        W89586  10.378  22.705  10.002
21257W        W89587  20.173   5.403   4.648
21258W        W89588  28.048  13.162  11.972
21259W        W89589   5.381  21.735   2.728
21260W        W89590   4.310  28.019   2.273
21261W        W89591  21.539  39.899  10.632
21262W        W89592  44.359  33.557  12.922
21263W        W89593  36.982  29.654   4.732
21264W        W89594   8.371   7.342  13.020
21265W        W89595  19.122  30.589  14.281
21266W        W89596  24.006  30.909  14.975
21267W        W89597  27.553  29.078   1.803
21268W        W89598  28.560  20.115   4.742
21269W        W89599  37.081  18.073  10.942
21270W        W89600  20.756  15.730  13.412
21271W        W89601   1.289   1.948  12.443
21272W        W89602  42.455  11.707  11.071
21273W        W89603  31.582  33.014   1.296
21274W        W89604  38.822  25.198  10.087
21275W        W89605  21.714  44.004  13.474
21276W        W89606   0.825  35.514   3.219
21277W        W89607  29.473  36.982   4.761
21278W        W89608  24.528   6.750  13.971
21279W        W89609  13.707  12.239   0.919
21280W        W89610  33.002  15.757   0.799
21281W        W89611   8.162  43.770  10.900
21282W        W89612   8.829  42.973   3.771
21283W        W89613   4.735   9.221   4.671
21284W        W89614   0.969  11.818  11.457
21285W        W89615   8.251  35.059   4.672
21286W        W89616  42.850  24.715  13.892
21287W        W89617  36.878   9.353  10.478
21288W        W89618  33.482  19.690  11.051
21289W        W89619  10.639  43.898   4.213
21290W        W89620  19.634  35.071  11.389
21291W        W89621  25.964  21.062   2.215
21292W        W89622  18.672  44.990   3.832
21293W        W89623  38.023  29.120   0.373
21294W        W89624  19.223  37.368  13.060
21295W        W89625  42.830  11.692   2.732
21296W        W89626  43.957  19.258  13.869
21297W        W89627  11.699  31.566   4.320
21298W        W89628  20.131  38.922   2.252
21299W        W89629  12.152   6.859  10.568
21300W        W89630  21.254   3.383  11.107
21301W        W89631   9.746  27.476  10.969
21302W        W89632  31.080  39.503   1.868
21303W        W89633  11.273  39.046   1.784
21304W        W89634  22.133  35.487  12.378
21305W        W89635   1.468   8.817  10.992
21306W        W89636  37.071  12.225  11.391
21307W        W89637   8.724  11.720  13.311
21308W        W89638   6.421  23.499   4.624
21309W        W89639   0.848  20.262   1.348
21310W        W89640   6.190  23.130   2.889
21311W        W89641   5.337  20.147   1.830
21312W        W89642  27.038   9.183  13.839
21313W        W89643  23.995  19.284  14.507
21314W        W89644   1.897   8.279   2.696
21315W        W89645  44.349   7.291   0.870
21316W        W89646  28.623  22.643  14.504
21317W        W89647  27.538  25.572   3.665
21318W        W89648  21.214  18.297   2.733
21319W        W89649  10.698  39.368  12.439
21320W        W89650  43.959  43.432  12.397
21321W        W89651   8.275  19.765  13.328
21322W        W89652  25.477   4.755  13.329
21323W        W89653  10.871  39.967   3.189
21324W        W89654  31.569  35.384  13.522
21325W        W89655   5.196  24.065   2.788
21326W        W89656  43.346  28.140   4.696
21327W        W89657  13.159  43.292   1.889
21328W        W89658   7.201  28.040  11.958
21329W        W89659  43.822  27.607   4.118
21330W        W89660  23.107  42.525   2.246
21331W        W89661  17.098  37.855   2.782
21332W        W89662  21.682  44.909   0.306
21333W        W89663  26.549   0.746  11.517
21334W        W89664  17.679   4.270   1.341
21335W        W89665  25.074  20.258  11.935
21336W        W89666  25.100  44.001  13.464
21337W        W89667  32.424  36.394   3.657
21338W        W89668  24.140  35.986   4.174
21339W        W89669  21.091   2.801  13.052
21340W        W89670  20.694  37.495   0.327
21341W        W89671  26.484  43.002   4.345
21342W        W89672   0.775  38.399  12.987
21343W        W89673  38.503  10.203   1.930
21344W        W89674  31.902   7.307   3.208
21345W        W89675  15.686   1.360   2.867
21346W        W89676  27.983   2.732  10.445
21347W        W89677   0.849   4.397   0.869
21348W        W89678  28.089   1.267   2.899
21349W        W89679   2.423  10.289   4.620
21350W        W89680  26.107  12.358  10.895
21351W        W89681  41.330   4.371  11.037
21352W        W89682  32.909  44.805  11.055
21353W        W89683   1.254  15.678   0.354
21354W        W89684  30.144  11.291   1.818
21355W        W89685  18.550  26.525  10.405
21356W        W89686  32.602  36.587  12.524
21357W        W89687   6.202  43.806   4.290
21358W        W89688  21.120  17.611  12.977
21359W        W89689  26.173  24.523  12.412
21360W        W89690  38.918  40.864  11.452
21361W        W89691  14.245  29.969   3.182
21362W        W89692  16.080   9.863   1.886
21363W        W89693   7.409  18.249  12.461
21364W        W89694  39.849   2.228   1.897
21365W        W89695  17.720  16.112  11.989
21366W        W89696  36.059  13.183  13.888
21367W        W89697  25.476  43.461  10.560
21368W        W89698   0.335  20.139  14.023
21369W        W89699   0.270   0.486  13.936
21370W        W89700   5.263  42.984   3.779
21371W        W89701   9.776  21.548   4.253
21372W        W89702  22.620  18.091  13.405
21373W        W89703  23.519   4.416  13.026
21374W        W89704  30.500  29.978  10.451
21375W        W89705   5.742  26.510   1.718
21376W        W89706  34.006  10.149   1.264
21377W        W89707  19.685  19.270   5.747
21378W        W89708   4.295  39.502   4.829
21379W        W89709  39.825  26.129   0.917
21380W        W89710  36.986  36.014  12.348
21381W        W89711  30.447   3.450  10.981
21382W        W89712   8.874  31.628   4.189
21383W        W89713   5.779   0.309   1.816
21384W        W89714  44.908  25.047  12.849
21385W        W89715  31.405  32.140   3.244
21386W        W89716   1.746  23.574  10.916
21387W        W89717  18.736  31.498  12.874
21388W        W89718  31.549  29.584  12.015
21389W        W89719  28.578  12.687   5.122
21390W        W89720  25.605  14.713  13.370
21391W        W89721  15.087  20.592   2.793
21392W        W89722  26.489  12.726  12.530
21393W        W89723   8.194  39.904  14.399
21394W        W89724  31.104  37.036  12.048
21395W        W89725  32.067  42.872  14.402
21396W        W89726  33.415  43.389   1.353
21397W        W89727  22.031  18.669   2.276
21398W        W89728  25.156  15.206  11.938
21399W        W89729  11.764  38.879   5.111
21400W        W89730  40.949   6.312   9.467
21401W        W89731  22.248   6.304  14.363
21402W        W89732   0.425  19.051  12.992
21403W        W89733  29.439  34.952  14.832
21404W        W89734  31.933  13.180   0.417
21405W        W89735  21.718  37.522   4.218
21406W        W89736  17.106   7.402   4.160
21407W        W89737  12.826  22.515  11.042
21408W        W89738  20.629  36.412   1.299
21409W        W89739  16.646  31.953   5.318
21410W        W89740  35.024   7.201   1.382
21411W        W89741   7.331  35.084  11.914
21412W        W89742   8.405   6.255   3.694
21413W        W89743  17.592   2.458  13.922
21414W        W89744   6.785   6.737   1.313
21415W        W89745  35.902  39.001   0.941
21416W        W89746  34.974   1.825  10.431
21417W        W89747  40.055  35.493  11.888
21418W        W89748   3.814   2.942  14.992
21419W        W89749  15.193   3.779   4.614
21420W        W89750  15.690  44.499  13.496
21421W        W89751  12.817  32.590   3.348
21422W        W89752  28.483  33.510   0.366
21423W        W89753  34.421  14.167   1.389
21424W        W89754  38.826  36.863   4.602
21425W        W89755  24.222  11.723  10.496
21426W        W89756  35.451   4.920   0.943
21427W        W89757  27.545  32.012  12.360
21428W        W89758  32.055  20.077  12.080
21429W        W89759  33.488  42.501  14.503
21430W        W89760  39.454  19.564   4.599
21431W        W89761  36.939   3.793  13.836
21432W        W89762  23.161  10.722  12.447
21433W        W89763  40.326  33.000   2.902
21434W        W89764  43.417  15.582   0.857
21435W        W89765  21.701   4.411   1.932
21436W        W89766  43.332  17.669  12.377
21437W        W89767  38.358  42.896  13.030
21438W        W89768  24.988   8.679  10.641
21439W        W89769  43.513  39.352   0.305
21440W        W89770  32.002  42.012   1.217
21441W        W89771  28.953   1.927   1.882
21442W        W89772   6.345  17.778   4.759
21443W        W89773   8.746   2.725   3.654
21444W        W89774  41.024  26.952  13.490
21445W        W89775  24.557   0.280   0.790
21446W        W89776   8.809  26.568  12.484
21447W        W89777   1.865   5.785  11.036
21448W        W89778  38.529  15.138  12.879
21449W        W89779  12.650  32.430   1.874
21450W        W89780   4.285   1.294  12.359
21451W        W89781  44.272  18.568   1.409
21452W        W89782  23.579   8.833  10.599
21453W        W89783  20.690  15.747  10.562
21454W        W89784  37.500  26.458  10.503
21455W        W89785   8.736  28.516  13.487
21456W        W89786  35.009  42.832   4.264
21457W        W89787  17.285  34.451   4.818
21458W        W89788  34.442  11.334  13.518
21459W        W89789  13.234  22.533   3.676
21460W        W89790  26.687   2.437  11.996
21461W        W89791   7.359  27.662   3.812
21462W        W89792  28.568  31.419  12.458
21463W        W89793   6.749  31.917  14.334
21464W        W89794   0.378  35.905  13.537
21465W        W89795   3.945  29.941  14.994
21466W        W89796  38.486  18.779  13.347
21467W        W89797  10.855  35.033   0.832
21468W        W89798  14.257  38.030  10.914
21469W        W89799  18.779  19.706   0.814
21470W        W89800  29.986  13.781  13.929
21471W        W89801  32.516   9.686   0.369
21472W        W89802  25.636  33.416   4.323
21473W        W89803  20.603  28.107   2.195
21474W        W89804  23.629   9.656   1.363
21475W        W89805  22.681  35.369  10.039
21476W        W89806   8.881   3.853  14.506
21477W        W89807  26.075  10.306   9.589
21478W        W89808  37.419  10.778  14.393
21479W        W89809  16.578  37.458   4.828
21480W        W89810   0.369  22.735  11.464
21481W        W89811   7.815  24.497  13.869
21482W        W89812  42.423   4.818   3.832
21483W        W89813  11.314  20.727   4.343
21484W        W89814   6.306   5.696  12.512
21485W        W89815  35.021  23.550  11.585
21486W        W89816  36.977  27.109   3.241
21487W        W89817  38.042   8.757   4.290
21488W        W89818  10.364  15.620   3.372
21489W        W89819  12.788  10.260   4.342
21490W        W89820   5.782  31.900  14.885
21491W        W89821  37.934  41.818   1.304
21492W        W89822  39.058  43.801  13.540
21493W        W89823  10.671  18.595  10.938
21494W        W89824  22.107   8.175  12.874
21495W        W89825  14.674  21.110  14.969
21496W        W89826  43.343  33.570  11.041
21497W        W89827  22.604  14.617  11.440
21498W        W89828   4.768  27.160   3.327
21499W        W89829  19.182  12.751  12.988
21500W        W89830  15.091   8.812  13.025
21501W        W89831  17.080   1.386  10.619
21502W        W89832  40.907  14.646   0.847
21503W        W89833  39.544  36.005  13.455
21504W        W89834  18.729  18.750  11.925
21505W        W89835  38.381   0.950  14.766
21506W        W89836  14.609  44.759   0.808
21507W        W89837   7.845  12.835   1.324
21508W        W89838  30.092  24.720  12.484
21509W        W89839  37.421  20.622  13.989
21510W        W89840   4.907  36.074   0.473
21511W        W89841   4.897   1.276   2.835
21512W        W89842  15.652  42.869   5.236
21513W        W89843  42.967  20.081   2.817
21514W        W89844  12.206  18.126  13.535
21515W        W89845  27.055   7.828  12.007
21516W        W89846   9.773   4.418   4.175
21517W        W89847  39.824   1.266  10.564
21518W        W89848  35.941   2.747  12.367
21519W        W89849  10.265  25.179  11.964
21520W        W89850   1.812  32.914  10.417
21521W        W89851  17.083  33.886  13.487
21522W        W89852  17.569  23.199  10.127
21523W        W89853  21.056   5.321   3.863
21524W        W89854  26.069  28.649   0.799
21525W        W89855   1.270  39.552   4.614
21526W        W89856  25.494   8.389   2.346
21527W        W89857  30.007  30.035  14.932
21528W        W89858  41.411  11.646   3.231
21529W        W89859  41.852  36.550   1.723
21530W        W89860  21.017  23.068  11.945
21531W        W89861  25.036   9.718   1.403
21532W        W89862  26.151  44.976  12.045
21533W        W89863   6.407  18.584  10.609
21534W        W89864  35.059  14.310  11.035
21535W        W89865  18.226  18.688   0.470
21536W        W89866  38.074  41.334   1.743
21537W        W89867  28.984  24.151   4.260
21538W        W89868  27.482   6.829  12.075
21539W        W89869  23.634  29.972  13.546
21540W        W89870   8.399   1.817  12.855
21541W        W89871  35.374  28.134  12.484
21542W        W89872  36.939  14.278   2.368
21543W        W89873  10.192   3.912  13.877
21544W        W89874  28.022  15.650   0.742
21545W        W89875   5.334  28.142  11.400
21546W        W89876  20.699  40.356   2.210
21547W        W89877  42.308   2.859  14.343
21548W        W89878  34.119  42.808  11.113
21549W        W89879  29.029  34.041   2.686
21550W        W89880   0.444   9.244  10.920
21551W        W89881  29.434  23.073   0.320
21552W        W89882  22.159  43.867  11.599
21553W        W89883  32.558  32.603   0.389
21554W        W89884  35.512   8.268   4.831
21555W        W89885  36.874  19.628  14.884
21556W        W89886  16.202  40.385   2.817
21557W        W89887  18.094  37.019  11.031
21558W        W89888  44.998  21.216  13.920
21559W        W89889   2.371  39.816  12.501
21560W        W89890  33.973  29.576  12.022
21561W        W89891  27.594  31.054   3.273
21562W        W89892  41.490  30.075  10.531
21563W        W89893  36.585  25.489  10.967
21564W        W89894  10.658   9.353  11.516
21565W        W89895   3.915  28.593  12.927
21566W        W89896  39.993  29.630   2.192
21567W        W89897   2.266  35.495   0.438
21568W        W89898   2.393  36.473   0.386
21569W        W89899  32.443  14.180  12.358
21570W        W89900  22.640  35.929   2.403
21571W        W89901   1.926  44.942   1.251
21572W        W89902   8.897  16.270  10.983
21573W        W89903  11.850  13.212   2.875
21574W        W89904  37.342  33.959  12.894
21575W        W89905  17.185  37.467  13.917
21576W        W89906  44.454   0.889  12.960
21577W        W89907   2.838   1.820   3.310
21578W        W89908  29.456  38.957  13.463
21579W        W89909  10.640  35.449   1.355
21580W        W89910  23.043  40.438  14.310
21581W        W89911  31.613  34.478   3.148
21582W        W89912  41.862  24.637   1.868
21583W        W89913  25.564  31.911  10.046
21584W        W89914  43.005  16.318  13.927
21585W        W89915  27.650   0.308   3.343
21586W        W89916  12.252  43.947  10.932
21587W        W89917   1.949  27.516   1.742
21588W        W89918  16.762  32.131  11.605
21589W        W89919  36.409  35.940  13.461
21590W        W89920   4.897  39.414  10.442
21591W        W89921  35.037  38.833   1.449
21592W        W89922  38.381  14.709  14.458
21593W        W89923   6.386  19.775   4.838
21594W        W89924   3.325  34.541  11.901
21595W        W89925  11.713   4.416  13.526
21596W        W89926  38.871  32.077   3.268
21597W        W89927   3.435  17.133   5.187
21598W        W89928  11.254  11.275   0.340
21599W        W89929  14.771  39.019  14.496
21600W        W89930  31.031  27.115  11.478
21601W        W89931  29.575  41.351  11.881
21602W        W89932  33.064  40.534   1.428
21603W        W89933  31.050  22.701  10.515
21604W        W89934  23.639  40.836   0.921
21605W        W89935  29.011  37.571   2.839
21606W        W89936  12.646   1.374   4.728
21607W        W89937   6.701  38.918  11.448
21608W        W89938  15.689   1.874   4.664
21609W        W89939  34.558  15.627  11.546
21610W        W89940  18.685  41.792   4.329
21611W        W89941  16.620  29.026   0.832
21612W        W89942  12.848  10.739   4.256
21613W        W89943   3.948  24.992  13.511
21614W        W89944  21.152  15.196  13.506
21615W        W89945  44.969  31.017  13.946
21616W        W89946  20.204  25.700   4.234
21617W        W89947  35.044  18.179   2.853
21618W        W89948  37.458  33.026  14.011
21619W        W89949  28.946   5.873  13.892
21620W        W89950  17.076  28.068  12.969
21621W        W89951  35.483  42.947   2.898
21622W        W89952  10.700  18.107  11.097
21623W        W89953  14.153  42.456   2.695
21624W        W89954   5.761  17.576   4.791
21625W        W89955  34.576  35.372   3.201
21626W        W89956  17.613  15.135  11.595
21627W        W89957   1.478  44.312  10.499
21628W        W89958  18.704  27.093   1.928
21629W        W89959   1.784  44.917   4.305
21630W        W89960  12.853  28.616  11.070
21631W        W89961   6.893  27.996  11.953
21632W        W89962  13.794  36.010   2.413
21633W        W89963  22.123  24.161  13.990
21634W        W89964  38.855  30.057  12.533
21635W        W89965  12.135  11.218  10.487
21636W        W89966  36.926  42.787  10.511
21637W        W89967  15.644  37.471   9.627
21638W        W89968  42.991   5.378  10.471
21639W        W89969  37.515   5.909  12.352
21640W        W89970   3.225  10.173  11.998
21641W        W89971  13.112  42.405   2.797
21642W        W89972  35.854  40.330  12.041
21643W        W89973  20.064  38.435  13.455
21644W        W89974  23.162  32.119   2.766
21645W        W89975   6.681  26.468  10.503
21646W        W89976  17.693  32.395   2.372
21647W        W89977  41.869   4.247   1.451
21648W        W89978   2.423   5.855  11.113
21649W        W89979  11.719  35.040  11.884
21650W        W89980   0.826  22.113   3.255
21651W        W89981  16.788  43.004  14.292
21652W        W89982  23.675  26.643   4.740
21653W        W89983  43.004  14.613   5.252
21654W        W89984  34.029   1.445  13.490
21655W        W89985  40.458  24.493  13.501
21656W        W89986  33.539  27.643  11.088
21657W        W89987   9.868  33.458   4.224
21658W        W89988  16.767  27.522   3.728
21659W        W89989  13.299  34.918  10.994
21660W        W89990  26.556  20.647   1.432
21661W        W89991   0.780  21.031   2.740
21662W        W89992  38.550  25.654  14.856
21663W        W89993  35.009  21.708  10.443
21664W        W89994  40.356  16.757  11.599
21665W        W89995   3.935  35.855  12.498
21666W        W89996  39.842  36.587  14.856
21667W        W89997  25.112  12.149   3.799
21668W        W89998  16.092  39.448   0.319
21669W        W89999   9.735   5.226   2.353
21670W        W90000  42.508  41.020  13.496
21671W        W90001  15.138  43.850  11.900
21672W        W90002  35.366   2.951   3.730
21673W        W90003  10.694  33.502  14.895
21674W        W90004  28.469   2.252   2.378
21675W        W90005  16.805  38.059  11.967
21676W        W90006  14.676   1.957   0.464
21677W        W90007  39.814  23.703   4.658
21678W        W90008  33.935  32.580   0.381
21679W        W90009  20.087   7.793   3.233
21680W        W90010  16.651   8.868   1.881
21681W        W90011   6.752  18.080  14.832
21682W        W90012  19.683  37.046  11.962
21683W        W90013  38.425   3.342  14.860
21684W        W90014   7.380  14.335  11.087
21685W        W90015   9.856  18.631   2.349
21686W        W90016  13.767  26.087   2.690
21687W        W90017  30.499  11.349  12.069
21688W        W90018  41.488  37.887   2.850
21689W        W90019   7.817  30.083   0.441
21690W        W90020  27.123  32.099   1.776
21691W        W90021   8.391  15.768  12.487
21692W        W90022   7.230  11.676  10.974
21693W        W90023  28.932  41.490  14.284
21694W        W90024  34.013  32.970  11.584
21695W        W90025  15.271  41.430   0.836
21696W        W90026  11.243  20.537   3.349
21697W        W90027  20.242  44.927   2.703
21698W        W90028   8.346  33.386  11.875
21699W        W90029  17.208  33.955  11.555
21700W        W90030   3.278  29.156   4.776
21701W        W90031  18.564  12.626   1.727
21702W        W90032  32.553  24.139   3.327
21703W        W90033  25.066  25.049   1.803
21704W        W90034   4.827  37.934  12.042
21705W        W90035   1.361  14.819   0.415
21706W        W90036  41.483  34.931   1.801
21707W        W90037  25.129  34.083  10.534
21708W        W90038  38.018  35.386   2.389
21709W        W90039  22.213   2.745  12.004
21710W        W90040  29.103  14.171  12.845
21711W        W90041  13.601   6.896  12.061
21712W        W90042  25.546  40.833   1.881
21713W        W90043  40.853  20.029  12.547
21714W        W90044  24.721   6.735   4.723
21715W        W90045  22.665  39.850   1.313
21716W        W90046  26.040   2.404  12.921
21717W        W90047   5.773  11.801   2.219
21718W        W90048  34.953  14.590   2.789
21719W        W90049  10.256  28.069  12.481
21720W        W90050  23.025  39.495  12.840
21721W        W90051  25.219   4.282  14.782
21722W        W90052   1.332  43.979  14.370
21723W        W90053   6.719  16.690  13.962
21724W        W90054   8.717  42.870  11.875
21725W        W90055   3.219  18.700  13.868
21726W        W90056  17.232  16.222   1.339
21727W        W90057   8.213  21.649   3.744
21728W        W90058  19.752  42.831  12.492
21729W        W90059   7.868  30.999  13.518
21730W        W90060  17.096  40.852  11.921
21731W        W90061   1.915  20.250  13.312
21732W        W90062  16.238  25.983  13.046
21733W        W90063  33.033  23.044   4.818
21734W        W90064  44.396  22.604  11.098
21735W        W90065  21.215  14.157   0.442
21736W        W90066  22.074   0.265   1.270
21737W        W90067  15.581  26.979   4.790
21738W        W90068  25.693   8.311  13.791
21739W        W90069   7.782  31.066  10.420
21740W        W90070  18.551  19.283   0.753
21741W        W90071  25.683   3.792  11.108
21742W        W90072  31.087  40.463   3.278
21743W        W90073  34.046   1.334   4.226
21744W        W90074  29.947   3.398  10.551
21745W        W90075  39.476  21.148  10.004
21746W        W90076  28.588   9.878  14.948
21747W        W90077  16.088  23.160   0.885
21748W        W90078  24.134  31.513  13.353
21749W        W90079   5.824  20.695   1.711
21750W        W90080  43.450  33.023   3.189
21751W        W90081  43.300  23.151   3.170
21752W        W90082   7.273  32.037   0.816
21753W        W90083   5.419  28.976  13.344
21754W        W90084  20.758   2.780  12.400
21755W        W90085  42.848   1.295  14.948
21756W        W90086  38.364  40.426  14.327
21757W        W90087  17.160  36.020  10.489
21758W        W90088  37.031  35.526   4.675
21759W        W90089  38.904   8.815  13.542
21760W        W90090  27.047  32.502  10.137
21761W        W90091  31.631  22.702  10.497
21762W        W90092  14.795  32.067  13.020
21763W        W90093   3.747  40.798   0.450
21764W        W90094   1.788  20.548  10.641
21765W        W90095  32.471  31.084  13.944
21766W        W90096   1.843  35.604   2.332
21767W        W90097   7.221   1.292   0.741
21768W        W90098  22.668  11.271  11.004
21769W        W90099  44.894  17.082  11.074
21770W        W90100   2.954  33.900  14.936
21771W        W90101   1.889  28.608   2.343
21772W        W90102  27.645  42.964  14.372
21773W        W90103  35.363   1.478  12.345
21774W        W90104   0.826   5.738  10.439
21775W        W90105  32.079  24.145   4.632
21776W        W90106  23.146  43.343   1.788
21777W        W90107  40.011  13.264   2.310
21778W        W90108  29.554   6.879  12.440
21779W        W90109   3.386  38.470   0.746
21780W        W90110  18.238  28.542   4.769
21781W        W90111  12.676  11.852  13.883
21782W        W90112   2.259  15.194  14.972
21783W        W90113  29.653  14.815  10.996
21784W        W90114  36.540  39.049   2.218
21785W        W90115  13.608  25.498  10.484
21786W        W90116  38.420  20.040   0.474
21787W        W90117  43.841  14.305   3.260
21788W        W90118   5.409  20.079   0.740
21789W        W90119  27.195   0.352   2.261
21790W        W90120  36.939  43.865  10.949
21791W        W90121  15.094  33.957   0.441
21792W        W90122  27.984  44.819  14.334
21793W        W90123  21.021  38.503  13.425
21794W        W90124  23.134  32.038  10.521
21795W        W90125  10.744  35.459   2.891
21796W        W90126  14.209  10.279   4.195
21797W        W90127  43.502  21.057   0.747
21798W        W90128  43.455  43.309  14.335
21799W        W90129  39.051   5.278  11.932
21800W        W90130   2.312   2.859  11.903
21801W        W90131  39.383  13.727  12.414
21802W        W90132  15.785   6.840   1.339
21803W        W90133  42.321  30.631  13.399
21804W        W90134  16.633   9.812  14.861
21805W        W90135  17.182  37.921   3.178
21806W        W90136   7.264   3.333   1.369
21807W        W90137  31.411  29.668  13.487
21808W        W90138  38.359  30.991   0.458
21809W        W90139  11.832   7.208   2.835
21810W        W90140  37.375  31.018   4.323
21811W        W90141  29.631  44.898   0.825
21812W        W90142  32.031  13.622   0.315
21813W        W90143   3.303  15.117  11.556
21814W        W90144  38.950  20.103  12.504
21815W        W90145  38.527  40.038   1.790
21816W        W90146  20.712   1.736  11.386
21817W        W90147  25.165  26.115   4.667
21818W        W90148  16.073  20.566   2.258
21819W        W90149  29.543   1.377  12.843
21820W        W90150  26.959  12.332   3.147
21821W        W90151  18.157  44.393   0.445
21822W        W90152  12.360   6.751   4.621
21823W        W90153   1.747  29.630   0.797
21824W        W90154  27.615  13.135   1.909
21825W        W90155  28.169  17.743   9.974
21826W        W90156  18.297  20.735  11.472
21827W        W90157  36.887  30.059  10.943
21828W        W90158  12.661  22.698  11.517
21829W        W90159  34.385  42.986   4.264
21830W        W90160   0.325  15.691  10.414
21831W        W90161  27.547  35.029  10.447
21832W        W90162  19.679  21.727  14.277
21833W        W90163   7.354   8.323  12.465
21834W        W90164   9.225   5.697   4.630
21835W        W90165  28.146   1.482  12.924
21836W        W90166  20.221  40.986  11.951
21837W        W90167   0.360  30.440   2.893
21838W        W90168  23.585  10.247   3.373
21839W        W90169  33.078  21.235  14.819
21840W        W90170  40.434  11.156   4.339
21841W        W90171   5.327  40.004   3.641
21842W        W90172  13.189  38.007  11.978
21843W        W90173   3.414   6.691  10.970
21844W        W90174  18.287  39.522   4.630
21845W        W90175  21.144  24.107  14.341
21846W        W90176  36.876  39.331  13.494
21847W        W90177  17.216  16.678  13.408
21848W        W90178  15.736  21.113  11.118
21849W        W90179  35.005  18.789   2.295
21850W        W90180  33.946  19.632  14.780
21851W        W90181  14.228  17.749  13.499
21852W        W90182   4.395  36.436  11.405
21853W        W90183  15.714  24.520   1.712
21854W        W90184  22.547  12.261   4.206
21855W        W90185  20.691  35.914   2.208
21856W        W90186   7.894  13.269  14.454
21857W        W90187  35.506  43.380   4.610
21858W        W90188  34.934  15.766  11.474
21859W        W90189  37.363   9.854  12.423
21860W        W90190  19.718  25.074  11.074
21861W        W90191  25.121  33.387  10.100
21862W        W90192  11.760  16.078  10.521
21863W        W90193  30.594  27.686  13.499
21864W        W90194  42.426  18.136  11.418
21865W        W90195  36.040   3.414  12.827
21866W        W90196   2.355  38.023  11.002
21867W        W90197  11.829  38.061   3.825
21868W        W90198  25.513  22.691  10.450
21869W        W90199  21.177  33.592  14.281
21870W        W90200  14.340  20.698   3.240
21871W        W90201  41.908  27.564   1.880
21872W        W90202  43.303   9.265  11.940
21873W        W90203  13.774  16.739  11.115
21874W        W90204  32.450   0.273   0.277
21875W        W90205   1.462  32.597   4.160
21876W        W90206  28.955  35.373   0.383
21877W        W90207   8.244  43.847  13.375
21878W        W90208   5.271   2.829   4.689
21879W        W90209  33.512   9.799  13.030
21880W        W90210  21.123  24.030   2.225
21881W        W90211  44.312  39.315  13.402
21882W        W90212   3.364   0.935   4.818
21883W        W90213   6.744  29.994  12.958
21884W        W90214  39.555  11.272   0.256
21885W        W90215   3.266  32.041   2.246
21886W        W90216  21.608  36.906  13.841
21887W        W90217  26.538  38.051  10.959
21888W        W90218   0.269  38.529  11.589
21889W        W90219  18.146  24.099  13.409
21890W        W90220  14.759  27.116  10.466
21891W        W90221  31.404  12.644   3.266
21892W        W90222   1.790  25.153  12.991
21893W        W90223  23.604  10.723  11.909
21894W        W90224  31.939  26.052  10.525
21895W        W90225  28.573  38.043   1.291
21896W        W90226  20.132  44.291  14.926
21897W        W90227   1.912  41.508   3.312
21898W        W90228  18.228  39.867  13.919
21899W        W90229  18.620  30.503  10.604
21900W        W90230   3.894  11.143  12.847
21901W        W90231  13.660  14.301  10.904
21902W        W90232   8.169  34.943   2.869
21903W        W90233  24.173  20.214  11.868
21904W        W90234  37.386   8.322   1.867
21905W        W90235  32.621  17.633   1.715
21906W        W90236  39.438  21.662   4.629
21907W        W90237  13.621  12.760   3.295
21908W        W90238   1.827  38.891   1.288
21909W        W90239  22.221  31.532   0.469
21910W        W90240  18.147  19.580   4.795
21911W        W90241  32.945  13.313   2.197
21912W        W90242  29.167   2.905   3.665
21913W        W90243  41.038  30.025  10.988
21914W        W90244  26.700   0.848  11.945
21915W        W90245  39.457  22.067   3.312
21916W        W90246  18.080  27.504   1.375
21917W        W90247   0.835   9.731   4.339
21918W        W90248   4.857   8.161   4.172
21919W        W90249  11.286  23.562   1.888
21920W        W90250  22.631  32.060   0.787
21921W        W90251  34.865  40.842  14.500
21922W        W90252  34.551   3.324  13.442
21923W        W90253  38.406  31.589   1.885
21924W        W90254   1.301  33.440   2.395
21925W        W90255  41.322  21.690   2.414
21926W        W90256  13.692   9.165   0.444
21927W        W90257  21.052  17.774  11.495
21928W        W90258  32.908   9.363  10.460
21929W        W90259  20.138   3.890   2.725
21930W        W90260   2.354  44.388   4.638
21931W        W90261  43.454   1.260   0.415
21932W        W90262  10.765  41.847  13.017
21933W        W90263  17.797  43.468   1.806
21934W        W90264  43.430  35.882  10.606
21935W        W90265   8.802  23.696   0.729
21936W        W90266  12.849  13.228  13.385
21937W        W90267  19.252  15.760   1.425
21938W        W90268  16.703  26.164  12.085
21939W        W90269  42.283  26.600  11.494
21940W        W90270   6.241  11.790  14.460
21941W        W90271   7.234  24.142   4.250
21942W        W90272  11.168   6.293   3.683
21943W        W90273  29.087   6.863   0.837
21944W        W90274   3.932  36.944   2.270
21945W        W90275  25.575  30.481   1.778
21946W        W90276  30.065  12.630   1.398
21947W        W90277  44.769   0.336  10.961
21948W        W90278  23.065  11.833   2.378
21949W        W90279  17.215   1.769   0.440
21950W        W90280   4.206   5.317   0.404
21951W        W90281  24.200  43.467  14.384
21952W        W90282   7.719   9.732   3.171
21953W        W90283  34.116  11.279   2.738
21954W        W90284  31.569  25.041   4.157
21955W        W90285  25.583  23.033  12.896
21956W        W90286  12.627   9.875  14.910
21957W        W90287  35.478   9.221   1.769
21958W        W90288  37.917  31.416   1.696
21959W        W90289  19.039   2.766   1.817
21960W        W90290  34.581   5.429   3.647
21961W        W90291  10.280  37.978  10.475
21962W        W90292  31.951  38.040  12.421
21963W        W90293   7.415  29.939  10.455
21964W        W90294  18.201  23.704   0.457
21965W        W90295  38.561   0.331   3.361
21966W        W90296  20.651   8.888  10.912
21967W        W90297   8.689  15.196   3.633
21968W        W90298   6.756   5.341   4.284
21969W        W90299   4.341  40.414  13.954
21970W        W90300  37.062  29.484   0.268
21971W        W90301  18.638   3.954  11.397
21972W        W90302  16.589  36.385   1.916
21973W        W90303  28.069  41.487   3.670
21974W        W90304  29.458  37.473  11.595
21975W        W90305  23.022  12.779   2.269
21976W        W90306  26.083  33.592  11.007
21977W        W90307  43.370  37.339  13.369
21978W        W90308  20.649  31.530  11.921
21979W        W90309  42.013   5.331  14.425
21980W        W90310  24.015   4.881  13.314
21981W        W90311  27.650  22.042   2.271
21982W        W90312  23.537   8.295   3.731
21983W        W90313  25.616  36.486  10.434
21984W        W90314  24.208  32.965  12.486
21985W        W90315  26.112  20.599  13.385
21986W        W90316   0.491  11.138   2.346
21987W        W90317  23.635  15.691   4.749
21988W        W90318  12.731  18.070  13.843
21989W        W90319  13.177  10.183  14.765
21990W        W90320  30.078  34.458  14.948
21991W        W90321   4.407  17.652   0.319
21992W        W90322  40.524  30.593   3.289
21993W        W90323  13.800  42.893  11.982
21994W        W90324  17.155  38.993  10.138
21995W        W90325  13.227  38.025   2.191
21996W        W90326  10.666   3.863   2.724
21997W        W90327  34.412  40.348  12.429
21998W        W90328  19.725  41.402   4.259
21999W        W90329  41.923   1.852   2.246
22000W        W90330  25.005  11.637   5.320
22001W        W90331  22.213  12.256   1.714
22002W        W90332  11.673  16.747   2.889
22003W        W90333  15.326  38.409   4.770
22004W        W90334  26.029   8.352   2.333
22005W        W90335   4.943   3.854   4.668
22006W        W90336  31.032  35.484   3.829
22007W        W90337  23.573   5.830   4.151
22008W        W90338   7.724  17.178  12.933
22009W        W90339  40.382  33.617   2.363
22010W        W90340  20.609  19.182  14.340
22011W        W90341  40.466   8.165   3.167
22012W        W90342  16.660  35.980   1.252
22013W        W90343   6.852   6.703  10.595
22014W        W90344  21.259  20.040   4.639
22015W        W90345  40.374  24.711  12.089
22016W        W90346  32.626  36.851  14.294
22017W        W90347   9.395  27.025   4.298
22018W        W90348  20.205  24.087  12.911
22019W        W90349  33.894  15.194  13.923
22020W        W90350  27.603  29.980   4.659
22021W        W90351  36.502   5.241  11.934
22022W        W90352  42.506  39.437   4.214
22023W        W90353  32.511  19.780  12.566
22024W        W90354   5.902  18.265  11.022
22025W        W90355   6.291  12.698   0.261
22026W        W90356  24.685  31.600   3.164
22027W        W90357  30.933  11.671   2.859
22028W        W90358  35.985  43.922  13.349
22029W        W90359  22.241   3.787   1.415
22030W        W90360  36.540   7.372   1.399
22031W        W90361  31.141  33.468   9.992
22032W        W90362   5.372  32.423  10.515
22033W        W90363  31.032  20.682   2.739
22034W        W90364  34.613  13.285  12.059
22035W        W90365  35.080  18.249   4.654
22036W        W90366  24.182  16.263   4.741
22037W        W90367  36.885  14.641  12.394
22038W        W90368   3.846  28.667   2.738
22039W        W90369  21.518  14.335  11.018
22040W        W90370  30.916  18.110  14.478
22041W        W90371  10.680  34.468  10.582
22042W        W90372  11.727   3.903   3.677
22043W        W90373  22.501  15.704   1.928
22044W        W90374  30.005  37.337   3.776
22045W        W90375  26.577  14.828  14.979
22046W        W90376  11.174  37.024   3.174
22047W        W90377  44.455  13.225  11.863
22048W        W90378   1.329  42.824  11.481
22049W        W90379  33.090  34.597  14.293
22050W        W90380  16.681   9.161   4.626
22051W        W90381  33.075   6.903  12.402
22052W        W90382  23.008  15.718  14.327
22053W        W90383  23.515  42.305  14.970
22054W        W90384  11.161   8.261  12.057
22055W        W90385  40.474  26.652   2.669
22056W        W90386   7.741  27.621  14.931
22057W        W90387  17.187   2.809  13.866
22058W        W90388  42.900  21.254   5.106
22059W        W90389  44.008  29.658   3.304
22060W        W90390  34.938  24.488   3.252
22061W        W90391  17.276  37.475  10.594
22062W        W90392  19.254  16.802   0.410
22063W        W90393  27.070   8.208  14.783
22064W        W90394   9.278  19.123   3.721
22065W        W90395  41.452  10.864  12.914
22066W        W90396  34.016  32.586  10.628
22067W        W90397   9.186  38.984   2.678
22068W        W90398  13.115  32.519   3.383
22069W        W90399  31.930  18.575  11.582
22070W        W90400   8.880  11.805   1.769
22071W        W90401  20.166  43.309  14.834
22072W        W90402  22.594  14.335  14.989
22073W        W90403  27.048  41.029   1.446
22074W        W90404  43.453   7.730   0.309
22075W        W90405   4.358   4.380   1.293
22076W        W90406  32.907  42.848  13.495
22077W        W90407  43.276  39.865  12.007
22078W        W90408  27.633  31.408   3.767
22079W        W90409  11.211   3.394  11.526
22080W        W90410  42.502  30.506  14.348
22081W        W90411   4.436   4.880   2.712
22082W        W90412   4.889  43.436  10.959
22083W        W90413  35.442   7.340  11.960
22084W        W90414   4.329  26.500  10.959
22085W        W90415  15.083   1.283   4.127
22086W        W90416   7.294   9.284  12.914
22087W        W90417  25.120   4.716  14.898
22088W        W90418  36.385   1.907   0.766
22089W        W90419   0.307  16.773   1.875
22090W        W90420  33.556   1.784   4.260
22091W        W90421  20.194   2.460  12.089
22092W        W90422  36.477  42.798   3.386
22093W        W90423   8.209  43.885   4.136
22094W        W90424  10.826  36.924  13.999
22095W        W90425  14.825  18.621  11.120
22096W        W90426  42.807  35.078   2.781
22097W        W90427  42.292   8.190  11.966
22098W        W90428  29.129  44.941  11.915
22099W        W90429  39.394  33.510  13.345
22100W        W90430  20.161   7.784  13.444
22101W        W90431   4.372  42.521   4.202
22102W        W90432  27.587  36.850   3.797
22103W        W90433  23.075   7.825  14.976
22104W        W90434  44.906  22.194   0.362
22105W        W90435  30.630  36.509  13.440
22106W        W90436  26.563  43.942   4.767
22107W        W90437  26.046  19.116   4.288
22108W        W90438  41.453  17.678  14.960
22109W        W90439  21.231   6.859  12.849
22110W        W90440  19.140  19.236  13.927
22111W        W90441  29.072  28.976   3.657
22112W        W90442  33.404   7.778  11.891
22113W        W90443  22.191  17.576  11.862
22114W        W90444   8.715  17.254   3.686
22115W        W90445  22.225  41.360   4.253
22116W        W90446   6.751  13.638   1.299
22117W        W90447  16.124  39.868  12.441
22118W        W90448  37.069  20.271  10.504
22119W        W90449  14.292  11.193   4.821
22120W        W90450   5.841  42.433   4.270
22121W        W90451  16.705   3.446  12.432
22122W        W90452   7.297   3.776   2.322
22123W        W90453   8.717  44.945   1.807
22124W        W90454  37.424   5.387  14.964
22125W        W90455  34.924  31.138  11.974
22126W        W90456  36.995   2.949  14.905
22127W        W90457  18.201  44.945  14.834
22128W        W90458   3.240  43.354   3.229
22129W        W90459  24.512  24.134  11.486
22130W        W90460  21.727   9.310  13.881
22131W        W90461  26.527  14.828   2.386
22132W        W90462   2.947  38.892   4.607
22133W        W90463   0.411  11.737   2.337
22134W        W90464  18.117  20.043   2.817
22135W        W90465  34.472  37.554  14.017
22136W        W90466   7.206   6.402  14.377
22137W        W90467  37.384  33.985   3.707
22138W        W90468  12.243   4.364  13.007
22139W        W90469  18.559   2.435   0.738
22140W        W90470  22.226  36.050  13.977
22141W        W90471  44.389   0.830  11.561
22142W        W90472  42.505   7.254   1.749
22143W        W90473   1.471  15.709   4.759
22144W        W90474  38.928   5.225   4.732
22145W        W90475   2.374  15.657  10.475
22146W        W90476  21.561  16.751  13.428
22147W        W90477   3.878  11.190   4.209
22148W        W90478  23.062   6.679   4.266
22149W        W90479  26.987  25.086   1.235
22150W        W90480  29.658  30.532  10.422
22151W        W90481  20.740   6.242   3.758
22152W        W90482  42.937   5.295   3.782
22153W        W90483  30.999   0.491  10.463
22154W        W90484  38.067  43.908  11.115
22155W        W90485  25.177   8.268  14.977
22156W        W90486  22.622  27.095  10.099
22157W        W90487  14.231  21.050   3.338
22158W        W90488   6.383  41.997  11.074
22159W        W90489  40.543  29.655   5.258
22160W        W90490  35.554   1.794   4.210
22161W        W90491  32.563  21.742   0.967
22162W        W90492  11.160  29.616  12.081
22163W        W90493  27.523  22.515   4.277
22164W        W90494  31.545   6.354  11.488
22165W        W90495  44.934  15.777   2.898
22166W        W90496  28.487  11.164   2.311
22167W        W90497  11.752  17.244   4.725
22168W        W90498  40.016   8.707  13.794
22169W        W90499  39.405  33.991  12.911
22170W        W90500  42.304  30.627   0.464
22171W        W90501   3.931  42.806  10.437
22172W        W90502   1.278   5.347   1.758
22173W        W90503  30.503  22.225   4.317
22174W        W90504  22.061  44.457   2.318
22175W        W90505  37.426  20.571  12.883
22176W        W90506  35.986   2.810   0.898
22177W        W90507  10.314  15.202  11.402
22178W        W90508  25.190   0.462  13.015
22179W        W90509   3.940  32.410  13.366
22180W        W90510   4.722  16.700  12.827
22181W        W90511  29.931   1.395   3.662
22182W        W90512  41.981  34.946   3.267
22183W        W90513  32.986  37.537  14.864
22184W        W90514  21.709  32.524  13.499
22185W        W90515   9.662  12.652   1.719
22186W        W90516  24.716  20.560  13.909
22187W        W90517  28.461  15.141  10.550
22188W        W90518   1.868  12.797   0.828
22189W        W90519  11.196  14.098  13.899
22190W        W90520  31.998  17.114   1.433
22191W        W90521  15.748  20.539   3.841
22192W        W90522   8.763  30.028  11.448
22193W        W90523  25.653  15.724  13.396
22194W        W90524  17.093  44.493   2.306
22195W        W90525  42.449  35.863   4.671
22196W        W90526  17.656  26.076  10.443
22197W        W90527  34.527  28.929   4.666
22198W        W90528  20.148  16.644  10.622
22199W        W90529  18.078  38.352   3.238
22200W        W90530  13.727  34.070  11.406
22201W        W90531  30.994  27.660   4.611
22202W        W90532  37.845  19.221  11.095
22203W        W90533  40.046  11.144   3.741
22204W        W90534  20.640   8.835   2.853
22205W        W90535  11.141  28.518  11.879
22206W        W90536   0.323  21.043   2.682
22207W        W90537  25.484  32.015  14.421
22208W        W90538  40.404  30.419  13.404
22209W        W90539   9.650  37.393   2.893
22210W        W90540  17.192  35.852   1.210
22211W        W90541  44.480  28.445  10.995
22212W        W90542  11.259  40.831   2.328
22213W        W90543   3.236   2.271  12.949
22214W        W90544  29.601  21.547   9.666
22215W        W90545  35.443  44.323   0.886
22216W        W90546  25.609  41.396   5.256
22217W        W90547  21.095  22.563   3.359
22218W        W90548  14.759  28.033  12.012
22219W        W90549   7.199  21.247   1.331
22220W        W90550   5.196  35.995   0.783
22221W        W90551  28.451  37.865  13.932
22222W        W90552  29.157  38.845  12.080
22223W        W90553  14.297  26.123   2.380
22224W        W90554  15.597  42.894  12.535
22225W        W90555   2.790  18.130  11.940
22226W        W90556  41.312  37.571   0.266
22227W        W90557  21.686  23.680   2.665
22228W        W90558   0.955   5.397  11.105
22229W        W90559  14.745  35.521   4.151
22230W        W90560  18.549  34.900  11.869
22231W        W90561  42.380  10.221   2.309
22232W        W90562   1.411  29.946   2.859
22233W        W90563  10.809  32.516   3.787
22234W        W90564  39.877   3.726   2.808
22235W        W90565  35.857   0.880  12.490
22236W        W90566  30.601  12.134  11.020
22237W        W90567  44.866  30.033   3.348
22238W        W90568   0.925  20.762   2.376
22239W        W90569   1.821  14.795  12.863
22240W        W90570  29.921  41.834  12.831
22241W        W90571  40.049  17.702   2.416
22242W        W90572  13.219  30.984  13.440
22243W        W90573  35.081   5.272  14.991
22244W        W90574  15.251  30.056  14.980
22245W        W90575  24.101  11.734   5.310
22246W        W90576   4.229   9.688  11.085
22247W        W90577  23.090  30.985  14.780
22248W        W90578  31.076  42.289  10.411
22249W        W90579   7.171  35.414   2.751
22250W        W90580   9.646  40.051   3.668
22251W        W90581   6.328   2.739  12.536
22252W        W90582   1.458  23.192   0.329
22253W        W90583  40.380  25.676  14.424
22254W        W90584   2.393  35.377  13.793
22255W        W90585   9.810  19.042  11.512
22256W        W90586  35.508  29.095  14.422
22257W        W90587  36.938  37.554  11.379
22258W        W90588  22.729  25.680   1.314
22259W        W90589  22.728  19.247   2.187
22260W        W90590  30.469  21.028  14.028
22261W        W90591   0.830  27.987   3.371
22262W        W90592  33.874  31.032  10.938
22263W        W90593   9.287  29.504   0.447
22264W        W90594  44.916  30.649  14.980
22265W        W90595  40.546   5.791   5.704
22266W        W90596  25.156  32.509  14.493
22267W        W90597   6.853  34.415   4.610
22268W        W90598  28.550  35.070  10.463
22269W        W90599  42.861  36.500   1.396
22270W        W90600   1.914  43.503   2.715
22271W        W90601  37.054  42.489  12.069
22272W        W90602  44.858  28.603   4.618
22273W        W90603   9.304  36.012  13.391
22274W        W90604  29.647  21.678  14.766
22275W        W90605   6.831  30.070  14.489
22276W        W90606  34.076   6.760  13.914
22277W        W90607   2.759  41.345  11.499
22278W        W90608  43.871  33.465  13.972
22279W        W90609  29.556   4.411   2.304
22280W        W90610  10.361  35.900   4.196
22281W        W90611  12.207   4.831   0.932
22282W        W90612  44.445  25.506   1.739
22283W        W90613  43.465  32.006   0.340
22284W        W90614  40.402  22.647   3.335
22285W        W90615  21.690  21.690   2.304
22286W        W90616   9.361  35.861   0.761
22287W        W90617   4.750  32.471  14.847
22288W        W90618  10.247  33.416   0.812
22289W        W90619   3.867  24.102  10.905
22290W        W90620  24.034  18.065   9.930
22291W        W90621  24.144  16.578   3.364
22292W        W90622  31.407   6.870   3.157
22293W        W90623  20.765  23.208  10.640
22294W        W90624   3.859  31.083   1.921
22295W        W90625   2.955  16.682  10.549
22296W        W90626  37.417  20.749  10.976
22297W        W90627   4.708  15.310  12.939
22298W        W90628   2.422  32.957  13.414
22299W        W90629  31.105   8.368   1.431
22300W        W90630  20.187  27.576   4.746
22301W        W90631   0.367   1.862   4.621
22302W        W90632  26.590  26.686  11.592
22303W        W90633  24.140  33.586   9.953
22304W        W90634  16.732  39.510   1.860
22305W        W90635  24.163  28.080  11.003
22306W        W90636   1.347  28.181   4.295
22307W        W90637   8.781  36.922   1.933
22308W        W90638  12.789  43.493   2.800
22309W        W90639  44.942  22.530   2.788
22310W        W90640  12.275  13.657   4.270
22311W        W90641  38.496  25.479   3.223
22312W        W90642  33.968  39.390  14.987
22313W        W90643  34.973  44.761  11.899
22314W        W90644  16.714  41.036  11.920
22315W        W90645  16.729   0.909   0.343
22316W        W90646   0.468  20.100  10.516
22317W        W90647  20.720  33.110  11.872
22318W        W90648  13.796   7.680  13.343
22319W        W90649  40.980  35.415  11.599
22320W        W90650   4.865  25.606   3.729
22321W        W90651  44.864  43.392   2.378
22322W        W90652  30.108  27.965  12.422
22323W        W90653   5.396  39.964   2.674
22324W        W90654  21.687  18.165   5.203
22325W        W90655  26.075  22.031   3.652
22326W        W90656  26.131  34.401   4.142
22327W        W90657  12.166  27.040   4.652
22328W        W90658  38.988  16.600   4.818
22329W        W90659  22.126  13.277   3.241
22330W        W90660  22.594   3.215   5.138
22331W        W90661  42.361  38.827  14.825
22332W        W90662  35.425  32.016  14.349
22333W        W90663   5.778  31.443   3.366
22334W        W90664   1.304  43.900   3.658
22335W        W90665   2.855  19.621  12.427
22336W        W90666   6.849  40.329  11.049
22337W        W90667  39.901  17.779  11.857
22338W        W90668   4.803  13.811  11.909
22339W        W90669   5.253  25.093   1.386
22340W        W90670  41.316  32.621  11.501
22341W        W90671  21.056   4.847   5.272
22342W        W90672  22.521  40.394   4.816
22343W        W90673  13.305  12.153   2.246
22344W        W90674  30.077   7.183  11.396
22345W        W90675  16.783  38.934  13.973
22346W        W90676   5.385  16.766  11.478
22347W        W90677  28.938  30.934   2.214
22348W        W90678   9.675  40.372   4.619
22349W        W90679  30.940  22.666   9.618
22350W        W90680  28.081  35.901   4.791
22351W        W90681   0.791  44.989  10.459
22352W        W90682  25.114  44.819   0.351
22353W        W90683  17.268  30.444   3.694
22354W        W90684   0.390  19.049  11.493
22355W        W90685   4.789  41.898   2.249
22356W        W90686  38.849   2.316  14.483
22357W        W90687  13.288  21.113  13.797
22358W        W90688  33.070   2.898   2.325
22359W        W90689  32.502  19.772  10.037
22360W        W90690  26.526  34.868  14.339
22361W        W90691  31.565  29.427  14.771
22362W        W90692  38.002  38.397  11.916
22363W        W90693   0.822   4.318  13.337
22364W        W90694  34.040  23.132   1.314
22365W        W90695  40.967  11.739   0.895
22366W        W90696  34.456  10.746  13.376
22367W        W90697  44.261  23.567   0.938
22368W        W90698  35.440  37.482   4.652
22369W        W90699  35.879  14.135  13.023
22370W        W90700  17.683   4.774  10.580
22371W        W90701  20.570   6.717   1.707
22372W        W90702  28.587  42.892   2.372
22373W        W90703  35.039  23.632   1.773
22374W        W90704  36.364  10.666  12.477
22375W        W90705  42.848   9.732  11.924
22376W        W90706  41.019   8.352  13.990
22377W        W90707  30.009  33.608   1.828
22378W        W90708  43.010  16.294  14.344
22379W        W90709  44.911  21.025   1.762
22380W        W90710  28.569  13.179   2.780
22381W        W90711  26.671  37.080  11.999
22382W        W90712  39.480  23.591   4.599
22383W        W90713  24.013  16.150  10.479
22384W        W90714   7.844  39.556  13.527
22385W        W90715  19.284  13.673  11.390
22386W        W90716  24.177   5.723  12.453
22387W        W90717   1.312  19.659  12.835
22388W        W90718  42.012   7.263  12.013
22389W        W90719  25.157  40.979  14.031
22390W        W90720  35.532  20.704  12.061
22391W        W90721   1.902   7.752   1.884
22392W        W90722   3.865  16.274   1.744
22393W        W90723  11.864  22.589  11.964
22394W        W90724  38.570  42.283  13.542
22395W        W90725  20.751  31.983  10.597
22396W        W90726  33.052   4.740   4.613
22397W        W90727  25.563  36.517  14.347
22398W        W90728   8.707   8.811  11.867
22399W        W90729  37.938  15.267   4.280
22400W        W90730  18.722   1.317   4.254
22401W        W90731  16.711  21.674  10.985
22402W        W90732  33.957  38.005  10.456
22403W        W90733   7.759  36.413   1.451
22404W        W90734  21.054  31.047   4.124
22405W        W90735  44.379   2.428   2.759
22406W        W90736  32.994  26.130  13.358
22407W        W90737   5.908  27.542  14.440
22408W        W90738   3.744  44.307   2.882
22409W        W90739  41.534  14.675  10.953
22410W        W90740  34.062  15.223  12.884
22411W        W90741  40.883   7.823   9.580
22412W        W90742  24.619  16.724  12.400
22413W        W90743  15.204  10.676  13.946
22414W        W90744  42.393  23.504   1.366
22415W        W90745  34.078  41.519   4.237
22416W        W90746   8.829  19.646  13.816
22417W        W90747  26.081  34.866   2.727
22418W        W90748  35.070  39.460   2.735
22419W        W90749  30.103   8.796  13.874
22420W        W90750  35.469  10.208  10.951
22421W        W90751  34.513  37.010  13.393
22422W        W90752  12.148  22.720  11.515
22423W        W90753  42.851  43.001  12.894
22424W        W90754  37.016  22.194  11.389
22425W        W90755  36.435  39.003  12.055
22426W        W90756  20.221   8.175  14.360
22427W        W90757  12.299   6.272  10.502
22428W        W90758  34.948  19.222  14.928
22429W        W90759  34.989  36.519   2.887
22430W        W90760  30.511  28.552   4.170
22431W        W90761  34.515  16.666   3.304
22432W        W90762  33.420  23.163   3.699
22433W        W90763   2.767  28.999  12.910
22434W        W90764   4.408   8.320  10.960
22435W        W90765  39.944  30.976   0.736
22436W        W90766  25.161  26.046  12.938
22437W        W90767   0.911   2.948   4.823
22438W        W90768   3.863  43.348   3.225
22439W        W90769   0.397  21.611   4.805
22440W        W90770  24.523  10.245  12.083
22441W        W90771  25.607   3.885   4.118
22442W        W90772  41.970  12.350   0.888
22443W        W90773  42.839  33.112   4.301
22444W        W90774  32.142  10.147  14.374
22445W        W90775  17.233  12.735  13.529
22446W        W90776   4.243  36.011  11.040
22447W        W90777  38.057  17.274  12.051
22448W        W90778  13.647  34.888  11.076
22449W        W90779  20.156  29.954  13.377
22450W        W90780  33.568  36.938  10.416
22451W        W90781   4.274   0.898   3.668
22452W        W90782  10.801  35.552  10.485
22453W        W90783  29.654  31.572   2.365
22454W        W90784  31.624  18.746   2.207
22455W        W90785  28.165  36.467  14.898
22456W        W90786  30.132  44.974  11.024
22457W        W90787  24.682  21.045  11.878
22458W        W90788  18.605  29.144   0.246
22459W        W90789  42.798  12.214  13.822
22460W        W90790  11.818  40.901   3.733
22461W        W90791  11.647   0.871  11.950
22462W        W90792  42.776  18.592  12.956
22463W        W90793  28.529  37.884  11.418
22464W        W90794  41.800  34.947   0.248
22465W        W90795  19.692  38.829   3.739
22466W        W90796  33.096  14.179  12.529
22467W        W90797  31.898  29.109   2.351
22468W        W90798  27.095   2.861   0.825
22469W        W90799   5.275  22.138   2.259
22470W        W90800   5.317  44.480  14.811
22471W        W90801  32.081  22.190   0.741
22472W        W90802  41.411  26.994   1.440
22473W        W90803  24.619  31.003   4.170
22474W        W90804  18.186  12.812   2.899
22475W        W90805  19.103  36.941   2.710
22476W        W90806   6.689   1.936  11.571
22477W        W90807  13.209  12.143  11.483
22478W        W90808  43.395  44.921  12.035
22479W        W90809  32.004  21.062  11.058
22480W        W90810  38.878   1.912  13.411
22481W        W90811  36.351  17.112   4.611
22482W        W90812  24.559  27.071  10.893
22483W        W90813  18.701  42.866  11.398
22484W        W90814  12.270  26.068   3.201
22485W        W90815  15.254  28.982  13.358
22486W        W90816  16.206  26.623   2.793
22487W        W90817  28.128  43.303  11.489
22488W        W90818  22.041  44.416  12.017
22489W        W90819   7.695  26.130   3.307
22490W        W90820  16.580  11.239   2.844
22491W        W90821  44.470  21.042  13.014
22492W        W90822   5.922  28.441   4.269
22493W        W90823  16.283  18.615   4.770
22494W        W90824  40.813  15.311   2.385
22495W        W90825  36.857  33.573  10.553
22496W        W90826  39.896  21.173   0.313
22497W        W90827  36.500   3.406  10.971
22498W        W90828  38.452  29.585   4.178
22499W        W90829  29.624   8.749  11.104
22500W        W90830  41.817  36.553  11.550
22501W        W90831  29.158  22.624   3.772
22502W        W90832   0.357  30.055  11.402
22503W        W90833  35.108  34.546   4.700
22504W        W90834  41.869  19.778  12.037
22505W        W90835  17.097  35.936  13.400
22506W        W90836  15.706  26.649   3.857
22507W        W90837  34.448  22.735   4.180
22508W        W90838  20.188  27.189  13.920
22509W        W90839   7.724   6.714  13.996
22510W        W90840  22.031   9.772  11.588
22511W        W90841  28.484  31.562  12.864
22512W        W90842   5.296  25.664  11.435
22513W        W90843  12.720  37.342  13.359
22514W        W90844  22.025  42.011   1.399
22515W        W90845  10.877  12.840   2.369
22516W        W90846   0.829  30.048  11.406
22517W        W90847  42.327  12.741   4.148
22518W        W90848  31.501  29.664   2.835
22519W        W90849  17.789  25.661  11.045
22520W        W90850  15.247  34.037  14.966
22521W        W90851   6.354  35.376  11.916
22522W        W90852  36.450  14.829   2.849
22523W        W90853  40.834  40.948  14.290
22524W        W90854   0.809  39.874   4.332
22525W        W90855   6.795   9.301  10.561
22526W        W90856  18.282  33.077  14.350
22527W        W90857  11.673  10.333   1.700
22528W        W90858  11.825  35.966  10.588
22529W        W90859  30.133  10.859   4.610
22530W        W90860  32.947  31.591   1.809
22531W        W90861   6.820  15.291   1.284
22532W        W90862  20.678  40.916  13.894
22533W        W90863  29.447  29.976  11.056
22534W        W90864  31.914  19.733   3.295
22535W        W90865  13.316   2.415  14.828
22536W        W90866  10.785  29.625   0.787
22537W        W90867  43.285   8.298  12.041
22538W        W90868  14.751  36.059  10.105
22539W        W90869  29.981   8.778  11.907
22540W        W90870  28.128  38.921  11.954
22541W        W90871  25.506  40.525   2.892
22542W        W90872  26.646  39.830   4.692
22543W        W90873  29.086  40.493  14.409
22544W        W90874   1.389   3.361  12.849
22545W        W90875  40.919  19.116  10.489
22546W        W90876  28.155  17.300  12.542
22547W        W90877  21.679  26.487   3.207
22548W        W90878  30.938   4.396   2.312
22549W        W90879  38.898  16.653   0.750
22550W        W90880   5.738   8.673  12.053
22551W        W90881  16.715  26.599  11.510
22552W        W90882  32.487  11.667   3.635
22553W        W90883  25.492  40.827  11.481
22554W        W90884  34.016  20.071   4.269
22555W        W90885  41.390   6.871   3.222
22556W        W90886  26.007  18.116   1.306
22557W        W90887  43.330   5.351  10.427
22558W        W90888  39.048   7.274  14.877
22559W        W90889  26.127   6.739  14.936
22560W        W90890  27.183  12.827  13.360
22561W        W90891   4.257   7.860   1.866
22562W        W90892   7.286   4.413   1.741
22563W        W90893  23.029  18.657  11.956
22564W        W90894   8.884  28.489  12.410
22565W        W90895  15.215  11.845   3.747
22566W        W90896  11.308  26.554  14.316
22567W        W90897  39.904  29.100  13.056
22568W        W90898  31.606   5.739  10.536
22569W        W90899   4.789  39.386   3.835
22570W        W90900  26.029  19.177  13.808
22571W        W90901  18.106  34.084   1.705
22572W        W90902   7.260  31.905  11.107
22573W        W90903  39.822  15.172   4.597
22574W        W90904  40.322  40.391  12.564
22575W        W90905  27.094  15.197   0.293
22576W        W90906  32.077  40.514   4.304
22577W        W90907  34.877   7.195   1.856
22578W        W90908   8.687   5.391   1.430
22579W        W90909  35.950  32.079  11.032
22580W        W90910  44.948  22.655   3.746
22581W        W90911  19.231  32.399   1.429
22582W        W90912  37.339  11.363   0.366
22583W        W90913  19.578   1.871   0.370
22584W        W90914   0.750   3.756   3.823
22585W        W90915   8.251  25.511   3.231
22586W        W90916  41.893  24.219  13.962
22587W        W90917  42.351  30.117   2.690
22588W        W90918  40.534  43.432   0.866
22589W        W90919  23.075  30.916  12.921
22590W        W90920  40.365   9.881  11.436
22591W        W90921  25.582  44.991  13.896
22592W        W90922  19.226  34.119   0.321
22593W        W90923  30.413  31.126   1.772
22594W        W90924  29.494  32.532   0.751
22595W        W90925   5.929  22.741  12.833
22596W        W90926  10.327  11.307  13.505
22597W        W90927  42.885  16.706   4.672
22598W        W90928  22.175   1.310   0.874
22599W        W90929  35.407   3.402   0.466
22600W        W90930  18.702  15.152  12.904
22601W        W90931  16.192   1.751   4.292
22602W        W90932   7.710   6.682  10.893
22603W        W90933  41.963  18.687  10.940
22604W        W90934  26.501  26.979  14.454
22605W        W90935  42.936   2.433   0.407
22606W        W90936  15.667  35.577   1.219
22607W        W90937  30.016  36.039   0.757
22608W        W90938  18.587  28.965  14.407
22609W        W90939  22.013  19.580   3.352
22610W        W90940   7.303   6.787   4.700
22611W        W90941  43.276  41.843  14.381
22612W        W90942  15.687  21.615   5.308
22613W        W90943  17.599  22.048  14.369
22614W        W90944  30.114  40.375  13.975
22615W        W90945   4.894  38.067   1.934
22616W        W90946  19.169  11.206   0.401
22617W        W90947   0.805   2.894  14.511
22618W        W90948  34.488  30.998   3.229
22619W        W90949  26.621  17.285  13.889
22620W        W90950   9.849  30.962   1.743
22621W        W90951   4.410  44.946   4.746
22622W        W90952   7.242   3.303   0.741
22623W        W90953  25.646  39.030   1.268
22624W        W90954   4.809  26.112   1.360
22625W        W90955  25.577  42.468   0.888
22626W        W90956  41.796   0.969   4.669
22627W        W90957  33.518  19.052   0.479
22628W        W90958   6.910  31.518  11.493
22629W        W90959  32.922  13.314  14.923
22630W        W90960  28.569  27.088   1.866
22631W        W90961  38.034  38.326  13.508
22632W        W90962  19.169  22.115   4.794
22633W        W90963  19.777  39.368  10.612
22634W        W90964   2.804   5.704  11.952
22635W        W90965  12.203  39.539   0.760
22636W        W90966  40.376  33.561  13.911
22637W        W90967  23.107  13.672  12.073
22638W        W90968  16.698  35.869   4.286
22639W        W90969  21.090  37.524   1.322
22640W        W90970  30.096   4.342  14.960
22641W        W90971   7.854  43.402  13.055
22642W        W90972   2.433  41.802   2.681
22643W        W90973  28.933   3.437   0.766
22644W        W90974  44.462  26.569   1.350
22645W        W90975   1.752   4.410  11.952
22646W        W90976  25.095  16.194  11.426
22647W        W90977   2.936  18.765  11.965
22648W        W90978  31.521  42.504  12.982
22649W        W90979  22.717   6.796   3.258
22650W        W90980   9.851  29.467   1.226
22651W        W90981  40.316  30.453  12.071
22652W        W90982   7.813  24.210  10.430
22653W        W90983  14.621  24.070   0.843
22654W        W90984  39.342  10.807   0.832
22655W        W90985  23.539  32.574   3.635
22656W        W90986  28.585   3.889   4.330
22657W        W90987  38.071  26.567  13.455
22658W        W90988   5.795  23.540  14.831
22659W        W90989  25.654  20.229   2.280
22660W        W90990  25.484  17.724  12.937
22661W        W90991   2.470  29.624  10.501
22662W        W90992  32.075   8.191   4.162
22663W        W90993  39.950   0.850  11.505
22664W        W90994  14.616  36.440   1.252
22665W        W90995  12.180  36.841   2.187
22666W        W90996   5.199   6.200  10.426
22667W        W90997  23.141  41.501   1.899
22668W        W90998  27.953  10.332  11.044
22669W        W90999  24.659  25.085   4.212
22670W        W91000  28.049  12.619  12.061
22671W        W91001  11.717  39.426  11.473
22672W        W91002  39.005   0.783  13.548
22673W        W91003  44.978  34.897   4.803
22674W        W91004  25.139  37.366   2.275
22675W        W91005  36.969  36.359  14.402
22676W        W91006   8.360  26.155  13.434
22677W        W91007   8.357  14.191   1.904
22678W        W91008  33.902  23.086  11.495
22679W        W91009   6.235  43.864   2.902
22680W        W91010  28.044  44.792  11.991
22681W        W91011  36.896  44.911  14.014
22682W        W91012   0.850  40.960  11.376
22683W        W91013  43.844   9.807   3.235
22684W        W91014  11.342  21.219   4.186
22685W        W91015  43.965  20.670  13.433
22686W        W91016  29.012  36.857  13.031
22687W        W91017  35.468  31.985   1.863
22688W        W91018  13.241  29.622  10.569
22689W        W91019   7.740   3.774   4.302
22690W        W91020  21.562   2.276   2.672
22691W        W91021  42.961  14.648   4.600
22692W        W91022  26.100  14.311   4.836
22693W        W91023  19.714   7.408   4.605
22694W        W91024  16.293   2.791   1.818
22695W        W91025   5.362  34.437  10.973
22696W        W91026  39.387  16.592   2.181
22697W        W91027  36.409  29.080  13.867
22698W        W91028  18.263  32.475   1.413
22699W        W91029  40.916  42.471  13.474
22700W        W91030   1.250  28.157  11.978
22701W        W91031  38.026   2.859   2.845
22702W        W91032  12.848  33.896   2.256
22703W        W91033  27.944  35.381  12.493
22704W        W91034  28.458  39.515   4.793
22705W        W91035  18.255  16.207  14.328
22706W        W91036  43.504  33.088   0.800
22707W        W91037   8.675   2.394  14.924
22708W        W91038  10.649   7.240   0.473
22709W        W91039  38.018  31.468  10.526
22710W        W91040  22.234  31.132   3.175
22711W        W91041  40.875  30.602   3.684
22712W        W91042  34.602  16.606   3.834
22713W        W91043  35.549   5.349  12.921
22714W        W91044  11.700  27.459   0.750
22715W        W91045  27.054  22.195   2.389
22716W        W91046  37.037  20.628  10.570
22717W        W91047  35.482   1.351  12.920
22718W        W91048   4.376  29.661   1.312
22719W        W91049  15.161  36.092  10.518
22720W        W91050  14.227  42.872   0.812
22721W        W91051  41.307   8.858   2.753
22722W        W91052  15.300  38.072  13.532
22723W        W91053  27.581  22.026  14.974
22724W        W91054  29.956   0.460   0.306
22725W        W91055  30.969  22.700  12.859
22726W        W91056  27.197  21.534   3.242
22727W        W91057  35.971   3.765   4.172
22728W        W91058  29.594  36.042   4.697
22729W        W91059  16.643   2.465  11.064
22730W        W91060  11.272  10.731   4.342
22731W        W91061   8.377  21.570  13.444
22732W        W91062  28.023  35.895  12.889
22733W        W91063  41.422  18.085   4.782
22734W        W91064  14.729   4.936   2.895
22735W        W91065  23.182  28.986   1.779
22736W        W91066  36.991  29.943  14.814
22737W        W91067  11.132  42.443  12.506
22738W        W91068   6.763   3.303   2.237
22739W        W91069  31.086   4.273  13.848
22740W        W91070   4.277  29.029   1.909
22741W        W91071  41.010  41.020  11.024
22742W        W91072   4.317  26.682  12.842
22743W        W91073   8.169  20.109   1.922
22744W        W91074  36.020  13.764  11.542
22745W        W91075   7.355  17.246  14.508
22746W        W91076   2.430  23.995   1.289
22747W        W91077   3.279  44.936  12.880
22748W        W91078  25.554   1.850   1.742
22749W        W91079   2.821  32.637   3.335
22750W        W91080  11.321  44.769  13.828
22751W        W91081  14.240  18.141   4.211
22752W        W91082   0.453  44.494  10.902
22753W        W91083  31.937  22.664   1.736
22754W        W91084  17.113   2.906  12.381
22755W        W91085  25.142  36.370  13.904
22756W        W91086  12.807  13.245   3.737
22757W        W91087   9.376  30.643   3.334
22758W        W91088  43.303  10.702   0.729
22759W        W91089   6.694  38.548   2.205
22760W        W91090   3.852  18.231  12.457
22761W        W91091  29.094  40.388  10.423
22762W        W91092  11.861  25.604   4.671
22763W        W91093   2.880  11.277   1.236
22764W        W91094  40.418   4.817   5.179
22765W        W91095  14.711  27.678   0.888
22766W        W91096  17.790   4.424  12.535
22767W        W91097  40.382  20.161   1.770
22768W        W91098  25.560  15.625   1.903
22769W        W91099   5.317   5.224   3.651
22770W        W91100  40.528   3.456   3.811
22771W        W91101  42.403  40.926   4.341
22772W        W91102   8.283  44.316  13.791
22773W        W91103  36.011   2.784  12.852
22774W        W91104  23.995   7.407   9.986
22775W        W91105  39.910  35.419   4.222
22776W        W91106  32.967  16.664   4.172
22777W        W91107  31.055  19.175  11.595
22778W        W91108  30.523  43.273   0.962
22779W        W91109  18.090  35.900   4.764
22780W        W91110  32.468  20.040  13.351
22781W        W91111   5.790  29.619  12.969
22782W        W91112  43.326  30.160  13.403
22783W        W91113  23.242  31.021  12.523
22784W        W91114  13.645  26.548  13.897
22785W        W91115  22.664  27.093  14.403
22786W        W91116  22.047  42.929  10.989
22787W        W91117  22.241  15.143  12.096
22788W        W91118  19.239  35.358   4.150
22789W        W91119  24.034  29.938  11.465
22790W        W91120  27.982  40.491   0.838
22791W        W91121  36.509   3.824  14.333
22792W        W91122   7.752  10.380   3.815
22793W        W91123  37.851  21.037  13.371
22794W        W91124  43.947  37.526   4.725
22795W        W91125   9.221  22.201  14.325
22796W        W91126  18.098  13.716  11.482
22797W        W91127   7.248  13.295   2.333
22798W        W91128   0.836  30.580  12.492
22799W        W91129  12.730  11.720  12.397
22800W        W91130  36.003  23.674  13.517
22801W        W91131   2.890  17.202   1.243
22802W        W91132   0.445  28.469   0.355
22803W        W91133   5.902  23.122  13.385
22804W        W91134  32.392  40.494  14.953
22805W        W91135  12.339  34.865  11.600
22806W        W91136  16.649  23.659  10.080
22807W        W91137  26.457  18.182   4.291
22808W        W91138  34.965  29.984   2.293
22809W        W91139  22.628   1.442  13.438
22810W        W91140  10.772  12.611   1.413
22811W        W91141  21.172  12.747  12.082
22812W        W91142  21.200  24.693   2.296
22813W        W91143  18.663   4.876  10.493
22814W        W91144   8.884  14.788   1.405
22815W        W91145  14.220   9.870  14.943
22816W        W91146   5.907  14.204   0.818
22817W        W91147   2.848  36.491   3.849
22818W        W91148  23.727  42.865   2.718
22819W        W91149  34.580  37.522  10.473
22820W        W91150  42.920   0.817  11.372
22821W        W91151  17.297   3.720   2.391
22822W        W91152   5.193  14.639  11.983
22823W        W91153  42.846  30.610  12.916
22824W        W91154  34.404  16.258  10.908
22825W        W91155  35.883  39.418   1.767
22826W        W91156  13.836  32.421   3.641
22827W        W91157  23.518  35.900  14.807
22828W        W91158  41.030  25.692  14.026
22829W        W91159  18.746  37.993  12.022
22830W        W91160  29.438   6.849  10.428
22831W        W91161  27.047   2.842   0.378
22832W        W91162  42.281  42.945  13.533
22833W        W91163  30.498  18.157   3.329
22834W        W91164  24.533  27.499   2.875
22835W        W91165  19.757  33.521  11.488
22836W        W91166  38.512  42.847  11.918
22837W        W91167  10.824  18.206   1.398
22838W        W91168   2.420  10.163  11.117
22839W        W91169  14.247  41.501   1.335
22840W        W91170  11.747  20.164  14.449
22841W        W91171  39.485  33.484  14.511
22842W        W91172   8.396   4.423  10.483
22843W        W91173   5.289  30.612  12.565
22844W        W91174  15.639   0.420   9.956
22845W        W91175   3.266  38.333  12.065
22846W        W91176   0.315  44.462   3.297
22847W        W91177   5.721  10.280  12.559
22848W        W91178  11.214  19.104  14.398
22849W        W91179  31.913  37.367  13.018
22850W        W91180  43.838  35.489   1.704
22851W        W91181   7.404  34.435  13.901
22852W        W91182  13.315  41.527   5.162
22853W        W91183  13.846  38.531  11.011
22854W        W91184   2.339  13.717   2.331
22855W        W91185  43.300  31.969  13.431
22856W        W91186   1.844  35.045  10.485
22857W        W91187  43.493  23.632  11.415
22858W        W91188  32.557  28.521   2.815
22859W        W91189   4.358  27.551   2.237
22860W        W91190   4.233  37.378   1.821
22861W        W91191  31.900  33.537   3.252
22862W        W91192   4.734  41.465  13.479
22863W        W91193  22.107  29.460  11.431
22864W        W91194  22.125  17.062  13.493
22865W        W91195   6.865  43.427   2.877
22866W        W91196  27.017  41.510  10.952
22867W        W91197  34.896  14.808   0.840
22868W        W91198  24.136  39.977  12.029
22869W        W91199  28.669  42.792  13.851
22870W        W91200  23.205   9.316   1.267
22871W        W91201  28.578  36.048   3.327
22872W        W91202  23.201  22.745  12.959
22873W        W91203   9.673  14.255  13.860
22874W        W91204  17.717  25.631  14.899
22875W        W91205  38.437  35.412  11.932
22876W        W91206   9.159  38.005  11.554
22877W        W91207   9.720  23.086  11.491
22878W        W91208  12.206  37.580  14.010
22879W        W91209   2.398  29.174  14.856
22880W        W91210  38.379  23.572  10.506
22881W        W91211  15.783   0.833   5.232
22882W        W91212  26.587  10.841  13.325
22883W        W91213  23.533  37.544  13.921
22884W        W91214  18.116  14.149   4.714
22885W        W91215   8.691  10.746   4.809
22886W        W91216  11.301   7.856  14.830
22887W        W91217  42.969  39.435  14.296
22888W        W91218  16.591  27.021  13.064
22889W        W91219  42.972  43.855   0.728
22890W        W91220  32.597  29.593  14.328
22891W        W91221  33.490  15.782   5.181
22892W        W91222  14.735   6.405  11.901
22893W        W91223  28.023  41.999  10.054
22894W        W91224  44.386  43.818  13.028
22895W        W91225  25.614  19.667   2.184
22896W        W91226  39.431   6.918  10.138
22897W        W91227   9.259  33.124   4.779
22898W        W91228  23.167   7.780   4.280
22899W        W91229  10.304   2.755  11.452
22900W        W91230  17.236  20.578   0.311
22901W        W91231   6.342   1.792  13.310
22902W        W91232  38.439  12.836  13.309
22903W        W91233  30.001  40.547  11.536
22904W        W91234   6.418  38.562  11.004
22905W        W91235  30.484  31.516  14.936
22906W        W91236  27.154  32.898   5.293
22907W        W91237  35.090  28.014   3.207
22908W        W91238  37.567  20.070   1.837
22909W        W91239  36.532  40.479   2.214
22910W        W91240  42.429  20.239   4.219
22911W        W91241   9.673  30.081  11.068
22912W        W91242  43.870   6.368  14.766
22913W        W91243  14.684  29.971   4.660
22914W        W91244  39.829  28.666  11.996
22915W        W91245  10.166  11.261  10.147
22916W        W91246  27.050   6.184  11.463
22917W        W91247   5.431  36.423  11.572
22918W        W91248   6.247  21.578   1.335
22919W        W91249  12.209  25.104   2.413
22920W        W91250  39.048  18.271  14.945
22921W        W91251   0.444  39.875   3.201
22922W        W91252   4.260   2.371   0.752
22923W        W91253  18.069  20.233  11.881
22924W        W91254  23.232  19.258  14.836
22925W        W91255  17.275  24.025   3.694
22926W        W91256  30.454  20.151   3.275
22927W        W91257  21.264  30.086  11.567
22928W        W91258  17.648  20.055  14.807
22929W        W91259   7.360   0.349   1.915
22930W        W91260  42.393   7.171   0.735
22931W        W91261  30.460  18.163  13.988
22932W        W91262  32.114  19.224   3.632
22933W        W91263  14.805  16.293  11.538
22934W        W91264  20.710  37.957   0.835
22935W        W91265  43.292  18.059   3.353
22936W        W91266   5.360  41.002   4.233
22937W        W91267   0.389   0.799   4.604
22938W        W91268  38.443   4.924  12.955
22939W        W91269  23.613   0.751  14.793
22940W        W91270  30.144  32.981   2.237
22941W        W91271  10.345  18.297   2.888
22942W        W91272  35.424  40.846   1.878
22943W        W91273  28.560  39.448   3.866
22944W        W91274  25.587   3.324  14.331
22945W        W91275  33.587  30.954  11.551
22946W        W91276  33.498   3.447  13.807
22947W        W91277  37.536  21.103  12.357
22948W        W91278  41.959  14.623  12.032
22949W        W91279  21.623  10.306  12.984
22950W        W91280   8.782  41.004  12.462
22951W        W91281  30.040   5.313   0.760
22952W        W91282  42.321  34.084   0.264
22953W        W91283  24.724   9.752   2.876
22954W        W91284   7.288  10.191   4.180
22955W        W91285   6.723   7.410  12.341
22956W        W91286  30.983  15.105  14.004
22957W        W91287  12.770  21.672   0.943
22958W        W91288  26.197  29.159   0.734
22959W        W91289  22.531  43.906  13.448
22960W        W91290  30.130  38.345   2.324
22961W        W91291  15.718  18.056   2.340
22962W        W91292  33.393  20.551   2.872
22963W        W91293   7.362  32.945  13.042
22964W        W91294  32.100  11.713   2.700
22965W        W91295  30.548   7.803   0.291
22966W        W91296  29.483  44.322   3.347
22967W        W91297  36.082  30.615   4.131
22968W        W91298   1.293   6.214   2.688
22969W        W91299  18.152  32.394   3.750
22970W        W91300  10.805   4.316  13.455
22971W        W91301  39.943  34.485  12.082
22972W        W91302  37.981  40.522  10.140
22973W        W91303  22.541  19.192   3.691
22974W        W91304  33.415  13.197   1.839
22975W        W91305  37.376  16.190   4.351
22976W        W91306  18.637  22.054   1.313
22977W        W91307  23.730  10.754   0.758
22978W        W91308  30.455  33.006  12.049
22979W        W91309  39.454  12.302  12.399
22980W        W91310  28.149  39.338  11.523
22981W        W91311   0.470   9.848  14.390
22982W        W91312  36.023  13.148   0.288
22983W        W91313   5.830  42.833   0.318
22984W        W91314  14.147   3.305   5.177
22985W        W91315  35.973  21.122   2.861
22986W        W91316  37.936   6.221  14.364
22987W        W91317  42.448  30.578   2.720
22988W        W91318  14.707  21.184   2.282
22989W        W91319   0.302  43.973   1.904
22990W        W91320  38.431   0.371   0.412
22991W        W91321  28.030  28.080  13.813
22992W        W91322   3.248   4.410  13.965
22993W        W91323  10.789  40.894   2.760
22994W        W91324  25.532  34.059  12.408
22995W        W91325  40.491  21.589   1.268
22996W        W91326  44.439  17.631   1.848
22997W        W91327   8.226  20.635  12.468
22998W        W91328  44.412  19.185   3.363
22999W        W91329  12.351  27.977  10.627
23000W        W91330  36.374  23.525   1.783
23001W        W91331  32.034  12.239  12.984
23002W        W91332   3.439  42.872   3.787
23003W        W91333  20.738  36.444   1.803
23004W        W91334  30.622  43.455   3.238
23005W        W91335  40.883   3.362  12.903
23006W        W91336  24.616  32.600   0.837
23007W        W91337   3.406  19.102   2.838
23008W        W91338  30.461  17.752  10.614
23009W        W91339  16.130  20.548   1.718
23010W        W91340  31.075  41.822   3.803
23011W        W91341  14.258  19.638   3.317
23012W        W91342   3.405  13.742   0.926
23013W        W91343  31.137   0.893   3.202
23014W        W91344  38.935  15.786   0.798
23015W        W91345  23.546  43.312  14.774
23016W        W91346  40.371   7.247  14.288
23017W        W91347   2.752  34.438   1.302
23018W        W91348   8.167   8.840   4.175
23019W        W91349   4.313  15.696  11.517
23020W        W91350   0.902  41.859   0.762
23021W        W91351   3.443  13.768   2.286
23022W        W91352  15.716   7.416  12.350
23023W        W91353  28.539   5.776  13.982
23024W        W91354  44.339  20.114  13.037
23025W        W91355   6.279  11.180  14.971
23026W        W91356  17.749   7.289   1.865
23027W        W91357  34.532  16.789  13.357
23028W        W91358   2.946  41.338   2.349
23029W        W91359  14.767  22.204  14.313
23030W        W91360  24.030  41.883  14.407
23031W        W91361  39.448  26.114   3.866
23032W        W91362  14.330  23.136  13.518
23033W        W91363  26.117  19.565   2.795
23034W        W91364   3.782  44.834   3.159
23035W        W91365  32.099  23.588   1.830
23036W        W91366  39.450  36.042  13.800
23037W        W91367  28.680   2.902  13.843
23038W        W91368  32.425  17.202  11.962
23039W        W91369  30.098  39.885  12.414
23040W        W91370  13.768   3.383  14.422
23041W        W91371   4.773  16.688   4.776
23042W        W91372  20.216  11.768  10.161
23043W        W91373  40.435  15.626  13.062
23044W        W91374  25.103  19.656   4.147
23045W        W91375  27.029  32.581   0.252
23046W        W91376   4.779  31.990  11.913
23047W        W91377  15.207  19.584   2.901
23048W        W91378  25.591   7.719  11.487
23049W        W91379  29.123  26.485   0.757
23050W        W91380   5.807  19.692  11.958
23051W        W91381  33.597  32.038  10.406
23052W        W91382  31.455  27.071  13.470
23053W        W91383  25.500  38.540   1.409
23054W        W91384  27.452  39.828  13.939
23055W        W91385  14.186  11.373  14.882
23056W        W91386  39.056  44.915  11.111
23057W        W91387  15.798  36.880   2.697
23058W        W91388  19.627  30.603   1.898
23059W        W91389  17.628  24.213  12.571
23060W        W91390   6.897   6.882  11.397
23061W        W91391   7.901  33.962   4.336
23062W        W91392  22.060  19.184  13.327
23063W        W91393   5.351  27.645  11.945
23064W        W91394  35.983  34.943   2.800
23065W        W91395  35.370  39.829   2.710
23066W        W91396  15.283  19.277   1.300
23067W        W91397  23.122  43.506   3.191
23068W        W91398  26.189   7.879  10.526
23069W        W91399  17.069  20.746  10.404
23070W        W91400  19.271  43.432   1.767
23071W        W91401   2.340  36.890   2.289
23072W        W91402   5.786  16.193   2.665
23073W        W91403  35.513   7.288  13.843
23074W        W91404  38.385  36.424   4.190
23075W        W91405  33.534  17.698  11.454
23076W        W91406   5.916  35.951  14.512
23077W        W91407  42.024  43.407   0.897
23078W        W91408  15.236  30.443  11.032
23079W        W91409  44.265  33.556   1.429
23080W        W91410  38.476  26.560   0.392
23081W        W91411  31.150  15.087  14.848
23082W        W91412  25.092  24.979   2.793
23083W        W91413  14.339  30.981   2.767
23084W        W91414  12.123   7.329  11.946
23085W        W91415  20.231  10.166   1.712
23086W        W91416  36.064   4.328  11.983
23087W        W91417  10.777   1.261   2.208
23088W        W91418  25.080  21.054   2.710
23089W        W91419  22.608  28.516  10.482
23090W        W91420  20.619  35.596   3.262
23091W        W91421  32.483  10.678  11.439
23092W        W91422  10.348  12.754   4.161
23093W        W91423  40.944  34.872  13.370
23094W        W91424  18.726   4.436  10.895
23095W        W91425   2.794   0.813  13.874
23096W        W91426  24.679  30.019  12.456
23097W        W91427  25.510  22.175  12.388
23098W        W91428  33.971  34.381   1.444
23099W        W91429   6.273   2.900   2.819
23100W        W91430   9.792  41.406  14.786
23101W        W91431  13.122   5.384   1.844
23102W        W91432  32.624  43.888   0.459
23103W        W91433  44.341  22.723   0.265
23104W        W91434  15.656  12.335  10.433
23105W        W91435  43.381  39.361  11.562
23106W        W91436  22.633  30.559   5.197
23107W        W91437  22.542   8.245   4.274
23108W        W91438   2.744  40.864   3.806
23109W        W91439  44.418  25.088   3.773
23110W        W91440  10.363  41.432   1.884
23111W        W91441  23.615   6.337  12.383
23112W        W91442  27.103  36.920  14.510
23113W        W91443   0.250   1.870  10.619
23114W        W91444  11.750  33.054   4.224
23115W        W91445  21.565  28.076   0.441
23116W        W91446  44.898   5.282  10.463
23117W        W91447  12.118  22.732  13.899
23118W        W91448   2.326  15.186   0.771
23119W        W91449  18.544  44.328   0.921
23120W        W91450   2.429  40.042   4.747
23121W        W91451  15.794   7.767   4.242
23122W        W91452   6.796  14.782   0.770
23123W        W91453   0.862  42.029   1.400
23124W        W91454   9.305   8.287  14.903
23125W        W91455  44.457  41.309   1.392
23126W        W91456   6.728   7.191  14.284
23127W        W91457  15.731  15.769   4.619
23128W        W91458  34.045  27.529  10.469
23129W        W91459   1.389   3.254  11.580
23130W        W91460  10.344   2.369   2.241
23131W        W91461  34.515  44.446   2.887
23132W        W91462   5.307  36.082   1.385
23133W        W91463  39.024  25.168  10.962
23134W        W91464  25.646   4.310   2.686
23135W        W91465   9.341   4.343   1.770
23136W        W91466  23.991  26.103   4.811
23137W        W91467  39.386  16.215   1.232
23138W        W91468   1.839  41.912  12.487
23139W        W91469  34.011   9.386  11.861
23140W        W91470  21.687  41.836  10.558
23141W        W91471  12.203   3.934   0.416
23142W        W91472  23.131  43.363   2.825
23143W        W91473   1.445   3.399   1.791
23144W        W91474  16.293   0.382  12.396
23145W        W91475   9.690  10.177   1.344
23146W        W91476  32.499  41.458  14.966
23147W        W91477  16.138  41.370   0.726
23148W        W91478  38.944  32.471  13.466
23149W        W91479  11.764  20.184  12.388
23150W        W91480  44.435   7.792  10.926
23151W        W91481  44.979  14.638  11.419
23152W        W91482  29.469  18.221   4.348
23153W        W91483   3.459  43.963   3.248
23154W        W91484   1.475  25.138   0.862
23155W        W91485  11.285  34.568  11.427
23156W        W91486   5.731  17.249   3.280
23157W        W91487  39.373  12.144   1.422
23158W        W91488   5.761   8.751   4.614
23159W        W91489  38.379  35.857  14.981
23160W        W91490  28.615  17.664   0.887
23161W        W91491  29.473  14.164  14.841
23162W        W91492  26.158  11.767   4.288
23163W        W91493  34.063  40.970   2.743
23164W        W91494   9.842  25.049   2.268
23165W        W91495  41.928  33.426   0.317
23166W        W91496   3.923  14.784   1.809
23167W        W91497   7.845  36.459   1.846
23168W        W91498  12.778  24.227   2.351
23169W        W91499  21.181   8.703   2.375
23170W        W91500   0.266  42.850  13.341
23171W        W91501   4.344  36.511  14.424
23172W        W91502   9.352  18.762  14.847
23173W        W91503   2.397  44.270   1.917
23174W        W91504   9.764  33.586  10.573
23175W        W91505  37.986  35.384  10.914
23176W        W91506  23.175  16.105  11.083
23177W        W91507  43.914  31.562  10.902
23178W        W91508  14.592  39.855  11.111
23179W        W91509  26.544  22.519   2.768
23180W        W91510  29.563  27.112  11.013
23181W        W91511  34.412  23.233  13.462
23182W        W91512  20.612   5.212  12.953
23183W        W91513  39.332  11.227  10.638
23184W        W91514  41.308  29.616  11.958
23185W        W91515  33.041  41.956  12.943
23186W        W91516   7.782  42.814  14.898
23187W        W91517  20.669   9.256  11.406
23188W        W91518   6.287  33.425   2.750
23189W        W91519   6.773  32.634   2.886
23190W        W91520   3.760  26.007  14.998
23191W        W91521  31.600   3.747   2.708
23192W        W91522  25.674  10.148  13.308
23193W        W91523  16.207  35.462  14.865
23194W        W91524  16.309  24.150   0.959
23195W        W91525  38.874  11.243  14.453
23196W        W91526   7.875  14.300   2.749
23197W        W91527  11.139   1.945   4.246
23198W        W91528  17.132   4.396   0.272
23199W        W91529  34.939  27.069   1.425
23200W        W91530  22.206  23.701   4.304
23201W        W91531  29.084  12.770   0.480
23202W        W91532  36.921  30.922   1.428
23203W        W91533  15.712  14.167  13.013
23204W        W91534  31.081  22.231  10.141
23205W        W91535  10.798  37.968  11.611
23206W        W91536  10.756  29.473   3.174
23207W        W91537  34.072  23.055  11.020
23208W        W91538  20.079  18.654  11.979
23209W        W91539  37.952  39.523   4.703
23210W        W91540   3.226  40.392  11.114
23211W        W91541  21.108  23.686  13.487
23212W        W91542  11.191  20.265  11.897
23213W        W91543  35.402  33.068   4.177
23214W        W91544   5.216  12.289  10.526
23215W        W91545  16.617  40.385  11.382
23216W        W91546  42.518  37.495  13.826
23217W        W91547   7.364  28.465  11.939
23218W        W91548  43.996  32.517  12.948
23219W        W91549   4.775  44.316  10.418
23220W        W91550  31.136  13.294  14.029
23221W        W91551  34.986   7.796  14.369
23222W        W91552   7.711   6.757   0.930
23223W        W91553  36.559  38.505  10.481
23224W        W91554  44.945  13.186   3.851
23225W        W91555  33.625  31.475  10.501
23226W        W91556  25.064  24.567   3.283
23227W        W91557   9.720   7.809  12.513
23228W        W91558  17.703   4.715   2.741
23229W        W91559  12.785  17.775   3.721
23230W        W91560  17.190   0.843   0.770
23231W        W91561   6.905  34.028   4.223
23232W        W91562  30.424  14.615   3.367
23233W        W91563  18.265   2.934   3.710
23234W        W91564  33.902  33.889   4.215
23235W        W91565  34.497  25.714  14.836
23236W        W91566  13.200  16.747  13.510
23237W        W91567  40.893  30.556   1.918
23238W        W91568  39.366  37.844  12.943
23239W        W91569  29.639  23.647   2.206
23240W        W91570  37.035  41.404  11.976
23241W        W91571  42.838   9.293  14.763
23242W        W91572  12.208  21.587   1.830
23243W        W91573  35.951  35.900  13.386
23244W        W91574  40.403  31.898  13.332
23245W        W91575  38.953  37.514  10.001
23246W        W91576  11.639  16.596   3.152
23247W        W91577  35.500   2.304  11.387
23248W        W91578  40.415  15.697  10.532
23249W        W91579   0.929  22.546  13.813
23250W        W91580  19.282  25.575  11.590
23251W        W91581  32.892  24.488   4.726
23252W        W91582  39.516  14.278  10.410
23253W        W91583  26.656  27.531  11.996
23254W        W91584   0.376  16.192  14.768
23255W        W91585   8.300  32.970   3.790
23256W        W91586  13.732   8.881  10.960
23257W        W91587  16.290  14.661  10.607
23258W        W91588  31.553   4.902  11.976
23259W        W91589  38.452  19.129  11.457
23260W        W91590  32.477  12.207  13.883
23261W        W91591  23.125  42.985   1.695
23262W        W91592  10.237  42.790  13.051
23263W        W91593  22.731  27.658   3.647
23264W        W91594  27.993  31.029   5.271
23265W        W91595   4.804   4.225   4.262
23266W        W91596  33.104  36.516   3.777
23267W        W91597   6.700  10.695   0.245
23268W        W91598  18.652   2.380  13.899
23269W        W91599  40.434  37.850  14.398
23270W        W91600  12.188  18.658  12.860
23271W        W91601  20.042  39.870  14.934
23272W        W91602   9.890  24.096   2.418
23273W        W91603  37.873  17.607  12.521
23274W        W91604  14.320  35.474   0.858
23275W        W91605   4.265   7.909   0.474
23276W        W91606  34.024   6.316  12.376
23277W        W91607  11.238  15.604  14.905
23278W        W91608  31.058  42.882   0.429
23279W        W91609  32.922  10.864   2.824
23280W        W91610  44.451  21.079   0.827
23281W        W91611  39.018   7.316  13.906
23282W        W91612  44.974  44.348   4.722
23283W        W91613  44.483   3.731  13.343
23284W        W91614  44.863  16.242   0.880
23285W        W91615  37.355  13.634  13.324
23286W        W91616  38.374  24.047  13.483
23287W        W91617  43.307  15.739  14.321
23288W        W91618   2.849  33.006  12.383
23289W        W91619  31.146   7.182  10.526
23290W        W91620  37.488   0.299   0.439
23291W        W91621  20.044  15.733   4.227
23292W        W91622   1.327  18.290   2.371
23293W        W91623  28.111  30.502   3.205
23294W        W91624   5.379  32.447   0.843
23295W        W91625  38.016   7.328  12.569
23296W        W91626  23.678  26.160   3.858
23297W        W91627  19.257   4.264  12.378
23298W        W91628   0.906  15.621   5.173
23299W        W91629  27.564  13.633  12.834
23300W        W91630  26.657  34.551   2.834
23301W        W91631  44.933  33.063   2.307
23302W        W91632   0.329   7.227  12.364
23303W        W91633   0.288  37.904  10.922
23304W        W91634  44.901  24.208  13.034
23305W        W91635  28.072  10.145   9.920
23306W        W91636  12.849  10.243  14.014
23307W        W91637  34.914  14.739   3.368
23308W        W91638   2.747  42.979   0.948
23309W        W91639  44.309  29.588   1.911
23310W        W91640  11.289  44.822   0.297
23311W        W91641   0.788  40.413  11.958
23312W        W91642  14.713  13.207  10.547
23313W        W91643  10.692   6.398  10.478
23314W        W91644  15.678  41.845   0.401
23315W        W91645  35.937  39.866  11.976
23316W        W91646  40.832  10.845   1.375
23317W        W91647  25.014  23.564  13.901
23318W        W91648  30.050  12.628   0.420
23319W        W91649   0.908   6.198  13.525
23320W        W91650  16.139  37.836  13.436
23321W        W91651  33.391  21.625   1.211
23322W        W91652  20.648  24.017  14.991
23323W        W91653   8.877  24.605   4.170
23324W        W91654  13.169  13.172  10.436
23325W        W91655   4.403   5.304   1.714
23326W        W91656  16.122  13.106  11.916
23327W        W91657  21.125  32.082   4.118
23328W        W91658  26.548  33.596   3.638
23329W        W91659  16.732   5.904   1.800
23330W        W91660  37.558  41.794   3.291
23331W        W91661  17.768  36.021   1.711
23332W        W91662  29.092   2.870   3.287
23333W        W91663   0.445  24.089   3.262
23334W        W91664   0.872   3.333   1.221
23335W        W91665  30.118  38.873   4.634
23336W        W91666  23.722   9.655  13.936
23337W        W91667  43.822  39.923   2.188
23338W        W91668  21.555   2.846   2.218
23339W        W91669  17.619  41.815  14.388
23340W        W91670  19.574  15.272   1.864
23341W        W91671   5.212  33.531  13.535
23342W        W91672  28.988  44.352  13.834
23343W        W91673  16.165  39.424  12.468
23344W        W91674  34.996  14.106  10.138
23345W        W91675  20.766  25.567  10.529
23346W        W91676  24.130   6.427  12.077
23347W        W91677  27.094  31.625   4.602
23348W        W91678  17.090  10.648   0.939
23349W        W91679  27.687   1.256   3.257
23350W        W91680  10.833  15.210  11.895
23351W        W91681  38.006  32.424   2.202
23352W        W91682  38.910   3.749   4.783
23353W        W91683  42.790   3.382  11.092
23354W        W91684  23.582  29.541  11.385
23355W        W91685  32.109  30.941  10.547
23356W        W91686  44.459  18.190  13.921
23357W        W91687  33.994  21.525   1.282
23358W        W91688   6.210  14.229   0.831
23359W        W91689   5.337  41.875   2.821
23360W        W91690  30.038   7.204   2.236
23361W        W91691   3.828  22.230   0.896
23362W        W91692  12.640  36.033  11.525
23363W        W91693  44.819  21.236  14.368
23364W        W91694   0.494  33.523   1.802
23365W        W91695  21.244   8.379  11.010
23366W        W91696   2.366  19.103  11.430
23367W        W91697   2.898  43.864   2.683
23368W        W91698  14.594  25.120  10.992
23369W        W91699  13.166  27.971  14.030
23370W        W91700  26.034   2.757   1.809
23371W        W91701   3.274   3.940  13.417
23372W        W91702  27.124  15.614  10.499
23373W        W91703  35.602  23.550  10.956
23374W        W91704   8.839   6.361   0.397
23375W        W91705  28.567   8.198   0.824
23376W        W91706  28.184  37.985  13.331
23377W        W91707  44.360   8.733   0.958
23378W        W91708  18.764  32.608   2.766
23379W        W91709   8.354  26.608  13.402
23380W        W91710   7.309  31.546   0.358
23381W        W91711  34.997   7.281   2.357
23382W        W91712  27.002  12.184   0.763
23383W        W91713   4.700  34.869   2.327
23384W        W91714   8.244   1.276  11.452
23385W        W91715   7.245  13.666   3.202
23386W        W91716  34.912  42.521   4.837
23387W        W91717  39.411   0.418  12.969
23388W        W91718  36.084  23.197  13.941
23389W        W91719   0.289  24.499   2.891
23390W        W91720   5.923  27.673   2.726
23391W        W91721  42.470  31.078   2.412
23392W        W91722  20.654  13.828   4.659
23393W        W91723  35.416  30.923   1.356
23394W        W91724   8.675  44.984  13.871
23395W        W91725   2.851   6.896  10.931
23396W        W91726  38.001  38.416   4.292
23397W        W91727  32.488  29.040   0.462
23398W        W91728   6.341  42.000  13.878
23399W        W91729  12.708  28.609   4.213
23400W        W91730  30.930  40.843   4.303
23401W        W91731  14.664  14.225   1.803
23402W        W91732   8.682  15.744  12.867
23403W        W91733  39.473  27.545   2.277
23404W        W91734  16.246  34.393  12.830
23405W        W91735   4.394  20.570  14.425
23406W        W91736  27.572  29.951   0.468
23407W        W91737   4.340  22.533  14.507
23408W        W91738  20.086   9.322   2.314
23409W        W91739  37.998   1.785   5.156
23410W        W91740  33.955  41.438   0.444
23411W        W91741  11.327  31.996   2.771
23412W        W91742   0.950  23.651  14.418
23413W        W91743  41.474   3.327  11.045
23414W        W91744  13.640  41.028  11.899
23415W        W91745  31.611  27.172  13.988
23416W        W91746  12.735  23.546   4.655
23417W        W91747  19.703  25.491  12.580
23418W        W91748   5.902  43.863  13.850
23419W        W91749  28.606  38.885  14.986
23420W        W91750  10.670  21.027  13.803
23421W        W91751  34.567  15.201  11.048
23422W        W91752   0.969  42.980   1.746
23423W        W91753  44.302  24.036   4.833
23424W        W91754   7.360  34.590  12.834
23425W        W91755  34.603   2.738   2.409
23426W        W91756   2.467  15.217   4.683
23427W        W91757  37.567  13.169  11.941
23428W        W91758   5.205  32.395  11.892
23429W        W91759   5.896  11.863   1.861
23430W        W91760  21.215  32.447   0.470
23431W        W91761  38.984  11.802   5.236
23432W        W91762  42.349  40.474   3.664
23433W        W91763   6.709  42.820   2.835
23434W        W91764  10.292  41.983   1.804
23435W        W91765   7.792   1.361  14.807
23436W        W91766  35.407  34.102  12.412
23437W        W91767  22.731  33.505   0.860
23438W        W91768  11.852  26.028   0.371
23439W        W91769  20.173  18.768   3.749
23440W        W91770   3.412  18.618  10.451
23441W        W91771   9.697   1.317   4.254
23442W        W91772  10.770  30.419   3.767
23443W        W91773  25.637   9.788   2.303
23444W        W91774  29.937  34.388   2.796
23445W        W91775  38.421  39.953   2.219
23446W        W91776  35.903  34.596   4.132
23447W        W91777   7.779  19.199   0.966
23448W        W91778  22.529  34.970  14.329
23449W        W91779   7.229  29.111  10.995
23450W        W91780   7.880  29.950  13.992
23451W        W91781  21.721  38.020  12.444
23452W        W91782   6.837  21.688   2.379
23453W        W91783   0.361  34.559   2.848
23454W        W91784  18.281   3.373   1.254
23455W        W91785  35.103  28.106  13.873
23456W        W91786  28.033   1.344   1.743
23457W        W91787  22.645  13.155  13.437
23458W        W91788  19.152  44.866   1.906
23459W        W91789  42.521  33.934   4.150
23460W        W91790  31.913  40.386   2.284
23461W        W91791  29.081   1.322  14.304
23462W        W91792  18.137  43.398   2.272
23463W        W91793  30.961  36.363  13.477
23464W        W91794  35.559   0.359  10.615
23465W        W91795   4.701  11.261  10.626
23466W        W91796   0.985  19.061  13.062
23467W        W91797   1.349  33.007  14.442
23468W        W91798  21.194  24.225  10.633
23469W        W91799  34.952  25.209  14.930
23470W        W91800  31.634  36.490  13.061
23471W        W91801  34.931  17.630  11.372
23472W        W91802  15.128  41.411   1.877
23473W        W91803  41.914   5.757  10.895
23474W        W91804   3.837   0.283   0.937
23475W        W91805  37.449  35.415  12.344
23476W        W91806   1.785  13.326   4.693
23477W        W91807  28.483   3.911   3.320
23478W        W91808  33.439   0.382  12.580
23479W        W91809  18.108  36.382   0.846
23480W        W91810  19.053   4.937  13.505
23481W        W91811   9.720  32.544   3.714
23482W        W91812  21.209  32.466  11.099
23483W        W91813   0.770  26.489  10.078
23484W        W91814   8.291  40.846   1.865
23485W        W91815   8.347  17.258   1.408
23486W        W91816   6.358   0.795   3.179
23487W        W91817   0.295  19.165  13.315
23488W        W91818   5.304   7.205   1.778
23489W        W91819   1.267  15.251   3.282
23490W        W91820  39.395  38.048  13.425
23491W        W91821  39.902  32.055  10.466
23492W        W91822  24.650  43.484  11.908
23493W        W91823  24.662  38.388  12.348
23494W        W91824  10.876  22.097  14.993
23495W        W91825  30.149   4.918  11.499
23496W        W91826  40.815  17.640   3.304
23497W        W91827  40.502  18.778   1.928
23498W        W91828  41.475   6.868  14.969
23499W        W91829  20.522  12.770  14.433
23500W        W91830  34.077   3.222  14.382
23501W        W91831  39.478   1.311  14.420
23502W        W91832  21.593  10.714  11.996
23503W        W91833  43.867   3.360  12.563
23504W        W91834  16.311  11.225  13.533
23505W        W91835  26.097  40.916   2.183
23506W        W91836   8.338  33.408   2.784
23507W        W91837  33.533   0.419  14.383
23508W        W91838  40.345  19.620  14.875
23509W        W91839  25.477  17.104   3.326
23510W        W91840  15.822  22.195   0.259
23511W        W91841  14.279  23.098   3.734
23512W        W91842  28.187  10.380   0.782
23513W        W91843  35.970   4.925  14.930
23514W        W91844  13.713  15.113  14.455
23515W        W91845   0.468  18.735  11.939
23516W        W91846  37.422  18.562   4.137
23517W        W91847  23.184   7.877   9.946
23518W        W91848  40.049  21.566  12.982
23519W        W91849  23.661  23.631   3.254
23520W        W91850  14.248  38.824   3.203
23521W        W91851  11.366  38.336   3.677
23522W        W91852  32.957  19.256   3.750
23523W        W91853  34.444  21.660   4.196
23524W        W91854  22.672  37.551  12.836
23525W        W91855   7.283  31.461  13.977
23526W        W91856  38.375  44.996  14.009
23527W        W91857  14.211  29.153  10.584
23528W        W91858  40.840  21.078   1.380
23529W        W91859  29.640   7.676  12.525
23530W        W91860  18.598  21.680  11.892
23531W        W91861  20.522  18.729  13.848
23532W        W91862  31.543   8.667   0.858
23533W        W91863  13.720   8.189   3.247
23534W        W91864  31.151  18.603   9.922
23535W        W91865  35.581  24.036  13.407
23536W        W91866   5.300  43.962  13.377
23537W        W91867  19.662  33.459   5.145
23538W        W91868  26.611  17.288  10.447
23539W        W91869   2.251  39.356   1.372
23540W        W91870  19.077  23.552  11.945
23541W        W91871   1.429  42.999   2.793
23542W        W91872  25.579   9.664  11.521
23543W        W91873  31.582  39.034   0.951
23544W        W91874   3.310  11.740  11.115
23545W        W91875   3.258  28.031   2.367
23546W        W91876  23.009  17.585  11.080
23547W        W91877  39.838  44.779  13.887
23548W        W91878  28.154  12.827   9.965
23549W        W91879  43.920   8.259   2.238
23550W        W91880  10.757  15.266  14.844
23551W        W91881  28.679  28.042  14.782
23552W        W91882  38.550  23.085  12.360
23553W        W91883   5.878  17.120  14.822
23554W        W91884  27.582  18.146   2.671
23555W        W91885   1.820  31.542  14.459
23556W        W91886  30.627   0.844   0.297
23557W        W91887   6.278  33.983  14.410
23558W        W91888  15.733   8.352  10.889
23559W        W91889   4.744  20.638  12.446
23560W        W91890  43.491  39.046  12.434
23561W        W91891   5.893   9.715  10.926
23562W        W91892  30.036  16.274  13.058
23563W        W91893  15.670  38.488  12.353
23564W        W91894  41.042  31.151  11.972
23565W        W91895  39.911  26.039  12.823
23566W        W91896  16.131   6.724  14.451
23567W        W91897  16.075  17.186   0.424
23568W        W91898  41.516  13.691  11.971
23569W        W91899  37.476  17.721  14.953
23570W        W91900  27.986  27.488  11.455
23571W        W91901  27.144  41.906  11.022
23572W        W91902  21.220   0.896   1.359
23573W        W91903   9.242  41.953  10.484
23574W        W91904   6.816   1.827  11.081
23575W        W91905  11.285   6.738   3.366
23576W        W91906   0.937   7.289  10.022
23577W        W91907  33.583  34.998  10.906
23578W        W91908  23.608  24.120   3.669
23579W        W91909  18.778  43.958   3.241
23580W        W91910  15.722  30.467   4.201
23581W        W91911   7.254   0.465  14.462
23582W        W91912  34.904  19.216  11.440
23583W        W91913  17.236  43.825   2.352
23584W        W91914  33.390  18.763   3.868
23585W        W91915  17.618  14.246   3.289
23586W        W91916  23.710  30.546   2.780
23587W        W91917  15.701   6.741  14.450
23588W        W91918  37.422   5.376   2.275
23589W        W91919   2.247  35.524  12.454
23590W        W91920  41.504  25.157   3.764
23591W        W91921  23.600   0.331   4.241
23592W        W91922  33.539  21.175  13.814
23593W        W91923  33.479  12.324   1.295
23594W        W91924   6.704  21.612  11.432
23595W        W91925  31.459  42.917  11.882
23596W        W91926  43.300  21.162  11.094
23597W        W91927   9.688   8.352  11.048
23598W        W91928  43.773  18.601   4.239
23599W        W91929   4.439   2.946  14.907
23600W        W91930  25.528  13.166  13.020
23601W        W91931  36.928  21.689   3.195
23602W        W91932  12.723  17.297   1.869
23603W        W91933  20.232  31.528   3.849
23604W        W91934  14.646  21.154  13.477
23605W        W91935  36.400  13.777   3.720
23606W        W91936  14.628  31.935   4.669
23607W        W91937  12.625  14.737  10.409
23608W        W91938  40.896  39.322  14.513
23609W        W91939   0.486   9.703   1.878
23610W        W91940   3.456   7.197  12.825
23611W        W91941  35.018  18.787   4.685
23612W        W91942   9.835  42.021  13.859
23613W        W91943  24.113  36.952  12.432
23614W        W91944  17.144  35.907  11.572
23615W        W91945   6.803  28.075   4.326
23616W        W91946  22.693   4.724  15.000
23617W        W91947  16.636  22.526   2.729
23618W        W91948  32.524   0.905  11.434
23619W        W91949  30.572  43.988  14.893
23620W        W91950  26.579  30.017   4.621
23621W        W91951   5.888  27.991   1.738
23622W        W91952   9.740  16.631   0.940
23623W        W91953  32.460  20.546   0.274
23624W        W91954  44.867  34.479  12.388
23625W        W91955  32.104  23.152   4.805
23626W        W91956   7.772  18.110  13.982
23627W        W91957  20.733   8.700  13.803
23628W        W91958  30.052  13.707  10.589
23629W        W91959  32.944   2.371   2.269
23630W        W91960   2.758   6.861   4.603
23631W        W91961  29.976  43.964  12.873
23632W        W91962  17.180  27.454   3.234
23633W        W91963  13.649   7.823  10.602
23634W        W91964  24.486  30.132  11.894
23635W        W91965  34.088  36.523  10.987
23636W        W91966  20.175   9.819   2.330
23637W        W91967  14.805  31.972   4.335
23638W        W91968  23.510  42.850   4.273
23639W        W91969  34.949   0.792   4.765
23640W        W91970   4.779  20.600   1.750
23641W        W91971  17.756  18.296  11.441
23642W        W91972  24.210   7.302  13.517
23643W        W91973  24.035   8.203  14.942
23644W        W91974  29.565  36.416  14.859
23645W        W91975   8.816  38.037   3.666
23646W        W91976  35.457  34.435  11.999
23647W        W91977   1.381  29.559  14.825
23648W        W91978   4.430   0.347   2.248
23649W        W91979  16.673  13.719  10.490
23650W        W91980   2.227  27.678  11.064
23651W        W91981  10.379  18.593   0.468
23652W        W91982   0.312  20.701   4.720
23653W        W91983   6.320   4.307  12.436
23654W        W91984  15.590  17.153  11.122
23655W        W91985  10.344  19.550   4.205
23656W        W91986   2.767   7.749   4.246
23657W        W91987  29.620   3.346  11.479
23658W        W91988  19.167  10.282  14.338
23659W        W91989  26.079   0.472  11.861
23660W        W91990  40.960  32.897   1.245
23661W        W91991  38.342  13.287  12.917
23662W        W91992  34.392  19.068  13.344
23663W        W91993  13.810  41.421  12.035
23664W        W91994  29.985  10.239   4.816
23665W        W91995  41.518  19.110   0.349
23666W        W91996  35.104  23.570  13.381
23667W        W91997  18.776  17.063   1.311
23668W        W91998  20.668  29.150  14.844
23669W        W91999   4.772  30.136   2.748
23670W        W92000  27.190  14.185  13.466
23671W        W92001  12.672  33.543  13.513
23672W        W92002  35.965  33.611  11.507
23673W        W92003  36.564  25.654   3.749
23674W        W92004   2.725   1.949   2.180
23675W        W92005  16.201  10.270  10.968
23676W        W92006  41.464  44.966  14.976
23677W        W92007  32.583   5.724  14.006
23678W        W92008  15.668  21.587   1.263
23679W        W92009  32.412  26.649   3.689
23680W        W92010  41.535  43.834   2.691
23681W        W92011  33.060  44.000  11.064
23682W        W92012   2.848  14.214   2.837
23683W        W92013   7.668  19.692  10.492
23684W        W92014  42.007  28.128   3.703
23685W        W92015   9.251  33.045   1.797
23686W        W92016  39.322  44.476  12.092
23687W        W92017  20.694  24.020   1.889
23688W        W92018  17.686  14.316   1.833
23689W        W92019  11.368   5.760  12.046
23690W        W92020  18.615   2.744  13.504
23691W        W92021  23.075  34.066  14.311
23692W        W92022   4.929   1.274   0.881
23693W        W92023  14.657   8.679  11.433
23694W        W92024  37.513  17.178   3.318
23695W        W92025  21.120   5.198  11.600
23696W        W92026  33.456   8.886  13.874
23697W        W92027   3.941  39.438   3.202
23698W        W92028  35.066   0.851  14.439
23699W        W92029   2.253   9.831  13.338
23700W        W92030   9.748   9.668  14.004
23701W        W92031  23.714  29.526   2.271
23702W        W92032  26.082  19.264  12.918
23703W        W92033  15.103  32.890  10.415
23704W        W92034  39.952  41.398   1.312
23705W        W92035   8.314  23.542   3.297
23706W        W92036   5.251  24.151  13.833
23707W        W92037  41.361  33.516   2.206
23708W        W92038  26.564  16.639   1.868
23709W        W92039  40.486  22.580  13.805
23710W        W92040  30.094  38.969  14.429
23711W        W92041  24.191  24.985   2.385
23712W        W92042  21.662  21.144  12.064
23713W        W92043   5.351  18.697   1.301
23714W        W92044  17.773  16.605  12.061
23715W        W92045  39.982   5.814   1.925
23716W        W92046  16.211   5.204  13.503
23717W        W92047  32.069  23.626   0.433
23718W        W92048  23.209  39.376  12.382
23719W        W92049  24.624   8.850  10.436
23720W        W92050  29.559  40.319   0.462
23721W        W92051  38.980  24.645   2.719
23722W        W92052  39.418  12.323  10.926
23723W        W92053  41.004  13.628   2.688
23724W        W92054  14.183  19.538   2.414
23725W        W92055  37.905  27.653  14.298
23726W        W92056  40.858  41.820  12.985
23727W        W92057  39.941  41.893   4.688
23728W        W92058  43.994  27.568  12.047
23729W        W92059  30.497  13.825  11.863
23730W        W92060   4.325  30.949  11.909
23731W        W92061  34.972  35.045   3.328
23732W        W92062  24.124  35.452  11.858
23733W        W92063  17.599  30.945   4.291
23734W        W92064  13.733  37.499  14.814
23735W        W92065  36.419  43.424   3.827
23736W        W92066  23.569  44.505  14.017
23737W        W92067  16.723   1.432  14.795
23738W        W92068   8.220   6.253  14.915
23739W        W92069  16.211  35.485  12.860
23740W        W92070   9.189  27.659  12.502
23741W        W92071  15.214  39.535  12.378
23742W        W92072   8.237  15.696   3.200
23743W        W92073  23.500  34.400   4.763
23744W        W92074   4.712  39.533  11.390
23745W        W92075  44.885  25.007  11.104
23746W        W92076   0.430   2.270   2.814
23747W        W92077   9.199  19.537   1.781
23748W        W92078  11.681  36.888  14.935
23749W        W92079   9.862   2.442  11.558
23750W        W92080  28.064   5.230   0.802
23751W        W92081  37.004  11.207   4.166
23752W        W92082  10.823  36.536  12.073
23753W        W92083  30.157   9.392  11.511
23754W        W92084  11.158  10.731  14.936
23755W        W92085   7.346  37.563   3.236
23756W        W92086  12.731  43.939  10.423
23757W        W92087  21.728   7.898  11.997
23758W        W92088  20.645  11.718  10.524
23759W        W92089  15.316  21.612  12.927
23760W        W92090  26.005  21.054   0.800
23761W        W92091  22.704   5.867  14.014
23762W        W92092  35.065  11.839  14.773
23763W        W92093  35.364   1.963   2.812
23764W        W92094  13.638  22.549   4.296
23765W        W92095  44.769  21.240   4.613
23766W        W92096   3.457  13.112   1.771
23767W        W92097  24.178  39.999   3.800
23768W        W92098  32.038   1.892   0.853
23769W        W92099   0.899  19.086  12.578
23770W        W92100  13.819  10.866   4.198
23771W        W92101  34.966   1.952  14.337
23772W        W92102   4.403  25.998   0.460
23773W        W92103  42.409  32.524   4.786
23774W        W92104  42.893  40.412   2.688
23775W        W92105  27.980  37.387   4.689
23776W        W92106   1.922  16.240   1.319
23777W        W92107  23.064  27.992   0.244
23778W        W92108  40.916   6.784  13.534
23779W        W92109   2.896  33.979   4.169
23780W        W92110  35.030  38.501   1.742
23781W        W92111  41.369  14.339  12.455
23782W        W92112   8.816  20.246  10.501
23783W        W92113  26.636  35.855   9.998
23784W        W92114  21.570  24.672   0.412
23785W        W92115  34.374   3.380   0.781
23786W        W92116   5.775  20.733   2.700
23787W        W92117  17.700  24.485  11.041
23788W        W92118  40.876  28.472   2.867
23789W        W92119   3.383  21.216   4.128
23790W        W92120   0.889   3.410  10.107
23791W        W92121  39.479  43.466  12.870
23792W        W92122  10.290  27.942   3.386
23793W        W92123  20.156  31.484   2.411
23794W        W92124   1.975  34.601  11.935
23795W        W92125   5.193   8.872  12.566
23796W        W92126  10.383  21.149  13.817
23797W        W92127  43.993  23.163  13.314
23798W        W92128   5.778  12.316  14.371
23799W        W92129  33.515   2.776   5.132
23800W        W92130  37.953   4.830   4.662
23801W        W92131  10.350  18.779  12.340
23802W        W92132   8.695   0.282   4.132
23803W        W92133  43.419  13.599  14.341
23804W        W92134  35.085   7.752  12.344
23805W        W92135  15.670   3.851   1.831
23806W        W92136  10.648  25.659  14.028
23807W        W92137  32.069  32.498  10.908
23808W        W92138   6.803  14.182  11.001
23809W        W92139   8.329  20.526   3.343
23810W        W92140  22.183  21.150  13.064
23811W        W92141  32.564   8.224  11.525
23812W        W92142  17.791   3.715  13.957
23813W        W92143  21.172   7.391  11.544
23814W        W92144   9.165  24.713  13.847
23815W        W92145  12.836  31.445  12.499
23816W        W92146  24.534  39.886   3.320
23817W        W92147  12.610   9.718   4.682
23818W        W92148  28.540  10.865   1.420
23819W        W92149  13.800  33.520  11.558
23820W        W92150   1.283  18.599   4.123
23821W        W92151   2.388  25.471  14.505
23822W        W92152  24.014  28.957  11.915
23823W        W92153   3.783   2.903   3.697
23824W        W92154  37.834  18.684   2.895
23825W        W92155  27.073  27.642   3.712
23826W        W92156  30.912  23.584   3.383
23827W        W92157  23.104   8.311  11.917
23828W        W92158  33.437   2.444   2.412
23829W        W92159   5.790  14.658   4.337
23830W        W92160  16.796  21.194   2.895
23831W        W92161  12.126  22.731  14.968
23832W        W92162  10.796  26.480   0.246
23833W        W92163  18.253  42.988  10.972
23834W        W92164  32.585  24.618  14.997
23835W        W92165  40.895   7.228   1.386
23836W        W92166  19.140  32.032   0.751
23837W        W92167  20.060  19.058  10.072
23838W        W92168   4.410   5.380   4.682
23839W        W92169   0.961  39.936  14.434
23840W        W92170  16.712  11.807   0.302
23841W        W92171  20.194  39.400   3.244
23842W        W92172  29.026  13.818   2.783
23843W        W92173  37.072  13.145  14.847
23844W        W92174   8.185   1.941   1.290
23845W        W92175   5.692  40.542   2.275
23846W        W92176  35.394  41.916   2.386
23847W        W92177  39.434  11.273  11.412
23848W        W92178  42.980  22.121   4.764
23849W        W92179  23.108   4.217  14.454
23850W        W92180  20.763   0.286  12.340
23851W        W92181  36.532  22.129  14.455
23852W        W92182  28.963  36.361   3.224
23853W        W92183  35.967  35.072  12.476
23854W        W92184  21.184   1.302   3.234
23855W        W92185   6.713  11.652   4.284
23856W        W92186   2.472  39.910   2.217
23857W        W92187   1.384   7.737  10.553
23858W        W92188  32.081  30.153   0.753
23859W        W92189  10.821  13.299   0.893
23860W        W92190  32.592  36.554   2.241
23861W        W92191  42.397  31.599  11.556
23862W        W92192  36.059  44.390   0.856
23863W        W92193  39.045  36.937   2.804
23864W        W92194  22.515   6.886  12.533
23865W        W92195  13.178  40.016   4.613
23866W        W92196  33.016   1.337  11.933
23867W        W92197  15.644  24.573  10.405
23868W        W92198   6.830  18.689  13.006
23869W        W92199  28.015  38.438   0.770
23870W        W92200  44.348   7.724   3.183
23871W        W92201  27.018  33.543   5.303
23872W        W92202  35.926   9.801  11.985
23873W        W92203  27.508  27.517   3.200
23874W        W92204  27.658  41.971  14.353
23875W        W92205  19.545  18.622  10.061
23876W        W92206  18.245   5.195   1.856
23877W        W92207  18.553  33.610   5.285
23878W        W92208  10.305  11.758   2.740
23879W        W92209  37.003  41.392   0.904
23880W        W92210  31.622  14.201   0.819
23881W        W92211  43.479  15.694   2.815
23882W        W92212  31.091  14.662  11.504
23883W        W92213  40.861  28.967   3.759
23884W        W92214  31.958   1.874  12.842
23885W        W92215  13.686  35.418  12.414
23886W        W92216  41.879  40.394   2.235
23887W        W92217  29.085   7.881  12.398
23888W        W92218  43.453  37.508   0.311
23889W        W92219   6.212  18.589  14.464
23890W        W92220  40.507  29.994   2.200
23891W        W92221  41.400  35.408   1.338
23892W        W92222   3.434  34.115  12.844
23893W        W92223  39.859  44.930   2.355
23894W        W92224  34.887   1.411   4.187
23895W        W92225   5.276  41.795  10.996
23896W        W92226  19.043  37.842   0.285
23897W        W92227   4.411   7.183  14.344
23898W        W92228  42.935   7.393  14.362
23899W        W92229   4.892   6.409  11.911
23900W        W92230  43.813  24.053  11.976
23901W        W92231  18.094  21.236   4.822
23902W        W92232  37.087  27.671   0.904
23903W        W92233   4.905  39.931  12.824
23904W        W92234  42.960  13.328   3.306
23905W        W92235  28.441  36.550  12.566
23906W        W92236  39.403  26.118  10.946
23907W        W92237   8.823   7.891  14.010
23908W        W92238  18.568  29.982  10.525
23909W        W92239  19.258  15.306   2.734
23910W        W92240  15.621  37.929  11.046
23911W        W92241  36.375   5.917   1.449
23912W        W92242  23.651  29.547   3.190
23913W        W92243  42.384  21.708   1.213
23914W        W92244  10.267   5.218   0.393
23915W        W92245  21.199  20.080  14.398
23916W        W92246   5.296  31.148  14.365
23917W        W92247   6.836  33.380  11.440
23918W        W92248  44.860  28.118  10.587
23919W        W92249  12.279  30.561  11.553
23920W        W92250   1.822   7.809   5.205
23921W        W92251  24.028  24.679  13.884
23922W        W92252   4.424  39.346  13.947
23923W        W92253  22.200   0.356   4.640
23924W        W92254  42.375  26.027  14.380
23925W        W92255  22.055  15.155  11.586
23926W        W92256  41.410  44.904  13.032
23927W        W92257  30.515  35.504  11.586
23928W        W92258  18.660   0.388  13.841
23929W        W92259  44.878  30.545   4.271
23930W        W92260  14.649  13.712  11.564
23931W        W92261  19.221  31.984  11.949
23932W        W92262  43.876   4.896  13.346
23933W        W92263  43.891  26.651   2.802
23934W        W92264  39.430  29.088  12.995
23935W        W92265  20.134  14.309   2.681
23936W        W92266  33.403  30.547   0.746
23937W        W92267  38.995  25.978  10.440
23938W        W92268  19.224   6.798   4.350
23939W        W92269   4.382  16.709  12.933
23940W        W92270  13.304  17.198  11.119
23941W        W92271  29.629  32.116   4.806
23942W        W92272  17.089  15.305  14.952
23943W        W92273  16.767  41.874  14.766
23944W        W92274   8.220  44.882   3.196
23945W        W92275  43.846   9.818   4.701
23946W        W92276   9.741  14.184   0.925
23947W        W92277   9.310  36.934  14.782
23948W        W92278  31.030   3.894  10.643
23949W        W92279  15.626  43.932   4.774
23950W        W92280  33.511   6.724   0.916
23951W        W92281  35.464  27.555  13.526
23952W        W92282  27.045  14.801  14.505
23953W        W92283  23.551  31.132   2.370
23954W        W92284   5.306  21.075   0.892
23955W        W92285   3.882  42.886   1.441
23956W        W92286  10.271   6.416   0.316
23957W        W92287  29.583  11.789  14.432
23958W        W92288  11.130  18.695  13.866
23959W        W92289  11.219  39.525  14.464
23960W        W92290  24.553  30.018  11.093
23961W        W92291  22.202   7.853   3.162
23962W        W92292  30.656  27.091   4.189
23963W        W92293  16.196   6.335  12.873
23964W        W92294  35.455  34.500  11.021
23965W        W92295   6.354  24.117   4.743
23966W        W92296  28.523  30.101  13.036
23967W        W92297  33.915  14.243   2.302
23968W        W92298  40.416   9.863  11.120
23969W        W92299   4.814  37.378   4.763
23970W        W92300  15.219  11.832   4.834
23971W        W92301  11.782   8.660  12.384
23972W        W92302  36.854   3.349   1.282
23973W        W92303   0.284   7.268  13.387
23974W        W92304  35.463  25.613   0.483
23975W        W92305  10.151  44.396   3.644
23976W        W92306  27.038  31.597  12.032
23977W        W92307  40.909  24.226   2.319
23978W        W92308  39.349  44.799  12.913
23979W        W92309  14.217  30.974  14.776
23980W        W92310  14.729  37.572   3.865
23981W        W92311  37.836  17.755  14.327
23982W        W92312  35.431   1.805   3.731
23983W        W92313  41.970  42.972   4.219
23984W        W92314   4.747   4.904  11.015
23985W        W92315  42.874  38.390  13.926
23986W        W92316   5.422  43.322  14.474
23987W        W92317  43.965  14.699   1.788
23988W        W92318  24.090   0.407  11.958
23989W        W92319  21.038  24.181   4.152
23990W        W92320  38.934  25.643  11.975
23991W        W92321  43.000  37.031   0.825
23992W        W92322  39.935  29.990  13.412
23993W        W92323  28.986  27.668   3.354
23994W        W92324  12.282  44.288   0.307
23995W        W92325  16.154  27.549   2.208
23996W        W92326  34.978   2.349  12.420
23997W        W92327   3.403  43.850  12.043
23998W        W92328  21.250  18.147   4.334
23999W        W92329  39.006  13.141   5.249
24000W        W92330  34.407   4.224  11.115
24001W        W92331   7.775   3.300  14.389
24002W        W92332   4.446   4.300  12.519
24003W        W92333  26.623  18.661   4.251
24004W        W92334   7.273  33.964  11.967
24005W        W92335   2.864  25.516   2.190
24006W        W92336  20.681  39.026   4.709
24007W        W92337  25.653  27.626   2.791
24008W        W92338  17.226  33.572   1.784
24009W        W92339  11.273  24.540  12.476
24010W        W92340  30.418  11.153   3.828
24011W        W92341  26.024  36.416  11.524
24012W        W92342  41.301   6.775  14.325
24013W        W92343  12.272  36.020   2.348
24014W        W92344   9.644  41.946   1.728
24015W        W92345  26.160  15.211  13.866
24016W        W92346  24.178  13.182  14.457
24017W        W92347  41.501   1.450  13.022
24018W        W92348  32.085  30.596  14.988
24019W        W92349  44.988  22.158   2.252
24020W        W92350  28.550  34.458   5.290
24021W        W92351  30.416   3.353  12.907
24022W        W92352   0.762   5.879   1.854
24023W        W92353  28.636  18.552   4.172
24024W        W92354  14.748  26.528  10.444
24025W        W92355  43.353   6.261  14.904
24026W        W92356  14.694   2.415   4.247
24027W        W92357  44.852  31.556  13.362
24028W        W92358  27.025  25.972  10.463
24029W        W92359  14.737  36.508  10.428
24030W        W92360   3.844  22.582   0.451
24031W        W92361  40.808   7.219   0.910
24032W        W92362  39.835   5.700   2.850
24033W        W92363  42.846  38.558  12.006
24034W        W92364  10.781  35.998   0.762
24035W        W92365  18.568   1.946  11.093
24036W        W92366   4.417   4.723   4.289
24037W        W92367  31.570  18.153   0.272
24038W        W92368  39.894  30.622  11.425
24039W        W92369  32.940  18.172   4.247
24040W        W92370  35.471   7.373   3.831
24041W        W92371  14.280  28.628  12.957
24042W        W92372  22.514  32.045  13.526
24043W        W92373  38.075  23.590   1.871
24044W        W92374  32.601  39.834  12.987
24045W        W92375  13.671  22.722   4.814
24046W        W92376  42.432  39.052   3.231
24047W        W92377  37.894  31.601   4.838
24048W        W92378  27.462  34.053   2.273
24049W        W92379  13.641   0.302   2.841
24050W        W92380   3.916  42.511  14.440
24051W        W92381   9.651  34.965  12.898
24052W        W92382  19.686  32.475  10.622
24053W        W92383  34.997  41.370  11.549
24054W        W92384  24.517  36.591  13.532
24055W        W92385  25.677  29.968  10.452
24056W        W92386  23.617  41.507  14.937
24057W        W92387   3.383  37.386   5.244
24058W        W92388  40.897  11.332  12.018
24059W        W92389  28.942  15.258  10.913
24060W        W92390  33.996  17.752  12.522
24061W        W92391  31.123  32.467  14.364
24062W        W92392  13.775  35.423   0.393
24063W        W92393  12.624  20.587  11.924
24064W        W92394  36.550  33.881  12.842
24065W        W92395  19.089  22.725  10.961
24066W        W92396  35.589  18.291  12.579
24067W        W92397   5.825  27.465  14.868
24068W        W92398  12.611  14.245   2.222
24069W        W92399  38.033   8.230  11.119
24070W        W92400   1.355  12.149   0.900
24071W        W92401  14.800  23.015   0.763
24072W        W92402   6.189  43.385   1.277
24073W        W92403  26.141   0.872   3.234
24074W        W92404  24.108   2.820  14.809
24075W        W92405  16.776  26.145  11.483
24076W        W92406   3.792  15.623  10.513
24077W        W92407  32.536  19.750   2.837
24078W        W92408   7.198  38.856  14.850
24079W        W92409  44.939  42.878  11.867
24080W        W92410  35.422  30.930   1.885
24081W        W92411  18.719  37.481   5.210
24082W        W92412  25.112  43.935  13.983
24083W        W92413  16.292  25.666   4.777
24084W        W92414  31.149  22.665  14.415
24085W        W92415  34.450  21.569  13.339
24086W        W92416  23.223  15.179  14.380
24087W        W92417  42.471  18.718   4.142
24088W        W92418  16.599   8.289  13.947
24089W        W92419  43.018  27.691  10.468
24090W        W92420   9.194  37.984   2.751
24091W        W92421   3.390  29.658  11.561
24092W        W92422  36.063  39.435   3.362
24093W        W92423  42.956  40.465   4.246
24094W        W92424  18.276   8.830   4.283
24095W        W92425  12.219  36.454   2.711
24096W        W92426  27.944  24.164  11.072
24097W        W92427  24.587   4.869  12.360
24098W        W92428  21.700  34.467   3.863
24099W        W92429   4.788   0.290  14.897
24100W        W92430  16.716  32.139  12.024
24101W        W92431  34.930  32.122  14.314
24102W        W92432  33.495  13.265   2.714
24103W        W92433  17.780  23.625  12.052
24104W        W92434  24.542  25.014   1.262
24105W        W92435  10.291  21.144   2.317
24106W        W92436  43.498  20.256  12.522
24107W        W92437   8.843  23.015   3.209
24108W        W92438  37.539  38.959  11.409
24109W        W92439  39.037  32.445  14.510
24110W        W92440  33.412   5.886   1.343
24111W        W92441  22.218  22.061   1.914
24112W        W92442  44.969   4.449  12.516
24113W        W92443   9.781  31.577   2.300
24114W        W92444  27.108  39.976  13.032
24115W        W92445   0.433  11.216  14.389
24116W        W92446  37.881  33.965   2.848
24117W        W92447  20.161  37.071   4.723
24118W        W92448  33.415  29.152  12.829
24119W        W92449  32.114  19.053  11.888
24120W        W92450  13.317   7.344   4.671
24121W        W92451  22.116  40.866  13.534
24122W        W92452  36.437  34.536  12.520
24123W        W92453   3.261  26.186  11.494
24124W        W92454  16.196  41.424   2.215
24125W        W92455  13.750  36.399  14.802
24126W        W92456  27.050  17.066  12.979
24127W        W92457  21.199  20.054  12.857
24128W        W92458  26.697  32.409  12.346
24129W        W92459   7.275  36.496   2.824
24130W        W92460  22.682  27.997  11.125
24131W        W92461  22.109  22.506   4.180
24132W        W92462  44.468  21.553   3.288
24133W        W92463   2.822   2.274   3.762
24134W        W92464  36.037  28.147   2.357
24135W        W92465  39.022  20.596   0.852
24136W        W92466  26.519  11.300  11.433
24137W        W92467   4.269  38.001   3.734
24138W        W92468   9.188  43.894   4.222
24139W        W92469  16.242  22.642   0.880
24140W        W92470   7.390  35.564   4.623
24141W        W92471  14.231  43.992  14.960
24142W        W92472  33.958  22.063   1.302
24143W        W92473  11.802  33.567   2.207
24144W        W92474  30.591   9.801  12.573
24145W        W92475  10.827  27.680  14.795
24146W        W92476  29.140   1.253  12.001
24147W        W92477  18.772  25.117  11.531
24148W        W92478  40.983   5.357   0.375
24149W        W92479   7.294  13.329  11.497
24150W        W92480   9.339  32.971  11.603
24151W        W92481   6.715  39.509   1.241
24152W        W92482  24.180  20.240   0.919
24153W        W92483  13.680  16.243  10.569
24154W        W92484   7.824   3.276  10.959
24155W        W92485  44.866  15.187  12.403
24156W        W92486   8.188   6.305   1.230
24157W        W92487  16.226  16.211  10.628
24158W        W92488  10.313  20.570  11.553
24159W        W92489  27.169  37.565  12.505
24160W        W92490   6.183  27.607  13.407
24161W        W92491   1.267  39.423   0.369
24162W        W92492  42.393   5.730   0.268
24163W        W92493   1.801  41.371  14.896
24164W        W92494  40.475   7.758   3.733
24165W        W92495  19.777   9.254  12.017
24166W        W92496  32.004  15.120   1.719
24167W        W92497   8.816  16.785   4.712
24168W        W92498  43.986  42.482   0.931
24169W        W92499  35.021   3.726  12.012
24170W        W92500  24.129  12.307   4.692
24171W        W92501  17.737  39.027  11.048
24172W        W92502  11.787   8.678   4.626
24173W        W92503  33.451  20.119   4.145
24174W        W92504  17.729  26.602  10.138
24175W        W92505  40.446  25.102  14.419
24176W        W92506  44.773   2.911  14.346
24177W        W92507  43.410  20.658  11.970
24178W        W92508  23.502  34.864   3.261
24179W        W92509   5.325  31.043  11.453
24180W        W92510  25.022  30.607   4.158
24181W        W92511  23.523  31.107   4.755
24182W        W92512  15.609  18.735   2.771
24183W        W92513  43.306  23.618   4.719
24184W        W92514  44.289   3.436   3.342
24185W        W92515  36.387  11.825  13.537
24186W        W92516  20.028  23.076  14.345
24187W        W92517  39.455   8.370   1.243
24188W        W92518  18.580   9.705   4.306
24189W        W92519  26.632  22.104   1.374
24190W        W92520   9.338  21.036   5.193
24191W        W92521   5.382   5.816  13.885
24192W        W92522   5.920  11.193  10.544
24193W        W92523  34.870  14.746  11.524
24194W        W92524   1.818  16.156  11.605
24195W        W92525  33.492   2.734   1.345
24196W        W92526  10.318  25.714   4.696
24197W        W92527  43.446  30.489   0.307
24198W        W92528   4.828  28.155  14.027
24199W        W92529  42.867  18.549  10.939
24200W        W92530  12.618   7.294   0.749
24201W        W92531  18.551  34.907   2.859
24202W        W92532  35.077   4.845   0.886
24203W        W92533  15.126  34.051  10.626
24204W        W92534  21.200  18.630  11.863
24205W        W92535  26.056  22.176  12.579
24206W        W92536  37.371   1.278  13.970
24207W        W92537  25.543  24.528  11.869
24208W        W92538   3.955  18.208   1.863
24209W        W92539  19.072   9.724   1.918
24210W        W92540   3.886  33.484  12.890
24211W        W92541  43.799   7.218   3.275
24212W        W92542  25.037  44.797   1.785
24213W        W92543  10.686  16.809   0.911
24214W        W92544  12.843  36.493   4.834
24215W        W92545   6.404  33.123  10.086
24216W        W92546  10.273  37.582   2.755
24217W        W92547  11.641   2.746  11.445
24218W        W92548  14.624   6.733  10.405
24219W        W92549  10.303  39.909  10.035
24220W        W92550  34.890  31.040   3.322
24221W        W92551  13.249  35.020  12.544
24222W        W92552   2.243  26.492  11.376
24223W        W92553  40.336  14.210   4.134
24224W        W92554  23.152  23.160  14.016
24225W        W92555  10.310  17.184  11.378
24226W        W92556  37.936  14.225  12.831
24227W        W92557  39.412  38.395  14.403
24228W        W92558  19.562  30.009   1.376
24229W        W92559  18.054  18.248   1.220
24230W        W92560   0.284  12.126   0.772
24231W        W92561  28.668  18.094  10.583
24232W        W92562  20.215   7.226   3.370
24233W        W92563  22.506  27.947  13.861
24234W        W92564   9.868  42.976   0.334
24235W        W92565  33.942  30.103  12.523
24236W        W92566   9.873   3.229   3.813
24237W        W92567  17.782   7.189  10.969
24238W        W92568  42.301  20.078   0.341
24239W        W92569   8.854   4.258  10.443
24240W        W92570  15.594  24.631   3.209
24241W        W92571  12.837   3.276  14.356
24242W        W92572  42.475  43.439  10.594
24243W        W92573  41.352  29.504  12.825
24244W        W92574  44.369  33.525   2.292
24245W        W92575   5.852  27.977  10.983
24246W        W92576   4.812  13.161  12.465
24247W        W92577  27.188  33.956  13.426
24248W        W92578   4.804  16.192  14.869
24249W        W92579  43.442  31.149  11.963
24250W        W92580   5.864  34.446  11.456
24251W        W92581  10.304  14.298  13.994
24252W        W92582  38.357  21.558   0.733
24253W        W92583  29.575  15.279   3.249
24254W        W92584  26.673  25.636  12.839
24255W        W92585  11.215  25.042   2.389
24256W        W92586  11.309  29.147   0.738
24257W        W92587   2.390  32.580   3.169
24258W        W92588  44.819   3.793   0.752
24259W        W92589  41.436   2.867  14.972
24260W        W92590  18.614  19.112  13.359
24261W        W92591   4.381  17.099  11.401
24262W        W92592  31.580  17.129  13.897
24263W        W92593  32.119   6.801  11.593
24264W        W92594  35.404  36.038   4.355
24265W        W92595   0.396  29.025  14.978
24266W        W92596  23.493  11.348  14.769
24267W        W92597   9.722  28.134  14.436
24268W        W92598  38.341  17.141   0.895
24269W        W92599   0.388   4.435   2.254
24270W        W92600   1.394  37.512   2.312
24271W        W92601   2.251  28.995   2.179
24272W        W92602  28.630  23.549  12.394
24273W        W92603  43.349  32.005  11.085
24274W        W92604   4.711  37.016  11.380
24275W        W92605  39.376  40.516   2.732
24276W        W92606  34.553  36.563  12.854
24277W        W92607  25.630  36.018   3.312
24278W        W92608   2.879   7.799  10.506
24279W        W92609  15.762  35.406   0.305
24280W        W92610   1.823  22.236   0.913
24281W        W92611  26.954  12.236  13.902
24282W        W92612  43.980   4.446   2.180
24283W        W92613  39.370  31.008  10.596
24284W        W92614  42.875  34.428   0.327
24285W        W92615  25.076  42.891  13.991
24286W        W92616  37.008   8.764   0.474
24287W        W92617  26.628  17.591   4.683
24288W        W92618  18.126  27.133  13.020
24289W        W92619  14.666  33.911   3.645
24290W        W92620  29.108  18.598   2.751
24291W        W92621  42.453  26.141   0.822
24292W        W92622   5.923  17.067   2.761
24293W        W92623  37.423  35.880  11.011
24294W        W92624  43.940  25.488  11.545
24295W        W92625  11.829   7.818   0.352
24296W        W92626  31.081   4.282  14.972
24297W        W92627   7.262   6.253   2.726
24298W        W92628   1.314  21.606   2.398
24299W        W92629  32.077   5.385   1.393
24300W        W92630  10.375  44.985  14.974
24301W        W92631  37.944  11.711  13.870
24302W        W92632  20.614  18.551  10.540
24303W        W92633  19.774  41.471  14.994
24304W        W92634  42.950  23.049   3.384
24305W        W92635  23.672   8.785  10.959
24306W        W92636  10.281  16.188  11.056
24307W        W92637  31.081  37.380   2.717
24308W        W92638  29.503  13.693  13.431
24309W        W92639  29.153  12.146   1.921
24310W        W92640  43.834   6.301   4.264
24311W        W92641  32.462  39.849   0.842
24312W        W92642  31.570  23.707   3.686
24313W        W92643  17.205  36.980   2.302
24314W        W92644  43.288  26.027  12.387
24315W        W92645  10.775  23.054   2.691
24316W        W92646  38.407   4.843  12.371
24317W        W92647  16.208  22.056   2.347
24318W        W92648   5.268   5.918  14.355
24319W        W92649  39.369  38.908  14.319
24320W        W92650  34.900  35.527  11.082
24321W        W92651  10.283  38.882   2.822
24322W        W92652  16.165   8.709  13.523
24323W        W92653  17.762   6.293  14.902
24324W        W92654  32.995   5.390   3.866
24325W        W92655   0.467  34.917   2.829
24326W        W92656   6.837  12.710  12.553
24327W        W92657  12.732  36.386  14.513
24328W        W92658   1.360  34.493  11.387
24329W        W92659  42.822   0.887  11.912
24330W        W92660  40.510   3.820  14.989
24331W        W92661  28.545   9.860   0.912
24332W        W92662  11.761  17.622  11.032
24333W        W92663  28.530  25.180  13.804
24334W        W92664  33.448  37.053   4.643
24335W        W92665   5.334  32.076  12.957
24336W        W92666   0.848  30.065  10.969
24337W        W92667  38.441  26.556  12.353
24338W        W92668  37.940  42.338   4.327
24339W        W92669  11.851  30.110  13.384
24340W        W92670  43.941   4.885  10.087
24341W        W92671  23.232  10.140  11.922
24342W        W92672  21.217  16.704  11.375
24343W        W92673  21.625  13.842   2.244
24344W        W92674  17.100  22.188   1.384
24345W        W92675   3.364  17.288   1.722
24346W        W92676  33.886  10.140   0.272
24347W        W92677  16.174  42.331  14.876
24348W        W92678  35.385  23.731  10.423
24349W        W92679  32.116  38.074  12.999
24350W        W92680  19.648  21.208  14.918
24351W        W92681  34.522  40.359   2.837
24352W        W92682  22.566  40.408  14.346
24353W        W92683  21.689  12.207   1.931
24354W        W92684  42.930  24.596  14.407
24355W        W92685  33.129  20.589   1.279
24356W        W92686  16.148  31.576   0.860
24357W        W92687  34.029  40.483  12.460
24358W        W92688  19.562  14.729  11.931
24359W        W92689  14.750  30.046  11.610
24360W        W92690  38.379  38.923   4.689
24361W        W92691  17.616  44.763  10.407
24362W        W92692  16.570  15.101  14.287
24363W        W92693   3.287  16.264  11.963
24364W        W92694  32.990  37.944  11.994
24365W        W92695  32.012  24.539  13.448
24366W        W92696  17.099   0.795   2.187
24367W        W92697  20.236  12.171   0.387
24368W        W92698  11.748  18.167  10.605
24369W        W92699  14.798  41.480  10.943
24370W        W92700  15.191   6.858   0.897
24371W        W92701  17.656   4.249   1.900
24372W        W92702  13.835  14.640   4.214
24373W        W92703   3.443   3.718   2.247
24374W        W92704   3.833   2.228  10.556
24375W        W92705  39.405  35.022  13.401
24376W        W92706  17.089   6.357  14.433
24377W        W92707  15.754   8.266   2.374
24378W        W92708  43.296  19.204   1.270
24379W        W92709  19.576  10.241   2.221
24380W        W92710   4.423  38.024   2.816
24381W        W92711   3.788  38.408   5.084
24382W        W92712   4.297  10.167   3.724
24383W        W92713  39.469  20.031   4.759
24384W        W92714  33.475  19.066   2.289
24385W        W92715   0.439  37.430  13.860
24386W        W92716  43.858   6.351   3.324
24387W        W92717   7.727  40.527  10.404
24388W        W92718  35.924  24.991   1.880
24389W        W92719  29.955  39.060   3.178
24390W        W92720  40.811  34.111  13.858
24391W        W92721  18.204   1.812  10.482
24392W        W92722   7.836  18.578   2.843
24393W        W92723  37.863   5.880  12.828
24394W        W92724   1.431  20.073  11.528
24395W        W92725  36.897  44.958   3.166
24396W        W92726  18.069  18.119  11.007
24397W        W92727  19.160   3.946  13.905
24398W        W92728  39.985  18.708   2.201
24399W        W92729  15.264  31.120   4.259
24400W        W92730   0.264   4.745  14.762
24401W        W92731  22.243  28.552  14.013
24402W        W92732   0.463   8.747  10.125
24403W        W92733  35.030  12.637  12.366
24404W        W92734   0.459  22.650   2.881
24405W        W92735  26.588  21.665  12.524
24406W        W92736  42.877  38.493   3.839
24407W        W92737  35.957  38.551   3.733
24408W        W92738   8.279  38.368  12.391
24409W        W92739  15.165   0.366   3.841
24410W        W92740  15.723  40.954  12.060
24411W        W92741  40.864  32.078   4.347
24412W        W92742  10.833  40.518   0.956
24413W        W92743  12.634   0.462  10.958
24414W        W92744   4.293   5.874   2.286
24415W        W92745  36.516   1.343   0.727
24416W        W92746  31.142   2.891  14.437
24417W        W92747   6.819  31.906   1.335
24418W        W92748   2.840  26.604   1.891
24419W        W92749  24.666   5.692   3.384
24420W        W92750  10.837  44.883  14.398
24421W        W92751  43.828  30.991  12.457
24422W        W92752  26.996   7.833   0.852
24423W        W92753  30.983  21.146  14.924
24424W        W92754  29.994  30.438  11.999
24425W        W92755  22.605   5.767  12.499
24426W        W92756  30.653  17.570  13.548
24427W        W92757  20.195  15.284  14.822
24428W        W92758   0.328   3.756   0.340
24429W        W92759  41.860  19.635  10.024
24430W        W92760  39.427  32.143   1.710
24431W        W92761  20.546  18.213  11.553
24432W        W92762   8.698  38.442   1.752
24433W        W92763  11.281  20.608   1.929
24434W        W92764   7.786   0.329  12.044
24435W        W92765  15.280  26.176   3.649
24436W        W92766  13.173  27.675   3.225
24437W        W92767   8.262  41.003  12.391
24438W        W92768  27.534  13.345   3.679
24439W        W92769  16.620  42.964  14.809
24440W        W92770  22.703   5.814  14.390
24441W        W92771  19.269  30.448   5.203
24442W        W92772   2.963   3.945   4.767
24443W        W92773  19.089   0.396  11.024
24444W        W92774   6.246  10.814   4.342
24445W        W92775  44.402  23.611  14.824
24446W        W92776  29.032   0.333   2.293
24447W        W92777  22.207  16.729   2.776
24448W        W92778  30.433  28.082  12.553
24449W        W92779  43.952   1.483  14.797
24450W        W92780  36.850  41.309   0.270
24451W        W92781  41.840  37.935  13.834
24452W        W92782  15.303   7.265   3.753
24453W        W92783   7.358   4.922   4.666
24454W        W92784   3.935  34.608   3.759
24455W        W92785  15.255   6.349  14.426
24456W        W92786  41.400  14.819   1.403
24457W        W92787  39.010   6.894  10.948
24458W        W92788  12.623  16.793   2.665
24459W        W92789   8.665  33.555   0.902
24460W        W92790  24.037   2.412  13.333
24461W        W92791  23.713   6.325   3.159
24462W        W92792  33.079   9.278   4.131
24463W        W92793  10.281  39.316   0.832
24464W        W92794  44.856  29.656   2.770
24465W        W92795  18.150   8.734  14.501
24466W        W92796  31.023  17.601   3.688
24467W        W92797  32.893  25.000   1.318
24468W        W92798  33.059  33.590   2.246
24469W        W92799  22.535  13.291  10.897
24470W        W92800  29.639  23.227   1.732
24471W        W92801  35.457  38.868  13.802
24472W        W92802  42.026  16.773  13.922
24473W        W92803   9.370   5.824   4.200
24474W        W92804  13.291  33.991   0.470
24475W        W92805  18.199   2.777   2.773
24476W        W92806   8.238  29.485   2.675
24477W        W92807   8.265  23.999  11.975
24478W        W92808  15.175  10.165   0.260
24479W        W92809  17.684  15.746   0.285
24480W        W92810   9.751  22.573   4.649
24481W        W92811  10.174  17.106  13.373
24482W        W92812  28.671   6.762   0.951
24483W        W92813  38.332  35.417  12.355
24484W        W92814  43.997  14.193   0.803
24485W        W92815  12.354  17.169   1.930
24486W        W92816   3.215  42.423   1.326
24487W        W92817  38.460   6.395   0.335
24488W        W92818  16.176  22.197  10.428
24489W        W92819   4.430  23.038  13.501
24490W        W92820  22.198  30.018   0.307
24491W        W92821  21.182  43.018   5.177
24492W        W92822  36.900   1.321  11.483
24493W        W92823  20.626  21.021   3.849
24494W        W92824  25.568  40.529   0.405
24495W        W92825  14.250  24.032   2.411
24496W        W92826  21.658  22.625   4.698
24497W        W92827   3.855  15.107  12.536
24498W        W92828   7.676   9.355  12.982
24499W        W92829  11.826  26.584   2.242
24500W        W92830  21.679  41.496   4.786
24501W        W92831  31.570  23.199  12.421
24502W        W92832  34.105  13.746   0.279
24503W        W92833  31.438   1.283  14.974
24504W        W92834  32.944  44.381  14.764
24505W        W92835  36.417  37.848   4.350
24506W        W92836  19.188  22.727   4.298
24507W        W92837   7.688  39.820   1.746
24508W        W92838   0.972  28.640  10.456
24509W        W92839  25.507  25.517  10.498
24510W        W92840  38.529  29.494   2.812
24511W        W92841  13.724  12.324   0.303
24512W        W92842   3.302  30.012  14.341
24513W        W92843   7.334  12.753  12.090
24514W        W92844  44.481  36.081  10.529
24515W        W92845  32.587  17.183   4.720
24516W        W92846   7.301  34.020  11.107
24517W        W92847   2.886  22.194  10.915
24518W        W92848  32.049  14.817   5.114
24519W        W92849  16.686  38.334  12.340
24520W        W92850   6.403   0.340  14.343
24521W        W92851  13.111   7.846  13.970
24522W        W92852  12.156  27.944   0.258
24523W        W92853  41.976  12.160  13.523
24524W        W92854  18.665  26.208  10.547
24525W        W92855  17.691  44.391  11.118
24526W        W92856  22.736  17.650  13.018
24527W        W92857  28.498  41.790   4.139
24528W        W92858  26.680  17.602   3.211
24529W        W92859   2.860  31.908   4.219
24530W        W92860  33.413  31.466  13.028
24531W        W92861  36.577   6.331  11.075
24532W        W92862  12.687   1.888   4.264
24533W        W92863  43.271  27.568   3.312
24534W        W92864  30.639  40.398   0.466
24535W        W92865  38.413  35.065   0.470
24536W        W92866  27.156   0.387  14.435
24537W        W92867   5.916  30.987  12.073
24538W        W92868  24.062   2.721   2.243
24539W        W92869  41.325  16.756   2.379
24540W        W92870  31.990  11.294   0.809
24541W        W92871  16.598  26.132   0.787
24542W        W92872  26.462   5.376   0.374
24543W        W92873  33.590   9.866  10.548
24544W        W92874  36.068  19.282   1.720
24545W        W92875  34.467  13.109  11.423
24546W        W92876  36.843  19.576   0.245
24547W        W92877   7.220  10.710  11.085
24548W        W92878  24.700  13.725  14.401
24549W        W92879  32.927  32.084   1.876
24550W        W92880  37.562  24.038   0.477
24551W        W92881   5.423  31.086   3.343
24552W        W92882  10.709  25.059  13.907
24553W        W92883  32.492  24.223  10.888
24554W        W92884  21.061  17.720   3.694
24555W        W92885  27.037  12.827  12.922
24556W        W92886   1.749  19.669   3.210
24557W        W92887  11.721   5.837   3.630
24558W        W92888  40.945  20.706   2.674
24559W        W92889  23.610  16.722   4.311
24560W        W92890  20.073  41.868  12.976
24561W        W92891  39.327   2.246   3.704
24562W        W92892  14.750   2.441  11.424
24563W        W92893  32.896  26.997  13.957
24564W        W92894  30.027  25.562  11.002
24565W        W92895  38.471  12.317  13.906
24566W        W92896  24.624  33.958   3.747
24567W        W92897   9.235   8.818   2.872
24568W        W92898  15.807  26.521  14.910
24569W        W92899  21.641  10.798   3.763
24570W        W92900  29.957  23.549  12.836
24571W        W92901  33.073   6.319  14.897
24572W        W92902   2.929  40.874  11.443
24573W        W92903  29.972  41.474   2.792
24574W        W92904  20.597  26.114  10.558
24575W        W92905  19.725  31.449   0.810
24576W        W92906  42.947  12.640  14.971
24577W        W92907  28.107  27.689   0.877
24578W        W92908  37.525  10.381  11.599
24579W        W92909  13.739  28.162   1.451
24580W        W92910  28.558  11.214  11.888
24581W        W92911  11.346   1.373   0.915
24582W        W92912   1.942  22.569  12.426
24583W        W92913   0.293   6.752   2.751
24584W        W92914  11.304  13.626   3.338
24585W        W92915   5.385  31.974   2.810
24586W        W92916  18.776  12.613   0.747
24587W        W92917   7.400  13.222   2.836
24588W        W92918   7.251   5.786  11.407
24589W        W92919  20.268  44.931  10.418
24590W        W92920  38.059  21.699   3.192
24591W        W92921  10.668  11.166  12.422
24592W        W92922   7.408  30.004   4.258
24593W        W92923  43.798  33.392  11.414
24594W        W92924  21.567   3.385   0.922
24595W        W92925  35.017   6.194   4.638
24596W        W92926  19.163   8.767  10.631
24597W        W92927  24.203   2.805  11.988
24598W        W92928  21.174  41.011   1.217
24599W        W92929   1.746  31.625  12.073
24600W        W92930  35.518  37.361   1.450
24601W        W92931  29.031  28.135  10.542
24602W        W92932  15.166  28.437  14.423
24603W        W92933  44.334  13.750   4.711
24604W        W92934  29.954  11.825   1.424
24605W        W92935  18.169  43.316  10.405
24606W        W92936  19.607  29.073  13.901
24607W        W92937  18.075  36.008   2.858
24608W        W92938  11.637  29.603  13.815
24609W        W92939   0.275  24.217   4.735
24610W        W92940  41.296  44.847  10.548
24611W        W92941   9.199  11.627   3.309
24612W        W92942  28.070  34.021  12.404
24613W        W92943   0.420  43.788  14.329
24614W        W92944  30.007  22.037  11.506
24615W        W92945   4.301  14.686  11.982
24616W        W92946  21.106  21.199   0.293
24617W        W92947   2.310   4.848  12.459
24618W        W92948  14.101  16.671  13.351
24619W        W92949   5.200  42.461   1.348
24620W        W92950   4.405  28.436  10.526
24621W        W92951   7.908  39.963  11.910
24622W        W92952  26.176  21.112  13.005
24623W        W92953   5.270  32.970   0.465
24624W        W92954  42.851  11.303   1.715
24625W        W92955  42.352  31.141   3.705
24626W        W92956  12.139  20.629  12.931
24627W        W92957  14.808  13.238   4.747
24628W        W92958  12.265  19.226  14.331
24629W        W92959  13.184  40.427  14.370
24630W        W92960  23.710  25.050   4.201
24631W        W92961  44.833  40.882   2.785
24632W        W92962   9.332  20.209   4.758
24633W        W92963  26.499   2.721   0.386
24634W        W92964  15.791  15.322   4.597
24635W        W92965  17.232  35.502  11.040
24636W        W92966  44.831  26.998   3.762
24637W        W92967  23.048  36.005   1.789
24638W        W92968  44.479  10.166   2.383
24639W        W92969   4.395  26.036   1.925
24640W        W92970   8.779  11.277   0.334
24641W        W92971  26.578  38.028   3.639
24642W        W92972   2.244  14.127   1.892
24643W        W92973   4.271  37.480  11.871
24644W        W92974  41.994  11.295  11.974
24645W        W92975  33.991   7.791   3.801
24646W        W92976  43.498  16.212  14.934
24647W        W92977  31.628   6.284   1.711
24648W        W92978  37.978  12.728   5.095
24649W        W92979  43.345   3.793   3.372
24650W        W92980  16.087  30.993   0.370
24651W        W92981  31.626   7.171  14.902
24652W        W92982  11.674   0.462  12.049
24653W        W92983  21.240  29.944   3.357
24654W        W92984  33.415  31.042   0.812
24655W        W92985  15.607  28.955   4.281
24656W        W92986  21.213  24.220   0.446
24657W        W92987  42.455   2.845   0.261
24658W        W92988   7.328  25.102  12.905
24659W        W92989  34.926   0.294   1.747
24660W        W92990   9.877  26.483  11.881
24661W        W92991  13.205   6.280   0.844
24662W        W92992  36.454  22.240   2.322
24663W        W92993   2.384  26.626   3.198
24664W        W92994  18.093  25.108   2.773
24665W        W92995  20.761  33.502  12.562
24666W        W92996   7.325   1.445   1.222
24667W        W92997  20.634  24.210  11.122
24668W        W92998  34.953  38.349   2.255
24669W        W92999  19.588   0.915   4.259
24670W        W93000  24.014  17.578   4.115
24671W        W93001  22.600   4.870  11.004
24672W        W93002   1.325   1.735  11.548
24673W        W93003  41.986  31.433   3.304
24674W        W93004  30.010  32.017   3.870
24675W        W93005  16.128  40.052  13.882
24676W        W93006  33.519  25.050  12.484
24677W        W93007   4.393   2.453   1.413
24678W        W93008  44.360  35.519   1.396
24679W        W93009  39.506  21.672   0.445
24680W        W93010  21.667  19.063  13.423
24681W        W93011  17.632   3.305   2.719
24682W        W93012  43.938  14.816   3.170
24683W        W93013   1.847  40.316  10.894
24684W        W93014  38.024  30.955  13.970
24685W        W93015  11.829  26.147  12.443
24686W        W93016  12.641  11.220   0.318
24687W        W93017   0.396  37.010  11.994
24688W        W93018  23.501  43.475  14.343
24689W        W93019  12.325  25.023  14.406
24690W        W93020   7.895  34.421  14.489
24691W        W93021   1.429  36.494   2.755
24692W        W93022   8.312   8.840  12.356
24693W        W93023  43.347  16.805   4.638
24694W        W93024  44.471  14.798   4.838
24695W        W93025  11.337   0.938  14.933
24696W        W93026  30.029  32.968  14.010
24697W        W93027  22.106   0.432  13.824
24698W        W93028  27.676   1.358   1.910
24699W        W93029  20.155  34.553   1.402
24700W        W93030  43.881  20.130  13.045
24701W        W93031  22.578  22.109  13.503
24702W        W93032   8.207  14.614   4.204
24703W        W93033  17.093  24.550  11.601
24704W        W93034   2.388   2.748   4.196
24705W        W93035   9.765   3.221   4.262
24706W        W93036   6.755   3.422   0.822
24707W        W93037   0.431  37.492   2.207
24708W        W93038  21.147   0.476  10.003
24709W        W93039  25.050   2.409   0.805
24710W        W93040  28.456  30.033   3.318
24711W        W93041  23.729  17.062  11.510
24712W        W93042  29.017  12.666   3.867
24713W        W93043   8.687  10.249  14.916
24714W        W93044  13.129  18.173   3.171
24715W        W93045  33.879  24.020   0.356
24716W        W93046  26.125  43.997   2.329
24717W        W93047  42.333  22.681  11.922
24718W        W93048   1.417  29.554   1.242
24719W        W93049  44.405  34.604   4.696
24720W        W93050  16.301  39.539   4.833
24721W        W93051  12.338  35.987  11.597
24722W        W93052   8.831  44.446   1.294
24723W        W93053   2.947  23.180  13.943
24724W        W93054  31.896  26.042   3.149
24725W        W93055   6.341  21.053  11.906
24726W        W93056  32.512   6.306   0.879
24727W        W93057  20.111   9.340  10.914
24728W        W93058  44.447  24.018   3.278
24729W        W93059   5.780  24.142   1.404
24730W        W93060   8.343  17.089   4.803
24731W        W93061  35.418  23.566   4.769
24732W        W93062   2.875  32.545   1.276
24733W        W93063  21.148  13.221   3.678
24734W        W93064  19.570   3.934   5.203
24735W        W93065  24.561  42.513   3.254
24736W        W93066  40.377  37.363   0.245
24737W        W93067   3.461   2.939   0.251
24738W        W93068  15.326  41.466   3.773
24739W        W93069  31.985  33.102  13.363
24740W        W93070  12.290   9.262  13.315
24741W        W93071   1.895  25.001   3.638
24742W        W93072   6.871  33.916  11.393
24743W        W93073  33.908  43.985  13.404
24744W        W93074  22.722  23.096   3.278
24745W        W93075  33.075  32.413   3.771
24746W        W93076   7.178  34.486  11.556
24747W        W93077   0.803  21.092  12.975
24748W        W93078  21.137  33.093  11.071
24749W        W93079  41.894  19.651  10.949
24750W        W93080  32.499  41.392   3.333
24751W        W93081  23.530  29.522   1.377
24752W        W93082  15.707  13.191   3.196
24753W        W93083  32.477  27.570  11.115
24754W        W93084  11.141   2.844   3.385
24755W        W93085  13.763   2.253  13.027
24756W        W93086  34.402  19.265  10.888
24757W        W93087  31.605  43.425  13.469
24758W        W93088  17.278  26.702  10.438
24759W        W93089   8.267  40.889  13.469
24760W        W93090  25.135  36.903  13.938
24761W        W93091  17.619   6.279  11.058
24762W        W93092  11.257  42.861   1.807
24763W        W93093   1.347  37.376   0.348
24764W        W93094  27.095  11.266   1.913
24765W        W93095   6.894  25.469  12.048
24766W        W93096  17.257   9.210  13.410
24767W        W93097  37.863   7.390  12.074
24768W        W93098  33.493  28.104  12.909
24769W        W93099  21.110  37.410   0.249
24770W        W93100  37.554  13.338   5.101
24771W        W93101   7.807   1.394   4.792
24772W        W93102   2.466  13.743  13.477
24773W        W93103  12.775  39.377  12.378
24774W        W93104  22.522  30.025  10.108
24775W        W93105  27.473  43.800  13.960
24776W        W93106  25.704  29.038  13.892
24777W        W93107  19.155   5.192  13.476
24778W        W93108  24.007  11.287  14.787
24779W        W93109  34.984   8.664   4.766
24780W        W93110  21.518  24.081  12.497
24781W        W93111  30.655  18.698   4.179
24782W        W93112  34.863  21.069   1.856
24783W        W93113   6.336  22.217  13.796
24784W        W93114  24.988  30.934  12.929
24785W        W93115  31.071   9.817  13.537
24786W        W93116  15.753  42.396  12.476
24787W        W93117  29.493  33.461  12.376
24788W        W93118  36.360  35.408   0.857
24789W        W93119   6.884  12.341  12.564
24790W        W93120  30.547  38.436   4.199
24791W        W93121  28.986   7.705  10.494
24792W        W93122  32.551  15.616  14.891
24793W        W93123  43.819   6.863  14.299
24794W        W93124  12.680  22.584  13.918
24795W        W93125  43.862  43.883   2.848
24796W        W93126   2.758   2.888  12.031
24797W        W93127  38.385   2.244  13.811
24798W        W93128  14.143  10.355  13.033
24799W        W93129  14.683  14.210   4.328
24800W        W93130   3.861  44.818  13.466
24801W        W93131  16.207  31.443  12.827
24802W        W93132  36.392  33.998   3.173
24803W        W93133  38.846  21.078   1.247
24804W        W93134  24.178  18.056   1.449
24805W        W93135  34.863  24.563  13.436
24806W        W93136  17.170  11.825   4.348
24807W        W93137  43.834  12.164  14.392
24808W        W93138  22.686  38.932   3.230
24809W        W93139   2.945  26.560  11.128
24810W        W93140  21.569  17.724  13.446
24811W        W93141  16.688  23.129   4.729
24812W        W93142   0.313  10.378   2.771
24813W        W93143  42.424  13.174   2.732
24814W        W93144  41.389   5.324  14.822
24815W        W93145   0.332  30.619  14.760
24816W        W93146  15.667  31.425  10.643
24817W        W93147  11.236  11.716  13.842
24818W        W93148  42.024  42.850   0.369
24819W        W93149  42.934   5.890   3.250
24820W        W93150  36.887  35.588  11.926
24821W        W93151   3.330   0.943  12.866
24822W        W93152  14.138  38.022   0.270
24823W        W93153   7.710  33.535   4.836
24824W        W93154  15.664  18.640   3.772
24825W        W93155  32.898   9.653  10.992
24826W        W93156  44.395  33.890  12.482
24827W        W93157  29.955  41.452   4.600
24828W        W93158   0.860  36.097  10.105
24829W        W93159  20.256  44.302  10.892
24830W        W93160  17.558   1.952   1.795
24831W        W93161  17.580  27.503  14.763
24832W        W93162  43.489  25.981  11.976
24833W        W93163   5.222  24.507   1.872
24834W        W93164   2.448  44.432   3.297
24835W        W93165  22.693   5.319  11.519
24836W        W93166  31.519  21.107   2.267
24837W        W93167   7.261  41.970   4.686
24838W        W93168  44.900  25.586  14.839
24839W        W93169  38.909  43.394   2.193
24840W        W93170  40.957   4.396  11.126
24841W        W93171  33.966  31.102  14.416
24842W        W93172   6.826  35.071   1.893
24843W        W93173  33.988   0.332  12.519
24844W        W93174  41.859  23.603   0.460
24845W        W93175  22.218  33.422  10.977
24846W        W93176   0.260  29.499  14.472
24847W        W93177   0.324  40.435   3.695
24848W        W93178  20.091   1.848   2.672
24849W        W93179   8.676  13.761  13.011
24850W        W93180  33.486   1.956  13.388
24851W        W93181  12.342  14.682  10.450
24852W        W93182  17.637   6.312   2.408
24853W        W93183   1.473   4.702   4.762
24854W        W93184  23.553   2.460  13.386
24855W        W93185   7.189   8.879  12.426
24856W        W93186  39.343  40.493  12.014
24857W        W93187   1.441   5.213   3.630
24858W        W93188  10.231  37.359   4.757
24859W        W93189   5.796  22.645   2.834
24860W        W93190  42.893  14.743   3.724
24861W        W93191  35.910  15.604  12.367
24862W        W93192  28.037  30.155   2.747
24863W        W93193  33.925  37.068  12.437
24864W        W93194   8.665  43.828   1.214
24865W        W93195  44.818  35.543   4.683
24866W        W93196  14.272  18.563  13.925
24867W        W93197  33.090  15.261  12.089
24868W        W93198  16.197  34.083   5.689
24869W        W93199  38.497   3.244  12.989
24870W        W93200  31.460  14.307   2.768
24871W        W93201   8.830  23.494   4.310
24872W        W93202  41.950   4.933  12.869
24873W        W93203   0.451   9.868   0.408
24874W        W93204  19.225  26.660   0.482
24875W        W93205  11.354  27.634  11.508
24876W        W93206  13.301  22.608   4.682
24877W        W93207   4.847  26.505  12.447
24878W        W93208  23.157  20.552  11.508
24879W        W93209  38.549  27.992   2.241
24880W        W93210  13.164  41.932   3.346
24881W        W93211  44.359  38.927  10.034
24882W        W93212  17.685  12.849   1.341
24883W        W93213  17.742  32.596  10.491
24884W        W93214  43.472  32.432   4.352
24885W        W93215  30.618  14.697   5.158
24886W        W93216  15.094  11.840  14.382
24887W        W93217  14.676  42.437   2.330
24888W        W93218   7.248   6.777  10.943
24889W        W93219  13.282  18.133   0.768
24890W        W93220  28.036   8.828   0.876
24891W        W93221   4.732  31.516   2.384
24892W        W93222   0.810   6.705  11.954
24893W        W93223   0.273  37.432  11.097
24894W        W93224  19.061   1.407   2.746
24895W        W93225   8.191   5.749  11.540
24896W        W93226  26.110   5.794   4.747
24897W        W93227  19.657   3.274  10.544
24898W        W93228  34.606   5.363  12.029
24899W        W93229   4.429  30.150   3.853
24900W        W93230  40.010  38.406   4.797
24901W        W93231  21.126   6.362  13.908
24902W        W93232  39.341   3.449   3.259
24903W        W93233  34.457  28.482   0.778
24904W        W93234  41.528   0.800  11.085
24905W        W93235  24.033  30.073  14.783
24906W        W93236  20.588  25.079   4.171
24907W        W93237  19.190  14.275   0.842
24908W        W93238  26.081  43.322  12.545
24909W        W93239  25.061  43.432  12.375
24910W        W93240  22.144   6.255  13.447
24911W        W93241  22.230  11.156   2.192
24912W        W93242  13.189  17.091   2.680
24913W        W93243  14.238  30.475  12.920
24914W        W93244   4.762  33.405  11.381
24915W        W93245  38.432   0.924   0.900
24916W        W93246  23.543  39.350  13.818
24917W        W93247  42.310  35.887  14.296
24918W        W93248  32.892   7.272  10.476
24919W        W93249  29.630  21.183   2.316
24920W        W93250  36.394   6.311   2.274
24921W        W93251   0.863  30.982  12.870
24922W        W93252  14.610  41.034   0.473
24923W        W93253   8.176  32.121  12.467
24924W        W93254   6.862  30.547  14.337
24925W        W93255  32.432  26.568   0.251
24926W        W93256  19.765  30.912   5.279
24927W        W93257  33.016  35.013   3.282
24928W        W93258  15.688   1.867  10.617
24929W        W93259  38.381   7.374   4.253
24930W        W93260  42.033  43.440  10.552
24931W        W93261  25.479   7.187   0.819
24932W        W93262   0.893  26.687  13.826
24933W        W93263  29.155  38.944   1.794
24934W        W93264  22.508  12.659  12.977
24935W        W93265  29.658  12.774  14.916
24936W        W93266   0.968  14.118   4.662
24937W        W93267  39.488  39.487  11.009
24938W        W93268  30.134  32.558  10.601
24939W        W93269  26.505  27.688  13.429
24940W        W93270  32.532  44.911  10.945
24941W        W93271   8.819   8.353  14.317
24942W        W93272  37.025  36.536   0.407
24943W        W93273  13.165  31.589  10.469
24944W        W93274  33.472  17.226  14.991
24945W        W93275   8.242   3.893   2.705
24946W        W93276   1.871  13.790  14.493
24947W        W93277  19.228  24.178  11.466
24948W        W93278  11.806   8.780   5.085
24949W        W93279  25.166  28.008   0.792
24950W        W93280  10.736  21.689   0.756
24951W        W93281  41.916  23.584  12.878
24952W        W93282  23.669  11.347   4.333
24953W        W93283   7.393   2.884  12.030
24954W        W93284  27.157  35.395   2.752
24955W        W93285  29.078   9.260   1.814
24956W        W93286   4.303   3.254   4.270
24957W        W93287  12.205  43.771  12.374
24958W        W93288  12.339   2.722   4.253
24959W        W93289  15.093  37.496   0.377
24960W        W93290  21.716  44.281   4.778
24961W        W93291  34.926   3.313   1.793
24962W        W93292  34.403   1.391  13.891
24963W        W93293  17.685  30.014   0.415
24964W        W93294  25.642  12.358  10.148
24965W        W93295  29.659  29.496   3.168
24966W        W93296  17.200   4.276  14.456
24967W        W93297  20.157  12.684   3.847
24968W        W93298  37.449  36.004   3.741
24969W        W93299  35.056  25.133  11.954
24970W        W93300  14.286  33.984   1.372
24971W        W93301  21.158  28.575  10.125
24972W        W93302  10.749   6.853   0.330
24973W        W93303  27.052  22.173  10.413
24974W        W93304   1.394  24.032  14.293
24975W        W93305  32.564   7.740   2.410
24976W        W93306  42.932   5.710  10.629
24977W        W93307  10.376  15.781  12.385
24978W        W93308  17.137   7.884   4.176
24979W        W93309  25.611  32.604  13.409
24980W        W93310  26.127   5.255   1.246
24981W        W93311  14.166   9.340   2.334
24982W        W93312  36.430   9.789   1.374
24983W        W93313  12.291  39.521   2.289
24984W        W93314  36.377  32.038  12.025
24985W        W93315   5.234  15.822  13.353
24986W        W93316   4.710  33.019   0.742
24987W        W93317  17.647  34.110  10.934
24988W        W93318  15.185  40.814   4.191
24989W        W93319  27.957  11.307  12.396
24990W        W93320  10.848  37.051   3.850
24991W        W93321  35.913  33.385  13.833
24992W        W93322   9.659  40.939  13.892
24993W        W93323  14.738  31.629  14.782
24994W        W93324  29.437  35.440   1.772
24995W        W93325  18.609  30.584   0.259
24996W        W93326  42.805  42.499  13.410
24997W        W93327  28.134  24.069   3.188
24998W        W93328   5.386  37.027  12.888
24999W        W93329  24.714  14.181   3.698
25000W        W93330   0.388  25.076   1.858
25001W        W93331   0.492   5.880  11.129
25002W        W93332  44.804  14.314   3.636
25003W        W93333  34.547  39.501  12.961
25004W        W93334  11.858  21.169  13.362
25005W        W93335  14.592   0.438   2.852
25006W        W93336  40.482  15.253   4.280
25007W        W93337  21.513  14.733   3.851
25008W        W93338  42.376  10.655  14.483
25009W        W93339  42.010  22.644   1.854
25010W        W93340  16.718  10.707  14.979
25011W        W93341  15.586  16.108   3.385
25012W        W93342  40.941  11.295   2.326
25013W        W93343  20.030  34.907  12.093
25014W        W93344  17.613  20.621  11.382
25015W        W93345  13.141  35.408   1.420
25016W        W93346  16.193  28.585   1.867
25017W        W93347   9.859  39.991   0.447
25018W        W93348  25.537  39.018  11.502
25019W        W93349  32.556  15.614  12.451
25020W        W93350  40.500  17.583  13.797
25021W        W93351   2.898  16.078   3.276
25022W        W93352   8.201  13.642   0.402
25023W        W93353   0.261  14.739   2.227
25024W        W93354  21.051  18.201   1.793
25025W        W93355  10.161  20.693   3.170
25026W        W93356  14.631  29.011   2.799
25027W        W93357  26.006  16.784   2.248
25028W        W93358   3.375  11.264  10.637
25029W        W93359   7.765  32.549   4.730
25030W        W93360  31.404  34.973   4.683
25031W        W93361  39.968   0.859  10.999
25032W        W93362  31.020  22.075   1.429
25033W        W93363  18.125  26.575   0.732
25034W        W93364  38.978  23.060   2.765
25035W        W93365  25.060  19.131  14.364
25036W        W93366  28.651  25.593   3.760
25037W        W93367  25.711  14.190  13.892
25038W        W93368  38.016  18.148   2.381
25039W        W93369  11.244  31.124  13.352
25040W        W93370  17.164  34.528   2.309
25041W        W93371  26.594  44.918   3.750
25042W        W93372  14.749  12.272   4.615
25043W        W93373   7.767  42.839  11.021
25044W        W93374  13.628  26.004  11.439
25045W        W93375  40.964  29.544  13.320
25046W        W93376  33.408  17.610  13.417
25047W        W93377  34.599   7.394  14.379
25048W        W93378  36.035  20.718  13.387
25049W        W93379  43.271  14.738   1.300
25050W        W93380  16.751  44.759   3.785
25051W        W93381  40.380  32.024  10.517
25052W        W93382  16.127  35.932   1.225
25053W        W93383  12.708  11.302   1.848
25054W        W93384  15.170  16.742   1.844
25055W        W93385  37.539  15.669   2.858
25056W        W93386  40.945   1.402  10.516
25057W        W93387  14.601  11.246  11.523
25058W        W93388  37.430   3.857   1.435
25059W        W93389  15.603   0.774   4.267
25060W        W93390  22.502  44.488   1.216
25061W        W93391  22.548  33.088  14.772
25062W        W93392  21.106  14.686  12.846
25063W        W93393   8.359  30.145   2.788
25064W        W93394  16.770  44.772  11.047
25065W        W93395  29.650  34.892   3.300
25066W        W93396   5.279  36.082   3.688
25067W        W93397  27.155  38.898  14.453
25068W        W93398  10.273  22.142   4.147
25069W        W93399  27.968  42.878   4.822
25070W        W93400   5.927  44.313   0.265
25071W        W93401  42.491  24.134  13.853
25072W        W93402  43.936   8.249   1.401
25073W        W93403  38.335  13.666  12.573
25074W        W93404  37.454   7.288  13.798
25075W        W93405  28.495  24.529   2.677
25076W        W93406  42.460  13.674   4.753
25077W        W93407  41.471  32.089  10.940
25078W        W93408  27.076  27.171  14.364
25079W        W93409  43.345  13.791   4.776
25080W        W93410   6.305  42.402  14.374
25081W        W93411  32.613   0.471   3.790
25082W        W93412  23.233  17.676  13.914
25083W        W93413  12.741   1.777  11.425
25084W        W93414  43.342  11.622  12.976
25085W        W93415  22.176  26.666   0.437
25086W        W93416  17.756  24.646  14.486
25087W        W93417  25.697  31.643   1.827
25088W        W93418  15.637   8.718  11.992
25089W        W93419  31.145  42.821   1.406
25090W        W93420  31.504   8.670   2.774
25091W        W93421  31.899  11.210   0.440
25092W        W93422   2.245   6.289   9.955
25093W        W93423  31.010  12.318  13.341
25094W        W93424  27.563  28.589  13.896
25095W        W93425  37.071  38.354   2.710
25096W        W93426  10.365   3.316  14.360
25097W        W93427  24.190  34.997  12.861
25098W        W93428  10.637  40.318  13.417
25099W        W93429  33.976  31.519  13.972
25100W        W93430  23.606  43.295  13.908
25101W        W93431  42.818  21.182   2.342
25102W        W93432  37.466  31.154   2.189
25103W        W93433  25.081  41.040   1.352
25104W        W93434   4.773  22.628  12.535
25105W        W93435  15.247  16.665  11.028
25106W        W93436  18.069  34.096  12.529
25107W        W93437  29.128  22.089   2.226
25108W        W93438  26.153  19.141   2.703
25109W        W93439  22.682  44.450   2.678
25110W        W93440  29.661  38.954   3.706
25111W        W93441  38.029  35.878  13.354
25112W        W93442  39.487  43.953  10.901
25113W        W93443   6.375  14.603   2.850
25114W        W93444  31.110  38.835   1.248
25115W        W93445   4.914   4.276  13.058
25116W        W93446  22.025  15.807  11.980
25117W        W93447   7.857  43.372  14.501
25118W        W93448  21.137  33.974   1.730
25119W        W93449   3.351  42.483  12.879
25120W        W93450   7.239  36.896  14.950
25121W        W93451  17.191  41.461  14.927
25122W        W93452  27.088  25.093   4.629
25123W        W93453  14.230  37.067   5.294
25124W        W93454   5.305  16.172   0.352
25125W        W93455  15.301  26.171  13.536
25126W        W93456  11.255  29.996  14.366
25127W        W93457  15.787  42.325  14.355
25128W        W93458  13.279  41.437  11.445
25129W        W93459   1.858   0.352   1.264
25130W        W93460  14.735  29.619  11.887
25131W        W93461  27.623   5.720  12.456
25132W        W93462   5.362  19.647   0.731
25133W        W93463   3.787  13.338   3.150
25134W        W93464   7.711  29.095   1.873
25135W        W93465   4.942  18.698  12.550
25136W        W93466  21.569  31.422   4.620
25137W        W93467  31.506  33.452  13.338
25138W        W93468  25.066  24.528  12.970
25139W        W93469  23.681  17.635   4.347
25140W        W93470   3.942  20.649   2.836
25141W        W93471   3.915  23.724  12.999
25142W        W93472  11.162  24.064   3.785
25143W        W93473  37.969  15.752   3.269
25144W        W93474   0.973   2.929   2.397
25145W        W93475  34.555  26.056   4.636
25146W        W93476  19.254  37.454   1.808
25147W        W93477  44.346   5.272   1.313
25148W        W93478  32.983  17.173  11.923
25149W        W93479  43.467   6.272  10.102
25150W        W93480  25.001   3.941   2.402
25151W        W93481  31.947  14.116  10.517
25152W        W93482   0.378  29.480   0.924
25153W        W93483  30.440  29.107  12.059
25154W        W93484  29.663  19.176  11.909
25155W        W93485  33.084   0.770   0.330
25156W        W93486  38.409  29.948  13.004
25157W        W93487   8.321  40.379   3.738
25158W        W93488  41.862   2.469  14.416
25159W        W93489  31.402   4.859  11.600
25160W        W93490  24.517  33.109   0.853
25161W        W93491  41.429  37.043   0.850
25162W        W93492  43.510  38.868   4.330
25163W        W93493  23.087   1.410  12.514
25164W        W93494  21.756   7.778  10.136
25165W        W93495   9.215  12.171   0.941
25166W        W93496  17.623   5.197  13.880
25167W        W93497  26.500  15.287   3.817
25168W        W93498  44.769   4.345   3.337
25169W        W93499  34.927  31.438   0.376
25170W        W93500  16.225  43.329   1.213
25171W        W93501  39.942  38.941   4.250
25172W        W93502  34.896   9.826  11.961
25173W        W93503  26.190  21.733   3.759
25174W        W93504  36.480  31.932   2.380
25175W        W93505  27.952  12.335  10.614
25176W        W93506  38.477   6.876   1.307
25177W        W93507  21.671  40.002   1.702
25178W        W93508  26.996  34.030   3.311
25179W        W93509  29.100  40.489   3.765
25180W        W93510  36.032  33.437  12.579
25181W        W93511  20.766  11.242   0.361
25182W        W93512  29.936  13.282   3.282
25183W        W93513  27.496  15.160   3.784
25184W        W93514  12.191  20.593   3.692
25185W        W93515   8.810   5.831   2.692
25186W        W93516  29.012  31.937   3.256
25187W        W93517  32.484  36.380  12.891
25188W        W93518  43.937  17.584   2.798
25189W        W93519   3.243  15.660   0.413
25190W        W93520   4.396  41.857   4.222
25191W        W93521  34.867  21.654   2.735
25192W        W93522  12.208   5.690  11.899
25193W        W93523  39.829   2.438  14.892
25194W        W93524  26.209  41.793  10.629
25195W        W93525   8.751  43.474   5.185
25196W        W93526   1.763  43.875  12.556
25197W        W93527  21.243  22.091  11.471
25198W        W93528  43.363  40.938  12.969
25199W        W93529   1.909  13.146   0.310
25200W        W93530  35.378  12.135  13.899
25201W        W93531  43.819  20.094   3.808
25202W        W93532  31.498  18.191   1.870
25203W        W93533   2.868  43.843  13.979
25204W        W93534   2.464   3.331   3.300
25205W        W93535   5.900  12.694   4.233
25206W        W93536  36.562   4.446   4.253
25207W        W93537   5.895  43.493   1.283
25208W        W93538  30.103  29.564   4.304
25209W        W93539  10.748  14.741  11.897
25210W        W93540  37.431  17.794   4.264
25211W        W93541  37.501  39.849   0.922
25212W        W93542  34.906  28.529   0.382
25213W        W93543  38.991  44.848  12.504
25214W        W93544  32.039   4.257  10.969
25215W        W93545  37.975  39.017  14.297
25216W        W93546   2.301   0.303  14.430
25217W        W93547  29.123  25.502   0.783
25218W        W93548  24.170  32.908   0.391
25219W        W93549  42.466   7.678  14.492
25220W        W93550   8.762  32.438   0.351
25221W        W93551  33.886  15.711  14.787
25222W        W93552   7.348   9.723  13.412
25223W        W93553  44.317  11.289  10.974
25224W        W93554  27.189  22.109  13.033
25225W        W93555  37.028  37.071  13.504
25226W        W93556  41.414  35.598   4.208
25227W        W93557  15.224   1.482   1.733
25228W        W93558  38.968  42.312  14.442
25229W        W93559  42.467  29.446   0.773
25230W        W93560  37.351   5.380  12.939
25231W        W93561  35.937  26.055  11.890
25232W        W93562  42.970  32.952   4.832
25233W        W93563  26.654   2.810   1.743
25234W        W93564  39.056   6.815   4.741
25235W        W93565   3.948  17.623  13.388
25236W        W93566  44.363  30.101   4.679
25237W        W93567  22.522  43.838  11.998
25238W        W93568  43.874  44.759  11.035
25239W        W93569  28.514  14.739  12.350
25240W        W93570   1.911   4.244  12.443
25241W        W93571  26.069  41.310   4.679
25242W        W93572   3.225  40.530  14.852
25243W        W93573  30.555  39.532   1.820
25244W        W93574  29.481  42.319   3.758
25245W        W93575  10.159  17.662  10.980
25246W        W93576  35.999  32.054  11.868
25247W        W93577   2.447  24.590   2.894
25248W        W93578  16.615   2.467  11.972
25249W        W93579  23.644  34.067   4.760
25250W        W93580  26.694  24.688   2.289
25251W        W93581  40.990  13.794  12.407
25252W        W93582   0.800  14.235  14.369
25253W        W93583   1.263  41.391   2.900
25254W        W93584   3.931  21.049   0.366
25255W        W93585  36.536  32.602   0.386
25256W        W93586   6.686  26.151  12.572
25257W        W93587   7.204   2.744  10.529
25258W        W93588   3.251  38.371  10.008
25259W        W93589  27.114  16.774   1.898
25260W        W93590  26.191  43.885  11.488
25261W        W93591  23.041   3.713   3.742
25262W        W93592   8.898  36.062   4.833
25263W        W93593  38.895  41.421   0.866
25264W        W93594  34.594  38.840  11.603
25265W        W93595  30.910  14.259  13.056
25266W        W93596  33.885  27.042   4.189
25267W        W93597  21.607  19.066  14.393
25268W        W93598  25.488  21.567  12.377
25269W        W93599  18.676  33.122  10.532
25270W        W93600   9.836  19.544   2.288
25271W        W93601  10.716   8.659  14.336
25272W        W93602   1.327   1.837   2.880
25273W        W93603  21.117  35.050  13.504
25274W        W93604  11.308   7.287   3.285
25275W        W93605   1.384  27.102  10.479
25276W        W93606   7.735   6.407   2.884
25277W        W93607  41.442  28.584   4.802
25278W        W93608  13.716  12.760  13.527
25279W        W93609  25.598  32.594  10.594
25280W        W93610  44.454  44.499  10.434
25281W        W93611  16.229  12.770   2.337
25282W        W93612  12.221  25.087   4.661
25283W        W93613  38.529  29.941  12.003
25284W        W93614   3.851  14.095  11.424
25285W        W93615   1.468   4.425  11.113
25286W        W93616   7.235  27.086  10.945
25287W        W93617  42.871  38.428   4.134
25288W        W93618   8.351   9.703   4.276
25289W        W93619   8.381  29.670  10.565
25290W        W93620  37.515  17.190   2.302
25291W        W93621   0.805  34.101  14.818
25292W        W93622  34.392   9.748   3.316
25293W        W93623  25.583  16.180  12.942
25294W        W93624   7.372  36.430   1.901
25295W        W93625  30.563  39.447   0.352
25296W        W93626  43.900  29.129  11.485
25297W        W93627   1.351  16.288  13.035
25298W        W93628  10.717  39.367   0.779
25299W        W93629   0.933  38.898   0.892
25300W        W93630   4.320  20.581   2.821
25301W        W93631  33.432  32.455   1.876
25302W        W93632  37.846  41.361  11.456
25303W        W93633   4.848  12.245  12.578
25304W        W93634  12.362   7.806   4.824
25305W        W93635  39.960   4.203  12.506
25306W        W93636  24.635  26.039   0.397
25307W        W93637  38.059  34.522   4.737
25308W        W93638  10.359   8.387  11.032
25309W        W93639  40.338  37.878   3.184
25310W        W93640  19.576  29.088   3.216
25311W        W93641  35.987   7.693  10.407
25312W        W93642  25.493   1.263  11.934
25313W        W93643  42.516  39.062  13.424
25314W        W93644   1.483  38.510   5.117
25315W        W93645  10.226  34.970   5.226
25316W        W93646  12.836   7.809  14.400
25317W        W93647   1.934   9.216  14.460
25318W        W93648  39.050   3.908  12.013
25319W        W93649  28.994   4.761  13.937
25320W        W93650  24.585  28.662  11.942
25321W        W93651  27.592  35.438   4.116
25322W        W93652  20.079   2.868  12.012
25323W        W93653  16.236  29.127   2.853
25324W        W93654  12.267  19.576   2.880
25325W        W93655   4.278  22.100   0.804
25326W        W93656  22.668  35.399   2.704
25327W        W93657  26.667   7.739  13.509
25328W        W93658   2.238   5.835  10.459
25329W        W93659  13.838  32.573  13.391
25330W        W93660   7.413  31.058   0.470
25331W        W93661   3.388  20.070  11.995
25332W        W93662   3.302  22.207   1.341
25333W        W93663  37.364  31.604  14.900
25334W        W93664   9.231  19.778   1.344
25335W        W93665  36.430   4.875   1.425
25336W        W93666  42.424  34.407   1.783
25337W        W93667  14.210   7.764   4.311
25338W        W93668  38.942   4.775  14.903
25339W        W93669   7.282  23.692  13.491
25340W        W93670   2.787  29.594   0.840
25341W        W93671   6.186  14.146   0.359
25342W        W93672  13.113  11.286  13.488
25343W        W93673  28.566  11.774   4.307
25344W        W93674   7.881  34.592  11.858
25345W        W93675   4.298  12.181   4.116
25346W        W93676  29.551  42.300  13.423
25347W        W93677  44.851  11.366  13.928
25348W        W93678   9.215   8.238   0.926
25349W        W93679   0.828  14.324  11.518
25350W        W93680   9.709  38.424  12.451
25351W        W93681  24.576  43.927  13.490
25352W        W93682  17.799  16.796   0.890
25353W        W93683  16.193  26.640   4.204
25354W        W93684   5.773  11.760   0.908
25355W        W93685   4.292  21.546  12.865
25356W        W93686  10.786  39.815  14.295
25357W        W93687  16.119  15.291  11.463
25358W        W93688  16.186  19.177  11.442
25359W        W93689  35.603  12.616  14.294
25360W        W93690  38.915  25.593  14.506
25361W        W93691  44.849  17.172   2.718
25362W        W93692  19.268  33.557   4.839
25363W        W93693   7.808  13.677  14.457
25364W        W93694  29.108  34.429  12.472
25365W        W93695  28.067  20.169   4.702
25366W        W93696  20.708  24.554   3.299
25367W        W93697  19.619   3.838  13.518
25368W        W93698  35.911  11.716   3.705
25369W        W93699   6.833  31.928  13.418
25370W        W93700  19.665  28.637   4.716
25371W        W93701  42.806  10.737  12.454
25372W        W93702  15.248  43.799  11.109
25373W        W93703  20.242  36.350  13.348
25374W        W93704   4.841  41.436   4.787
25375W        W93705  30.502  10.820   3.262
25376W        W93706  19.175   0.331   0.783
25377W        W93707  35.602  32.446  14.000
25378W        W93708  39.041   0.751  11.374
25379W        W93709   8.187  40.041   1.242
25380W        W93710  19.618  39.870   4.802
25381W        W93711  12.237  27.096  12.922
25382W        W93712  24.555  19.614  13.325
25383W        W93713  36.362  21.682  10.973
25384W        W93714  22.244   0.399   2.182
25385W        W93715  44.006  32.536  11.099
25386W        W93716  32.465   8.738   1.360
25387W        W93717  38.536  43.864   4.239
25388W        W93718  25.174   6.274   1.428
25389W        W93719  15.597  40.899  12.826
25390W        W93720  40.876   0.939  13.841
25391W        W93721  20.073   9.154   5.751
25392W        W93722  41.026  22.219  14.370
25393W        W93723  22.156  35.947  10.504
25394W        W93724   9.731  26.006  11.510
25395W        W93725  25.064   0.785   1.400
25396W        W93726  28.031   2.325  13.365
25397W        W93727  37.374  41.872   0.353
25398W        W93728  44.993  36.490  13.492
25399W        W93729  24.609  21.584  12.345
25400W        W93730  43.014  18.051   0.251
25401W        W93731  27.097  20.567   3.692
25402W        W93732  44.902  36.433   0.811
25403W        W93733  32.510   7.241  13.461
25404W        W93734  15.272  26.037  10.411
25405W        W93735  18.261  16.104  12.384
25406W        W93736  29.573   7.787   4.312
25407W        W93737  27.651   9.316  12.451
25408W        W93738   6.873  34.605   0.415
25409W        W93739  18.774  14.646  13.375
25410W        W93740  15.760  26.606  12.839
25411W        W93741  19.148  32.126  14.442
25412W        W93742  11.726  21.725   3.227
25413W        W93743  18.673   6.814   0.769
25414W        W93744  25.583  42.942  14.893
25415W        W93745  34.495   3.793  14.344
25416W        W93746  36.379  25.047   3.203
25417W        W93747  25.978  36.875   1.726
25418W        W93748  37.521  42.856  14.299
25419W        W93749  11.365  16.244   4.322
25420W        W93750  12.722  39.358  14.911
25421W        W93751  11.362  14.605  12.055
25422W        W93752  26.695   6.423   3.823
25423W        W93753   2.843  11.180  13.979
25424W        W93754   6.293  26.505  13.897
25425W        W93755  15.811   5.271   0.912
25426W        W93756   5.712  36.909   4.313
25427W        W93757  10.862  21.185  14.372
25428W        W93758  10.643  41.483  12.495
25429W        W93759   8.849   5.813  10.583
25430W        W93760  19.059  37.369   3.241
25431W        W93761   9.325  21.214   2.879
25432W        W93762  16.300   3.913  14.983
25433W        W93763   1.297  10.210   3.289
25434W        W93764  27.533  18.152   4.745
25435W        W93765  43.368  12.784   2.746
25436W        W93766  14.154  35.911   0.473
25437W        W93767  29.108  26.976   0.315
25438W        W93768  34.444   6.401  12.871
25439W        W93769  34.500  32.004  12.862
25440W        W93770  15.191  20.241   0.890
25441W        W93771   5.897  24.114  10.580
25442W        W93772  16.763  30.151  10.609
25443W        W93773   6.770  22.121  14.858
25444W        W93774  40.892  22.196  14.026
25445W        W93775   9.276  10.657  12.549
25446W        W93776  12.339  32.948  14.352
25447W        W93777  32.908  36.408  11.489
25448W        W93778  13.126  35.466  13.379
25449W        W93779   1.836   9.799   4.281
25450W        W93780  25.049  12.760  14.893
25451W        W93781   3.318  27.511   3.634
25452W        W93782  38.550  25.131  13.975
25453W        W93783  13.742  44.962  12.384
25454W        W93784  40.338  44.472   5.247
25455W        W93785  36.526  14.753  10.531
25456W        W93786   1.377  43.386   1.752
25457W        W93787  19.250   3.227   3.667
25458W        W93788  38.334  21.627  12.481
25459W        W93789  29.586  42.504  13.987
25460W        W93790  43.358  29.060  14.391
25461W        W93791  15.203  40.449  14.316
25462W        W93792  38.565   0.314  10.405
25463W        W93793  34.119  36.027   0.937
25464W        W93794  10.679  34.606  14.384
25465W        W93795  18.682  41.394   3.299
25466W        W93796  15.773  33.452   2.194
25467W        W93797   9.655   2.806  14.959
25468W        W93798   2.926  28.607   0.904
25469W        W93799  36.426  31.074   3.709
25470W        W93800  22.208  14.114   1.213
25471W        W93801   4.881  42.926  14.480
25472W        W93802   1.950   0.335  14.367
25473W        W93803   0.395   9.702   0.827
25474W        W93804   7.759  35.942   3.213
25475W        W93805   6.280   6.411   4.729
25476W        W93806  38.970  30.152  11.992
25477W        W93807   0.917  19.197  13.817
25478W        W93808  35.399   8.850  11.007
25479W        W93809  18.095   1.908  13.963
25480W        W93810  16.607  34.430  10.431
25481W        W93811  11.652  23.613   0.856
25482W        W93812  14.130  34.902   0.373
25483W        W93813  28.477  35.016  14.398
25484W        W93814   8.721   8.664  14.275
25485W        W93815  16.077  30.539   0.966
25486W        W93816  31.101   8.656   5.155
25487W        W93817  34.045  20.607  13.318
25488W        W93818  36.071  12.798  13.349
25489W        W93819   2.262  24.023  13.793
25490W        W93820  20.197  36.874  12.487
25491W        W93821  33.880   4.213  14.879
25492W        W93822   7.709  41.404   2.808
25493W        W93823   4.240   1.458  13.470
25494W        W93824  33.942   6.297   3.852
25495W        W93825  40.534  41.020   0.483
25496W        W93826  30.961   9.744   1.338
25497W        W93827  32.544  40.821   0.479
25498W        W93828  41.438  37.415  11.888
25499W        W93829  36.440  38.534  12.529
25500W        W93830  32.492  28.562  10.534
25501W        W93831  13.760  19.214  13.001
25502W        W93832  26.581  23.631   0.800
25503W        W93833  27.108   9.723  13.851
25504W        W93834  28.113  35.856  14.413
25505W        W93835  44.771  24.675   3.665
25506W        W93836  29.641  19.231   4.335
25507W        W93837  20.156   6.753   0.432
25508W        W93838  15.313  28.157  10.607
25509W        W93839  16.594  29.489   1.722
25510W        W93840  44.795  44.756  12.870
25511W        W93841  20.671  13.139  14.433
25512W        W93842  44.259  19.651  11.422
25513W        W93843  40.947   9.177  14.810
25514W        W93844  39.894  23.646  10.429
25515W        W93845  41.340  22.630   2.190
25516W        W93846  26.953  38.954   0.906
25517W        W93847  41.875  23.170   2.389
25518W        W93848  33.095   0.977  11.442
25519W        W93849  35.082  34.893  12.896
25520W        W93850  22.090   8.813  14.414
25521W        W93851   0.754   6.733  14.998
25522W        W93852   9.396  23.119  12.361
25523W        W93853  14.100   8.339   4.809
25524W        W93854  31.607  42.499  14.788
25525W        W93855   0.813  23.649   3.247
25526W        W93856  25.668   6.346   1.320
25527W        W93857  29.972  43.941   2.239
25528W        W93858  28.078  30.609  14.399
25529W        W93859  27.975  39.415   3.158
25530W        W93860  44.817  21.756   1.324
25531W        W93861  22.115  13.194   1.819
25532W        W93862   0.805  22.053  10.613
25533W        W93863  35.042  10.172   2.699
25534W        W93864  19.171  37.459  12.340
25535W        W93865   7.371   8.743  13.029
25536W        W93866   3.279   8.342   1.364
25537W        W93867   3.340  36.067  10.622
25538W        W93868  32.028  41.809   0.924
25539W        W93869  14.829  18.143  12.906
25540W        W93870   2.932  41.421   1.338
25541W        W93871   9.798   5.818  11.963
25542W        W93872  39.313   1.272  12.910
25543W        W93873  31.105  27.162   2.836
25544W        W93874  27.165  26.472   2.379
25545W        W93875  10.736   4.421   0.260
25546W        W93876  44.358  44.462   3.695
25547W        W93877  42.306  27.113  11.594
25548W        W93878  11.165  17.658   4.250
25549W        W93879  16.707  15.609  12.925
25550W        W93880  12.126   5.797  13.438
25551W        W93881  34.053  26.089  12.371
25552W        W93882  26.081  26.631  13.043
25553W        W93883  34.935  38.939   4.660
25554W        W93884  44.897  16.097  11.920
25555W        W93885  19.575  10.776   3.172
25556W        W93886  37.929  13.115   4.751
25557W        W93887  21.549  20.030   5.673
25558W        W93888   7.737  13.285   4.766
25559W        W93889  17.234  19.721   4.139
25560W        W93890  12.853  24.019   2.893
25561W        W93891  25.572  36.890  12.947
25562W        W93892  20.592  29.579   0.961
25563W        W93893  27.635  27.006  11.550
25564W        W93894   0.273  44.787   4.219
25565W        W93895   3.944  15.304   3.644
25566W        W93896  28.624  39.997   2.300
25567W        W93897  29.144  25.624  12.965
25568W        W93898  39.986  30.973  10.976
25569W        W93899   4.724   7.813   3.811
25570W        W93900  37.908  32.459  13.920
25571W        W93901   6.360  34.086   2.386
25572W        W93902  31.454  31.014   3.177
25573W        W93903  17.739  19.717   2.881
25574W        W93904  21.137   9.761   2.182
25575W        W93905  38.359  13.751   2.781
25576W        W93906  11.692  25.474  13.340
25577W        W93907  21.083   8.862   3.865
25578W        W93908  15.150  42.842  11.996
25579W        W93909  27.498  40.499   2.417
25580W        W93910  38.946   0.935  10.487
25581W        W93911  21.225  18.714  13.409
25582W        W93912  15.272  19.718  10.906
25583W        W93913  39.822  33.400  12.007
25584W        W93914  14.292  41.499   4.839
25585W        W93915  25.054   1.821   1.922
25586W        W93916  43.843  37.488  11.375
25587W        W93917  38.352   4.734   4.837
25588W        W93918  34.907  37.989  10.626
25589W        W93919  14.650  19.772   4.822
25590W        W93920  23.022  13.241  14.997
25591W        W93921   2.248  41.029  14.918
25592W        W93922  36.521  32.085   1.933
25593W        W93923  22.698  41.999   1.361
25594W        W93924  28.536  19.740   3.809
25595W        W93925  36.420   9.352   1.313
25596W        W93926  13.253  40.471  13.060
25597W        W93927  19.277  23.690   2.379
25598W        W93928  10.293   5.717  11.076
25599W        W93929  19.141  18.759   5.757
25600W        W93930  31.547  37.480  12.972
25601W        W93931  42.484  43.850  13.346
25602W        W93932   9.655   6.728  12.511
25603W        W93933  35.567  20.262   3.305
25604W        W93934  21.523  26.025   3.308
25605W        W93935   1.452  38.845  10.937
25606W        W93936  17.220  31.058  12.493
25607W        W93937  38.956   2.866  11.566
25608W        W93938  20.696  38.532  12.080
25609W        W93939  19.541  25.596  11.532
25610W        W93940  34.491  25.657   4.781
25611W        W93941   3.221  43.299  12.910
25612W        W93942  32.505  31.484   2.272
25613W        W93943   1.756  26.102  11.432
25614W        W93944  35.877  40.351   5.090
25615W        W93945   6.359  21.687  12.951
25616W        W93946  39.950  11.798  11.385
25617W        W93947  22.658   9.833  12.844
25618W        W93948  40.951  18.654   3.700
25619W        W93949  19.608   0.475   4.792
25620W        W93950  30.634  10.829  11.471
25621W        W93951  39.387  35.993   4.160
25622W        W93952  13.272  26.987  12.982
25623W        W93953  25.623   1.850   1.267
25624W        W93954  42.355   6.740   4.738
25625W        W93955  19.686  31.993   3.169
25626W        W93956  14.695  17.101  10.506
25627W        W93957  40.839   0.858   2.769
25628W        W93958  24.982  34.510  12.027
25629W        W93959  32.934  44.320   3.221
25630W        W93960   8.175  36.491  11.931
25631W        W93961   6.233  16.176   2.681
25632W        W93962  36.892  22.653  11.372
25633W        W93963  44.395  25.469  12.877
25634W        W93964   5.763  24.482  13.379
25635W        W93965  40.438  13.252  10.597
25636W        W93966  40.321  21.184  12.046
25637W        W93967  20.164  26.139  13.531
25638W        W93968   7.255   3.360  10.899
25639W        W93969  43.808  22.561   2.263
25640W        W93970   3.327  33.575   3.229
25641W        W93971   9.727  18.773   0.773
25642W        W93972  12.627   0.979  10.495
25643W        W93973   4.302  29.567  13.462
25644W        W93974  12.160  25.172  11.426
25645W        W93975  26.133  30.019  11.093
25646W        W93976   8.835  21.199   1.701
25647W        W93977   1.737  44.315   1.368
25648W        W93978  28.486  29.967  11.942
25649W        W93979   8.286  21.066  14.889
25650W        W93980  40.033   4.908  13.542
25651W        W93981   3.748  18.155  10.638
25652W        W93982  10.831  41.293  12.909
25653W        W93983  42.839  13.298   0.454
25654W        W93984  18.217  26.538   3.351
25655W        W93985  39.055   6.234  10.906
25656W        W93986   3.712  11.138  10.521
25657W        W93987  15.805  12.763  10.051
25658W        W93988  42.376  43.391   0.858
25659W        W93989  35.388  11.369   0.809
25660W        W93990  36.482  26.109   2.351
25661W        W93991   8.221   0.301   3.164
25662W        W93992  32.141  23.213   3.300
25663W        W93993   8.845  25.641  11.558
25664W        W93994   6.303   7.860  13.406
25665W        W93995  38.508   4.206  11.496
25666W        W93996  21.585  34.448   1.843
25667W        W93997  31.472  20.664  10.050
25668W        W93998  33.962   8.837   3.645
25669W        W93999   3.295  13.827   1.840
25670W        W94000  15.588  33.092   3.702
25671W        W94001  34.475  10.268  10.124
25672W        W94002  22.678   6.386   3.685
25673W        W94003  29.537  41.348   4.649
25674W        W94004  22.178  27.601  13.831
25675W        W94005  33.592  17.762   1.423
25676W        W94006  26.490  24.725  12.088
25677W        W94007  31.034  10.158   3.333
25678W        W94008  36.846  42.463   3.682
25679W        W94009   3.270  37.454  10.414
25680W        W94010   8.809  14.747   0.295
25681W        W94011  22.030  30.600   1.368
25682W        W94012  27.687  24.648  12.441
25683W        W94013  33.975  19.580   2.309
25684W        W94014  20.212  29.574  10.107
25685W        W94015  37.859   6.807   2.709
25686W        W94016  19.143  15.127   2.352
25687W        W94017  37.063   4.725   3.859
25688W        W94018  11.171  24.690  14.328
25689W        W94019  43.434   0.355  10.630
25690W        W94020  19.699   8.761  14.794
25691W        W94021  32.583  25.967   2.193
25692W        W94022  40.346  28.138  12.367
25693W        W94023  42.821  17.739   1.921
25694W        W94024  31.909  25.092  12.495
25695W        W94025  40.463  27.951   9.957
25696W        W94026  33.048   5.363   2.366
25697W        W94027  25.148  11.676   4.142
25698W        W94028  28.677  31.478  13.832
25699W        W94029  32.511   9.192  14.420
25700W        W94030   3.355  26.012   4.781
25701W        W94031  10.349  19.192   3.302
25702W        W94032  11.333   3.822  12.929
25703W        W94033  28.630   1.857   3.703
25704W        W94034   4.759  16.623   1.785
25705W        W94035   7.715  11.659  11.500
25706W        W94036  34.548  40.877  12.491
25707W        W94037  17.306  42.327  12.406
25708W        W94038   1.424  20.034  14.979
25709W        W94039   0.301  37.372  13.433
25710W        W94040  15.124  13.780   0.826
25711W        W94041  11.783  21.247  10.406
25712W        W94042  39.473   0.467   3.272
25713W        W94043  38.479  28.070   2.851
25714W        W94044  19.123  39.401   0.289
25715W        W94045  21.746   5.207  14.765
25716W        W94046  25.116  30.098  13.335
25717W        W94047  27.638  23.655  14.011
25718W        W94048  10.203   5.437   1.295
25719W        W94049  19.540  41.952  12.523
25720W        W94050  11.238  36.874   0.941
25721W        W94051   5.891  12.820   3.183
25722W        W94052   2.760  36.938   3.283
25723W        W94053  22.509  37.944   4.157
25724W        W94054   7.679  38.511   0.908
25725W        W94055   2.251  18.084   2.340
25726W        W94056  36.587   5.336   2.889
25727W        W94057   2.402  24.190  13.392
25728W        W94058  37.459   3.220   4.597
25729W        W94059  17.222  14.299  11.976
25730W        W94060  21.031  20.262   0.731
25731W        W94061   6.392   7.896   3.639
25732W        W94062  22.574  29.991  10.484
25733W        W94063  22.514  19.155  11.994
25734W        W94064  39.443  31.095   4.648
25735W        W94065  40.953  13.660   4.309
25736W        W94066  35.957   0.448  14.794
25737W        W94067   4.319  14.123   4.289
25738W        W94068  19.247  26.570  11.406
25739W        W94069  17.090  17.630   1.931
25740W        W94070  11.718  12.180   4.350
25741W        W94071  25.019  18.138  11.067
25742W        W94072  35.003  26.512   4.256
25743W        W94073  42.508  44.298  10.988
25744W        W94074  28.438  44.883  11.442
25745W        W94075  37.897   7.324  13.840
25746W        W94076  18.641  11.629   3.266
25747W        W94077  19.070  14.634   0.844
25748W        W94078   8.330  34.546   2.748
25749W        W94079  33.052  39.959   0.832
25750W        W94080  24.041  23.044   2.360
25751W        W94081  35.970  41.466   0.878
25752W        W94082  44.891  33.049  12.050
25753W        W94083  23.117   1.369   0.750
25754W        W94084  11.752  42.382  10.993
25755W        W94085   1.875  42.940   1.734
25756W        W94086   2.877   0.278   0.862
25757W        W94087  11.307  26.177  12.486
25758W        W94088  14.664  11.657   0.372
25759W        W94089   8.273  11.202  13.504
25760W        W94090   7.197   2.304  10.557
25761W        W94091  18.550  32.517   3.152
25762W        W94092   6.399  28.467  13.844
25763W        W94093  30.452  25.045   3.651
25764W        W94094  24.137  40.983  14.405
25765W        W94095  15.803   5.308   2.385
25766W        W94096  21.092  29.423   0.798
25767W        W94097  18.206  43.898   3.361
25768W        W94098  27.031  38.380  14.455
25769W        W94099  38.940  43.289  11.052
25770W        W94100  23.599  42.483   1.807
25771W        W94101   2.276  19.599   2.419
25772W        W94102   8.897  21.113   4.670
25773W        W94103  14.303  13.638  11.877
25774W        W94104  16.774  41.378  14.375
25775W        W94105   0.432   7.257   2.781
25776W        W94106   9.845  26.628   5.091
25777W        W94107   7.173  20.090   2.760
25778W        W94108  14.692   5.262  11.486
25779W        W94109  20.118  24.127  14.279
25780W        W94110   6.813  37.557   5.258
25781W        W94111  33.560  34.072  14.926
25782W        W94112  24.611  31.417  11.429
25783W        W94113  44.868  32.629   0.338
25784W        W94114  37.978  44.359   4.599
25785W        W94115  22.568   6.794   1.410
25786W        W94116  22.995   8.808  11.521
25787W        W94117  25.678  23.065   4.616
25788W        W94118  18.577   4.226   0.884
25789W        W94119  41.811  22.572  10.015
25790W        W94120   1.260  42.283   0.419
25791W        W94121   3.382   0.324   4.138
25792W        W94122  11.820  27.602   3.728
25793W        W94123  12.749  12.664   0.891
25794W        W94124   3.234  37.395   3.715
25795W        W94125  40.939  41.903   2.224
25796W        W94126   6.412  25.966  14.400
25797W        W94127  33.039  18.747  11.453
25798W        W94128  36.057  30.509  14.830
25799W        W94129   3.459  39.987  11.016
25800W        W94130   9.676  27.022  10.898
25801W        W94131   0.865  39.014   4.318
25802W        W94132  12.340  31.496  11.998
25803W        W94133   1.818  44.931  13.430
25804W        W94134  12.821  34.595   4.785
25805W        W94135  10.849  30.961   4.336
25806W        W94136  34.438  12.762   3.334
25807W        W94137  18.087  22.679  11.394
25808W        W94138  44.755  21.056   3.215
25809W        W94139  39.975   4.724   0.927
25810W        W94140  17.760  34.570  14.310
25811W        W94141  44.261  20.054   2.237
25812W        W94142  18.057  34.066  14.514
25813W        W94143  32.982  22.553   2.723
25814W        W94144  41.863  28.157  10.631
25815W        W94145  21.642  25.018   1.267
25816W        W94146  28.176  32.928  12.492
25817W        W94147   3.235  23.588  10.994
25818W        W94148  12.125  16.780   4.738
25819W        W94149  42.887  28.541   4.669
25820W        W94150   9.175   1.881  12.493
25821W        W94151  30.919  30.991  14.515
25822W        W94152  36.868  13.732   2.302
25823W        W94153  26.961  43.392   0.895
25824W        W94154  17.289  26.082   3.199
25825W        W94155  17.790  20.700  10.546
25826W        W94156  15.718  15.249   2.381
25827W        W94157  21.636  37.581   2.849
25828W        W94158  44.827  15.253   2.263
25829W        W94159  27.101  37.350   2.413
25830W        W94160  15.664  17.299  13.429
25831W        W94161  14.110  31.948  11.883
25832W        W94162   8.370  36.032  12.963
25833W        W94163  30.417  41.020   0.420
25834W        W94164  18.713  11.728  14.474
25835W        W94165  35.381  44.887  11.911
25836W        W94166  34.388   2.325   2.851
25837W        W94167  43.944  33.898  11.111
25838W        W94168   5.389   7.672   4.124
25839W        W94169  33.024  41.478   2.285
25840W        W94170   9.644   4.832   3.783
25841W        W94171  41.457  31.458  14.300
25842W        W94172  29.661   8.888   0.380
25843W        W94173  13.785   8.368  13.929
25844W        W94174  15.087  43.438   0.400
25845W        W94175   2.471  43.290  10.609
25846W        W94176  20.523   9.704   0.429
25847W        W94177  27.086  23.648  13.933
25848W        W94178  34.092   7.278   2.852
25849W        W94179  15.625   4.753  10.973
25850W        W94180  19.761  12.678   3.339
25851W        W94181  22.535   0.859  10.447
25852W        W94182  36.511  27.036  12.541
25853W        W94183   3.306  39.406   0.867
25854W        W94184  15.757   5.288  14.485
25855W        W94185  31.139   8.346  14.459
25856W        W94186  32.929  34.019   0.246
25857W        W94187   2.864  22.598   1.263
25858W        W94188  23.502   6.258   4.261
25859W        W94189  12.614   8.815   4.670
25860W        W94190  13.201  30.025  10.457
25861W        W94191  41.408  42.014   4.673
25862W        W94192  16.597  11.174  11.428
25863W        W94193  41.900  20.684   0.738
25864W        W94194   4.212  38.974  11.919
25865W        W94195  43.276   8.665  10.410
25866W        W94196  27.946   7.182  12.877
25867W        W94197  36.428  16.799   1.253
25868W        W94198  15.778  31.132   1.388
25869W        W94199  23.052   5.360  10.608
25870W        W94200  29.127   6.280   3.328
25871W        W94201  13.699  16.695  11.611
25872W        W94202  25.583  39.447  11.583
25873W        W94203  37.994  12.342  10.578
25874W        W94204  39.317   6.763   0.266
25875W        W94205  13.172  25.491  14.294
25876W        W94206   8.262  20.747   0.253
25877W        W94207  44.304  22.248  10.565
25878W        W94208  26.127  24.188  12.066
25879W        W94209  15.760  27.623  14.344
25880W        W94210  21.153  28.134   1.316
25881W        W94211  24.128  10.244  10.104
25882W        W94212  21.249  16.631  13.059
25883W        W94213   8.892  30.910  13.823
25884W        W94214  39.870  43.872   4.213
25885W        W94215  20.136   9.834   4.649
25886W        W94216  29.441  33.089  11.871
25887W        W94217  11.735  41.316   3.757
25888W        W94218  27.509  25.076  11.493
25889W        W94219  20.134   5.851  13.045
25890W        W94220  22.139  32.410  14.308
25891W        W94221  25.170  41.820  14.465
25892W        W94222  11.234   9.819  12.526
25893W        W94223  40.932   8.897   2.770
25894W        W94224  35.421   8.871   4.659
25895W        W94225  15.753   3.931  11.066
25896W        W94226  40.905   6.250   0.414
25897W        W94227  25.200  24.040  11.864
25898W        W94228   1.881   3.838  14.329
25899W        W94229   7.276   1.271  10.555
25900W        W94230  10.700  43.830   2.823
25901W        W94231  19.211   2.865  12.377
25902W        W94232  29.018  29.962  11.097
25903W        W94233  36.003  16.758  11.590
25904W        W94234  25.642  30.102  12.507
25905W        W94235  43.376  42.887  13.825
25906W        W94236   1.281  42.849  14.866
25907W        W94237  14.597  19.576  14.789
25908W        W94238  43.942   9.706   0.848
25909W        W94239  27.640   3.877  13.403
25910W        W94240  21.071  38.422  12.997
25911W        W94241   6.742  38.493  10.485
25912W        W94242  10.822   5.867  10.616
25913W        W94243  25.153  37.072  12.385
25914W        W94244  12.690   5.235  13.793
25915W        W94245  20.255  36.439   0.347
25916W        W94246   1.921  22.007   4.775
25917W        W94247  29.069  25.691  13.847
25918W        W94248  43.322  26.090  10.476
25919W        W94249   3.888  43.889   0.812
25920W        W94250   3.236  38.544   4.728
25921W        W94251   1.849   8.714  11.459
25922W        W94252  10.804  25.684   2.855
25923W        W94253  19.754  24.700   1.367
25924W        W94254  24.190  27.687  14.800
25925W        W94255  24.509  23.207   4.115
25926W        W94256  23.612  39.418   2.770
25927W        W94257  42.430  36.040  14.878
25928W        W94258  19.108  39.845  12.451
25929W        W94259  40.464   6.887  12.983
25930W        W94260  12.760  17.723  13.354
25931W        W94261   3.288  30.055  14.809
25932W        W94262  10.278  27.957   2.180
25933W        W94263  14.286  30.580  12.552
25934W        W94264  26.627  32.543  13.330
25935W        W94265  20.169  24.167   1.228
25936W        W94266  37.058  20.099  14.815
25937W        W94267  12.143   5.728   0.950
25938W        W94268  29.456  16.201  13.349
25939W        W94269  34.079  13.164  12.039
25940W        W94270  20.035  13.176  11.500
25941W        W94271  28.978  25.615   2.677
25942W        W94272  26.072  37.978   0.914
25943W        W94273  26.026  22.085  13.444
25944W        W94274  41.808  33.463   0.923
25945W        W94275   1.870  24.089   1.889
25946W        W94276  17.287  22.675  13.408
25947W        W94277  21.047  15.242   1.887
25948W        W94278  27.990  10.736   3.695
25949W        W94279  37.995  35.493   2.675
25950W        W94280  16.710  31.991   1.442
25951W        W94281  38.527   4.897   0.444
25952W        W94282  11.734   7.410  11.568
25953W        W94283  29.525  13.691   1.801
25954W        W94284   2.861  20.635  13.335
25955W        W94285  36.902  18.238   2.757
25956W        W94286  34.388  12.314  10.941
25957W        W94287  15.807  41.911  10.492
25958W        W94288  25.014  41.486   0.257
25959W        W94289  13.167  16.684   1.238
25960W        W94290   6.765  14.274  13.937
25961W        W94291  11.648  32.962  13.398
25962W        W94292  25.633  12.647  13.926
25963W        W94293   8.853  39.941   3.277
25964W        W94294  36.986  28.036  14.327
25965W        W94295  32.906   2.309  10.506
25966W        W94296  32.473   1.444   4.602
25967W        W94297  32.392  42.798  10.919
25968W        W94298  32.545   2.286  14.452
25969W        W94299  14.135  40.896   1.847
25970W        W94300  14.210  18.583   1.831
25971W        W94301  17.209  27.551   0.440
25972W        W94302   3.769  29.603  13.961
25973W        W94303  33.584  11.718  12.907
25974W        W94304  20.552  38.552   4.604
25975W        W94305  24.657  34.534   0.956
25976W        W94306  15.783  11.832   0.414
25977W        W94307  37.397   3.337   3.763
25978W        W94308  24.530  15.644   3.792
25979W        W94309  13.620  16.072   1.361
25980W        W94310  10.297  19.161  10.485
25981W        W94311  24.041  21.100  11.481
25982W        W94312  42.296  43.933   1.919
25983W        W94313  41.524  31.529  10.404
25984W        W94314  40.889  43.819   1.447
25985W        W94315  25.032  10.333   3.328
25986W        W94316  35.108  16.776   1.431
25987W        W94317   1.837  23.028  11.528
25988W        W94318  26.124  33.066   4.281
25989W        W94319   9.158  44.377   3.784
25990W        W94320  21.618  21.684  14.887
25991W        W94321  38.940  37.565  10.943
25992W        W94322   4.229   7.256   3.222
25993W        W94323   4.872  28.647  13.404
25994W        W94324  42.398  13.788   1.845
25995W        W94325  29.134  10.295  10.022
25996W        W94326  31.425   7.389   3.203
25997W        W94327  41.991   0.970   2.292
25998W        W94328  15.700   2.428   1.699
25999W        W94329  14.594  13.734  12.376
26000W        W94330  11.720  38.491  10.932
26001W        W94331  17.169  11.140   2.372
26002W        W94332  13.157  27.110   0.436
26003W        W94333  27.497  40.968   3.270
26004W        W94334   1.916  38.925   0.855
26005W        W94335  37.408   2.397  13.408
26006W        W94336  14.798   4.244   4.629
26007W        W94337  21.651   0.380   0.442
26008W        W94338  43.789  35.543   3.253
26009W        W94339  23.104   0.927  12.037
26010W        W94340  19.274   8.399   4.599
26011W        W94341  30.099   5.215  12.374
26012W        W94342  11.227  10.770   0.326
26013W        W94343  33.474  22.080  14.340
26014W        W94344  22.218  16.130   3.240
26015W        W94345  22.664  30.571   2.254
26016W        W94346  43.837   5.257   0.816
26017W        W94347   3.762  44.920   0.952
26018W        W94348  12.824  17.701   0.808
26019W        W94349  31.078  22.042   9.611
26020W        W94350   0.301  43.979  12.000
26021W        W94351  20.221  34.923   4.710
26022W        W94352  11.265   3.373   1.927
26023W        W94353  15.619  25.176  11.919
26024W        W94354  27.690  27.671  12.413
26025W        W94355  10.837  14.226   4.257
26026W        W94356  12.703   8.747  13.004
26027W        W94357  25.579  17.643   1.824
26028W        W94358  10.226  43.502  13.399
26029W        W94359  18.287  11.687  13.045
26030W        W94360   3.442  10.851   2.761
26031W        W94361  11.691   8.267   2.379
26032W        W94362  22.618  18.253  14.950
26033W        W94363  35.591   0.826  13.002
26034W        W94364  15.675  34.403  11.460
26035W        W94365  11.276   3.244  10.575
26036W        W94366  21.245  34.897  14.424
26037W        W94367   9.783  33.514  14.352
26038W        W94368  27.631  28.938   2.891
26039W        W94369  32.981   7.799  13.423
26040W        W94370  36.880  20.749   3.859
26041W        W94371  12.299  41.984  12.489
26042W        W94372  10.310   9.390   1.700
26043W        W94373  27.083  32.497  11.073
26044W        W94374  28.070  42.367  12.823
26045W        W94375   4.265   0.854   4.149
26046W        W94376  10.762   6.281   2.342
26047W        W94377  41.017  23.213  10.614
26048W        W94378  30.431  21.647   3.318
26049W        W94379  32.462  32.002  10.564
26050W        W94380  10.313  39.472  13.985
26051W        W94381  41.313   3.338   4.318
26052W        W94382  20.170  31.064  13.381
26053W        W94383  36.858   9.290   0.957
26054W        W94384  32.408  21.735   1.704
26055W        W94385  18.245  33.431   3.704
26056W        W94386  30.153  18.077   3.301
26057W        W94387  19.770  18.578  13.366
26058W        W94388  26.036  27.999  13.833
26059W        W94389  19.742   5.883  11.030
26060W        W94390   9.391  22.717  14.951
26061W        W94391  43.296  26.493  12.953
26062W        W94392  19.187   2.321   3.364
26063W        W94393  16.614  17.278  14.806
26064W        W94394  36.900   8.898   2.858
26065W        W94395   6.402  31.530  13.061
26066W        W94396  41.437   9.155  14.899
26067W        W94397  12.758  36.587  11.877
26068W        W94398   9.322  28.606  14.831
26069W        W94399  34.596   5.798   0.314
26070W        W94400  10.335  17.159  14.815
26071W        W94401  43.797  15.282  11.955
26072W        W94402  41.822  38.562   4.708
26073W        W94403  34.115  25.122  14.846
26074W        W94404  19.670  37.080   3.174
26075W        W94405  38.431  40.461  14.025
26076W        W94406   7.372  36.905   1.861
26077W        W94407  36.866   6.776  10.988
26078W        W94408  13.311  10.269   2.332
26079W        W94409  33.476  22.164   3.719
26080W        W94410  11.809  15.156   0.449
26081W        W94411  16.622  34.096   3.667
26082W        W94412  16.643   0.847  13.400
26083W        W94413  25.665  36.921   0.483
26084W        W94414  35.516  14.122   2.190
26085W        W94415  44.858  42.457  10.518
26086W        W94416  41.021  30.511  11.454
26087W        W94417   1.246  29.640  12.923
26088W        W94418  12.708   1.416   1.810
26089W        W94419  19.747  44.379  14.870
26090W        W94420  26.175  22.208   3.334
26091W        W94421  40.813  13.226  11.380
26092W        W94422  16.200   6.273  11.525
26093W        W94423  43.398  43.826   2.262
26094W        W94424  13.159  30.590   4.784
26095W        W94425  12.350   3.347   1.395
26096W        W94426  23.098  17.065   1.323
26097W        W94427  14.624  21.219   9.979
26098W        W94428   0.476  22.554   4.122
26099W        W94429  28.519   9.294   3.816
26100W        W94430  39.913  31.137  13.943
26101W        W94431  20.135   9.264   5.257
26102W        W94432   6.357  30.461  13.831
26103W        W94433  22.233  17.276   1.844
26104W        W94434  19.109  23.655  12.968
26105W        W94435  42.871   5.759  13.402
26106W        W94436   2.250  16.122   3.644
26107W        W94437  32.054  36.464  14.961
26108W        W94438  18.093  14.817   0.747
26109W        W94439   0.316  15.629  12.071
26110W        W94440  28.492  15.604  14.472
26111W        W94441   6.732  38.851  12.087
26112W        W94442  14.103  30.999   3.365
26113W        W94443  15.240   4.701   3.776
26114W        W94444  40.942  41.835  10.505
26115W        W94445  39.538  37.476  11.057
26116W        W94446  22.742   8.348  12.981
26117W        W94447  37.403  31.117   0.794
26118W        W94448  21.024  19.181  11.967
26119W        W94449  32.452   6.246   2.354
26120W        W94450  34.572  43.886  12.549
26121W        W94451  33.887  24.637   2.674
26122W        W94452   5.879  43.862   2.227
26123W        W94453  34.451   7.690  10.621
26124W        W94454  14.335  38.382   0.254
26125W        W94455   3.291  28.634  12.072
26126W        W94456  11.843   9.698  11.942
26127W        W94457  22.628  10.276  13.824
26128W        W94458   4.288  37.557  12.415
26129W        W94459  10.216  39.854   4.147
26130W        W94460  39.461  29.448   0.305
26131W        W94461   7.813  22.570   0.956
26132W        W94462  35.883   1.300  14.777
26133W        W94463  41.301  21.592   4.246
26134W        W94464  32.441  37.928  14.288
26135W        W94465  41.460  36.014   1.227
26136W        W94466  36.353  33.064  10.550
26137W        W94467  44.381  12.284  14.500
26138W        W94468   6.207  13.718   0.456
26139W        W94469  38.527  17.599  12.962
26140W        W94470  17.103  32.081   1.278
26141W        W94471  27.689  35.450   3.230
26142W        W94472  13.627  27.121  10.637
26143W        W94473   1.734   3.924   2.268
26144W        W94474  37.027   7.367  13.977
26145W        W94475  13.677  37.044  13.871
26146W        W94476   4.863  11.289   4.628
26147W        W94477  43.508  43.826  14.424
26148W        W94478   2.385  39.928  13.386
26149W        W94479  26.534  11.348   1.314
26150W        W94480  18.292  40.509   0.951
26151W        W94481  34.105  40.991   1.298
26152W        W94482  29.659  31.546  11.448
26153W        W94483  25.113  26.108   0.353
26154W        W94484  42.856  20.577   1.337
26155W        W94485  12.276  11.137  12.420
26156W        W94486  42.946  42.962   2.276
26157W        W94487  27.028  16.653   4.622
26158W        W94488  16.772  22.048   0.482
26159W        W94489  39.947  15.798  14.800
26160W        W94490  26.684  10.757  11.561
26161W        W94491  39.958  37.400  14.855
26162W        W94492   3.242   7.708  13.882
26163W        W94493  32.969  27.680  13.858
26164W        W94494   5.910   9.194  12.872
26165W        W94495  41.933  37.975   3.859
26166W        W94496  35.480  29.571  14.474
26167W        W94497  32.888  25.483  14.903
26168W        W94498  41.361  21.723  14.866
26169W        W94499  24.661  34.585   2.196
26170W        W94500  26.551  30.527  11.573
26171W        W94501  40.965  13.288  10.584
26172W        W94502  14.718  44.289   3.185
26173W        W94503  20.689  16.278  13.547
26174W        W94504  18.557   5.738   0.346
26175W        W94505  18.631  28.499   2.301
26176W        W94506  32.994  23.563   1.804
26177W        W94507  27.039  27.054   0.825
26178W        W94508  43.010  17.713  13.329
26179W        W94509  25.179  30.106   2.876
26180W        W94510  24.170  10.825  14.364
26181W        W94511  41.501  42.900   5.123
26182W        W94512   9.205  18.168   0.934
26183W        W94513   8.699  15.156   0.352
26184W        W94514  17.271  23.239   5.571
26185W        W94515  10.193   1.803  10.912
26186W        W94516   4.928  27.645   2.326
26187W        W94517  35.962  41.912   3.199
26188W        W94518  39.036  38.428  11.097
26189W        W94519  19.668  32.904   4.347
26190W        W94520  34.919  38.332  11.991
26191W        W94521  14.242   4.776  12.581
26192W        W94522   3.885   2.949   2.842
26193W        W94523   9.211  44.337   4.131
26194W        W94524   1.899  12.346  10.527
26195W        W94525  42.355  11.285   3.757
26196W        W94526  42.402  40.806  13.951
26197W        W94527  10.208  23.224   3.230
26198W        W94528  43.848  17.248   4.194
26199W        W94529  38.855  23.195   4.743
26200W        W94530  12.632  27.125   2.860
26201W        W94531   8.694  12.252  14.883
26202W        W94532  35.066  38.987   0.251
26203W        W94533  15.766  11.834   1.364
26204W        W94534  35.575  14.329   4.670
26205W        W94535  32.075  43.504  14.985
26206W        W94536  41.315  25.656   1.923
26207W        W94537  39.372  17.215   0.251
26208W        W94538   5.758   2.338  12.066
26209W        W94539   9.872  11.269   3.146
26210W        W94540   0.844  39.947   0.367
26211W        W94541  44.368  40.315  14.004
26212W        W94542   8.901  28.460   2.230
26213W        W94543  38.937  25.034  14.860
26214W        W94544  25.479  22.609  14.470
26215W        W94545  32.503  22.235   2.894
26216W        W94546  32.046  11.260   2.724
26217W        W94547  25.555  37.542  14.940
26218W        W94548  36.880  24.223  12.481
26219W        W94549  14.597  26.159  11.456
26220W        W94550  16.226  12.281  12.355
26221W        W94551  32.017  33.578  11.060
26222W        W94552  21.680  33.395   2.289
26223W        W94553  10.272  38.442   1.405
26224W        W94554   0.383  27.064  10.634
26225W        W94555   8.900  37.578   4.290
26226W        W94556  42.476  33.911  11.562
26227W        W94557  18.218  29.022  10.511
26228W        W94558  38.341   2.878  11.591
26229W        W94559  38.838   2.403   2.206
26230W        W94560  32.496  36.507   4.717
26231W        W94561  25.102  11.833  13.949
26232W        W94562   4.776  35.061  14.819
26233W        W94563  30.567   9.755  14.852
26234W        W94564   5.260  23.591  13.001
26235W        W94565  27.130  42.468   1.869
26236W        W94566  18.283  29.094  14.384
26237W        W94567   9.291  35.376  10.539
26238W        W94568  21.631  21.753  13.535
26239W        W94569  38.513  30.536   1.254
26240W        W94570  26.662   8.169  14.285
26241W        W94571  13.712  16.733  12.949
26242W        W94572  12.788   9.646  10.957
26243W        W94573  25.512  11.202   3.706
26244W        W94574  32.403  12.818   4.278
26245W        W94575  28.661  44.347   4.763
26246W        W94576  18.564  14.216  13.913
26247W        W94577  43.329   8.375  10.975
26248W        W94578  20.724  21.018   1.821
26249W        W94579  15.626  26.497  10.046
26250W        W94580  14.757   6.192   1.774
26251W        W94581  44.834  26.207  10.924
26252W        W94582   8.224  16.263  10.475
26253W        W94583  10.241  34.067  14.924
26254W        W94584  17.718  11.254  11.484
26255W        W94585   1.866  31.977  14.949
26256W        W94586  19.558   6.263   2.397
26257W        W94587   0.406  40.310   2.329
26258W        W94588  33.103  21.111   2.806
26259W        W94589  13.758  13.188  10.899
26260W        W94590  39.869  41.832   3.758
26261W        W94591  20.735  11.646  11.376
26262W        W94592   5.199   0.962  10.586
26263W        W94593  41.836  10.223  13.309
26264W        W94594   0.980  24.102   2.352
26265W        W94595   0.898  22.140   3.750
26266W        W94596  44.361   1.426   4.209
26267W        W94597  18.214  25.590   3.278
26268W        W94598  23.077   0.758  14.820
26269W        W94599  38.035  28.590   2.674
26270W        W94600  16.213  19.560   4.793
26271W        W94601   0.320  31.898  10.451
26272W        W94602  22.133  33.958  12.848
26273W        W94603  13.261  22.165  12.865
26274W        W94604  30.091  37.849   0.259
26275W        W94605  38.071   9.846  14.405
26276W        W94606  35.923  19.685   3.724
26277W        W94607   7.870  38.492   3.191
26278W        W94608  28.186   4.836  10.956
26279W        W94609  20.578  42.399  10.447
26280W        W94610  36.929   1.309   0.843
26281W        W94611   1.454   4.931  10.581
26282W        W94612  17.726  11.189   3.311
26283W        W94613  10.236   1.773  11.928
26284W        W94614  43.492  39.502   3.828
26285W        W94615  13.150   0.259   3.810
26286W        W94616  27.096  18.765  11.972
26287W        W94617  44.831  32.930   0.912
26288W        W94618  14.680  31.966   1.362
26289W        W94619  16.128  22.624   2.300
26290W        W94620  14.334  29.527  12.073
26291W        W94621  28.633  26.576   4.819
26292W        W94622  26.597   3.379   1.322
26293W        W94623  16.607   3.938  12.984
26294W        W94624  33.957  11.326  11.591
26295W        W94625   0.839  29.965  14.404
26296W        W94626  39.392  38.406  14.836
26297W        W94627  30.081   3.872   3.714
26298W        W94628  11.189  22.648   2.836
26299W        W94629  41.410  26.990   3.853
26300W        W94630   6.402   6.692  11.547
26301W        W94631  37.432   6.696  13.945
26302W        W94632  27.068  38.864   9.960
26303W        W94633   7.696   8.716  10.100
26304W        W94634  13.695   3.455   0.406
26305W        W94635   2.231  23.188   4.831
26306W        W94636  22.071  31.978  14.483
26307W        W94637  30.467  41.004   1.328
26308W        W94638  30.014  36.869   3.240
26309W        W94639  43.965  44.326   2.765
26310W        W94640  35.924  29.927   4.618
26311W        W94641  20.708  40.950  11.042
26312W        W94642  14.815  13.335   1.816
26313W        W94643  39.326  37.435   4.659
26314W        W94644   6.780  30.001   2.385
26315W        W94645   4.226  29.604   2.755
26316W        W94646  13.694  38.450  11.399
26317W        W94647  29.496  15.148   1.917
26318W        W94648  17.750  29.115  14.798
26319W        W94649  15.226  10.776   0.753
26320W        W94650  37.888  20.584   0.349
26321W        W94651  29.065   4.787   4.157
26322W        W94652  13.185  43.850  12.576
26323W        W94653   0.442  13.734   2.897
26324W        W94654  31.484  44.876   4.720
26325W        W94655   5.730  34.549  12.952
26326W        W94656   4.326  43.875  12.538
26327W        W94657  23.988   6.832   3.360
26328W        W94658  30.468  26.685  10.963
26329W        W94659   4.432   2.851   3.292
26330W        W94660  21.752  34.444   3.194
26331W        W94661  38.349  18.651  12.463
26332W        W94662   2.373  23.630   3.216
26333W        W94663   9.278  14.815  11.073
26334W        W94664  11.662  43.286  13.831
26335W        W94665   6.195   5.889  12.870
26336W        W94666  10.151  14.797   4.115
26337W        W94667   1.239  15.686  10.902
26338W        W94668  29.550   0.960   4.236
26339W        W94669   7.356  21.752   1.316
26340W        W94670  33.878  17.636   4.723
26341W        W94671  35.065  18.100  11.992
26342W        W94672  39.530  40.468   4.259
26343W        W94673   0.940  12.205   1.706
26344W        W94674  12.170  25.656  11.049
26345W        W94675  26.981   7.304   0.393
26346W        W94676  30.464  44.288  12.359
26347W        W94677  44.828   3.749  14.014
26348W        W94678  33.896   1.914  11.560
26349W        W94679   2.955  17.635   2.702
26350W        W94680  35.497  43.459   0.285
26351W        W94681  43.810  39.928  14.505
26352W        W94682   8.376  37.080   3.370
26353W        W94683  38.536  21.169  11.885
26354W        W94684  15.120  19.207  12.880
26355W        W94685  37.491  43.988   2.246
26356W        W94686   3.255  36.923  13.037
26357W        W94687  30.425  30.998   4.742
26358W        W94688   2.332  10.214   4.174
26359W        W94689   8.659  42.319  10.469
26360W        W94690  37.402   8.880   1.321
26361W        W94691  43.317  27.052   0.769
26362W        W94692  35.939  18.130   0.424
26363W        W94693   3.764  26.156  10.601
26364W        W94694  42.869  29.931   0.868
26365W        W94695  35.521  24.009  10.553
26366W        W94696   0.340  16.203   0.940
26367W        W94697  22.109  31.973  11.902
26368W        W94698  30.560  10.748   4.800
26369W        W94699   3.392  17.211   3.812
26370W        W94700   7.704  40.507  13.057
26371W        W94701  19.266  33.945   0.797
26372W        W94702   5.301  17.566  11.040
26373W        W94703   0.253  36.493   4.138
26374W        W94704  10.173   0.276  13.940
26375W        W94705  25.562  43.299  14.420
26376W        W94706  42.292  32.019  12.856
26377W        W94707   9.777  35.952   3.215
26378W        W94708  41.375  32.009   1.275
26379W        W94709  39.324  30.161  13.048
26380W        W94710  39.033   1.468   2.683
26381W        W94711   9.227  10.175  12.381
26382W        W94712   1.748  28.516   1.871
26383W        W94713  29.149  22.696  10.483
26384W        W94714  32.579  43.916  12.910
26385W        W94715  42.953  26.994   4.815
26386W        W94716  14.742  35.109  10.584
26387W        W94717  11.156   8.871  14.963
26388W        W94718  16.150  41.323  10.420
26389W        W94719   3.793  40.039   2.186
26390W        W94720  24.718  26.587  14.358
26391W        W94721   1.237  32.535  13.459
26392W        W94722   0.901  27.961   5.125
26393W        W94723  38.396  11.820  13.450
26394W        W94724   9.232  40.890  10.642
26395W        W94725  22.146  30.606   4.278
26396W        W94726  24.720  14.675   3.369
26397W        W94727  19.608   9.263   0.880
26398W        W94728   4.843  24.194   1.776
26399W        W94729  12.798   4.887   2.354
26400W        W94730  32.890   3.798   1.416
26401W        W94731  33.525   7.294   0.438
26402W        W94732   8.657  12.714   3.368
26403W        W94733  11.165  24.175   4.329
26404W        W94734   1.919  11.237   0.778
26405W        W94735  24.172  23.709   2.712
26406W        W94736  12.644  34.973  11.506
26407W        W94737   1.957  22.147  13.437
26408W        W94738  19.721   6.392   4.650
26409W        W94739   6.426   5.356   2.260
26410W        W94740  28.450   0.484  11.941
26411W        W94741   1.912  34.086   3.721
26412W        W94742  44.441  40.963   1.347
26413W        W94743  39.829  34.961  10.638
26414W        W94744   0.292  43.296  13.883
26415W        W94745  17.646  36.989  13.805
26416W        W94746  26.048   1.290   4.682
26417W        W94747  33.066  43.453  12.956
26418W        W94748  20.689  36.086  14.980
26419W        W94749  17.607   0.867   2.778
26420W        W94750  44.450   9.240   2.815
26421W        W94751  30.020  26.109   1.716
26422W        W94752  15.154  26.031   4.723
26423W        W94753   6.698  36.057  11.558
26424W        W94754  33.105  26.665  13.046
26425W        W94755  40.972  20.668   0.370
26426W        W94756  10.339  29.638   4.244
26427W        W94757   7.289  14.835  14.861
26428W        W94758  38.937  10.269   5.131
26429W        W94759   0.323  36.945   4.632
26430W        W94760  35.055  34.419  10.052
26431W        W94761  32.548  39.014  12.053
26432W        W94762  27.170  14.665   0.820
26433W        W94763   4.848  38.518   1.860
26434W        W94764  27.608  31.991   3.673
26435W        W94765   1.294  14.308   3.185
26436W        W94766  18.216  29.485   1.925
26437W        W94767  14.676  35.385   1.916
26438W        W94768   6.337  17.154   4.135
26439W        W94769  29.145  14.715  10.547
26440W        W94770  30.046  14.147  14.345
26441W        W94771  13.697   4.250  14.294
26442W        W94772  30.944  30.560  11.982
26443W        W94773  28.617  28.091  13.802
26444W        W94774  36.490   7.730   1.445
26445W        W94775   7.405  33.940  13.903
26446W        W94776   4.742  20.653  13.419
26447W        W94777   4.399  32.541   4.813
26448W        W94778  27.130  32.475  14.949
26449W        W94779  10.148  29.472  10.476
26450W        W94780  33.412   5.439   3.364
26451W        W94781  23.015   8.331   1.347
26452W        W94782   0.849  38.976   1.849
26453W        W94783  12.847  27.508  13.531
26454W        W94784  20.600   4.757   2.359
26455W        W94785  10.693  41.428  13.831
26456W        W94786  44.821   6.850   1.374
26457W        W94787  13.726  33.417   0.874
26458W        W94788  24.530  26.055  13.522
26459W        W94789  28.002   7.699  13.471
26460W        W94790  29.162  19.134   4.636
26461W        W94791  43.015  38.930   2.714
26462W        W94792  30.994  32.002   1.902
26463W        W94793  16.259  36.910  10.979
26464W        W94794  35.898   7.217   1.406
26465W        W94795  37.478  20.229   4.723
26466W        W94796   2.370  21.244   3.357
26467W        W94797  22.100  20.658  13.496
26468W        W94798  40.032   0.369   0.959
26469W        W94799  12.695   2.873  11.068
26470W        W94800  19.713  32.598   2.821
26471W        W94801  35.473   0.473   1.268
26472W        W94802   0.946  29.062   0.456
26473W        W94803  42.439  25.101  13.392
26474W        W94804  43.398  36.496   1.902
26475W        W94805  29.453  16.648  11.885
26476W        W94806  41.477  23.642  14.502
26477W        W94807   5.212   4.239   3.279
26478W        W94808  36.977   7.857   0.875
26479W        W94809  15.724  44.848   5.088
26480W        W94810  15.736  40.430   2.769
26481W        W94811  11.205  21.205   1.921
26482W        W94812  25.685  24.219  13.981
26483W        W94813  22.043  10.830  14.895
26484W        W94814   2.429  25.486   1.353
26485W        W94815  27.988  19.762   0.357
26486W        W94816  29.031  40.344  11.115
26487W        W94817  38.567   5.749  12.987
26488W        W94818  43.309  13.706  11.022
26489W        W94819  18.243  10.700  11.017
26490W        W94820  13.283  22.511  13.989
26491W        W94821   5.804  41.799   3.156
26492W        W94822  30.469  22.179  14.439
26493W        W94823   2.825  29.011   4.190
26494W        W94824   7.264  37.402   0.956
26495W        W94825  40.492  43.862  11.865
26496W        W94826  43.915  31.081  14.768
26497W        W94827  13.260  14.710  12.890
26498W        W94828  32.080  16.672  10.950
26499W        W94829  11.721  33.000  13.962
26500W        W94830   4.237  42.917  11.544
26501W        W94831  25.699  32.092   1.934
26502W        W94832  24.641  23.197   4.819
26503W        W94833   4.709  24.143  12.406
26504W        W94834  24.484   6.758   0.466
26505W        W94835  18.562  40.527  10.490
26506W        W94836   2.771  34.406   3.782
26507W        W94837  17.621   2.800  11.125
26508W        W94838   2.292  39.531  14.347
26509W        W94839  30.096  31.438  11.457
26510W        W94840  15.662  32.122  11.870
26511W        W94841  30.565   2.930  14.322
26512W        W94842  30.942   4.376   0.258
26513W        W94843  39.059  42.297  12.095
26514W        W94844   9.792  16.592  13.021
26515W        W94845  16.101   8.725  12.030
26516W        W94846  35.947   3.934  13.888
26517W        W94847  25.476   4.893   2.414
26518W        W94848  28.164   7.239  13.820
26519W        W94849  28.002   0.897  12.435
26520W        W94850  24.583   3.825  14.441
26521W        W94851   0.762  44.279   3.236
26522W        W94852   6.358  38.874  13.470
26523W        W94853  34.396  12.756  10.566
26524W        W94854   5.367  38.005   0.444
26525W        W94855  32.500   9.887  13.333
26526W        W94856  21.619  25.142   4.636
26527W        W94857  31.506  27.562   1.267
26528W        W94858   5.728  40.821   3.774
26529W        W94859  38.855  43.902  12.977
26530W        W94860  34.445   5.407  14.031
26531W        W94861   6.186  31.001  14.003
26532W        W94862  22.178   1.909  13.001
26533W        W94863  38.019  28.979  12.043
26534W        W94864  20.120  22.083  14.987
26535W        W94865  16.297  23.663  13.529
26536W        W94866  16.123  18.716  13.835
26537W        W94867  27.152   6.711  11.933
26538W        W94868   2.400  26.209   1.825
26539W        W94869  26.986  10.322  10.022
26540W        W94870  33.946  36.548  12.092
26541W        W94871  30.632  20.541   3.776
26542W        W94872  12.186   2.442  14.796
26543W        W94873  18.602  35.998   0.728
26544W        W94874  27.950  32.085   3.830
26545W        W94875   0.787  40.871   4.816
26546W        W94876  36.456  34.462  12.054
26547W        W94877  29.979   9.178  13.891
26548W        W94878   2.730  26.120   0.887
26549W        W94879  21.110  27.513   0.352
26550W        W94880  25.497   5.815   1.876
26551W        W94881   1.781  35.064   1.908
26552W        W94882  14.230   3.936  13.328
26553W        W94883  18.128  13.842   2.830
26554W        W94884   7.821  16.164  12.973
26555W        W94885  21.691  28.664  13.367
26556W        W94886   9.861   9.873  10.470
26557W        W94887  16.190  43.769  13.060
26558W        W94888  40.383  36.878  14.940
26559W        W94889  27.504  16.653   1.231
26560W        W94890  30.638  25.024   3.150
26561W        W94891   0.907  23.014   3.316
26562W        W94892   1.743  16.205  12.028
26563W        W94893  23.633   6.390   4.677
26564W        W94894  32.970  34.457  13.501
26565W        W94895  20.066  34.944   3.174
26566W        W94896  44.310  25.575   0.281
26567W        W94897  36.969  21.548   1.695
26568W        W94898  21.187   8.387   2.182
26569W        W94899   1.907  27.956  14.376
26570W        W94900  32.916  14.094   2.343
26571W        W94901  20.565   0.903  12.005
26572W        W94902  37.433  11.746  12.362
26573W        W94903  12.313  22.572  11.043
26574W        W94904  24.207  11.623   0.868
26575W        W94905  25.668  35.365   0.773
26576W        W94906   6.814   1.395   2.345
26577W        W94907   6.382  39.424   0.760
26578W        W94908  43.896   4.365   2.703
26579W        W94909   9.276  44.875  13.045
26580W        W94910  16.188  10.635   3.731
26581W        W94911   5.411  16.269   0.741
26582W        W94912  32.623  22.509   4.632
26583W        W94913  12.759  26.013  11.109
26584W        W94914   5.352  39.536   4.834
26585W        W94915   1.962  16.148   0.871
26586W        W94916  37.577  22.132  11.099
26587W        W94917  38.335   9.776   4.202
26588W        W94918   7.409  12.681   0.279
26589W        W94919   4.292  43.406   3.307
26590W        W94920  34.455  31.431  12.872
26591W        W94921  22.574  33.969   2.265
26592W        W94922   5.713  34.567  12.465
26593W        W94923   8.893  44.344   0.860
26594W        W94924  30.628  23.677  13.907
26595W        W94925  22.054  19.647  12.958
26596W        W94926  22.120  28.557  12.007
26597W        W94927   8.666  25.713   0.336
26598W        W94928  42.895  42.778  10.997
26599W        W94929  22.696  32.931  12.959
26600W        W94930   8.729  27.118  10.494
26601W        W94931  38.902  23.158  14.770
26602W        W94932   2.777   6.306  12.439
26603W        W94933  40.047  24.678   3.305
26604W        W94934   2.260  11.637   0.726
26605W        W94935  36.520   4.792  10.142
26606W        W94936  13.775  24.670   0.301
26607W        W94937  41.357  23.584  14.927
26608W        W94938  27.446  38.400  13.829
26609W        W94939   9.825  28.013   1.865
26610W        W94940  19.205   7.825   0.453
26611W        W94941   2.350  15.647  14.424
26612W        W94942  35.976   5.770   0.412
26613W        W94943   2.898  24.080   0.908
26614W        W94944   7.187   4.205   3.720
26615W        W94945  42.984  25.581   1.890
26616W        W94946   2.407  41.484  11.395
26617W        W94947  42.835  36.583  12.368
26618W        W94948   2.272   5.384   0.865
26619W        W94949  15.253  26.114  12.966
26620W        W94950  30.106  38.935   0.786
26621W        W94951  40.350  40.428  10.483
26622W        W94952  12.215  19.182   4.166
26623W        W94953   3.246  24.087   2.261
26624W        W94954  24.131  19.193   0.297
26625W        W94955  19.121  43.488   3.371
26626W        W94956  32.124  33.589   4.309
26627W        W94957  33.476  14.741  13.058
26628W        W94958  35.388   9.332   1.385
26629W        W94959  35.502  10.700  11.881
26630W        W94960  11.169  15.603   3.870
26631W        W94961  26.166   7.764   1.814
26632W        W94962  38.857  19.115  14.934
26633W        W94963   9.832  31.947  12.881
26634W        W94964  39.961  37.045  14.769
26635W        W94965  37.428  28.480   4.768
26636W        W94966  20.199   7.779   2.829
26637W        W94967  20.727  12.250  11.120
26638W        W94968  22.648  12.333  12.422
26639W        W94969   2.354   7.703   4.171
26640W        W94970  19.629  24.980   2.218
26641W        W94971  17.244   5.393  14.455
26642W        W94972  16.133  38.020   3.805
26643W        W94973   4.445   4.302  11.439
26644W        W94974  32.581  27.033  11.954
26645W        W94975  33.487  16.190  14.826
26646W        W94976  44.006  30.582   0.279
26647W        W94977  23.628  41.946  11.932
26648W        W94978  23.214  24.499  13.970
26649W        W94979  32.425   5.726  10.514
26650W        W94980  33.021  22.252  12.360
26651W        W94981  37.424   8.839   4.192
26652W        W94982   2.391  29.089   4.630
26653W        W94983  27.688  17.780   2.383
26654W        W94984  37.877  37.952   1.934
26655W        W94985  13.718   3.269   3.681
26656W        W94986  11.315   4.850  13.061
26657W        W94987  21.252   6.184  12.015
26658W        W94988   1.350  33.102   2.682
26659W        W94989  36.068  17.704  11.000
26660W        W94990  34.572  32.943  13.834
26661W        W94991   2.849  42.310  14.311
26662W        W94992   6.190   2.439   1.706
26663W        W94993  13.166  25.986  12.576
26664W        W94994  37.510  16.748  13.945
26665W        W94995  23.044  36.514  14.806
26666W        W94996   6.388  36.087  11.967
26667W        W94997   5.348  16.306   1.915
26668W        W94998   1.362  29.059   4.748
26669W        W94999  23.102  19.167  11.874
26670W        W95000  11.348  20.164  11.414
26671W        W95001   2.796   1.482   4.824
26672W        W95002  22.075  24.049  14.938
26673W        W95003  16.789  17.756  13.951
26674W        W95004  34.612  24.002  13.398
26675W        W95005  23.176  12.769   4.230
26676W        W95006   9.726  44.823  11.427
26677W        W95007  16.296  15.584   9.961
26678W        W95008  27.176  11.270  10.566
26679W        W95009  33.046  24.556  14.979
26680W        W95010  18.140   8.395   4.221
26681W        W95011   4.928  10.223   1.805
26682W        W95012  16.749  35.487  13.919
26683W        W95013  44.922  37.924  11.863
26684W        W95014  28.991  13.257   1.750
26685W        W95015  39.435  35.943  14.954
26686W        W95016   4.333  40.491   1.391
26687W        W95017  10.785  13.292   3.160
26688W        W95018  20.737  42.407   0.395
26689W        W95019  13.792  43.944  11.008
26690W        W95020  29.128   9.349  11.974
26691W        W95021   3.424  28.448  12.899
26692W        W95022   2.768  33.390  14.898
26693W        W95023  15.157  42.782   0.441
26694W        W95024  31.430  42.342   1.241
26695W        W95025   8.242  16.097  13.807
26696W        W95026  43.923  31.640   2.284
26697W        W95027   8.325   7.873  12.492
26698W        W95028  24.189   0.790  13.879
26699W        W95029  24.636   5.849   2.845
26700W        W95030  22.126  30.977   2.784
26701W        W95031   3.419  14.681  10.473
26702W        W95032   3.718   4.716  14.331
26703W        W95033  35.854  40.348   3.169
26704W        W95034  34.919  36.522  13.880
26705W        W95035  36.007  28.137  10.520
26706W        W95036  36.467  42.408  11.983
26707W        W95037  40.032   7.341  13.039
26708W        W95038  21.224  28.003  12.362
26709W        W95039  17.273  21.177  12.886
26710W        W95040  18.122  26.151   1.916
26711W        W95041   5.855   8.764   1.776
26712W        W95042  14.671  16.722   1.265
26713W        W95043  35.056  42.405  10.984
26714W        W95044   2.947  15.308  13.927
26715W        W95045  37.549  20.177  12.998
26716W        W95046  13.601  24.591  10.464
26717W        W95047  23.110  25.503  11.522
26718W        W95048   9.263  30.540  12.039
26719W        W95049  37.576  15.315   2.875
26720W        W95050  44.297  31.641  11.434
26721W        W95051   3.312  39.938   3.854
26722W        W95052  24.104   0.882   2.679
26723W        W95053  24.706   4.912   0.359
26724W        W95054  30.556  43.403   4.234
26725W        W95055  16.585  15.668  11.863
26726W        W95056   4.379  43.448  14.384
26727W        W95057   3.798   1.824  13.395
26728W        W95058  27.506  14.761   3.730
26729W        W95059  30.452  22.214   3.368
26730W        W95060   2.360   1.751   0.302
26731W        W95061  21.060   5.400   0.949
26732W        W95062  30.648   5.219  14.291
26733W        W95063  31.585  37.866  12.876
26734W        W95064  17.164  36.897   1.423
26735W        W95065  37.483  21.684   1.420
26736W        W95066  30.029  31.953   0.258
26737W        W95067  22.616  43.001   4.307
26738W        W95068  20.152  28.064   2.207
26739W        W95069  14.113  23.643   0.331
26740W        W95070   2.271   7.273   2.722
26741W        W95071  21.243  26.120   0.321
26742W        W95072  22.618  35.495   4.151
26743W        W95073   8.723  39.824  11.469
26744W        W95074   0.270   8.305  12.969
26745W        W95075  10.858  18.178   4.314
26746W        W95076  33.078  36.994   0.822
26747W        W95077  21.098  14.647   2.858
26748W        W95078   1.889  35.903   0.739
26749W        W95079   1.938  37.935   1.758
26750W        W95080  20.181  27.477  12.442
26751W        W95081  13.181  29.613   3.342
26752W        W95082  14.651  24.546  11.546
26753W        W95083  37.846  42.996  11.592
26754W        W95084  33.891  15.665  14.375
26755W        W95085  39.946  24.196  12.424
26756W        W95086   3.782   7.194   3.765
26757W        W95087  41.931  21.082  14.418
26758W        W95088  24.581   9.254  11.486
26759W        W95089  23.627  16.641   3.827
26760W        W95090   0.402  11.309  13.481
26761W        W95091  14.769  31.567   1.898
26762W        W95092  40.797  28.571  10.549
26763W        W95093   5.737  40.940  13.390
26764W        W95094  17.575  32.056  14.028
26765W        W95095   3.926  38.026  10.418
26766W        W95096  12.121  35.970   1.921
26767W        W95097  28.114  18.604  13.003
26768W        W95098  27.085   8.731  10.419
26769W        W95099  13.281   8.193   2.725
26770W        W95100  11.698  25.109   1.445
26771W        W95101   0.433  40.508  14.945
26772W        W95102  40.515  27.145   3.249
26773W        W95103  14.261  33.898  13.481
26774W        W95104  22.504  37.022   1.250
26775W        W95105   1.916  10.795   2.391
26776W        W95106   1.318  32.051   2.808
26777W        W95107   5.878  39.030   3.148
26778W        W95108  11.845   4.373  11.512
26779W        W95109  31.998  21.746  13.326
26780W        W95110  22.558  20.051  13.372
26781W        W95111  23.722  11.208  10.421
26782W        W95112  42.930  32.469   1.441
26783W        W95113  30.559   4.405  11.478
26784W        W95114  22.221  35.534  13.830
26785W        W95115  31.035  41.451   2.307
26786W        W95116  44.344  43.948   4.670
26787W        W95117  41.521   4.207   3.186
26788W        W95118  39.467  38.516   0.734
26789W        W95119  17.155  14.656  14.012
26790W        W95120  17.633  44.503  10.532
26791W        W95121  10.827  29.009   0.767
26792W        W95122  41.954  24.036   1.368
26793W        W95123   7.728  11.142  11.928
26794W        W95124  14.241  24.708   4.268
26795W        W95125   9.675  26.171  10.967
26796W        W95126  25.028   6.740   1.446
26797W        W95127  14.158  40.476  13.830
26798W        W95128  13.287  31.514  14.814
26799W        W95129   6.755  10.841  10.982
26800W        W95130  38.371  10.778  12.446
26801W        W95131  28.930  16.233   2.386
26802W        W95132   0.832  19.705  14.821
26803W        W95133  11.217  28.507  12.888
26804W        W95134  13.687   1.890   2.674
26805W        W95135   1.239  14.612   2.859
26806W        W95136  24.567  29.662  14.986
26807W        W95137   5.383   7.688  12.881
26808W        W95138  30.912  30.086  13.858
26809W        W95139   4.333  25.562  12.580
26810W        W95140  43.978  33.937  12.429
26811W        W95141  41.445  16.792   3.240
26812W        W95142  24.984  31.121  11.427
26813W        W95143  43.873   6.237   2.697
26814W        W95144  13.132  13.272  11.395
26815W        W95145  40.497  35.400  14.829
26816W        W95146  35.965  30.622  12.393
26817W        W95147  39.917  25.559  11.489
26818W        W95148   3.416  10.302   5.136
26819W        W95149  32.614  27.127   1.737
26820W        W95150   8.705  22.156  12.926
26821W        W95151  24.579  28.509  10.952
26822W        W95152   4.868   4.894   0.342
26823W        W95153   8.344  36.002  12.464
26824W        W95154   1.249   1.262  11.041
26825W        W95155  43.995   0.462  11.963
26826W        W95156  13.790  16.106   3.337
26827W        W95157  36.925  10.684   3.710
26828W        W95158  10.770  26.129  13.929
26829W        W95159  18.752  26.952  12.437
26830W        W95160  22.154  19.051   1.928
26831W        W95161   2.748  13.320   1.351
26832W        W95162  43.473  31.950  14.452
26833W        W95163  39.021   0.413  14.439
26834W        W95164  21.531  41.984   4.747
26835W        W95165  10.213  30.155   1.836
26836W        W95166   5.878  33.485   4.169
26837W        W95167  44.463  27.196  10.590
26838W        W95168  23.536  12.292  10.987
26839W        W95169  23.187  25.193  13.448
26840W        W95170  43.391  29.456   3.165
26841W        W95171  36.382  41.397  12.574
26842W        W95172  44.839  10.332  12.579
26843W        W95173  30.058  10.677   2.181
26844W        W95174   5.708  17.163  11.398
26845W        W95175  32.612  15.738   0.264
26846W        W95176  40.409   6.761   9.942
26847W        W95177  40.800  11.139   0.962
26848W        W95178   7.190  41.966   0.280
26849W        W95179  38.451  14.803   0.277
26850W        W95180  21.051  22.519  10.634
26851W        W95181  30.079  17.622   3.332
26852W        W95182   3.931  13.753  11.084
26853W        W95183  14.303  31.503   3.715
26854W        W95184  16.292  30.443   1.433
26855W        W95185  28.499  38.835   2.317
26856W        W95186  27.526  18.065   2.303
26857W        W95187  29.994  33.040  13.494
26858W        W95188  15.696   3.927  12.364
26859W        W95189   0.844  33.878   2.280
26860W        W95190   6.185  28.675   0.941
26861W        W95191  17.714  25.097  11.564
26862W        W95192   4.869   7.240   1.344
26863W        W95193  36.883  29.486  12.010
26864W        W95194   2.368  44.871   2.378
26865W        W95195  31.006  26.522  11.377
26866W        W95196   6.245  27.091  13.951
26867W        W95197   0.818  13.799   4.744
26868W        W95198   9.363  16.227  12.363
26869W        W95199  29.921  21.691   3.231
26870W        W95200   7.222  23.524  14.510
26871W        W95201  19.048  35.937   3.649
26872W        W95202  33.455  23.554   4.698
26873W        W95203   6.353  37.351   2.257
26874W        W95204  13.153   2.264   2.745
26875W        W95205  31.635   9.187  13.815
26876W        W95206  25.087   2.868   3.304
26877W        W95207  39.372  34.597  13.853
26878W        W95208  42.861  20.559   3.238
26879W        W95209  28.644  37.923   3.725
26880W        W95210  43.928  43.975   4.182
26881W        W95211  16.278  17.772  11.531
26882W        W95212  38.536   5.259  13.428
26883W        W95213   2.263   2.913  12.339
26884W        W95214   9.646  38.042   1.703
26885W        W95215  41.447  24.008   3.744
26886W        W95216   0.784  41.809  14.967
26887W        W95217  14.316  29.038  13.019
26888W        W95218  29.531  37.342  13.543
26889W        W95219  22.121   5.824  13.040
26890W        W95220  18.716  18.110   1.388
26891W        W95221  36.851  35.527  14.789
26892W        W95222  19.200  25.489  10.631
26893W        W95223  12.323   6.831   3.671
26894W        W95224  30.486   0.793   3.251
26895W        W95225  44.841   7.275   1.223
26896W        W95226  35.032  14.264   3.368
26897W        W95227  19.207  33.010  12.555
26898W        W95228  16.741  26.534  10.443
26899W        W95229  39.505  32.438  13.488
26900W        W95230  40.855   4.270  12.579
26901W        W95231  21.094  35.086   5.274
26902W        W95232  13.248  36.569  14.006
26903W        W95233  30.437  30.954   2.207
26904W        W95234   3.874  15.744   4.803
26905W        W95235  38.346  38.416  14.769
26906W        W95236  43.778   8.238  11.433
26907W        W95237   1.412  31.528   2.352
26908W        W95238  22.107  43.306   4.673
26909W        W95239  42.953  31.451   2.380
26910W        W95240  18.568  40.824   0.380
26911W        W95241  20.533  12.697   2.896
26912W        W95242  18.231  30.916  12.466
26913W        W95243   6.364  22.207  13.359
26914W        W95244  31.082  10.322   1.818
26915W        W95245  10.274  17.213  13.882
26916W        W95246   0.401   7.744  14.808
26917W        W95247  16.590  36.028  12.085
26918W        W95248  21.159  30.622   1.884
26919W        W95249  17.786  20.111  11.046
26920W        W95250  14.264  19.626  14.891
26921W        W95251  38.846  39.455   1.225
26922W        W95252  34.445  10.146   2.388
26923W        W95253  17.254  18.134  10.470
26924W        W95254  30.967   8.374  10.489
26925W        W95255  39.813  41.455   1.741
26926W        W95256   0.986  25.540  10.570
26927W        W95257  23.197   7.902   3.654
26928W        W95258   7.704   3.865  14.313
26929W        W95259  36.454  31.558   1.316
26930W        W95260   7.728   7.803   3.275
26931W        W95261  37.536  41.003   4.687
26932W        W95262  38.326  43.976  14.475
26933W        W95263  32.538  11.152   1.278
26934W        W95264  11.822  12.151   0.944
26935W        W95265  35.544  23.727   3.778
26936W        W95266  39.482  42.444   1.794
26937W        W95267   1.913  28.181   3.831
26938W        W95268  10.273  20.081   1.781
26939W        W95269  31.402  12.730  10.581
26940W        W95270  42.833  20.072   1.291
26941W        W95271   3.758  44.273   1.441
26942W        W95272  19.706  37.531  13.329
26943W        W95273  14.333  26.693   0.404
26944W        W95274  10.842  28.019   2.365
26945W        W95275  18.080  32.092  11.378
26946W        W95276  42.292  21.521  12.485
26947W        W95277  30.115  34.117   5.743
26948W        W95278  15.779  32.886  10.985
26949W        W95279   7.257  15.581   4.767
26950W        W95280  43.992  17.197   4.720
26951W        W95281   4.853   9.295  11.043
26952W        W95282  15.766   9.781  14.773
26953W        W95283  20.561   2.255  11.878
26954W        W95284  32.116  22.010   1.896
26955W        W95285  38.482   4.708  13.997
26956W        W95286   5.358   6.423   1.429
26957W        W95287  36.386  16.595  14.821
26958W        W95288  16.662  32.487  14.822
26959W        W95289   9.180  16.283  10.926
26960W        W95290  23.545   3.259  14.905
26961W        W95291  14.194   5.425  12.523
26962W        W95292  22.699  38.030   0.938
26963W        W95293  12.802  44.828   4.738
26964W        W95294   5.248   0.880  11.085
26965W        W95295  36.042  36.529   0.766
26966W        W95296  39.911  41.038   3.758
26967W        W95297  14.278  19.260   1.311
26968W        W95298  22.096  34.583   2.836
26969W        W95299  27.090   7.417   3.652
26970W        W95300   3.282  37.491   4.203
26971W        W95301  40.901  16.147  12.844
26972W        W95302  16.123  11.805  11.408
26973W        W95303  38.830   3.811  13.460
26974W        W95304  12.303  16.180  11.394
26975W        W95305  15.301  19.744  13.891
26976W        W95306  39.046   0.763  12.909
26977W        W95307  41.533  17.275  14.022
26978W        W95308  42.417  19.118  11.372
26979W        W95309  30.615  35.541  10.593
26980W        W95310   4.832  36.434   4.272
26981W        W95311  11.822  24.478  14.818
26982W        W95312  41.827  30.593   4.713
26983W        W95313  17.598  33.508  10.971
26984W        W95314  22.183   1.385   3.788
26985W        W95315  26.038   0.820  12.978
26986W        W95316  35.054   9.381   3.697
26987W        W95317  33.394  19.076   2.884
26988W        W95318   3.348  17.627  14.902
26989W        W95319   4.799  10.177  12.479
26990W        W95320  13.724  33.594   2.894
26991W        W95321   4.311  44.918  14.990
26992W        W95322  40.887  42.927  14.480
26993W        W95323  33.546  28.990   3.158
26994W        W95324   9.689   0.308  14.316
26995W        W95325   5.240  33.553   2.809
26996W        W95326  30.613  12.147  11.940
26997W        W95327  26.092   9.854   3.713
26998W        W95328  14.114  27.549   1.435
26999W        W95329  10.679   7.406  10.416
27000W        W95330  28.020  42.970   5.157
27001W        W95331  13.604  37.848   2.705
27002W        W95332  24.605  40.957   0.334
27003W        W95333  35.030  16.714   3.306
27004W        W95334  13.293  21.518   4.677
27005W        W95335   7.411  38.528  14.950
27006W        W95336  33.920  15.118  14.405
27007W        W95337  10.238  38.421   4.683
27008W        W95338  38.357  21.038   2.864
27009W        W95339  30.622  17.215   4.686
27010W        W95340   2.437  17.775   1.854
27011W        W95341  30.571  41.858   3.771
27012W        W95342   5.903  40.991   2.346
27013W        W95343  20.219  21.171   1.422
27014W        W95344  44.364  27.633   3.673
27015W        W95345  29.161   2.836   2.397
27016W        W95346  36.430  23.044   3.383
27017W        W95347   0.917  24.217   1.928
27018W        W95348  32.527  43.280   3.208
27019W        W95349  21.614  32.466  10.910
27020W        W95350  19.235  13.221  10.529
27021W        W95351  22.139   5.812   0.384
27022W        W95352  19.066  29.967   9.598
27023W        W95353  41.920  34.985   4.760
27024W        W95354  30.560  11.280   4.631
27025W        W95355  22.227  12.732  13.049
27026W        W95356  11.227  28.446  14.992
27027W        W95357  34.065  33.128  12.482
27028W        W95358  27.456  43.922   1.710
27029W        W95359  10.268  38.946   4.240
27030W        W95360  30.446   8.709  12.019
27031W        W95361  19.132  42.301   0.417
27032W        W95362  10.277  41.372   3.340
27033W        W95363  41.934  29.655  13.370
27034W        W95364  43.945  12.795  12.470
27035W        W95365  42.875  34.520  11.384
27036W        W95366  33.380  34.530   2.672
27037W        W95367  21.078  30.578  13.045
27038W        W95368  33.917   5.405   4.607
27039W        W95369  18.782  38.921   4.219
27040W        W95370   8.193   7.382   4.183
27041W        W95371  38.473  35.940   2.345
27042W        W95372  44.755  38.980   3.805
27043W        W95373  11.771  31.136  12.525
27044W        W95374   5.260  11.790  11.556
27045W        W95375  11.631   8.743  11.064
27046W        W95376  10.817  12.198  12.506
27047W        W95377  16.759  40.541  10.609
27048W        W95378  31.530  20.072   1.779
27049W        W95379  13.309  39.916  11.373
27050W        W95380  37.050  28.996  13.428
27051W        W95381  22.732   4.239  10.577
27052W        W95382  17.757  36.386   0.426
27053W        W95383   0.375  23.680  13.794
27054W        W95384  11.308   7.762   3.148
27055W        W95385  18.765  35.505  10.555
27056W        W95386  31.128  38.481  11.517
27057W        W95387  20.145  13.182  13.349
27058W        W95388   9.812  40.014  11.498
27059W        W95389  44.345  42.387  11.605
27060W        W95390  40.853  39.469   2.205
27061W        W95391  39.417  27.027  10.437
27062W        W95392  34.037  12.812   3.227
27063W        W95393  43.362   4.790   4.645
27064W        W95394   4.816  20.137   2.376
27065W        W95395  24.524  30.029   3.230
27066W        W95396   5.397  13.347  14.357
27067W        W95397   1.337  29.052   2.228
27068W        W95398  25.121  20.638   3.680
27069W        W95399  30.999   3.729   3.223
27070W        W95400  12.214  34.019   3.177
27071W        W95401  14.820   9.391  13.325
27072W        W95402  14.726  23.999   3.767
27073W        W95403  16.138   9.187   0.368
27074W        W95404   1.304   6.252   3.683
27075W        W95405   7.864  15.128  11.566
27076W        W95406  28.050   0.753  14.405
27077W        W95407   7.849   0.859   4.189
27078W        W95408   8.219  15.253  14.913
27079W        W95409   8.716  16.190   1.435
27080W        W95410  13.107   7.736  13.327
27081W        W95411   0.380  43.469  13.490
27082W        W95412  41.437  29.933  11.470
27083W        W95413   2.231  27.499  12.980
27084W        W95414  30.089  19.580  13.460
27085W        W95415  37.445  40.438  11.867
27086W        W95416  28.141   8.284   0.947
27087W        W95417  17.669  28.028   2.681
27088W        W95418  24.615   1.969  12.046
27089W        W95419  14.641   1.902   4.813
27090W        W95420  18.744  38.896   3.199
27091W        W95421  33.944  36.943  12.861
27092W        W95422  25.545  22.161  10.540
27093W        W95423  23.602  20.753   3.231
27094W        W95424  25.582   5.420   1.755
27095W        W95425   3.811  25.540   2.787
27096W        W95426  19.660  28.641  12.949
27097W        W95427  10.723  26.194   2.708
27098W        W95428   1.401  35.975  11.081
27099W        W95429  34.877  16.198   2.814
27100W        W95430   4.332  20.060  12.871
27101W        W95431  20.558   3.304  13.421
27102W        W95432  21.110  31.582   1.869
27103W        W95433  38.981  29.530   1.749
27104W        W95434  11.657  39.421   0.856
27105W        W95435  21.181  30.630  11.506
27106W        W95436  38.060   9.883  13.964
27107W        W95437   5.416   6.741   2.294
27108W        W95438  13.660  28.497   2.264
27109W        W95439  42.383  18.750   3.284
27110W        W95440   1.287  20.617   3.168
27111W        W95441  37.533  16.727  12.850
27112W        W95442  34.558  34.528  11.373
27113W        W95443   1.366   2.304   1.271
27114W        W95444   1.266   0.808   3.348
27115W        W95445  29.027  23.128   2.344
27116W        W95446  28.041  31.498  12.442
27117W        W95447  42.515  38.900  12.867
27118W        W95448  42.295  44.476   2.224
27119W        W95449  13.717  29.980  11.469
27120W        W95450   5.747  38.903   4.320
27121W        W95451  26.682   1.972   2.348
27122W        W95452  26.573  11.859  12.498
27123W        W95453  23.161   5.341  13.412
27124W        W95454   4.846   0.386   2.391
27125W        W95455   9.204  40.002   2.331
27126W        W95456  12.853  25.168  11.022
27127W        W95457  28.935  24.656  12.830
27128W        W95458  26.994  23.164  13.397
27129W        W95459  11.829  42.826   0.407
27130W        W95460  25.010  40.432  12.862
27131W        W95461  10.305  13.198   1.212
27132W        W95462  17.688   6.730   4.694
27133W        W95463  41.836  41.912  14.965
27134W        W95464  34.908  26.095  10.628
27135W        W95465  29.534  31.555   2.825
27136W        W95466   8.671  35.547   1.758
27137W        W95467  42.486  14.142   0.320
27138W        W95468  17.694   5.794   1.904
27139W        W95469   2.303   3.442  10.120
27140W        W95470  41.885  21.655   0.362
27141W        W95471  30.983  38.550   3.228
27142W        W95472   3.922  22.068  12.541
27143W        W95473  17.107  27.454   4.630
27144W        W95474  36.986   6.872   1.411
27145W        W95475  18.789  44.793   1.410
27146W        W95476   6.419  39.014  14.332
27147W        W95477  25.514  37.366   3.656
27148W        W95478  40.926   8.326   2.342
27149W        W95479  43.793  44.453  14.801
27150W        W95480  40.031  26.527  13.347
27151W        W95481   2.920  19.591   0.823
27152W        W95482  18.154   5.760  14.905
27153W        W95483  31.106  20.647   1.304
27154W        W95484  44.899  28.008   4.147
27155W        W95485   0.385  13.758  10.921
27156W        W95486  22.564  19.066  12.568
27157W        W95487  25.004   7.192  12.890
27158W        W95488   3.411  39.448  10.987
27159W        W95489  40.885  44.486  14.326
27160W        W95490  24.174  25.534  13.537
27161W        W95491  27.124  40.528   0.948
27162W        W95492  18.191  19.040  14.835
27163W        W95493  16.757  36.020   2.740
27164W        W95494  33.921   0.846   3.299
27165W        W95495  11.337  32.887   1.239
27166W        W95496  24.693  43.508   3.693
27167W        W95497  19.577   7.876   4.706
27168W        W95498  25.982  33.463  13.060
27169W        W95499   7.337   0.395   4.181
27170W        W95500  12.303  32.479  12.438
27171W        W95501  31.097  22.662   5.110
27172W        W95502   9.183  17.571   3.635
27173W        W95503  17.089  34.429  12.058
27174W        W95504  15.742   7.906  14.837
27175W        W95505  11.664   7.337  11.089
27176W        W95506   6.212  24.134   4.149
27177W        W95507  28.973  38.566   0.785
27178W        W95508  20.552  42.018   1.756
27179W        W95509  29.968  10.338   1.417
27180W        W95510  31.143  33.466   3.363
27181W        W95511   9.772  18.242  11.046
27182W        W95512  13.270  23.519  13.942
27183W        W95513  33.981  10.679  13.948
27184W        W95514  32.452  12.227  14.500
27185W        W95515  17.637   4.820  13.403
27186W        W95516  28.178   7.346  11.472
27187W        W95517  41.920  28.618  14.504
27188W        W95518  10.834  38.894  12.939
27189W        W95519  37.502  25.554  10.579
27190W        W95520  34.476  12.701  12.883
27191W        W95521  20.060  10.705  11.899
27192W        W95522  11.707  37.421   3.318
27193W        W95523  13.675  42.808   2.199
27194W        W95524   8.819  37.393   0.766
27195W        W95525  24.196   6.207  11.527
27196W        W95526  17.709  36.590  14.436
27197W        W95527  44.261  19.103  12.483
27198W        W95528   4.290   3.336  10.612
27199W        W95529  42.793  39.323   0.371
27200W        W95530  40.480  21.155   2.201
27201W        W95531  37.506  20.612  13.525
27202W        W95532  23.176  18.750  13.944
27203W        W95533  11.178  10.200   1.755
27204W        W95534  10.273   0.434  13.515
27205W        W95535  41.804   1.269   3.862
27206W        W95536  30.051  14.609  10.525
27207W        W95537  17.661   5.254  13.463
27208W        W95538  36.887  43.303   1.774
27209W        W95539  13.798   7.823   0.406
27210W        W95540  25.614  39.362  14.766
27211W        W95541   3.719   9.768  13.027
27212W        W95542  33.592  18.544  11.571
27213W        W95543  21.018  28.606  14.962
27214W        W95544   9.211   5.234  12.090
27215W        W95545  24.100   4.365  14.982
27216W        W95546   7.860  25.159  12.055
27217W        W95547   5.406  44.290  13.464
27218W        W95548  29.139  16.619  12.000
27219W        W95549  26.986  22.055   4.825
27220W        W95550  26.655  34.926   3.192
27221W        W95551  29.537   5.775   2.705
27222W        W95552  18.228  40.898   4.712
27223W        W95553  40.322  21.123   3.385
27224W        W95554  35.456  42.974  11.515
27225W        W95555  31.065  29.580  10.049
27226W        W95556  17.661  10.223   4.225
27227W        W95557  40.827  13.131  11.115
27228W        W95558  37.465   7.713   5.303
27229W        W95559  27.958   5.785  13.998
27230W        W95560  33.551  25.575  10.512
27231W        W95561  31.987   7.326   2.669
27232W        W95562  43.852  28.491  10.529
27233W        W95563  28.041  31.402   3.182
27234W        W95564  10.274  38.944   5.139
27235W        W95565  32.093  31.619  14.804
27236W        W95566  36.489  28.457  12.980
27237W        W95567  11.680  15.701  12.064
27238W        W95568  21.539  20.753  10.958
27239W        W95569   3.457   2.355  10.465
27240W        W95570  25.560   3.247   0.325
27241W        W95571  30.458  34.062   2.859
27242W        W95572  27.612  14.753   4.224
27243W        W95573  16.094  35.485  11.525
27244W        W95574  35.431  38.374  12.456
27245W        W95575  28.973  43.781   3.176
27246W        W95576  13.261  15.645  14.981
27247W        W95577   4.893  35.409  11.470
27248W        W95578  43.895  23.622   0.949
27249W        W95579   9.383   0.485  12.550
27250W        W95580  19.154  24.230   2.816
27251W        W95581  35.994  36.467  12.854
27252W        W95582  26.076  43.342  11.412
27253W        W95583  38.880  15.592   0.332
27254W        W95584  23.987  13.836  12.524
27255W        W95585  41.799  20.735  12.558
27256W        W95586  25.673  18.789   4.339
27257W        W95587  38.479  27.140  11.613
27258W        W95588  29.479  39.889  11.568
27259W        W95589  23.648  32.074   2.665
27260W        W95590  41.946  39.808   5.180
27261W        W95591   4.310  24.156   4.313
27262W        W95592  33.950  35.487  13.942
27263W        W95593  44.363  41.864  11.045
27264W        W95594  29.168  18.156  10.596
27265W        W95595  20.706   0.958  13.002
27266W        W95596  21.755   5.357  11.411
27267W        W95597  33.050  12.677  11.430
27268W        W95598  38.016  44.293   1.752
27269W        W95599  14.788  22.544   2.704
27270W        W95600  40.982  28.137  11.116
27271W        W95601   9.351   6.785   2.219
27272W        W95602  34.902  34.593   0.878
27273W        W95603  32.939   2.862   0.357
27274W        W95604  42.420  26.544   1.914
27275W        W95605   7.885  24.128  14.482
27276W        W95606   7.792  35.380   0.346
27277W        W95607  14.274  18.554   3.151
27278W        W95608  39.490   3.800  10.959
27279W        W95609  28.001  18.774   3.753
27280W        W95610  26.499  31.951   0.481
27281W        W95611  20.205  13.826   3.712
27282W        W95612  26.048  34.028   1.927
27283W        W95613   7.321  38.860   1.299
27284W        W95614  14.663   3.728   4.829
27285W        W95615  37.926   4.358  13.328
27286W        W95616   3.451  24.498   2.672
27287W        W95617   1.332  33.453  12.932
27288W        W95618  36.492   2.459   0.243
27289W        W95619   7.866  44.881  14.955
27290W        W95620  29.931  44.924  14.949
27291W        W95621  39.389  11.329  10.991
27292W        W95622  17.617   3.792   2.328
27293W        W95623   9.754  12.307   2.404
27294W        W95624   6.706   5.856  13.019
27295W        W95625   4.361  32.031   2.211
27296W        W95626  21.553  38.543  12.884
27297W        W95627  17.102  39.951  12.473
27298W        W95628  33.511  11.631   1.772
27299W        W95629  23.634  35.976  11.493
27300W        W95630  15.271  27.143  14.950
27301W        W95631  18.053  41.483  14.276
27302W        W95632   3.303   4.289  11.979
27303W        W95633   4.913  27.143  14.799
27304W        W95634  43.865  13.337  13.940
27305W        W95635  41.874  27.041  11.469
27306W        W95636  11.789  36.519   3.683
27307W        W95637  42.928   6.771  11.068
27308W        W95638   6.829  32.938   3.362
27309W        W95639  28.439  17.683  13.020
27310W        W95640  24.101  12.668  14.427
27311W        W95641   2.266   4.918  13.890
27312W        W95642   7.340  17.254   4.807
27313W        W95643   0.389  37.511   5.242
27314W        W95644   0.325  36.904  12.407
27315W        W95645  28.646  42.000   4.701
27316W        W95646  18.787  36.522   3.688
27317W        W95647  20.142  36.572  13.833
27318W        W95648  31.909  32.395  13.521
27319W        W95649  11.744  20.195   9.943
27320W        W95650  13.605  26.479   2.247
27321W        W95651  40.308  27.449   4.770
27322W        W95652  44.363  20.028   5.109
27323W        W95653  13.813  42.452   1.440
27324W        W95654  42.914  25.214  14.296
27325W        W95655   8.695  19.597   4.294
27326W        W95656   0.880   9.278   0.787
27327W        W95657  37.404  36.520  14.276
27328W        W95658  32.432   7.785   2.674
27329W        W95659  10.257  14.194   4.693
27330W        W95660  29.452  29.994   0.449
27331W        W95661  20.113  18.776   4.193
27332W        W95662  44.401  14.711   5.155
27333W        W95663   9.160   5.809  12.840
27334W        W95664  25.112   5.234   2.242
27335W        W95665  16.732  32.396  11.498
27336W        W95666  25.679  10.661  12.960
27337W        W95667   5.383   2.415   2.822
27338W        W95668   4.366  37.993   3.175
27339W        W95669  37.391  28.526  13.470
27340W        W95670  43.934  34.871  11.982
27341W        W95671  16.596  36.944   2.273
27342W        W95672   5.331   0.398  14.870
27343W        W95673   9.341  37.363   3.662
27344W        W95674  41.349  14.633   1.697
27345W        W95675   9.334  19.742   4.722
27346W        W95676  18.782  16.590  13.445
27347W        W95677  31.909  41.949  13.384
27348W        W95678  27.664  32.134   0.877
27349W        W95679   4.830  12.804  12.344
27350W        W95680  11.800  17.064  11.993
27351W        W95681  31.148   7.193  12.465
27352W        W95682  22.575  33.617   4.606
27353W        W95683   7.850  21.167  10.946
27354W        W95684  33.947  24.701  10.543
27355W        W95685   0.837  14.262  12.477
27356W        W95686   5.394  40.797  10.410
27357W        W95687  32.609   0.841  13.829
27358W        W95688   3.237   5.384  13.413
27359W        W95689  12.761  10.147  12.846
27360W        W95690  12.777  35.047  14.976
27361W        W95691  38.387  18.714   4.251
27362W        W95692   8.878  22.251   1.876
27363W        W95693  44.978   1.333  12.072
27364W        W95694  22.589  25.146   4.261
27365W        W95695   5.292  14.095   0.736
27366W        W95696  15.123  18.224  10.528
27367W        W95697  40.800  44.799  14.814
27368W        W95698   3.460  32.442  12.965
27369W        W95699   0.478  14.167  13.975
27370W        W95700  35.415  17.581   0.878
27371W        W95701   1.467  14.736   3.734
27372W        W95702  42.857   6.419   1.293
27373W        W95703  44.971   2.238   2.350
27374W        W95704   2.865  32.413  13.846
27375W        W95705  38.365   6.757  12.918
27376W        W95706  16.722  31.018  13.528
27377W        W95707  22.104  31.081  13.476
27378W        W95708   5.772  35.447  13.491
27379W        W95709  42.969  36.437   0.894
27380W        W95710  11.650   6.698   0.929
27381W        W95711  29.014   3.453  14.777
27382W        W95712  20.587  35.468   0.920
27383W        W95713  22.511   5.736   9.941
27384W        W95714  21.262  13.317  13.868
27385W        W95715  12.661  21.599  14.849
27386W        W95716   9.676  27.480   3.264
27387W        W95717  37.042  41.810   0.899
27388W        W95718  40.363  18.663  13.454
27389W        W95719  38.391  39.843   3.786
27390W        W95720  37.365  44.939  10.476
27391W        W95721  19.245  41.927   4.271
27392W        W95722  42.998  36.536  11.998
27393W        W95723  41.033  15.307  12.506
27394W        W95724  40.354   2.267   3.753
27395W        W95725   8.792  12.715   0.278
27396W        W95726  33.604  37.519  14.482
27397W        W95727  35.975  21.185  11.979
27398W        W95728  33.075  42.903   1.297
27399W        W95729   4.221  17.251  12.055
27400W        W95730  24.654  44.484  13.868
27401W        W95731  16.128  25.158   4.828
27402W        W95732  28.463  12.262   5.257
27403W        W95733   1.961  27.126   2.265
27404W        W95734  28.072  10.686  11.429
27405W        W95735   0.743  22.106  12.024
27406W        W95736  21.646  19.267   2.885
27407W        W95737  21.143  26.177  12.440
27408W        W95738   4.209  36.510  12.038
27409W        W95739   0.270  18.089  13.995
27410W        W95740   6.275  41.372   1.925
27411W        W95741   5.733   6.877   1.416
27412W        W95742  38.530   1.739  14.883
27413W        W95743  19.624  32.102   0.292
27414W        W95744  19.054  33.414  14.373
27415W        W95745  32.007   7.784   1.299
27416W        W95746  18.727  26.982   4.741
27417W        W95747  22.130  37.378  12.565
27418W        W95748  17.096   2.252  14.025
27419W        W95749  44.341  27.169  14.508
27420W        W95750   3.820  41.819  12.016
27421W        W95751  35.978  16.094  11.420
27422W        W95752  25.170  19.113   1.266
27423W        W95753  38.508  21.635  11.128
27424W        W95754   6.246  26.004  11.899
27425W        W95755  29.544  41.984  14.341
27426W        W95756  38.364  17.253   0.401
27427W        W95757  27.632  32.475   1.851
27428W        W95758  41.435  15.647  12.910
27429W        W95759  43.440  37.408  13.811
27430W        W95760  15.808  32.081  14.336
27431W        W95761  35.005  11.269   3.292
27432W        W95762  39.869  18.234  14.463
27433W        W95763  38.545  26.617   3.802
27434W        W95764   8.314  39.502  13.388
27435W        W95765  15.312  17.121   2.745
27436W        W95766   1.392   7.826   1.924
27437W        W95767  43.852  32.538  11.998
27438W        W95768  14.602  36.979  14.020
27439W        W95769  41.300  17.639  13.499
27440W        W95770  25.661   8.879   2.833
27441W        W95771  23.705  25.094   2.812
27442W        W95772  23.045   6.196  10.993
27443W        W95773  27.599  20.573   4.632
27444W        W95774  17.208  21.167  13.792
27445W        W95775   7.180  17.074   0.377
27446W        W95776  30.444  23.208   2.265
27447W        W95777  32.059  20.682   1.385
27448W        W95778   3.848  39.518  13.833
27449W        W95779  42.778  38.824  12.881
27450W        W95780   0.930  30.961  10.636
27451W        W95781  13.339  13.306   3.680
27452W        W95782  28.451   5.846   2.342
27453W        W95783  26.474  43.811   2.221
27454W        W95784  36.485  41.506  11.022
27455W        W95785  21.209  41.522  10.442
27456W        W95786   1.897  44.324   0.249
27457W        W95787  38.548  18.654  10.575
27458W        W95788   8.369  39.932  13.333
27459W        W95789   8.739  10.772   1.907
27460W        W95790   5.367  38.012  12.061
27461W        W95791   2.833   4.267  14.988
27462W        W95792  38.397  15.189   4.325
27463W        W95793   4.768   0.809  11.995
27464W        W95794   4.341  12.157  14.367
27465W        W95795  17.283  23.541  10.944
27466W        W95796   1.903  15.201  11.484
27467W        W95797  32.017  15.089  10.149
27468W        W95798  42.500   8.657   1.409
27469W        W95799  11.259  28.043   0.434
27470W        W95800  43.918  43.875  12.580
27471W        W95801  20.701   6.242  13.315
27472W        W95802  26.475  15.645  11.507
27473W        W95803  27.181  20.662  11.516
27474W        W95804  11.141  31.616   0.875
27475W        W95805   6.735  10.838   3.868
27476W        W95806  27.481  40.497  13.844
27477W        W95807  23.023  33.896  13.338
27478W        W95808   7.718  31.531  13.493
27479W        W95809  41.028  28.031   1.283
27480W        W95810  24.001  32.957  11.113
27481W        W95811   2.822  16.225  11.582
27482W        W95812   0.880   5.890  12.880
27483W        W95813  34.116  24.495  11.920
27484W        W95814  18.296  16.075   1.299
27485W        W95815  36.975  42.897   5.322
27486W        W95816  22.223  28.158   2.227
27487W        W95817  24.202   9.224   4.206
27488W        W95818  31.139  34.051  12.896
27489W        W95819  20.592  41.389  11.489
27490W        W95820  43.508  33.081  12.835
27491W        W95821  17.728  38.886  14.775
27492W        W95822  21.698  25.049   0.378
27493W        W95823  13.779  34.863  11.935
27494W        W95824  39.324  41.415  10.589
27495W        W95825  12.263  37.577   2.396
27496W        W95826  44.317  21.602   0.251
27497W        W95827  42.444   6.878  13.350
27498W        W95828   5.300   3.398   4.243
27499W        W95829  44.301  34.037   1.374
27500W        W95830  33.535   7.247   1.236
27501W        W95831  31.576  16.300  14.466
27502W        W95832  16.651  15.659   9.941
27503W        W95833  28.075  38.400   0.449
27504W        W95834  16.276  43.015  12.376
27505W        W95835   7.885  36.853  14.907
27506W        W95836  21.555  30.535   2.241
27507W        W95837  27.194  41.915   3.343
27508W        W95838  17.688   7.242  12.920
27509W        W95839   3.861   5.808  14.347
27510W        W95840  18.676  39.383  13.359
27511W        W95841  34.108  16.665   4.719
27512W        W95842  24.560  44.879   4.637
27513W        W95843   7.820  29.634  13.898
27514W        W95844  16.761  31.447   3.214
27515W        W95845   5.689  22.216  10.636
27516W        W95846   7.360   9.757  14.765
27517W        W95847  35.987  18.050   4.661
27518W        W95848  37.858  28.078  10.416
27519W        W95849   0.838  24.101   5.253
27520W        W95850  30.572   6.820   0.382
27521W        W95851  10.273  27.605  14.014
27522W        W95852  21.625  35.912  12.854
27523W        W95853  38.901  27.971   1.897
27524W        W95854   7.785  40.972   1.444
27525W        W95855  23.160  11.132  11.036
27526W        W95856  19.064  31.011  14.331
27527W        W95857  35.969  29.108  11.439
27528W        W95858   3.438  10.357   3.780
27529W        W95859  20.141   1.482   4.300
27530W        W95860   2.353  12.667   5.116
27531W        W95861  12.300  12.803  10.891
27532W        W95862  40.443  18.083   0.917
27533W        W95863  27.198  33.057  14.991
27534W        W95864  35.918  21.551  10.463
27535W        W95865  13.203   4.419   4.288
27536W        W95866  19.281  31.639   1.769
27537W        W95867  10.157  39.540  10.976
27538W        W95868  18.778  18.224  14.972
27539W        W95869   0.884  32.435   2.292
27540W        W95870  34.017  21.713   2.181
27541W        W95871   9.677  11.139   2.354
27542W        W95872  17.690  12.119  14.340
27543W        W95873  20.265  30.509  14.426
27544W        W95874  26.645  43.331   3.228
27545W        W95875  26.629   2.765  14.307
27546W        W95876  42.844  33.956   4.739
27547W        W95877  15.320  31.034  13.313
27548W        W95878  14.332  32.601  10.474
27549W        W95879  29.645  17.800  14.308
27550W        W95880  22.689  29.565   3.339
27551W        W95881  39.359  39.489  12.084
27552W        W95882  24.131  11.173   2.664
27553W        W95883  30.423  14.653  11.091
27554W        W95884  19.248  22.587   2.330
27555W        W95885  43.825   3.381  13.965
27556W        W95886  31.522  41.840  11.544
27557W        W95887  10.192   2.386  10.412
27558W        W95888  44.365  15.801  12.080
27559W        W95889  23.508   0.823  12.087
27560W        W95890  21.698   2.326  10.975
27561W        W95891  37.833   7.273   4.175
27562W        W95892  31.634   5.233  11.561
27563W        W95893  25.017  42.387  11.093
27564W        W95894  30.994  37.452  10.919
27565W        W95895  27.968  23.706   1.718
27566W        W95896  26.537   3.312   3.870
27567W        W95897  33.425   3.908   0.257
27568W        W95898  11.160  11.237   4.727
27569W        W95899  22.995   5.883   3.250
27570W        W95900  42.939  13.723  13.900
27571W        W95901  25.983   7.907   2.203
27572W        W95902  29.508   7.341   3.172
27573W        W95903  40.981  20.143   4.771
27574W        W95904   1.262  15.301  14.385
27575W        W95905  27.482  21.607   0.769
27576W        W95906  10.232   3.719   1.410
27577W        W95907  44.457  33.060  14.964
27578W        W95908  18.760   1.320  14.916
27579W        W95909  26.956   8.695   3.269
27580W        W95910  10.781  28.176   0.256
27581W        W95911  20.566   9.169   9.590
27582W        W95912  33.467  32.523  12.357
27583W        W95913  19.599   4.849   1.251
27584W        W95914  44.419  17.557  11.105
27585W        W95915  31.564  40.846   1.755
27586W        W95916  13.750  15.730   2.871
27587W        W95917  16.191   6.238  14.909
27588W        W95918  17.296  31.144  14.299
27589W        W95919  21.663  24.538   4.132
27590W        W95920  25.215  24.713   0.350
27591W        W95921  24.574   9.836   1.263
27592W        W95922   3.297  41.299  13.411
27593W        W95923   8.247   7.901   3.280
27594W        W95924  41.959  42.010   0.819
27595W        W95925  23.599   2.914  12.888
27596W        W95926  12.259  23.062  10.593
27597W        W95927  33.906  39.841   4.712
27598W        W95928   6.907  24.493   0.878
27599W        W95929  12.194   2.916  11.114
27600W        W95930  32.414  29.526  14.931
27601W        W95931  38.008  43.952   2.715
27602W        W95932  19.658  24.060  10.889
27603W        W95933   6.358  21.100   4.635
27604W        W95934  40.379  19.047  10.453
27605W        W95935  23.720  17.125  12.507
27606W        W95936  31.009  36.544  13.797
27607W        W95937  22.650   0.253   1.725
27608W        W95938  10.314  16.582  14.818
27609W        W95939  20.119   9.346  14.005
27610W        W95940  12.120  38.044  14.954
27611W        W95941  14.221  27.513   2.242
27612W        W95942   8.358  19.558   4.668
27613W        W95943   1.329   1.474   0.437
27614W        W95944  26.056   6.841   0.842
27615W        W95945  32.585  35.862  12.404
27616W        W95946   2.291   5.325   2.353
27617W        W95947  32.539   0.871   3.211
27618W        W95948  31.968  13.290   1.311
27619W        W95949  28.640  18.751  13.367
27620W        W95950  44.338  44.837   1.450
27621W        W95951  38.436  42.820  14.482
27622W        W95952  12.724   8.259   3.346
27623W        W95953  19.616  25.683   0.960
27624W        W95954  40.027  15.132  11.889
27625W        W95955  13.229  13.618   0.427
27626W        W95956  10.798  13.746  14.797
27627W        W95957  37.882  27.017  12.544
27628W        W95958  30.990  34.533  10.505
27629W        W95959   2.455  34.085   3.346
27630W        W95960  40.501   0.479  13.824
27631W        W95961  11.654  38.937  11.500
27632W        W95962  15.115  36.968  10.451
27633W        W95963  16.659  42.979   0.937
27634W        W95964  18.273  28.518   3.733
27635W        W95965   1.461  22.214  12.396
27636W        W95966  36.349   5.335  14.844
27637W        W95967  34.378   9.263   0.905
27638W        W95968   9.213   8.774  13.872
27639W        W95969  12.360  20.619   0.462
27640W        W95970  29.175  17.569  11.119
27641W        W95971  36.925   8.887  13.873
27642W        W95972  31.955  42.973  13.837
27643W        W95973  15.622  29.597   1.250
27644W        W95974   3.863  32.107   3.655
27645W        W95975   4.434  23.735  11.566
27646W        W95976  27.993   3.876  14.431
27647W        W95977  35.043  41.489   2.195
27648W        W95978  25.566   8.658  14.504
27649W        W95979  38.839  28.004  11.992
27650W        W95980   6.398  11.627   5.242
27651W        W95981  17.077   1.784  10.034
27652W        W95982  23.696  34.573  14.483
27653W        W95983  37.920  25.480  13.062
27654W        W95984  36.515  44.829  10.613
27655W        W95985  13.307  26.678   2.397
27656W        W95986  33.613  16.270  13.381
27657W        W95987  32.524  42.346  14.275
27658W        W95988  17.760  18.554  10.978
27659W        W95989  37.953  21.580  14.435
27660W        W95990   4.923  41.400   1.883
27661W        W95991  11.343  34.890  14.434
27662W        W95992  19.126  16.604   4.294
27663W        W95993  34.940  25.086  14.314
27664W        W95994  24.623   0.971  11.548
27665W        W95995  36.014   0.927   1.250
27666W        W95996  35.442  23.104  13.440
27667W        W95997  41.828  10.306  10.507
27668W        W95998   2.289  19.583  14.397
27669W        W95999  34.574  42.513   0.769
27670W        W96000   0.771   1.479  12.927
27671W        W96001  43.283  31.451  12.894
27672W        W96002  16.799  40.932  11.529
27673W        W96003  40.863   1.385  12.055
27674W        W96004  36.358   3.444   0.805
27675W        W96005  19.113  43.998  12.886
27676W        W96006   6.387  13.239   2.345
27677W        W96007  10.807  44.280  10.893
27678W        W96008  21.568  30.436   5.702
27679W        W96009  26.175  21.105   4.640
27680W        W96010   3.779  12.761   1.322
27681W        W96011  17.285  34.559   2.838
27682W        W96012   0.449  18.174  12.438
27683W        W96013  35.079  25.187   5.227
27684W        W96014  33.043  19.644   0.730
27685W        W96015   8.678  38.912   1.797
27686W        W96016  38.539   7.818   2.259
27687W        W96017  34.029  20.157   3.769
27688W        W96018  33.579  39.863  13.825
27689W        W96019  43.820  39.029  11.116
27690W        W96020  33.131  43.003  10.592
27691W        W96021  29.497   3.325   4.182
27692W        W96022  30.977  33.027   3.301
27693W        W96023  14.791   6.688  12.440
27694W        W96024   2.816  17.264   0.965
27695W        W96025  20.626  19.651  10.010
27696W        W96026  26.643  24.654   0.294
27697W        W96027  42.954  29.964   4.763
27698W        W96028  42.781  38.502  14.857
27699W        W96029  15.233  19.764  12.053
27700W        W96030  17.609  31.986   3.715
27701W        W96031  40.803  41.446   0.446
27702W        W96032  14.695  25.482  12.499
27703W        W96033  17.301  27.587   4.140
27704W        W96034  32.569   4.708   0.866
27705W        W96035  10.196  22.500   3.707
27706W        W96036   1.965   5.827   0.343
27707W        W96037  37.843  32.979   3.634
27708W        W96038  36.559  38.971   1.738
27709W        W96039  39.397  39.019   0.447
27710W        W96040   8.329  15.183  12.965
27711W        W96041  15.787  31.517   0.822
27712W        W96042  26.505  28.073  10.449
27713W        W96043  15.680  19.681  14.760
27714W        W96044   0.784  24.198   0.837
27715W        W96045  14.178  18.267   3.302
27716W        W96046  13.214  25.623   4.342
27717W        W96047   5.744  14.183  13.984
27718W        W96048  38.433  25.153   2.832
27719W        W96049   2.284  33.551  14.348
27720W        W96050  14.694  14.776  11.917
27721W        W96051   3.949  35.558   1.746
27722W        W96052   2.768   6.322  14.011
27723W        W96053  27.975   0.331  14.762
27724W        W96054   2.879  20.563   2.901
27725W        W96055  11.354  30.163   1.422
27726W        W96056   7.360  13.333   0.409
27727W        W96057  34.018   7.688   1.357
27728W        W96058  23.717  18.688  13.401
27729W        W96059   4.249  38.421   1.260
27730W        W96060  13.786  21.753  14.873
27731W        W96061  29.050  34.579  11.875
27732W        W96062  11.279   4.737   4.314
27733W        W96063   8.292  17.098  12.394
27734W        W96064   7.731  10.731   3.662
27735W        W96065  18.108  26.605  13.892
27736W        W96066  13.254  28.138   0.408
27737W        W96067  40.846  36.438  10.468
27738W        W96068  15.718  44.772   3.825
27739W        W96069  16.710  16.215   3.289
27740W        W96070   3.848   7.404   4.333
27741W        W96071  14.759   7.855  13.954
27742W        W96072  20.037  17.285  10.147
27743W        W96073  14.217  35.969  10.474
27744W        W96074  34.982  40.546  14.904
27745W        W96075  35.586  26.158   0.370
27746W        W96076  24.079  31.019  12.843
27747W        W96077  40.962  42.005  13.914
27748W        W96078  14.301  12.336  10.504
27749W        W96079  16.254  39.824   4.597
27750W        W96080  16.147  38.960  11.570
27751W        W96081  23.058  29.164   4.767
27752W        W96082  17.205  33.385  13.449
27753W        W96083  44.955  19.189   3.152
27754W        W96084  25.482  24.563   4.344
27755W        W96085  27.579  35.029  11.507
27756W        W96086  19.131  29.067   4.699
27757W        W96087  20.549  36.418   0.909
27758W        W96088   0.774  27.092  12.567
27759W        W96089   3.316   3.239   1.299
27760W        W96090  21.678   4.920  10.000
27761W        W96091  22.644  26.566   3.256
27762W        W96092   2.333  12.793  10.117
27763W        W96093   7.837  30.522   2.743
27764W        W96094   3.384   0.887  13.414
27765W        W96095   2.788   0.381  13.367
27766W        W96096  28.641  43.959   3.799
27767W        W96097  33.040  35.440   2.403
27768W        W96098  24.668  28.656  14.018
27769W        W96099  44.952  10.854  13.999
27770W        W96100  41.341  42.886   0.839
27771W        W96101  38.973  28.142   2.283
27772W        W96102  34.391  43.942  10.990
27773W        W96103  20.132  38.868  13.459
27774W        W96104  12.669  35.052  14.351
27775W        W96105   0.354  28.031  13.494
27776W        W96106   5.364  33.406  10.059
27777W        W96107  14.253  15.727   4.318
27778W        W96108  39.031  10.282   1.413
27779W        W96109  22.219  20.665   2.374
27780W        W96110  14.756  41.352  11.508
27781W        W96111  30.907  36.997  14.771
27782W        W96112  34.471  44.320  11.089
27783W        W96113  21.639   9.312  11.971
27784W        W96114  36.363  15.260  12.903
27785W        W96115  37.474  19.599   2.214
27786W        W96116   8.255  36.393  12.375
27787W        W96117  27.450  33.123   4.771
27788W        W96118  12.159  27.551   2.253
27789W        W96119   4.854  22.118   1.751
27790W        W96120  42.487  28.167   0.798
27791W        W96121  34.917  35.592  13.058
27792W        W96122  33.979  29.442   3.145
27793W        W96123  31.558   4.281  12.464
27794W        W96124   0.944  44.472  11.019
27795W        W96125  43.882  30.655  14.960
27796W        W96126  20.174   8.222   0.733
27797W        W96127   4.405  21.022   5.310
27798W        W96128  11.235  39.360   2.368
27799W        W96129  11.696  33.071  14.951
27800W        W96130   7.216  27.157   3.723
27801W        W96131  19.149  18.212  12.483
27802W        W96132  37.049  44.501  10.993
27803W        W96133   5.739  18.708   0.262
27804W        W96134  27.617  35.915   3.698
27805W        W96135  14.230   8.384  13.540
27806W        W96136  31.117  41.801   2.248
27807W        W96137  33.983  26.514  13.867
27808W        W96138  18.773  26.033   1.744
27809W        W96139  11.799  13.316  11.923
27810W        W96140  21.220  14.292  13.364
27811W        W96141   5.775  41.792   1.732
27812W        W96142  11.373  28.481   3.153
27813W        W96143   9.180  43.928   3.827
27814W        W96144  25.639  15.087  10.967
27815W        W96145  37.380  28.485  14.905
27816W        W96146  37.016   4.328  14.806
27817W        W96147   2.367  24.021   2.290
27818W        W96148  15.716   9.325   0.412
27819W        W96149   0.826  12.799  11.100
27820W        W96150   0.476  15.787  11.516
27821W        W96151  26.150  35.569  14.936
27822W        W96152   6.760   3.829   2.178
27823W        W96153  24.162  36.541   3.286
27824W        W96154  22.704   1.737   0.327
27825W        W96155  33.875  32.890  11.100
27826W        W96156  28.947   7.363  13.332
27827W        W96157  26.610   7.356   0.353
27828W        W96158   5.819   8.677   0.441
27829W        W96159  25.108   0.768  10.640
27830W        W96160  44.424  36.063  13.408
27831W        W96161  23.125  30.541  12.529
27832W        W96162  19.071  15.816  13.352
27833W        W96163  19.203  10.674  10.946
27834W        W96164  25.562   3.744   1.707
27835W        W96165  38.896   8.844   4.302
27836W        W96166  31.645  10.830   0.914
27837W        W96167  44.953  21.114   1.219
27838W        W96168   5.252  31.092   2.826
27839W        W96169  17.788  37.902  14.360
27840W        W96170   5.347  23.585  11.574
27841W        W96171  17.222  18.685   4.154
27842W        W96172   5.328  21.069   2.279
27843W        W96173  36.488  27.189   4.303
27844W        W96174  39.535  40.311  11.475
27845W        W96175  40.356  24.072  14.758
27846W        W96176  19.624  42.476   4.634
27847W        W96177  35.886  39.504   0.252
27848W        W96178  35.011  10.275   0.901
27849W        W96179   8.879   0.747  11.517
27850W        W96180  35.043  40.985   1.760
27851W        W96181  24.141  28.623   1.414
27852W        W96182   8.293  23.074  14.497
27853W        W96183  37.348  26.565   4.172
27854W        W96184   2.785   2.232   2.375
27855W        W96185   3.891  34.082   1.442
27856W        W96186  32.140   0.256  13.536
27857W        W96187   0.319   3.353   4.350
27858W        W96188  15.296  43.903  13.853
27859W        W96189  21.070  18.579   2.753
27860W        W96190   2.902  34.468  13.955
27861W        W96191  28.082  19.107   3.298
27862W        W96192  38.886  12.163   0.271
27863W        W96193  35.082  42.927  13.373
27864W        W96194   6.273  37.041   2.728
27865W        W96195   1.365  26.670   1.803
27866W        W96196  23.493  35.964   2.320
27867W        W96197   9.706  11.210  14.293
27868W        W96198  18.189  33.429   3.305
27869W        W96199  28.501  29.075  13.870
27870W        W96200   0.746  10.847   1.451
27871W        W96201  24.194  41.835  13.932
27872W        W96202  10.838  41.408  11.124
27873W        W96203  12.720  35.419   1.768
27874W        W96204  20.152  11.833  11.990
27875W        W96205  44.855  10.277  13.042
27876W        W96206  11.162   5.434  14.878
27877W        W96207   6.336  37.514   5.255
27878W        W96208  25.041  13.764  12.457
27879W        W96209  21.220  38.413  10.418
27880W        W96210   0.947  20.563   0.340
27881W        W96211  18.051  12.356   0.442
27882W        W96212  27.023  25.642   0.891
27883W        W96213  37.354   6.746  14.981
27884W        W96214   1.403  17.263  11.606
27885W        W96215  39.327  41.459  12.964
27886W        W96216  17.129  41.448  13.858
27887W        W96217   6.919  28.659  13.318
27888W        W96218  39.019  13.341   4.793
27889W        W96219  17.257  37.569   1.426
27890W        W96220  22.631  41.985  11.581
27891W        W96221  11.264   9.789  11.545
27892W        W96222  37.016  43.923   4.637
27893W        W96223  43.283  14.813  13.466
27894W        W96224  21.168   5.249   1.384
27895W        W96225  10.848  10.835  13.526
27896W        W96226   5.728  12.672  11.429
27897W        W96227  35.978   1.275  12.045
27898W        W96228   4.222  13.248  13.398
27899W        W96229   8.688   9.277   0.305
27900W        W96230  11.804  18.226  10.029
27901W        W96231  33.925  29.123  14.501
27902W        W96232  18.161   0.948   3.665
27903W        W96233  31.544  39.320   0.950
27904W        W96234  36.098  30.139   1.885
27905W        W96235  25.646  28.629  11.964
27906W        W96236  30.985  38.828   3.368
27907W        W96237  15.101   7.665  14.761
27908W        W96238  17.572  19.254   1.432
27909W        W96239  10.639   4.703  12.896
27910W        W96240  30.076  37.561   0.789
27911W        W96241   8.800   4.408   1.447
27912W        W96242   6.310  10.812   3.193
27913W        W96243  28.602  39.551   3.258
27914W        W96244  21.240  10.182  11.610
27915W        W96245   1.945  26.031   3.242
27916W        W96246  30.595  35.376   3.239
27917W        W96247  21.171  17.788   4.641
27918W        W96248  13.606  43.270   4.154
27919W        W96249  26.208  35.419  13.398
27920W        W96250  29.523   9.863   2.341
27921W        W96251  41.828  20.141   1.904
27922W        W96252   3.735  39.050  14.896
27923W        W96253  25.990  22.644  11.918
27924W        W96254  25.009  40.983  13.323
27925W        W96255  44.898  26.662   0.414
27926W        W96256  10.182  40.313   2.829
27927W        W96257   6.208   8.868  13.804
27928W        W96258  36.023  35.040   4.188
27929W        W96259   6.728  24.722   0.294
27930W        W96260   0.745  37.033  14.314
27931W        W96261  30.047  13.305  11.911
27932W        W96262  21.623  23.117  11.496
27933W        W96263  20.653  30.472  13.795
27934W        W96264  44.306  19.675   0.348
27935W        W96265  33.411  25.088  14.830
27936W        W96266   6.850   9.677   2.835
27937W        W96267   0.405  40.505  12.486
27938W        W96268  14.815  18.564   0.397
27939W        W96269  42.503  44.331   3.735
27940W        W96270  21.609  26.565   4.351
27941W        W96271  24.222  32.939   1.418
27942W        W96272  18.051  28.634   4.292
27943W        W96273  39.862  26.033   3.245
27944W        W96274   0.321  18.053   1.226
27945W        W96275  25.085  14.594   3.272
27946W        W96276  37.853  30.909  10.595
27947W        W96277  10.323  41.538  10.569
27948W        W96278   6.230  19.622  10.451
27949W        W96279  26.560  10.286  12.573
27950W        W96280  33.527  41.407  13.480
27951W        W96281  23.233  13.804   3.788
27952W        W96282  30.477  29.626   4.309
27953W        W96283   8.270  41.471   2.316
27954W        W96284  33.431  19.633   1.737
27955W        W96285   5.277  11.623  14.329
27956W        W96286   1.790   6.194   4.235
27957W        W96287  15.094  28.643  13.508
27958W        W96288   3.840  40.327  10.483
27959W        W96289  37.909   6.189  12.367
27960W        W96290  32.478   6.274  11.958
27961W        W96291   7.889  13.296   2.891
27962W        W96292  41.009  35.582  13.402
27963W        W96293   6.775  20.576   2.778
27964W        W96294  39.509  35.074  11.028
27965W        W96295  24.192   7.845   1.859
27966W        W96296  29.641  17.570  14.899
27967W        W96297  17.584  34.465  13.865
27968W        W96298  14.121  18.671  14.794
27969W        W96299  30.145  20.045   2.789
27970W        W96300  30.475  37.545   1.365
27971W        W96301  16.113  40.836  14.282
27972W        W96302  27.539   6.787  14.301
27973W        W96303  27.979  31.519   9.961
27974W        W96304  10.352  23.123   2.413
27975W        W96305  22.566  38.435   1.892
27976W        W96306   0.485  17.169   2.338
27977W        W96307  14.152  34.528   3.739
27978W        W96308  22.502  21.719  14.393
27979W        W96309  20.723  40.914  12.538
27980W        W96310  30.433  10.828   2.879
27981W        W96311   1.298  17.716  12.052
27982W        W96312   4.713  11.181  11.927
27983W        W96313  13.806   3.343   1.337
27984W        W96314   7.362  22.614   4.305
27985W        W96315  43.020  41.992  12.456
27986W        W96316  37.570  35.362  12.074
27987W        W96317  11.318  42.857  13.895
27988W        W96318  31.128   0.357  13.846
27989W        W96319   7.417  27.053  10.475
27990W        W96320  41.914   7.902  13.427
27991W        W96321  11.706  40.972  14.779
27992W        W96322  13.643   8.279   1.801
27993W        W96323  18.546  21.168  14.798
27994W        W96324  25.634  14.632   2.308
27995W        W96325  17.225  28.475   0.367
27996W        W96326   3.220  28.516   2.357
27997W        W96327  25.567  11.201  11.954
27998W        W96328   7.315  38.354   1.379
27999W        W96329   1.349  41.327  13.967
28000W        W96330  17.096  24.036  12.434
28001W        W96331   7.385  11.346   2.723
28002W        W96332  42.355  29.018   4.316
28003W        W96333  17.252  35.389   1.717
28004W        W96334   4.433  19.209  11.524
28005W        W96335  30.972   1.305   3.168
28006W        W96336  33.960  11.797   1.901
28007W        W96337  26.529  27.985   4.761
28008W        W96338  22.243  37.999   0.802
28009W        W96339  27.612   9.302  10.481
28010W        W96340  44.320  31.975   3.278
28011W        W96341  26.643  34.885  11.405
28012W        W96342  18.738  35.878   1.894
28013W        W96343  23.151  21.650   3.254
28014W        W96344  42.444  19.585   1.335
28015W        W96345  30.489  25.176  14.948
28016W        W96346  43.338  43.915  13.932
28017W        W96347  42.395  33.407  14.318
28018W        W96348  38.437  10.163  13.454
28019W        W96349  17.752  41.376   3.646
28020W        W96350  17.134  36.583   2.394
28021W        W96351  10.821  44.479  10.595
28022W        W96352  35.540  32.951   3.819
28023W        W96353   9.858  22.197  13.409
28024W        W96354  36.427  21.687   1.271
28025W        W96355   9.151  12.225  14.855
28026W        W96356  37.399  23.995   5.186
28027W        W96357  30.161  23.149   2.876
28028W        W96358  29.471  22.630   1.772
28029W        W96359  24.721   2.768   0.884
28030W        W96360  42.905  36.958   4.609
28031W        W96361  44.944  28.450  10.436
28032W        W96362   6.364  19.148  10.542
28033W        W96363  26.039  35.484   2.675
28034W        W96364  14.276  30.597   3.338
28035W        W96365  16.134  32.080   2.254
28036W        W96366   2.324   3.460   2.389
28037W        W96367  34.918   5.315  12.921
28038W        W96368  23.033  15.615   3.706
28039W        W96369  12.696  29.492  14.961
28040W        W96370  20.068  39.854  13.057
28041W        W96371  31.000  43.951   2.226
28042W        W96372  43.413   4.880   1.276
28043W        W96373  33.395  18.280  14.997
28044W        W96374   3.787  41.500   1.369
28045W        W96375  25.070  24.510   0.891
28046W        W96376  38.048  37.040  10.946
28047W        W96377  30.053  33.919   4.253
28048W        W96378  17.242  34.009  12.978
28049W        W96379  36.513  17.628  14.892
28050W        W96380   1.942   8.820   0.349
28051W        W96381  12.755  42.362   2.668
28052W        W96382   9.695  27.580   4.709
28053W        W96383   3.327   9.313  10.632
28054W        W96384  30.120  34.964  13.904
28055W        W96385  26.162  35.514   4.274
28056W        W96386  19.251  36.592  12.542
28057W        W96387  32.105  39.405  11.027
28058W        W96388   5.285  35.527   3.792
28059W        W96389   8.236  14.612   0.404
28060W        W96390   4.828  44.295   0.474
28061W        W96391  20.745  36.924   3.232
28062W        W96392   0.743  33.606  13.309
28063W        W96393  10.699   9.371  12.979
28064W        W96394  31.603  28.564  11.427
28065W        W96395  18.289   6.739  12.027
28066W        W96396  22.679   3.229  10.149
28067W        W96397  12.642  14.727   0.373
28068W        W96398  29.155  14.199  13.412
28069W        W96399  31.590  23.230   4.826
28070W        W96400  20.242  20.630   1.840
28071W        W96401  30.972  29.520   2.329
28072W        W96402  11.781   3.859   3.364
28073W        W96403   7.301  35.914  14.002
28074W        W96404  28.488  11.733  12.517
28075W        W96405  27.062  24.155  10.914
28076W        W96406  21.685  31.069   2.814
28077W        W96407   3.328  18.067   3.776
28078W        W96408  39.459   7.719  14.857
28079W        W96409  45.000  39.322   0.406
28080W        W96410  27.455  35.030  12.376
28081W        W96411  26.994  37.986   3.248
28082W        W96412  24.557   2.393  11.556
28083W        W96413  37.986   6.363   1.429
28084W        W96414  19.717  13.646  13.011
28085W        W96415  33.439  31.572   2.345
28086W        W96416  39.559  37.427  10.433
28087W        W96417  40.382  29.524   4.320
28088W        W96418   3.264   4.368   4.226
28089W        W96419  37.942  35.406  13.955
28090W        W96420  25.567   4.756  10.514
28091W        W96421   9.284  28.622  10.443
28092W        W96422  31.579  29.551   1.443
28093W        W96423  29.455  34.075   2.372
28094W        W96424  22.248  40.875  13.868
28095W        W96425  24.026  33.607  13.875
28096W        W96426   6.227  10.192   2.188
28097W        W96427  17.276  40.801   3.691
28098W        W96428  11.652  21.588  10.562
28099W        W96429  35.425  21.669  11.520
28100W        W96430   5.797  37.354   4.350
28101W        W96431  14.681  25.077   0.308
28102W        W96432  34.458  35.412   3.691
28103W        W96433  24.607  21.683   2.265
28104W        W96434  36.476  39.923  12.880
28105W        W96435  30.626  12.673   1.723
28106W        W96436  24.670  11.369   2.398
28107W        W96437  24.574  44.443   1.933
28108W        W96438  37.966  30.462  13.343
28109W        W96439   0.749   3.947   2.202
28110W        W96440  12.121  25.626   3.743
28111W        W96441  25.146   6.722   0.914
28112W        W96442  40.991  41.306   0.817
28113W        W96443  17.263  12.719  14.492
28114W        W96444  36.515  38.457  13.546
28115W        W96445  37.447  25.655  10.964
28116W        W96446   4.216   9.735   1.880
28117W        W96447  21.246  31.445   5.246
28118W        W96448  40.951   6.836   0.439
28119W        W96449  30.653  15.197   2.808
28120W        W96450  29.459  29.563  11.981
28121W        W96451  12.809  19.217  10.968
28122W        W96452  42.881   9.723  14.503
28123W        W96453  17.125  23.543   0.304
28124W        W96454  25.608   1.456  13.511
28125W        W96455  33.097  21.629  10.578
28126W        W96456  10.839  32.537  13.869
28127W        W96457  12.755   8.876  14.316
28128W        W96458  28.138   7.184  14.339
28129W        W96459  40.544   7.204   1.888
28130W        W96460   4.408  22.539  14.806
28131W        W96461  14.221  34.503  12.881
28132W        W96462   5.202  41.830   1.854
28133W        W96463  18.081   0.445   0.860
28134W        W96464  35.010  24.573   3.678
28135W        W96465  36.017  26.659   4.288
28136W        W96466   0.864  21.644  13.928
28137W        W96467   6.184  26.020   3.374
28138W        W96468  40.962  12.653   2.881
28139W        W96469  12.135  11.152   3.783
28140W        W96470  10.384  29.484   0.381
28141W        W96471  32.112  17.271   2.678
28142W        W96472   5.882  44.443  12.022
28143W        W96473  34.116  35.867   3.351
28144W        W96474  20.192  23.641   0.421
28145W        W96475  22.125  37.953  11.499
28146W        W96476   8.733  23.092  14.865
28147W        W96477  29.520   8.272  14.299
28148W        W96478  26.689  19.763   0.895
28149W        W96479   9.698  22.711  11.998
28150W        W96480  14.176   3.272   2.707
28151W        W96481  19.121  30.503   5.614
28152W        W96482  37.871  34.113  14.300
28153W        W96483  11.864  39.816  12.830
28154W        W96484  16.800  40.844  11.058
28155W        W96485  18.582   6.379  14.987
28156W        W96486  36.844  44.987   0.783
28157W        W96487  10.156  20.593  10.933
28158W        W96488   3.853  34.083   3.186
28159W        W96489   6.296   2.274  11.377
28160W        W96490  21.583  15.610  12.530
28161W        W96491  15.608  17.736   3.265
28162W        W96492  15.193  41.401   1.351
28163W        W96493  36.924  21.632   4.159
28164W        W96494  42.916  36.490  10.948
28165W        W96495  40.318   5.851   4.265
28166W        W96496  24.185  31.554   3.807
28167W        W96497  14.275  40.337  11.890
28168W        W96498   9.669   1.915  13.979
28169W        W96499  26.570   3.781   2.693
28170W        W96500  33.081  33.395  13.877
28171W        W96501  35.528  17.750  10.546
28172W        W96502  18.689   9.240  11.878
28173W        W96503  17.628   7.900   4.277
28174W        W96504  31.026  17.623   1.270
28175W        W96505  12.218  38.397   2.228
28176W        W96506   9.386  39.956  11.453
28177W        W96507  16.813   7.900   3.811
28178W        W96508  28.513  31.418   3.800
28179W        W96509  17.229   4.377   2.340
28180W        W96510   0.299  27.040   3.744
28181W        W96511  42.309  43.309   4.309
28182W        W96512  36.934  39.478   0.340
28183W        W96513  41.365  11.811  14.855
28184W        W96514  25.065  26.484   3.799
28185W        W96515  42.913  29.162   0.910
28186W        W96516   9.274  11.368   4.825
28187W        W96517  36.067  18.621  11.509
28188W        W96518  30.055   4.219  11.965
28189W        W96519   0.274  39.370   4.696
28190W        W96520  41.493  24.070  11.913
28191W        W96521  37.578  21.070   4.648
28192W        W96522   6.317  19.749   3.206
28193W        W96523   1.433  18.594  11.038
28194W        W96524   0.847   9.197  11.099
28195W        W96525   1.467  24.708  10.992
28196W        W96526  10.657  28.562  13.932
28197W        W96527  16.289  43.494   4.327
28198W        W96528  17.724   0.756  11.995
28199W        W96529   6.822  19.201   3.797
28200W        W96530  42.405  13.745  11.402
28201W        W96531  42.323   3.742  10.999
28202W        W96532  26.529  44.488  13.388
28203W        W96533  22.534  32.067   2.794
28204W        W96534   4.710  34.574  14.432
28205W        W96535   5.418   5.895   0.311
28206W        W96536   2.368   0.987  14.336
28207W        W96537  33.426  40.956   2.713
28208W        W96538  12.798  34.378  11.434
28209W        W96539  15.716  29.566   0.830
28210W        W96540  18.728   0.452  10.968
28211W        W96541   6.410  30.513   0.880
28212W        W96542  23.216  11.181  14.778
28213W        W96543   9.719  31.984  11.005
28214W        W96544  22.065  14.625   0.845
28215W        W96545  34.993  33.620  10.465
28216W        W96546  15.183  14.649   2.220
28217W        W96547  25.163  22.176  13.821
28218W        W96548   8.301  36.880  12.018
28219W        W96549  21.222  32.605   2.406
28220W        W96550   8.711  14.770   5.102
28221W        W96551  38.064  38.007  13.352
28222W        W96552   4.415  37.411  13.938
28223W        W96553  12.749  35.528   0.373
28224W        W96554  30.637  19.215   4.216
28225W        W96555  15.222  41.031   0.960
28226W        W96556   7.208  19.071   3.629
28227W        W96557  20.078  37.466  10.524
28228W        W96558  20.094   8.831   1.248
28229W        W96559   1.844  44.799   2.827
28230W        W96560  42.481   8.795  14.498
28231W        W96561  41.530   7.808   4.329
28232W        W96562  25.158   5.352   0.349
28233W        W96563  24.571   6.386   4.620
28234W        W96564   4.380  27.984   4.218
28235W        W96565  27.964  35.389   4.289
28236W        W96566  36.983  30.499  14.460
28237W        W96567  39.542  34.413   1.763
28238W        W96568  43.788  41.833  14.796
28239W        W96569  32.584  40.881  11.413
28240W        W96570   1.916   6.920  11.935
28241W        W96571   2.859  29.549   3.288
28242W        W96572   4.732   3.245  10.080
28243W        W96573  21.708  44.836  13.895
28244W        W96574  39.036  42.929   2.338
28245W        W96575  19.534   3.305  12.447
28246W        W96576  24.553  37.934  11.908
28247W        W96577  36.051  25.513  11.977
28248W        W96578  37.964  40.011   2.715
28249W        W96579  31.518  23.114   2.868
28250W        W96580  22.206  15.708  13.463
28251W        W96581  22.598  43.335   4.220
28252W        W96582  37.494  26.480   3.745
28253W        W96583  43.304  18.260   0.795
28254W        W96584  26.596  23.106   1.378
28255W        W96585  22.194  29.623   9.998
28256W        W96586  36.484  15.672   5.315
28257W        W96587   1.933   7.362   2.345
28258W        W96588  18.739  27.006   3.821
28259W        W96589  27.602  19.108   4.268
28260W        W96590   6.367   6.872   1.785
28261W        W96591  15.086  16.208  13.524
28262W        W96592  32.411  11.628   2.194
28263W        W96593  33.447   7.328   3.289
28264W        W96594  38.437  44.918  14.458
28265W        W96595  13.779  24.179   2.786
28266W        W96596  18.671  16.302  12.381
28267W        W96597   1.254  19.249  10.497
28268W        W96598  44.985   9.754  14.955
28269W        W96599  44.884   4.711   3.687
28270W        W96600  20.096  16.195  12.339
28271W        W96601  14.790  24.994  10.619
28272W        W96602  40.484  30.036  12.444
28273W        W96603  37.854  20.621  14.458
28274W        W96604  39.353  11.627   0.372
28275W        W96605   7.376  18.659  12.401
28276W        W96606  38.907  36.899   1.718
28277W        W96607  14.120  26.082   2.702
28278W        W96608  11.700  38.049  10.955
28279W        W96609   5.928  21.645   1.745
28280W        W96610  35.084  44.978   4.194
28281W        W96611  37.412  33.064   4.127
28282W        W96612   5.782  40.009   3.832
28283W        W96613  28.497   5.279  14.950
28284W        W96614  41.964  21.696  14.846
28285W        W96615  16.761  16.137   1.339
28286W        W96616  34.517   1.441  12.366
28287W        W96617  31.963   4.932  10.944
28288W        W96618   5.730  35.536   2.831
28289W        W96619  37.556  18.083   0.406
28290W        W96620  28.646  10.666   0.939
28291W        W96621  11.660  21.192   2.757
28292W        W96622  33.554  34.955  12.858
28293W        W96623  34.560  28.553   0.376
28294W        W96624  25.582  11.840  14.931
28295W        W96625  25.158   5.431  12.514
28296W        W96626  26.545  40.890   3.763
28297W        W96627  35.382  12.833   4.277
28298W        W96628  44.889  31.999  14.824
28299W        W96629   4.314   2.927   4.230
28300W        W96630  17.746  19.148   4.821
28301W        W96631   8.205  29.076  12.479
28302W        W96632   7.314   8.271   3.158
28303W        W96633  44.852  35.900  11.460
28304W        W96634  33.572  13.351   0.783
28305W        W96635  44.951  28.949   1.416
28306W        W96636   0.401   5.891   2.894
28307W        W96637  28.171  38.362  14.380
28308W        W96638  35.508  39.009   1.280
28309W        W96639  25.714  41.343  11.606
28310W        W96640  21.240  38.053  12.068
28311W        W96641   2.450  34.514  13.457
28312W        W96642  36.359  15.610  10.617
28313W        W96643   8.854  41.313   2.842
28314W        W96644  35.467  15.776  10.462
28315W        W96645  38.985  22.220   0.429
28316W        W96646  28.654  11.678  12.872
28317W        W96647  24.052  14.824   0.456
28318W        W96648  33.450   5.259  11.105
28319W        W96649   3.302  28.165   3.849
28320W        W96650  37.476   4.408   3.272
28321W        W96651  39.490  28.143   4.733
28322W        W96652  38.328   2.390   3.151
28323W        W96653  24.012  40.410  11.872
28324W        W96654  31.626  37.466   2.779
28325W        W96655  25.181   8.395   4.265
28326W        W96656  11.756  28.111   5.160
28327W        W96657  28.128  11.654  10.539
28328W        W96658  40.858   5.855  13.800
28329W        W96659  19.693  12.762   2.187
28330W        W96660   7.391  17.223  11.372
28331W        W96661  16.599   0.765  11.508
28332W        W96662  21.255  17.582  10.596
28333W        W96663  15.089  29.920   1.870
28334W        W96664   8.681  35.436  13.799
28335W        W96665  22.674  20.602  11.383
28336W        W96666  30.025  25.204  10.914
28337W        W96667  14.801  16.669   0.453
28338W        W96668   1.882   2.342  14.354
28339W        W96669  34.565  35.942  13.060
28340W        W96670  32.963  44.473  12.999
28341W        W96671  18.552  27.163  12.975
28342W        W96672  33.930   5.764   2.868
28343W        W96673  37.924  10.172  14.436
28344W        W96674  27.666  17.573   2.821
28345W        W96675  37.963   7.893  13.327
28346W        W96676  24.151  27.960   3.645
28347W        W96677  28.044   8.242   4.808
28348W        W96678  17.726  28.023  14.402
28349W        W96679  32.983  34.447   2.733
28350W        W96680  11.761  36.089   4.614
28351W        W96681   6.730  17.794  12.830
28352W        W96682  37.004  33.445   2.257
28353W        W96683  33.621  41.990   3.246
28354W        W96684  29.154  31.578   5.305
28355W        W96685  15.095  40.840  12.904
28356W        W96686  30.526  12.750  12.398
28357W        W96687  11.181  42.518  13.885
28358W        W96688  13.706  41.987  13.971
28359W        W96689  40.949  41.506   1.876
28360W        W96690   0.862   1.753   3.662
28361W        W96691  28.134  17.173   1.749
28362W        W96692  41.905  39.366   3.179
28363W        W96693   7.271  31.410  11.434
28364W        W96694  23.524   9.363   2.779
28365W        W96695  18.593  38.014   1.323
28366W        W96696  24.163  13.727   1.887
28367W        W96697  26.163   5.772   3.755
28368W        W96698  24.642  28.550  14.325
28369W        W96699   4.324  27.618  11.471
28370W        W96700  43.460  23.732   3.231
28371W        W96701  42.519   9.382  11.951
28372W        W96702  18.071  30.052   3.234
28373W        W96703  32.571  30.047   0.457
28374W        W96704  18.223  29.482   1.238
28375W        W96705  30.991   7.233   1.297
28376W        W96706  41.819  17.089  12.530
28377W        W96707  31.929  35.439  13.540
28378W        W96708   2.746  38.009  14.513
28379W        W96709  21.244  22.124   0.284
28380W        W96710  13.164  10.843   0.325
28381W        W96711  43.777   3.814  11.051
28382W        W96712  19.149  23.079   4.269
28383W        W96713   2.905  31.950  13.994
28384W        W96714  13.608  42.877  12.902
28385W        W96715  17.279  36.472  11.555
28386W        W96716  14.331  36.480  14.388
28387W        W96717   3.272  29.961   1.258
28388W        W96718   4.771  42.479  10.895
28389W        W96719  31.927  18.766   3.198
28390W        W96720  30.117  28.052  14.850
28391W        W96721  34.592   0.472  14.910
28392W        W96722   4.240  18.279  13.386
28393W        W96723  23.067  32.127  13.979
28394W        W96724  23.501  28.438  12.077
28395W        W96725  21.131   9.671   9.956
28396W        W96726  32.520  15.705  13.381
28397W        W96727  21.566   7.735  11.465
28398W        W96728   8.319   3.240   4.658
28399W        W96729  26.659  32.001  11.894
28400W        W96730  11.264  23.105   1.704
28401W        W96731   8.665  26.610  11.423
28402W        W96732  35.454  10.683  14.819
28403W        W96733  23.088  42.866   3.854
28404W        W96734   3.802  25.592   3.217
28405W        W96735  29.026   2.450   4.209
28406W        W96736  27.545  42.374  14.304
28407W        W96737  39.027   2.932   2.221
28408W        W96738  43.284  25.008  13.906
28409W        W96739  31.996   8.787  10.405
28410W        W96740  10.294  22.560  13.815
28411W        W96741  11.665  43.017   5.147
28412W        W96742  29.083  30.512  14.026
28413W        W96743  37.468   7.269   2.795
28414W        W96744  20.173  42.371  12.570
28415W        W96745  18.584  40.540   2.891
28416W        W96746  31.904   4.879  12.864
28417W        W96747  33.449  28.555  12.931
28418W        W96748   9.814  41.379   4.839
28419W        W96749  32.938   3.222  14.335
28420W        W96750  10.635  34.574  14.954
28421W        W96751  38.425  31.641  14.876
28422W        W96752  32.138  13.779  14.332
28423W        W96753  42.517  40.834   0.842
28424W        W96754   1.950   6.417  12.029
28425W        W96755  39.996  26.480   0.897
28426W        W96756  20.622  10.309  14.282
28427W        W96757   1.291  12.132  13.533
28428W        W96758  16.639  35.363   2.688
28429W        W96759   1.277  14.614  12.870
28430W        W96760  40.468  32.933   1.803
28431W        W96761   8.353  16.769   0.745
28432W        W96762  34.426   6.330   4.242
28433W        W96763   5.360   3.354   3.651
28434W        W96764  33.970  28.155   0.268
28435W        W96765  17.178  42.308   2.733
28436W        W96766  15.706  28.057   3.164
28437W        W96767  17.782  16.616   4.188
28438W        W96768  34.876   8.308  12.067
28439W        W96769  41.385   8.708  11.919
28440W        W96770   2.279   0.873  10.974
28441W        W96771  35.532  15.192   2.897
28442W        W96772   0.920  27.985  13.053
28443W        W96773  18.577  22.154   4.117
28444W        W96774  11.218  27.449   3.709
28445W        W96775   4.424  36.420  11.028
28446W        W96776   1.381   5.239  11.068
28447W        W96777  44.416  11.745   2.718
28448W        W96778  35.362  21.046  14.853
28449W        W96779  34.496  44.485  10.550
28450W        W96780  30.516  41.482   2.383
28451W        W96781  25.682  14.250  12.920
28452W        W96782  38.482  17.731   0.422
28453W        W96783  32.608  37.519  11.012
28454W        W96784  42.470  15.650   1.242
28455W        W96785  31.068  41.308  11.588
28456W        W96786   8.203  21.594   0.289
28457W        W96787  29.969   9.828  11.015
28458W        W96788  39.028  28.671   4.792
28459W        W96789   4.731  43.904  11.550
28460W        W96790  24.653  35.489  11.608
28461W        W96791   7.177  40.034   4.808
28462W        W96792  29.660  34.611  13.023
28463W        W96793  13.137  15.580   2.413
28464W        W96794  41.363  29.002  11.896
28465W        W96795  37.557   8.325  14.770
28466W        W96796  21.716  37.925   3.290
28467W        W96797   5.741  36.871  14.827
28468W        W96798  26.184  27.657   4.803
28469W        W96799  18.635  12.818  11.079
28470W        W96800  36.062   4.777  10.554
28471W        W96801   8.246  15.640   2.784
28472W        W96802  24.486  32.074  14.430
28473W        W96803  17.746  42.284   2.679
28474W        W96804  35.000   5.792   4.247
28475W        W96805  43.866  19.767   1.423
28476W        W96806  20.597  40.339   3.195
28477W        W96807  37.876  41.996  13.370
28478W        W96808  23.578  31.991  13.991
28479W        W96809  14.589  37.423   2.414
28480W        W96810   8.377  34.418  14.457
28481W        W96811  30.975   6.332  12.095
28482W        W96812  43.771  19.186  11.550
28483W        W96813  39.007  32.965   4.735
28484W        W96814   9.265  18.664  11.127
28485W        W96815   6.906  44.955  13.038
28486W        W96816  29.974  25.032   4.351
28487W        W96817  24.160  39.364   1.367
28488W        W96818  34.083   6.815  10.522
28489W        W96819  24.035  36.002   5.265
28490W        W96820  24.556  19.558   2.761
28491W        W96821  39.990  11.201  11.076
28492W        W96822  20.744  10.320  14.769
28493W        W96823  38.336  24.199   4.765
28494W        W96824  11.680   0.872   1.746
28495W        W96825  11.790   7.790   1.719
28496W        W96826  37.941   0.271   0.404
28497W        W96827   3.830  30.571   4.741
28498W        W96828  38.907  16.175   3.237
28499W        W96829  27.128  36.985  11.490
28500W        W96830  29.637  28.641   3.681
28501W        W96831  42.288  27.001   2.803
28502W        W96832  15.704  39.831   0.267
28503W        W96833  15.598  42.299  11.475
28504W        W96834  15.124  11.665   0.403
28505W        W96835  34.465  17.192   3.380
28506W        W96836  11.639  28.164   1.769
28507W        W96837  14.618  31.054   2.902
28508W        W96838  40.523   2.761   3.845
28509W        W96839  28.062  32.577  11.390
28510W        W96840  11.723  27.586   3.364
28511W        W96841  15.605  43.391  10.994
28512W        W96842  34.521  43.842   1.367
28513W        W96843   2.876  14.674   4.318
28514W        W96844   6.308   7.770   4.237
28515W        W96845   6.386  12.687   4.831
28516W        W96846  27.017  27.162   2.796
28517W        W96847   8.894  21.712   0.302
28518W        W96848  21.713  16.148   0.414
28519W        W96849   6.376  21.610   3.153
28520W        W96850  42.983  12.228  14.281
28521W        W96851  40.944  34.399  13.987
28522W        W96852  17.064   3.784  14.928
28523W        W96853  22.630  17.701  10.936
28524W        W96854  39.852  19.631   0.856
28525W        W96855  44.367  16.261   0.787
28526W        W96856   2.938  26.666   3.176
28527W        W96857  28.012   3.728  11.577
28528W        W96858   9.830  42.972  13.950
28529W        W96859  10.145  25.131   0.825
28530W        W96860  23.548   9.326   3.786
28531W        W96861  20.730  19.164  11.128
28532W        W96862   5.845  24.615   2.836
28533W        W96863  39.957  29.611  12.504
28534W        W96864  37.891  41.810   4.288
28535W        W96865  19.683   7.906   3.229
28536W        W96866  34.075  32.427  11.377
28537W        W96867  40.804  19.068   1.935
28538W        W96868  42.483  32.080   1.420
28539W        W96869  33.532  31.052  12.510
28540W        W96870  42.481  17.068   0.742
28541W        W96871  11.224  29.666  14.958
28542W        W96872   2.779  25.028  11.584
28543W        W96873  10.651   4.765  12.350
28544W        W96874  25.671   4.850   1.378
28545W        W96875  25.210  10.878  13.368
28546W        W96876  39.327  42.345   0.820
28547W        W96877  24.228  20.605  14.852
28548W        W96878  19.248  12.284   1.723
28549W        W96879  18.549   0.941   2.776
28550W        W96880   9.826  10.704   1.933
28551W        W96881  23.048  29.523  14.781
28552W        W96882  13.350  21.534  13.895
28553W        W96883  21.025  27.494   0.828
28554W        W96884   1.440  35.424   0.869
28555W        W96885  28.954  11.297   0.281
28556W        W96886  22.663  39.841  14.875
28557W        W96887  40.042   8.196  14.367
28558W        W96888  19.084   2.314   1.753
28559W        W96889  27.474  17.165  12.365
28560W        W96890  35.017  10.832   4.598
28561W        W96891  40.895  21.657   2.199
28562W        W96892  16.606  28.521   3.320
28563W        W96893  21.262   5.408  11.020
28564W        W96894  34.444  43.394  12.491
28565W        W96895  12.615  15.729   2.231
28566W        W96896  41.835   9.651   1.379
28567W        W96897  12.316  18.640   3.705
28568W        W96898  12.664  36.373  13.971
28569W        W96899  19.042  29.117  10.005
28570W        W96900   1.311  32.523   2.816
28571W        W96901   9.759   1.894   1.814
28572W        W96902   9.805   4.939   0.303
28573W        W96903  17.709  13.285  13.967
28574W        W96904  42.020  38.358  13.456
28575W        W96905   1.318  24.228   2.822
28576W        W96906  15.309  42.330  14.451
28577W        W96907  14.181  18.650  10.991
28578W        W96908  21.226  14.130   4.670
28579W        W96909  40.909   6.352   1.797
28580W        W96910   4.270  25.496  13.912
28581W        W96911   3.421  41.408   0.261
28582W        W96912  40.423  29.434   3.223
28583W        W96913  42.471  39.544  11.056
28584W        W96914  11.338  15.581  12.926
28585W        W96915   1.894  41.376  10.562
28586W        W96916  10.175  38.049   4.172
28587W        W96917   8.400  24.083   4.717
28588W        W96918  16.256  38.493  14.353
28589W        W96919  17.117  26.596  12.537
28590W        W96920  23.148   2.323   0.253
28591W        W96921  41.480  12.159   3.771
28592W        W96922   0.432  15.787   4.186
28593W        W96923  36.570  35.449  13.983
28594W        W96924  40.946  25.150  12.486
28595W        W96925   6.775   0.966  13.014
28596W        W96926   1.283  40.910  12.432
28597W        W96927  28.174  33.990   1.727
28598W        W96928  22.713  42.381   0.956
28599W        W96929   5.384  32.492  14.018
28600W        W96930   9.747  29.651   4.613
28601W        W96931  18.143   9.172  14.888
28602W        W96932  16.237  43.995  14.764
28603W        W96933  27.640  20.709   2.685
28604W        W96934  42.315  17.664   1.311
28605W        W96935   9.274  37.468  14.810
28606W        W96936   7.284   5.272  12.433
28607W        W96937  28.969   2.755  12.893
28608W        W96938  13.127  44.430   4.209
28609W        W96939   8.757  10.845  10.626
28610W        W96940  40.399  30.935   3.665
28611W        W96941  13.747  38.561   4.149
28612W        W96942   0.826  23.697   1.367
28613W        W96943  41.037  19.644  13.518
28614W        W96944   0.860  26.073   0.376
28615W        W96945   1.776   5.331  13.864
28616W        W96946  16.568   1.379  13.793
28617W        W96947  14.755  12.229   3.190
28618W        W96948   3.362  40.484   1.771
28619W        W96949  28.138   5.889  12.463
28620W        W96950  26.680   7.677   4.120
28621W        W96951  16.617  36.585  10.089
28622W        W96952  41.929  38.530  12.416
28623W        W96953   9.854  27.594  14.785
28624W        W96954  27.094  28.517  10.570
28625W        W96955  12.622  42.873  14.445
28626W        W96956   0.256   5.712  11.920
28627W        W96957  15.820  17.742  11.978
28628W        W96958  23.072   3.435  13.015
28629W        W96959  27.188   8.226   2.231
28630W        W96960  14.718   6.205  14.858
28631W        W96961  19.705  35.375  12.853
28632W        W96962  39.821   8.297   2.902
28633W        W96963  42.935  31.103   1.846
28634W        W96964   8.810  18.164   2.305
28635W        W96965  38.966   5.769  10.443
28636W        W96966   8.661  35.890  13.943
28637W        W96967  41.319  12.812   4.821
28638W        W96968   0.962  19.747  12.832
28639W        W96969  42.906  14.182  11.572
28640W        W96970  35.022   7.768   2.408
28641W        W96971  25.688  36.412   3.277
28642W        W96972  37.530  30.164  11.060
28643W        W96973  42.411   4.829  13.946
28644W        W96974   1.763  37.406  12.830
28645W        W96975   2.768  12.678   4.137
28646W        W96976  10.685  39.871   0.377
28647W        W96977  37.968  38.930   0.736
28648W        W96978  25.010  41.825   3.180
28649W        W96979   7.779  12.188  12.851
28650W        W96980   6.324  25.157   4.644
28651W        W96981  20.660   7.286  11.447
28652W        W96982  22.061  29.443  10.531
28653W        W96983  28.571   1.865   2.190
28654W        W96984  33.048  42.488  10.446
28655W        W96985  13.705  40.906   1.436
28656W        W96986   4.799  22.098  14.009
28657W        W96987   1.905  10.727   1.217
28658W        W96988   3.929  22.189  10.630
28659W        W96989  42.827  22.230  11.405
28660W        W96990  21.647  39.020   4.226
28661W        W96991  18.081  29.008  13.922
28662W        W96992  15.628  14.269   4.277
28663W        W96993  11.367  23.027   2.661
28664W        W96994  24.666   7.342  12.450
28665W        W96995   3.824  14.207   2.671
28666W        W96996  41.405  14.260   5.170
28667W        W96997  39.459   4.933  13.824
28668W        W96998   2.341  40.524  13.391
28669W        W96999  39.393  26.609   3.824
28670W        W97000  41.959  15.658   4.189
28671W        W97001  35.526  38.353  14.507
28672W        W97002  18.668  34.377   2.229
28673W        W97003   8.743   3.235  13.957
28674W        W97004   9.279  14.788   0.316
28675W        W97005   5.728  42.497  13.412
28676W        W97006   4.207  16.193   2.408
28677W        W97007  41.485   8.405  11.375
28678W        W97008   5.408  37.490  11.103
28679W        W97009   4.769  29.969   3.206
28680W        W97010  28.003  26.556   3.372
28681W        W97011  18.736  41.915  11.104
28682W        W97012  12.651  43.390  14.472
28683W        W97013   7.385  19.771   3.684
28684W        W97014  44.772  23.505  13.439
28685W        W97015  14.784  36.955  12.579
28686W        W97016  21.031  15.097  10.950
28687W        W97017  41.389  23.045  12.421
28688W        W97018  21.049  37.519   3.731
28689W        W97019  38.555   6.764   4.697
28690W        W97020  33.953  11.656   0.337
28691W        W97021  41.375  10.766   1.695
28692W        W97022  26.049  33.921  14.806
28693W        W97023  32.590  44.818  12.025
28694W        W97024  32.453  34.089  14.878
28695W        W97025  17.227   9.659   3.712
28696W        W97026   0.782  19.658   0.327
28697W        W97027  42.296   9.334   0.956
28698W        W97028  22.706  21.032  14.284
28699W        W97029  36.920   3.296  10.013
28700W        W97030  27.067  42.865   4.235
28701W        W97031  39.907  35.932   0.827
28702W        W97032  12.290  24.200   1.906
28703W        W97033  33.059   9.681   0.355
28704W        W97034  38.965   5.374   5.125
28705W        W97035   5.805  29.950   0.797
28706W        W97036  21.742  36.386  14.419
28707W        W97037  22.613  42.396   4.608
28708W        W97038  34.419  20.621  11.389
28709W        W97039  21.537  37.864  13.025
28710W        W97040  20.084  37.060  14.985
28711W        W97041   6.272  32.073  14.766
28712W        W97042  18.607  16.167   1.225
28713W        W97043  12.755  18.069  14.513
28714W        W97044  16.184  34.970   1.364
28715W        W97045   8.661  20.104  10.995
28716W        W97046  36.052  28.454   0.874
28717W        W97047  21.235  33.433   3.726
28718W        W97048   1.896  30.101  13.461
28719W        W97049   2.899  38.534  13.336
28720W        W97050  39.029  15.298   1.827
28721W        W97051  22.014  27.479   3.708
28722W        W97052  42.835   5.886  11.546
28723W        W97053  22.107   6.739   2.796
28724W        W97054  38.822  36.972  12.889
28725W        W97055  35.083  37.448  10.154
28726W        W97056  42.854   9.263   0.782
28727W        W97057  35.517   9.797  14.798
28728W        W97058  20.605  41.946  10.541
28729W        W97059  31.499  27.180   3.345
28730W        W97060   1.257  37.964  12.977
28731W        W97061  21.196  33.510  11.948
28732W        W97062   6.257   4.395   1.315
28733W        W97063  38.380  22.208   0.267
28734W        W97064  15.697   4.370   3.248
28735W        W97065   4.745  20.659   3.380
28736W        W97066  11.714  10.154   3.353
28737W        W97067   9.325  14.754   2.726
28738W        W97068   2.918  30.466  11.033
28739W        W97069  23.562  13.233   1.750
28740W        W97070  44.894   7.816   1.295
28741W        W97071  27.012  23.999   3.703
28742W        W97072  20.733  26.578   4.670
28743W        W97073  44.764   0.773   1.852
28744W        W97074  39.035  20.139  13.376
28745W        W97075   1.955  13.270   0.759
28746W        W97076  43.985   7.734  12.431
28747W        W97077  11.646   2.853   4.791
28748W        W97078   1.417  26.658  12.866
28749W        W97079  38.980  44.894  11.885
28750W        W97080   4.863  42.383   5.108
28751W        W97081  10.193  28.624  10.917
28752W        W97082  20.065  16.747   0.467
28753W        W97083  42.775  44.359  10.534
28754W        W97084   6.812  38.967   2.205
28755W        W97085   4.423  22.130   2.686
28756W        W97086  36.347  15.316   2.409
28757W        W97087  35.075  28.482   2.395
28758W        W97088  12.687   3.392  11.999
28759W        W97089   2.459  17.143   1.339
28760W        W97090   9.883  10.321  11.067
28761W        W97091   0.388  43.898   1.355
28762W        W97092  35.054  40.913  11.943
28763W        W97093  13.798  34.574  12.527
28764W        W97094  13.686  14.241   4.760
28765W        W97095  30.125  13.678  13.513
28766W        W97096   4.340  34.895  11.053
28767W        W97097   6.681   1.736   1.925
28768W        W97098   1.840  27.945   2.284
28769W        W97099   5.820  39.986   4.206
28770W        W97100  23.150  28.629   5.795
28771W        W97101  15.154  21.184  13.822
28772W        W97102  41.445   7.820  12.461
28773W        W97103  20.223  29.540   3.169
28774W        W97104  31.602  13.709  13.384
28775W        W97105   5.248  22.724   0.430
28776W        W97106  21.615   1.968  14.008
28777W        W97107  31.517  23.519  14.867
28778W        W97108  39.314   0.921   2.886
28779W        W97109  44.289  36.573   3.233
28780W        W97110  11.163  28.584  13.379
28781W        W97111   5.842  41.414  10.549
28782W        W97112   7.861  44.476  11.401
28783W        W97113  31.153  25.476   1.417
28784W        W97114  44.380  24.530   2.689
28785W        W97115  37.469  19.048  11.863
28786W        W97116  12.664  42.946   1.316
28787W        W97117  32.535   1.908   2.187
28788W        W97118   6.254  40.310  11.083
28789W        W97119  32.038   5.736  10.588
28790W        W97120  18.776   6.844   2.753
28791W        W97121  18.707  39.833  14.431
28792W        W97122  36.867   0.367   3.296
28793W        W97123  37.414  40.312   2.824
28794W        W97124   4.800  15.250   2.182
28795W        W97125  20.038   0.416  13.013
28796W        W97126  37.539  22.504   1.898
28797W        W97127  18.240  28.680  12.022
28798W        W97128  20.555  39.827  13.962
28799W        W97129  39.899  42.923  13.915
28800W        W97130  26.539  13.148  10.102
28801W        W97131  32.624  11.209   2.891
28802W        W97132   3.943  43.807  14.846
28803W        W97133  33.043  20.676   3.301
28804W        W97134  24.214   8.733   1.360
28805W        W97135  35.400  39.013   0.850
28806W        W97136  34.548  30.094   1.211
28807W        W97137  35.087  44.462  11.404
28808W        W97138   8.726  28.977   0.921
28809W        W97139  28.138   4.776  13.991
28810W        W97140  28.140  43.307   1.292
28811W        W97141  13.245  20.539   0.388
28812W        W97142   5.351  20.726   0.794
28813W        W97143  21.604  33.496   0.476
28814W        W97144  42.954  12.215   3.276
28815W        W97145   0.336  36.079   4.281
28816W        W97146  18.178  13.810   4.663
28817W        W97147  34.101   3.824   1.258
28818W        W97148   9.359  43.833  13.950
28819W        W97149  37.366  38.923  13.806
28820W        W97150  29.110  32.003  11.126
28821W        W97151  18.562  40.475  13.493
28822W        W97152  42.305  17.703   3.240
28823W        W97153  42.907  39.355  10.968
28824W        W97154  17.179  15.702  14.293
28825W        W97155  17.193  32.516  12.924
28826W        W97156  11.693  22.553   1.790
28827W        W97157   2.825  41.902  12.404
28828W        W97158  44.269  32.140   1.876
28829W        W97159   1.778  40.498   1.868
28830W        W97160   8.379  44.883   1.440
28831W        W97161  31.047  16.111   1.430
28832W        W97162  13.239  24.530  11.084
28833W        W97163  14.595  21.128   3.761
28834W        W97164  23.529   1.803  12.916
28835W        W97165  20.235  27.654   4.242
28836W        W97166   6.308   9.382   3.165
28837W        W97167  42.498  16.089  14.019
28838W        W97168  27.019   5.849   2.854
28839W        W97169  32.952  35.549  10.965
28840W        W97170  42.824  36.026   4.305
28841W        W97171  42.007  36.956   4.287
28842W        W97172  21.713  24.542   2.758
28843W        W97173  36.051  43.354   3.186
28844W        W97174  31.128   6.415  11.065
28845W        W97175  20.729  21.039   4.195
28846W        W97176  16.119  18.190   0.460
28847W        W97177  14.313   4.336  14.896
28848W        W97178  17.170  25.530  13.333
28849W        W97179  32.903   6.742   1.328
28850W        W97180  20.120  30.917   3.751
28851W        W97181  39.876  40.962  14.504
28852W        W97182  13.728  34.001  10.578
28853W        W97183  43.794   1.970  10.581
28854W        W97184  27.179  16.289   3.672
28855W        W97185  24.492  40.875  14.399
28856W        W97186  29.509  35.511   3.244
28857W        W97187   5.754  44.834  13.883
28858W        W97188  26.530  34.445  14.849
28859W        W97189  36.071   6.804   3.194
28860W        W97190   7.284  36.922  12.851
28861W        W97191  16.674  21.079   0.746
28862W        W97192  35.922   9.662   2.701
28863W        W97193  21.126   0.359  14.502
28864W        W97194  29.058  36.975  11.080
28865W        W97195  11.263  20.119   0.892
28866W        W97196  25.009  37.401   3.374
28867W        W97197   4.344  10.851  13.036
28868W        W97198  32.997  35.860   1.447
28869W        W97199  23.688  25.633   3.282
28870W        W97200  32.557  32.514   4.618
28871W        W97201   3.893  35.385  10.009
28872W        W97202  39.899  11.773   2.194
28873W        W97203   7.323  43.496   3.823
28874W        W97204  41.837  40.359   0.258
28875W        W97205  28.950  31.937   1.284
28876W        W97206  11.222  25.169  14.954
28877W        W97207  23.017  43.817  11.452
28878W        W97208  14.214   3.784   1.913
28879W        W97209   2.778  27.516  12.825
28880W        W97210   5.880   2.955   2.671
28881W        W97211   7.313  11.266   1.212
28882W        W97212   0.410  40.474  11.069
28883W        W97213  35.911  32.118  12.524
28884W        W97214  40.009  31.644  14.397
28885W        W97215  27.012  34.606   0.894
28886W        W97216  11.294  40.444   1.408
28887W        W97217  37.341  44.985   0.351
28888W        W97218  18.264  37.953  13.882
28889W        W97219  15.123  35.893   5.300
28890W        W97220   3.940  23.056   4.726
28891W        W97221  15.761  20.093  11.393
28892W        W97222  42.823  29.168  14.497
28893W        W97223  16.211  12.185   1.735
28894W        W97224  17.777  24.714   4.279
28895W        W97225   8.827  16.593  12.067
28896W        W97226  39.335  20.662  11.516
28897W        W97227  32.613  20.120  11.934
28898W        W97228  13.696   8.826  12.954
28899W        W97229   7.733  30.525  14.927
28900W        W97230  15.265   6.799  10.506
28901W        W97231  42.890  15.601   2.893
28902W        W97232   3.235  43.438   0.784
28903W        W97233  15.770  34.399   1.269
28904W        W97234   5.763  38.910  14.019
28905W        W97235  10.767  13.344   2.263
28906W        W97236  21.562  14.105   0.294
28907W        W97237  40.016  24.212  10.481
28908W        W97238  15.644  26.144  11.506
28909W        W97239  30.953  12.263  12.948
28910W        W97240  14.676   5.783  11.953
28911W        W97241  10.763  20.681   4.240
28912W        W97242  15.108   3.737   3.741
28913W        W97243  19.262  10.244   4.668
28914W        W97244  37.517  23.520   2.684
28915W        W97245  36.558  23.222   2.393
28916W        W97246   8.871   5.386   3.225
28917W        W97247  44.447  40.369  13.528
28918W        W97248   4.885   9.346   1.706
28919W        W97249  29.620  24.140  13.429
28920W        W97250   4.810   9.884  11.378
28921W        W97251   1.973  27.095   4.286
28922W        W97252   5.929   8.828   4.327
28923W        W97253  12.825  40.998   1.341
28924W        W97254  13.638  14.163  12.407
28925W        W97255  37.039  14.724   0.807
28926W        W97256  34.585  28.014   0.747
28927W        W97257  30.037   1.792   3.820
28928W        W97258  44.772  16.278   2.833
28929W        W97259  23.031   8.220  10.025
28930W        W97260  10.807   1.261   2.793
28931W        W97261  30.563  42.937  11.075
28932W        W97262   4.403  26.165   3.777
28933W        W97263  29.108   2.442   2.282
28934W        W97264  11.825  10.834  14.872
28935W        W97265   3.410  34.470   0.300
28936W        W97266  43.497   6.214  10.972
28937W        W97267  44.971  10.225  12.017
28938W        W97268  25.648  36.347  11.516
28939W        W97269  12.641   2.962  11.530
28940W        W97270  20.631  36.008   3.732
28941W        W97271  22.551  34.542  11.538
28942W        W97272   6.688  28.599   4.693
28943W        W97273  36.529  35.980  10.100
28944W        W97274  33.488  18.684   1.228
28945W        W97275  43.394  34.610  10.968
28946W        W97276  11.770  33.544  12.853
28947W        W97277  15.143  27.502  14.823
28948W        W97278  21.221  14.253   0.819
28949W        W97279  44.817  27.001  13.924
28950W        W97280  31.431   4.784   2.185
28951W        W97281  12.659  40.856  12.487
28952W        W97282  40.374  17.171  13.524
28953W        W97283  27.554  26.170  13.851
28954W        W97284  14.207  35.959  11.081
28955W        W97285  11.293  15.125  14.821
28956W        W97286  23.094  37.516  10.630
28957W        W97287  30.038  34.024   2.757
28958W        W97288  43.274  10.271  12.538
28959W        W97289  14.301  12.289   2.292
28960W        W97290  19.155  12.133  12.979
28961W        W97291  38.487   2.880  14.400
28962W        W97292  23.141  15.083  15.000
28963W        W97293  33.439   8.386   3.169
28964W        W97294  43.933  24.055  11.028
28965W        W97295  13.291  34.941  13.955
28966W        W97296   0.924  34.866  11.576
28967W        W97297  44.004  29.476  11.010
28968W        W97298  40.390  20.526  10.481
28969W        W97299  22.103  11.132  14.797
28970W        W97300  28.011  15.196   0.782
28971W        W97301   5.356  26.172   0.357
28972W        W97302  41.308  15.221  11.980
28973W        W97303  19.042  33.445  12.079
28974W        W97304  42.347  37.423   4.115
28975W        W97305  34.027  25.694   4.148
28976W        W97306  12.133  29.470   0.323
28977W        W97307   6.314   2.429   3.377
28978W        W97308  11.645  34.373  14.863
28979W        W97309   7.174  24.540  11.408
28980W        W97310   4.269  43.001  14.299
28981W        W97311  32.043  32.923   0.478
28982W        W97312  34.020   8.669   0.395
28983W        W97313  38.926  23.600   0.785
28984W        W97314  18.773  16.712  14.446
28985W        W97315   4.228  29.954  11.884
28986W        W97316  32.526  43.873   2.826
28987W        W97317   8.886  41.454   4.776
28988W        W97318   0.329  26.195  13.043
28989W        W97319  19.649  38.829  10.638
28990W        W97320   7.743  20.150  14.020
28991W        W97321  28.989   7.209   4.326
28992W        W97322  33.536  11.678   3.245
28993W        W97323   3.308  23.173  10.416
28994W        W97324  28.940  32.984   1.445
28995W        W97325  11.325  26.589   0.927
28996W        W97326  43.896  28.498   2.217
28997W        W97327  17.203  43.873  10.518
28998W        W97328  19.102  37.381   4.659
28999W        W97329  36.985  35.544  11.577
29000W        W97330  18.577   4.310  12.973
29001W        W97331  13.106  27.514   1.827
29002W        W97332   0.353  29.654  10.929
29003W        W97333  20.127   0.369  12.424
29004W        W97334  13.727  27.640   4.679
29005W        W97335  31.454  38.423   0.299
29006W        W97336  35.432   8.376  13.542
29007W        W97337  24.590  10.273   4.192
29008W        W97338  34.442  25.482  13.798
29009W        W97339  12.855  20.565   0.871
29010W        W97340  33.484   8.210  11.979
29011W        W97341  42.410  35.399   1.700
29012W        W97342  10.237  10.827  10.620
29013W        W97343  37.024   2.804   3.850
29014W        W97344  34.978  36.407  14.454
29015W        W97345  22.626  29.460  12.901
29016W        W97346  11.821  33.124   0.357
29017W        W97347  11.226  31.440  10.959
29018W        W97348   1.892  37.881  12.902
29019W        W97349  22.572  32.118  11.028
29020W        W97350  27.003  32.108  11.575
29021W        W97351   4.774  13.231  13.958
29022W        W97352  39.460  10.866   1.388
29023W        W97353   4.367   9.300  12.449
29024W        W97354  19.063  16.658  14.967
29025W        W97355  21.173   4.938  14.437
29026W        W97356  42.441  43.994   3.780
29027W        W97357  37.960  14.145   3.146
29028W        W97358  14.303  14.595   3.188
29029W        W97359  32.044   2.966   0.741
29030W        W97360  17.275  37.395  12.976
29031W        W97361  13.687  21.223  12.415
29032W        W97362   2.381  16.158  14.834
29033W        W97363  14.771  14.614  11.479
29034W        W97364  43.336   2.786  11.924
29035W        W97365  28.132  23.110   4.620
29036W        W97366  39.932  11.255   2.194
29037W        W97367  11.139  10.341   3.788
29038W        W97368  40.042   0.782  12.869
29039W        W97369  21.116  21.637   3.249
29040W        W97370  11.817  19.167   2.329
29041W        W97371  33.619   5.389  12.888
29042W        W97372  19.268   9.731   0.266
29043W        W97373  22.730  12.747  13.868
29044W        W97374   9.827  25.184   3.287
29045W        W97375  32.521  21.027   3.330
29046W        W97376  10.660   9.311   2.286
29047W        W97377  21.625   0.485   3.643
29048W        W97378  39.823   9.232  11.050
29049W        W97379  15.777  15.814   5.170
29050W        W97380  37.445  22.239   4.270
29051W        W97381  18.779  37.012   2.855
29052W        W97382  29.429  25.490  14.433
29053W        W97383  32.458  18.571   1.715
29054W        W97384   5.851   2.302  10.896
29055W        W97385  16.608   4.348  14.301
29056W        W97386  24.121  33.032   1.760
29057W        W97387   7.801  28.155  12.010
29058W        W97388  11.802  32.993   2.694
29059W        W97389  19.063   9.195  13.347
29060W        W97390   3.319  18.707   1.713
29061W        W97391  28.462  19.698  13.414
29062W        W97392  18.072  25.077   4.612
29063W        W97393   4.925   8.238  14.005
29064W        W97394  33.545  36.382   0.888
29065W        W97395   8.693   6.196   4.354
29066W        W97396  10.195   7.344  14.844
29067W        W97397  39.049  39.824   2.321
29068W        W97398  28.554  18.645  13.897
29069W        W97399   4.717   3.337  10.977
29070W        W97400  10.316   0.980   4.612
29071W        W97401   8.346   5.386  12.359
29072W        W97402  11.355  43.378   0.885
29073W        W97403  35.876  28.618   2.280
29074W        W97404   9.336   0.752  11.084
29075W        W97405   8.257  19.073  14.819
29076W        W97406  35.601  43.282   2.710
29077W        W97407   6.733  17.191   2.699
29078W        W97408   7.764  42.778  14.419
29079W        W97409  26.040  37.507   3.714
29080W        W97410   1.946   3.370  13.412
29081W        W97411  29.049  29.547   1.261
29082W        W97412  21.049  10.306   3.813
29083W        W97413  23.694  37.567  14.416
29084W        W97414  30.443  33.603  14.931
29085W        W97415  43.515  10.763   3.326
29086W        W97416  33.104  18.578  10.489
29087W        W97417  11.245  23.066  10.572
29088W        W97418  10.790  30.925   3.866
29089W        W97419  14.255   0.861  11.574
29090W        W97420  21.525  28.144  14.881
29091W        W97421  29.514  20.645  12.878
29092W        W97422  20.735   3.905   3.362
29093W        W97423  26.094   2.417  13.905
29094W        W97424  16.643  22.638  13.425
29095W        W97425   9.215  31.941  13.854
29096W        W97426  44.399  37.453   5.302
29097W        W97427  31.457  28.034  13.047
29098W        W97428  21.065   9.786  13.474
29099W        W97429  22.080  22.684   2.740
29100W        W97430  20.120  42.437  10.579
29101W        W97431  10.364  34.440   0.364
29102W        W97432  28.606  43.805   4.816
29103W        W97433  23.680  15.161   4.656
29104W        W97434  22.129  13.173  13.472
29105W        W97435  20.694   3.951  11.445
29106W        W97436   3.231   1.901   2.788
29107W        W97437  21.649  32.444  14.760
29108W        W97438  24.053  31.436   2.768
29109W        W97439  30.623  28.088   2.666
29110W        W97440  11.262  41.907  10.521
29111W        W97441  27.570  13.808  13.865
29112W        W97442  27.080   6.790   1.438
29113W        W97443  21.121  34.611  12.046
29114W        W97444  10.699  21.199   1.430
29115W        W97445   1.443  13.335  14.969
29116W        W97446   5.852  30.038  11.010
29117W        W97447   7.770   4.366  12.831
29118W        W97448  21.664   2.344  12.052
29119W        W97449  22.608  23.583   4.723
29120W        W97450  24.590  24.585  12.834
29121W        W97451  40.001   8.828   1.273
29122W        W97452  26.621   7.703   1.280
29123W        W97453  24.122  33.987  13.952
29124W        W97454  23.714  32.545  11.069
29125W        W97455  43.914  40.839   3.304
29126W        W97456  23.065  23.179   4.148
29127W        W97457  17.120  42.283  14.910
29128W        W97458  12.228  18.698   1.218
29129W        W97459  32.459  41.479   2.202
29130W        W97460  31.428  10.375   1.842
29131W        W97461  35.948  19.158  12.383
29132W        W97462   9.222  29.964  12.359
29133W        W97463   8.898  29.665   0.373
29134W        W97464   6.782  34.420   1.754
29135W        W97465  24.165  19.100   2.692
29136W        W97466  39.523   7.396  14.499
29137W        W97467  25.599  20.574  10.954
29138W        W97468   1.427  42.320  11.381
29139W        W97469  33.399  41.383   3.694
29140W        W97470  14.280  39.421  12.389
29141W        W97471   7.360  13.760  13.050
29142W        W97472  39.381  15.308   1.298
29143W        W97473  15.687  43.513  11.437
29144W        W97474  33.593  33.605  14.853
29145W        W97475  26.167  25.602   0.285
29146W        W97476   5.372   6.264  12.978
29147W        W97477  40.960   4.839  11.906
29148W        W97478  33.423  20.526  11.410
29149W        W97479   1.812  42.298  14.825
29150W        W97480  40.418  22.009  10.929
29151W        W97481  15.649   5.421  11.037
29152W        W97482  11.684  31.532  11.383
29153W        W97483  21.610  24.704  12.561
29154W        W97484   3.315  21.234   1.876
29155W        W97485   3.811  26.999  11.580
29156W        W97486  17.157  44.903   3.237
29157W        W97487  41.339  18.164   2.344
29158W        W97488  39.046   0.424   0.346
29159W        W97489  27.639  31.438   0.902
29160W        W97490  27.972  43.857   3.640
29161W        W97491  33.444   4.831  12.084
29162W        W97492  10.249  14.653   0.915
29163W        W97493  41.869  25.213  11.941
29164W        W97494  15.622  28.042   0.397
29165W        W97495  33.437  44.878  13.503
29166W        W97496   1.756  37.355   2.870
29167W        W97497  11.195  34.048   1.821
29168W        W97498   2.848   3.734  11.096
29169W        W97499  30.496  35.973   2.750
29170W        W97500  25.153  36.497  12.405
29171W        W97501  38.566  28.569   3.733
29172W        W97502   9.350  10.192   2.805
29173W        W97503  16.807   7.410  11.888
29174W        W97504  21.712  31.990   4.630
29175W        W97505  22.052  39.954   0.792
29176W        W97506  30.452  11.765  13.308
29177W        W97507   3.749  17.760  14.941
29178W        W97508  43.934  23.011  11.922
29179W        W97509   9.702   4.372  13.976
29180W        W97510  42.017  31.446   4.742
29181W        W97511  32.124   0.437  11.581
29182W        W97512   7.811  25.158   3.370
29183W        W97513  13.689  10.878  12.425
29184W        W97514  21.086  26.493  12.957
29185W        W97515  17.099  29.609   2.194
29186W        W97516  42.303  20.619   0.926
29187W        W97517   0.458   0.882  11.380
29188W        W97518  28.654  40.806   4.322
29189W        W97519  18.054  26.018   0.354
29190W        W97520  29.592  38.831   0.836
29191W        W97521   3.908  31.477  13.458
29192W        W97522  44.824  33.525  14.025
29193W        W97523   6.908  43.467   2.369
29194W        W97524  34.560  22.078  13.450
29195W        W97525  37.951  41.790  10.415
29196W        W97526  31.489  21.652   0.773
29197W        W97527  10.286  15.325  11.111
29198W        W97528  38.864  19.243  11.089
29199W        W97529   2.905  20.550   2.332
29200W        W97530  30.075  23.569   3.683
29201W        W97531  11.678  14.325   0.295
29202W        W97532  25.552  13.269   0.961
29203W        W97533  15.649  31.488   1.906
29204W        W97534  42.372  10.740  13.424
29205W        W97535  19.667  27.522   3.170
29206W        W97536   1.285  19.075  10.904
29207W        W97537   3.809  43.867   0.444
29208W        W97538  33.875  32.518   1.701
29209W        W97539   5.361  27.034   3.824
29210W        W97540   4.788  20.553   2.712
29211W        W97541  43.003  13.817  10.631
29212W        W97542  23.725  37.035  10.643
29213W        W97543  44.425  35.437  12.089
29214W        W97544  24.097  27.143   1.777
29215W        W97545  26.589  11.280  10.501
29216W        W97546  34.405  33.625   2.204
29217W        W97547  16.674   2.446  14.874
29218W        W97548  15.738  31.580  14.935
29219W        W97549  38.874   6.921  10.546
29220W        W97550  43.306  20.238   1.241
29221W        W97551  23.588  16.250  11.981
29222W        W97552  39.434   9.246   1.337
29223W        W97553   5.261   8.278  11.604
29224W        W97554   9.188  43.838   0.250
29225W        W97555  41.853  41.896  10.584
29226W        W97556  39.460  25.131   1.832
29227W        W97557  19.163  31.514  10.913
29228W        W97558  18.293  31.921   0.333
29229W        W97559  36.564  42.412   0.866
29230W        W97560  26.976   8.347  12.921
29231W        W97561  42.883   8.884   0.909
29232W        W97562  29.101  31.421   5.726
29233W        W97563  38.469   1.736   1.279
29234W        W97564  33.565  22.569   2.870
29235W        W97565  22.742  18.787   2.808
29236W        W97566  12.650  10.197   1.353
29237W        W97567  25.526  28.545   2.259
29238W        W97568  40.467  44.975   1.373
29239W        W97569  24.486  36.007   3.352
29240W        W97570  10.827  30.421   4.693
29241W        W97571  39.822  35.076   1.850
29242W        W97572  27.657  30.096   3.767
29243W        W97573  16.615  35.909   1.873
29244W        W97574   1.473   9.266  14.449
29245W        W97575  14.709  28.539   3.698
29246W        W97576  22.734  13.745  12.548
29247W        W97577  26.095  11.847   0.953
29248W        W97578  38.045  10.275   4.294
29249W        W97579  37.438  35.859   4.777
29250W        W97580  24.639  13.822  10.407
29251W        W97581  35.998  19.083   3.758
29252W        W97582  26.138   2.942  11.909
29253W        W97583  39.429   6.698  10.959
29254W        W97584  34.056  31.923  13.371
29255W        W97585  23.147  21.074   0.866
29256W        W97586   2.745  39.387  11.069
29257W        W97587  33.105  22.719   0.943
29258W        W97588  19.042  42.351   1.707
29259W        W97589  18.699  13.167  11.932
29260W        W97590  22.699  19.721   0.415
29261W        W97591  33.984  29.478  11.533
29262W        W97592  39.384  33.875   3.688
29263W        W97593  40.034  22.602   1.385
29264W        W97594  14.830  32.997  14.490
29265W        W97595  34.521  38.891   0.458
29266W        W97596  35.937  10.190   2.369
29267W        W97597  39.457  32.055   0.937
29268W        W97598  41.849   8.389   1.769
29269W        W97599  15.153   3.413   1.397
29270W        W97600  19.181   6.363   0.378
29271W        W97601  13.262  22.612  11.858
29272W        W97602   0.336  37.962  12.471
29273W        W97603  20.565   7.383   4.822
29274W        W97604  21.606   9.209  11.479
29275W        W97605  13.832   5.290  12.037
29276W        W97606  28.083   6.725  13.792
29277W        W97607  44.330  19.739  14.900
29278W        W97608   6.267  30.968   4.745
29279W        W97609  21.189  11.294  13.012
29280W        W97610  41.843   1.905   2.673
29281W        W97611  44.331   5.410   4.258
29282W        W97612  43.477  22.171  14.955
29283W        W97613   1.733  10.752  14.782
29284W        W97614  31.648  13.778   0.806
29285W        W97615  13.153  35.043   4.339
29286W        W97616  28.089  21.574  13.365
29287W        W97617   5.326  17.568  14.879
29288W        W97618  13.210   0.395   4.615
29289W        W97619  21.069  30.955   2.274
29290W        W97620  34.607  23.030  10.429
29291W        W97621  34.068  13.153  13.010
29292W        W97622  41.842  38.956  14.343
29293W        W97623  26.693  27.052   2.311
29294W        W97624  28.941  32.942  12.985
29295W        W97625  31.940  24.505   1.933
29296W        W97626   1.923  29.466  11.954
29297W        W97627   0.778   1.911  14.866
29298W        W97628  44.479  35.068   3.654
29299W        W97629  15.237  41.947   2.409
29300W        W97630  12.701   4.204  13.440
29301W        W97631  30.559  40.867   4.663
29302W        W97632  44.307  39.010   0.331
29303W        W97633   0.835  25.495   1.434
29304W        W97634  34.002  18.206  13.522
29305W        W97635  37.958  42.519  14.792
29306W        W97636  24.588   3.760   1.705
29307W        W97637  20.716  26.078   1.866
29308W        W97638  33.585   4.221   0.962
29309W        W97639   0.335  37.043   1.281
29310W        W97640  11.264  38.834  13.895
29311W        W97641  21.653  44.901   2.841
29312W        W97642  28.567  22.211   3.203
29313W        W97643  41.386  44.992   2.209
29314W        W97644  34.983  15.279   2.200
29315W        W97645  43.819  19.667  10.600
29316W        W97646  41.020  34.867   4.167
29317W        W97647   8.689  40.435   0.911
29318W        W97648  12.303  11.165   4.664
29319W        W97649   0.927  42.475   4.643
29320W        W97650  25.178  16.619  11.557
29321W        W97651   5.369  41.478  13.318
29322W        W97652   2.432  16.733  13.315
29323W        W97653  37.880  24.134  10.416
29324W        W97654  22.664  31.968   1.721
29325W        W97655  43.003  19.191  12.564
29326W        W97656  22.680  44.342  13.456
29327W        W97657  14.161  26.163   4.167
29328W        W97658  31.520  24.227  14.441
29329W        W97659   8.221  20.615   1.308
29330W        W97660  20.729  18.655  13.358
29331W        W97661  24.621   6.185   1.450
29332W        W97662  13.796  17.125   4.244
29333W        W97663   6.379   9.209  12.453
29334W        W97664  14.262  11.764   3.206
29335W        W97665  21.090  31.594  13.952
29336W        W97666  13.328  26.092   1.804
29337W        W97667  22.228  30.148  12.994
29338W        W97668   1.472   3.450   4.184
29339W        W97669  17.221  42.968   5.307
29340W        W97670  35.906  14.802   4.617
29341W        W97671  12.186  23.588  10.476
29342W        W97672  38.012   0.832   3.199
29343W        W97673  16.758  36.854  10.910
29344W        W97674  12.687  13.648   2.341
29345W        W97675  19.059  34.943   1.340
29346W        W97676  19.709  29.982   0.338
29347W        W97677  13.107   7.205   4.193
29348W        W97678  20.101  19.178   4.714
29349W        W97679  30.595  21.046  12.452
29350W        W97680   7.346  23.065  12.347
29351W        W97681   5.330   2.401   4.244
29352W        W97682   6.680  28.583  14.438
29353W        W97683  23.198  16.607  11.885
29354W        W97684  13.148   2.376  13.517
29355W        W97685  19.274  11.162  13.794
29356W        W97686  13.732  12.682   3.693
29357W        W97687   3.300  40.317  14.330
29358W        W97688  33.590  26.019  10.587
29359W        W97689  20.198  40.437   1.425
29360W        W97690  23.216  32.938   2.393
29361W        W97691   1.461  41.873  12.913
29362W        W97692  12.765  36.927  11.108
29363W        W97693  14.129  15.194   1.342
29364W        W97694   2.325  22.588   3.319
29365W        W97695  44.985  17.274   1.339
29366W        W97696  42.479   6.352   0.965
29367W        W97697  34.482  34.514  14.759
29368W        W97698  23.011  30.120  13.838
29369W        W97699   5.820   6.414   0.963
29370W        W97700  36.487  36.848   0.450
29371W        W97701  29.976  23.584  12.404
29372W        W97702  23.688  12.330   2.382
29373W        W97703  30.432   3.888  11.025
29374W        W97704  36.436  22.065   4.620
29375W        W97705   0.831  26.102   3.199
29376W        W97706  41.502  16.196   4.793
29377W        W97707  27.021  26.142  12.840
29378W        W97708  16.088  14.785  13.859
29379W        W97709  29.653  44.781  12.074
29380W        W97710  18.749  40.800   1.887
29381W        W97711  35.485   9.337   2.405
29382W        W97712  16.296  28.450   3.637
29383W        W97713  20.692  30.514  14.500
29384W        W97714  40.816  30.106   3.834
29385W        W97715  43.424  11.641   0.809
29386W        W97716  33.069  29.429   3.689
29387W        W97717  41.896   1.896  10.148
29388W        W97718  19.695  26.668   1.707
29389W        W97719  13.720  33.540   4.286
29390W        W97720  35.552   6.757   1.711
29391W        W97721  22.142  20.546  13.936
29392W        W97722  39.984  17.789   1.892
29393W        W97723  25.004  35.913   1.905
29394W        W97724  36.858  26.689  14.833
29395W        W97725   2.878  44.272   2.328
29396W        W97726  40.020  28.016  14.373
29397W        W97727  44.424   1.312  10.598
29398W        W97728  11.190  33.066  10.920
29399W        W97729  20.629  11.668  11.868
29400W        W97730  17.240   3.934   3.809
29401W        W97731  36.985  41.315  13.834
29402W        W97732  17.730  26.523  14.876
29403W        W97733  13.116   6.715  11.467
29404W        W97734   7.182  28.085  12.926
29405W        W97735  27.042  34.532   3.255
29406W        W97736  21.144  19.041  12.835
29407W        W97737  22.711   5.864   1.699
29408W        W97738  40.797  10.791  14.973
29409W        W97739  15.278   1.309   3.654
29410W        W97740  17.651   3.758  14.895
29411W        W97741  26.702  40.344   5.230
29412W        W97742  14.748  30.495  13.932
29413W        W97743   8.731   9.158   3.751
29414W        W97744  23.590  15.661   3.294
29415W        W97745   2.862  18.053   3.777
29416W        W97746   1.238  16.653  14.285
29417W        W97747  32.048  10.260  13.499
29418W        W97748  44.379   1.408  12.915
29419W        W97749  27.673   1.319  11.495
29420W        W97750  13.733  35.007  12.351
29421W        W97751  42.937  11.725  10.921
29422W        W97752  24.639  27.563   2.268
29423W        W97753  14.197  44.429   3.285
29424W        W97754  24.505  31.604  10.625
29425W        W97755  41.984   5.870   3.787
29426W        W97756  36.929  26.610  10.455
29427W        W97757  41.348  29.480  14.395
29428W        W97758  42.916  43.997   1.921
29429W        W97759   5.299  16.606  13.420
29430W        W97760  33.071  29.038  10.552
29431W        W97761  26.077  25.664  10.517
29432W        W97762  34.974   4.899   1.428
29433W        W97763  20.587   6.907  14.018
29434W        W97764  37.841   4.352   2.757
29435W        W97765  43.314   4.314   3.356
29436W        W97766  23.225  44.903   4.327
29437W        W97767   0.367  38.045   3.340
29438W        W97768  17.302  17.580  12.016
29439W        W97769  37.545  32.002  14.470
29440W        W97770  36.519  39.344   4.803
29441W        W97771   7.264  43.367  13.920
29442W        W97772   5.286  44.336  12.073
29443W        W97773  17.772  39.448  12.454
29444W        W97774  16.599   2.801   3.256
29445W        W97775   0.373  38.332   2.316
29446W        W97776  26.104  19.282   1.920
29447W        W97777  18.643  12.666  10.075
29448W        W97778  28.973  41.988  14.466
29449W        W97779  23.057  43.330  10.983
29450W        W97780   1.861   2.303  13.902
29451W        W97781  16.742  30.418  13.526
29452W        W97782  19.204  31.542  14.305
29453W        W97783  27.955  39.332   0.762
29454W        W97784  34.376  24.507  10.996
29455W        W97785  15.230  32.526  12.525
29456W        W97786  29.529  33.469   4.295
29457W        W97787  22.737  33.033   2.835
29458W        W97788  21.548  24.647   1.243
29459W        W97789  44.498  18.173   2.237
29460W        W97790  16.634  24.103  11.928
29461W        W97791   1.918  14.769   4.114
29462W        W97792  22.501  28.007  13.394
29463W        W97793  34.602  28.070   3.364
29464W        W97794  28.971  35.940   4.701
29465W        W97795  22.576   5.254   1.399
29466W        W97796  37.430  19.178  14.762
29467W        W97797   5.342  21.602   3.687
29468W        W97798  37.069  21.736  11.105
29469W        W97799   0.260   9.763   2.898
29470W        W97800  33.926  18.231   4.751
29471W        W97801  19.620  29.512   3.669
29472W        W97802  27.175  40.017   0.900
29473W        W97803  12.845  13.620   4.775
29474W        W97804  20.618   1.881  12.039
29475W        W97805  20.707  16.318   0.315
29476W        W97806  21.024  15.179   1.428
29477W        W97807  11.794  43.476   2.212
29478W        W97808  43.275  23.050  14.428
29479W        W97809  36.950   5.713   3.831
29480W        W97810   4.880   0.369   0.862
29481W        W97811  25.968  20.188  14.847
29482W        W97812  29.027  21.082  10.157
29483W        W97813  26.549  10.851   0.247
29484W        W97814  36.546  27.070   3.731
29485W        W97815  40.430  39.861  12.035
29486W        W97816  25.653   3.897   0.774
29487W        W97817  26.046  33.405   4.282
29488W        W97818   7.182   4.801   3.267
29489W        W97819  29.042  34.558  10.637
29490W        W97820  43.500  40.528  11.037
29491W        W97821   4.431  41.339   3.332
29492W        W97822  31.492   1.954   0.457
29493W        W97823  19.716  15.783  13.378
29494W        W97824  37.044  37.360   3.371
29495W        W97825   0.847  33.074  14.796
29496W        W97826  31.136  22.695   0.460
29497W        W97827  42.417  32.099   3.685
29498W        W97828   3.252  26.047   2.206
29499W        W97829  37.832  32.941  11.057
29500W        W97830  15.225  43.825  14.843
29501W        W97831  34.101  18.267   2.857
29502W        W97832  39.857  41.911   1.722
29503W        W97833  12.150  20.137  14.389
29504W        W97834  33.025  24.512  11.559
29505W        W97835  35.579  32.042   3.657
29506W        W97836  19.279   3.428  12.872
29507W        W97837  27.533   4.430   4.355
29508W        W97838   6.688  42.950  10.425
29509W        W97839   2.341  32.432  14.825
29510W        W97840  16.156  12.253  10.998
29511W        W97841   9.783   0.803   1.271
29512W        W97842   7.817  11.847  10.470
29513W        W97843  31.112  18.183  12.438
29514W        W97844  36.396   5.754  13.532
29515W        W97845  17.291  18.617  10.971
29516W        W97846  19.756  22.565   3.176
29517W        W97847   4.444  10.272  13.396
29518W        W97848  31.919  23.220   4.202
29519W        W97849   0.445  23.082   2.674
29520W        W97850  26.038   8.312   0.944
29521W        W97851   4.814  32.423   3.340
29522W        W97852  13.272  32.087   4.319
29523W        W97853  11.196  39.939   2.287
29524W        W97854   4.906  16.221  14.300
29525W        W97855   3.920  14.207   5.122
29526W        W97856  37.519  16.604   1.328
29527W        W97857   0.889  20.123   4.669
29528W        W97858  35.481   6.381   2.385
29529W        W97859  18.278  30.946  13.042
29530W        W97860   3.823  29.529   1.792
29531W        W97861  25.577   7.311  11.030
29532W        W97862  10.810  25.982   3.215
29533W        W97863  23.120  30.549  13.368
29534W        W97864  41.336   5.241  12.055
29535W        W97865  32.943   2.322  13.833
29536W        W97866  43.433  23.569  12.576
29537W        W97867  38.914  29.667  11.385
29538W        W97868   2.292  36.474   3.674
29539W        W97869  26.624  41.486   1.775
29540W        W97870  21.757  34.029  13.835
29541W        W97871  27.175  22.627   3.664
29542W        W97872  23.087  20.260   4.635
29543W        W97873  14.223  20.202   2.869
29544W        W97874  27.545   7.280  13.883
29545W        W97875  30.148   7.746  10.446
29546W        W97876  36.883  42.002   3.206
29547W        W97877  12.828  34.550  11.896
29548W        W97878  23.623  14.337   2.820
29549W        W97879  18.676  15.668  12.855
29550W        W97880  30.511  38.066  13.376
29551W        W97881  38.389   1.967   1.819
29552W        W97882  19.251   4.729   0.771
29553W        W97883  18.117  34.414  13.947
29554W        W97884   7.369   3.370  13.435
29555W        W97885  21.091  12.283  12.988
29556W        W97886  21.072  11.767   0.903
29557W        W97887  34.981  28.962   2.672
29558W        W97888  26.630  26.062   0.469
29559W        W97889  11.265  17.762  10.563
29560W        W97890  29.506  10.313  10.422
29561W        W97891  12.696  24.181   0.428
29562W        W97892   1.349  16.276   4.335
29563W        W97893  30.963  41.336  14.471
29564W        W97894  44.004  22.677  13.861
29565W        W97895  17.213  14.729  12.557
29566W        W97896  14.804  44.774   1.749
29567W        W97897  41.395  24.585   0.442
29568W        W97898  20.062  23.541  14.789
29569W        W97899  41.943  39.345  13.503
29570W        W97900  30.599  21.681   0.825
29571W        W97901   0.811  19.742   2.755
29572W        W97902  37.942  41.920   3.718
29573W        W97903   0.780   3.441   5.117
29574W        W97904  14.647  14.588  10.496
29575W        W97905  11.666  25.966   0.862
29576W        W97906  16.763  35.381   1.892
29577W        W97907  19.119   5.791  10.944
29578W        W97908  10.323  10.186  14.761
29579W        W97909  27.575   2.743  11.403
29580W        W97910   2.392  43.270   3.794
29581W        W97911  39.874  40.439  11.485
29582W        W97912  17.079  41.434   2.325
29583W        W97913  26.512  13.694   3.792
29584W        W97914  22.739  24.983   3.264
29585W        W97915  10.271  35.489  12.466
29586W        W97916   3.791  28.529   3.226
29587W        W97917   5.195  37.983  12.538
29588W        W97918  25.189  37.455   3.755
29589W        W97919  19.734   2.941   2.248
29590W        W97920  34.477  43.306   4.730
29591W        W97921   3.452  37.866   5.085
29592W        W97922  26.025  28.033  11.014
29593W        W97923  39.482  34.923   4.178
29594W        W97924  30.928  19.639  12.474
29595W        W97925  44.889   4.308   2.230
29596W        W97926  31.585  29.162   2.731
29597W        W97927   1.295  11.817   2.286
29598W        W97928  30.998  10.301  11.996
29599W        W97929  26.967  35.924   4.288
29600W        W97930  22.575  31.421   1.448
29601W        W97931   0.888  43.306  13.348
29602W        W97932  10.788  12.817   2.774
29603W        W97933  25.676  20.083  12.388
29604W        W97934  21.725  32.035  11.512
29605W        W97935   1.446  38.841   5.300
29606W        W97936  19.694   1.806  11.061
29607W        W97937  31.966  39.335  12.407
29608W        W97938  37.878  16.267  11.881
29609W        W97939  21.686  11.809  11.067
29610W        W97940  10.156  29.561   3.313
29611W        W97941   0.389   1.360   3.823
29612W        W97942   8.667  15.146   2.187
29613W        W97943  22.017  23.670   3.725
29614W        W97944  20.697  23.604  11.044
29615W        W97945  32.424  14.812   1.854
29616W        W97946  15.725  11.299   0.859
29617W        W97947  17.616  27.544   0.885
29618W        W97948  17.801   9.806   0.438
29619W        W97949  34.566  22.575   4.682
29620W        W97950   1.465  24.999  12.057
29621W        W97951   4.332  41.840   0.347
29622W        W97952  32.539  35.595   1.862
29623W        W97953  19.064  30.983   2.749
29624W        W97954  10.648  32.507   2.759
29625W        W97955   0.359  40.026   1.349
29626W        W97956  19.277  21.572  13.388
29627W        W97957  27.951  33.401   2.263
29628W        W97958  15.105  26.143   2.889
29629W        W97959  21.535  16.281  14.837
29630W        W97960  43.451  25.998  11.394
29631W        W97961   0.881  11.170   1.882
29632W        W97962   6.212   9.314   3.665
29633W        W97963  31.969  27.092   0.419
29634W        W97964  38.962  25.046   0.765
29635W        W97965  33.399  32.511  13.021
29636W        W97966  20.625   0.298  11.485
29637W        W97967  25.648  28.532   0.768
29638W        W97968  25.595  42.803   1.367
29639W        W97969  43.293  36.090   3.211
29640W        W97970   3.421   7.396  11.604
29641W        W97971  41.402   5.909   0.250
29642W        W97972  22.012  16.677  14.308
29643W        W97973  36.526  27.628   3.376
29644W        W97974  14.809  35.894   5.089
29645W        W97975   6.860  38.427  12.987
29646W        W97976  13.300  41.893  12.565
29647W        W97977  33.460  38.039  14.903
29648W        W97978  10.667  41.864  14.874
29649W        W97979  38.013  16.634   3.673
29650W        W97980  10.373  13.662   0.392
29651W        W97981  38.934  25.714  11.392
29652W        W97982  37.059  12.830   0.821
29653W        W97983  36.544  28.171   3.783
29654W        W97984  40.914  42.499  13.828
29655W        W97985  19.090  10.305   1.904
29656W        W97986   4.798  22.011  13.506
29657W        W97987  29.485   3.778  13.029
29658W        W97988   9.887  29.666  13.437
29659W        W97989  17.648  26.083   1.269
29660W        W97990  26.177  13.129  12.954
29661W        W97991  44.338  23.051  10.509
29662W        W97992  10.785  21.129   4.610
29663W        W97993   8.183  26.077   0.840
29664W        W97994  10.264   8.684  10.941
29665W        W97995   3.863  29.667   1.386
29666W        W97996  32.526  40.358   1.875
29667W        W97997  15.601   0.409   0.926
29668W        W97998   2.418   8.287  11.578
29669W        W97999  39.833  38.420   0.305
29670W        W98000   7.696  11.866   1.424
29671W        W98001  31.586  12.704   0.318
29672W        W98002  39.883  17.298   0.767
29673W        W98003  17.207  12.131  14.879
29674W        W98004  28.679  37.467  11.898
29675W        W98005  30.623   1.414  11.597
29676W        W98006  30.050  35.522   0.479
29677W        W98007  29.023  19.592   1.700
29678W        W98008  34.945   6.392   4.200
29679W        W98009  36.984  20.608  10.894
29680W        W98010   8.248  16.206  13.044
29681W        W98011  10.231  11.319   3.151
29682W        W98012  42.500  28.506  13.886
29683W        W98013  25.575  17.115  12.025
29684W        W98014   2.365  41.430  13.867
29685W        W98015  42.281   7.278  11.899
29686W        W98016  17.584  29.606   4.771
29687W        W98017   6.903  23.599   0.901
29688W        W98018   5.862   4.366  14.511
29689W        W98019  43.396  25.141   3.162
29690W        W98020   2.370  17.778  11.090
29691W        W98021  36.893  33.971   4.671
29692W        W98022  20.569  24.572   3.777
29693W        W98023  14.212  41.301  10.467
29694W        W98024  12.613  25.058  11.551
29695W        W98025  10.291   8.848   3.155
29696W        W98026  38.901  30.527  14.967
29697W        W98027  33.434  36.929   2.365
29698W        W98028  32.479  43.329  11.067
29699W        W98029  41.833  25.111   4.722
29700W        W98030  25.996  24.994  11.890
29701W        W98031  12.292  22.111  13.983
29702W        W98032  30.447  26.579  13.053
29703W        W98033  30.483  25.042  13.988
29704W        W98034  39.330  19.714  14.288
29705W        W98035   6.286  24.652  11.961
29706W        W98036   1.859  33.504  14.913
29707W        W98037  41.307  13.738   1.407
29708W        W98038   4.319  14.777  12.447
29709W        W98039  15.596  44.762   0.395
29710W        W98040   8.171  32.903   0.353
29711W        W98041  31.442   3.710  12.864
29712W        W98042  36.515  23.011   0.875
29713W        W98043  10.346  11.709   0.315
29714W        W98044  27.546  42.289   3.687
29715W        W98045  37.919   5.709   3.349
29716W        W98046  43.493  26.655   0.907
29717W        W98047  18.628  28.145  14.012
29718W        W98048   6.312   4.374   4.333
29719W        W98049  13.813  15.625   3.368
29720W        W98050  36.940  22.016  11.937
29721W        W98051  41.311  24.599   2.371
29722W        W98052  13.722  38.827   4.348
29723W        W98053  28.552  13.286  10.457
29724W        W98054  21.616  16.655  13.802
29725W        W98055   6.407  21.050  12.345
29726W        W98056   2.390  36.420   5.692
29727W        W98057  43.783  15.762  13.541
29728W        W98058  11.799  24.999  11.948
29729W        W98059  42.311  10.743  12.984
29730W        W98060  12.783   3.448   4.772
29731W        W98061  29.645  44.946  11.581
29732W        W98062  35.933  12.781   4.325
29733W        W98063  22.114  20.269  13.848
29734W        W98064   3.393  40.324  13.925
29735W        W98065  39.521  40.954  11.942
29736W        W98066   5.322  33.452   4.622
29737W        W98067  44.924   6.719  13.349
29738W        W98068  22.593  14.265   5.202
29739W        W98069  20.709   7.683   2.409
29740W        W98070  29.131   8.847  12.489
29741W        W98071  27.184  35.419  12.041
29742W        W98072  10.243  23.200   0.836
29743W        W98073   2.293  19.757  11.410
29744W        W98074   7.897  24.532   0.793
29745W        W98075   8.269  12.172   4.229
29746W        W98076  39.913  29.924  11.877
29747W        W98077  42.949  15.628  11.048
29748W        W98078  37.965  30.135   0.818
29749W        W98079  41.919  32.053   1.696
29750W        W98080  36.579  21.600   1.822
29751W        W98081  13.811  15.209  14.813
29752W        W98082  22.249   3.356  13.499
29753W        W98083   7.401   9.725  12.502
29754W        W98084  17.567  10.808  11.086
29755W        W98085  15.283  19.619   1.266
29756W        W98086  16.599  14.115  11.945
29757W        W98087  29.593  27.674  12.869
29758W        W98088  30.109   9.366  12.919
29759W        W98089  26.027   2.731  12.394
29760W        W98090   1.880  12.119  11.008
29761W        W98091  22.745  14.125   2.357
29762W        W98092   2.949  39.399   0.279
29763W        W98093  10.745  37.514   0.458
29764W        W98094  21.688  17.767  14.022
29765W        W98095  31.060  20.032   0.760
29766W        W98096  22.228  21.074   3.270
29767W        W98097   7.257   2.354   1.405
29768W        W98098  17.075   5.848  12.075
29769W        W98099   3.428  29.154   2.839
29770W        W98100  35.495  21.200  12.453
29771W        W98101  31.095  10.669  11.074
29772W        W98102   7.687  41.469   4.721
29773W        W98103  17.307  21.223   2.680
29774W        W98104  21.628  21.035  11.011
29775W        W98105  11.266   0.400  11.390
29776W        W98106  24.067  12.252   1.316
29777W        W98107  33.583  24.651  12.939
29778W        W98108  35.578  37.031  11.955
29779W        W98109  10.178  13.247   2.772
29780W        W98110  43.864  36.356   1.306
29781W        W98111  37.352  18.151   0.790
29782W        W98112  41.796  31.624  13.001
29783W        W98113  22.055  17.076   9.964
29784W        W98114  23.217   0.461   5.242
29785W        W98115  16.144  13.179   0.775
29786W        W98116  33.589   0.891  10.416
29787W        W98117   0.325  23.033  11.522
29788W        W98118  35.485  35.859  14.817
29789W        W98119  26.059  28.547  13.848
29790W        W98120  40.863  17.129   3.160
29791W        W98121  41.823  31.898   1.441
29792W        W98122  27.948  22.229  11.101
29793W        W98123  36.951  13.144  13.894
29794W        W98124  17.768   5.774  11.046
29795W        W98125   2.749   8.304   3.836
29796W        W98126   3.407  42.400   2.813
29797W        W98127  33.956  13.131   3.731
29798W        W98128  38.343   2.353   1.729
29799W        W98129  43.958  11.368  11.581
29800W        W98130  37.527  44.262  11.477
29801W        W98131  19.763  43.793   4.313
29802W        W98132  22.019   8.894  10.630
29803W        W98133   9.201  43.465   4.768
29804W        W98134  31.998   6.376  13.345
29805W        W98135   1.811  29.659  13.493
29806W        W98136  19.209  35.100   0.285
29807W        W98137  25.212  31.133  13.987
29808W        W98138  21.613   6.764  10.110
29809W        W98139  33.588  20.570  12.556
29810W        W98140  39.560  37.864   2.809
29811W        W98141  43.419  17.609   4.254
29812W        W98142  31.009   2.881   0.421
29813W        W98143  29.577  33.118   0.911
29814W        W98144  35.955  28.632  11.072
29815W        W98145  27.162  22.009  14.784
29816W        W98146   7.796   1.846   1.815
29817W        W98147  26.483  42.351  13.856
29818W        W98148  16.669  21.029   2.286
29819W        W98149  19.701  11.134  11.088
29820W        W98150  22.649  13.784  10.595
29821W        W98151  43.863  41.815  13.482
29822W        W98152  36.532  13.779  14.277
29823W        W98153   0.968  21.140   3.851
29824W        W98154   8.798  27.149  13.543
29825W        W98155  34.518  30.502   3.653
29826W        W98156  39.058   0.397   3.274
29827W        W98157   5.244  27.525  12.827
29828W        W98158  18.215  15.193  10.540
29829W        W98159  30.965  36.050   2.194
29830W        W98160  12.351  42.338  10.434
29831W        W98161   0.334   4.343   1.910
29832W        W98162  27.517  43.369  13.987
29833W        W98163  28.444   4.369   1.698
29834W        W98164  18.180  37.942  13.015
29835W        W98165  12.138  37.930  13.318
29836W        W98166  35.461  25.148  12.902
29837W        W98167  27.061  34.491   4.628
29838W        W98168  35.071   3.910   4.658
29839W        W98169  12.351  37.994   2.360
29840W        W98170  42.001  40.342   2.825
29841W        W98171  19.115  12.698   4.833
29842W        W98172  12.750   8.230   1.730
29843W        W98173  20.536  11.842  13.317
29844W        W98174  23.010  38.356   4.814
29845W        W98175  11.626  23.652   4.186
29846W        W98176  37.843  36.009  14.446
29847W        W98177   9.245  30.457  10.007
29848W        W98178   4.929  33.920  11.502
29849W        W98179  17.661  29.623   0.271
29850W        W98180  12.619  23.087   4.802
29851W        W98181  24.126  21.118  14.772
29852W        W98182  29.003   8.361  12.410
29853W        W98183  25.004  29.930  12.952
29854W        W98184  42.351  32.974  14.362
29855W        W98185   1.746   3.338   2.711
29856W        W98186  16.714   9.862   2.235
29857W        W98187  24.646  13.278  12.579
29858W        W98188  40.323  40.410   4.724
29859W        W98189  24.594  25.177  14.319
29860W        W98190  26.568   7.774  14.284
29861W        W98191  17.286  36.430  14.324
29862W        W98192  21.209  24.167  12.024
29863W        W98193  29.514  12.251   1.378
29864W        W98194  30.934  11.128  13.521
29865W        W98195  32.594  34.463   4.782
29866W        W98196  44.279  40.799  12.516
29867W        W98197  24.158  31.030  10.489
29868W        W98198  44.891   0.742   0.391
29869W        W98199  20.640  24.055   0.473
29870W        W98200  33.959  19.253  13.826
29871W        W98201  33.542  23.205  14.282
29872W        W98202   2.370  19.772   1.323
29873W        W98203  18.775  22.721  14.831
29874W        W98204   0.794  42.839  12.904
29875W        W98205  39.933  15.110   3.752
29876W        W98206  15.136  41.786  10.551
29877W        W98207   6.188  24.636  14.292
29878W        W98208  10.354  12.298   0.956
29879W        W98209  13.125  23.147   2.260
29880W        W98210   0.421  31.089  14.801
29881W        W98211   3.888  40.854  12.344
29882W        W98212   8.675  28.177  14.461
29883W        W98213  25.657   0.762   0.257
29884W        W98214   4.904  18.698   0.356
29885W        W98215  35.999  10.831   2.781
29886W        W98216  28.035  32.090   1.444
29887W        W98217  10.317  39.991  10.902
29888W        W98218   8.177   9.676  12.563
29889W        W98219  29.632  36.096   0.326
29890W        W98220  24.087  30.524   1.750
29891W        W98221  24.019  20.599  12.522
29892W        W98222  19.173  30.544  13.486
29893W        W98223  19.053  36.910   0.268
29894W        W98224  15.275   3.846   1.365
29895W        W98225  11.228  17.272   4.138
29896W        W98226  12.256   1.736   3.187
29897W        W98227  31.091  10.697   3.693
29898W        W98228  29.943  34.115   9.492
29899W        W98229  43.481  36.351  12.009
29900W        W98230  24.519  31.987  12.423
29901W        W98231  26.145  40.331  13.393
29902W        W98232  35.942  33.380   3.177
29903W        W98233  28.448  29.087  12.832
29904W        W98234  42.775   6.857   2.337
29905W        W98235  25.210   7.380   0.291
29906W        W98236  25.102  33.986  14.894
29907W        W98237  30.968   9.700   4.263
29908W        W98238  16.252  15.309  12.954
29909W        W98239  17.572  38.023  10.920
29910W        W98240  38.952   0.981   2.795
29911W        W98241   0.320  12.229   1.318
29912W        W98242  15.657  31.963   3.286
29913W        W98243   7.354  24.187  13.348
29914W        W98244   0.861   1.435  10.917
29915W        W98245   8.232  29.449  12.488
29916W        W98246   1.361  27.668  11.539
29917W        W98247  11.721   1.361  11.473
29918W        W98248  28.054   0.855  11.049
29919W        W98249  24.130  35.604  10.516
29920W        W98250  29.430   4.338  11.885
29921W        W98251  25.544  44.854   3.346
29922W        W98252  12.241  33.533  14.484
29923W        W98253  38.029  32.077   3.295
29924W        W98254  29.464  43.286   4.293
29925W        W98255  19.284  37.423   4.345
29926W        W98256  29.013  20.113   2.684
29927W        W98257  29.529   2.948   2.328
29928W        W98258  19.192  42.930  13.916
29929W        W98259  40.046  37.530  10.929
29930W        W98260  34.064   4.343  13.006
29931W        W98261  23.137  38.013   0.340
29932W        W98262  18.242   8.746   1.428
29933W        W98263  24.539  12.653   4.663
29934W        W98264  16.299  33.934   1.870
29935W        W98265  32.437  23.555   2.732
29936W        W98266  30.067  36.971   4.204
29937W        W98267  20.051   7.321  13.360
29938W        W98268  24.590  13.668   0.306
29939W        W98269  24.699  33.474   1.734
29940W        W98270   4.897   6.727  12.400
29941W        W98271  40.958  27.615  12.893
29942W        W98272  27.019   8.219   1.337
29943W        W98273  10.329  28.603  14.326
29944W        W98274  32.590   1.449  13.394
29945W        W98275  36.409  39.503  11.606
29946W        W98276  35.854  10.769  13.046
29947W        W98277  41.842  17.064  10.036
29948W        W98278  20.247  42.431  13.971
29949W        W98279  32.603  25.165   1.780
29950W        W98280   9.676  11.755   0.427
29951W        W98281  27.076  38.505   1.332
29952W        W98282  11.362  27.467  13.347
29953W        W98283  42.292   2.350  10.450
29954W        W98284   6.202  41.915   9.961
29955W        W98285   0.959   7.718  11.118
29956W        W98286   4.415  11.142  11.444
29957W        W98287  34.396  30.105   4.674
29958W        W98288   6.271  11.321   3.754
29959W        W98289  37.427  27.135   1.390
29960W        W98290  16.232  37.558   2.881
29961W        W98291   6.886  11.184   1.305
29962W        W98292  41.295   4.811  13.998
29963W        W98293  21.540  43.970   3.788
29964W        W98294   4.888  25.560   1.364
29965W        W98295  43.849  29.935  14.301
29966W        W98296  14.332  17.604   0.444
29967W        W98297  40.863   7.849   4.700
29968W        W98298  34.559   2.824   0.399
29969W        W98299  15.188  40.458  14.945
29970W        W98300  39.934  35.481   1.855
29971W        W98301  24.171   2.769   4.735
29972W        W98302  15.110  23.995   0.912
29973W        W98303  16.740  36.983   3.191
29974W        W98304  18.244  19.714   2.881
29975W        W98305  19.705  33.996   2.235
29976W        W98306  40.389  22.628   2.822
29977W        W98307  38.008  12.273   4.731
29978W        W98308  44.444  35.993  12.868
29979W        W98309   7.807  19.204  14.847
29980W        W98310  15.179  12.343   1.349
29981W        W98311  14.692  37.887   2.794
29982W        W98312   8.734   1.839  12.457
29983W        W98313  42.853   0.472   3.302
29984W        W98314  11.862  30.955   3.172
29985W        W98315  14.637   7.335  12.920
29986W        W98316   7.239  35.089  12.995
29987W        W98317  26.461  25.020   2.385
29988W        W98318  27.620  22.087   4.637
29989W        W98319  20.684  33.387  14.418
29990W        W98320  41.484  28.107   2.192
29991W        W98321  15.238  34.916   3.193
29992W        W98322  23.676  27.980   3.632
29993W        W98323  28.663   9.800   4.599
29994W        W98324  39.063  14.830   3.803
29995W        W98325  21.180   0.855  10.564
29996W        W98326  31.925  15.307  13.834
29997W        W98327  39.480  38.348   3.211
29998W        W98328  38.565  42.382   2.869
29999W        W98329  39.388   6.848  11.912
30000W        W98330  34.943   3.912   2.349
30001W        W98331  20.647  35.093  12.378
30002W        W98332   2.302  39.423   5.130
30003W        W98333  38.383   4.918   1.748
30004W        W98334   8.851   2.394   1.706
30005W        W98335  32.003  20.257   0.338
30006W        W98336  11.685   7.204  14.479
30007W        W98337   1.430   9.328  14.011
30008W        W98338  25.155  27.551   3.202
30009W        W98339  31.647  23.178  12.959
30010W        W98340  33.009   3.414  10.488
30011W        W98341   8.716   2.438   2.766
30012W        W98342  10.149   3.723   0.282
30013W        W98343   5.932  35.564   1.727
30014W        W98344  39.533   4.749   1.266
30015W        W98345   4.414  36.001  12.849
30016W        W98346   2.229  16.811   1.750
30017W        W98347   0.870  13.232  13.435
30018W        W98348  15.102  25.575  13.978
30019W        W98349  31.120  34.902  13.054
30020W        W98350  25.017  12.297   1.916
30021W        W98351  29.947   9.795  13.870
30022W        W98352  32.995  29.157   4.706
30023W        W98353  11.199  21.740  10.992
30024W        W98354  38.934  31.451   1.886
30025W        W98355  27.171   9.801   3.192
30026W        W98356   4.295  43.955  10.528
30027W        W98357  39.484   9.195  13.407
30028W        W98358   6.679  43.809   4.246
30029W        W98359  42.506   3.277   4.231
30030W        W98360  23.238  25.194  12.558
30031W        W98361  19.123  14.199   1.909
30032W        W98362  41.469  14.607  12.002
30033W        W98363  14.189  14.620  14.836
30034W        W98364  23.526   5.834  11.995
30035W        W98365   6.253  29.125   2.748
30036W        W98366  43.405  38.928   3.283
30037W        W98367   7.829  26.092  12.028
30038W        W98368  39.407  17.202  13.362
30039W        W98369  27.467  42.002   4.343
30040W        W98370  17.117   0.824   1.836
30041W        W98371  13.732  13.826   4.337
30042W        W98372  33.619   9.875   4.665
30043W        W98373  35.513   0.888   3.279
30044W        W98374  34.523  20.252   0.872
30045W        W98375   3.852  38.983   0.242
30046W        W98376   6.837  11.763   4.826
30047W        W98377  24.622   1.403   3.810
30048W        W98378   0.256   0.775   3.286
30049W        W98379   8.306  19.218   2.263
30050W        W98380  36.082  34.892   3.356
30051W        W98381  35.110  44.483   4.267
30052W        W98382  35.019  11.684   4.755
30053W        W98383   8.196  27.097  12.921
30054W        W98384  31.091   5.246   2.684
30055W        W98385  40.497  36.491  10.550
30056W        W98386  17.656   3.812   4.823
30057W        W98387  30.585  20.540  11.501
30058W        W98388   3.397   8.241   1.780
30059W        W98389   0.760  25.586   0.300
30060W        W98390  17.235  28.652   2.863
30061W        W98391  12.824  17.749  11.382
30062W        W98392  44.456  31.027   3.179
30063W        W98393  44.978  42.012  14.448
30064W        W98394   3.357  27.111   0.452
30065W        W98395  18.163  42.356   4.198
30066W        W98396   2.278   3.812   3.373
30067W        W98397  23.591  11.678   2.258
30068W        W98398   4.229  14.234   4.791
30069W        W98399  42.478  10.340   3.323
30070W        W98400  22.240  18.171   2.270
30071W        W98401  13.226  17.742   0.434
30072W        W98402  17.759  18.574   4.708
30073W        W98403  21.516  15.586  14.872
30074W        W98404  39.854  24.988   3.844
30075W        W98405  16.704  15.192   0.866
30076W        W98406  27.028  43.327  10.641
30077W        W98407  39.832   3.805   0.863
30078W        W98408   9.882  35.369   0.949
30079W        W98409   0.972  40.461   2.901
30080W        W98410  23.241  11.131  13.343
30081W        W98411  28.997  23.558   3.167
30082W        W98412  24.075   0.823  11.585
30083W        W98413  25.177  36.898  11.939
30084W        W98414   0.883  22.734  14.346
30085W        W98415  32.497  23.684   1.748
30086W        W98416  17.118  38.364  11.957
30087W        W98417  11.149  38.338  14.799
30088W        W98418  22.216   6.753   4.745
30089W        W98419  28.929  10.265   1.815
30090W        W98420  33.944   6.839  13.021
30091W        W98421  39.482  15.707   1.214
30092W        W98422  44.949   3.953   3.339
30093W        W98423  27.594  28.070  13.428
30094W        W98424  28.024  41.805  14.398
30095W        W98425  15.120   2.923   0.932
30096W        W98426  26.958  15.190  13.037
30097W        W98427  28.647  21.027   1.867
30098W        W98428  25.977   1.936   1.269
30099W        W98429  12.219  11.695  12.957
30100W        W98430  11.777  33.902   1.333
30101W        W98431  43.803  39.520  13.407
30102W        W98432  27.476  14.146   0.357
30103W        W98433  20.599  24.701  10.942
30104W        W98434  34.390  32.562   2.697
30105W        W98435   6.282  27.053   1.786
30106W        W98436  13.812   1.397  11.560
30107W        W98437  23.015   2.249   3.266
30108W        W98438  14.673  37.555  14.331
30109W        W98439  20.597  33.600   2.291
30110W        W98440  42.861  34.422   1.259
30111W        W98441  44.972  30.135  13.814
30112W        W98442  17.157   4.358   0.961
30113W        W98443  35.538   6.774   2.901
30114W        W98444  15.596  30.027  14.426
30115W        W98445  41.896  22.080   2.699
30116W        W98446  26.085  16.666  11.609
30117W        W98447  25.629  19.086  12.991
30118W        W98448  16.677  37.396   1.731
30119W        W98449  33.005   6.427   2.852
30120W        W98450  40.002  28.066  12.433
30121W        W98451   0.961  44.435   2.700
30122W        W98452  24.479  14.179  10.522
30123W        W98453  15.321   9.726  12.003
30124W        W98454  44.948  43.943  14.962
30125W        W98455   4.233  43.508   4.286
30126W        W98456  37.891   5.917  14.903
30127W        W98457  27.056  27.132  11.531
30128W        W98458  28.493  29.926  10.963
30129W        W98459  37.352  39.004   2.827
30130W        W98460   6.296   4.411  12.972
30131W        W98461  30.492  24.517   1.836
30132W        W98462   7.284  15.182   4.653
30133W        W98463   6.244  33.538   2.320
30134W        W98464  16.109  35.506   4.660
30135W        W98465   0.907  17.556   1.210
30136W        W98466  29.506  16.198   3.684
30137W        W98467  43.775  18.611  10.587
30138W        W98468   5.690  16.272   0.435
30139W        W98469  26.049  19.239  14.826
30140W        W98470  14.340  33.021   3.283
30141W        W98471  30.119   8.245  11.862
30142W        W98472   3.247  36.347  14.459
30143W        W98473  22.134  17.188   5.248
30144W        W98474  28.596   5.335   0.401
30145W        W98475  31.432  18.070   4.315
30146W        W98476  44.883  18.556   3.386
30147W        W98477  43.982  36.437   3.728
30148W        W98478  31.025  36.078   1.301
30149W        W98479  39.976  33.399  10.601
30150W        W98480  30.107  41.003  14.929
30151W        W98481  29.953  16.196  14.317
30152W        W98482  17.723  32.025   1.740
30153W        W98483  22.620  44.972   4.324
30154W        W98484  24.216  21.706  13.055
30155W        W98485  25.000  41.320   2.247
30156W        W98486  19.269  14.215  12.865
30157W        W98487  33.569  36.351  11.574
30158W        W98488   5.910  22.042   4.614
30159W        W98489  23.994  22.035   4.607
30160W        W98490  44.381  40.389   1.831
30161W        W98491   2.798  20.215  14.828
30162W        W98492  26.007  29.067  10.469
30163W        W98493  22.627  32.024   4.693
30164W        W98494   1.874  12.704  13.943
30165W        W98495  41.964   5.854  14.012
30166W        W98496  20.052  27.130   0.903
30167W        W98497  32.905  26.091  14.019
30168W        W98498  21.122  36.860  14.499
30169W        W98499   5.380   7.820   0.481
30170W        W98500   9.837  17.061  11.384
30171W        W98501   0.326   4.380   0.761
30172W        W98502  10.188  25.198  10.446
30173W        W98503  24.148  21.048   2.883
30174W        W98504  21.668  38.527   0.934
30175W        W98505  43.469  42.508  11.049
30176W        W98506   0.355   6.250  12.897
30177W        W98507   8.858  12.617   3.630
30178W        W98508  27.579  28.109   3.723
30179W        W98509  30.145  13.776  12.039
30180W        W98510  17.689   4.440  11.991
30181W        W98511  28.127  21.559  10.409
30182W        W98512  22.139  29.998   3.285
30183W        W98513  19.114  34.459   1.318
30184W        W98514  21.578  33.531   1.356
30185W        W98515   1.806  35.911  12.357
30186W        W98516  31.428  19.761   5.207
30187W        W98517  30.511  33.526  12.860
30188W        W98518   2.873  36.593  13.797
30189W        W98519  37.061  23.514   1.868
30190W        W98520  34.035  30.452   0.334
30191W        W98521  27.545  27.634  12.059
30192W        W98522   1.954  10.759   1.857
30193W        W98523   7.860  22.628   1.751
30194W        W98524  15.588  28.966   3.644
30195W        W98525  37.451  38.539  13.832
30196W        W98526  42.898  36.452  13.011
30197W        W98527  15.806  23.600  13.859
30198W        W98528   1.787  37.878  13.432
30199W        W98529  43.394  32.426   1.925
30200W        W98530   4.269   8.255   4.252
30201W        W98531  14.723  36.002  11.602
30202W        W98532  40.461   0.390  12.082
30203W        W98533  11.679   8.807   2.819
30204W        W98534  12.857  13.619   2.803
30205W        W98535  18.745   1.292   2.727
30206W        W98536  14.250  32.470   3.690
30207W        W98537   2.336   6.263   3.265
30208W        W98538  16.766  27.181   4.630
30209W        W98539  22.186  40.948  14.955
30210W        W98540  31.503  12.670  13.527
30211W        W98541  28.101  44.926   3.364
30212W        W98542  41.356  43.950   0.890
30213W        W98543  26.130  17.152   3.640
30214W        W98544  24.125  14.135   1.357
30215W        W98545  25.203  44.937  13.823
30216W        W98546  30.485   2.421   2.749
30217W        W98547  34.539  24.207   2.415
30218W        W98548  25.117  28.578  14.503
30219W        W98549  34.034   4.888  11.522
30220W        W98550  25.996  22.696   0.752
30221W        W98551   4.815  31.955  14.928
30222W        W98552  43.479   4.792   3.250
30223W        W98553   2.817  10.712  14.420
30224W        W98554  44.867  29.559  10.911
30225W        W98555  41.485  24.093   2.750
30226W        W98556  23.537  14.818   2.788
30227W        W98557  27.121  34.574  13.544
30228W        W98558  27.191  42.321  12.899
30229W        W98559   9.733  32.635  10.532
30230W        W98560   4.387  35.047   4.748
30231W        W98561   6.905  15.312  10.981
30232W        W98562   3.254  16.645   2.364
30233W        W98563  22.161  31.127  14.022
30234W        W98564  40.835  33.460   0.364
30235W        W98565  17.165  38.514  13.393
30236W        W98566   8.257  28.077   2.845
30237W        W98567   2.791  16.606  12.992
30238W        W98568  30.020   5.773   4.722
30239W        W98569  17.110   7.188   3.666
30240W        W98570  15.771  42.959   3.691
30241W        W98571  18.123  28.677  10.478
30242W        W98572  31.097  10.851  14.494
30243W        W98573   4.224  24.689   4.658
30244W        W98574   9.294  19.147   4.231
30245W        W98575  25.194  20.175  11.410
30246W        W98576  36.367  36.580   3.758
30247W        W98577   0.351   9.361   1.326
30248W        W98578  31.552  10.305  11.885
30249W        W98579  26.119   8.276   0.443
30250W        W98580  44.865  21.139  14.918
30251W        W98581  28.931  12.158   4.231
30252W        W98582   8.838  32.012  10.574
30253W        W98583  37.935  26.051   2.210
30254W        W98584  39.327  29.554  12.016
30255W        W98585  30.121  28.970   1.883
30256W        W98586  27.632   3.892  11.037
30257W        W98587  35.364  36.581  11.980
30258W        W98588   7.908  32.605  10.431
30259W        W98589  34.959  15.108  11.411
30260W        W98590  29.622   9.798   1.714
30261W        W98591  37.872  10.705   1.344
30262W        W98592  28.014   4.704   3.768
30263W        W98593  44.409  25.523   3.679
30264W        W98594  27.643  41.468   1.778
30265W        W98595  38.956  20.596  11.538
30266W        W98596  43.917  35.422   0.841
30267W        W98597  32.019  38.040  13.862
30268W        W98598  28.641  35.020  10.057
30269W        W98599   9.754   6.208  10.913
30270W        W98600   8.343  42.488  11.392
30271W        W98601  35.568  12.657   3.780
30272W        W98602  41.459  40.019  14.990
30273W        W98603  44.433   8.312   3.637
30274W        W98604   9.701  38.504  13.880
30275W        W98605  10.375  34.465   2.353
30276W        W98606  15.781  41.361  11.596
30277W        W98607  17.077  34.494  14.435
30278W        W98608  37.399  17.231  12.842
30279W        W98609  41.456  37.521  13.346
30280W        W98610  31.602  13.717   3.242
30281W        W98611  38.880  34.110  12.083
30282W        W98612  31.612   5.198  12.018
30283W        W98613  24.569  38.465   0.858
30284W        W98614  10.641  17.220  10.966
30285W        W98615  25.972  28.600   1.330
30286W        W98616   6.419   6.721  13.859
30287W        W98617   4.837   3.408  14.795
30288W        W98618  23.207  34.036  11.515
30289W        W98619  10.322  26.003  14.285
30290W        W98620  27.062  23.041  13.889
30291W        W98621  16.231   9.771   2.681
30292W        W98622  40.870  10.662  12.034
30293W        W98623   0.976   7.695  11.576
30294W        W98624   7.240   3.818   1.317
30295W        W98625  32.978  31.455   3.318
30296W        W98626  36.993  16.172  11.449
30297W        W98627  14.628  26.136   0.848
30298W        W98628  26.621  39.981  12.875
30299W        W98629   4.899  37.537   5.293
30300W        W98630  29.999  22.598   2.782
30301W        W98631  11.285  44.796  11.595
30302W        W98632  11.358  41.409  10.541
30303W        W98633   8.794  16.603  10.495
30304W        W98634  29.983  43.468  14.893
30305W        W98635  11.666  15.636  10.019
30306W        W98636  35.102  36.412  14.758
30307W        W98637  12.828  33.945  14.381
30308W        W98638   2.922  20.029   0.398
30309W        W98639  14.731  24.612   0.848
30310W        W98640  17.701  32.624  14.000
30311W        W98641  37.949  31.583  12.541
30312W        W98642   8.335  27.101   3.172
30313W        W98643  25.591  34.979  10.138
30314W        W98644  35.962  24.163  13.969
30315W        W98645  15.696  35.881   2.313
30316W        W98646  39.014  17.215   2.811
30317W        W98647  23.223   4.276  10.977
30318W        W98648  16.294   8.774   4.675
30319W        W98649   6.328  42.793   2.179
30320W        W98650   6.848  11.816   3.323
30321W        W98651  10.768  15.727  13.816
30322W        W98652  22.084   7.869  13.864
30323W        W98653  35.900   9.817   4.693
30324W        W98654  10.259  39.373  14.442
30325W        W98655  20.674  19.627  14.346
30326W        W98656  18.171  32.105  12.006
30327W        W98657   8.846   2.744   2.882
30328W        W98658  20.205  26.148   4.248
30329W        W98659  39.531   1.268   2.751
30330W        W98660   5.697   6.405  12.915
30331W        W98661  33.091   8.344   0.865
30332W        W98662   9.648   1.266  13.870
30333W        W98663  40.920   2.859  13.342
30334W        W98664  42.308   5.868  12.926
30335W        W98665  21.654  25.709  11.949
30336W        W98666  25.152  24.115   1.442
30337W        W98667  40.438  35.891  12.511
30338W        W98668  43.464  11.835  14.766
30339W        W98669  21.068  10.645   3.747
30340W        W98670  16.125   1.819  11.112
30341W        W98671  39.358  39.314  10.638
30342W        W98672  10.331  28.969   3.253
30343W        W98673  26.087  39.409  13.021
30344W        W98674   1.864   4.221   1.847
30345W        W98675  25.626  36.425  14.759
30346W        W98676  24.025  19.752   1.417
30347W        W98677  38.873   1.333  14.758
30348W        W98678   1.244  23.495   4.744
30349W        W98679  33.116  29.978   0.748
30350W        W98680  28.996  19.197   2.824
30351W        W98681  39.375  28.184  10.146
30352W        W98682  18.623  14.629   4.624
30353W        W98683  34.544  35.972   3.797
30354W        W98684   4.288   9.678  12.846
30355W        W98685  32.128  13.831  10.530
30356W        W98686   7.784  14.639   0.748
30357W        W98687  29.433  21.536  13.874
30358W        W98688  26.016  22.509   2.806
30359W        W98689  10.293  17.260  10.604
30360W        W98690  38.550  34.463   4.255
30361W        W98691  44.340   7.314   4.233
30362W        W98692  25.658   7.195   0.457
30363W        W98693  27.623  10.767   3.736
30364W        W98694   8.367  30.072   1.422
30365W        W98695  32.561   5.736  11.399
30366W        W98696  34.957  33.052   4.231
30367W        W98697  34.478  17.616  12.018
30368W        W98698   2.908   4.219   0.786
30369W        W98699  30.064  12.264   2.276
30370W        W98700  28.448   5.215  10.410
30371W        W98701  37.043  43.432  11.576
30372W        W98702  28.162  13.626  13.847
30373W        W98703  35.439  23.651  12.517
30374W        W98704  44.820  15.151  11.589
30375W        W98705  28.632   8.777  10.431
30376W        W98706   2.864   3.381  13.401
30377W        W98707  31.447  10.199   5.252
30378W        W98708  30.654  17.145   3.254
30379W        W98709  37.463   0.449   1.233
30380W        W98710  15.293  31.641  12.394
30381W        W98711  39.997   1.805  13.338
30382W        W98712  27.975  42.807  10.595
30383W        W98713   5.435  19.202  12.065
30384W        W98714  34.588  36.449   3.149
30385W        W98715  13.116  33.462   1.423
30386W        W98716  10.167  15.584   2.864
30387W        W98717  25.486  35.964  12.354
30388W        W98718  24.145   9.823   0.404
30389W        W98719   0.769   0.982   5.283
30390W        W98720  25.559  12.317   1.900
30391W        W98721  32.527  20.713   1.818
30392W        W98722  35.045  20.211  14.840
30393W        W98723  41.009  10.369   2.204
30394W        W98724  36.359  35.103  10.404
30395W        W98725  40.805  27.568  13.403
30396W        W98726  34.098  12.233  11.034
30397W        W98727  36.521  11.744  13.942
30398W        W98728   6.242   1.335  14.416
30399W        W98729  42.431  19.736  10.434
30400W        W98730  15.235  19.584   0.300
30401W        W98731  18.544  34.396  12.976
30402W        W98732  42.495  36.385   1.441
30403W        W98733  16.723  29.110  12.039
30404W        W98734  20.662  42.804  14.886
30405W        W98735  30.014  20.747   3.253
30406W        W98736   7.728  43.301  11.106
30407W        W98737  21.708  38.983  14.915
30408W        W98738  22.744  19.281   4.730
30409W        W98739  12.268  37.514   4.755
30410W        W98740   3.221  40.908  11.575
30411W        W98741  21.575  42.340  13.980
30412W        W98742  27.625  16.254  10.633
30413W        W98743  20.242   6.303  10.421
30414W        W98744  22.027  43.488  10.903
30415W        W98745   6.375   9.160   1.855
30416W        W98746  18.777  26.197   4.336
30417W        W98747  19.120  38.540  12.423
30418W        W98748   1.437  32.935   3.813
30419W        W98749  32.406  32.545  11.037
30420W        W98750  37.888  28.167   9.960
30421W        W98751  23.492  27.094   4.265
30422W        W98752  13.759  10.384   2.389
30423W        W98753  15.770  35.856   3.377
30424W        W98754  37.881  20.143  12.523
30425W        W98755   0.899   9.385  13.509
30426W        W98756  26.663  28.649  13.034
30427W        W98757   7.907  27.634   1.817
30428W        W98758   2.355  19.060  14.026
30429W        W98759  15.695  14.227   1.333
30430W        W98760  16.739  21.146  13.436
30431W        W98761  18.233   4.707  13.984
30432W        W98762   6.190  40.909   3.741
30433W        W98763  39.808  22.666   0.335
30434W        W98764  14.186  23.734  11.102
30435W        W98765  26.067  40.393  14.772
30436W        W98766  24.721  18.751   0.402
30437W        W98767  20.644  13.250   3.157
30438W        W98768  37.970  34.486   4.204
30439W        W98769  34.043   5.713  14.465
30440W        W98770   9.686  12.153   0.890
30441W        W98771  33.604  20.051   4.770
30442W        W98772  10.845  40.536  14.320
30443W        W98773  39.023  40.815   2.763
30444W        W98774  10.384  28.041  13.327
30445W        W98775  13.732  38.331  14.939
30446W        W98776   4.304  31.003   1.741
30447W        W98777  28.034   7.377   9.939
30448W        W98778  35.533   8.284  14.826
30449W        W98779  31.643   7.734  12.339
30450W        W98780  33.411  20.532  11.859
30451W        W98781   1.387  10.367  14.823
30452W        W98782  28.959  16.690  14.446
30453W        W98783  14.197  23.566   0.936
30454W        W98784  36.507  36.350  10.921
30455W        W98785   1.737  41.792   0.859
30456W        W98786  26.559   5.370   0.874
30457W        W98787  37.459  16.247   3.731
30458W        W98788   0.745   5.724   2.345
30459W        W98789  17.572  11.362   1.353
30460W        W98790  38.020  14.198  10.123
30461W        W98791   9.793  39.493  13.310
30462W        W98792  11.756   6.821   1.278
30463W        W98793  25.494  31.031  11.511
30464W        W98794   3.317  42.478  14.282
30465W        W98795  33.545  36.003  12.827
30466W        W98796   2.808  44.830  14.493
30467W        W98797  13.168   2.754   2.681
30468W        W98798  36.893  42.881   1.412
30469W        W98799  17.196   4.312   1.788
30470W        W98800  29.461  12.741  14.379
30471W        W98801  20.146  20.141  13.796
30472W        W98802  33.943  21.051  11.507
30473W        W98803  38.046  22.535  10.454
30474W        W98804  20.224  15.325  12.840
30475W        W98805  31.979  35.979  14.898
30476W        W98806  39.426  37.528  12.552
30477W        W98807   3.939  31.152  11.552
30478W        W98808  31.476  13.821  14.509
30479W        W98809   7.335   4.863  14.937
30480W        W98810  43.349  22.249   4.276
30481W        W98811  43.312  15.665  10.959
30482W        W98812  21.127  33.441  12.824
30483W        W98813  42.327  18.133   4.662
30484W        W98814  30.009  39.979  11.600
30485W        W98815  21.595  11.829   1.351
30486W        W98816  21.017  32.966   2.308
30487W        W98817  39.057  10.180   3.173
30488W        W98818  19.701  22.710   4.236
30489W        W98819  13.267   4.754  14.334
30490W        W98820  28.476  36.046   3.659
30491W        W98821  15.805  20.143   1.833
30492W        W98822  42.388  42.485   3.798
30493W        W98823  17.083   6.393  11.127
30494W        W98824  32.625   6.793   3.796
30495W        W98825   8.171  28.151  10.577
30496W        W98826  13.613  34.110   1.704
30497W        W98827  31.152  21.596   5.231
30498W        W98828  18.592  35.995  13.873
30499W        W98829   5.819  22.073   3.198
30500W        W98830  27.001  20.237  11.093
30501W        W98831  26.596  33.924   4.310
30502W        W98832  16.249   8.163  11.458
30503W        W98833  25.105  39.927   3.171
30504W        W98834  25.714  24.677  13.872
30505W        W98835  33.891  35.870  14.004
30506W        W98836   3.821  35.602   0.811
30507W        W98837  44.891  31.096   2.396
30508W        W98838  37.040  19.098   2.220
30509W        W98839  35.544  19.767   1.216
30510W        W98840  35.374  13.272   0.304
30511W        W98841  14.132  44.888   1.211
30512W        W98842  27.493  36.996   0.837
30513W        W98843  41.935  30.090  11.439
30514W        W98844   0.362  24.657   1.257
30515W        W98845  11.837  11.348  13.009
30516W        W98846  15.186  16.261   4.796
30517W        W98847   1.837  38.000   2.206
30518W        W98848   3.955  25.573  14.350
30519W        W98849   8.828  23.165  13.866
30520W        W98850   1.912  13.127  14.936
30521W        W98851  13.250  40.916   1.818
30522W        W98852  42.423   6.391  13.965
30523W        W98853   0.469  36.972  12.985
30524W        W98854   2.754   5.726  12.417
30525W        W98855  32.138  25.656  10.931
30526W        W98856  12.326   9.839   4.671
30527W        W98857  43.335  31.077   0.906
30528W        W98858   9.805  25.181   1.754
30529W        W98859   1.827  28.992   4.774
30530W        W98860  26.695   2.813   2.303
30531W        W98861  38.937  40.425  12.416
30532W        W98862  28.968   7.746   0.963
30533W        W98863  30.933  36.867  12.835
30534W        W98864  10.342  37.888  11.547
30535W        W98865  37.018  11.838  13.937
30536W        W98866  20.592  33.884   3.781
30537W        W98867   5.199  14.593  13.315
30538W        W98868  30.955  27.004   1.753
30539W        W98869  31.068   2.928  13.469
30540W        W98870  43.787  28.463   1.725
30541W        W98871  12.629  33.914   1.349
30542W        W98872  27.504   1.848  13.857
30543W        W98873  38.874   5.261   1.847
30544W        W98874  22.053  34.394  11.080
30545W        W98875  15.688  36.390  13.376
30546W        W98876   6.267  40.315   4.630
30547W        W98877  43.785  21.235   2.786
30548W        W98878  35.941  20.555   1.382
30549W        W98879  14.750  43.821  12.858
30550W        W98880  25.664  44.486   4.657
30551W        W98881  39.864   9.158  13.895
30552W        W98882  19.057  39.493   4.348
30553W        W98883  24.002  14.698  13.542
30554W        W98884  11.288   9.179   2.897
30555W        W98885   3.363  25.999  14.425
30556W        W98886   7.311  26.073  11.920
30557W        W98887  19.276  12.816   1.423
30558W        W98888  40.035  27.594  10.919
30559W        W98889   3.910  29.092   4.820
30560W        W98890   3.258  10.365  10.452
30561W        W98891  28.183   9.224   3.209
30562W        W98892  23.070  21.537   2.810
30563W        W98893  16.625  29.001  12.557
30564W        W98894  37.934  33.074   1.225
30565W        W98895  40.038   7.293  14.860
30566W        W98896  11.209   2.386   0.749
30567W        W98897  30.564  40.492  14.001
30568W        W98898  36.958   8.728   2.189
30569W        W98899   5.387  28.619  12.055
30570W        W98900  43.912  16.739  13.453
30571W        W98901  14.168  29.012   3.168
30572W        W98902  36.046  22.094  13.329
30573W        W98903   0.293  23.734  11.868
30574W        W98904   2.868  21.089   1.916
30575W        W98905  26.477  20.089   0.353
30576W        W98906  38.382  11.802   0.835
30577W        W98907  10.225  17.298  14.472
30578W        W98908  24.127  28.484   4.164
30579W        W98909  32.529  33.395  10.946
30580W        W98910  31.475  26.132  13.336
30581W        W98911  27.018  14.710   0.386
30582W        W98912  32.009   0.357   4.220
30583W        W98913  11.687  29.166   2.303
30584W        W98914   2.339  28.069  11.018
30585W        W98915  26.993  36.427  13.306
30586W        W98916  44.455  18.263   0.844
30587W        W98917  41.519   7.239   2.832
30588W        W98918  20.224  28.098  14.382
30589W        W98919  38.470  40.334  14.924
30590W        W98920  14.227  43.401  11.121
30591W        W98921  26.482  41.327   1.415
30592W        W98922  27.142  11.857  14.878
30593W        W98923   1.970  29.062   3.816
30594W        W98924  12.635  23.712   1.297
30595W        W98925  19.133  28.989   1.909
30596W        W98926  22.594   6.688  14.291
30597W        W98927  29.987  14.230   1.430
30598W        W98928  33.587  13.191   4.279
30599W        W98929  20.163  38.883  10.556
30600W        W98930  37.856  44.309  11.880
30601W        W98931  29.069  29.980  12.972
30602W        W98932  41.860   9.669   0.813
30603W        W98933  18.587  10.363  14.347
30604W        W98934  43.865  43.389  14.304
30605W        W98935   2.357   5.423  10.976
30606W        W98936  25.153  25.687  12.486
30607W        W98937   0.427  11.762   2.805
30608W        W98938  28.555   9.716  10.478
30609W        W98939  39.861   3.254  11.600
30610W        W98940   4.838   5.403  12.025
30611W        W98941   1.824  31.483  12.577
30612W        W98942  15.727   1.355  13.379
30613W        W98943  13.826  39.066   1.238
30614W        W98944  29.463   6.873   2.756
30615W        W98945   1.839  37.907   4.816
30616W        W98946  21.619  12.231   3.386
30617W        W98947   0.353  20.093   0.885
30618W        W98948  15.235  38.035   3.364
30619W        W98949   6.428  15.661   1.880
30620W        W98950   6.716  35.547   0.267
30621W        W98951  13.821  10.788   0.751
30622W        W98952  35.894  36.415  12.482
30623W        W98953  10.267   1.260  11.867
30624W        W98954  23.614  16.110  13.520
30625W        W98955  25.594   4.698  12.943
30626W        W98956  38.854  23.598   1.345
30627W        W98957   1.394  36.355  13.345
30628W        W98958  38.325  23.216   4.796
30629W        W98959  10.371  19.079  12.576
30630W        W98960   5.264  11.844   4.237
30631W        W98961   9.737  20.674   2.662
30632W        W98962  24.529  34.036   2.415
30633W        W98963   0.768  43.489   3.319
30634W        W98964  10.851  14.812   2.819
30635W        W98965  22.582  41.386  13.393
30636W        W98966  18.766  10.185   9.926
30637W        W98967  34.382  10.277   3.824
30638W        W98968  14.212  16.272   4.177
30639W        W98969  40.536  42.833   0.468
30640W        W98970  39.512  33.122   1.279
30641W        W98971  30.436  18.085  12.018
30642W        W98972  13.628  28.574  13.467
30643W        W98973  28.070  10.173  11.436
30644W        W98974  31.127   7.403  11.447
30645W        W98975  44.915   5.257   0.406
30646W        W98976  17.104  10.294  13.486
30647W        W98977   6.200  25.042   4.339
30648W        W98978  35.463  19.110   4.264
30649W        W98979  10.158  17.592   1.427
30650W        W98980  40.837  20.060   0.821
30651W        W98981   3.728  40.014   1.389
30652W        W98982  16.574  27.507  11.582
30653W        W98983  18.559  43.399  13.921
30654W        W98984  20.112  40.006  13.333
30655W        W98985  14.273  28.620   1.441
30656W        W98986   0.791  35.431   2.365
30657W        W98987  24.200  16.621   9.980
30658W        W98988  36.917  42.497   4.819
30659W        W98989  21.683  23.500  13.484
30660W        W98990   6.185  17.762   1.306
30661W        W98991  35.936  18.622  11.920
30662W        W98992  25.643  11.749   5.650
30663W        W98993  44.381  24.123   5.140
30664W        W98994  33.032  16.787  13.030
30665W        W98995   5.822   7.273   3.291
30666W        W98996  44.764  29.149  14.807
30667W        W98997  12.788  15.095   3.163
30668W        W98998  38.474  14.136  14.391
30669W        W98999   9.333   3.898   1.717
30670W        W99000  23.126  37.352  10.933
30671W        W99001  21.177  35.071  14.855
30672W        W99002  15.755  31.118  14.760
30673W        W99003  30.504  22.699  10.132
30674W        W99004  28.949  15.245   0.933
30675W        W99005   0.955  14.808   3.812
30676W        W99006  21.033  43.473  14.407
30677W        W99007   9.280   0.888   0.923
30678W        W99008  41.406  12.764   2.728
30679W        W99009  15.578  41.432  11.123
30680W        W99010  36.032   5.831  12.573
30681W        W99011  15.171  29.920  11.915
30682W        W99012  13.202  17.673   4.685
30683W        W99013   7.884  14.147   4.135
30684W        W99014  38.385   5.213  12.036
30685W        W99015  23.555  27.688   3.358
30686W        W99016  18.604  12.133  13.984
30687W        W99017  40.876  28.476   3.727
30688W        W99018   1.863   7.892   0.353
30689W        W99019  40.022  33.515  12.409
30690W        W99020  17.147  10.143   3.156
30691W        W99021  31.935  15.800   0.342
30692W        W99022  30.589  21.032  14.820
30693W        W99023   2.740  18.259   4.640
30694W        W99024  19.153  41.535  10.519
30695W        W99025   8.888   4.310  10.895
30696W        W99026  41.531  38.917  10.555
30697W        W99027  44.999   1.866   2.798
30698W        W99028  13.237  22.529   3.341
30699W        W99029  32.531  35.986   1.766
30700W        W99030  40.367  37.964   1.850
30701W        W99031  30.510  10.813   1.882
30702W        W99032  36.356   5.824  14.993
30703W        W99033  42.869  16.186  10.986
30704W        W99034  29.583  42.442   2.221
30705W        W99035  23.644  25.483   0.829
30706W        W99036  11.818  17.592   1.694
30707W        W99037  34.426  36.046   0.840
30708W        W99038  27.103  37.383  13.916
30709W        W99039  20.125  18.162   0.751
30710W        W99040  30.538  15.592   3.795
30711W        W99041   0.841  24.004   0.261
30712W        W99042  31.558   5.774   0.867
30713W        W99043  39.497  25.508  10.540
30714W        W99044  24.089  15.823  14.402
30715W        W99045  39.430  44.805  14.895
30716W        W99046  29.142   7.770   4.122
30717W        W99047   4.871  25.015  14.396
30718W        W99048  18.264  14.701  12.040
30719W        W99049  11.190  17.619   4.625
30720W        W99050  19.047  34.425  14.930
30721W        W99051   4.793  24.692  14.501
30722W        W99052  29.580  40.332  10.904
30723W        W99053   2.759  26.055   0.324
30724W        W99054  35.597  40.387   4.302
30725W        W99055  22.009   1.291   1.769
30726W        W99056  19.539   6.850   2.878
30727W        W99057  33.529  41.903  14.444
30728W        W99058  16.253  15.262  13.493
30729W        W99059   1.873  39.048   2.356
30730W        W99060  24.538  13.326  11.894
30731W        W99061  28.582  38.953   1.907
30732W        W99062  31.430   0.387   0.933
30733W        W99063   1.897  43.446   0.857
30734W        W99064  33.603  34.103   0.933
30735W        W99065   0.880  19.232   1.885
30736W        W99066  32.479  23.020   2.753
30737W        W99067  21.573  12.178  13.803
30738W        W99068  29.450   7.686  11.988
30739W        W99069  26.162  25.964   1.852
30740W        W99070  38.406  20.600   0.841
30741W        W99071   6.907  39.555  14.346
30742W        W99072  26.075  39.337   0.309
30743W        W99073  10.771  23.504  11.041
30744W        W99074  11.653  44.935  14.969
30745W        W99075  37.906   5.249   3.772
30746W        W99076  19.636  34.371  12.409
30747W        W99077  40.343  20.092   2.781
30748W        W99078  31.552   4.410   3.331
30749W        W99079  37.403   2.392  12.993
30750W        W99080  20.558  36.028   0.818
30751W        W99081  24.984  35.461  10.894
30752W        W99082   3.441  12.832   4.331
30753W        W99083  31.044  17.230  10.140
30754W        W99084  22.683  26.137  13.521
30755W        W99085   4.718  27.661  10.158
30756W        W99086  31.516  20.751   5.212
30757W        W99087  34.902  38.847   3.265
30758W        W99088   4.738  17.227  13.534
30759W        W99089   9.812   8.362  14.956
30760W        W99090  14.692  21.122   4.137
30761W        W99091  14.336  40.023   4.290
30762W        W99092   3.763  36.990  13.806
30763W        W99093   1.822  22.687  11.494
30764W        W99094  39.495  36.071   2.792
30765W        W99095  22.111  42.451   4.237
30766W        W99096  31.457  44.450  14.419
30767W        W99097  11.803  44.472  13.494
30768W        W99098  44.403   6.334  13.856
30769W        W99099  23.645   9.302   4.828
30770W        W99100  12.136  37.978  11.535
30771W        W99101  21.077   3.290   4.650
30772W        W99102  41.492   4.280  13.963
30773W        W99103  24.983  13.828  14.917
30774W        W99104  18.075  31.569  12.431
30775W        W99105   9.661   4.882   2.725
30776W        W99106   3.882  39.343   1.285
30777W        W99107   9.275   3.424  11.984
30778W        W99108   8.166  37.868   3.848
30779W        W99109  21.676  34.505  13.830
30780W        W99110   4.910  38.399  12.064
30781W        W99111   6.242   9.874  13.495
30782W        W99112   1.376  16.703   3.228
30783W        W99113  22.671  32.409  14.911
30784W        W99114   6.363  15.704  11.574
30785W        W99115   1.332   2.258   4.230
30786W        W99116  13.639  34.054   1.275
30787W        W99117   9.252  41.358  14.320
30788W        W99118  43.808   5.739  11.538
30789W        W99119  14.590   9.678  13.432
30790W        W99120   3.788  32.139  11.037
30791W        W99121   4.411  20.643  11.466
30792W        W99122  11.656   0.255   1.895
30793W        W99123  16.578  17.098   0.858
30794W        W99124   3.400  25.679  12.909
30795W        W99125  33.936   0.786   0.929
30796W        W99126  41.921  12.839   1.721
30797W        W99127  11.347   7.193   1.368
30798W        W99128   3.901  32.423  13.932
30799W        W99129   4.219   9.773   2.406
30800W        W99130  40.873  36.920   4.125
30801W        W99131   6.753  19.214   3.195
30802W        W99132  35.947  19.744   5.143
30803W        W99133  29.943  25.984  13.036
30804W        W99134  43.840   1.932   0.772
30805W        W99135  36.015  17.237   0.273
30806W        W99136  22.019   4.826   4.337
30807W        W99137  22.584  25.491   3.262
30808W        W99138   1.243  30.490  14.922
30809W        W99139   4.445  21.177   2.671
30810W        W99140   8.898   0.351   1.892
30811W        W99141  36.368   2.398   2.688
30812W        W99142  33.082  15.204  13.323
30813W        W99143  18.259  31.570  14.324
30814W        W99144   0.958  27.535   2.900
30815W        W99145  29.627  10.790  12.516
30816W        W99146  21.522  13.315   1.746
30817W        W99147  26.110  31.603  11.388
30818W        W99148  37.048  24.525  12.833
30819W        W99149  10.150  25.072   4.132
30820W        W99150  23.215  23.207  14.791
30821W        W99151   9.687  29.031  10.951
30822W        W99152  39.023  34.551  13.427
30823W        W99153  34.504  27.450  12.968
30824W        W99154  16.740  18.258  13.006
30825W        W99155  28.025  27.653   2.675
30826W        W99156  38.025  29.606   3.797
30827W        W99157   1.930  26.195   4.333
30828W        W99158   9.846  26.521   1.313
30829W        W99159  28.172  44.461  10.998
30830W        W99160  32.938   2.287   3.847
30831W        W99161  33.935  43.377  13.471
30832W        W99162  29.075   2.237  13.510
30833W        W99163  37.952   9.252  13.542
30834W        W99164  39.385  23.502   2.328
30835W        W99165  19.269  38.413  11.421
30836W        W99166  13.336  20.527   3.375
30837W        W99167   9.869  12.122   1.392
30838W        W99168  26.467   4.868  14.448
30839W        W99169  40.324  35.916  11.536
30840W        W99170  34.503  20.755   3.338
30841W        W99171  29.125  33.023  11.073
30842W        W99172  29.154  30.035  10.459
30843W        W99173  31.512  14.597   0.476
30844W        W99174  18.131  34.885  14.871
30845W        W99175  26.605  19.193  10.978
30846W        W99176  11.827  36.515  12.940
30847W        W99177  13.728   6.401   4.832
30848W        W99178  23.179  15.724   1.287
30849W        W99179   5.778   2.455  14.313
30850W        W99180  11.856   1.807  11.004
30851W        W99181   4.279  15.228   0.331
30852W        W99182  28.668   9.333  11.982
30853W        W99183  19.671   9.242   4.123
30854W        W99184  31.984   1.367   2.898
30855W        W99185   2.726  14.108  13.539
30856W        W99186  28.534  37.053   2.663
30857W        W99187  40.980  30.590  12.876
30858W        W99188  14.213  30.647   3.781
30859W        W99189  22.140  32.973   3.319
30860W        W99190  14.124  22.689   4.686
30861W        W99191   3.311  42.325   4.258
30862W        W99192  12.256   1.469   2.230
30863W        W99193  15.603   7.405   2.239
30864W        W99194   0.912  44.930  14.387
30865W        W99195  37.854  41.004   1.282
30866W        W99196  18.262  19.550   1.931
30867W        W99197   8.284  24.590  14.354
30868W        W99198  20.603   8.373  11.121
30869W        W99199  23.735  14.595  11.922
30870W        W99200  22.636   4.379   2.692
30871W        W99201   1.756  20.248   0.802
30872W        W99202  23.585  24.703  10.958
30873W        W99203  38.491  43.828   4.789
30874W        W99204  16.293  10.821   4.834
30875W        W99205  13.703   9.874   2.285
30876W        W99206   6.789   2.266   2.373
30877W        W99207  22.732  39.933  12.352
30878W        W99208   9.755  38.825   4.296
30879W        W99209  29.629  42.786   1.280
30880W        W99210   2.961  14.150   3.335
30881W        W99211  37.397  28.524   0.432
30882W        W99212   9.868   4.883   1.925
30883W        W99213  15.632  38.538   1.710
30884W        W99214  41.004  17.192  13.538
30885W        W99215  26.556   1.849   4.659
30886W        W99216  13.798  38.396  12.069
30887W        W99217   4.364  21.659   4.609
30888W        W99218  29.438  28.633   4.791
30889W        W99219  38.463  40.986   3.784
30890W        W99220   9.266   8.749  12.515
30891W        W99221   5.396  27.639  13.311
30892W        W99222   4.330   2.957  11.393
30893W        W99223  26.036   5.889   2.318
30894W        W99224  43.844   2.955  11.872
30895W        W99225   6.190  14.673  11.073
30896W        W99226   0.769  38.941  12.858
30897W        W99227  14.672   3.746  13.418
30898W        W99228  29.951  20.274   4.671
30899W        W99229  23.644   8.195  10.632
30900W        W99230  29.069  20.210   1.787
30901W        W99231  18.229  32.409  14.471
30902W        W99232  36.352   2.375  13.811
30903W        W99233  34.896  26.111  14.903
30904W        W99234  39.992  19.745  11.052
30905W        W99235   9.658   3.843   3.675
30906W        W99236   4.262  30.452   4.341
30907W        W99237  19.277  29.574  10.050
30908W        W99238  14.693   4.893  14.889
30909W        W99239  24.180  29.996   3.669
30910W        W99240  19.237  35.858  11.539
30911W        W99241   4.788  44.992  12.040
30912W        W99242   9.330  24.023   1.303
30913W        W99243  16.114  37.478   1.896
30914W        W99244   8.174  30.554   0.856
30915W        W99245  34.431  34.591   3.840
30916W        W99246  30.645   7.362  11.442
30917W        W99247  22.624   3.841  14.412
30918W        W99248  12.804  14.821   4.770
30919W        W99249  37.454  42.779  10.107
30920W        W99250  24.220  23.583  12.944
30921W        W99251  22.607  18.701   5.753
30922W        W99252  36.488   3.770  12.948
30923W        W99253  14.810  19.656   0.414
30924W        W99254  22.130  34.010   0.366
30925W        W99255  43.875  33.547  14.429
30926W        W99256  34.913  18.553  11.935
30927W        W99257  30.142  16.303   4.240
30928W        W99258  42.012  24.540  11.899
30929W        W99259  14.178  37.025   3.164
30930W        W99260  12.712  10.655   4.609
30931W        W99261   1.293   8.690  14.882
30932W        W99262   8.272  13.128  12.476
30933W        W99263  13.842  41.486  13.954
30934W        W99264  30.064   9.773   3.164
30935W        W99265  31.511  41.470  10.548
30936W        W99266   9.384  14.324   3.655
30937W        W99267   5.780   4.733  14.926
30938W        W99268  15.225  15.096  11.034
30939W        W99269   2.471  43.315  13.472
30940W        W99270  20.195  32.405   3.349
30941W        W99271  22.100  35.886   2.267
30942W        W99272   9.314   2.295  12.577
30943W        W99273  20.271   9.339  11.968
30944W        W99274   9.321  11.189   3.813
30945W        W99275  23.531  12.751  14.818
30946W        W99276  16.625  15.221   4.714
30947W        W99277  33.418  23.995   1.777
30948W        W99278  13.610  32.483   4.253
30949W        W99279   9.716  12.673   4.164
30950W        W99280  16.637  38.947  11.926
30951W        W99281  14.659   9.741  14.790
30952W        W99282  20.630  26.097   1.390
30953W        W99283  24.492  37.030   0.890
30954W        W99284  43.019  15.712  11.994
30955W        W99285  25.549  10.269  14.986
30956W        W99286   0.393  15.092  13.931
30957W        W99287  11.742  32.121  11.924
30958W        W99288  32.077  27.574   0.963
30959W        W99289  35.564  44.324  13.502
30960W        W99290  18.664   1.823  11.905
30961W        W99291   3.449  40.382  10.471
30962W        W99292  26.105  13.175  14.468
30963W        W99293  31.612  38.367  14.873
30964W        W99294   0.902  12.216  14.823
30965W        W99295  16.261   7.385  13.928
30966W        W99296  20.165  37.956  14.365
30967W        W99297  11.666  42.355   1.367
30968W        W99298  12.799  25.077   1.861
30969W        W99299  26.123  20.123   3.700
30970W        W99300  19.750  34.113   3.797
30971W        W99301  32.496  31.946  12.073
30972W        W99302  44.454   7.374   4.759
30973W        W99303  29.624  32.454  12.028
30974W        W99304  24.588  33.499  13.039
30975W        W99305  13.334  21.022  13.532
30976W        W99306  11.705  33.028  14.445
30977W        W99307  20.549  15.277   1.926
30978W        W99308  31.928   2.798  12.370
30979W        W99309  24.120  22.618   3.691
30980W        W99310  30.511  40.856   3.661
30981W        W99311  18.268  38.435   3.831
30982W        W99312   0.762  32.017  14.759
30983W        W99313  39.994  31.961   3.268
30984W        W99314  33.620  44.413  11.972
30985W        W99315   2.264  21.056  12.939
30986W        W99316   6.887   6.685   3.346
30987W        W99317  19.737  34.918   4.811
30988W        W99318  10.749   1.282   3.164
30989W        W99319   9.860   8.232   0.810
30990W        W99320  16.302  37.544   3.866
30991W        W99321  35.549  36.547   4.278
30992W        W99322   7.760  34.094  13.393
30993W        W99323   3.237  21.736   4.306
30994W        W99324   3.379  15.171   1.877
30995W        W99325  12.358  34.998  13.928
30996W        W99326   9.245  21.657  10.919
30997W        W99327  33.107  39.469   4.145
30998W        W99328  40.801  20.604   2.297
30999W        W99329  38.873  31.912  14.768
31000W        W99330  39.484   4.379   2.370
31001W        W99331  35.544  16.622  12.387
31002W        W99332  41.426  27.943   0.400
31003W        W99333  20.535  31.969   3.231
31004W        W99334  34.878  42.822  12.552
31005W        W99335   0.289   8.311  11.900
31006W        W99336   3.797  34.429  12.342
31007W        W99337  34.468  14.271  12.895
31008W        W99338   9.189  36.023   9.995
31009W        W99339   5.361  43.867   4.774
31010W        W99340   2.399   1.882   5.240
31011W        W99341  34.549  42.381   2.799
31012W        W99342  32.991  28.570  12.055
31013W        W99343   7.215  18.243   2.188
31014W        W99344  34.499  41.786  12.976
31015W        W99345  26.628  18.065   1.933
31016W        W99346   0.463  34.062   0.854
31017W        W99347  44.902  15.306   1.280
31018W        W99348   9.158  18.635  12.403
31019W        W99349  16.171  34.991   4.787
31020W        W99350  20.738  29.922  11.102
31021W        W99351  29.525  42.345  14.831
31022W        W99352  19.233  10.179   2.872
31023W        W99353   9.815  37.903   0.263
31024W        W99354  32.587  37.889  14.904
31025W        W99355  39.823  29.482  13.377
31026W        W99356  13.629  13.778   0.940
31027W        W99357   2.226   0.342   4.282
31028W        W99358   7.795  18.253  12.060
31029W        W99359  26.616  14.291  13.812
31030W        W99360  22.035   0.330  12.854
31031W        W99361  30.013  15.328  11.524
31032W        W99362  40.918  39.418  12.921
31033W        W99363  14.668   0.487  14.831
31034W        W99364  25.601  42.004   1.791
31035W        W99365   1.867   1.842  14.394
31036W        W99366  32.936  30.907  12.559
31037W        W99367   5.826   7.790  12.887
31038W        W99368  23.025  38.509  11.375
31039W        W99369  13.766  27.503   0.327
31040W        W99370  30.493  31.446  13.814
31041W        W99371   3.400  20.618  10.921
31042W        W99372  11.796  13.325   4.293
31043W        W99373  14.827  40.797  13.970
31044W        W99374   4.736  16.148   4.667
31045W        W99375  43.383  18.162   0.346
31046W        W99376  22.030  14.659   4.815
31047W        W99377   8.217  35.596   0.475
31048W        W99378  38.364   1.478   2.784
31049W        W99379  43.340   9.650   4.601
31050W        W99380  13.329  12.347   3.311
31051W        W99381   8.732   4.728   0.471
31052W        W99382   3.217  34.976   4.133
31053W        W99383  28.599  15.750   4.748
31054W        W99384  21.670  42.431  10.969
31055W        W99385  42.846  23.129   4.773
31056W        W99386  38.424   1.747   3.364
31057W        W99387  35.932  20.635  13.057
31058W        W99388  43.858  41.387  11.121
31059W        W99389  22.588  27.183  12.065
31060W        W99390  38.894  39.363  11.380
31061W        W99391  38.547   1.441  13.040
31062W        W99392  35.579  34.083   2.664
31063W        W99393  15.674  30.616  12.066
31064W        W99394  31.478  39.481   4.769
31065W        W99395  39.405  38.919   4.661
31066W        W99396  32.546  31.906  11.577
31067W        W99397  26.030  33.098   1.785
31068W        W99398   8.896   6.900   2.880
31069W        W99399  27.039  44.854  14.406
31070W        W99400   9.851  34.894  13.526
31071W        W99401  26.650  43.871  12.521
31072W        W99402  24.085  21.154   9.975
31073W        W99403  29.966  19.185   3.680
31074W        W99404  23.097  19.069   1.438
31075W        W99405   9.368  19.249  12.518
31076W        W99406   9.153  33.955   0.898
31077W        W99407  44.399  10.192  10.889
31078W        W99408  26.599  21.539   0.258
31079W        W99409  10.792  39.935   2.723
31080W        W99410   1.369   9.700  10.576
31081W        W99411  16.083   6.922   1.446
31082W        W99412  14.244  16.567  14.315
31083W        W99413  29.036   0.333   4.751
31084W        W99414  39.949  23.184  12.959
31085W        W99415  22.541  18.157  12.064
31086W        W99416  42.864  34.075   3.706
31087W        W99417   7.721  18.745  14.492
31088W        W99418  36.505  13.175   3.343
31089W        W99419  25.047   2.748   0.397
31090W        W99420   3.334   5.880  13.820
31091W        W99421  16.102  24.091   1.708
31092W        W99422   3.796  41.960   1.704
31093W        W99423  11.777   3.256  10.454
31094W        W99424  23.530  40.953  14.470
31095W        W99425   2.858  34.607   4.832
31096W        W99426  25.578  18.716   0.766
31097W        W99427   3.321   4.910  11.595
31098W        W99428   1.773  25.211   2.819
31099W        W99429  41.791  14.192  12.840
31100W        W99430  17.115  43.333  12.427
31101W        W99431  10.349  40.825  10.911
31102W        W99432  21.159  42.817  11.047
31103W        W99433   5.880  29.112  12.931
31104W        W99434  36.408  30.133  14.478
31105W        W99435   7.747  21.239  12.947
31106W        W99436  20.582  10.682  13.528
31107W        W99437  40.368  18.232   0.340
31108W        W99438  13.601  43.432  13.537
31109W        W99439  17.765  37.005  14.403
31110W        W99440  38.540  31.496   2.194
31111W        W99441   6.886  35.956   3.683
31112W        W99442  12.805  36.547   3.716
31113W        W99443  36.551  27.112  11.375
31114W        W99444   9.679  41.814   4.611
31115W        W99445  30.969   1.889  11.552
31116W        W99446  10.166   7.734  14.859
31117W        W99447  16.294  38.385  12.561
31118W        W99448  41.964   6.918   4.223
31119W        W99449   5.283  18.758  11.006
31120W        W99450  25.587   5.737   0.906
31121W        W99451  25.107  11.823  10.032
31122W        W99452  27.073  40.371  10.605
31123W        W99453  37.013   0.855  13.450
31124W        W99454  44.329  22.249  13.313
31125W        W99455  36.995  18.292  11.868
31126W        W99456   7.249  25.025  11.586
31127W        W99457  18.156  10.710   0.956
31128W        W99458  19.117  42.865   0.927
31129W        W99459   9.174  24.042   2.372
31130W        W99460  40.050  44.861   1.287
31131W        W99461   0.490  39.856  10.485
31132W        W99462  26.698  21.081  14.370
31133W        W99463  26.660  27.086  10.407
31134W        W99464  30.478   7.720   4.194
31135W        W99465  23.990  12.672  14.026
31136W        W99466  36.992  41.041   2.870
31137W        W99467  24.582  16.677   1.290
31138W        W99468   2.330  42.391   2.859
31139W        W99469   5.752   5.707  13.908
31140W        W99470   4.909  43.308  10.415
31141W        W99471  18.764  22.030  14.798
31142W        W99472  36.042   5.761   0.880
31143W        W99473   2.338  10.751  11.105
31144W        W99474  32.006   2.776   3.246
31145W        W99475  30.052  12.284   2.704
31146W        W99476  15.631  22.687   2.727
31147W        W99477   4.701   8.820   2.667
31148W        W99478   3.292  39.984  12.000
31149W        W99479  16.747  24.082   0.846
31150W        W99480   1.244  12.253  12.964
31151W        W99481  24.564   2.934   2.295
31152W        W99482  40.962  42.031  13.542
31153W        W99483  34.863  23.086   0.878
31154W        W99484   3.411  25.052  13.053
31155W        W99485  33.384  14.777  14.876
31156W        W99486   1.392   2.914  13.429
31157W        W99487  23.990  12.677  10.123
31158W        W99488  29.000  34.561   1.278
31159W        W99489   8.861  33.511  10.406
31160W        W99490  27.659  30.632   0.456
31161W        W99491  26.510   4.248  13.832
31162W        W99492   2.899  43.808   0.470
31163W        W99493  19.608  17.100  13.958
31164W        W99494  32.542  12.339   4.746
31165W        W99495  25.197   3.901   1.799
31166W        W99496   5.389  41.529   4.635
31167W        W99497   9.177  26.484   1.440
31168W        W99498   8.764  39.023   1.213
31169W        W99499  30.585  14.686  13.908
31170W        W99500  39.399  36.405  10.961
31171W        W99501   4.756  15.588  11.509
31172W        W99502   4.827  24.712  13.348
31173W        W99503  42.456  14.133  14.391
31174W        W99504   9.270  22.584   1.834
31175W        W99505  12.245  10.350  12.424
31176W        W99506  41.488  27.618  11.590
31177W        W99507  28.073  31.970   0.354
31178W        W99508  24.198  26.088   1.238
31179W        W99509  10.337  13.679   3.633
31180W        W99510  10.348   1.745  14.029
31181W        W99511  15.733  39.823   9.939
31182W        W99512  31.461  26.553   1.733
31183W        W99513   9.331  40.904  14.814
31184W        W99514  19.047  24.052  12.578
31185W        W99515  10.851  42.002   3.211
31186W        W99516  32.404  38.053  12.418
31187W        W99517   2.749  37.465   1.430
31188W        W99518  25.653  23.499   0.302
31189W        W99519  32.900  22.609  13.362
31190W        W99520  30.042   0.357  11.471
31191W        W99521  36.025   4.249  12.974
31192W        W99522  25.075   3.318   1.829
31193W        W99523   7.890  37.899  13.393
31194W        W99524  12.230  26.010   2.360
31195W        W99525  10.198  27.571   0.436
31196W        W99526  34.563  21.117  11.528
31197W        W99527   7.373  39.389   0.392
31198W        W99528   4.883   5.695  12.050
31199W        W99529  23.019  30.932  10.532
31200W        W99530  30.590  36.959  13.465
31201W        W99531  26.982  22.643  10.918
31202W        W99532  14.678  36.450   2.797
31203W        W99533   0.768   2.243  12.957
31204W        W99534  15.794   4.844   2.742
31205W        W99535  41.928  12.770  12.405
31206W        W99536  12.144   9.380   0.444
31207W        W99537   4.773  29.602  11.478
31208W        W99538  28.034  33.559   5.186
31209W        W99539  35.553  16.308   1.343
31210W        W99540  24.123  16.250   2.881
31211W        W99541  42.283   8.797  10.986
31212W        W99542   2.812  35.361   0.802
31213W        W99543  40.451  37.023   4.232
31214W        W99544  10.676   9.670   0.336
31215W        W99545  20.699  28.071   1.703
31216W        W99546  35.094  15.161  13.395
31217W        W99547  39.436  18.082  14.353
31218W        W99548  18.190  36.488   4.673
31219W        W99549  17.071  40.354   5.238
31220W        W99550  37.544   2.275  11.611
31221W        W99551  20.044   0.366  14.782
31222W        W99552   4.762  39.552   2.310
31223W        W99553  38.993  35.400   0.954
31224W        W99554   5.762  26.584   0.745
31225W        W99555  30.949   7.666   0.463
31226W        W99556  33.494  35.513  10.547
31227W        W99557   1.379  39.348   1.304
31228W        W99558  39.462  21.212  12.386
31229W        W99559  41.378  33.496  13.827
31230W        W99560  25.488  37.012  12.379
31231W        W99561  14.723  10.831  14.971
31232W        W99562   7.790  15.171  13.952
31233W        W99563  13.344   5.201   2.278
31234W        W99564  36.847   5.247   3.803
31235W        W99565   5.907  34.582   2.321
31236W        W99566  14.177  15.298  10.988
31237W        W99567  17.612   7.726  14.468
31238W        W99568  41.326  18.262  13.547
31239W        W99569  13.166  14.186  11.884
31240W        W99570  27.542  16.615  13.407
31241W        W99571   8.320  42.896  11.498
31242W        W99572  27.546  13.628  14.333
31243W        W99573  34.467   5.777  14.503
31244W        W99574  16.138  12.248   1.405
31245W        W99575  30.498  20.266  13.386
31246W        W99576  18.776  32.447  11.405
31247W        W99577  44.905  21.019   0.812
31248W        W99578  12.282   5.688  12.978
31249W        W99579  32.521  17.292   0.401
31250W        W99580  27.960  28.651  12.489
31251W        W99581   1.278  18.098  12.875
31252W        W99582  21.723  16.760   2.708
31253W        W99583  32.403  44.789  14.816
31254W        W99584  34.013  33.521   4.235
31255W        W99585  27.050  27.630   0.822
31256W        W99586  31.967  19.258   9.445
31257W        W99587  27.187  42.831   4.618
31258W        W99588  36.903  11.160  12.387
31259W        W99589   8.665  27.484   1.431
31260W        W99590   9.719  27.965  10.923
31261W        W99591  17.678   2.440   3.292
31262W        W99592  37.499  24.153  12.571
31263W        W99593  42.798  43.868   4.294
31264W        W99594   2.429  19.259   2.814
31265W        W99595  30.946  23.497  13.340
31266W        W99596  15.204   3.430  14.406
31267W        W99597  16.218  31.637  14.897
31268W        W99598  22.673   4.767   4.732
31269W        W99599  14.628  10.317  13.897
31270W        W99600  20.123   9.263  12.424
31271W        W99601   6.705  11.864   1.797
31272W        W99602  33.445  17.698   1.871
31273W        W99603   4.321  43.430   3.830
31274W        W99604  38.341   8.163   0.931
31275W        W99605  40.395  44.002  12.414
31276W        W99606   7.912  25.167   2.756
31277W        W99607  38.435  15.691   2.845
31278W        W99608  27.535   2.780   0.389
31279W        W99609  16.649  24.669   4.303
31280W        W99610  41.475  34.078  12.956
31281W        W99611   1.336  26.565   9.981
31282W        W99612  23.573  21.620   3.701
31283W        W99613  20.529  33.553  13.522
31284W        W99614  11.254  30.161   4.119
31285W        W99615  22.050   6.405  14.000
31286W        W99616   3.833  26.978  12.902
31287W        W99617  36.360  13.261  11.939
31288W        W99618  31.087  18.629   1.242
31289W        W99619  13.673  12.121   3.308
31290W        W99620  36.579   5.267  11.029
31291W        W99621  12.668  41.935  11.445
31292W        W99622  35.042  19.086  14.012
31293W        W99623   0.853  29.171   0.927
31294W        W99624   9.246  17.264  12.010
31295W        W99625  17.701   1.881  14.781
31296W        W99626  16.785  36.571  12.372
31297W        W99627  13.707   8.361  12.070
31298W        W99628  27.459  40.444  12.043
31299W        W99629  36.857  11.699  13.315
31300W        W99630  17.303  29.166   1.734
31301W        W99631   7.229  41.458  12.008
31302W        W99632   2.829  17.234   2.872
31303W        W99633   9.770  11.859  10.966
31304W        W99634  11.245  35.584   3.671
31305W        W99635   3.852  29.035  12.883
31306W        W99636  19.075  40.847  13.478
31307W        W99637  16.694   5.377  12.502
31308W        W99638  14.253  38.436  12.028
31309W        W99639   6.771  16.650   1.436
31310W        W99640  43.989  29.643  13.972
31311W        W99641  21.061   8.393   1.760
31312W        W99642  19.118  13.793   0.861
31313W        W99643  15.095  10.234   4.204
31314W        W99644   2.859  17.755   1.874
31315W        W99645  11.228   6.397   0.727
31316W        W99646  23.731  24.110   4.340
31317W        W99647  18.777   3.320  14.504
31318W        W99648   8.715   5.916   3.225
31319W        W99649  15.791   5.438  11.919
31320W        W99650   1.380  10.138  14.282
31321W        W99651  22.133   3.283  14.790
31322W        W99652  26.569   5.313   3.251
31323W        W99653  16.114  33.448   1.754
31324W        W99654  39.059  34.922  11.013
31325W        W99655  16.187   4.935  11.055
31326W        W99656  24.660  38.519  12.925
31327W        W99657  11.826   2.831   4.347
31328W        W99658  19.039  37.851  13.446
31329W        W99659  20.119  14.769  13.504
31330W        W99660  19.141   6.367   2.692
31331W        W99661   4.224  27.942  10.944
31332W        W99662   3.238   7.800  11.502
31333W        W99663   7.283  30.428  11.974
31334W        W99664  39.867   9.644   0.833
31335W        W99665  27.968  19.086  12.934
31336W        W99666   5.709  39.329   0.344
31337W        W99667  11.148   6.425  14.359
31338W        W99668   3.280  30.457  11.573
31339W        W99669  12.163   7.715  10.507
31340W        W99670  13.842  44.493  14.912
31341W        W99671  41.954  35.420   0.474
31342W        W99672  44.994   4.206  13.013
31343W        W99673  32.408  30.575  10.411
31344W        W99674  21.519  14.809   2.377
31345W        W99675  19.136  39.950   3.684
31346W        W99676  35.086  33.952   2.288
31347W        W99677  39.022  24.150  11.928
31348W        W99678  43.006  43.901  13.815
31349W        W99679  38.070  32.981  13.826
31350W        W99680  32.133  20.198  11.518
31351W        W99681  22.633  39.948   3.340
31352W        W99682  33.516  44.446   1.813
31353W        W99683  29.149   9.322  13.468
31354W        W99684  41.018  24.511   2.816
31355W        W99685  19.236  15.194   4.125
31356W        W99686  38.423  26.998  12.475
31357W        W99687  28.052  13.628  12.471
31358W        W99688  37.420  25.016  14.326
31359W        W99689  44.825  36.591   1.451
31360W        W99690   5.194  26.518   0.461
31361W        W99691  13.787  34.558   4.819
31362W        W99692  16.157   6.425   2.191
31363W        W99693  14.721  23.084  12.517
31364W        W99694   5.414  18.203  12.487
31365W        W99695   0.494  24.488  11.958
31366W        W99696   1.483  11.132   1.432
31367W        W99697   3.229   1.733  10.535
31368W        W99698  23.586   3.763  12.077
31369W        W99699  31.034  13.242   3.374
31370W        W99700  42.486  43.391  12.575
31371W        W99701  16.793  42.367  13.940
31372W        W99702  31.125  31.929  11.395
31373W        W99703   7.817   4.716  14.962
31374W        W99704  26.470  12.746  14.293
31375W        W99705  24.667  42.366   1.739
31376W        W99706  13.175  22.567   0.310
31377W        W99707  27.162  23.631   0.804
31378W        W99708  16.087  29.468   1.858
31379W        W99709   3.370   5.757   3.718
31380W        W99710  36.389  32.892  11.910
31381W        W99711  18.682   4.811   4.784
31382W        W99712  24.042   8.760   1.715
31383W        W99713  32.974   1.964  14.304
31384W        W99714  32.555  40.497   2.869
31385W        W99715  23.234  33.459  12.023
31386W        W99716  22.155   3.227   4.262
31387W        W99717  43.376  43.351  10.475
31388W        W99718  28.627   6.904   4.705
31389W        W99719  42.926  39.503   3.686
31390W        W99720  25.500  12.675  11.536
31391W        W99721  38.038  37.470   1.355
31392W        W99722   9.665  21.144  14.908
31393W        W99723  22.175  12.840   0.921
31394W        W99724  37.477  44.478   0.317
31395W        W99725   3.439  16.627   3.368
31396W        W99726  41.428  33.458   2.681
31397W        W99727  33.029  37.462   4.147
31398W        W99728  14.596  31.560  13.495
31399W        W99729  18.738   5.927   1.229
31400W        W99730  17.601  42.394  13.804
31401W        W99731  26.152   0.389  11.488
31402W        W99732  33.044  36.056  11.040
31403W        W99733   1.782  14.603  11.397
31404W        W99734  32.453  14.808   0.861
31405W        W99735  19.148  24.700   9.973
31406W        W99736  41.813  31.412  14.318
31407W        W99737  31.920   3.270  14.503
31408W        W99738  23.136  14.149  13.947
31409W        W99739  21.217  32.030  10.514
31410W        W99740  44.455   5.841  13.479
31411W        W99741  13.702   6.321  12.372
31412W        W99742  31.985   0.433  10.986
31413W        W99743   9.160  10.704   0.297
31414W        W99744  20.098  39.506   4.240
31415W        W99745  38.894   5.760  14.027
31416W        W99746  29.550  19.690  13.473
31417W        W99747  36.932  41.465   2.341
31418W        W99748   2.785  30.516  14.444
31419W        W99749  34.994  41.393  14.959
31420W        W99750  29.948  20.534   1.401
31421W        W99751  40.017  42.450   1.324
31422W        W99752   8.698  40.948  14.852
31423W        W99753  39.506  15.264  14.354
31424W        W99754  25.608  27.061   4.286
31425W        W99755  14.236  38.471   3.283
31426W        W99756  28.512  43.279   1.352
31427W        W99757  10.791  10.755  12.495
31428W        W99758  39.997  12.752  13.388
31429W        W99759   9.757  26.523   2.813
31430W        W99760  32.449  20.266   3.176
31431W        W99761  21.091  20.568  10.547
31432W        W99762  17.260  27.155  14.289
31433W        W99763  20.554  30.127   3.677
31434W        W99764  10.258   7.683   0.903
31435W        W99765  28.569  29.486  14.346
31436W        W99766  19.702  21.207  11.387
31437W        W99767  28.955  29.983  12.504
31438W        W99768  10.207  37.918  14.900
31439W        W99769  23.014  33.036  13.064
31440W        W99770  17.768  30.929   4.631
31441W        W99771  32.576   4.708  13.869
31442W        W99772  36.529  20.152   1.378
31443W        W99773  22.139  11.220   0.360
31444W        W99774  24.713  13.727   2.730
31445W        W99775   5.774   9.285  11.962
31446W        W99776  12.271   5.363   4.685
31447W        W99777  38.437  32.468   4.625
31448W        W99778   2.401  25.070   5.267
31449W        W99779  11.265  37.087   4.662
31450W        W99780  43.964   8.739   3.691
31451W        W99781  32.445  39.373  13.011
31452W        W99782  14.153   0.264   2.331
31453W        W99783   4.792   3.752   1.291
31454W        W99784  29.511  36.455  11.981
31455W        W99785  32.596  18.180  14.444
31456W        W99786  28.954  39.487  14.789
31457W        W99787  43.401  44.986   2.799
31458W        W99788  40.866  36.885   0.272
31459W        W99789   1.774  36.369   1.339
31460W        W99790  15.090  31.611   3.782
31461W        W99791   5.261  19.534  13.406
31462W        W99792  14.151   4.429   4.352
31463W        W99793  14.123  19.612  14.373
31464W        W99794   8.761  26.156  12.867
31465W        W99795  35.954  21.174  13.909
31466W        W99796   9.252  41.316  11.498
31467W        W99797  37.389  25.492  12.892
31468W        W99798  12.159  29.962   1.853
31469W        W99799  19.662  27.162   5.150
31470W        W99800  43.436  41.491   2.203
31471W        W99801  38.334  31.954  12.393
31472W        W99802  17.077  10.233   0.792
31473W        W99803  37.470  32.490  12.538
31474W        W99804   8.834  38.902  11.380
31475W        W99805  10.210  24.179  14.892
31476W        W99806  40.838  31.128  10.528
31477W        W99807   4.266   8.675   5.283
31478W        W99808  40.511   4.413  11.079
31479W        W99809  13.800  33.498  14.400
31480W        W99810  12.688  21.608   1.261
31481W        W99811  34.520  28.583  14.935
31482W        W99812  32.544  20.077   4.248
31483W        W99813  10.635  27.161   4.685
31484W        W99814  43.402  25.650   4.206
31485W        W99815  17.279  44.270  12.386
31486W        W99816  15.280  28.061   0.274
31487W        W99817   9.887  23.094  10.934
31488W        W99818   1.427  16.157   2.226
31489W        W99819  20.688  31.973  12.033
31490W        W99820  43.887  40.854  10.645
31491W        W99821   0.286   6.408   3.323
31492W        W99822  11.769  14.667  10.503
31493W        W99823  42.961  11.134   9.952
31494W        W99824  17.784  38.059   1.701
31495W        W99825  30.655  30.459  14.475
31496W        W99826   8.883  26.620   5.147
31497W        W99827  44.395  36.942   2.790
31498W        W99828   2.740  30.131   2.852
31499W        W99829  42.821  25.504   0.378
31500W        W99830  17.111   6.876  14.469
31501W        W99831  29.615  42.385  12.981
31502W        W99832  22.035  44.498   1.450
31503W        W99833  25.586   0.798  14.781
31504W        W99834  39.492  41.504  13.454
31505W        W99835  24.067  42.960   0.872
31506W        W99836   4.277  39.349   3.655
31507W        W99837  13.183  14.193  14.494
31508W        W99838  27.093  17.667   4.262
31509W        W99839  14.263   6.421  13.016
31510W        W99840  35.097  10.171   1.423
31511W        W99841   0.955  14.694   4.241
31512W        W99842  40.507  39.979  10.479
31513W        W99843   0.853   8.674   4.678
31514W        W99844  42.319  25.592   4.614
31515W        W99845   5.391  35.366   1.929
31516W        W99846  36.508  36.483   1.901
31517W        W99847  12.237   2.922  14.018
31518W        W99848  26.627  38.953  13.455
31519W        W99849  29.171  15.126   4.614
31520W        W99850  10.657  10.184   4.259
31521W        W99851  30.582  43.942  11.932
31522W        W99852   5.295  38.478   0.389
31523W        W99853  11.791  27.664  12.463
31524W        W99854  43.813  33.004   2.197
31525W        W99855  24.480  26.565   0.799
31526W        W99856  24.704  33.388   0.926
31527W        W99857  34.570  39.417   1.883
31528W        W99858  13.670  17.137  12.994
31529W        W99859   1.454   3.765   2.201
31530W        W99860  35.953   9.222   1.357
31531W        W99861  44.317  10.383  13.487
31532W        W99862  26.089  43.311   2.747
31533W        W99863   9.666  14.660   3.678
31534W        W99864  38.973  18.126   4.318
31535W        W99865  32.104  41.818   4.318
31536W        W99866  44.930  25.539  12.900
31537W        W99867  42.499  38.923  12.393
31538W        W99868   3.356  37.942   3.359
31539W        W99869   3.930   3.925   2.243
31540W        W99870   1.937  36.081  10.492
31541W        W99871   6.423  20.166   3.275
31542W        W99872  34.583  28.092  12.565
31543W        W99873  11.187  26.574  14.858
31544W        W99874  28.595   9.693  11.549
31545W        W99875  18.685  29.542   1.264
31546W        W99876  37.034  44.889  11.929
31547W        W99877  27.446   8.760  11.449
31548W        W99878  27.966  23.512   0.289
31549W        W99879  34.536  28.142   0.302
31550W        W99880  40.408  30.977  10.456
31551W        W99881   5.821  19.203  12.844
31552W        W99882   7.358  13.251   4.706
31553W        W99883  37.568  37.487  13.806
31554W        W99884  10.192  36.033  13.361
31555W        W99885  23.721  26.686   1.252
31556W        W99886  13.319   7.828   0.936
31557W        W99887  36.557  30.556  14.798
31558W        W99888  35.365   2.795   1.702
31559W        W99889   6.334   9.679  13.002
31560W        W99890   8.357  18.254  13.007
31561W        W99891  12.317  13.731  11.955
31562W        W99892  26.664  41.006   2.742
31563W        W99893  22.644   7.759   4.815
31564W        W99894  11.175   9.668   1.706
31565W        W99895  31.973   0.370   3.179
31566W        W99896  40.517  40.902   4.122
31567W        W99897  26.184  22.123  11.504
31568W        W99898  39.982  23.064  14.795
31569W        W99899   0.305  22.107  14.766
31570W        W99900  16.132  27.045  14.332
31571W        W99901  13.736   7.175  10.514
31572W        W99902   3.297  24.642   3.249
31573W        W99903  43.502   1.948   0.883
31574W        W99904  40.313   8.281   4.282
31575W        W99905  16.282   7.688  11.480
31576W        W99906  27.477   0.417  14.317
31577W        W99907   6.861   3.407  11.017
31578W        W99908   1.966   4.859   4.209
31579W        W99909  44.414  17.614   2.892
31580W        W99910  23.225   0.284  14.960
31581W        W99911   7.394  13.670   0.836
31582W        W99912   6.198  34.022   1.342
31583W        W99913  31.982  21.099   2.867
31584W        W99914   1.790  23.568  14.761
31585W        W99915  42.944  35.900   2.699
31586W        W99916  26.698  22.074   4.206
31587W        W99917   3.779   5.726  11.939
31588W        W99918   8.372  14.217   2.253
31589W        W99919  26.478  27.514  13.874
31590W        W99920  23.224  44.784   4.817
31591W        W99921  24.628  37.581   4.748
31592W        W99922  14.301   7.372   4.678
31593W        W99923  30.611   4.789   0.765
31594W        W99924  11.792  29.084   0.380
31595W        W99925  16.702  28.056  14.976
31596W        W99926  16.225  13.248   3.267
31597W        W99927  40.807   2.929   3.846
31598W        W99928   6.328   3.844  12.541
31599W        W99929  33.902   5.747  12.877
31600W        W99930  44.336  31.523  10.034
31601W        W99931   4.227  20.139   3.385
31602W        W99932  41.002  39.437  11.575
31603W        W99933  14.284   9.333   0.752
31604W        W99934   1.307  11.279   1.857
31605W        W99935  39.548  33.539   2.280
31606W        W99936   6.866   1.885  11.987
31607W        W99937  42.500  43.898  11.601
31608W        W99938  24.577   3.310  14.377
31609W        W99939  13.803  34.058   2.394
31610W        W99940  43.399   4.867   4.124
31611W        W99941   5.763  29.953   3.784
31612W        W99942  28.544  41.882  12.981
31613W        W99943  26.597  40.031   1.225
31614W        W99944  16.708  13.688   3.344
31615W        W99945   3.269  11.681  12.560
31616W        W99946  28.536  24.615  11.075
31617W        W99947  38.440   8.786   0.785
31618W        W99948   0.301  42.984   5.088
31619W        W99949  14.147  19.669   5.238
31620W        W99950   6.751   3.431   2.784
31621W        W99951  10.381   2.926  13.336
31622W        W99952  43.506   7.743   3.750
31623W        W99953   0.773  44.780  12.950
31624W        W99954  36.372   8.290   3.163
31625W        W99955  14.594  28.559  14.029
31626W        W99956   9.823  26.017  10.585
31627W        W99957  44.765  26.665   2.392
31628W        W99958  16.735   3.303   4.776
31629W        W99959  28.983  40.040   3.777
31630W        W99960  27.141  16.173   2.850
31631W        W99961  19.747  15.256  14.406
31632W        W99962  26.513   7.881   0.805
31633W        W99963   4.359  44.861  13.865
31634W        W99964   4.870  32.057   4.724
31635W        W99965  28.596  22.240   1.268
31636W        W99966  12.179  28.049  10.915
31637W        W99967  37.042  25.612  12.439
31638W        W99968  28.464  26.632   2.730
31639W        W99969  15.085  28.624   2.837
31640W        W99970  15.781  34.869  13.033
31641W        W99971  14.592  43.488   0.920
31642W        W99972  14.687  38.906  11.023
31643W        W99973  10.701  29.574  14.298
31644W        W99974   3.845  21.032  12.846
31645W        W99975   9.270  27.188   2.404
31646W        W99976  42.319   2.254   2.307
31647W        W99977  16.717  16.680   2.325
31648W        W99978  36.528  12.177  13.453
31649W        W99979  33.107  24.165   0.428
31650W        W99980  41.949   6.210  14.352
31651W        W99981   5.238  33.415  14.952
31652W        W99982  41.902   0.905   1.310
31653W        W99983  28.172  33.486  12.010
31654W        W99984  31.145  41.411  12.000
31655W        W99985  23.077  43.986  14.855
31656W        W99986  11.726  25.095   0.960
31657W        W99987  19.634  15.092   1.416
31658W        W99988  38.537  37.517   4.730
31659W        W99989   4.214  37.971   1.246
31660W        W99990  27.501   8.208   0.749
31661W        W99991  27.674  33.386  14.901
31662W        W99992  15.738   7.795  13.426
31663W        W99993  14.789   6.897   4.655
31664W        W99994  24.588  34.988   4.323
31665W        W99995  27.567  15.184   2.718
31666W        W99996   0.835  36.440   2.819
31667W        W99997  18.178   0.827  14.938
31668W        W99998  28.508  12.165  12.925
31669W        W99999  17.620   9.710   0.728
31670W        W    0  12.203  12.722   4.599
31671W        W    1  21.673  37.445  10.456
31672W        W    2  14.738  25.164  13.442
31673W        W    3  29.576  34.529  14.885
31674W        W    4  17.574  13.729   2.748
31675W        W    5   9.203   5.402   0.334
31676W        W    6  44.970   2.758   1.713
31677W        W    7  20.544  38.014   3.161
31678W        W    8   7.286  29.015  13.482
31679W        W    9  26.045  44.477   3.846
31680W        W   10   4.332  19.045  10.582
31681W        W   11  43.824  17.303  12.529
31682W        W   12  40.464  33.032  12.879
31683W        W   13  31.016   1.428   2.710
31684W        W   14  21.621  40.375  12.462
31685W        W   15  28.963  19.160  11.941
31686W        W   16  28.095  39.314  12.525
31687W        W   17  15.729  25.199   4.339
31688W        W   18  26.661  22.076   0.376
31689W        W   19  13.284  40.914  13.986
31690W        W   20  38.882  14.208   2.263
31691W        W   21  11.202  43.474   1.251
31692W        W   22  12.180  18.197   0.888
31693W        W   23  11.632  37.962  14.511
31694W        W   24  26.536  19.261  13.829
31695W        W   25   6.311  20.574  12.094
31696W        W   26  34.110  29.536   0.463
31697W        W   27  37.062  15.326   2.843
31698W        W   28  19.267  28.524   2.387
31699W        W   29  29.644  38.891  12.446
31700W        W   30  33.020   3.737  12.935
31701W        W   31  40.883  24.487  14.976
31702W        W   32  14.222  11.830   2.251
31703W        W   33  21.145  36.585   2.768
31704W        W   34  34.992   4.703  10.631
31705W        W   35  14.656  27.512  11.561
31706W        W   36  27.128   9.336   4.795
31707W        W   37  25.217  22.516   1.291
31708W        W   38   4.234   4.352  11.900
31709W        W   39  30.927  31.540  13.863
31710W        W   40   4.890  13.777  11.595
31711W        W   41  24.604  18.692   1.756
31712W        W   42  16.089   6.694   0.258
31713W        W   43  34.573  27.591   1.894
31714W        W   44   5.688   8.250  14.415
31715W        W   45   4.219  17.256   1.785
31716W        W   46  10.241  31.533  10.422
31717W        W   47  14.829   9.648   1.935
31718W        W   48   8.402   4.317  13.799
31719W        W   49  42.440  23.651   2.380
31720W        W   50   5.235  29.591   0.868
31721W        W   51  20.692   1.352   0.836
31722W        W   52  18.187  31.645   2.756
31723W        W   53  26.637  30.514   9.993
31724W        W   54  28.016  36.967   4.205
31725W        W   55  33.390  11.837  11.453
31726W        W   56  33.887  36.387   0.829
31727W        W   57  15.140  19.130  10.974
31728W        W   58  32.946  11.266   3.310
31729W        W   59  22.741  10.874  10.475
31730W        W   60  37.537   6.427   5.279
31731W        W   61  27.049   7.732   3.276
31732W        W   62  22.708  13.313  14.884
31733W        W   63  33.046  38.428  12.363
31734W        W   64  28.116  25.556  11.948
31735W        W   65   3.930  37.390  11.554
31736W        W   66  31.102  12.790  11.879
31737W        W   67  41.958   3.924   3.688
31738W        W   68   1.411  32.141  10.631
31739W        W   69  31.423  25.203   3.767
31740W        W   70  10.748  26.561  10.083
31741W        W   71  42.381   6.397   3.179
31742W        W   72  16.267   2.945  12.428
31743W        W   73  14.709  24.662  10.565
31744W        W   74   5.828  21.619   0.422
31745W        W   75  19.570  12.841   1.801
31746W        W   76   8.207   0.803   2.802
31747W        W   77  34.912  36.062  14.314
31748W        W   78  23.497  33.948  14.965
31749W        W   79  40.948  13.194  13.483
31750W        W   80  15.271  43.314   3.644
31751W        W   81   7.774   2.389  11.553
31752W        W   82  29.984  21.660  13.372
31753W        W   83   0.399  19.618  10.412
31754W        W   84  38.483   7.892   1.933
31755W        W   85  40.451  30.119   0.764
31756W        W   86  13.284  13.762  11.464
31757W        W   87  43.939  24.099  11.397
31758W        W   88  20.563  43.835  14.481
31759W        W   89  21.547  19.099   4.680
31760W        W   90  32.540  28.141   2.197
31761W        W   91  23.574  28.952   4.240
31762W        W   92  19.568  33.522  10.889
31763W        W   93   1.310  38.544   4.706
31764W        W   94   6.221  41.019   2.263
31765W        W   95   4.403  11.234  13.530
31766W        W   96  20.551  44.957   3.214
31767W        W   97  10.219  23.567   2.324
31768W        W   98  25.045  30.068   4.813
31769W        W   99  27.132  35.546  14.910
31770W        W  100  18.764   7.668   2.215
31771W        W  101   8.820  43.381  14.934
31772W        W  102  22.536  17.271   2.248
31773W        W  103  15.243   3.939  10.409
31774W        W  104  41.378  30.093  11.072
31775W        W  105  39.493  13.818  13.343
31776W        W  106   5.916   9.693   1.282
31777W        W  107   4.408  28.472   1.911
31778W        W  108  21.527  17.117   2.323
31779W        W  109  13.236  14.699  13.498
31780W        W  110   7.755  14.806   4.662
31781W        W  111  15.732   4.865  12.429
31782W        W  112  39.488  18.115   3.783
31783W        W  113  28.997  10.873   3.754
31784W        W  114   4.393  31.484  11.486
31785W        W  115  21.168   9.756   4.745
31786W        W  116  31.129  25.686   4.278
31787W        W  117  22.710  40.951  12.498
31788W        W  118  22.027   6.885   3.732
31789W        W  119  15.594  31.629   3.761
31790W        W  120  29.623  33.120  10.460
31791W        W  121  21.151  36.517   0.821
31792W        W  122  33.018   2.953  14.764
31793W        W  123   3.290  42.003   4.599
31794W        W  124  33.573  11.133  13.017
31795W        W  125  16.317  31.407  10.589
31796W        W  126  43.777  17.770   0.891
31797W        W  127  23.065   8.893   5.652
31798W        W  128  36.384  34.440  11.000
31799W        W  129  26.143  11.790   2.749
31800W        W  130  12.172   9.197  14.766
31801W        W  131   9.728  18.296  10.572
31802W        W  132  40.455   2.965  13.804
31803W        W  133  34.541  37.859   2.234
31804W        W  134  43.864  12.213  14.004
31805W        W  135  42.966   5.396  12.021
31806W        W  136  33.026  27.004   2.779
31807W        W  137  32.438   9.266  12.947
31808W        W  138  26.555   9.302  10.958
31809W        W  139   3.294   0.406   2.187
31810W        W  140   6.221  39.413  14.937
31811W        W  141  16.588  17.252   3.636
31812W        W  142   7.831  16.088  14.349
31813W        W  143  13.241   5.835  10.922
31814W        W  144  44.963   6.701   2.664
31815W        W  145  31.451  44.282  12.953
31816W        W  146   9.236  33.900   4.831
31817W        W  147   5.753  38.837  12.469
31818W        W  148  25.043  38.519   4.292
31819W        W  149  26.118  26.092  10.954
31820W        W  150  32.927  40.519  12.897
31821W        W  151  34.440  18.667  13.315
31822W        W  152  35.903   4.848  14.356
31823W        W  153  22.154  30.932   1.757
31824W        W  154  34.092  17.598   1.750
31825W        W  155  20.192  10.227   2.871
31826W        W  156  39.396  11.695  10.404
31827W        W  157  10.788  18.747   0.752
31828W        W  158   4.429  32.549  10.470
31829W        W  159  28.610  26.166  13.852
31830W        W  160  31.969  11.783   5.312
31831W        W  161  36.870   8.278   0.941
31832W        W  162  13.106  22.207  13.834
31833W        W  163   3.800  32.034  10.101
31834W        W  164  40.511   1.800   0.438
31835W        W  165  40.012  36.048  13.993
31836W        W  166  24.183  42.413   4.309
31837W        W  167  13.644  24.656   1.704
31838W        W  168  31.962  32.902  12.542
31839W        W  169   7.668  24.093  11.994
31840W        W  170  12.738  44.873   2.288
31841W        W  171   5.801  27.492  11.992
31842W        W  172  28.470  33.025  13.418
31843W        W  173   7.782  44.418  10.900
31844W        W  174  30.913  31.525   2.251
31845W        W  175  21.223  31.974  12.012
31846W        W  176   2.326  28.941  13.387
31847W        W  177  39.499  30.110  13.404
31848W        W  178  17.646  41.302  12.998
31849W        W  179   4.313   7.748   3.196
31850W        W  180  33.600  32.107  14.838
31851W        W  181  42.803  29.540   0.943
31852W        W  182  27.480  16.148   1.871
31853W        W  183  26.992  20.736   2.198
31854W        W  184   7.223   7.178  10.640
31855W        W  185  27.024  13.289   9.923
31856W        W  186  10.838  12.683   3.642
31857W        W  187   4.834  27.625   1.382
31858W        W  188  40.436  31.452   3.783
31859W        W  189  16.605  34.587   4.154
31860W        W  190   6.760  13.749  14.936
31861W        W  191  33.585  10.192  13.936
31862W        W  192  20.166  32.413  13.501
31863W        W  193   9.315  40.877   3.225
31864W        W  194  18.178  14.619   4.688
31865W        W  195  15.776   7.726   5.271
31866W        W  196  28.673  36.581   1.881
31867W        W  197  37.337  43.911   4.274
31868W        W  198  40.519  19.690  10.066
31869W        W  199   1.439  40.424  11.089
31870W        W  200  35.931  30.472   0.337
31871W        W  201  29.581  17.199   1.348
31872W        W  202   7.276  39.482  14.983
31873W        W  203   6.919  41.855   0.845
31874W        W  204   8.212  22.242   4.338
31875W        W  205  22.173  25.646   2.253
31876W        W  206  24.636  22.050  12.910
31877W        W  207  18.563  31.075   0.916
31878W        W  208  43.966  25.164  13.854
31879W        W  209  23.059  11.780  12.365
31880W        W  210   0.797  35.975  13.888
31881W        W  211  14.133  30.034  11.063
31882W        W  212  21.080  43.481  11.456
31883W        W  213  38.418  31.489   4.159
31884W        W  214   7.271   8.826   2.318
31885W        W  215  11.222  37.375  11.447
31886W        W  216   1.954  29.966  14.293
31887W        W  217   4.234  18.548  12.986
31888W        W  218  17.739   4.261   0.811
31889W        W  219  26.674  17.563  14.375
31890W        W  220  26.129  33.565  13.398
31891W        W  221   5.330  25.643  10.999
31892W        W  222  30.587   6.721  14.445
31893W        W  223  42.981  16.221   0.382
31894W        W  224  13.765  10.649  13.923
31895W        W  225  24.570   8.368   0.242
31896W        W  226   6.840   6.243  12.353
31897W        W  227   5.292  25.128  10.462
31898W        W  228   6.238  20.580   0.471
31899W        W  229  20.595  43.782  11.580
31900W        W  230  36.009   9.714  10.483
31901W        W  231   9.223  17.586   0.388
31902W        W  232  21.262  26.994   3.729
31903W        W  233  23.072  19.240  14.411
31904W        W  234  17.135   1.442  13.916
31905W        W  235  33.553  27.948  10.485
31906W        W  236  10.369  43.873  12.054
31907W        W  237  11.705   8.174  13.341
31908W        W  238   0.839  36.498  14.311
31909W        W  239  43.791  25.125  11.010
31910W        W  240  26.057  39.854  13.874
31911W        W  241  33.990  43.350  12.418
31912W        W  242  10.810  32.110  14.893
31913W        W  243   7.779  19.204  13.816
31914W        W  244  44.956  36.409   0.421
31915W        W  245   1.776   0.975   1.759
31916W        W  246  18.548  22.586  10.048
31917W        W  247  16.728  28.960   4.342
31918W        W  248  33.593  40.851  12.458
31919W        W  249  24.538  40.055  11.567
31920W        W  250  19.775  26.025  11.435
31921W        W  251  36.030  10.208   1.416
31922W        W  252   2.332  34.037  11.452
31923W        W  253   8.197   8.212  11.015
31924W        W  254  34.909  11.831  12.580
31925W        W  255  32.035  32.009  11.875
31926W        W  256  19.187  10.810  14.356
31927W        W  257  15.580  32.913   0.805
31928W        W  258   9.215  23.199  12.015
31929W        W  259   5.416  43.020   2.273
31930W        W  260  43.339   0.959   4.804
31931W        W  261  20.675  22.611  12.557
31932W        W  262  25.712  42.837  11.059
31933W        W  263  18.603  18.609   5.104
31934W        W  264  29.466  38.047   2.242
31935W        W  265  34.463  27.689   2.753
31936W        W  266  10.229  40.887   3.162
31937W        W  267  24.029   2.826  14.352
31938W        W  268  11.309   6.202   4.222
31939W        W  269  29.033  42.907   4.250
31940W        W  270  35.504  23.716   2.881
31941W        W  271  23.725  11.819   2.860
31942W        W  272  37.969  23.035   3.239
31943W        W  273  30.600   8.699   4.260
31944W        W  274   2.894  34.531  13.400
31945W        W  275  19.568  36.894  13.423
31946W        W  276  28.048  41.487   5.238
31947W        W  277  42.822  33.469   0.873
31948W        W  278  14.718   1.324  14.945
31949W        W  279  30.436  23.512  10.970
31950W        W  280  26.071  39.434  11.544
31951W        W  281  24.001  40.850   3.173
31952W        W  282  16.773  33.888   1.751
31953W        W  283  13.687  33.439   0.343
31954W        W  284  38.074  31.001   4.285
31955W        W  285   7.230  37.940   3.222
31956W        W  286   9.685  17.176  12.994
31957W        W  287  18.214  30.517   3.259
31958W        W  288  30.493  10.811  14.943
31959W        W  289  14.632   5.337   3.212
31960W        W  290   7.867  13.828   4.228
31961W        W  291  11.343  23.031   2.315
31962W        W  292  19.749  15.085  10.990
31963W        W  293  38.424   6.840   2.252
31964W        W  294  26.682  18.237  10.605
31965W        W  295  35.008  33.056   0.371
31966W        W  296  26.538  16.630  10.918
31967W        W  297  41.895   5.691  12.844
31968W        W  298  40.529   1.414  10.513
31969W        W  299  15.631   5.722   2.764
31970W        W  300  29.103   6.293  10.424
31971W        W  301  24.220  40.836   1.252
31972W        W  302   4.897  40.897   1.879
31973W        W  303   2.392  31.052  11.981
31974W        W  304  10.826  28.475   2.292
31975W        W  305  37.469  32.578   2.234
31976W        W  306   6.841   8.765   3.318
31977W        W  307  31.028  25.561  10.586
31978W        W  308  42.780  33.596   4.687
31979W        W  309  31.498  23.017  13.867
31980W        W  310  12.679  31.583  12.933
31981W        W  311   9.875  24.584   3.289
31982W        W  312   6.229  19.211   4.219
31983W        W  313   3.448  11.348  14.336
31984W        W  314  42.448  41.377  14.947
31985W        W  315  41.292   6.695   0.402
31986W        W  316  29.649  17.574   0.906
31987W        W  317  25.475  15.586  12.406
31988W        W  318   3.252  42.336   3.196
31989W        W  319  37.924   5.783  10.571
31990W        W  320  23.039   6.806   2.411
31991W        W  321  24.118  23.623   1.907
31992W        W  322  24.586  26.978   1.818
31993W        W  323  24.602  41.829   1.888
31994W        W  324  40.906   7.337  10.410
31995W        W  325  28.930   9.245   4.287
31996W        W  326  29.074  43.804  11.484
31997W        W  327  16.079  34.425   4.189
31998W        W  328  26.493   9.747   1.307
31999W        W  329  27.573   7.393   0.374
32000W        W  330   2.938  14.173   0.942
32001W        W  331  17.102  24.137   2.874
32002W        W  332  27.637   8.206  12.943
32003W        W  333  12.136  25.175  10.504
32004W        W  334  29.135  13.291  11.051
32005W        W  335  29.944  17.779   1.257
32006W        W  336  40.820   3.865  13.001
32007W        W  337  22.575   6.737  14.843
32008W        W  338  35.043   7.769  14.015
32009W        W  339  35.564  32.415  14.871
32010W        W  340  22.151  21.017   4.677
32011W        W  341  36.560  22.182  11.863
32012W        W  342  29.498  25.558   0.244
32013W        W  343   6.300  24.635   3.651
32014W        W  344  39.529  35.590   3.156
32015W        W  345  34.476  38.882   1.905
32016W        W  346  25.499  43.433   1.847
32017W        W  347  34.460  25.051   1.802
32018W        W  348   0.894  28.168  14.424
32019W        W  349  31.607  41.337   1.271
32020W        W  350   9.767   5.709   4.690
32021W        W  351  43.799  11.800  13.495
32022W        W  352   4.366  15.686  13.916
32023W        W  353  41.947  37.568  11.997
32024W        W  354  32.488  26.113  10.541
32025W        W  355  43.860   8.699   1.267
32026W        W  356   4.823  22.188  10.041
32027W        W  357   5.288  38.938   3.646
32028W        W  358  43.948   9.744  12.977
32029W        W  359  30.040  26.187  13.967
32030W        W  360  16.098   9.747  13.309
32031W        W  361   1.912  17.285   0.731
32032W        W  362   3.361  17.572  11.973
32033W        W  363  11.269  24.486  14.835
32034W        W  364  42.465  30.503  14.873
32035W        W  365  31.135   4.825  13.035
32036W        W  366  37.000  21.199  12.850
32037W        W  367   0.864   8.190   2.728
32038W        W  368  30.464  39.420  10.437
32039W        W  369  14.130   7.200   3.813
32040W        W  370  20.181   4.369   1.713
32041W        W  371  12.654  10.283  14.498
32042W        W  372   5.264  26.196   3.264
32043W        W  373   5.413  30.461   4.243
32044W        W  374  43.927   8.249   1.779
32045W        W  375  19.583   3.896  10.448
32046W        W  376  37.473  39.859   2.734
32047W        W  377  25.498   0.878  13.962
32048W        W  378  22.547   0.950  14.412
32049W        W  379  24.564  37.039  13.401
32050W        W  380  18.127  16.751  12.349
32051W        W  381  30.005  25.068   1.853
32052W        W  382  14.639  27.094  14.434
32053W        W  383  20.587  43.018  12.423
32054W        W  384  27.558  43.790   4.182
32055W        W  385  30.506  31.951   4.258
32056W        W  386  23.553  24.126   1.795
32057W        W  387  27.177  31.047   1.724
32058W        W  388  14.136   6.850   2.211
32059W        W  389  42.341  37.935  10.462
32060W        W  390   1.769  23.563   0.287
32061W        W  391  12.194   3.279   0.962
32062W        W  392   1.402  41.313  14.393
32063W        W  393  34.484  14.248   2.857
32064W        W  394  42.466  44.464   0.953
32065W        W  395  39.361  29.579  10.462
32066W        W  396  38.473  33.889  11.901
32067W        W  397   3.778  20.117   0.790
32068W        W  398   9.375   4.335   2.696
32069W        W  399  43.021   7.277   2.825
32070W        W  400  29.591  42.981  12.922
32071W        W  401  18.551   4.381  11.466
32072W        W  402  11.804  39.894   2.804
32073W        W  403   4.416  41.972  12.060
32074W        W  404  26.687  33.488   4.724
32075W        W  405  42.995  17.722  11.589
32076W        W  406  41.856   4.209   3.309
32077W        W  407  38.049   0.914   2.677
32078W        W  408  15.112  15.672   3.234
32079W        W  409  13.688  41.329   2.220
32080W        W  410  11.267  20.539   0.391
32081W        W  411  30.993   1.482   4.635
32082W        W  412  12.141   3.756   3.321
32083W        W  413  31.969  14.233   0.889
32084W        W  414  36.513   1.965  11.571
32085W        W  415  36.569  35.961  12.985
32086W        W  416  12.153  34.559  14.369
32087W        W  417  25.591  24.528  14.936
32088W        W  418  33.413  24.508  14.783
32089W        W  419  13.272  12.132  10.421
32090W        W  420   7.319   3.276   0.384
32091W        W  421  12.806  13.105   1.243
32092W        W  422  36.436   7.401   4.643
32093W        W  423  34.577  19.710   0.282
32094W        W  424   3.910   7.262   3.309
32095W        W  425   2.839  38.819   5.223
32096W        W  426  18.731  23.616   3.742
32097W        W  427   9.287  31.505   4.119
32098W        W  428  25.603  41.509  10.141
32099W        W  429  36.018  11.860   2.341
32100W        W  430   1.742   0.288   2.697
32101W        W  431  36.374  19.124  10.935
32102W        W  432  21.599  18.605  10.622
32103W        W  433  19.745  16.076  13.468
32104W        W  434  44.815  38.416   3.731
32105W        W  435  43.868   7.698   3.169
32106W        W  436   0.348   9.151  13.917
32107W        W  437  10.137  27.170   4.276
32108W        W  438   0.901  34.430  14.378
32109W        W  439  26.661  36.924   0.963
32110W        W  440  23.581  19.776   4.731
32111W        W  441  27.102  10.827   2.766
32112W        W  442  13.613  44.951   2.884
32113W        W  443  29.984  25.131   0.327
32114W        W  444   6.383  31.116   0.465
32115W        W  445  24.975  13.189   5.311
32116W        W  446  15.663  26.667   1.883
32117W        W  447  24.692   8.823  13.502
32118W        W  448  15.253   9.313   3.327
32119W        W  449  19.208   5.242   0.828
32120W        W  450  21.548  33.116   4.210
32121W        W  451  21.111   0.795   0.429
32122W        W  452  13.728  38.049  13.354
32123W        W  453   1.954  34.445  10.554
32124W        W  454   7.788  37.523  11.112
32125W        W  455  25.185  41.889  10.986
32126W        W  456  12.649  38.338   4.814
32127W        W  457  15.751   0.830   2.817
32128W        W  458   0.767  40.843  13.320
32129W        W  459  35.042  29.963  11.386
32130W        W  460   8.696  14.114  11.608
32131W        W  461  24.989  34.020   3.318
32132W        W  462  39.515  40.340  13.364
32133W        W  463   9.739   3.882   4.748
32134W        W  464  43.430  10.691   2.898
32135W        W  465  24.534   2.271   2.868
32136W        W  466   0.793  28.993  14.386
32137W        W  467  12.133  12.841   0.287
32138W        W  468  35.990  21.261  13.407
32139W        W  469  42.511  40.886  11.594
32140W        W  470  16.602  24.503   3.370
32141W        W  471  13.828  39.900  10.611
32142W        W  472   0.880  30.961   2.396
32143W        W  473   2.867  14.244  10.625
32144W        W  474   7.833  30.036  11.550
32145W        W  475  17.697  24.063  14.284
32146W        W  476  27.154  12.300   2.867
32147W        W  477  39.379  19.140   1.791
32148W        W  478  25.568  14.657   3.817
32149W        W  479  11.855   2.928  12.579
32150W        W  480   6.407  13.686   3.653
32151W        W  481  39.417  42.417  11.535
32152W        W  482  26.151  12.647   4.754
32153W        W  483  32.420  23.208  13.498
32154W        W  484  22.693  10.694   4.810
32155W        W  485   2.858  34.954   4.169
32156W        W  486  22.081  31.559  14.516
32157W        W  487  22.211  39.051   3.289
32158W        W  488  21.192  30.954  13.431
32159W        W  489  10.803  15.720  14.948
32160W        W  490  37.582   7.186   0.386
32161W        W  491  26.193   3.922   0.928
32162W        W  492  22.103  19.039  11.378
32163W        W  493  37.376  40.428   4.190
32164W        W  494  43.793  18.071   4.213
32165W        W  495  11.169   6.896   1.391
32166W        W  496  24.681  33.032   1.909
32167W        W  497  12.803   0.428   4.278
32168W        W  498  28.968  27.993  12.988
32169W        W  499  20.040  21.535  13.038
32170W        W  500  21.244  27.485   1.249
32171W        W  501  27.162  34.068  12.505
32172W        W  502   8.376  40.947  10.596
32173W        W  503  11.820  25.494   2.706
32174W        W  504  20.090  31.933  14.961
32175W        W  505  21.175  14.751  13.525
32176W        W  506  28.578   8.820   0.457
32177W        W  507  40.028  16.102  11.421
32178W        W  508  34.435  27.595  13.442
32179W        W  509  39.560   2.226  11.952
32180W        W  510  18.082  38.557  13.929
32181W        W  511  43.344  28.002   4.245
32182W        W  512  35.578  14.199  12.052
32183W        W  513  44.820  33.381   4.783
32184W        W  514  38.528  37.559   1.407
32185W        W  515  40.920  22.514   3.829
32186W        W  516  21.175  10.837  10.455
32187W        W  517  10.846   2.771   2.898
32188W        W  518   4.703  21.609   0.824
32189W        W  519  17.078  42.389   1.306
32190W        W  520   8.672   2.865   4.734
32191W        W  521   5.788  31.483   2.701
32192W        W  522  44.448  41.890  11.532
32193W        W  523   9.772  23.106  14.374
32194W        W  524   2.380  40.404  14.509
32195W        W  525  29.080  24.167  14.996
32196W        W  526  23.239   8.755   5.270
32197W        W  527  28.997  13.206   3.151
32198W        W  528   4.867   0.250  13.022
32199W        W  529  30.008   5.346   1.348
32200W        W  530  39.814  15.718  12.381
32201W        W  531  43.962   0.786  14.848
32202W        W  532  41.337  42.393   1.370
32203W        W  533  22.007  13.752  11.379
32204W        W  534  27.188   4.890   0.466
32205W        W  535  40.047   2.420  12.346
32206W        W  536   2.802  27.644  11.973
32207W        W  537  35.369  19.683  13.512
32208W        W  538  25.638   8.688  14.812
32209W        W  539  14.663  37.891  11.912
32210W        W  540   3.285   0.387  10.569
32211W        W  541  36.852  30.491   1.334
32212W        W  542   1.960  12.658  14.900
32213W        W  543  33.075   2.230   1.385
32214W        W  544   4.911  26.644   4.676
32215W        W  545  26.040  29.088   0.330
32216W        W  546  27.169  13.326  14.356
32217W        W  547  31.432  31.535   1.854
32218W        W  548  31.557  43.981   1.758
32219W        W  549   8.179   8.295   0.816
32220W        W  550  37.485  41.433  13.357
32221W        W  551  18.769  42.031   0.805
32222W        W  552  13.117  14.339  12.844
32223W        W  553  39.316   5.892  10.125
32224W        W  554  29.924  32.627   2.822
32225W        W  555   4.389  34.091  12.565
32226W        W  556   2.445  26.973  13.418
32227W        W  557  41.478   6.822  12.936
32228W        W  558   3.216  29.053   0.319
32229W        W  559  22.744   1.445  12.928
32230W        W  560  33.516  23.017  11.977
32231W        W  561  17.676  40.496  13.378
32232W        W  562  26.665   5.819  11.556
32233W        W  563   5.730   7.391  11.864
32234W        W  564   5.703  38.398  12.364
32235W        W  565   6.811   2.356   4.667
32236W        W  566  21.032  35.499  10.543
32237W        W  567  26.578  27.952   3.208
32238W        W  568   9.194  20.228   0.785
32239W        W  569   3.254   1.912  12.885
32240W        W  570  13.612  20.749  11.541
32241W        W  571  37.057  20.227   1.319
32242W        W  572  22.624   4.729  13.536
32243W        W  573  35.457   5.347   3.231
32244W        W  574   9.299  36.425   3.813
32245W        W  575  25.148  22.122  13.477
32246W        W  576  34.598  36.889  12.382
32247W        W  577   9.697   3.456   4.746
32248W        W  578  32.895  31.526  11.874
32249W        W  579   0.338   3.374  11.126
32250W        W  580  42.424  38.953   4.792
32251W        W  581   9.242  30.552   4.831
32252W        W  582  40.435  12.657  13.369
32253W        W  583  40.856  10.719  11.001
32254W        W  584   0.449  21.042   4.742
32255W        W  585  28.487  16.807  11.952
32256W        W  586   7.824  41.376  10.615
32257W        W  587   9.151  12.355   2.403
32258W        W  588  39.465  44.961   4.220
32259W        W  589  11.765  24.715  14.415
32260W        W  590  42.807  20.110  14.476
32261W        W  591   1.877  36.044   0.459
32262W        W  592  35.088  21.177  11.064
32263W        W  593  11.841  30.631  14.930
32264W        W  594  31.058  22.015   2.351
32265W        W  595  32.933  30.919   0.889
32266W        W  596  10.280  16.767   3.264
32267W        W  597  12.328   6.417  11.387
32268W        W  598  10.671  13.767   4.632
32269W        W  599  15.619  31.508  12.562
32270W        W  600  10.770  28.439  11.915
32271W        W  601  14.103  23.722  11.898
32272W        W  602  44.380   5.694  14.489
32273W        W  603  12.217  39.554   3.165
32274W        W  604  17.787  37.021   9.532
32275W        W  605  34.498  27.961   1.718
32276W        W  606  17.720  43.458   0.893
32277W        W  607  15.693  27.970  12.992
32278W        W  608  43.819  22.197  10.477
32279W        W  609   5.248  36.547   0.817
32280W        W  610  36.558   2.819  13.841
32281W        W  611  32.918  34.983  14.783
32282W        W  612  14.257   1.373  12.914
32283W        W  613  11.187  14.605   1.848
32284W        W  614  42.438  39.516  14.290
32285W        W  615  21.175   4.824  13.873
32286W        W  616  11.349   7.335   2.409
32287W        W  617  41.524   7.748  11.409
32288W        W  618  16.569   7.781   1.420
32289W        W  619   3.925  34.397  14.842
32290W        W  620  20.599  22.697   1.299
32291W        W  621  19.550  38.960   1.324
32292W        W  622   8.715  27.541   4.746
32293W        W  623  37.897  17.125   4.688
32294W        W  624  27.124   2.853  12.022
32295W        W  625  20.604  33.910  14.367
32296W        W  626   6.346  27.514   3.170
32297W        W  627  18.566  17.715   2.808
32298W        W  628   5.767  39.524   2.271
32299W        W  629  21.636   2.850  12.445
32300W        W  630  16.787  40.377   4.292
32301W        W  631  21.757  33.894   1.365
32302W        W  632  22.736  43.384  14.930
32303W        W  633  22.662  10.774  13.450
32304W        W  634  23.569  40.882   1.929
32305W        W  635  30.467  44.457   2.691
32306W        W  636   2.955  17.229   4.631
32307W        W  637  41.883  35.062   1.762
32308W        W  638  10.212  42.325  12.897
32309W        W  639   9.753  35.078  10.921
32310W        W  640  32.080  22.236  11.612
32311W        W  641  22.166  41.889   0.243
32312W        W  642  37.058  28.470  14.791
32313W        W  643  28.081  37.531  12.497
32314W        W  644  41.457  41.958   5.104
32315W        W  645   7.778  12.718  11.402
32316W        W  646  11.797  38.536   4.720
32317W        W  647   0.481  42.803   0.894
32318W        W  648  20.188  38.989  11.071
32319W        W  649   2.423   0.322   0.463
32320W        W  650  44.304  10.746   2.700
32321W        W  651  27.946   9.690  14.426
32322W        W  652  16.789  29.429   2.806
32323W        W  653   3.839  19.721  13.949
32324W        W  654  38.372  43.822  10.536
32325W        W  655  31.977   3.864  11.446
32326W        W  656  43.484  15.189   4.325
32327W        W  657  38.561  13.259  12.550
32328W        W  658  33.030  14.636  11.100
32329W        W  659   3.767  38.821  12.908
32330W        W  660  44.391  26.067   9.971
32331W        W  661  24.109   9.265   3.788
32332W        W  662  32.424  23.568  10.930
32333W        W  663  25.205  31.599  14.879
32334W        W  664  18.063  39.474  12.381
32335W        W  665   5.249   2.389  12.549
32336W        W  666  10.253   7.813   4.763
32337W        W  667  30.932  40.981   3.816
32338W        W  668   6.279  36.489   2.687
32339W        W  669  19.052   5.285  10.963
32340W        W  670  18.566   6.750  11.878
32341W        W  671  23.499  31.120   1.856
32342W        W  672  28.624   6.340  11.462
32343W        W  673   1.830   9.277   2.678
32344W        W  674  28.112  27.446   4.268
32345W        W  675  21.241  22.229   9.952
32346W        W  676  24.625   2.248  13.449
32347W        W  677  12.164  26.986  12.431
32348W        W  678   4.315  31.488  14.334
32349W        W  679   2.445  39.331  10.048
32350W        W  680  10.870  39.036   2.699
32351W        W  681  26.657  12.228   2.837
32352W        W  682  42.809  40.999  10.495
32353W        W  683  35.426  28.077  11.441
32354W        W  684  20.071   8.240  11.114
32355W        W  685  15.215  36.905  12.396
32356W        W  686  14.302  18.590   1.252
32357W        W  687  36.414  34.918  10.971
32358W        W  688  29.437  22.131  12.027
32359W        W  689  33.102   4.764  12.947
32360W        W  690  43.386  21.596   1.742
32361W        W  691  22.538  13.235   3.260
32362W        W  692  20.243  17.693   0.926
32363W        W  693  34.098  38.508   2.216
32364W        W  694   6.744  24.680   3.743
32365W        W  695  15.787  41.024  14.981
32366W        W  696  40.982   5.934   3.712
32367W        W  697  33.393   3.856   2.365
32368W        W  698   7.318  41.044  14.506
32369W        W  699  12.121  25.530  12.347
32370W        W  700  27.998  36.580   0.324
32371W        W  701  38.026  11.327  12.481
32372W        W  702  39.024  25.166  11.866
32373W        W  703  20.177  12.353   2.778
32374W        W  704  39.935  37.931  11.102
32375W        W  705  14.216   7.221  13.030
32376W        W  706  36.994  37.043  11.426
32377W        W  707  13.648  13.262  14.481
32378W        W  708  30.131  10.287  12.575
32379W        W  709   7.719  10.209  11.980
32380W        W  710  24.205   1.293   4.318
32381W        W  711  15.090  35.087   2.178
32382W        W  712  14.681  35.908  12.557
32383W        W  713  20.681  34.004   1.337
32384W        W  714  38.058  44.860   0.361
32385W        W  715  21.150   8.393  12.537
32386W        W  716  19.184  41.377   3.281
32387W        W  717   3.872  12.338   2.248
32388W        W  718   8.175  16.297  14.367
32389W        W  719  43.426  32.027   2.881
32390W        W  720  32.001  18.246  11.420
32391W        W  721   7.693  22.660  10.124
32392W        W  722  15.255  29.466   4.691
32393W        W  723  19.770   7.732  13.393
32394W        W  724   4.715   6.841   4.663
32395W        W  725  18.707  25.129   4.274
32396W        W  726   3.743  21.690  12.955
32397W        W  727  21.025  25.487  13.388
32398W        W  728  20.271  10.811  11.484
32399W        W  729   9.883   7.278  12.022
32400W        W  730  27.591  12.342   3.252
32401W        W  731  22.607   8.237   2.809
32402W        W  732  44.004  32.617  14.456
32403W        W  733  41.972  40.545  10.964
32404W        W  734  13.602  10.824  12.044
32405W        W  735  13.182  34.920  14.408
32406W        W  736  23.179  35.020   2.354
32407W        W  737  28.979  29.537  12.826
32408W        W  738  43.309  22.039   1.419
32409W        W  739  37.379  34.470  12.415
32410W        W  740  23.559  11.795  13.799
32411W        W  741  41.843  26.519  10.141
32412W        W  742  17.266   1.237   3.818
32413W        W  743  21.726   0.328  11.125
32414W        W  744  10.689  44.803  13.457
32415W        W  745  15.316  43.295  10.514
32416W        W  746  42.386  31.948  10.130
32417W        W  747  25.977   2.888   4.740
32418W        W  748  42.420  43.994   0.782
32419W        W  749  33.116  19.715   4.691
32420W        W  750  35.090  27.985   1.267
32421W        W  751   2.897  18.653   4.772
32422W        W  752  19.051  37.339  14.423
32423W        W  753  11.157  24.651   0.902
32424W        W  754  34.528  29.010   3.855
32425W        W  755   1.432  20.714  14.872
32426W        W  756  31.903   2.819   0.379
32427W        W  757  11.848   7.903   2.851
32428W        W  758  25.488  29.573  13.013
32429W        W  759  38.886   6.884  11.392
32430W        W  760  22.163  19.108   4.133
32431W        W  761  38.821  42.002  12.002
32432W        W  762  29.638  16.136  11.550
32433W        W  763  44.871  10.827  14.896
32434W        W  764  37.874  43.334   3.633
32435W        W  765  11.682  17.717  11.889
32436W        W  766  32.929  11.288  10.963
32437W        W  767  17.223  15.810   0.856
32438W        W  768  38.031  22.053  12.882
32439W        W  769  15.823   2.760   4.685
32440W        W  770  35.489  29.561  12.455
32441W        W  771  44.422  15.282   2.834
32442W        W  772  32.404  18.108  12.416
32443W        W  773   4.738  44.895   0.383
32444W        W  774  22.501  12.857  10.072
32445W        W  775  40.025  11.671  10.944
32446W        W  776  24.535  18.081  14.990
32447W        W  777  29.173   6.704  13.372
32448W        W  778   4.418   7.299   0.882
32449W        W  779   1.861  37.866  12.430
32450W        W  780  16.685  33.457  13.335
32451W        W  781  14.711  32.065   3.182
32452W        W  782  43.361   0.895  10.577
32453W        W  783  21.089  41.825  10.626
32454W        W  784   8.855  30.139   4.689
32455W        W  785  43.299  31.466  13.891
32456W        W  786  11.284   0.314   4.282
32457W        W  787  10.263  25.621   0.748
32458W        W  788  13.279   2.801   3.824
32459W        W  789  24.229  30.101   0.890
32460W        W  790   4.739  25.601   2.733
32461W        W  791  39.497   9.355   2.901
32462W        W  792  36.067   4.288  11.015
32463W        W  793  27.501  36.071   1.726
32464W        W  794   5.222  28.938  14.405
32465W        W  795  42.891   5.816   0.431
32466W        W  796   6.768  37.906  12.081
32467W        W  797  19.616  38.037  11.557
32468W        W  798  13.269  44.875   0.401
32469W        W  799  40.855  43.970  13.880
32470W        W  800  29.008  11.772   3.753
32471W        W  801  32.535   4.905   3.734
32472W        W  802  25.610  34.080  11.487
32473W        W  803  41.848  21.140   2.303
32474W        W  804  38.840  30.132   3.858
32475W        W  805   1.881  42.800   2.800
32476W        W  806  43.785  30.100  12.096
32477W        W  807  39.980  10.199   2.745
32478W        W  808  10.336  35.506   2.802
32479W        W  809  37.363  25.553   3.212
32480W        W  810  12.139  28.438  14.507
32481W        W  811  22.175  14.677  11.459
32482W        W  812   6.197  15.196   3.712
32483W        W  813  12.324  11.201  14.850
32484W        W  814  44.855  30.152   3.759
32485W        W  815  23.082  31.018   1.228
32486W        W  816  26.984   5.325   3.273
32487W        W  817  39.993  15.649   2.788
32488W        W  818  29.050  14.697   0.752
32489W        W  819  19.667  10.230   5.288
32490W        W  820  26.512  29.612  10.409
32491W        W  821  32.567   8.384   1.245
32492W        W  822  11.229  12.686   2.739
32493W        W  823  21.224  33.589  10.501
32494W        W  824  36.466  18.245  14.370
32495W        W  825  24.713  13.165   2.209
32496W        W  826  41.501  24.712   1.279
32497W        W  827  18.586  33.567   1.800
32498W        W  828   1.300  35.038   3.792
32499W        W  829  35.481  17.658   3.385
32500W        W  830  41.825  14.106   2.783
32501W        W  831   1.273  31.507   2.865
32502W        W  832   3.434  27.055  11.609
32503W        W  833  11.213   5.303  10.417
32504W        W  834  27.521  30.575   2.218
32505W        W  835  38.958  38.992  14.456
32506W        W  836  12.693   8.749   1.895
32507W        W  837  25.682  24.210  14.397
32508W        W  838  29.617  23.076  13.412
32509W        W  839  14.699  35.441   2.796
32510W        W  840  32.123  27.036   2.742
32511W        W  841  40.854   8.703  13.348
32512W        W  842  42.329  36.506  10.449
32513W        W  843  29.453  11.268  11.025
32514W        W  844  34.593  22.516   2.383
32515W        W  845  40.313   8.655  10.015
32516W        W  846   7.298   1.952  14.866
32517W        W  847  18.062  33.947   0.379
32518W        W  848   8.210  38.054  12.580
32519W        W  849  28.176  34.015   2.879
32520W        W  850  16.161  32.893  11.077
32521W        W  851  16.289  40.846  10.456
32522W        W  852   2.345   0.757   1.402
32523W        W  853  17.284  37.921   1.332
32524W        W  854  26.633   9.214   3.726
32525W        W  855  16.289  11.360  12.558
32526W        W  856   2.321  22.172  12.533
32527W        W  857  43.328  11.218  11.466
32528W        W  858  10.803  31.606  10.607
32529W        W  859  30.918  15.100  10.593
32530W        W  860  17.161  21.602  14.953
32531W        W  861  24.577  29.080   4.137
32532W        W  862  14.204  24.991  13.449
32533W        W  863  39.884  33.129   4.640
32534W        W  864   1.269  28.466   0.798
32535W        W  865  34.913  37.526  12.533
32536W        W  866  23.671  44.306   2.870
32537W        W  867  33.617  22.173  12.869
32538W        W  868  20.587   4.764   1.836
32539W        W  869   0.986  15.138  13.319
32540W        W  870  33.517  11.642   4.821
32541W        W  871   3.949  17.563   1.411
32542W        W  872  35.945   6.790   1.825
32543W        W  873  11.686  43.977  10.535
32544W        W  874  13.263  11.339   4.711
32545W        W  875  25.064  40.858   4.180
32546W        W  876  21.215   3.794   4.834
32547W        W  877   6.742  24.632  12.373
32548W        W  878  44.351  31.598   4.180
32549W        W  879  37.972  25.497   1.260
32550W        W  880  25.629   9.726  14.346
32551W        W  881  36.532  15.607   0.367
32552W        W  882   1.356  30.071   4.160
32553W        W  883  40.366  34.049   1.850
32554W        W  884   9.819  33.974  13.393
32555W        W  885  34.402   8.888  13.966
32556W        W  886  11.134  42.908   3.287
32557W        W  887  10.224  22.181   1.344
32558W        W  888  38.969   8.739   1.792
32559W        W  889  22.675  38.063   1.762
32560W        W  890  16.176  23.127  12.062
32561W        W  891  37.419  30.084  10.571
32562W        W  892  10.753  14.653   1.228
32563W        W  893  15.094  21.661  12.001
32564W        W  894  14.635  41.965   3.264
32565W        W  895   2.818  39.865  13.052
32566W        W  896  41.912  43.990   3.839
32567W        W  897  41.008  31.517   1.434
32568W        W  898  18.170  38.874  11.047
32569W        W  899  24.186   6.295   4.290
32570W        W  900  12.611  29.542   3.813
32571W        W  901  17.661  23.155   2.734
32572W        W  902  17.124   0.255  14.290
32573W        W  903  13.837  40.945  10.572
32574W        W  904  34.594  44.901   3.639
32575W        W  905   5.914  10.295   1.240
32576W        W  906  33.489  23.711  13.831
32577W        W  907  44.425  43.306   1.783
32578W        W  908  36.442   0.817   1.290
32579W        W  909  26.146  30.141  11.396
32580W        W  910  13.656   6.291   0.863
32581W        W  911  35.569  41.801  10.539
32582W        W  912   2.255  13.792  14.976
32583W        W  913  44.303  23.050  14.796
32584W        W  914  35.525  33.426  11.413
32585W        W  915  34.493  25.063   3.199
32586W        W  916   6.212  17.705  14.970
32587W        W  917  36.892  28.141  12.503
32588W        W  918  28.077  26.591  13.918
32589W        W  919  32.400   8.858  13.518
32590W        W  920  40.873  43.356   2.353
32591W        W  921   4.217  16.264  14.928
32592W        W  922  13.138   4.936  11.587
32593W        W  923  24.041  22.055  10.949
32594W        W  924  14.255  12.188   1.307
32595W        W  925  20.076  27.581  12.833
32596W        W  926  41.974  24.591  12.440
32597W        W  927  39.965  44.287  11.011
32598W        W  928  13.794  39.830   0.419
32599W        W  929  29.026  12.230  11.117
32600W        W  930  34.449  40.878   3.705
32601W        W  931  26.120  28.614   2.862
32602W        W  932  26.671  16.300  14.943
32603W        W  933  17.566   9.782  13.416
32604W        W  934  22.186   0.888   0.770
32605W        W  935  19.591  12.736  14.845
32606W        W  936  10.866  14.272   3.316
32607W        W  937  43.511  19.246   2.701
32608W        W  938   6.345   4.380   3.769
32609W        W  939  24.614  12.762  11.418
32610W        W  940  24.110  21.595   2.272
32611W        W  941  36.579  24.659  13.957
32612W        W  942   2.818  42.958  11.459
32613W        W  943  23.127  18.562  11.480
32614W        W  944   4.447  33.943  12.898
32615W        W  945  33.087  32.423   0.954
32616W        W  946  36.047  28.581  12.502
32617W        W  947  37.022  29.943   2.901
32618W        W  948  43.928   1.760   1.362
32619W        W  949   8.766   2.944  12.454
32620W        W  950  32.986  34.539   2.264
32621W        W  951  36.586   6.269   1.409
32622W        W  952  17.295   3.437  11.062
32623W        W  953  30.091   3.719   2.702
32624W        W  954  21.230   9.294   4.310
32625W        W  955  25.669  15.105   4.637
32626W        W  956  34.491  39.353  12.575
32627W        W  957  28.058  30.619  11.080
32628W        W  958   6.779  28.583  12.010
32629W        W  959   1.421  14.299  12.021
32630W        W  960  32.951  39.549  14.451
32631W        W  961  15.131  35.528   2.356
32632W        W  962  35.435   6.848   4.273
32633W        W  963  40.374  22.233  11.611
32634W        W  964  16.199  42.520   1.876
32635W        W  965  14.190  42.007  10.947
32636W        W  966  10.665  33.522  11.086
32637W        W  967  34.403  15.238   0.916
32638W        W  968  28.063   9.706   0.821
32639W        W  969  21.221   3.941   0.959
32640W        W  970  35.002  17.563  13.058
32641W        W  971  33.572  22.194   0.442
32642W        W  972   6.699  11.687   2.821
32643W        W  973  39.873  41.852   0.429
32644W        W  974  32.133  32.504  10.408
32645W        W  975  10.335  39.997  12.403
32646W        W  976  14.225  44.800   4.350
32647W        W  977  31.505   4.418   1.697
32648W        W  978  23.646  40.347  11.398
32649W        W  979  18.054   0.786  14.369
32650W        W  980  34.427  23.118  11.123
32651W        W  981  24.036  24.054  14.484
32652W        W  982  42.340   9.370   4.137
32653W        W  983  31.495  37.843  11.887
32654W        W  984  10.779  13.713   1.320
32655W        W  985   2.382  15.598  13.405
32656W        W  986  37.956  36.454   1.752
32657W        W  987   9.294  40.415   0.844
32658W        W  988  11.707  20.575  13.994
32659W        W  989  30.467  44.005  13.858
32660W        W  990  34.912  17.111   4.666
32661W        W  991  24.973  18.788   1.400
32662W        W  992  30.983  36.353   4.759
32663W        W  993  17.651  28.653  14.311
32664W        W  994  14.740  41.947   4.744
32665W        W  995  26.567  40.945  10.899
32666W        W  996   4.265  40.413  13.357
32667W        W  997  40.302   5.692   9.657
32668W        W  998  24.127  16.581   3.677
32669W        W  999  26.524  30.500  14.925
32670W        W 1000  33.895  14.702   2.787
32671W        W 1001   5.816  34.929  13.966
32672W        W 1002  17.094  19.613   3.670
32673W        W 1003  15.274  27.466  10.627
32674W        W 1004  17.710  34.501   0.746
32675W        W 1005  19.753  33.974  14.349
32676W        W 1006  12.231  40.480   2.332
32677W        W 1007   1.813  37.054  12.555
32678W        W 1008  14.702  39.012   1.770
32679W        W 1009  31.617  14.640  11.493
32680W        W 1010  30.063  29.094  13.952
32681W        W 1011  42.385   7.395  11.558
32682W        W 1012  13.213  35.460   3.801
32683W        W 1013  16.079  22.019   0.386
32684W        W 1014  41.016  29.925   0.897
32685W        W 1015  16.143   3.379   0.878
32686W        W 1016  23.514  16.094  12.928
32687W        W 1017  43.461   0.782   1.836
32688W        W 1018   6.744  18.174   4.271
32689W        W 1019   9.193  34.431   0.276
32690W        W 1020   7.861  21.053   3.755
32691W        W 1021  35.954   3.825  14.883
32692W        W 1022  14.591   2.884   1.739
32693W        W 1023   7.318  11.777  13.976
32694W        W 1024   4.907  40.878  13.485
32695W        W 1025  44.327   0.470   0.799
32696W        W 1026  28.654  39.551  14.308
32697W        W 1027  16.277  25.009  14.898
32698W        W 1028  14.097  34.942   3.785
32699W        W 1029  42.997  20.691  13.833
32700W        W 1030  10.724  15.165   4.115
32701W        W 1031   4.241  36.537   1.824
32702W        W 1032  19.188  31.138   5.689
32703W        W 1033  35.386  43.386  10.634
32704W        W 1034   8.823   0.890  13.812
32705W        W 1035  24.646  39.432   0.734
32706W        W 1036  25.151   2.770  13.488
32707W        W 1037  22.643  26.122   0.366
32708W        W 1038  30.567   3.950   3.773
32709W        W 1039  26.584  17.094  11.611
32710W        W 1040  28.592  14.124   1.712
32711W        W 1041  26.656  40.886   1.919
32712W        W 1042  17.147  23.201   4.259
32713W        W 1043  20.719  34.530   0.842
32714W        W 1044  25.500  20.192  12.003
32715W        W 1045  43.816   1.748  13.954
32716W        W 1046   4.733  14.220   0.321
32717W        W 1047   8.314  16.292   4.272
32718W        W 1048   9.251  28.072   4.707
32719W        W 1049  24.582   3.932  10.992
32720W        W 1050  30.481  40.326   5.262
32721W        W 1051  37.921  41.823   2.316
32722W        W 1052  36.888  13.710   1.433
32723W        W 1053  22.622   6.706   9.967
32724W        W 1054  21.180  27.682   2.760
32725W        W 1055  36.865   6.279  10.443
32726W        W 1056  13.728  37.425  14.478
32727W        W 1057   5.872  15.098  14.405
32728W        W 1058   1.911   7.345  13.451
32729W        W 1059  20.101  16.725   4.184
32730W        W 1060  39.027  42.458   1.913
32731W        W 1061   8.181  40.389  13.947
32732W        W 1062  30.101  20.138  13.950
32733W        W 1063  17.271  38.331   0.439
32734W        W 1064   0.275  12.343   2.699
32735W        W 1065  29.928  11.209   0.324
32736W        W 1066   1.479  27.046   1.250
32737W        W 1067  26.663  18.732  11.921
32738W        W 1068   0.935  13.650   0.358
32739W        W 1069  37.423  29.017  12.069
32740W        W 1070  13.833  23.588   1.924
32741W        W 1071   4.421   3.713   0.418
32742W        W 1072  30.040  22.175  14.005
32743W        W 1073  27.138  23.183  10.506
32744W        W 1074  21.534  19.694  11.080
32745W        W 1075  39.514   2.822  11.602
32746W        W 1076   6.303   0.437  11.870
32747W        W 1077  38.908   5.854   1.701
32748W        W 1078   3.909   5.719   1.749
32749W        W 1079  20.244  13.178  12.010
32750W        W 1080  12.722  22.649   3.808
32751W        W 1081   0.780  23.993  11.972
32752W        W 1082  24.513  37.390   0.296
32753W        W 1083  40.386   1.395   0.791
32754W        W 1084  15.275  29.651  11.511
32755W        W 1085  23.113   0.369   0.272
32756W        W 1086  17.632  28.177   1.405
32757W        W 1087   4.413  15.619  14.806
32758W        W 1088   8.227  10.190  10.964
32759W        W 1089  12.148   1.483   3.635
32760W        W 1090  13.788   9.653  14.314
32761W        W 1091  35.428  30.501   2.882
32762W        W 1092   1.838  21.551  10.956
32763W        W 1093  27.999   6.226  11.033
32764W        W 1094  39.477  38.053  12.398
32765W        W 1095   6.201  14.304   3.215
32766W        W 1096   7.709  13.808   3.170
32767W        W 1097  23.598   0.952  10.507
32768W        W 1098  41.515   5.333  14.018
32769W        W 1099  13.770  39.958   2.365
32770W        W 1100   7.902  32.901   3.827
32771W        W 1101   7.724  18.097   2.278
32772W        W 1102  39.017  12.337  10.464
32773W        W 1103  24.604  37.345  14.780
32774W        W 1104  26.060  20.119  14.386
32775W        W 1105  31.009   4.754   3.653
32776W        W 1106  30.618   6.416  11.122
32777W        W 1107  25.473  16.588   0.761
32778W        W 1108  28.951  41.536  11.508
32779W        W 1109  33.012   3.405   4.118
32780W        W 1110  15.783  42.329   3.309
32781W        W 1111  32.999  33.039   1.294
32782W        W 1112  30.963  19.772  12.862
32783W        W 1113  30.622  14.595  12.358
32784W        W 1114  32.062  12.344   2.871
32785W        W 1115  12.756  19.596  12.369
32786W        W 1116  28.643  35.568  10.984
32787W        W 1117   5.251  36.072  13.995
32788W        W 1118   8.312  23.493   1.411
32789W        W 1119  19.137  40.390  10.605
32790W        W 1120  19.728  32.931   3.227
32791W        W 1121  14.142  40.482   1.390
32792W        W 1122   8.730  21.552  14.992
32793W        W 1123  24.211  43.924   2.352
32794W        W 1124  20.254  13.149   2.270
32795W        W 1125  16.213  36.043  12.065
32796W        W 1126  41.811  35.447  11.003
32797W        W 1127  24.518   4.782  14.381
32798W        W 1128  44.352   1.920   3.263
32799W        W 1129  27.187   3.393  11.377
32800W        W 1130   3.271   3.338  12.341
32801W        W 1131   2.789  33.874   0.470
32802W        W 1132   8.358   8.720   0.887
32803W        W 1133  35.926  32.401  10.466
32804W        W 1134  37.431  33.034   9.974
32805W        W 1135  42.991  20.052  11.403
32806W        W 1136  37.913  10.379   3.155
32807W        W 1137  26.627  24.050  12.047
32808W        W 1138  33.591  32.114   3.386
32809W        W 1139  33.604   0.264  10.934
32810W        W 1140   8.897  31.480  10.616
32811W        W 1141  13.164  13.313  13.989
32812W        W 1142  29.955  43.863  11.565
32813W        W 1143  39.941  19.676   5.235
32814W        W 1144   6.804  26.092  10.948
32815W        W 1145  43.012  21.537  10.626
32816W        W 1146  14.256  37.481   2.710
32817W        W 1147  25.612  24.615   3.863
32818W        W 1148  36.965  23.649   2.284
32819W        W 1149  17.291  42.930  14.292
32820W        W 1150  15.167  22.561  11.955
32821W        W 1151  11.831  16.281   4.838
32822W        W 1152  42.971  12.721   4.789
32823W        W 1153  43.928  14.725   0.734
32824W        W 1154   0.821  24.511   1.413
32825W        W 1155   5.340  29.581  10.627
32826W        W 1156   5.325  42.801  11.584
32827W        W 1157  17.222  21.233   3.653
32828W        W 1158  14.702  27.089  10.927
32829W        W 1159  20.754   9.216   2.313
32830W        W 1160  38.873  19.251   0.841
32831W        W 1161   5.750  41.885   0.770
32832W        W 1162  38.358   9.737   3.255
32833W        W 1163   1.407  39.328  13.512
32834W        W 1164   0.276   9.173  11.996
32835W        W 1165  28.591   8.242  11.428
32836W        W 1166  32.491   8.757  14.860
32837W        W 1167  36.084  27.027   0.903
32838W        W 1168  28.100  44.501   0.393
32839W        W 1169  42.381  27.125  12.950
32840W        W 1170  35.595  16.092  12.443
32841W        W 1171  36.541  43.934  14.276
32842W        W 1172  24.087  44.790   3.353
32843W        W 1173   0.295  17.300  13.445
32844W        W 1174   0.385   1.966  12.456
32845W        W 1175  44.441   3.438   1.422
32846W        W 1176  18.166  24.196   3.200
32847W        W 1177  31.948  39.808  14.792
32848W        W 1178   5.753   3.335  11.564
32849W        W 1179  44.484   8.378  12.869
32850W        W 1180  16.767   0.467  13.978
32851W        W 1181  19.728  25.546  14.867
32852W        W 1182   6.211  40.960  13.358
32853W        W 1183  27.110  22.504  11.917
32854W        W 1184   2.404  16.610  11.463
32855W        W 1185  27.164  10.270   2.720
32856W        W 1186  26.116   4.257   3.736
32857W        W 1187  37.946  37.023  13.434
32858W        W 1188   0.935  39.998  13.311
32859W        W 1189  22.642  31.432   2.347
32860W        W 1190  24.092  42.456   1.356
32861W        W 1191  34.377   9.311   3.265
32862W        W 1192  19.096  44.459   1.406
32863W        W 1193   8.772   3.449  10.924
32864W        W 1194  21.630  17.233   3.767
32865W        W 1195  27.518  17.138   3.239
32866W        W 1196  27.628   3.367  10.424
32867W        W 1197  40.435  21.561   4.825
32868W        W 1198  39.808  30.530   4.750
32869W        W 1199   6.841  27.064  13.349
32870W        W 1200  40.498   8.242   1.817
32871W        W 1201  31.557  39.454  10.503
32872W        W 1202  21.169  35.049  12.568
32873W        W 1203  11.140  31.011   0.297
32874W        W 1204  38.993  40.447   1.900
32875W        W 1205  18.139  18.121  12.020
32876W        W 1206  22.619  27.592   3.364
32877W        W 1207   3.934  30.145  10.621
32878W        W 1208  10.309   7.234   2.664
32879W        W 1209   8.197  23.514  10.968
32880W        W 1210  22.216  40.333  14.914
32881W        W 1211   7.782   2.806  12.909
32882W        W 1212  12.695  34.507  12.881
32883W        W 1213   8.346  14.746   1.308
32884W        W 1214  36.485  28.633  14.891
32885W        W 1215  41.978  19.726   1.332
32886W        W 1216  39.534  14.642  13.316
32887W        W 1217  34.012   8.677   0.828
32888W        W 1218  29.544  15.642  10.450
32889W        W 1219   1.773  21.126  12.366
32890W        W 1220  28.468  11.348   4.685
32891W        W 1221  19.737  28.468   0.893
32892W        W 1222  10.381  29.041   2.712
32893W        W 1223  21.568  44.473  12.929
32894W        W 1224  12.716  31.919  14.414
32895W        W 1225  13.617  43.367   3.659
32896W        W 1226  14.678  17.638   1.752
32897W        W 1227  22.172   6.820   9.593
32898W        W 1228  33.938  26.127   0.845
32899W        W 1229  23.539  44.406   9.962
32900W        W 1230   2.368  10.870   4.639
32901W        W 1231  11.640  29.974   2.367
32902W        W 1232   6.395  32.969  12.540
32903W        W 1233  34.107   8.169  14.855
32904W        W 1234  34.016  42.350   0.473
32905W        W 1235  42.489  43.017  11.124
32906W        W 1236   2.361  43.911   1.397
32907W        W 1237  32.589  37.079  11.431
32908W        W 1238  13.347  29.476   4.694
32909W        W 1239  38.493  40.337   3.844
32910W        W 1240   8.237   6.321  10.617
32911W        W 1241   4.818  19.749   4.294
32912W        W 1242  30.611  42.921  13.879
32913W        W 1243  11.282  32.488  13.505
32914W        W 1244  22.587  21.656  10.531
32915W        W 1245  22.176  29.984   5.296
32916W        W 1246  11.775   5.230   2.822
32917W        W 1247  28.592  14.123   0.395
32918W        W 1248  26.551  22.745   0.360
32919W        W 1249  12.840  25.515  13.791
32920W        W 1250  30.968  13.116  10.610
32921W        W 1251  27.478   0.445  12.885
32922W        W 1252  17.234  38.050  10.923
32923W        W 1253  44.768  24.127   0.739
32924W        W 1254  28.585  27.996   2.779
32925W        W 1255  38.395  19.216  13.871
32926W        W 1256   6.278   6.280  12.970
32927W        W 1257  18.268   6.738   0.965
32928W        W 1258  18.745  41.381   3.764
32929W        W 1259  35.071  21.640   1.389
32930W        W 1260  26.023  28.947   4.136
32931W        W 1261  41.302  39.867   0.298
32932W        W 1262  32.987  34.548  14.771
32933W        W 1263  38.857  15.322  10.625
32934W        W 1264  44.780  19.668   2.680
32935W        W 1265  26.968  38.950  12.049
32936W        W 1266  13.231  10.211   4.607
32937W        W 1267  30.087  33.552  11.374
32938W        W 1268  30.506  34.592   4.822
32939W        W 1269  11.663  41.427   4.316
32940W        W 1270   4.734  12.695  13.024
32941W        W 1271  21.195  44.909   1.349
32942W        W 1272  34.990   0.281  14.383
32943W        W 1273  31.124  38.034   0.476
32944W        W 1274  11.194   5.723  13.991
32945W        W 1275   8.751  16.197  14.985
32946W        W 1276   0.362  12.753   2.325
32947W        W 1277  30.497  29.654   2.214
32948W        W 1278   5.425  39.829   0.299
32949W        W 1279  22.079  32.623  11.863
32950W        W 1280  44.304   8.161   3.336
32951W        W 1281  17.099  14.790  14.312
32952W        W 1282  12.279  15.672   3.330
32953W        W 1283  21.601  30.456   3.312
32954W        W 1284  17.799  43.910  10.582
32955W        W 1285  23.073  18.561  12.554
32956W        W 1286  43.851   7.674  12.057
32957W        W 1287  21.114  27.032  13.063
32958W        W 1288  26.551  26.533   3.697
32959W        W 1289   0.891   7.910   4.265
32960W        W 1290  16.657   2.774   0.256
32961W        W 1291  40.343  20.672   0.381
32962W        W 1292   4.855   2.832  11.913
32963W        W 1293  24.085  43.493   0.756
32964W        W 1294   7.885  39.467   4.250
32965W        W 1295  36.056  42.313   1.210
32966W        W 1296  20.170   5.853   3.714
32967W        W 1297   6.184  33.494   0.256
32968W        W 1298   9.727  31.056  11.942
32969W        W 1299  40.437  35.091   2.889
32970W        W 1300  15.734   9.196  13.825
32971W        W 1301  20.103  16.237   4.220
32972W        W 1302  42.936  40.347   4.604
32973W        W 1303  39.929  19.751  13.838
32974W        W 1304  39.922  28.006  13.811
32975W        W 1305  30.639  25.120  14.376
32976W        W 1306  18.296   7.740  11.402
32977W        W 1307  36.572  43.900   0.797
32978W        W 1308   1.290  23.642  10.478
32979W        W 1309  31.958  10.298  11.460
32980W        W 1310  10.173  18.691   2.749
32981W        W 1311  25.185  18.726  12.838
32982W        W 1312  18.689  40.392   4.683
32983W        W 1313  39.451  22.070  14.001
32984W        W 1314  39.359  22.031  10.903
32985W        W 1315   1.479  32.099   5.176
32986W        W 1316  31.413  12.711   1.445
32987W        W 1317  40.816  25.060  13.509
32988W        W 1318  34.512  38.002   1.349
32989W        W 1319  18.706  13.653   3.817
32990W        W 1320   5.341  14.282   1.871
32991W        W 1321   8.899  15.627  12.366
32992W        W 1322  25.019  13.344  10.013
32993W        W 1323  40.849  44.892  13.335
32994W        W 1324  27.544   8.854   0.852
32995W        W 1325  40.843  16.767  12.086
32996W        W 1326  40.861  39.529   0.356
32997W        W 1327  14.097  32.492  14.820
32998W        W 1328  26.994   1.290  14.290
32999W        W 1329  14.697  18.552   1.758
33000W        W 1330   8.870  30.617  14.306
33001W        W 1331  23.541  11.132  12.472
33002W        W 1332  29.538   6.782   1.884
33003W        W 1333  15.702   7.416  12.834
33004W        W 1334  31.499  31.517  14.813
33005W        W 1335  13.787  42.018  13.444
33006W        W 1336  15.328   2.278   0.476
33007W        W 1337  41.001   1.352  12.899
33008W        W 1338  23.114  23.166   1.922
33009W        W 1339  30.050  42.006   0.309
33010W        W 1340  36.399  20.235  12.369
33011W        W 1341  39.948  40.449   0.371
33012W        W 1342  22.141  28.089  11.509
33013W        W 1343  10.701  41.433   3.218
33014W        W 1344  25.642  36.496  13.503
33015W        W 1345   6.832  34.913  12.949
33016W        W 1346  12.202   4.277  12.434
33017W        W 1347  17.738   5.823   4.292
33018W        W 1348  42.893   3.871   0.477
33019W        W 1349  26.046  22.233   1.760
33020W        W 1350  42.791  33.593   2.754
33021W        W 1351  44.296  16.221  10.890
33022W        W 1352  43.900   7.686   1.784
33023W        W 1353  23.024   2.732   3.743
33024W        W 1354  21.580   7.329  10.522
33025W        W 1355   3.360   3.403  12.990
33026W        W 1356  19.227   2.923   3.722
33027W        W 1357   4.312  28.497   2.698
33028W        W 1358  17.266  21.644   3.245
33029W        W 1359  21.603  23.669   0.472
33030W        W 1360  40.533  44.489   3.673
33031W        W 1361  38.868  19.249   9.970
33032W        W 1362  12.283  43.304   0.928
33033W        W 1363   3.305  12.623   0.883
33034W        W 1364  34.609  21.052   1.402
33035W        W 1365  10.655   3.401   1.792
33036W        W 1366  21.732  22.552  14.981
33037W        W 1367  29.617  30.964   1.373
33038W        W 1368  21.131  12.610   0.244
33039W        W 1369  34.614  18.286  10.900
33040W        W 1370  19.095  35.593   1.256
33041W        W 1371  43.899  33.391   3.757
33042W        W 1372  27.125  27.545   4.723
33043W        W 1373  33.024  36.992   2.345
33044W        W 1374   7.372   8.851   1.849
33045W        W 1375   6.299  41.391   3.776
33046W        W 1376  29.167  30.922   2.895
33047W        W 1377  11.858  19.231   3.305
33048W        W 1378   0.381  22.543   0.308
33049W        W 1379   6.349  29.951   4.159
33050W        W 1380  23.677  31.404   4.342
33051W        W 1381  10.803  30.627   0.771
33052W        W 1382   6.855  31.007   0.321
33053W        W 1383  27.691  29.998   2.278
33054W        W 1384   0.788  22.012  14.831
33055W        W 1385  22.205   1.272   4.287
33056W        W 1386  20.217   1.827   4.274
33057W        W 1387   0.390  22.743   1.899
33058W        W 1388   2.839  18.789   0.849
33059W        W 1389  18.661  43.506   2.284
33060W        W 1390  24.602  28.599   3.675
33061W        W 1391  21.647  30.947   0.310
33062W        W 1392  30.959  23.524  12.045
33063W        W 1393  13.223  16.616   4.267
33064W        W 1394  17.604  31.600   1.894
33065W        W 1395  17.157  19.259  14.909
33066W        W 1396  10.655   8.275   2.405
33067W        W 1397  20.582  12.743   3.149
33068W        W 1398  12.346  37.012   4.116
33069W        W 1399  32.062  38.436  11.070
33070W        W 1400  26.056   9.158   4.629
33071W        W 1401  26.459  33.557  14.961
33072W        W 1402  20.665   1.294   2.876
33073W        W 1403  12.661  25.648   2.747
33074W        W 1404  24.554  21.749   1.267
33075W        W 1405   5.388  41.990   0.370
33076W        W 1406  41.975  30.493  11.517
33077W        W 1407  13.681  17.100   0.779
33078W        W 1408  25.197   3.854  13.817
33079W        W 1409  10.166  38.013   0.932
33080W        W 1410  41.893  17.710  12.020
33081W        W 1411  43.346  43.335  12.505
33082W        W 1412  41.845  29.571   9.987
33083W        W 1413  36.487   9.658  10.432
33084W        W 1414  41.441  23.228  14.797
33085W        W 1415  15.310  34.551   3.719
33086W        W 1416   8.733  43.463   0.840
33087W        W 1417  42.984  32.589  12.959
33088W        W 1418  43.432  14.676  12.572
33089W        W 1419  19.074  12.676   4.154
33090W        W 1420  17.762  36.570  13.464
33091W        W 1421  18.085  21.041  11.094
33092W        W 1422   5.234   5.909   4.307
33093W        W 1423   2.813  22.019  11.393
33094W        W 1424  28.644   9.378  12.447
33095W        W 1425   3.326   3.442  13.839
33096W        W 1426  22.501  24.689  13.400
33097W        W 1427  23.996   5.343   1.840
33098W        W 1428  41.380  15.633   3.850
33099W        W 1429  28.500   6.354  14.863
33100W        W 1430  13.743  26.498   2.716
33101W        W 1431  39.337   2.916  14.508
33102W        W 1432  42.841  43.920  14.347
33103W        W 1433  17.096  22.626   4.728
33104W        W 1434  22.023   4.427   0.411
33105W        W 1435  28.052   5.869   2.896
33106W        W 1436  30.616  44.801   2.697
33107W        W 1437  35.885  21.729   4.763
33108W        W 1438  21.681  29.530   1.857
33109W        W 1439  26.087  16.314  11.576
33110W        W 1440  24.569  18.071  11.552
33111W        W 1441  30.083  12.306  11.610
33112W        W 1442  18.565  29.429   0.748
33113W        W 1443  34.915   1.762  11.024
33114W        W 1444   8.353   8.394   1.721
33115W        W 1445   0.385  21.677   3.840
33116W        W 1446   2.734  43.274   4.277
33117W        W 1447   9.165  15.271   4.627
33118W        W 1448   7.806  13.705   2.676
33119W        W 1449   9.164  32.575   1.864
33120W        W 1450  36.541  37.436   0.787
33121W        W 1451  26.965  24.641   4.159
33122W        W 1452  20.244  31.997  14.435
33123W        W 1453  30.523  25.068   2.825
33124W        W 1454  34.550  35.937   1.720
33125W        W 1455  37.572  32.436  12.995
33126W        W 1456  32.066  19.599   4.668
33127W        W 1457   8.287  26.148  10.535
33128W        W 1458  41.378  25.184   0.879
33129W        W 1459   2.414  44.853  11.904
33130W        W 1460  37.533  20.028   0.283
33131W        W 1461  40.986   7.325  13.943
33132W        W 1462  34.406  13.147   4.787
33133W        W 1463  29.069  34.891  11.999
33134W        W 1464  27.474   9.821   1.792
33135W        W 1465  14.783   5.868  10.434
33136W        W 1466  29.514  19.253   3.254
33137W        W 1467  39.846  42.374   3.637
33138W        W 1468   7.348  31.532  12.877
33139W        W 1469  35.017  13.227   1.725
33140W        W 1470   5.932  43.289  12.045
33141W        W 1471  35.096   1.735   3.835
33142W        W 1472   2.798  31.148  11.491
33143W        W 1473  44.271   3.711  13.964
33144W        W 1474  30.475   9.759   2.314
33145W        W 1475  28.481   5.329  11.085
33146W        W 1476  26.584  42.960  13.430
33147W        W 1477   7.370  20.750   1.390
33148W        W 1478  38.540  34.895   1.891
33149W        W 1479  27.501  41.429  10.572
33150W        W 1480  44.936  32.469  12.455
33151W        W 1481  22.646  43.454  10.104
33152W        W 1482  25.693  19.069  10.530
33153W        W 1483   6.883  29.526   4.727
33154W        W 1484  29.586   9.778   1.314
33155W        W 1485   5.832  34.398   3.167
33156W        W 1486  19.208  40.491  13.849
33157W        W 1487  37.406  13.602   4.682
33158W        W 1488  37.841  17.713  11.594
33159W        W 1489  30.648  25.641  10.634
33160W        W 1490  30.063   9.386  14.947
33161W        W 1491  34.553   6.311   1.800
33162W        W 1492  29.602  17.731   3.762
33163W        W 1493  33.879  40.872   0.276
33164W        W 1494  38.972  27.008  12.050
33165W        W 1495   2.459  11.712  11.551
33166W        W 1496  42.980  43.841  12.861
33167W        W 1497  32.476  40.494   0.854
33168W        W 1498  27.029  35.016   1.383
33169W        W 1499  40.040  36.447   4.599
33170W        W 1500  39.515  26.470   4.712
33171W        W 1501   2.948   3.234   4.766
33172W        W 1502   0.892  39.524  12.067
33173W        W 1503  26.485  35.083  10.948
33174W        W 1504  43.810  23.504  13.951
33175W        W 1505  41.794  39.051   1.924
33176W        W 1506  25.991  23.496  14.988
33177W        W 1507  12.336  30.653  14.305
33178W        W 1508   7.288  14.148   1.715
33179W        W 1509  17.088   4.348   4.748
33180W        W 1510  35.492  10.776   1.444
33181W        W 1511  18.727  35.039  14.957
33182W        W 1512  30.013  31.945   1.435
33183W        W 1513  42.452  14.264  12.830
33184W        W 1514   9.700   5.890   0.892
33185W        W 1515  36.359  20.168  10.997
33186W        W 1516  18.093  20.221   3.699
33187W        W 1517  18.647  19.252   3.758
33188W        W 1518  18.775  11.711   5.154
33189W        W 1519  29.138  31.495  12.555
33190W        W 1520  14.697  25.496   2.851
33191W        W 1521  13.165  16.743   2.846
33192W        W 1522   1.785  26.964   0.483
33193W        W 1523  43.273   1.414  11.611
33194W        W 1524  19.655  26.681  13.010
33195W        W 1525   3.460  25.079   4.778
33196W        W 1526  13.762  18.659   1.294
33197W        W 1527  42.388  32.935   3.266
33198W        W 1528   6.199   4.251  11.915
33199W        W 1529  27.502   8.369   2.736
33200W        W 1530  35.962  43.942  14.870
33201W        W 1531  12.243  36.842  12.519
33202W        W 1532   5.713  39.863  13.015
33203W        W 1533  23.047   1.439  10.933
33204W        W 1534  36.436  22.720  13.342
33205W        W 1535   4.335  18.757   2.323
33206W        W 1536  39.974  25.200  11.442
33207W        W 1537  34.610  17.083  10.928
33208W        W 1538  23.987   9.678  11.962
33209W        W 1539  18.285  43.509  14.312
33210W        W 1540   2.411  21.572   1.732
33211W        W 1541   6.923  43.004   4.146
33212W        W 1542  13.823  11.230   3.179
33213W        W 1543  11.733  23.187  11.929
33214W        W 1544  36.443  32.463  12.866
33215W        W 1545  35.045  43.352   4.729
33216W        W 1546  43.933  30.514   2.182
33217W        W 1547  20.615  42.318   3.331
33218W        W 1548  12.297  16.195   3.359
33219W        W 1549  43.918  37.430   0.961
33220W        W 1550  22.089   7.390  14.973
33221W        W 1551  35.885   7.807  14.329
33222W        W 1552  40.938  31.091  11.090
33223W        W 1553  14.281   6.815  11.561
33224W        W 1554  43.312  17.217  14.370
33225W        W 1555  24.019  23.627   3.197
33226W        W 1556  11.859  14.327  13.862
33227W        W 1557  38.503  31.604   0.773
33228W        W 1558  30.936   6.742  12.883
33229W        W 1559  16.782  29.977   1.850
33230W        W 1560  19.746  23.125  14.977
33231W        W 1561  38.335  42.006   3.694
33232W        W 1562  25.015  37.953   0.908
33233W        W 1563  37.933   2.446   2.227
33234W        W 1564   3.713   9.767   2.715
33235W        W 1565   9.686  17.149  13.335
33236W        W 1566  39.325  25.979  11.527
33237W        W 1567  12.260   5.802  10.957
33238W        W 1568  15.148  39.897  10.453
33239W        W 1569  25.099  39.037   3.743
33240W        W 1570  31.516  43.795   3.648
33241W        W 1571  21.180  42.898   4.326
33242W        W 1572  27.588  34.988  13.322
33243W        W 1573  18.232  13.201   4.156
33244W        W 1574  15.798   7.385  13.845
33245W        W 1575  34.382   5.386  14.433
33246W        W 1576  18.248   4.736   2.209
33247W        W 1577   1.460  22.214   0.292
33248W        W 1578  41.963  22.579  14.860
33249W        W 1579  32.448  31.505   1.885
33250W        W 1580  16.225  33.073   2.729
33251W        W 1581  25.188  30.430   0.310
33252W        W 1582  10.253   5.785   3.177
33253W        W 1583   4.920  13.142  10.956
33254W        W 1584  20.594  20.249  12.830
33255W        W 1585  36.388   6.279   4.328
33256W        W 1586  12.805   8.191  13.844
33257W        W 1587  10.159  43.413  12.063
33258W        W 1588  32.604  36.968   1.427
33259W        W 1589  24.229  44.308  14.481
33260W        W 1590   7.671   2.751   4.655
33261W        W 1591   7.815  36.518  11.542
33262W        W 1592  36.931  16.284   4.275
33263W        W 1593  35.478  39.463   4.235
33264W        W 1594   0.374  22.191   0.355
33265W        W 1595  34.476  34.501  14.441
33266W        W 1596  22.624  20.605   3.711
33267W        W 1597  21.214  39.377  11.051
33268W        W 1598  30.446  35.998   0.403
33269W        W 1599  43.413   6.840   4.161
33270W        W 1600  15.599  17.634   1.226
33271W        W 1601   3.305   2.466  14.498
33272W        W 1602  29.158  42.323  12.889
33273W        W 1603   0.924  37.993  14.001
33274W        W 1604   3.325  35.550   3.254
33275W        W 1605   3.953   4.419  13.458
33276W        W 1606   6.764  41.438  14.467
33277W        W 1607   3.867   2.842  14.430
33278W        W 1608  19.649  23.624   3.320
33279W        W 1609   1.237   4.393  14.366
33280W        W 1610  22.680  29.502   5.315
33281W        W 1611  21.128  39.064   1.882
33282W        W 1612  26.000  16.715   3.332
33283W        W 1613  23.621  44.267  12.960
33284W        W 1614  33.092   1.256  13.024
33285W        W 1615  22.530  36.433  12.870
33286W        W 1616   1.976  43.916  14.956
33287W        W 1617  35.568  34.590  12.985
33288W        W 1618  44.494   0.258  10.560
33289W        W 1619  17.678  20.187   0.892
33290W        W 1620  33.888  15.748   1.784
33291W        W 1621  20.042  34.023   0.390
33292W        W 1622  26.169  23.625  11.973
33293W        W 1623  12.844  15.623  10.966
33294W        W 1624  32.067   7.233   3.686
33295W        W 1625  36.858  27.149  10.889
33296W        W 1626  40.400   7.337  11.001
33297W        W 1627  13.714  23.145   2.298
33298W        W 1628  21.235  22.548   3.697
33299W        W 1629  29.927  35.416   4.820
33300W        W 1630  44.349  15.812  12.936
33301W        W 1631   4.249  14.316   3.849
33302W        W 1632  41.804   5.314   2.337
33303W        W 1633  39.933  12.678   0.792
33304W        W 1634   0.779  17.656  14.424
33305W        W 1635  24.594  29.633  11.496
33306W        W 1636   2.750  12.355   2.231
33307W        W 1637  25.663  17.080  13.064
33308W        W 1638  44.404   9.663  11.971
33309W        W 1639  40.982  29.093  11.528
33310W        W 1640  28.629  17.773  14.489
33311W        W 1641  11.650  21.088   1.757
33312W        W 1642  22.163  39.027  10.644
33313W        W 1643  16.160  16.174  13.799
33314W        W 1644  43.396  13.813   0.347
33315W        W 1645  32.626  12.683  11.945
33316W        W 1646  13.199  12.295  12.411
33317W        W 1647  19.075  23.587  14.766
33318W        W 1648  16.236   6.325  14.286
33319W        W 1649  26.594  10.281   2.204
33320W        W 1650   3.852   6.289  11.580
33321W        W 1651  18.767   4.254  10.603
33322W        W 1652  19.104   1.947   3.717
33323W        W 1653  20.033  10.819   3.861
33324W        W 1654  35.861  33.036   2.367
33325W        W 1655   3.318  33.385  12.351
33326W        W 1656   7.320  24.118  14.427
33327W        W 1657  14.600  15.217   0.874
33328W        W 1658   7.384  42.335   2.835
33329W        W 1659  31.134  11.336  11.083
33330W        W 1660  17.286  24.544  12.363
33331W        W 1661  40.953   0.905   2.272
33332W        W 1662  44.789  40.322  12.435
33333W        W 1663  19.145   5.216  14.496
33334W        W 1664  15.263  40.837   1.822
33335W        W 1665   3.311  10.254   4.168
33336W        W 1666  21.649  28.472  13.061
33337W        W 1667   5.820  37.403   5.138
33338W        W 1668  32.123   8.286  10.454
33339W        W 1669   5.371  14.759  12.488
33340W        W 1670  31.043  36.983  12.400
33341W        W 1671  37.398  21.546  10.516
33342W        W 1672  27.486  14.810   3.218
33343W        W 1673  37.539  19.585   4.311
33344W        W 1674   0.267  33.000   0.828
33345W        W 1675  42.314  34.585   4.182
33346W        W 1676   2.758   9.863   4.277
33347W        W 1677   9.318  27.461   4.206
33348W        W 1678  28.444  41.875  11.029
33349W        W 1679  18.285  34.557   4.834
33350W        W 1680  34.977  32.078   2.350
33351W        W 1681  25.676  39.024  10.019
33352W        W 1682  37.979  32.077   1.403
33353W        W 1683  24.546  44.453   4.799
33354W        W 1684   4.943  17.679   3.647
33355W        W 1685  24.548  32.118   2.258
33356W        W 1686  18.642   3.364  12.522
33357W        W 1687   6.286  17.686  10.988
33358W        W 1688  13.272  36.961   3.245
33359W        W 1689  35.907  28.616   0.303
33360W        W 1690  11.662  27.665  12.827
33361W        W 1691   0.744   5.328  13.030
33362W        W 1692  39.426  37.367  13.841
33363W        W 1693  12.189  18.173  11.574
33364W        W 1694  25.173   0.923  13.920
33365W        W 1695   2.425  11.323  11.611
33366W        W 1696   1.320  20.761  13.427
33367W        W 1697  34.494   2.436   0.276
33368W        W 1698  42.028   9.380   1.403
33369W        W 1699  24.576   7.416  14.796
33370W        W 1700  39.492   0.341  10.562
33371W        W 1701   9.715   4.874   0.882
33372W        W 1702  17.134  38.507   2.868
33373W        W 1703  16.076   5.410  14.490
33374W        W 1704   0.877  21.515   1.278
33375W        W 1705  15.580  16.773   3.169
33376W        W 1706  42.459  34.117   2.676
33377W        W 1707   2.240  38.542   5.293
33378W        W 1708   9.832  32.114   0.414
33379W        W 1709  16.602  38.027   5.124
33380W        W 1710  22.180  27.151  11.436
33381W        W 1711  36.482  15.095   4.806
33382W        W 1712   4.895  32.547   1.293
33383W        W 1713  36.418   7.235  13.868
33384W        W 1714  43.437  24.018   2.295
33385W        W 1715  27.103  36.089   5.149
33386W        W 1716   2.910  21.617   2.799
33387W        W 1717  21.736  31.524   0.382
33388W        W 1718  41.024  43.939  11.990
33389W        W 1719  19.107  20.233  10.428
33390W        W 1720   9.341  26.180   0.861
33391W        W 1721  38.557   1.731   2.728
33392W        W 1722  26.145   3.371  13.529
33393W        W 1723  19.060  24.584   1.770
33394W        W 1724  32.128  15.582  12.551
33395W        W 1725  12.319   1.268  14.844
33396W        W 1726  12.791  19.101   0.453
33397W        W 1727  43.011  39.537  11.482
33398W        W 1728   5.706  42.789   4.304
33399W        W 1729   5.286  32.074  10.481
33400W        W 1730  21.066  31.012   3.336
33401W        W 1731  40.043  41.883  11.483
33402W        W 1732  43.994  41.519   1.264
33403W        W 1733  16.241   9.883  14.464
33404W        W 1734  10.358  37.485  14.876
33405W        W 1735  29.163  10.637   2.710
33406W        W 1736  10.353  42.775  10.909
33407W        W 1737  23.075   3.305   3.163
33408W        W 1738  13.750   7.266  12.022
33409W        W 1739  26.690  16.214  12.995
33410W        W 1740  24.582  13.129  11.509
33411W        W 1741  15.689   0.478   1.712
33412W        W 1742  35.897  26.098   4.176
33413W        W 1743   0.929  24.600   2.897
33414W        W 1744  16.663   0.933   0.914
33415W        W 1745  14.097  39.529  10.889
33416W        W 1746  29.999   2.753   1.426
33417W        W 1747  43.439  38.556  12.405
33418W        W 1748  17.591   6.802  12.393
33419W        W 1749  29.134  19.232   1.303
33420W        W 1750   9.355  41.882  13.307
33421W        W 1751   5.386   5.721   2.265
33422W        W 1752  36.545  41.425   1.873
33423W        W 1753  21.111  11.787   4.757
33424W        W 1754  13.710  39.521  13.390
33425W        W 1755   1.483  18.082  12.416
33426W        W 1756  41.521  26.456  13.852
33427W        W 1757  12.638  20.754  13.010
33428W        W 1758  33.917  14.696   4.202
33429W        W 1759  22.697   7.277   1.834
33430W        W 1760   6.734  24.587  13.948
33431W        W 1761  44.299  41.844   2.787
33432W        W 1762  20.599  23.646  11.378
33433W        W 1763  41.860   2.314   4.301
33434W        W 1764  16.770  14.824  14.020
33435W        W 1765   4.733  40.016  10.429
33436W        W 1766   2.861  28.579   0.364
33437W        W 1767  24.051   4.373   3.636
33438W        W 1768  41.401  30.525  10.544
33439W        W 1769  11.780  25.609  11.116
33440W        W 1770   4.322   5.244   1.251
33441W        W 1771  12.701  40.345   2.316
33442W        W 1772  16.794  38.927  11.125
33443W        W 1773  32.005  11.230  12.018
33444W        W 1774  18.188  25.635  13.427
33445W        W 1775  22.597   3.746  11.093
33446W        W 1776  34.069  14.257  13.912
33447W        W 1777  38.364  22.094   1.805
33448W        W 1778   1.927  19.276  12.959
33449W        W 1779  10.254  12.161  12.075
33450W        W 1780   1.380  11.761   1.827
33451W        W 1781  17.782  43.469  10.445
33452W        W 1782   7.889  28.994   3.259
33453W        W 1783  14.766  27.138   2.377
33454W        W 1784  29.923  34.544   1.268
33455W        W 1785  43.867  35.474   2.369
33456W        W 1786  21.703  30.602   0.386
33457W        W 1787   7.884   8.869  11.440
33458W        W 1788  33.553   1.435  13.318
33459W        W 1789   5.221  15.146  14.340
33460W        W 1790  38.354  19.160   1.366
33461W        W 1791  40.370  24.999  12.435
33462W        W 1792  44.803  19.132   1.871
33463W        W 1793  29.457   4.724  11.590
33464W        W 1794  39.959  38.516   2.868
33465W        W 1795  44.903  38.052  14.330
33466W        W 1796  26.196  37.340   3.364
33467W        W 1797  31.549  36.945  14.325
33468W        W 1798  17.572  37.004   1.387
33469W        W 1799   6.325  43.372  11.542
33470W        W 1800   2.293  24.640   2.241
33471W        W 1801  15.302  33.604   1.381
33472W        W 1802  22.197   8.799  12.093
33473W        W 1803   0.351  14.734   4.713
33474W        W 1804  43.844  10.344   4.835
33475W        W 1805  28.146  43.343   2.868
33476W        W 1806   9.679  17.183   1.906
33477W        W 1807   2.349  40.882  14.478
33478W        W 1808  10.334  21.258  13.362
33479W        W 1809   4.275  30.942   2.693
33480W        W 1810  20.689  26.684  13.822
33481W        W 1811  37.837   5.394  14.883
33482W        W 1812   0.343   2.744   4.187
33483W        W 1813  18.229  44.778  13.513
33484W        W 1814  22.602   5.228  10.526
33485W        W 1815  27.127  26.680  10.104
33486W        W 1816  17.587  41.306  14.003
33487W        W 1817  28.136   1.300   0.405
33488W        W 1818  38.474  22.227   3.261
33489W        W 1819  37.444  25.107   2.377
33490W        W 1820  25.596   7.818   4.322
33491W        W 1821   5.908  15.242   3.323
33492W        W 1822  18.228   2.771   1.885
33493W        W 1823   8.236  11.833  12.086
33494W        W 1824  24.138   1.856  10.419
33495W        W 1825   5.892  42.308   0.388
33496W        W 1826   5.336  24.687  10.581
33497W        W 1827  10.874  22.210  11.402
33498W        W 1828  31.067  17.567  13.928
33499W        W 1829  20.259  31.515  10.946
33500W        W 1830  35.591  27.158  13.422
33501W        W 1831   0.293  30.959  11.450
33502W        W 1832  25.484   3.311   4.818
33503W        W 1833  43.820   0.856  14.284
33504W        W 1834  33.989  36.389  12.356
33505W        W 1835   5.221  41.497   5.118
33506W        W 1836  30.908  16.766  14.872
33507W        W 1837  18.287  41.378  14.845
33508W        W 1838  41.328  27.984  12.525
33509W        W 1839   4.913  11.338   3.201
33510W        W 1840  44.964   3.878  14.480
33511W        W 1841  35.596  40.376  10.463
33512W        W 1842  38.942  40.927   4.220
33513W        W 1843  42.454   8.277  13.033
33514W        W 1844  28.092  16.657  11.096
33515W        W 1845  13.817  25.025   2.372
33516W        W 1846  22.108   1.335  10.472
33517W        W 1847  17.694  19.608   1.243
33518W        W 1848   6.775  34.477   0.761
33519W        W 1849  16.273  42.968   3.693
33520W        W 1850  41.976  20.712   1.448
33521W        W 1851  43.999  24.655   2.330
33522W        W 1852  24.227  21.595   2.879
33523W        W 1853   3.300  17.092   1.404
33524W        W 1854  28.622  14.779   4.765
33525W        W 1855  39.495   9.774  14.328
33526W        W 1856  20.104  21.129   4.314
33527W        W 1857  34.042  40.383  13.945
33528W        W 1858   7.195   9.722   4.826
33529W        W 1859  25.013  42.339   0.896
33530W        W 1860  27.479  10.295  13.446
33531W        W 1861   7.845   2.429  12.369
33532W        W 1862   6.366  43.480  11.007
33533W        W 1863  42.852  34.446   9.921
33534W        W 1864   8.740  19.196   3.672
33535W        W 1865  13.293   5.831  13.976
33536W        W 1866  44.275  33.408  14.789
33537W        W 1867  41.479  29.992  14.425
33538W        W 1868  35.549  16.694   4.151
33539W        W 1869  15.212  18.073  12.498
33540W        W 1870   8.724  44.354   2.286
33541W        W 1871  10.850  24.033  14.317
33542W        W 1872  44.896  10.633  14.427
33543W        W 1873  29.058  23.056  11.589
33544W        W 1874  44.491  11.140   3.638
33545W        W 1875  11.322  44.774   4.648
33546W        W 1876  14.147  11.148  12.367
33547W        W 1877  27.094   4.270   2.737
33548W        W 1878  14.221  38.334   4.729
33549W        W 1879  33.090  17.189  12.928
33550W        W 1880  36.857  29.074  10.416
33551W        W 1881  19.067  11.798   1.446
33552W        W 1882   7.358   7.204  13.313
33553W        W 1883  27.675   9.166   3.179
33554W        W 1884  24.982   4.322   3.354
33555W        W 1885   7.337  36.914  10.452
33556W        W 1886  30.121   6.232  10.556
33557W        W 1887  16.233  37.014  10.521
33558W        W 1888  22.250   2.838  13.478
33559W        W 1889  35.936  31.471   2.248
33560W        W 1890  38.853  22.614  11.513
33561W        W 1891  23.025   4.211  12.022
33562W        W 1892  40.401  29.529   1.337
33563W        W 1893  15.172  16.674  12.447
33564W        W 1894  21.545  10.186   0.740
33565W        W 1895  11.247   4.349  13.533
33566W        W 1896  25.005  34.068  11.032
33567W        W 1897  37.021  31.517  12.523
33568W        W 1898  32.510  12.681  14.940
33569W        W 1899   5.924  36.489  13.004
33570W        W 1900  40.807  25.195  13.047
33571W        W 1901  43.980  21.088   2.283
33572W        W 1902  10.150  31.909   3.802
33573W        W 1903   3.351   0.754  14.918
33574W        W 1904  32.961   0.778   2.395
33575W        W 1905  33.941   5.759   4.208
33576W        W 1906  28.594  31.142   5.744
33577W        W 1907  27.095  43.869  12.375
33578W        W 1908  17.291  20.195  10.117
33579W        W 1909  23.684  15.145   1.430
33580W        W 1910  29.088   8.694   2.342
33581W        W 1911  27.692  33.025  13.344
33582W        W 1912  37.902  19.261  12.041
33583W        W 1913  32.925  38.936   4.146
33584W        W 1914  13.710   5.419   0.815
33585W        W 1915  43.502  33.511  13.326
33586W        W 1916  16.574  17.654   4.762
33587W        W 1917  10.804  27.009   4.173
33588W        W 1918  34.524   4.777  11.887
33589W        W 1919   6.678  11.330  11.562
33590W        W 1920  21.111  24.164  12.838
33591W        W 1921  19.762  35.919  11.548
33592W        W 1922  13.335   4.874   0.431
33593W        W 1923  33.531  20.592   2.214
33594W        W 1924   2.431  25.691  10.545
33595W        W 1925  32.435  26.082   1.764
33596W        W 1926  36.944  31.096  12.537
33597W        W 1927  40.377   7.212  10.624
33598W        W 1928  21.085  30.090   0.411
33599W        W 1929   8.735  31.612   1.746
33600W        W 1930  33.047  20.033  13.024
33601W        W 1931   1.838  17.212   2.671
33602W        W 1932  43.966  15.623   3.713
33603W        W 1933   8.675  16.633  13.795
33604W        W 1934  19.283  39.049   0.794
33605W        W 1935  37.542  20.574  11.382
33606W        W 1936  15.605  24.189  12.437
33607W        W 1937  22.635   9.227   4.824
33608W        W 1938  35.498   7.805  10.933
33609W        W 1939  32.052  31.936  10.428
33610W        W 1940  13.673  31.426   0.271
33611W        W 1941  31.553  27.966   2.825
33612W        W 1942  10.183  12.293   2.707
33613W        W 1943  41.388  38.844  13.318
33614W        W 1944  42.882  23.679   2.233
33615W        W 1945  41.363  18.050  12.487
33616W        W 1946   9.845   1.819  11.858
33617W        W 1947  32.624  42.941  14.955
33618W        W 1948   6.795  36.033   1.404
33619W        W 1949  36.991  17.682  14.986
33620W        W 1950  28.650   2.384  14.482
33621W        W 1951   2.837  35.560   4.222
33622W        W 1952   7.839  20.254   3.692
33623W        W 1953   6.237  42.876  12.467
33624W        W 1954  39.918  23.223   0.756
33625W        W 1955  34.071   4.870  12.860
33626W        W 1956  44.449   9.758   0.901
33627W        W 1957   7.818   7.172  10.544
33628W        W 1958  33.384   2.442  14.296
33629W        W 1959  27.599   7.846  11.006
33630W        W 1960  11.842  37.920  13.037
33631W        W 1961   0.287  24.501  10.900
33632W        W 1962  21.705  37.081  12.414
33633W        W 1963   7.867  41.878   0.948
33634W        W 1964  24.559   9.327  12.942
33635W        W 1965  10.206  22.041   2.680
33636W        W 1966  13.711   6.209   1.362
33637W        W 1967  10.794  22.607   2.667
33638W        W 1968  25.522  32.028   3.811
33639W        W 1969  26.538  25.531  12.021
33640W        W 1970  20.711  20.200  12.086
33641W        W 1971  32.491  21.146  11.553
33642W        W 1972   2.387  16.584   2.336
33643W        W 1973  25.153  26.982   4.143
33644W        W 1974  39.965  26.581   0.324
33645W        W 1975  27.167  37.344  12.019
33646W        W 1976  39.422  20.592   1.218
33647W        W 1977  18.264  32.891   0.294
33648W        W 1978  33.599  18.633   1.708
33649W        W 1979  43.896  23.084   3.641
33650W        W 1980  25.643  26.205   1.409
33651W        W 1981  28.457  18.084   2.377
33652W        W 1982  11.765   0.898   2.830
33653W        W 1983  13.643  42.872   4.733
33654W        W 1984  29.659  21.534   1.251
33655W        W 1985   0.841  23.498   1.754
33656W        W 1986  29.926  11.731   0.429
33657W        W 1987  40.465   5.270   3.718
33658W        W 1988  16.176  16.256   2.801
33659W        W 1989  14.169   0.756  10.608
33660W        W 1990   8.268  42.486  11.876
33661W        W 1991  33.091  11.367   2.784
33662W        W 1992  11.788  31.413  10.578
33663W        W 1993  36.561  36.905   2.389
33664W        W 1994  32.566  30.134   1.317
33665W        W 1995  27.945  21.261  14.475
33666W        W 1996   7.330   8.359   4.644
33667W        W 1997  23.091  37.052   1.739
33668W        W 1998  15.744  27.191   0.771
33669W        W 1999  42.869  24.548   4.147
33670W        W 2000  18.249  14.599  11.441
33671W        W 2001  33.483  41.330   0.467
33672W        W 2002  19.091   0.874  12.991
33673W        W 2003  12.633  25.997   4.291
33674W        W 2004  20.591  20.742   2.395
33675W        W 2005   5.860  26.522  13.963
33676W        W 2006   1.295  26.957   4.197
33677W        W 2007   1.388  41.490   4.205
33678W        W 2008  28.964  23.599  14.850
33679W        W 2009  10.874   1.872  14.999
33680W        W 2010  12.792   4.921  11.918
33681W        W 2011  21.630  36.018   1.887
33682W        W 2012   1.971  25.500   2.770
33683W        W 2013  28.952  44.797   2.696
33684W        W 2014  38.890  19.269   2.784
33685W        W 2015  40.847  23.083   1.765
33686W        W 2016  24.597  34.578  10.991
33687W        W 2017   6.211  38.838  10.406
33688W        W 2018  16.200  40.841   2.190
33689W        W 2019   3.275  23.053  13.379
33690W        W 2020  38.465  25.208  12.058
33691W        W 2021  44.953  35.538   4.335
33692W        W 2022  22.541  35.039   3.818
33693W        W 2023  13.804  17.722   4.619
33694W        W 2024  37.443  23.072   0.252
33695W        W 2025  35.947   7.781  11.393
33696W        W 2026  42.478  19.139  13.902
33697W        W 2027  23.158  41.476   4.297
33698W        W 2028  30.516  43.012  13.054
33699W        W 2029  29.120  32.047   5.266
33700W        W 2030   5.321   0.303  12.465
33701W        W 2031  36.850  12.272  14.456
33702W        W 2032  16.664  25.087   4.251
33703W        W 2033   7.834  14.777   0.405
33704W        W 2034  21.583  10.265   2.803
33705W        W 2035  43.830   0.389   2.862
33706W        W 2036  15.638   6.413   3.253
33707W        W 2037  22.245  23.118  12.934
33708W        W 2038  11.805  15.162  13.504
33709W        W 2039  16.266  28.460  12.371
33710W        W 2040  29.086   8.710  12.923
33711W        W 2041  36.379  21.107   2.697
33712W        W 2042   7.798   9.256   0.783
33713W        W 2043  25.118   9.284  10.443
33714W        W 2044  19.606  41.482  12.401
33715W        W 2045  42.988  19.167   2.321
33716W        W 2046   6.375  29.166  11.899
33717W        W 2047  38.852  37.343  12.851
33718W        W 2048  40.489  12.662   4.750
33719W        W 2049  14.679  44.338   3.714
33720W        W 2050   4.778  34.971  13.035
33721W        W 2051  21.529  28.487   5.111
33722W        W 2052  14.813  44.841  12.569
33723W        W 2053  13.695  10.153   1.701
33724W        W 2054  32.463  34.602   5.251
33725W        W 2055   6.790  30.528   2.778
33726W        W 2056  41.968  22.572  11.415
33727W        W 2057  43.881   5.274  13.535
33728W        W 2058  37.484  10.309   5.236
33729W        W 2059  33.619  39.375   4.265
33730W        W 2060   6.419  25.141   2.734
33731W        W 2061  39.343  23.647  14.394
33732W        W 2062  40.484  29.923  14.814
33733W        W 2063   7.227  22.604   3.853
33734W        W 2064  27.087  34.503  12.005
33735W        W 2065  21.200   8.862   4.223
33736W        W 2066  27.168  27.493  14.426
33737W        W 2067   0.474  13.807  11.485
33738W        W 2068  16.620   5.708   4.123
33739W        W 2069  38.334   0.449   2.251
33740W        W 2070  15.148  22.588  10.471
33741W        W 2071  35.387  37.379   2.855
33742W        W 2072  40.349  17.241  14.787
33743W        W 2073  23.193  24.584   1.385
33744W        W 2074  24.209  36.869  13.317
33745W        W 2075  31.432  34.411   4.250
33746W        W 2076  14.817  21.219  11.968
33747W        W 2077   7.851   1.903  10.449
33748W        W 2078  19.262  14.667   4.661
33749W        W 2079   1.443  43.944  10.963
33750W        W 2080  16.221  33.013   0.448
33751W        W 2081  38.347   8.717   2.857
33752W        W 2082  44.295   1.430   3.178
33753W        W 2083   5.903  16.776  12.873
33754W        W 2084   8.730  37.869  12.515
33755W        W 2085  10.191   8.397  12.976
33756W        W 2086  42.780  16.094   2.837
33757W        W 2087  29.471  23.194   4.133
33758W        W 2088  29.153  22.073   0.877
33759W        W 2089  40.976  25.520  12.089
33760W        W 2090   7.201  17.666   1.317
33761W        W 2091  31.537   8.786   1.782
33762W        W 2092  41.407  29.922   0.830
33763W        W 2093   9.831  11.371   0.336
33764W        W 2094  32.426   8.383   0.960
33765W        W 2095  44.331  10.382   0.463
33766W        W 2096  22.524  36.937  11.540
33767W        W 2097  41.439  19.689  11.959
33768W        W 2098  32.553  40.990  10.477
33769W        W 2099  34.896  19.206  11.020
33770W        W 2100  39.361   3.888   0.917
33771W        W 2101   4.344  16.773  10.634
33772W        W 2102  12.656  34.561  14.805
33773W        W 2103  35.593  40.926  12.001
33774W        W 2104  14.167  21.172   2.740
33775W        W 2105  23.131   1.750   1.806
33776W        W 2106   2.241   8.779  14.374
33777W        W 2107  38.460   3.400   0.458
33778W        W 2108  40.311  19.643  11.858
33779W        W 2109  16.299  35.026   1.758
33780W        W 2110   6.227  43.895   1.275
33781W        W 2111  20.118   3.851  12.963
33782W        W 2112  33.385  43.285  14.515
33783W        W 2113  20.701  34.607  13.995
33784W        W 2114   6.761  21.601  12.058
33785W        W 2115  34.458  30.144  14.466
33786W        W 2116  25.577   2.448   2.860
33787W        W 2117  39.551  43.343   2.235
33788W        W 2118   2.953   0.483  11.870
33789W        W 2119  38.979  22.506  14.353
33790W        W 2120  17.717  16.621   3.291
33791W        W 2121  38.914  12.228  11.392
33792W        W 2122  39.553  38.071  10.442
33793W        W 2123  13.632  32.116  14.422
33794W        W 2124  22.071  21.631  14.506
33795W        W 2125  24.222  27.113  14.023
33796W        W 2126   1.887  14.695   4.645
33797W        W 2127  18.570  44.331   4.276
33798W        W 2128   0.954  17.191  10.452
33799W        W 2129   2.429  18.610  11.918
33800W        W 2130  19.217  16.706   1.274
33801W        W 2131  15.578  38.906  12.874
33802W        W 2132  21.579  42.889   5.233
33803W        W 2133  21.612  17.749  14.455
33804W        W 2134  34.938   5.691  12.375
33805W        W 2135   0.770  41.344   9.937
33806W        W 2136  33.929   6.267   4.658
33807W        W 2137  37.974  41.484   2.345
33808W        W 2138  16.121  16.678  11.440
33809W        W 2139  32.141  22.007  12.385
33810W        W 2140  26.688  29.646   2.188
33811W        W 2141  28.079  40.813   2.838
33812W        W 2142  29.621  37.503  13.017
33813W        W 2143   9.646  25.620   2.309
33814W        W 2144  30.509  44.831   3.317
33815W        W 2145  32.545  24.601  10.634
33816W        W 2146  26.507  13.236  14.010
33817W        W 2147  13.746   5.252  10.985
33818W        W 2148  32.913  44.433   4.213
33819W        W 2149   0.389  31.063   1.440
33820W        W 2150  17.173  39.843   2.768
33821W        W 2151  21.253  14.168  12.515
33822W        W 2152  12.664  16.085  14.898
33823W        W 2153  28.511  36.030  10.995
33824W        W 2154  34.030  21.145  14.863
33825W        W 2155  28.467   6.270  12.042
33826W        W 2156   7.721   9.672  11.046
33827W        W 2157  15.590   2.345  13.791
33828W        W 2158  12.825  37.927  10.548
33829W        W 2159  14.165  38.925  11.412
33830W        W 2160  35.082  15.094  10.490
33831W        W 2161  43.463  34.993  13.828
33832W        W 2162  43.802   4.747   0.344
33833W        W 2163  33.485  20.598  14.789
33834W        W 2164  36.394  40.517   0.377
33835W        W 2165  36.400  35.059  12.562
33836W        W 2166  36.914  22.143   0.905
33837W        W 2167  38.926  40.833  12.393
33838W        W 2168   9.250  23.720  14.782
33839W        W 2169  38.341  31.623  11.526
33840W        W 2170  29.096  38.392   2.219
33841W        W 2171  14.626  33.577  14.500
33842W        W 2172  40.368  35.888  14.366
33843W        W 2173  18.230  32.050  14.350
33844W        W 2174  37.019   0.937  10.460
33845W        W 2175   1.747   5.309   1.815
33846W        W 2176  22.689  15.162   2.409
33847W        W 2177  33.901  28.435  12.993
33848W        W 2178  10.274   0.949   0.772
33849W        W 2179  30.451   9.395   1.245
33850W        W 2180  34.510   7.217   4.316
33851W        W 2181  25.149  26.167  10.572
33852W        W 2182  20.729   0.887  11.003
33853W        W 2183   4.298  11.247   4.276
33854W        W 2184  10.787  15.598   0.359
33855W        W 2185  11.677   6.235   5.182
33856W        W 2186   7.210  21.051  10.944
33857W        W 2187  42.353  22.030   3.349
33858W        W 2188  24.516  29.120   0.277
33859W        W 2189  44.336  44.009  13.451
33860W        W 2190  22.708   3.767   3.252
33861W        W 2191  36.405  43.426   4.830
33862W        W 2192  29.998  12.340   0.926
33863W        W 2193  18.673  43.816  13.027
33864W        W 2194   7.400  17.776   4.600
33865W        W 2195   7.862   3.952  12.455
33866W        W 2196  42.833  26.625   0.285
33867W        W 2197  13.189   2.855   4.205
33868W        W 2198  13.727  10.826   4.725
33869W        W 2199  37.019  12.269  14.917
33870W        W 2200  27.507  41.414   1.372
33871W        W 2201  16.085  19.696  12.520
33872W        W 2202   0.946  30.650  14.959
33873W        W 2203   9.347  22.621  13.006
33874W        W 2204   8.724  22.575   2.252
33875W        W 2205  13.221  24.565   2.798
33876W        W 2206  12.812  20.669  12.578
33877W        W 2207  40.362  18.187  10.514
33878W        W 2208   0.746  33.947  10.967
33879W        W 2209   3.247   8.290   3.377
33880W        W 2210   4.878  14.153   2.398
33881W        W 2211  30.913  24.496   1.909
33882W        W 2212  35.395  16.072  10.901
33883W        W 2213  38.940  25.594   4.287
33884W        W 2214  16.687  26.191   5.795
33885W        W 2215   2.933  23.651   1.335
33886W        W 2216  22.663  30.070   1.889
33887W        W 2217  41.975  37.982  14.290
33888W        W 2218  38.426  41.444   3.381
33889W        W 2219  33.911  42.976   2.206
33890W        W 2220  24.098  43.015   2.313
33891W        W 2221  35.994   9.249  10.525
33892W        W 2222  30.050  17.142   0.732
33893W        W 2223  28.587  26.145  13.544
33894W        W 2224  14.196  17.289   0.360
33895W        W 2225  13.325  14.725  14.405
33896W        W 2226  15.309  12.665  13.986
33897W        W 2227  15.194  17.232   4.151
33898W        W 2228  31.981  44.357  14.379
33899W        W 2229   6.423   0.260   3.313
33900W        W 2230  39.407  15.820   3.374
33901W        W 2231  40.913  29.556   2.179
33902W        W 2232  41.959  12.694   1.352
33903W        W 2233  17.563   0.402   0.352
33904W        W 2234  33.515  29.114  13.472
33905W        W 2235  34.464  23.610   0.310
33906W        W 2236  32.066  12.718   1.742
33907W        W 2237  40.510  28.046  11.575
33908W        W 2238  37.572  40.045  12.411
33909W        W 2239  17.784  24.529   4.757
33910W        W 2240  11.175  22.725  12.443
33911W        W 2241  41.310   4.436  10.498
33912W        W 2242  43.437  41.519   1.779
33913W        W 2243  38.448  26.556  14.838
33914W        W 2244   1.267  38.548   2.358
33915W        W 2245  24.047  12.651  13.064
33916W        W 2246  13.797  38.933  12.415
33917W        W 2247  14.773  39.326   3.824
33918W        W 2248  20.726  22.996  12.476
33919W        W 2249  17.223  40.000  11.590
33920W        W 2250  44.475  27.584  13.021
33921W        W 2251   5.816  26.680  12.541
33922W        W 2252  43.287  28.070   3.254
33923W        W 2253  42.508  24.137   4.259
33924W        W 2254  21.631  21.026  10.121
33925W        W 2255   2.411  27.968  10.122
33926W        W 2256   3.862  21.695  12.024
33927W        W 2257  30.088  28.448  10.945
33928W        W 2258   2.758  25.583  10.408
33929W        W 2259  22.617   4.235  12.554
33930W        W 2260  38.981  35.576  11.514
33931W        W 2261  40.314  30.038   3.149
33932W        W 2262  43.808  16.274  12.555
33933W        W 2263  17.273  31.486  14.504
33934W        W 2264  17.677  17.730  14.310
33935W        W 2265  32.498  39.393   1.212
33936W        W 2266  19.538  25.165  11.863
33937W        W 2267  39.984  19.583   3.290
33938W        W 2268   0.332  18.716   4.734
33939W        W 2269  13.332  12.630  11.470
33940W        W 2270  39.950  38.560   1.329
33941W        W 2271  31.142  15.769   3.866
33942W        W 2272  25.509   8.201  11.514
33943W        W 2273  37.471  43.300   3.205
33944W        W 2274  22.692  17.071  10.575
33945W        W 2275  22.160  16.260  12.835
33946W        W 2276  20.233  24.204  12.351
33947W        W 2277  28.181  39.527   1.813
33948W        W 2278  22.699  41.486   1.237
33949W        W 2279  24.998  30.598  14.860
33950W        W 2280  32.952  11.227  14.447
33951W        W 2281  16.601  35.042   2.669
33952W        W 2282  41.982  35.379   4.116
33953W        W 2283  39.368   4.769  11.471
33954W        W 2284  30.613  44.795  13.504
33955W        W 2285  36.981  40.858   4.710
33956W        W 2286   0.901  14.803  13.874
33957W        W 2287  40.416   9.348   0.819
33958W        W 2288  11.349  27.674  14.345
33959W        W 2289  41.009   4.381  14.871
33960W        W 2290  42.411  41.443  11.010
33961W        W 2291   8.399  12.843  14.760
33962W        W 2292  15.750  16.701  11.896
33963W        W 2293  32.045  19.625  14.477
33964W        W 2294  13.817  41.924  12.865
33965W        W 2295  26.076  32.581   1.388
33966W        W 2296   6.830  21.584   0.375
33967W        W 2297   0.820   5.825   2.839
33968W        W 2298   7.279  30.427   2.326
33969W        W 2299  39.393  11.622  10.094
33970W        W 2300  35.497   2.463   0.290
33971W        W 2301   7.277   8.230   2.695
33972W        W 2302  28.530  16.662   4.229
33973W        W 2303   5.301  18.711  13.351
33974W        W 2304  22.071  19.621   4.636
33975W        W 2305  25.150  36.536  13.414
33976W        W 2306   1.253  39.958  10.619
33977W        W 2307  16.586   4.856  12.348
33978W        W 2308  40.986   1.950   1.884
33979W        W 2309  15.646  37.846  10.502
33980W        W 2310  25.125   9.279   3.340
33981W        W 2311  28.969  18.283  13.022
33982W        W 2312  31.033  31.974  10.421
33983W        W 2313  29.103  32.415   2.279
33984W        W 2314  11.678   8.261   0.751
33985W        W 2315  29.968  32.405   4.604
33986W        W 2316  42.820  12.821  11.472
33987W        W 2317  11.203  28.181  13.993
33988W        W 2318  11.687  14.631  11.907
33989W        W 2319   3.729  29.979  14.284
33990W        W 2320   7.273  34.461   3.837
33991W        W 2321  14.160  37.542  12.912
33992W        W 2322  23.518  42.976   2.411
33993W        W 2323   7.393  33.093  14.823
33994W        W 2324  42.018   6.423  10.450
33995W        W 2325  22.147   4.304  14.927
33996W        W 2326  34.982  17.111   3.638
33997W        W 2327  24.538  22.696   2.181
33998W        W 2328  41.330  38.551   3.661
33999W        W 2329  18.174  35.379  13.871
34000W        W 2330  13.328  36.571  11.950
34001W        W 2331  44.782  19.187   4.123
34002W        W 2332  23.987  11.326   0.878
34003W        W 2333  30.124  23.085   3.263
34004W        W 2334   4.377  32.525  11.386
34005W        W 2335  35.582   2.839   4.139
34006W        W 2336  41.925   8.807   0.775
34007W        W 2337  25.991  42.792  14.775
34008W        W 2338  24.190   6.848   1.323
34009W        W 2339  15.174  28.167   1.279
34010W        W 2340  38.499  26.671  12.950
34011W        W 2341   0.318   3.769  14.987
34012W        W 2342  28.584  31.514   2.786
34013W        W 2343  37.342  44.918   0.847
34014W        W 2344  32.391   0.755  14.814
34015W        W 2345  16.653  10.764  13.061
34016W        W 2346  13.251  24.714   1.716
34017W        W 2347  16.716  27.493   0.912
34018W        W 2348  25.680   8.801   1.802
34019W        W 2349   6.696  36.968   2.874
34020W        W 2350  29.073  14.270   0.289
34021W        W 2351   1.336   4.927   0.951
34022W        W 2352   4.831   8.218  11.521
34023W        W 2353  23.644  17.783   2.382
34024W        W 2354  37.513  33.007   0.860
34025W        W 2355   2.964  34.863   4.831
34026W        W 2356   0.450  41.466   1.372
34027W        W 2357  27.157  23.096   0.404
34028W        W 2358  15.612   2.797  13.879
34029W        W 2359   9.817  15.241   2.365
34030W        W 2360  32.455  37.359  11.937
34031W        W 2361  23.984  34.511   5.125
34032W        W 2362  19.048  11.139   4.675
34033W        W 2363  11.343   0.813  12.865
34034W        W 2364   1.441   3.318  14.845
34035W        W 2365   7.706  33.585   9.950
34036W        W 2366  14.787   3.282  12.903
34037W        W 2367  25.156   7.698  12.508
34038W        W 2368  13.303   3.373  10.534
34039W        W 2369  26.098  38.944  11.887
34040W        W 2370   3.842  13.294   4.193
34041W        W 2371  29.077  35.502   2.346
34042W        W 2372  18.708  10.641   4.166
34043W        W 2373  35.889  26.127   3.862
34044W        W 2374  14.206   6.911  12.042
34045W        W 2375  42.464  10.190  14.292
34046W        W 2376  12.642  30.562   2.807
34047W        W 2377  16.311  40.433   2.206
34048W        W 2378  35.994   2.853   4.722
34049W        W 2379  39.885   9.273  11.408
34050W        W 2380  31.629   6.858   1.218
34051W        W 2381  28.164  29.597  11.386
34052W        W 2382   4.767  25.102   0.750
34053W        W 2383   4.782  14.286  10.555
34054W        W 2384   1.253  15.104   2.306
34055W        W 2385  35.509   9.651  13.002
34056W        W 2386  41.954  16.661  11.011
34057W        W 2387  30.156  30.945  14.282
34058W        W 2388  37.420  26.605   0.965
34059W        W 2389  11.188  26.487   3.851
34060W        W 2390   7.384  40.904  13.029
34061W        W 2391  27.460  23.706  11.431
34062W        W 2392  19.082  18.105   5.671
34063W        W 2393   0.931  30.046  14.986
34064W        W 2394  23.660   1.940   3.752
34065W        W 2395  16.744  24.197   5.115
34066W        W 2396  13.318  16.703  10.543
34067W        W 2397   5.378   1.284   1.303
34068W        W 2398  25.618  22.746  13.916
34069W        W 2399   2.896  11.633  11.531
34070W        W 2400  13.791  31.544  10.551
34071W        W 2401  24.190  41.879   1.394
34072W        W 2402   8.810   8.307  10.434
34073W        W 2403  13.614  16.760  14.786
34074W        W 2404   9.883   9.313   2.789
34075W        W 2405  19.134  37.050  12.069
34076W        W 2406   8.661   9.744   1.905
34077W        W 2407   8.367  32.584  14.935
34078W        W 2408  19.645  37.854  14.025
34079W        W 2409  18.571   7.378   1.403
34080W        W 2410  24.574   7.673   0.876
34081W        W 2411  13.140  42.878   1.235
34082W        W 2412   1.253  30.442   3.796
34083W        W 2413  30.488  44.392   1.867
34084W        W 2414  22.091  33.895  11.468
34085W        W 2415  16.250  17.213   1.269
34086W        W 2416   6.895   5.395   2.772
34087W        W 2417  41.910  17.729  10.638
34088W        W 2418  40.422  24.138  12.522
34089W        W 2419  10.173  11.211  10.942
34090W        W 2420  25.004   8.397  14.444
34091W        W 2421  34.878   7.666  12.967
34092W        W 2422  28.944  38.365   3.837
34093W        W 2423  42.336  31.049  10.977
34094W        W 2424  21.088   7.871  12.446
34095W        W 2425  34.980  12.160   0.938
34096W        W 2426  35.541  24.655   2.380
34097W        W 2427   8.726  41.398   3.670
34098W        W 2428   0.838  40.375   0.821
34099W        W 2429   2.317   6.349  11.038
34100W        W 2430  34.026  12.180   3.781
34101W        W 2431  26.701  32.925   0.413
34102W        W 2432  15.260  19.549   0.852
34103W        W 2433  21.053   1.269   1.340
34104W        W 2434  15.635   1.428  11.125
34105W        W 2435   3.731  40.486   0.825
34106W        W 2436  42.407  35.893  11.085
34107W        W 2437  27.971  24.007  14.438
34108W        W 2438  24.544  36.959  12.505
34109W        W 2439   1.422  33.023  10.433
34110W        W 2440  32.626  35.013  11.987
34111W        W 2441   9.172   7.177  14.827
34112W        W 2442  13.725  30.534  11.060
34113W        W 2443  30.990  22.538  14.892
34114W        W 2444  28.621  10.362   1.414
34115W        W 2445   4.926  26.696  10.537
34116W        W 2446  41.039  15.216  11.915
34117W        W 2447  18.744  26.661  13.021
34118W        W 2448  27.109   9.655   9.459
34119W        W 2449  19.779  30.421   4.636
34120W        W 2450  36.905  22.013  10.900
34121W        W 2451  20.121  18.716   1.237
34122W        W 2452  37.416  34.028   4.763
34123W        W 2453  10.642  27.651  10.976
34124W        W 2454  16.294  10.168   1.332
34125W        W 2455  13.795   3.340   4.823
34126W        W 2456  11.793  32.419  11.031
34127W        W 2457  20.271   4.440   0.915
34128W        W 2458  39.336  17.646  12.456
34129W        W 2459   0.286  23.141   1.318
34130W        W 2460   2.747  23.617  12.969
34131W        W 2461  27.659  13.728   3.866
34132W        W 2462  22.143  24.105  11.372
34133W        W 2463  37.043  32.514   1.890
34134W        W 2464  28.014  18.067   1.319
34135W        W 2465   5.698  22.204  13.799
34136W        W 2466  41.298  27.160  13.905
34137W        W 2467  16.087  21.640   2.896
34138W        W 2468  13.222  11.744  13.002
34139W        W 2469  27.676  38.986  10.587
34140W        W 2470  21.551  21.024   0.841
34141W        W 2471   7.333  26.097   3.161
34142W        W 2472  28.008  36.935  13.418
34143W        W 2473  33.428  30.467   3.262
34144W        W 2474  25.108  23.069   0.811
34145W        W 2475  15.812  30.528   4.712
34146W        W 2476  27.083  29.456   0.444
34147W        W 2477   9.695  36.846  10.463
34148W        W 2478   8.335  44.332  13.009
34149W        W 2479  16.072  43.911  12.419
34150W        W 2480  35.870   3.381  11.085
34151W        W 2481  26.163  33.043  13.370
34152W        W 2482  23.698  31.082  14.516
34153W        W 2483  30.989  41.925  11.005
34154W        W 2484  32.601  16.085   3.327
34155W        W 2485  32.911  26.201   2.820
34156W        W 2486   0.475   5.320  14.852
34157W        W 2487  31.146  31.454  10.908
34158W        W 2488  15.821   6.387  12.468
34159W        W 2489   9.158  10.649   1.837
34160W        W 2490  11.629  32.631   1.834
34161W        W 2491  28.018  24.681  13.839
34162W        W 2492  42.786  13.841  14.992
34163W        W 2493  41.327  32.412   4.262
34164W        W 2494   8.669  26.586  11.096
34165W        W 2495   6.355   4.204  14.854
34166W        W 2496  41.460   6.335  11.395
34167W        W 2497  16.579  32.400   1.783
34168W        W 2498   6.425  17.106  12.959
34169W        W 2499   4.419  32.420   4.327
34170W        W 2500  42.386  10.349  10.408
34171W        W 2501  19.107  13.147   2.852
34172W        W 2502  23.143   3.288  13.369
34173W        W 2503  44.442  39.390  11.463
34174W        W 2504   3.247  35.875   0.383
34175W        W 2505  32.426  41.959   4.237
34176W        W 2506  23.548   0.420  11.372
34177W        W 2507  27.160  14.717   4.298
34178W        W 2508   8.373   4.910   3.700
34179W        W 2509  19.722  35.073   0.321
34180W        W 2510  23.645  26.044  12.490
34181W        W 2511  27.002   9.171   9.457
34182W        W 2512   2.882  29.996   0.245
34183W        W 2513   3.948  14.099   0.455
34184W        W 2514  10.210   5.901   3.835
34185W        W 2515  41.015   0.443   4.187
34186W        W 2516  40.895  18.260  12.002
34187W        W 2517  31.646  31.969  11.537
34188W        W 2518   4.803   8.857  14.472
34189W        W 2519  30.576  13.837  14.299
34190W        W 2520  11.231  27.655   4.333
34191W        W 2521  17.753  11.676  11.446
34192W        W 2522  17.125   3.724   3.331
34193W        W 2523  13.215  35.439   0.415
34194W        W 2524  23.160  40.886   4.240
34195W        W 2525   1.280  16.577  10.919
34196W        W 2526  32.519  25.610  12.511
34197W        W 2527  36.366   7.771   4.290
34198W        W 2528  31.971  15.768  14.007
34199W        W 2529  26.695  10.743   1.863
34200W        W 2530  23.562  36.971   1.433
34201W        W 2531  16.583  18.634  14.964
34202W        W 2532  31.431  43.471   4.828
34203W        W 2533   1.381   7.194   0.851
34204W        W 2534  20.539  29.006   1.361
34205W        W 2535  44.365  35.945   0.767
34206W        W 2536  14.126  12.341  12.474
34207W        W 2537   0.960  15.597  13.509
34208W        W 2538  33.569  26.153  11.478
34209W        W 2539  40.493  26.057  12.062
34210W        W 2540   5.298  38.052   4.123
34211W        W 2541   0.803  34.905  10.899
34212W        W 2542  43.502  19.750  11.601
34213W        W 2543  24.525  38.896   3.380
34214W        W 2544  35.475  19.145  14.505
34215W        W 2545  28.594   0.347   3.207
34216W        W 2546  15.241  18.665   0.416
34217W        W 2547  22.180  10.332  11.458
34218W        W 2548  30.614  26.673  14.780
34219W        W 2549  28.033   5.428  13.411
34220W        W 2550   1.270  36.922   4.764
34221W        W 2551  24.655   9.317   3.189
34222W        W 2552  31.426  34.026  13.426
34223W        W 2553  42.981  24.613   3.234
34224W        W 2554  29.067  31.027   0.901
34225W        W 2555  22.087  42.496  14.489
34226W        W 2556  44.949  40.897  13.533
34227W        W 2557  37.918   4.313  10.562
34228W        W 2558  39.899  36.966  12.040
34229W        W 2559  13.689  24.989  13.990
34230W        W 2560   4.766   7.888   3.184
34231W        W 2561  31.516  40.815  10.434
34232W        W 2562  11.306  38.010   4.670
34233W        W 2563   3.322   2.460   4.207
34234W        W 2564   7.841  40.954  11.941
34235W        W 2565  31.537  44.832   3.820
34236W        W 2566  41.034   9.778  13.957
34237W        W 2567  39.990  19.242  13.043
34238W        W 2568  42.522  28.149  10.508
34239W        W 2569  23.055  17.211  11.125
34240W        W 2570  42.015  29.465   4.120
34241W        W 2571  18.054  31.530  11.386
34242W        W 2572  33.505  23.017   4.312
34243W        W 2573  29.002  30.126  12.015
34244W        W 2574  23.241   7.358   1.852
34245W        W 2575   1.338  27.079   3.651
34246W        W 2576  11.847  21.687   1.817
34247W        W 2577  32.966  34.059   1.303
34248W        W 2578   1.865  20.242   1.876
34249W        W 2579   4.282  39.456   5.698
34250W        W 2580  18.200  36.093   2.337
34251W        W 2581  11.637  39.052   1.835
34252W        W 2582  40.823  10.819   1.753
34253W        W 2583  10.277  20.097   0.939
34254W        W 2584  18.276  16.686  14.019
34255W        W 2585  37.582  37.529  12.863
34256W        W 2586  17.159   2.439   2.212
34257W        W 2587   8.710  25.554  10.626
34258W        W 2588  41.936  36.550   4.630
34259W        W 2589  36.957  17.151  12.499
34260W        W 2590   9.748  42.457  11.946
34261W        W 2591  13.774  23.531   2.721
34262W        W 2592  28.622  41.525   4.599
34263W        W 2593  38.481  42.424  14.470
34264W        W 2594  14.112  20.174  10.438
34265W        W 2595  17.079  20.073   0.297
34266W        W 2596  42.355  42.398   3.228
34267W        W 2597  28.096   0.349   2.813
34268W        W 2598  24.987  37.900   3.719
34269W        W 2599  31.043  24.219   0.408
34270W        W 2600  16.685  28.098   1.704
34271W        W 2601  10.374   7.260   1.328
34272W        W 2602  30.972  42.369   2.207
34273W        W 2603  38.422  13.730  13.932
34274W        W 2604  37.894  14.153  12.405
34275W        W 2605   3.927  19.602   4.214
34276W        W 2606  13.604   9.173   4.241
34277W        W 2607  22.741  15.703  13.975
34278W        W 2608  40.537   9.338   1.225
34279W        W 2609  42.851  23.547   4.622
34280W        W 2610   7.728  28.526  13.813
34281W        W 2611  14.787  38.387  14.285
34282W        W 2612  37.392  42.923   2.747
34283W        W 2613  44.413  14.320   1.259
34284W        W 2614   0.791  32.604  12.548
34285W        W 2615  15.137   7.684  11.932
34286W        W 2616  25.978  22.995  13.840
34287W        W 2617  39.843   2.917   4.345
34288W        W 2618  25.020  38.347   2.766
34289W        W 2619  33.453  17.755   0.466
34290W        W 2620  10.794  11.701   4.617
34291W        W 2621  12.625   6.823  12.035
34292W        W 2622  29.975  28.162   0.303
34293W        W 2623  35.908  26.664   2.371
34294W        W 2624  36.854  25.168  10.533
34295W        W 2625   8.876   1.764  14.455
34296W        W 2626  18.612   2.415  14.416
34297W        W 2627   4.724  42.485  14.874
34298W        W 2628   9.779  38.853   2.261
34299W        W 2629  22.545   7.379  10.637
34300W        W 2630  33.925  21.548   0.911
34301W        W 2631  33.118   6.697  14.765
34302W        W 2632   9.190   6.209  11.599
34303W        W 2633  28.182  41.462   2.737
34304W        W 2634  43.371  29.599  14.458
34305W        W 2635  37.484  24.019   4.202
34306W        W 2636  19.154  30.065   1.919
34307W        W 2637  30.023  26.022   0.777
34308W        W 2638  14.591   7.418   0.787
34309W        W 2639  16.774  37.477  14.325
34310W        W 2640  42.439  24.715   1.891
34311W        W 2641   5.725   0.954   2.797
34312W        W 2642   7.778   5.339  11.608
34313W        W 2643   5.876  42.029  14.903
34314W        W 2644  14.714  24.226   4.763
34315W        W 2645  44.437  34.059   0.802
34316W        W 2646   0.304  41.416  11.416
34317W        W 2647   5.396  41.336   1.911
34318W        W 2648  15.256   9.740   1.451
34319W        W 2649  10.140  33.401   3.197
34320W        W 2650  14.199  17.596   1.352
34321W        W 2651  38.430  31.624  14.393
34322W        W 2652  26.598   5.360   4.614
34323W        W 2653  11.164  26.652   5.188
34324W        W 2654  31.956  27.539  11.015
34325W        W 2655   1.864   3.244   1.271
34326W        W 2656  25.180  32.634   0.770
34327W        W 2657  31.903   5.776   9.921
34328W        W 2658  36.477  11.773  10.439
34329W        W 2659  24.991   0.288   4.818
34330W        W 2660   5.234  27.194   0.374
34331W        W 2661  42.330  38.463   4.777
34332W        W 2662  38.536  17.064  13.992
34333W        W 2663  37.893  33.490  12.957
34334W        W 2664  38.948  18.226  14.506
34335W        W 2665  21.160   7.392   0.896
34336W        W 2666  43.420  20.108  14.988
34337W        W 2667  33.116  37.451  11.387
34338W        W 2668  37.419   7.767  11.558
34339W        W 2669  16.195   1.865   1.731
34340W        W 2670   3.721  39.497  14.330
34341W        W 2671  23.193  36.390   4.733
34342W        W 2672  43.773  18.695  13.489
34343W        W 2673   2.812  11.181  11.026
34344W        W 2674  25.170  33.929  12.896
34345W        W 2675  15.654  26.629   1.430
34346W        W 2676  21.570  17.759  11.032
34347W        W 2677   2.458  32.456  13.372
34348W        W 2678   4.284  13.659  13.801
34349W        W 2679  29.975   3.400  14.309
34350W        W 2680  10.302  24.158  12.459
34351W        W 2681  36.400   5.345  12.844
34352W        W 2682  36.477  36.530   2.713
34353W        W 2683  35.039   9.859   4.686
34354W        W 2684   1.885   8.680   4.608
34355W        W 2685  10.648  19.679  11.969
34356W        W 2686  38.388   8.847  14.947
34357W        W 2687  13.306   8.840   1.217
34358W        W 2688  27.028  28.590  11.890
34359W        W 2689  27.991  13.834  14.420
34360W        W 2690  38.947  32.543   1.748
34361W        W 2691  38.889  38.061   3.644
34362W        W 2692  41.521  40.861   0.295
34363W        W 2693   0.880  29.149  13.441
34364W        W 2694  27.145   0.792   3.308
34365W        W 2695  21.054  15.792  13.011
34366W        W 2696  12.279  36.910  14.832
34367W        W 2697  12.724   7.302  11.408
34368W        W 2698  44.264  29.923  14.801
34369W        W 2699  34.490   7.779  11.429
34370W        W 2700  28.615   6.407  13.870
34371W        W 2701  27.598   4.236   3.147
34372W        W 2702  37.503  20.212   4.353
34373W        W 2703  25.095  42.021   1.905
34374W        W 2704  40.501   5.266  10.958
34375W        W 2705  26.628  41.503  11.601
34376W        W 2706  30.964  22.118  11.511
34377W        W 2707  27.500  14.689   0.427
34378W        W 2708   0.434  14.209  11.889
34379W        W 2709  22.086  30.625   2.842
34380W        W 2710  25.024  16.294   1.270
34381W        W 2711   1.783  44.965  11.407
34382W        W 2712  37.976   5.897  13.928
34383W        W 2713   6.751  26.206  14.344
34384W        W 2714  30.548   6.729  10.576
34385W        W 2715   2.395   4.252  10.551
34386W        W 2716   2.342  26.022   2.860
34387W        W 2717   6.797  22.084  14.344
34388W        W 2718   4.376  44.845   4.319
34389W        W 2719  34.533  19.206  11.525
34390W        W 2720  13.277  13.670  10.511
34391W        W 2721  17.780   8.267  12.446
34392W        W 2722  18.121  23.568  10.602
34393W        W 2723  30.100   2.822  12.969
34394W        W 2724  17.075  32.481  12.577
34395W        W 2725  23.087  29.525   2.318
34396W        W 2726  15.648  39.822   0.732
34397W        W 2727  15.714  41.358   3.352
34398W        W 2728  28.531  43.417   4.830
34399W        W 2729  37.559   8.336   2.237
34400W        W 2730  29.968  24.648   1.797
34401W        W 2731  23.682  17.610   2.734
34402W        W 2732   8.712  42.014   3.693
34403W        W 2733  44.879   5.819   3.252
34404W        W 2734   5.879  44.440   2.713
34405W        W 2735  36.559  34.406  12.874
34406W        W 2736  32.004  20.701   3.341
34407W        W 2737   3.828  17.596  12.966
34408W        W 2738   9.692   9.704   0.273
34409W        W 2739   6.249  34.094  14.874
34410W        W 2740   3.746  27.581   1.928
34411W        W 2741  33.557  15.244  10.063
34412W        W 2742  40.416  40.025   2.393
34413W        W 2743  19.106  28.134  12.550
34414W        W 2744  41.341   8.844  10.486
34415W        W 2745  28.153  28.524   3.167
34416W        W 2746  16.315  26.511  13.014
34417W        W 2747  26.101  25.566   1.432
34418W        W 2748  15.193  33.091   1.876
34419W        W 2749  35.926  14.119   0.886
34420W        W 2750  31.575  38.922   3.652
34421W        W 2751  13.782   7.808   2.887
34422W        W 2752   5.227  41.932  12.363
34423W        W 2753  34.598  36.497  12.417
34424W        W 2754  14.094  26.961  11.607
34425W        W 2755  34.863   5.259  13.363
34426W        W 2756  42.979   0.921   4.601
34427W        W 2757  29.055   3.719  13.348
34428W        W 2758  26.025  17.151   4.640
34429W        W 2759   1.316  42.006   0.434
34430W        W 2760   8.897  32.993   4.237
34431W        W 2761  20.170   1.289   4.610
34432W        W 2762  14.647   9.320  10.981
34433W        W 2763  36.998  41.439   2.692
34434W        W 2764   4.449   7.295  11.417
34435W        W 2765  18.050  18.200   2.872
34436W        W 2766  37.444  32.522   2.746
34437W        W 2767  15.317  27.512   2.260
34438W        W 2768  11.669  17.591   4.777
34439W        W 2769   7.808  12.352  11.473
34440W        W 2770  26.132  27.089  10.516
34441W        W 2771  40.840  28.981   0.790
34442W        W 2772  35.604  33.892   4.696
34443W        W 2773  34.505  27.553  13.982
34444W        W 2774  33.542  12.127  11.077
34445W        W 2775  20.749  37.376  11.882
34446W        W 2776   1.952  28.639   2.695
34447W        W 2777   4.365  32.433   1.418
34448W        W 2778   4.928  26.496   3.266
34449W        W 2779  37.407  11.354  14.311
34450W        W 2780  31.009  31.038  12.040
34451W        W 2781  38.841  10.293  12.557
34452W        W 2782   8.695  10.254   4.784
34453W        W 2783   1.883  40.031  13.379
34454W        W 2784  16.692  27.617  11.095
34455W        W 2785  21.675   6.336  14.364
34456W        W 2786   3.818  34.115  13.479
34457W        W 2787  11.277  31.032  14.490
34458W        W 2788  23.219   7.289  12.458
34459W        W 2789  36.446  17.670  10.407
34460W        W 2790  33.085  36.875  11.937
34461W        W 2791  28.539  11.127  14.275
34462W        W 2792   5.822  38.413   0.958
34463W        W 2793   6.327  26.654  13.052
34464W        W 2794   9.781   6.758   3.673
34465W        W 2795  19.746  13.839  12.013
34466W        W 2796  36.539   3.350  12.369
34467W        W 2797  40.045  21.684  13.915
34468W        W 2798  36.577  33.483   1.697
34469W        W 2799  44.010   5.353   1.779
34470W        W 2800  22.129  24.095  12.481
34471W        W 2801  36.364   5.339   0.389
34472W        W 2802  18.247  20.036  11.056
34473W        W 2803   8.190  30.155   1.797
34474W        W 2804  30.051  17.298   1.715
34475W        W 2805  12.254  12.784   4.219
34476W        W 2806  13.667   9.683   3.365
34477W        W 2807  32.086   9.354   0.320
34478W        W 2808  42.972  35.934   2.220
34479W        W 2809  18.584  33.455  12.343
34480W        W 2810   6.199  13.332   4.704
34481W        W 2811  14.819  19.567   3.851
34482W        W 2812  22.518  12.205  11.986
34483W        W 2813  20.701  24.519  13.375
34484W        W 2814  32.929  35.872  12.437
34485W        W 2815  34.384  22.221   1.843
34486W        W 2816   9.207  15.605   0.927
34487W        W 2817  15.211  38.395   2.759
34488W        W 2818  27.054  36.896  12.071
34489W        W 2819  27.589  13.726   2.786
34490W        W 2820  22.070  21.023   1.869
34491W        W 2821  37.988  38.898  14.794
34492W        W 2822   0.402   8.781   1.292
34493W        W 2823  26.487   0.470  12.864
34494W        W 2824  24.570  41.832  12.894
34495W        W 2825   2.804  31.976   4.681
34496W        W 2826  37.513   2.410   4.118
34497W        W 2827  18.126  27.092  12.366
34498W        W 2828  33.131  25.978  14.813
34499W        W 2829  19.605  42.413   2.303
34500W        W 2830   3.223   9.178  14.024
34501W        W 2831  39.514   9.273  12.553
34502W        W 2832  25.524  29.519  10.443
34503W        W 2833  36.363   9.167   3.314
34504W        W 2834   0.878  15.319  12.360
34505W        W 2835   6.287  14.693  12.096
34506W        W 2836  16.811  40.998  13.813
34507W        W 2837  38.376  41.949   2.712
34508W        W 2838  21.701   6.391   4.600
34509W        W 2839  35.854  44.457  11.024
34510W        W 2840  32.098  21.213  10.491
34511W        W 2841  12.144  16.695   2.295
34512W        W 2842  22.134  27.667   4.620
34513W        W 2843  29.135  10.334  10.486
34514W        W 2844  12.231  11.670  14.917
34515W        W 2845  29.486  21.584   1.811
34516W        W 2846  22.503  16.718  10.568
34517W        W 2847  23.146  43.342  11.493
34518W        W 2848  35.391   2.243  12.377
34519W        W 2849   1.948  40.026   3.710
34520W        W 2850  38.899   3.428   0.249
34521W        W 2851  10.209  11.802  11.391
34522W        W 2852  20.586  31.108  12.342
34523W        W 2853  39.373   2.789  11.093
34524W        W 2854  24.582   8.737  12.020
34525W        W 2855  13.649  21.144  13.889
34526W        W 2856   7.326  40.453  14.442
34527W        W 2857  40.819  27.042   0.781
34528W        W 2858  24.553  27.994  11.989
34529W        W 2859  19.609  30.467   5.087
34530W        W 2860  14.633   5.265  10.615
34531W        W 2861  14.831   8.262   1.868
34532W        W 2862  11.813  27.028  11.551
34533W        W 2863  15.108  26.067   2.298
34534W        W 2864  33.905   1.402   3.734
34535W        W 2865  36.494  43.450  12.363
34536W        W 2866  22.009   0.916   2.267
34537W        W 2867   8.655   7.368   4.137
34538W        W 2868   5.694  14.614  11.972
34539W        W 2869  20.047   4.911   1.451
34540W        W 2870  15.818  20.087   3.806
34541W        W 2871  24.535   6.269  12.480
34542W        W 2872   9.159  42.807   3.274
34543W        W 2873  38.501   1.413  14.017
34544W        W 2874  24.615  12.287  12.857
34545W        W 2875  33.921  25.599   2.787
34546W        W 2876  20.693  28.024   2.853
34547W        W 2877   1.931   6.871   1.312
34548W        W 2878  24.005   9.233   2.262
34549W        W 2879  19.658  16.594   4.315
34550W        W 2880   3.758  31.021   3.350
34551W        W 2881  17.711   9.841   4.333
34552W        W 2882  33.544  17.287  10.470
34553W        W 2883  29.512  33.563  10.141
34554W        W 2884  39.333  13.821  14.477
34555W        W 2885   3.374  21.700   0.360
34556W        W 2886  36.521   6.730   0.260
34557W        W 2887  38.502   6.188  11.024
34558W        W 2888  21.555   6.912   0.274
34559W        W 2889  31.041  17.565  11.474
34560W        W 2890  35.452  42.385   3.341
34561W        W 2891   0.872  16.091   1.419
34562W        W 2892   8.686  35.015  10.546
34563W        W 2893  36.389  13.773   2.872
34564W        W 2894   4.838  44.798   0.831
34565W        W 2895   7.385  15.670   1.294
34566W        W 2896   3.899  23.995  13.346
34567W        W 2897  35.003  27.615  11.902
34568W        W 2898  20.123  22.654  12.007
34569W        W 2899  12.232   6.258   1.431
34570W        W 2900   9.226   7.700  12.381
34571W        W 2901  19.670   8.693  12.976
34572W        W 2902  23.719  37.868   0.956
34573W        W 2903  42.020   6.236   5.113
34574W        W 2904   4.219  33.039  11.872
34575W        W 2905   3.220  25.662   5.194
34576W        W 2906   7.372  40.450  11.079
34577W        W 2907  31.077   9.832  14.381
34578W        W 2908  13.707  23.153  13.948
34579W        W 2909  18.158  19.056   3.747
34580W        W 2910  35.950  19.273  13.014
34581W        W 2911  29.125  36.436   0.948
34582W        W 2912  29.174  26.549   0.295
34583W        W 2913  42.497  34.467   3.652
34584W        W 2914  37.879  21.080   0.933
34585W        W 2915  39.491  21.544   1.335
34586W        W 2916  37.425  42.018  14.804
34587W        W 2917  16.746  39.492  10.407
34588W        W 2918   9.299   6.376  13.940
34589W        W 2919  28.661  33.881   3.830
34590W        W 2920  26.546  22.620  14.885
34591W        W 2921  44.452  18.736  12.407
34592W        W 2922  10.242  32.514   1.396
34593W        W 2923  20.667   0.480   2.237
34594W        W 2924  27.672  16.119   1.282
34595W        W 2925  41.422  36.514   4.711
34596W        W 2926   1.351  20.112   0.762
34597W        W 2927  35.522  33.124   3.155
34598W        W 2928  30.423   6.689   0.751
34599W        W 2929   2.424   1.778   2.297
34600W        W 2930  10.724  22.093   2.377
34601W        W 2931  11.846  37.402  10.482
34602W        W 2932  13.697  18.181   2.751
34603W        W 2933  41.453  20.767   3.288
34604W        W 2934  10.846  43.829  11.381
34605W        W 2935   0.386   8.192   4.664
34606W        W 2936  18.054  26.637  12.847
34607W        W 2937  40.915   5.395  12.575
34608W        W 2938  16.645   9.244   1.281
34609W        W 2939   9.298  42.488  12.548
34610W        W 2940  32.447  17.619   4.746
34611W        W 2941  27.018  23.038  11.412
34612W        W 2942  31.028  37.574  11.509
34613W        W 2943  25.557   0.816  14.400
34614W        W 2944  20.534  35.988   4.682
34615W        W 2945  17.635  24.547  12.533
34616W        W 2946  29.446  22.121  12.477
34617W        W 2947  35.917   1.456  13.316
34618W        W 2948   3.898  28.082   4.116
34619W        W 2949  28.609  38.559   4.815
34620W        W 2950  21.579  37.437   3.779
34621W        W 2951  44.393   6.878   1.233
34622W        W 2952  22.634  16.219   3.382
34623W        W 2953  33.047  32.075  10.614
34624W        W 2954  18.761  22.528  10.463
34625W        W 2955   2.745   4.941   3.205
34626W        W 2956   1.424  12.673  10.535
34627W        W 2957  22.125  28.178   5.591
34628W        W 2958  36.032  23.187  10.555
34629W        W 2959  13.219  38.348   1.410
34630W        W 2960  13.812   4.884   1.342
34631W        W 2961  29.522  41.360  12.431
34632W        W 2962  27.954   1.971   1.887
34633W        W 2963  34.996  11.308   4.815
34634W        W 2964  40.516  36.019   2.686
34635W        W 2965   1.893  16.622   4.144
34636W        W 2966  36.871   0.777   3.663
34637W        W 2967  10.349   6.245  13.864
34638W        W 2968  26.700  19.770  12.354
34639W        W 2969   5.899   6.351   1.429
34640W        W 2970   5.426  34.615  13.023
34641W        W 2971  14.663   1.855   1.272
34642W        W 2972  44.912  32.603   2.699
34643W        W 2973   6.702  10.185  13.916
34644W        W 2974  43.777  33.487   3.163
34645W        W 2975  25.674   1.733   5.253
34646W        W 2976  12.712  15.813   0.460
34647W        W 2977  22.218  25.583  13.363
34648W        W 2978  17.074  38.972   3.712
34649W        W 2979  37.485  40.387  14.791
34650W        W 2980  10.209   0.915  10.416
34651W        W 2981  32.973  27.036   1.325
34652W        W 2982  19.577   7.326   0.336
34653W        W 2983  29.643  14.300  11.586
34654W        W 2984   5.317  16.618   3.826
34655W        W 2985  22.108  23.155  14.973
34656W        W 2986  31.613  28.483  11.061
34657W        W 2987  13.785   6.341  11.088
34658W        W 2988  26.513  26.206   3.816
34659W        W 2989   8.167  41.304  11.423
34660W        W 2990  22.152  11.299   4.730
34661W        W 2991  35.865  35.007  14.975
34662W        W 2992  10.661   7.215   3.826
34663W        W 2993   2.769  35.901  11.413
34664W        W 2994   5.847  29.608   1.248
34665W        W 2995  25.101  43.378   2.897
34666W        W 2996  42.364  40.416   4.283
34667W        W 2997  26.658  19.741  10.989
34668W        W 2998   7.898  10.747  11.994
34669W        W 2999  37.843  25.070  12.466
34670W        W 3000  41.888  32.517   1.777
34671W        W 3001  16.739  36.987   4.643
34672W        W 3002  25.072  33.434  14.865
34673W        W 3003  35.920  32.540   2.402
34674W        W 3004  31.494  36.964   1.830
34675W        W 3005   5.303   1.478   1.767
34676W        W 3006  28.516  40.890   0.915
34677W        W 3007  17.790  15.777   2.798
34678W        W 3008  32.907  44.307  11.986
34679W        W 3009  11.321   6.764  12.579
34680W        W 3010  16.188   5.288  10.488
34681W        W 3011  44.000  16.787   2.397
34682W        W 3012  23.219   8.269   5.665
34683W        W 3013  31.060  18.642   4.267
34684W        W 3014  20.166  10.381   0.827
34685W        W 3015   6.337   2.258   4.659
34686W        W 3016  40.495   9.837   3.334
34687W        W 3017  31.907  33.883   3.209
34688W        W 3018  22.618   5.379   4.791
34689W        W 3019   8.287  34.092  12.499
34690W        W 3020  39.478  34.054   3.356
34691W        W 3021  37.555  20.533   9.983
34692W        W 3022  11.141  18.615   3.775
34693W        W 3023  14.300   6.338   2.236
34694W        W 3024  22.603  14.161   0.828
34695W        W 3025  37.983  43.516  14.836
34696W        W 3026  36.881  25.526  10.556
34697W        W 3027   9.255  39.982   4.215
34698W        W 3028  25.110  12.778  14.464
34699W        W 3029  13.820  30.565   4.177
34700W        W 3030  10.733  17.292  11.882
34701W        W 3031  19.096  39.459   2.749
34702W        W 3032  40.819  19.538  12.528
34703W        W 3033   9.656  43.276  14.508
34704W        W 3034   3.927  22.589  14.853
34705W        W 3035  27.494  24.109  14.968
34706W        W 3036  22.573  22.735   5.107
34707W        W 3037  28.511   6.196   1.306
34708W        W 3038  43.326   5.209   0.926
34709W        W 3039  15.293  22.090  11.412
34710W        W 3040   7.348  35.432  12.373
34711W        W 3041   7.373  44.485   0.391
34712W        W 3042  18.162  10.691   2.882
34713W        W 3043  34.508  19.770   0.804
34714W        W 3044  24.602  14.805   2.806
34715W        W 3045  40.416  38.957  14.390
34716W        W 3046  24.013   7.253   0.349
34717W        W 3047  19.736  41.948  12.951
34718W        W 3048   5.800  36.853   2.883
34719W        W 3049   9.381  18.295  11.951
34720W        W 3050  23.681  34.443   3.641
34721W        W 3051  44.278  38.062  14.781
34722W        W 3052  14.223  15.160  13.851
34723W        W 3053  42.293  40.016  13.475
34724W        W 3054  11.247   8.800  11.979
34725W        W 3055  20.752  36.869  11.410
34726W        W 3056  37.959  26.167   4.338
34727W        W 3057  17.719   8.822   3.707
34728W        W 3058  10.641  28.612   1.723
34729W        W 3059  27.633  32.405  10.605
34730W        W 3060  32.501   4.283  13.951
34731W        W 3061  24.109   4.365  12.408
34732W        W 3062   0.752  11.822  11.119
34733W        W 3063  22.668  11.676   3.836
34734W        W 3064  27.604   2.445  14.891
34735W        W 3065  22.522  18.177   3.370
34736W        W 3066  29.574  17.209   4.629
34737W        W 3067  36.882  36.962   0.935
34738W        W 3068  25.516  35.985  10.044
34739W        W 3069  36.067  29.973   3.251
34740W        W 3070  19.727  24.066  11.602
34741W        W 3071  31.609  27.550  10.643
34742W        W 3072   3.759  15.175   2.344
34743W        W 3073  26.074   1.365  11.887
34744W        W 3074   5.745  22.727   4.607
34745W        W 3075  17.264  35.102  10.977
34746W        W 3076  27.578  29.122  11.871
34747W        W 3077   4.249  12.836   3.752
34748W        W 3078  17.299  35.495  14.951
34749W        W 3079   1.894   5.808  11.885
34750W        W 3080  19.721  16.781  12.951
34751W        W 3081  14.257  32.595  13.371
34752W        W 3082  38.879  21.549   4.190
34753W        W 3083  23.503  14.329  11.487
34754W        W 3084  11.740  43.892  12.468
34755W        W 3085  14.808  40.540   2.364
34756W        W 3086  12.292  23.621   4.776
34757W        W 3087  16.294  31.435   1.928
34758W        W 3088  21.684  41.866  13.454
34759W        W 3089  13.195  23.665  12.355
34760W        W 3090  26.626   7.172  11.011
34761W        W 3091  25.469  13.752  11.484
34762W        W 3092  36.006  41.524   3.859
34763W        W 3093  11.705  44.398  12.447
34764W        W 3094  31.461   0.892  10.516
34765W        W 3095   0.287  21.169  11.913
34766W        W 3096   5.241  20.595  13.349
34767W        W 3097  38.341  17.713   2.189
34768W        W 3098  39.032  38.384   2.772
34769W        W 3099  19.095  28.093  13.926
34770W        W 3100   9.287  22.128   0.434
34771W        W 3101  30.470  43.996   4.729
34772W        W 3102   4.205  37.942   2.313
34773W        W 3103   5.331  37.917   1.354
34774W        W 3104   5.260   5.418   4.643
34775W        W 3105  13.271   6.290  14.339
34776W        W 3106  18.580   8.267   3.162
34777W        W 3107   6.328   2.282  13.545
34778W        W 3108  39.535   1.799  10.436
34779W        W 3109  36.427  16.259   0.800
34780W        W 3110  18.115  41.826   4.186
34781W        W 3111   9.881  11.131  11.859
34782W        W 3112  38.377  16.703   4.722
34783W        W 3113  22.048  20.209   3.843
34784W        W 3114  44.285  33.516  14.373
34785W        W 3115   9.300   3.945   1.231
34786W        W 3116  27.454   7.183   2.252
34787W        W 3117  16.089  24.208   3.783
34788W        W 3118   7.321  27.474  11.996
34789W        W 3119  10.288  38.874   3.836
34790W        W 3120   3.241  21.567   3.855
34791W        W 3121   8.834  32.437  13.375
34792W        W 3122  20.177   7.184   1.304
34793W        W 3123  41.532  21.668   0.424
34794W        W 3124   6.913   7.760   0.414
34795W        W 3125  28.472  19.193   4.310
34796W        W 3126  41.997  42.411   0.436
34797W        W 3127  34.021   1.480   2.779
34798W        W 3128  35.858  29.105  13.964
34799W        W 3129  19.683   4.809  12.546
34800W        W 3130  17.300  42.789  12.486
34801W        W 3131  20.523  35.576  12.554
34802W        W 3132  25.587  18.268  11.393
34803W        W 3133  13.768  35.030  13.389
34804W        W 3134  27.654  18.679   1.703
34805W        W 3135  40.824  25.676  13.456
34806W        W 3136  41.870  13.271   0.455
34807W        W 3137   3.294  43.787  10.475
34808W        W 3138   6.746   3.216  12.578
34809W        W 3139  26.596  17.223   1.768
34810W        W 3140  41.423   9.888   3.156
34811W        W 3141  37.529  29.949  14.898
34812W        W 3142  31.587  14.170  10.891
34813W        W 3143  44.833  24.629   4.337
34814W        W 3144  43.462   6.887  11.019
34815W        W 3145   0.798  29.946   4.766
34816W        W 3146   8.831  19.754   1.756
34817W        W 3147  40.802  39.819   2.873
34818W        W 3148  18.600   7.833  13.547
34819W        W 3149   5.862  37.493   3.716
34820W        W 3150  10.249  38.996   3.243
34821W        W 3151  17.189   8.736  13.508
34822W        W 3152  11.725   4.711  13.938
34823W        W 3153  27.099  33.912   9.529
34824W        W 3154  12.327  38.859   3.691
34825W        W 3155  29.571  14.749   4.828
34826W        W 3156  21.622   8.187   5.128
34827W        W 3157   6.730  28.185  14.764
34828W        W 3158   0.482  21.597  12.361
34829W        W 3159  36.085  14.723  14.472
34830W        W 3160  10.197   2.951   4.194
34831W        W 3161  16.578  33.475  11.581
34832W        W 3162  28.670  23.080   0.453
34833W        W 3163   7.250  14.115  10.496
34834W        W 3164  28.066  14.111  14.830
34835W        W 3165  13.248   1.753  11.896
34836W        W 3166  23.508  24.995  12.472
34837W        W 3167  36.040   6.812  14.366
34838W        W 3168   3.426  18.587  14.794
34839W        W 3169  37.884  32.943  13.508
34840W        W 3170  11.244   9.341  11.859
34841W        W 3171  14.787  16.080   1.761
34842W        W 3172  23.616  43.812   0.843
34843W        W 3173  39.813  22.511  13.835
34844W        W 3174   9.688  36.356  12.947
34845W        W 3175   7.343  30.053  11.010
34846W        W 3176  35.875  25.533  10.473
34847W        W 3177   3.458  27.585  12.869
34848W        W 3178  37.885  36.005  13.842
34849W        W 3179  33.965  24.682   3.662
34850W        W 3180  15.761  24.003   2.283
34851W        W 3181  35.582  26.568  11.057
34852W        W 3182  29.162  27.489  11.406
34853W        W 3183  21.137  44.958   3.297
34854W        W 3184  13.226  39.862   0.470
34855W        W 3185  33.088  15.708   0.404
34856W        W 3186   5.778  23.018  14.962
34857W        W 3187  32.602  37.409   2.661
34858W        W 3188  44.474  34.093  14.896
34859W        W 3189  26.066  39.050  12.475
34860W        W 3190  23.628  20.590   2.767
34861W        W 3191  43.800  14.292   1.753
34862W        W 3192   8.330  35.363  13.422
34863W        W 3193  18.057  15.119   0.867
34864W        W 3194  16.619  22.249  11.552
34865W        W 3195   6.760  40.471   3.793
34866W        W 3196  19.745  22.061   3.705
34867W        W 3197   6.882  33.995   0.323
34868W        W 3198   6.725   2.857  13.049
34869W        W 3199   8.741  31.497   3.751
34870W        W 3200   8.271  38.527  13.002
34871W        W 3201   4.845  38.048   5.175
34872W        W 3202  26.088  37.427   4.607
34873W        W 3203  39.965  43.785  14.355
34874W        W 3204  30.413   3.319  12.542
34875W        W 3205   9.670  42.964   3.672
34876W        W 3206  10.243   8.798   2.901
34877W        W 3207  18.056  10.199   1.849
34878W        W 3208  18.104  23.660  12.450
34879W        W 3209  25.690  36.588   4.663
34880W        W 3210  41.845   7.741   3.267
34881W        W 3211  21.179  11.341   1.363
34882W        W 3212  41.487  34.574  13.485
34883W        W 3213   9.876  38.048   0.842
34884W        W 3214  34.412  40.516  13.043
34885W        W 3215  27.062   0.396   4.282
34886W        W 3216   9.394  38.922  12.896
34887W        W 3217  40.314   5.275   0.779
34888W        W 3218  37.361  32.560   0.745
34889W        W 3219  17.295  24.540  14.306
34890W        W 3220  32.478  31.103   0.365
34891W        W 3221  38.886  11.303   4.222
34892W        W 3222  12.192  33.576   2.312
34893W        W 3223  16.155  36.901   4.229
34894W        W 3224   9.238   8.348   1.375
34895W        W 3225  34.043   5.194   4.230
34896W        W 3226  16.638   4.332   3.265
34897W        W 3227  36.916  42.884  14.882
34898W        W 3228   7.745  42.495   3.238
34899W        W 3229  24.982  26.469  11.498
34900W        W 3230   6.266  39.000   2.713
34901W        W 3231  43.456  29.506   1.856
34902W        W 3232  31.601  13.602   4.260
34903W        W 3233  42.796   3.455   4.164
34904W        W 3234  36.033  27.482  13.429
34905W        W 3235  21.187  12.781   4.751
34906W        W 3236  37.395  18.555  13.027
34907W        W 3237  14.206   3.870  14.818
34908W        W 3238   0.973  20.195  14.859
34909W        W 3239  22.131  11.348  14.321
34910W        W 3240  18.775  10.822   3.648
34911W        W 3241  28.955   0.381   4.283
34912W        W 3242  27.996  31.901  12.362
34913W        W 3243  11.291  22.171  10.975
34914W        W 3244   2.387  20.124  14.427
34915W        W 3245  24.196   6.213  13.063
34916W        W 3246  22.222  41.402  12.575
34917W        W 3247  33.560   1.286  12.394
34918W        W 3248  13.628  43.953   2.270
34919W        W 3249  25.165  33.432   1.812
34920W        W 3250  16.673  33.420  12.994
34921W        W 3251  25.476  42.890  12.834
34922W        W 3252  26.969  34.022  11.981
34923W        W 3253  37.909  31.899  13.366
34924W        W 3254  35.454  34.972   0.288
34925W        W 3255  36.472  24.056  11.097
34926W        W 3256  41.974  21.647  13.037
34927W        W 3257  30.557  12.758   2.669
34928W        W 3258   0.814   6.271   2.738
34929W        W 3259  37.906   3.386  12.977
34930W        W 3260  31.463  39.917  10.408
34931W        W 3261   0.967  10.165   3.291
34932W        W 3262   4.395  30.507   0.942
34933W        W 3263  31.615  17.279   4.786
34934W        W 3264  32.041  26.014   3.648
34935W        W 3265  18.682   6.917   4.778
34936W        W 3266   8.771   7.801   1.259
34937W        W 3267  25.987  43.000  11.378
34938W        W 3268   8.228  44.833  14.820
34939W        W 3269   0.935  39.020   4.736
34940W        W 3270  33.401  10.807  13.966
34941W        W 3271   1.474  43.928  13.031
34942W        W 3272  32.896  41.489   3.761
34943W        W 3273  15.205  35.012  10.974
34944W        W 3274  11.772  19.545   4.291
34945W        W 3275  34.930  13.695  12.546
34946W        W 3276   9.285  18.705   3.862
34947W        W 3277  21.670  26.650  14.990
34948W        W 3278   7.318  42.311   0.289
34949W        W 3279   5.321  21.068   1.285
34950W        W 3280  33.601   0.247   3.319
34951W        W 3281  40.931   1.371  14.780
34952W        W 3282  33.510   1.450   4.789
34953W        W 3283   8.707  16.110  12.845
34954W        W 3284  37.041  27.468  10.979
34955W        W 3285  20.038  40.385  13.897
34956W        W 3286  10.660  43.469  13.457
34957W        W 3287  19.713  25.069   3.841
34958W        W 3288  33.537   2.808   4.319
34959W        W 3289  26.668  12.691   4.829
34960W        W 3290  24.587  42.801   4.633
34961W        W 3291  38.026   7.351   2.887
34962W        W 3292  23.063  33.122   0.789
34963W        W 3293  19.268  44.964   0.416
34964W        W 3294  19.194  28.953  14.314
34965W        W 3295   6.677   1.943  12.851
34966W        W 3296  17.767  28.457   2.671
34967W        W 3297  25.013   6.778  13.349
34968W        W 3298  38.991   3.432   2.692
34969W        W 3299  39.542  39.890  12.055
34970W        W 3300  19.179   1.473  12.540
34971W        W 3301  24.701  37.568   2.401
34972W        W 3302  34.582  37.539  14.431
34973W        W 3303  28.987  21.631  14.464
34974W        W 3304  21.543  30.650   4.292
34975W        W 3305  19.240  40.919  10.427
34976W        W 3306  44.261  13.230   2.691
34977W        W 3307  10.337   6.906   4.237
34978W        W 3308   2.867  29.601  13.385
34979W        W 3309  16.742  36.098   4.759
34980W        W 3310   1.395  16.312   1.309
34981W        W 3311  10.800  37.388  13.517
34982W        W 3312  36.472  23.668  14.333
34983W        W 3313  26.997  28.521  14.966
34984W        W 3314  27.582  32.457  10.975
34985W        W 3315  11.246  30.116   2.705
34986W        W 3316  37.935  12.145  14.820
34987W        W 3317  24.082  18.052  12.501
34988W        W 3318  19.143  35.581   0.741
34989W        W 3319  26.060  42.853   0.749
34990W        W 3320  31.483   2.901  13.347
34991W        W 3321  18.228   5.831  13.961
34992W        W 3322  14.640   9.654   4.604
34993W        W 3323  37.353  21.022   2.310
34994W        W 3324   2.936  29.981  10.994
34995W        W 3325  37.522  13.651   0.455
34996W        W 3326   1.369  41.924   1.424
34997W        W 3327  36.965  20.758   3.224
34998W        W 3328   8.725  27.160   1.831
34999W        W 3329  31.054  39.395   0.802
35000W        W 3330  15.580  35.007   9.474
35001W        W 3331   4.864  12.160  10.541
35002W        W 3332  41.409   8.385  12.827
35003W        W 3333  13.810  34.387   0.255
35004W        W 3334  33.393  25.015   5.199
35005W        W 3335  28.008  33.110   4.630
35006W        W 3336   0.492   9.344   0.963
35007W        W 3337  39.373  44.300   4.263
35008W        W 3338  42.426  11.752  10.597
35009W        W 3339   5.780  37.412  12.391
35010W        W 3340  11.266  20.056   1.820
35011W        W 3341  33.926   1.404  11.497
35012W        W 3342  42.482   1.879  14.892
35013W        W 3343   6.378   7.263   4.814
35014W        W 3344   8.161  26.475   1.245
35015W        W 3345  35.487  21.701   4.167
35016W        W 3346  22.647  19.070  13.397
35017W        W 3347  41.973  43.322  11.903
35018W        W 3348   6.792  16.738  14.901
35019W        W 3349   8.249  23.640  13.316
35020W        W 3350  30.134  31.458  12.979
35021W        W 3351  16.634  32.008  12.850
35022W        W 3352  26.994  23.500  14.403
35023W        W 3353  13.296  41.464  14.777
35024W        W 3354   8.324  36.971   1.315
35025W        W 3355  31.107  36.580   2.722
35026W        W 3356  15.326  27.137  14.401
35027W        W 3357  27.035   6.751   0.741
35028W        W 3358  22.521  41.302  11.056
35029W        W 3359  31.596  26.651   3.632
35030W        W 3360  11.728  17.291   4.333
35031W        W 3361   0.370  19.625   3.832
35032W        W 3362  11.312  25.539  13.960
35033W        W 3363  39.357  20.239  11.601
35034W        W 3364   0.977  24.612   2.350
35035W        W 3365   4.720  34.412  10.526
35036W        W 3366  33.473  18.189   1.277
35037W        W 3367  19.637  20.754   4.292
35038W        W 3368  20.684   9.294  12.849
35039W        W 3369   1.253  15.276  12.857
35040W        W 3370   2.332  25.056  10.406
35041W        W 3371  12.124  34.501  12.522
35042W        W 3372   2.905  30.562   3.856
35043W        W 3373  15.142   5.397   4.817
35044W        W 3374  12.654  39.852   3.671
35045W        W 3375  36.992  20.062   3.802
35046W        W 3376  28.646  43.278  12.940
35047W        W 3377  42.918  13.177   1.438
35048W        W 3378  35.368  30.582   4.744
35049W        W 3379   5.738  18.268   3.834
35050W        W 3380   6.309  27.571  11.392
35051W        W 3381  26.497  44.957  10.894
35052W        W 3382  36.394  28.973  11.428
35053W        W 3383  40.875  24.604   0.355
35054W        W 3384  13.804  11.696  14.774
35055W        W 3385  20.236  10.246   0.473
35056W        W 3386   0.981  40.958   0.332
35057W        W 3387  28.436  18.197   3.756
35058W        W 3388  13.121  15.819   0.417
35059W        W 3389  35.046  27.127   0.816
35060W        W 3390  21.730  29.067  10.416
35061W        W 3391  44.889   4.755   3.209
35062W        W 3392  18.071   2.444   0.788
35063W        W 3393  13.757  26.177   2.388
35064W        W 3394  39.951  27.687   1.876
35065W        W 3395  36.539  43.427  13.818
35066W        W 3396  30.441   5.286   3.352
35067W        W 3397   2.739  23.078   3.231
35068W        W 3398  39.553  11.212   2.356
35069W        W 3399  12.796   6.831   2.683
35070W        W 3400   6.790  30.580   4.142
35071W        W 3401  21.049  29.526  10.475
35072W        W 3402  17.575  16.080   4.185
35073W        W 3403  30.592  17.761   1.744
35074W        W 3404   1.290  20.232  13.486
35075W        W 3405  19.724  44.796  10.482
35076W        W 3406  34.906  19.771   5.264
35077W        W 3407  17.134  30.018  11.986
35078W        W 3408  14.150  20.270   0.419
35079W        W 3409   8.344   1.254  12.578
35080W        W 3410  23.161  44.461   1.736
35081W        W 3411   9.240  42.789   0.470
35082W        W 3412  37.932  43.444   0.796
35083W        W 3413  32.544  41.876   1.747
35084W        W 3414  41.321  12.852  14.858
35085W        W 3415  34.957  23.091   1.792
35086W        W 3416  30.091  24.595  14.002
35087W        W 3417  40.391  17.067   4.749
35088W        W 3418  26.148  14.686  14.773
35089W        W 3419  35.424  42.879  10.581
35090W        W 3420  11.767  15.611   2.239
35091W        W 3421  18.094  44.496   3.649
35092W        W 3422  16.780  40.040   3.255
35093W        W 3423  27.463  21.036   4.286
35094W        W 3424  39.357   8.806   3.358
35095W        W 3425   7.381  14.670   3.266
35096W        W 3426   2.820  35.532   2.700
35097W        W 3427  37.506  25.072  12.418
35098W        W 3428  15.723  35.359  13.479
35099W        W 3429   2.786  24.086  10.447
35100W        W 3430  35.365   6.422  13.055
35101W        W 3431  40.355  28.613   1.225
35102W        W 3432  31.591   6.790  10.927
35103W        W 3433   9.832   3.940  14.404
35104W        W 3434   7.884   0.752  14.389
35105W        W 3435  33.068  34.995  12.514
35106W        W 3436  44.272  41.390   1.785
35107W        W 3437   6.731  15.772   3.307
35108W        W 3438  18.752  20.194   1.832
35109W        W 3439  27.116   2.427  11.017
35110W        W 3440  35.384  44.939   4.601
35111W        W 3441  23.678  24.052  13.921
35112W        W 3442  13.673  13.111  13.530
35113W        W 3443   8.664  31.899   1.320
35114W        W 3444  29.004   0.860  14.421
35115W        W 3445  21.212  32.948   3.235
35116W        W 3446  33.965   5.816  12.420
35117W        W 3447  23.508  12.730   4.314
35118W        W 3448   8.848  40.887  13.918
35119W        W 3449  21.213   5.358   0.246
35120W        W 3450  25.617  40.855  14.925
35121W        W 3451  16.116  13.708   4.760
35122W        W 3452  18.686  11.859   2.388
35123W        W 3453  28.176  34.073  13.997
35124W        W 3454  10.354   3.250  12.924
35125W        W 3455  14.820  10.210  14.794
35126W        W 3456  17.154  11.321   0.253
35127W        W 3457  34.980  28.441  10.638
35128W        W 3458  10.686  33.465  11.911
35129W        W 3459  16.688  11.307  12.514
35130W        W 3460  18.221  17.163  12.389
35131W        W 3461  11.222  12.739  14.812
35132W        W 3462  38.821  32.007   2.772
35133W        W 3463  40.439  26.043   0.449
35134W        W 3464  25.037  44.964  11.522
35135W        W 3465  32.596  24.197   2.851
35136W        W 3466   0.748  38.991  13.457
35137W        W 3467  34.016  27.641   4.310
35138W        W 3468  44.805  36.964   1.441
35139W        W 3469   3.268   8.716   4.682
35140W        W 3470  18.577  17.748  12.494
35141W        W 3471   6.312  43.273   3.830
35142W        W 3472  15.296  40.010   1.241
35143W        W 3473  36.942  23.110  12.577
35144W        W 3474   3.458  15.732   5.316
35145W        W 3475  24.596  31.080  14.810
35146W        W 3476  29.667  12.334   2.351
35147W        W 3477   9.265  39.422   2.770
35148W        W 3478  15.294  19.229   0.396
35149W        W 3479   0.415  40.016  12.051
35150W        W 3480   7.881  23.171  11.380
35151W        W 3481  28.130   6.324   1.869
35152W        W 3482   1.744  38.052  13.997
35153W        W 3483  38.469  26.181   0.469
35154W        W 3484   6.689  42.432  12.866
35155W        W 3485   1.331  34.400  14.924
35156W        W 3486  40.399  18.256  12.455
35157W        W 3487  19.725  16.803  10.996
35158W        W 3488  25.217   9.794   2.211
35159W        W 3489  15.764  42.282   3.683
35160W        W 3490   3.327  40.993   4.296
35161W        W 3491  35.378   8.776   2.269
35162W        W 3492  30.446   7.317   4.142
35163W        W 3493  38.898   9.326  14.860
35164W        W 3494  23.165   2.931   2.903
35165W        W 3495  13.161  34.455   4.669
35166W        W 3496  16.676  10.302  10.634
35167W        W 3497  10.286  14.597   4.794
35168W        W 3498  41.360  17.078  14.769
35169W        W 3499  37.453  16.782   0.401
35170W        W 3500  27.981  23.132  10.635
35171W        W 3501  20.244  26.686  11.527
35172W        W 3502  32.005  17.614   2.870
35173W        W 3503  19.553  30.907  12.503
35174W        W 3504  29.151  39.431  13.820
35175W        W 3505  11.299  26.125  10.631
35176W        W 3506   7.718   3.758  11.106
35177W        W 3507  15.138  35.526   0.344
35178W        W 3508  14.196  14.762   4.730
35179W        W 3509  11.209  23.237   3.268
35180W        W 3510  31.580  19.245  11.529
35181W        W 3511   8.822  32.948  11.877
35182W        W 3512  35.566  17.596   3.660
35183W        W 3513  35.959  34.106   1.354
35184W        W 3514  21.576  39.464  12.451
35185W        W 3515  44.287   2.257  11.511
35186W        W 3516  42.829  14.282  13.863
35187W        W 3517  38.885  31.136   1.820
35188W        W 3518   4.815   2.403  14.284
35189W        W 3519  34.114  24.632  13.417
35190W        W 3520   4.271  21.057   3.278
35191W        W 3521   3.743  10.791   1.829
35192W        W 3522   0.945  28.976  12.380
35193W        W 3523  39.896  25.547   4.298
35194W        W 3524  40.364  18.207  11.024
35195W        W 3525  43.309  10.748   1.706
35196W        W 3526  36.497  17.663  11.999
35197W        W 3527  20.643  41.535  13.030
35198W        W 3528  17.637  36.963   9.979
35199W        W 3529   2.906  43.818  13.326
35200W        W 3530  27.687  30.943  11.574
35201W        W 3531  34.893  32.480  10.451
35202W        W 3532  42.441  22.176  14.869
35203W        W 3533  18.782  33.592  13.924
35204W        W 3534  22.126   9.334  11.514
35205W        W 3535  29.562  37.878   4.736
35206W        W 3536   4.232  23.091   2.844
35207W        W 3537  44.874   7.830  11.039
35208W        W 3538  28.619  11.863  13.934
35209W        W 3539  35.475  18.622  12.419
35210W        W 3540  33.491   7.257   1.761
35211W        W 3541  27.013  36.876  12.840
35212W        W 3542  35.389  28.656  13.881
35213W        W 3543  23.579  16.779  11.010
35214W        W 3544  31.906   8.376   4.689
35215W        W 3545  16.147  19.619  13.821
35216W        W 3546  36.060  42.019  11.562
35217W        W 3547   4.750  30.130  11.372
35218W        W 3548  38.534  14.197   4.693
35219W        W 3549   6.237  31.535   0.275
35220W        W 3550  37.571  14.802  10.964
35221W        W 3551  37.355  23.009   2.341
35222W        W 3552   1.895  24.616  12.506
35223W        W 3553  31.935   2.275   1.407
35224W        W 3554  28.061  29.589  14.812
35225W        W 3555  28.972  37.989  11.114
35226W        W 3556   8.300   2.961  13.037
35227W        W 3557  27.476   2.830  14.323
35228W        W 3558   9.188   3.909   0.337
35229W        W 3559  39.821  18.739  13.385
35230W        W 3560  29.095  17.726   2.758
35231W        W 3561   8.891  44.782  13.015
35232W        W 3562  32.454  11.338  10.511
35233W        W 3563   7.883   6.332  12.564
35234W        W 3564  13.293  18.698   4.798
35235W        W 3565   3.714  31.507  14.409
35236W        W 3566  29.583  31.131  11.890
35237W        W 3567  32.517  24.519   0.753
35238W        W 3568  40.863  17.771  10.515
35239W        W 3569  38.055  36.869  14.909
35240W        W 3570   3.266  34.903  11.506
35241W        W 3571  11.161   1.309   2.753
35242W        W 3572  12.302  31.136   1.799
35243W        W 3573  15.131  23.113   2.336
35244W        W 3574  40.452  31.994   0.946
35245W        W 3575  29.586  31.450   5.184
35246W        W 3576  18.236  22.174   5.280
35247W        W 3577  37.570  42.802  11.390
35248W        W 3578  21.076  27.507  12.359
35249W        W 3579  25.706  10.744   5.240
35250W        W 3580  21.027  17.626  10.986
35251W        W 3581   6.407  20.594  10.894
35252W        W 3582   4.928  30.585  12.451
35253W        W 3583  19.556  27.969   3.221
35254W        W 3584  38.379  40.411  10.534
35255W        W 3585  18.055  25.514  11.538
35256W        W 3586  22.041  29.142  14.322
35257W        W 3587  40.534   8.373   2.825
35258W        W 3588   8.396  33.016  12.504
35259W        W 3589   4.350   8.800   2.293
35260W        W 3590  33.439  42.283   2.283
35261W        W 3591   9.732  27.605  14.500
35262W        W 3592   4.701   8.682   2.331
35263W        W 3593   4.325  27.505   1.731
35264W        W 3594  19.196  25.121   3.796
35265W        W 3595  34.084   8.768   1.277
35266W        W 3596  26.621   8.381  13.931
35267W        W 3597  15.693  37.079   4.684
35268W        W 3598  44.467   9.230   0.800
35269W        W 3599  27.479  29.172  14.812
35270W        W 3600  11.758  29.484  11.011
35271W        W 3601  35.046  44.343  12.983
35272W        W 3602  23.549   9.772  10.482
35273W        W 3603  29.071  29.163  14.852
35274W        W 3604  19.767   3.410  13.826
35275W        W 3605   7.239  25.675  13.381
35276W        W 3606   7.830  11.257  13.443
35277W        W 3607  10.654  34.112  13.967
35278W        W 3608  22.165   8.828  13.936
35279W        W 3609  33.384  43.803   4.694
35280W        W 3610  11.268  29.609   4.747
35281W        W 3611  20.604  20.541  10.516
35282W        W 3612  33.895  25.017  13.034
35283W        W 3613  26.007  27.032   4.616
35284W        W 3614  39.011  27.049  13.891
35285W        W 3615  25.177  29.953  13.977
35286W        W 3616  34.447  29.637  12.963
35287W        W 3617  15.248  38.964   0.440
35288W        W 3618  15.650  35.933  11.455
35289W        W 3619  29.931  28.579   1.734
35290W        W 3620  26.006  38.440  13.380
35291W        W 3621   7.344  24.706  10.423
35292W        W 3622  17.307  27.025   2.338
35293W        W 3623  34.434  18.151   2.373
35294W        W 3624   1.970  15.782   0.935
35295W        W 3625  11.136  26.197  14.448
35296W        W 3626  10.185  12.347  13.836
35297W        W 3627  13.629  25.710   0.424
35298W        W 3628   6.250  22.018   2.751
35299W        W 3629  14.296   6.267   1.934
35300W        W 3630  20.186  15.746   3.701
35301W        W 3631  42.488  36.866   4.656
35302W        W 3632  22.061   5.256  13.058
35303W        W 3633  43.319   4.826  13.032
35304W        W 3634  26.663  33.521  10.044
35305W        W 3635  10.799  28.678  13.009
35306W        W 3636   5.788   7.260  13.310
35307W        W 3637  37.063  22.626  10.962
35308W        W 3638   5.205   0.296   1.838
35309W        W 3639  39.860  43.768   4.700
35310W        W 3640   3.891  17.078   3.206
35311W        W 3641   7.804  33.567   0.392
35312W        W 3642  13.171  39.378   0.903
35313W        W 3643  29.558   8.303  14.885
35314W        W 3644   3.823   2.813   0.332
35315W        W 3645  32.442  22.183  12.415
35316W        W 3646  35.893   5.264   3.776
35317W        W 3647  42.014  11.674   4.288
35318W        W 3648  23.584  15.134   0.919
35319W        W 3649  22.732  22.084   3.266
35320W        W 3650  28.954   6.848  13.008
35321W        W 3651  25.209   9.161  11.967
35322W        W 3652   3.751  14.312   2.406
35323W        W 3653  34.959   7.198   0.252
35324W        W 3654  39.431  22.697  12.416
35325W        W 3655   6.777  41.293  10.473
35326W        W 3656  37.373   2.894  13.980
35327W        W 3657  25.542  18.112  14.372
35328W        W 3658  40.432  25.179  12.056
35329W        W 3659   8.284  18.696   3.203
35330W        W 3660  12.216   9.828  11.986
35331W        W 3661  16.196  20.760   3.323
35332W        W 3662  10.788  26.488  13.381
35333W        W 3663  18.267   5.929  10.550
35334W        W 3664  40.373  19.170  13.335
35335W        W 3665   2.810  13.277   1.757
35336W        W 3666  30.992   8.322  13.829
35337W        W 3667   0.407  32.412   3.385
35338W        W 3668  36.924   2.272  11.876
35339W        W 3669  34.495  34.402   2.688
35340W        W 3670   5.274  27.552   4.635
35341W        W 3671  34.871  27.140   4.288
35342W        W 3672  31.016   0.444  14.891
35343W        W 3673  21.530  35.005  12.364
35344W        W 3674  41.880  18.633   4.139
35345W        W 3675   8.367  32.919   2.390
35346W        W 3676  31.990  30.914  11.928
35347W        W 3677  11.221  37.514  10.545
35348W        W 3678  28.127   9.311  13.992
35349W        W 3679  12.299  41.907   2.373
35350W        W 3680   2.240  30.161  10.942
35351W        W 3681  28.674  22.546   3.359
35352W        W 3682  16.124  12.633  13.484
35353W        W 3683   9.836  33.578   2.322
35354W        W 3684  10.234  40.853  13.463
35355W        W 3685  22.570  24.087  11.931
35356W        W 3686   1.404  42.021   1.922
35357W        W 3687   5.696   9.351   4.195
35358W        W 3688  14.278   6.383   0.363
35359W        W 3689  33.536   3.423   2.718
35360W        W 3690  23.721  42.004  11.492
35361W        W 3691  33.482  18.070  11.427
35362W        W 3692  27.539  32.125   9.977
35363W        W 3693  11.179  41.895  14.977
35364W        W 3694  36.909  35.431   1.414
35365W        W 3695  38.842  33.625   3.718
35366W        W 3696  25.091   8.879   5.181
35367W        W 3697  12.224  44.373   1.847
35368W        W 3698  36.982   4.878  13.884
35369W        W 3699  37.049  27.567   2.850
35370W        W 3700  17.114  34.885  12.379
35371W        W 3701  10.730  43.913   1.921
35372W        W 3702  25.485  17.289  13.793
35373W        W 3703  17.200   6.708  11.438
35374W        W 3704  14.296  36.019   3.718
35375W        W 3705  33.568  43.955   0.758
35376W        W 3706  23.143  26.961   0.474
35377W        W 3707  17.678  40.868  14.493
35378W        W 3708  10.735  36.550  14.961
35379W        W 3709  29.576  39.350  11.056
35380W        W 3710  44.259  30.151   2.319
35381W        W 3711   2.358  22.607   3.841
35382W        W 3712  29.056  20.170  13.533
35383W        W 3713  16.589   2.888  13.505
35384W        W 3714  16.186  28.142   2.846
35385W        W 3715   9.352  41.499  13.376
35386W        W 3716  35.475  32.620  11.001
35387W        W 3717   5.887  27.126   4.632
35388W        W 3718  37.477  34.571  13.913
35389W        W 3719  35.545  44.990   4.248
35390W        W 3720  34.986  35.041   3.734
35391W        W 3721  28.993  21.021  12.520
35392W        W 3722  27.479  34.523   4.341
35393W        W 3723  27.690   6.412  12.383
35394W        W 3724  43.340  35.955   9.996
35395W        W 3725  16.299  12.802   1.721
35396W        W 3726  39.559  21.105   4.614
35397W        W 3727  11.766   1.430   2.875
35398W        W 3728  36.846  17.198   0.903
35399W        W 3729  35.378  39.387   2.253
35400W        W 3730  33.544  16.712  11.095
35401W        W 3731  44.459  32.127   5.121
35402W        W 3732  26.001   2.784   2.824
35403W        W 3733   3.250  33.989  12.001
35404W        W 3734  31.944  11.255  10.077
35405W        W 3735  22.702  42.318   1.831
35406W        W 3736  15.692  35.565   2.885
35407W        W 3737  28.642  12.618  12.026
35408W        W 3738   7.804   9.727   1.375
35409W        W 3739  15.249  29.992   0.356
35410W        W 3740  18.618  28.154  10.423
35411W        W 3741  26.537  35.571   4.758
35412W        W 3742  21.698  42.379  10.407
35413W        W 3743  16.751  42.410  12.898
35414W        W 3744  27.588  12.176   4.172
35415W        W 3745  26.177  40.339  12.056
35416W        W 3746  44.375   2.324   0.874
35417W        W 3747   9.394  32.096   0.395
35418W        W 3748  14.705  15.325   3.638
35419W        W 3749  13.838  44.991  11.972
35420W        W 3750  30.058  31.935  14.449
35421W        W 3751  17.262  18.734   0.818
35422W        W 3752  19.660  30.564   3.163
35423W        W 3753  12.295  15.235  11.963
35424W        W 3754  29.003  32.076   2.271
35425W        W 3755   4.242  24.637   0.418
35426W        W 3756  26.611  34.104   1.745
35427W        W 3757  20.701  26.476  12.345
35428W        W 3758   9.825  14.661   0.903
35429W        W 3759  22.158  37.885   1.228
35430W        W 3760   1.305   0.948  12.078
35431W        W 3761  28.471  26.492  13.934
35432W        W 3762  20.143  10.209   5.239
35433W        W 3763  21.108  20.703   2.297
35434W        W 3764   7.386  39.463  11.408
35435W        W 3765  32.914  22.575   3.164
35436W        W 3766  40.974  31.956  11.552
35437W        W 3767  34.883  44.003   2.702
35438W        W 3768  33.897  24.561   2.265
35439W        W 3769   5.756  35.080  11.604
35440W        W 3770  30.088  31.578  11.026
35441W        W 3771  23.175  26.180  11.057
35442W        W 3772  25.038  28.448  11.468
35443W        W 3773  17.655   2.899  14.978
35444W        W 3774  35.004  14.168   2.848
35445W        W 3775  14.323  28.997   1.879
35446W        W 3776  25.710  38.546  11.932
35447W        W 3777   9.191  42.895  13.390
35448W        W 3778  21.615  30.079  12.886
35449W        W 3779  32.103  15.694   3.347
35450W        W 3780  11.771  29.023   4.818
35451W        W 3781  22.633  18.077  12.341
35452W        W 3782  31.150  31.503   3.782
35453W        W 3783  22.660  31.110  13.948
35454W        W 3784  25.709  12.270  12.497
35455W        W 3785   7.340  11.716   3.187
35456W        W 3786  32.493   2.237   2.819
35457W        W 3787  41.875  30.638  14.897
35458W        W 3788   0.984  17.227  13.010
35459W        W 3789   3.875  27.688  11.427
35460W        W 3790   6.379  15.699   3.174
35461W        W 3791  35.598  31.496  13.400
35462W        W 3792  25.546  11.861   2.362
35463W        W 3793  12.770  25.978   1.401
35464W        W 3794  29.102  40.910  12.438
35465W        W 3795  10.870  27.684  13.420
35466W        W 3796   8.365  17.152  12.088
35467W        W 3797  26.661  14.639  10.906
35468W        W 3798  40.444  25.645   0.797
35469W        W 3799  19.586   6.286  13.338
35470W        W 3800  37.351   5.419   0.929
35471W        W 3801  13.185  33.104  13.387
35472W        W 3802  36.369  43.010   2.666
35473W        W 3803  19.247  16.714   4.829
35474W        W 3804   9.232  26.662  14.867
35475W        W 3805   0.313  39.046  13.895
35476W        W 3806  36.948  24.023   4.122
35477W        W 3807  31.501  24.700   1.227
35478W        W 3808  17.086  12.611   3.367
35479W        W 3809   7.676  16.178   3.768
35480W        W 3810  21.186  13.797  14.813
35481W        W 3811  27.518  10.151   2.716
35482W        W 3812  23.505  21.716  14.414
35483W        W 3813  27.080  26.597   3.319
35484W        W 3814  38.404  14.317  11.395
35485W        W 3815  44.855  12.669   3.638
35486W        W 3816   6.241  33.531   3.679
35487W        W 3817  43.905  10.323   2.669
35488W        W 3818  25.476  17.291  13.523
35489W        W 3819   3.396  24.123   0.946
35490W        W 3820  10.713  18.194   0.934
35491W        W 3821  37.452  18.266  13.531
35492W        W 3822   4.232  28.568  14.410
35493W        W 3823  32.095  12.192  13.814
35494W        W 3824  14.233  17.227  11.525
35495W        W 3825  25.638  33.526  14.455
35496W        W 3826  26.554  24.218   3.358
35497W        W 3827  12.279  44.854  11.878
35498W        W 3828  32.610  30.003   2.183
35499W        W 3829  42.943  26.559   5.273
35500W        W 3830  44.947  36.847  14.479
35501W        W 3831  21.174   4.304  13.929
35502W        W 3832  12.637  33.884   0.455
35503W        W 3833  16.105   2.236   1.306
35504W        W 3834  35.873  14.751   1.433
35505W        W 3835  14.319  37.490   4.676
35506W        W 3836  30.022  20.235   0.935
35507W        W 3837   8.673  22.129  12.535
35508W        W 3838  36.048  23.101  12.937
35509W        W 3839  12.760  38.562   3.264
35510W        W 3840  31.647  28.667  11.903
35511W        W 3841  31.601  11.171  10.426
35512W        W 3842  40.425  28.072   4.210
35513W        W 3843   5.382  40.024   4.180
35514W        W 3844  26.548  26.548   2.228
35515W        W 3845  40.839  31.503  13.821
35516W        W 3846  22.702   6.337   3.176
35517W        W 3847  40.999   8.235   3.249
35518W        W 3848  30.416  44.285   3.311
35519W        W 3849  36.090   8.312   3.658
35520W        W 3850  37.375   4.752  11.507
35521W        W 3851  23.134  34.066   2.322
35522W        W 3852  37.966  40.483   0.747
35523W        W 3853  36.438  21.622  10.564
35524W        W 3854  25.519  10.232   2.381
35525W        W 3855  15.226  36.564   0.861
35526W        W 3856   4.281  40.330  14.275
35527W        W 3857   9.883  19.045  12.887
35528W        W 3858  31.550  41.954  10.551
35529W        W 3859  22.092   1.944   2.683
35530W        W 3860  44.775  16.243  14.312
35531W        W 3861  16.226  11.216   1.211
35532W        W 3862  28.558  26.534  13.444
35533W        W 3863  17.174  10.792   0.421
35534W        W 3864  22.687  34.866   1.866
35535W        W 3865  15.693  20.243   4.643
35536W        W 3866  21.099  11.245   3.776
35537W        W 3867  26.703  18.169   2.385
35538W        W 3868  38.939  36.970   3.860
35539W        W 3869  10.656   5.384   3.682
35540W        W 3870  14.298  16.280   3.698
35541W        W 3871  28.467  24.048   4.615
35542W        W 3872   4.823  31.414  11.972
35543W        W 3873  25.476  25.485  11.412
35544W        W 3874  22.606   8.314  13.490
35545W        W 3875  11.700  23.161  10.469
35546W        W 3876   4.286  16.097  10.936
35547W        W 3877  37.465   2.269  11.978
35548W        W 3878   8.229  23.045  12.489
35549W        W 3879   3.837   3.374   1.897
35550W        W 3880  26.579   7.885   2.249
35551W        W 3881  15.208  19.207  13.799
35552W        W 3882  35.443  14.217   4.173
35553W        W 3883   1.900  36.094  14.386
35554W        W 3884  28.147  38.922  12.348
35555W        W 3885   9.700  10.756  14.804
35556W        W 3886  36.567   5.428  10.623
35557W        W 3887  42.441  23.654   0.822
35558W        W 3888   8.395  38.363   3.356
35559W        W 3889  23.209   9.394   2.879
35560W        W 3890  34.890   9.245  14.456
35561W        W 3891  15.765   9.888   0.918
35562W        W 3892  38.863   7.751   2.749
35563W        W 3893  26.630  29.951   3.739
35564W        W 3894  22.116  34.504   4.602
35565W        W 3895  14.292  19.653   4.224
35566W        W 3896  28.089  27.002   1.408
35567W        W 3897  36.017  34.528  12.545
35568W        W 3898  23.199  28.585  13.852
35569W        W 3899  24.068  11.291  13.038
35570W        W 3900  36.065  35.975   2.719
35571W        W 3901  15.656  16.737   0.875
35572W        W 3902  29.543  12.346  10.595
35573W        W 3903  23.235  17.286  10.557
35574W        W 3904  28.672  44.426  11.481
35575W        W 3905  11.745  30.923   0.793
35576W        W 3906  44.866  12.356  10.950
35577W        W 3907  17.255   9.766  14.943
35578W        W 3908  19.172  43.373  10.962
35579W        W 3909   7.911   9.859   0.467
35580W        W 3910  38.931  42.968  12.393
35581W        W 3911  33.002  14.764  14.980
35582W        W 3912  18.691  28.965   2.248
35583W        W 3913  34.387  32.088  14.997
35584W        W 3914   5.932  12.313  13.400
35585W        W 3915   0.940  23.652   2.340
35586W        W 3916  23.091  19.189   0.951
35587W        W 3917  25.172   2.252  12.833
35588W        W 3918   3.397  25.686   3.282
35589W        W 3919  41.518  17.184   3.334
35590W        W 3920  14.701  37.885   5.649
35591W        W 3921  13.276  19.279  11.461
35592W        W 3922  13.254  28.655   2.695
35593W        W 3923  32.953  40.831  12.519
35594W        W 3924  32.988   1.781  11.460
35595W        W 3925  38.384  28.011   1.438
35596W        W 3926  31.485  44.846  14.773
35597W        W 3927  43.421  29.576  13.016
35598W        W 3928   3.892  31.570   2.846
35599W        W 3929  27.640  15.663   0.262
35600W        W 3930  22.721   7.783  12.580
35601W        W 3931  11.723  44.295  10.964
35602W        W 3932  32.118   5.829  11.871
35603W        W 3933  26.485  22.025  14.961
35604W        W 3934   2.840  29.053  10.436
35605W        W 3935   6.745  39.502  12.468
35606W        W 3936  28.991  33.418   4.711
35607W        W 3937   0.385  29.066   4.663
35608W        W 3938  27.011   5.829  12.924
35609W        W 3939  10.745  23.641  14.828
35610W        W 3940   1.887  38.871   3.727
35611W        W 3941  36.008  40.027  13.419
35612W        W 3942  35.371  33.880  14.315
35613W        W 3943  23.544  39.381  14.278
35614W        W 3944   5.761   1.332   1.401
35615W        W 3945  10.320  36.023   2.294
35616W        W 3946  37.348  14.625  14.808
35617W        W 3947  40.933  24.120  14.466
35618W        W 3948   9.359  10.204   0.295
35619W        W 3949  21.665  27.127   4.777
35620W        W 3950  29.949  43.012  11.392
35621W        W 3951  24.118  42.341   4.721
35622W        W 3952  16.311  26.699   3.791
35623W        W 3953  38.354  12.308  13.312
35624W        W 3954  35.526   7.264  13.344
35625W        W 3955  15.586  37.021  10.100
35626W        W 3956  22.028   7.757   4.265
35627W        W 3957   7.830  39.894   0.471
35628W        W 3958  14.291  16.162   0.797
35629W        W 3959   1.760  40.807   3.839
35630W        W 3960  38.016  10.805  14.477
35631W        W 3961   2.851  35.536   9.664
35632W        W 3962  29.550  11.821  11.869
35633W        W 3963   3.801   3.295   0.780
35634W        W 3964  36.884  17.112  11.100
35635W        W 3965  39.905  12.201   2.356
35636W        W 3966  10.708   5.222   0.735
35637W        W 3967  29.507  24.630   2.839
35638W        W 3968  44.418  19.107   9.964
35639W        W 3969  32.532  23.666  13.901
35640W        W 3970  22.237  32.636  10.554
35641W        W 3971   8.209  31.619   0.755
35642W        W 3972  10.362  23.602  14.897
35643W        W 3973  33.092  30.915   3.272
35644W        W 3974  43.898  13.845  12.846
35645W        W 3975  41.342  14.120  10.463
35646W        W 3976  29.580  12.685   1.285
35647W        W 3977  24.035  33.018  11.508
35648W        W 3978  43.272   9.770   3.737
35649W        W 3979  39.476  25.536  12.950
35650W        W 3980   7.294   4.409  14.779
35651W        W 3981  14.178  26.507   2.816
35652W        W 3982  27.513   0.771   0.786
35653W        W 3983   6.298  17.788   2.765
35654W        W 3984  15.233  35.386   1.357
35655W        W 3985   4.265  42.955  12.009
35656W        W 3986  20.224   1.365  11.432
35657W        W 3987  12.239  36.920   3.367
35658W        W 3988  13.214  31.972  14.317
35659W        W 3989   6.242  44.368  11.016
35660W        W 3990  15.760  13.149   4.647
35661W        W 3991  20.069  43.472   1.412
35662W        W 3992  35.960   7.269   4.660
35663W        W 3993  37.482  31.133  11.013
35664W        W 3994  23.660  44.923  11.576
35665W        W 3995  28.035  34.543  11.410
35666W        W 3996  40.986  43.915  11.116
35667W        W 3997  35.583   0.855   0.397
35668W        W 3998   0.868  21.746  11.103
35669W        W 3999  20.736  30.446   4.764
35670W        W 4000  40.846   3.277  12.468
35671W        W 4001   4.920  30.973   2.852
35672W        W 4002  24.050  31.985  12.556
35673W        W 4003  35.980  27.532   2.219
35674W        W 4004   7.342  32.966  13.891
35675W        W 4005  32.512  38.376   1.748
35676W        W 4006  39.315  42.378  12.923
35677W        W 4007  16.182  26.559   5.194
35678W        W 4008   3.905  29.557   4.633
35679W        W 4009  20.615  18.612  12.841
35680W        W 4010   0.844   0.277  13.403
35681W        W 4011  15.645  21.256   5.109
35682W        W 4012  39.556  23.136   2.692
35683W        W 4013   8.722  11.364  10.444
35684W        W 4014   9.297  25.692  14.910
35685W        W 4015  34.031  28.546  13.322
35686W        W 4016  30.481  24.547  10.917
35687W        W 4017  14.730  36.048   1.282
35688W        W 4018  44.762  24.104  12.496
35689W        W 4019  42.969   2.234   1.769
35690W        W 4020  20.115  15.588   2.727
35691W        W 4021  43.376  29.579  11.126
35692W        W 4022  17.301   0.988  11.055
35693W        W 4023   9.775  42.885   5.291
35694W        W 4024  39.438   6.841  10.615
35695W        W 4025  11.134  38.425  11.032
35696W        W 4026  29.448  19.774   1.349
35697W        W 4027  18.654  30.633  13.470
35698W        W 4028  15.325  38.437   1.855
35699W        W 4029   9.739  31.460  11.487
35700W        W 4030  36.413   9.375   2.288
35701W        W 4031   9.205  15.706  12.509
35702W        W 4032  16.318  35.945  10.521
35703W        W 4033  43.381  38.495  11.496
35704W        W 4034  15.139  22.046   0.308
35705W        W 4035   1.828  38.980   9.648
35706W        W 4036  24.541  35.865  12.039
35707W        W 4037   2.732  16.169  14.848
35708W        W 4038  11.708  17.305  10.898
35709W        W 4039  29.029  18.748   0.891
35710W        W 4040  30.431  10.716   1.256
35711W        W 4041  13.143  43.367   2.242
35712W        W 4042  42.907   5.203   2.342
35713W        W 4043  40.547   5.893   0.906
35714W        W 4044  34.467   7.773   1.866
35715W        W 4045  10.655  28.060   0.736
35716W        W 4046  18.736  38.892  13.955
35717W        W 4047  14.304  36.065  10.096
35718W        W 4048  44.995  23.575   1.873
35719W        W 4049  40.857   2.237   1.797
35720W        W 4050  36.006  21.661   3.762
35721W        W 4051  21.139  40.527   5.097
35722W        W 4052  29.955  26.150   0.426
35723W        W 4053   8.161  23.037   1.341
35724W        W 4054  42.514  34.481  12.984
35725W        W 4055  13.678  14.659  10.519
35726W        W 4056  32.138  30.109  13.916
35727W        W 4057  28.078  26.979   4.301
35728W        W 4058  32.059  24.640  14.312
35729W        W 4059  34.938  17.296   1.442
35730W        W 4060  11.328  40.372   3.224
35731W        W 4061   0.961  13.744  12.049
35732W        W 4062  12.222  26.097  11.522
35733W        W 4063   5.334   4.927   1.852
35734W        W 4064  41.992  21.642   1.830
35735W        W 4065  40.928  41.880  11.122
35736W        W 4066  39.533  36.885  13.438
35737W        W 4067  38.829  28.642   4.211
35738W        W 4068  24.691  30.626  13.424
35739W        W 4069   5.869  11.744   1.261
35740W        W 4070  33.876  12.715  11.490
35741W        W 4071  33.604  16.575   3.338
35742W        W 4072  44.319  34.925  10.938
35743W        W 4073   5.719   3.306  13.899
35744W        W 4074  25.536   6.330   0.460
35745W        W 4075  44.401  32.959   4.697
35746W        W 4076  22.218  34.406  11.376
35747W        W 4077  15.765  11.305  12.904
35748W        W 4078  30.658  32.394   2.260
35749W        W 4079  30.076  11.688  13.059
35750W        W 4080  18.626  14.105   0.802
35751W        W 4081  21.543  11.128  13.036
35752W        W 4082  40.376  17.125  11.888
35753W        W 4083   6.918  32.498   1.404
35754W        W 4084  36.445  35.103  14.413
35755W        W 4085  35.026   0.979   2.839
35756W        W 4086  33.483  16.763  12.990
35757W        W 4087  11.739  41.970   3.633
35758W        W 4088  16.774  44.445  10.440
35759W        W 4089   7.866   1.475   0.368
35760W        W 4090  28.477  18.720   0.785
35761W        W 4091  20.662  16.617  14.449
35762W        W 4092   2.744  21.032   0.897
35763W        W 4093   8.704   9.377  10.450
35764W        W 4094  36.911  43.013  13.538
35765W        W 4095  13.613  33.533  12.435
35766W        W 4096  44.496  39.996   0.408
35767W        W 4097  33.615  14.659  13.934
35768W        W 4098  19.535  33.128  13.420
35769W        W 4099   2.438  26.551  14.964
35770W        W 4100  40.996   5.207   2.763
35771W        W 4101  40.857  36.482  12.567
35772W        W 4102  19.646  26.076   2.761
35773W        W 4103   9.350  17.742  10.459
35774W        W 4104  40.941  22.043   1.426
35775W        W 4105  10.667  38.562   0.474
35776W        W 4106  34.579  43.399  10.532
35777W        W 4107  31.531  22.527   0.904
35778W        W 4108  41.982   5.833   0.911
35779W        W 4109  42.378  37.838   4.749
35780W        W 4110  30.631   0.436  13.443
35781W        W 4111  29.126   8.297  13.499
35782W        W 4112  43.961  14.636  11.856
35783W        W 4113  20.614  25.603   2.665
35784W        W 4114  30.072  20.115  10.154
35785W        W 4115   4.213  42.832   2.363
35786W        W 4116  11.247  23.587   2.708
35787W        W 4117   7.685  39.436  11.588
35788W        W 4118  16.766  10.817   1.699
35789W        W 4119   6.346  41.914   1.369
35790W        W 4120   8.763  33.081   0.936
35791W        W 4121   2.862  11.325   0.264
35792W        W 4122  20.539  31.531   5.292
35793W        W 4123  44.354   9.255   1.230
35794W        W 4124   5.378  36.519  11.944
35795W        W 4125  40.983   5.376  14.986
35796W        W 4126  28.043  23.216  11.396
35797W        W 4127  41.020   7.200   5.720
35798W        W 4128   3.406  34.525   3.284
35799W        W 4129  22.667  35.366  11.937
35800W        W 4130  20.194  44.469   3.296
35801W        W 4131  40.516  22.711  10.125
35802W        W 4132  23.662  15.092   3.373
35803W        W 4133  29.123  10.801   0.377
35804W        W 4134  14.620  14.814  11.024
35805W        W 4135  30.627  39.422  13.031
35806W        W 4136  38.441  32.479   3.200
35807W        W 4137  43.004  42.029  14.381
35808W        W 4138   9.769   2.761  12.930
35809W        W 4139  25.971  27.599   3.649
35810W        W 4140  29.455   7.261  13.011
35811W        W 4141   7.298  11.174  14.514
35812W        W 4142  36.352   0.419   2.713
35813W        W 4143  34.957  41.393  12.042
35814W        W 4144  33.552   0.878   0.946
35815W        W 4145  43.355  21.520   1.294
35816W        W 4146  26.153  33.112  13.904
35817W        W 4147  28.117   9.298  12.060
35818W        W 4148  36.954  16.249   2.733
35819W        W 4149  14.251  39.891  11.544
35820W        W 4150  42.414  38.557  10.433
35821W        W 4151  38.418  35.089  14.476
35822W        W 4152  38.923  20.759  11.897
35823W        W 4153  44.405   5.922   2.765
35824W        W 4154   4.423   7.235   2.757
35825W        W 4155   6.676   6.816  14.824
35826W        W 4156  40.416  38.504   3.224
35827W        W 4157  42.522  38.871  11.979
35828W        W 4158  42.414   7.868   2.322
35829W        W 4159  16.786  39.495   4.345
35830W        W 4160  35.374  43.935   4.744
35831W        W 4161  20.607  14.678   1.269
35832W        W 4162  39.441  41.330   1.711
35833W        W 4163  24.710  23.178  11.974
35834W        W 4164  10.667  42.811  14.028
35835W        W 4165  15.269  34.541   5.259
35836W        W 4166   9.268   0.442   3.268
35837W        W 4167   7.711  28.480   2.260
35838W        W 4168  16.314  32.455   1.399
35839W        W 4169  40.980  25.684   4.835
35840W        W 4170  17.784  33.525   1.710
35841W        W 4171  25.650  19.261   1.397
35842W        W 4172   4.792  23.233   2.713
35843W        W 4173  22.573  40.337  10.583
35844W        W 4174  35.107  42.017  14.399
35845W        W 4175  40.429  34.471   4.255
35846W        W 4176  16.812  41.363   1.700
35847W        W 4177  17.223  44.758  10.424
35848W        W 4178   5.411   8.312  13.338
35849W        W 4179   0.807  35.482  12.544
35850W        W 4180  15.269  14.331  14.768
35851W        W 4181  22.574  16.102  10.907
35852W        W 4182  10.701   8.319  13.838
35853W        W 4183  33.447   1.362  14.304
35854W        W 4184  33.404  37.479  10.004
35855W        W 4185   3.899  28.530   0.909
35856W        W 4186  27.011   7.797   2.305
35857W        W 4187   1.280  26.598   3.365
35858W        W 4188  10.184  21.740   1.917
35859W        W 4189  39.833  15.688  12.044
35860W        W 4190   7.833  38.994  11.594
35861W        W 4191  17.202   7.834   1.920
35862W        W 4192  11.136   7.260  10.908
35863W        W 4193  41.422  18.743   0.450
35864W        W 4194   0.870  11.827   2.296
35865W        W 4195  33.546  11.799   4.270
35866W        W 4196   5.857   2.783  11.480
35867W        W 4197  21.665  21.568   1.354
35868W        W 4198  41.924  18.227  11.585
35869W        W 4199  28.503  13.663   0.326
35870W        W 4200  21.245   0.847   3.674
35871W        W 4201   6.361   2.260   5.223
35872W        W 4202  38.929  11.338  10.096
35873W        W 4203  11.364  17.750  12.969
35874W        W 4204  26.477   7.207  13.440
35875W        W 4205  31.981  19.699  12.921
35876W        W 4206   6.298  41.895   0.358
35877W        W 4207  36.374  14.803  11.106
35878W        W 4208  36.075   7.226   0.747
35879W        W 4209   8.321  33.517  13.051
35880W        W 4210  44.998  28.554  12.867
35881W        W 4211   0.765  18.083   2.233
35882W        W 4212  38.455  17.125   3.154
35883W        W 4213  39.900  17.569  10.538
35884W        W 4214  16.690  15.818  13.798
35885W        W 4215  11.805  18.642  11.394
35886W        W 4216  14.244  28.511   3.694
35887W        W 4217  36.918  32.430  10.983
35888W        W 4218   1.305  43.465   0.258
35889W        W 4219   3.432  13.186   1.277
35890W        W 4220  12.169  30.533  11.028
35891W        W 4221  27.540  10.160  11.952
35892W        W 4222  11.342   8.374   0.442
35893W        W 4223   3.317  23.157   0.852
35894W        W 4224  22.052  13.343   1.324
35895W        W 4225  31.442  35.881   2.259
35896W        W 4226  30.985  31.045   1.701
35897W        W 4227   5.700  19.237  13.950
35898W        W 4228  39.853  44.477   0.261
35899W        W 4229  24.071  43.339  11.974
35900W        W 4230  37.954  20.631   4.279
35901W        W 4231  40.357  13.329  14.906
35902W        W 4232  10.667  23.168   1.306
35903W        W 4233   5.330  20.097  14.514
35904W        W 4234  32.498  32.935   4.141
35905W        W 4235  17.292  22.191  12.908
35906W        W 4236  17.606  43.512  11.448
35907W        W 4237  39.521  40.441  10.436
35908W        W 4238  28.612   9.714   0.304
35909W        W 4239  37.468  38.018   2.838
35910W        W 4240  27.673   6.300  14.512
35911W        W 4241  16.599  31.915   3.365
35912W        W 4242  28.458  15.810  14.934
35913W        W 4243   8.194   5.857   3.712
35914W        W 4244  38.371  29.007   1.769
35915W        W 4245  34.425   8.397   4.179
35916W        W 4246  26.082  12.663  10.635
35917W        W 4247  27.577  36.908  14.827
35918W        W 4248  35.047  31.413  13.499
35919W        W 4249   3.935  43.506  12.915
35920W        W 4250  21.145  43.470   0.280
35921W        W 4251   1.850   6.270  12.475
35922W        W 4252  43.771  23.585   3.821
35923W        W 4253  11.761   7.865   1.263
35924W        W 4254  24.583  38.347  13.509
35925W        W 4255  28.468  15.233  12.402
35926W        W 4256   9.784   6.694  13.037
35927W        W 4257  21.695   9.732  12.455
35928W        W 4258  31.476   2.953   2.295
35929W        W 4259  22.030  14.096  12.096
35930W        W 4260  41.018  16.693  11.571
35931W        W 4261  18.776   2.267   0.410
35932W        W 4262  24.614   0.792  13.526
35933W        W 4263  38.333  38.969   1.414
35934W        W 4264  43.283  24.186  13.962
35935W        W 4265  11.793  29.578   1.355
35936W        W 4266  29.483   4.924   4.615
35937W        W 4267  43.808  41.913   2.784
35938W        W 4268   5.215  19.775   1.730
35939W        W 4269  36.889  15.188  14.947
35940W        W 4270  40.547  41.488   0.330
35941W        W 4271   9.861  23.147   2.198
35942W        W 4272  13.185   2.966  14.356
35943W        W 4273  16.594   8.875   3.639
35944W        W 4274  24.078  39.055   2.211
35945W        W 4275  31.609  27.476   4.723
35946W        W 4276  31.129   8.192  13.497
35947W        W 4277   9.714  15.135  13.846
35948W        W 4278  29.957  40.043   1.301
35949W        W 4279  17.713  16.582  12.390
35950W        W 4280  40.326  18.107   2.663
35951W        W 4281  25.612  11.254  14.357
35952W        W 4282   9.309  41.846  11.032
35953W        W 4283  30.143  10.841  11.040
35954W        W 4284  40.859  28.947  14.458
35955W        W 4285  17.594  13.755   1.327
35956W        W 4286  43.922   8.184  11.907
35957W        W 4287  25.591  19.621   4.259
35958W        W 4288  23.064  16.754  11.029
35959W        W 4289  26.001  35.504   1.219
35960W        W 4290  32.885   1.293   4.285
35961W        W 4291   1.878  28.936   1.795
35962W        W 4292  20.132  25.091   4.704
35963W        W 4293  38.827  23.152  13.899
35964W        W 4294  25.561  31.514  11.542
35965W        W 4295  15.298  28.002   4.636
35966W        W 4296  36.480  18.646  14.378
35967W        W 4297  44.805   6.216  11.523
35968W        W 4298  25.194   6.311  12.855
35969W        W 4299  22.997  43.296   1.339
35970W        W 4300   3.916  43.335  13.862
35971W        W 4301  11.320   0.418  12.093
35972W        W 4302   5.317  19.675   3.351
35973W        W 4303   5.262  37.013   2.764
35974W        W 4304  31.922  40.442   0.935
35975W        W 4305  32.027  17.157  13.009
35976W        W 4306  11.668  31.458  14.506
35977W        W 4307  22.219   3.420  10.963
35978W        W 4308  14.328  32.519   2.693
35979W        W 4309  32.139   4.239  13.337
35980W        W 4310  42.508  36.382  11.513
35981W        W 4311  23.227  24.003   2.795
35982W        W 4312   2.796  25.564  11.899
35983W        W 4313  13.638  21.184  14.441
35984W        W 4314  12.752  42.513   4.656
35985W        W 4315  38.563   1.972  13.792
35986W        W 4316  44.009  42.910   2.850
35987W        W 4317   2.897  13.270  14.949
35988W        W 4318   5.875   9.360  10.961
35989W        W 4319  19.106   8.383   3.725
35990W        W 4320  37.977   6.767   5.149
35991W        W 4321  38.919  15.797  10.560
35992W        W 4322   6.726  36.541   0.735
35993W        W 4323  18.627   9.875  11.861
35994W        W 4324   1.735  42.504   4.131
35995W        W 4325  41.520   6.415   4.776
35996W        W 4326  33.007   0.360   4.650
35997W        W 4327   1.938   4.404   3.370
35998W        W 4328  38.934  32.971  12.034
35999W        W 4329  10.642  25.049   4.792
36000W        W 4330  34.101  36.959  13.851
36001W        W 4331  14.680   9.358   0.398
36002W        W 4332   2.758  21.531  13.536
36003W        W 4333  40.000  44.267   1.226
36004W        W 4334   7.742  13.299  13.898
36005W        W 4335  15.660  23.633  12.527
36006W        W 4336   4.913  42.459   2.209
36007W        W 4337  43.305  38.556  13.312
36008W        W 4338   7.736   6.324   0.893
36009W        W 4339   2.308  36.389   0.750
36010W        W 4340  24.195  40.421  14.876
36011W        W 4341  33.527  27.552  10.009
36012W        W 4342  42.440   8.836   3.749
36013W        W 4343  39.064  20.569   2.255
36014W        W 4344  38.959  43.361  12.512
36015W        W 4345  10.860  19.640   4.748
36016W        W 4346  19.574  16.580  13.359
36017W        W 4347  11.142  44.971   2.386
36018W        W 4348  38.460  39.542  13.876
36019W        W 4349  33.102  34.552  10.596
36020W        W 4350  33.593  12.783   4.736
36021W        W 4351   4.250  23.074   1.827
36022W        W 4352  19.583   5.231  13.499
36023W        W 4353  24.618   6.701  10.962
36024W        W 4354  34.607  10.826   2.238
36025W        W 4355  12.197  39.934  12.490
36026W        W 4356   4.267  36.512  14.021
36027W        W 4357   9.349   0.286   4.656
36028W        W 4358   5.749  39.966  10.433
36029W        W 4359   8.397  40.353  10.920
36030W        W 4360   1.393  40.972   2.244
36031W        W 4361  41.352  42.027  11.498
36032W        W 4362  15.136  42.886   3.717
36033W        W 4363  37.053  11.176   1.825
36034W        W 4364  26.553  33.614  13.353
36035W        W 4365  21.069  26.202   2.730
36036W        W 4366  10.188  12.363   4.262
36037W        W 4367  15.759  25.195  13.901
36038W        W 4368  44.821  35.425  11.002
36039W        W 4369  38.911  43.466   4.742
36040W        W 4370   8.268  33.526   0.933
36041W        W 4371  24.172  14.260   0.323
36042W        W 4372  40.502  10.138   3.648
36043W        W 4373  42.945  30.620   0.910
36044W        W 4374  20.246  14.287  13.490
36045W        W 4375   8.382  38.030   2.339
36046W        W 4376  32.082  41.359   4.760
36047W        W 4377   4.435  17.626   3.301
36048W        W 4378  24.673  22.236   3.717
36049W        W 4379  26.623   6.772   3.146
36050W        W 4380  23.666  25.196  14.798
36051W        W 4381  27.017  25.695   3.763
36052W        W 4382  38.074  21.092  11.456
36053W        W 4383  22.599  43.813   3.764
36054W        W 4384  11.836  38.992   4.222
36055W        W 4385   3.878  21.554   1.330
36056W        W 4386   0.852  10.249  11.936
36057W        W 4387  33.070   1.837   0.325
36058W        W 4388  25.638  27.092   2.240
36059W        W 4389  30.032  32.547  10.941
36060W        W 4390  34.013  17.204   4.838
36061W        W 4391  41.504  33.074  14.404
36062W        W 4392   4.246  29.065   4.304
36063W        W 4393  29.665  42.948   0.886
36064W        W 4394  33.479  38.063   0.892
36065W        W 4395  29.012  37.859  10.547
36066W        W 4396  26.624  30.558   0.462
36067W        W 4397  44.874  37.390  14.958
36068W        W 4398  29.574  24.136  12.029
36069W        W 4399  37.438  21.590   1.900
36070W        W 4400  29.956  35.040   4.206
36071W        W 4401  25.634  43.965  11.543
36072W        W 4402  36.587   4.753   4.753
36073W        W 4403  41.519  35.964   1.816
36074W        W 4404  32.992  38.843  12.854
36075W        W 4405  43.370   8.160   4.627
36076W        W 4406  40.916  19.186  12.838
36077W        W 4407  13.254   5.436   4.765
36078W        W 4408   2.928   5.227  10.613
36079W        W 4409  43.809   2.945   1.301
36080W        W 4410  10.834  24.655   0.730
36081W        W 4411  43.330  17.078  10.999
36082W        W 4412  26.470   7.671   2.675
36083W        W 4413   4.363  27.120   1.889
36084W        W 4414  18.647  38.922   0.297
36085W        W 4415  12.266  29.082  12.537
36086W        W 4416  38.924  42.000  14.366
36087W        W 4417  25.033  18.160  14.998
36088W        W 4418  27.162   3.837   3.345
36089W        W 4419  25.689  16.602  14.337
36090W        W 4420  38.438  10.847  10.495
36091W        W 4421  39.994   7.849   4.253
36092W        W 4422   5.735  26.475  10.631
36093W        W 4423  32.505  39.522   3.704
36094W        W 4424  14.238  21.033  10.493
36095W        W 4425  19.709  38.988  12.375
36096W        W 4426  15.808  36.543   4.811
36097W        W 4427  25.133  37.400   4.798
36098W        W 4428   5.697  17.729  10.489
36099W        W 4429  13.313  25.052   4.145
36100W        W 4430  11.318  14.595  13.344
36101W        W 4431  36.951  11.748   3.787
36102W        W 4432  16.775  30.429  12.392
36103W        W 4433  32.391  41.411   1.714
36104W        W 4434  32.975  16.787  12.471
36105W        W 4435  39.978  21.654  12.498
36106W        W 4436  12.139  38.029  12.997
36107W        W 4437  25.977  14.180  13.363
36108W        W 4438  36.006  42.968  13.535
36109W        W 4439  29.011  29.596   4.665
36110W        W 4440  38.853  21.704   2.735
36111W        W 4441  10.810  35.852  13.996
36112W        W 4442  24.063  10.309  14.852
36113W        W 4443  43.852  38.977  12.869
36114W        W 4444   5.871  29.050   0.734
36115W        W 4445  39.976  15.768   5.158
36116W        W 4446  24.097  42.302  12.032
36117W        W 4447  22.571   0.304  13.018
36118W        W 4448  17.207  30.971  11.990
36119W        W 4449  19.571  31.902   2.260
36120W        W 4450   2.901  38.551  11.045
36121W        W 4451  29.022  21.560   4.663
36122W        W 4452  11.169   4.941  14.348
36123W        W 4453   5.346  32.504  13.452
36124W        W 4454  15.758  15.091   2.663
36125W        W 4455  20.186  36.854   4.164
36126W        W 4456  29.082  34.892  14.781
36127W        W 4457  33.944  38.446   4.251
36128W        W 4458   8.186  25.505   4.167
36129W        W 4459  24.190  19.647   3.320
36130W        W 4460  29.584   4.701  13.481
36131W        W 4461  27.446   1.819  13.016
36132W        W 4462  27.491  14.136   1.450
36133W        W 4463  39.345   8.360  13.837
36134W        W 4464  23.569  35.390  11.086
36135W        W 4465  18.098  43.994  11.996
36136W        W 4466  24.674  23.059  14.364
36137W        W 4467  28.031  18.747  10.946
36138W        W 4468  11.161  28.028   1.878
36139W        W 4469  12.134  32.451  10.923
36140W        W 4470  32.037  44.487   2.717
36141W        W 4471  23.084  33.994  12.427
36142W        W 4472  23.721  21.651   1.409
36143W        W 4473  44.335  21.572  13.478
36144W        W 4474  43.369   0.936   0.746
36145W        W 4475   5.850  43.791   3.380
36146W        W 4476  34.445  22.013   3.630
36147W        W 4477  28.030  35.101   2.287
36148W        W 4478  23.122  35.105   4.130
36149W        W 4479   5.197  41.393  12.357
36150W        W 4480  10.205  10.710  12.485
36151W        W 4481  15.187   6.279  12.956
36152W        W 4482  13.185   4.723   2.235
36153W        W 4483  22.657  43.301   3.813
36154W        W 4484  10.714  40.489   3.631
36155W        W 4485  15.677  14.162   0.800
36156W        W 4486  41.340  26.075   4.175
36157W        W 4487  39.009  34.875   1.705
36158W        W 4488   2.757  10.707  12.832
36159W        W 4489  21.643   7.349  11.466
36160W        W 4490   8.759  44.841   3.711
36161W        W 4491  38.006   3.344   4.663
36162W        W 4492  25.509  20.585   0.905
36163W        W 4493  22.098  15.776  10.510
36164W        W 4494  15.597  24.114   0.748
36165W        W 4495  19.220  43.441  12.351
36166W        W 4496  27.169  40.495   3.150
36167W        W 4497  39.450  24.164   0.883
36168W        W 4498  16.135  28.605   4.213
36169W        W 4499  28.435  43.311   3.220
36170W        W 4500  34.900  13.320   1.269
36171W        W 4501  35.521  44.841  13.311
36172W        W 4502  20.102  22.247   3.251
36173W        W 4503  19.594  40.849   0.817
36174W        W 4504  34.487  39.865  13.435
36175W        W 4505  25.084  11.768   0.359
36176W        W 4506  15.659   3.426  13.983
36177W        W 4507   0.912  44.861   0.804
36178W        W 4508  16.103  31.591   1.324
36179W        W 4509  21.100  27.582   4.226
36180W        W 4510  28.091   7.369   1.834
36181W        W 4511  40.424  18.630   4.320
36182W        W 4512  15.807  28.145  14.467
36183W        W 4513  19.111  37.905   1.892
36184W        W 4514  30.612  14.743  12.989
36185W        W 4515   1.780  31.946   4.680
36186W        W 4516  15.599  44.838  10.593
36187W        W 4517  26.191   8.708   5.122
36188W        W 4518  44.969  21.250   2.194
36189W        W 4519  16.134   8.857   3.277
36190W        W 4520  13.755  27.162  13.902
36191W        W 4521   3.789  26.083   4.678
36192W        W 4522  31.913   2.781  12.921
36193W        W 4523  36.978  10.876  14.891
36194W        W 4524   1.897  18.554   5.091
36195W        W 4525  12.773  34.890   4.830
36196W        W 4526  37.072   2.293  11.555
36197W        W 4527  15.108  15.814   4.829
36198W        W 4528  31.946  29.578  12.362
36199W        W 4529  12.856  24.692   1.831
36200W        W 4530  33.386  22.605  13.513
36201W        W 4531  23.020   3.724  14.967
36202W        W 4532  34.921  29.926  14.417
36203W        W 4533  33.886   5.820  10.563
36204W        W 4534  22.058  19.061   9.979
36205W        W 4535  28.559  33.550  10.472
36206W        W 4536  38.403  15.725   4.330
36207W        W 4537  21.200   1.432  13.476
36208W        W 4538  35.870   3.338  14.419
36209W        W 4539  16.738  34.887  13.347
36210W        W 4540  15.262   7.716  14.345
36211W        W 4541  42.392   8.303   1.347
36212W        W 4542   4.795  25.602  10.540
36213W        W 4543   3.285   3.282   4.157
36214W        W 4544  13.737   4.735   2.726
36215W        W 4545   1.421  12.214   3.172
36216W        W 4546  35.056  39.895   4.703
36217W        W 4547  27.675  31.504  14.942
36218W        W 4548   1.361   4.232  10.499
36219W        W 4549  36.418  29.108   0.282
36220W        W 4550  44.318  21.214  12.489
36221W        W 4551  30.139  27.689   2.667
36222W        W 4552  35.397  24.538   3.163
36223W        W 4553  28.104   5.781  10.116
36224W        W 4554  20.625  10.871   0.846
36225W        W 4555  33.033  32.075   0.823
36226W        W 4556  44.448  31.464   2.699
36227W        W 4557  43.770   2.271  12.383
36228W        W 4558  11.283  25.642   3.159
36229W        W 4559   2.244  23.211   3.742
36230W        W 4560   5.260  24.092   1.737
36231W        W 4561  29.554   7.868   3.739
36232W        W 4562   6.777  42.803   2.379
36233W        W 4563  26.981   1.296   1.845
36234W        W 4564  28.489  25.966  10.539
36235W        W 4565  25.054   1.797  14.865
36236W        W 4566  19.114   2.441   1.249
36237W        W 4567  14.221  21.258   1.379
36238W        W 4568  37.884  43.949   1.760
36239W        W 4569  11.677   4.228   3.296
36240W        W 4570  30.470  19.171  14.330
36241W        W 4571  35.597  36.404  12.898
36242W        W 4572  13.766  25.145  10.538
36243W        W 4573  12.257   6.676   2.777
36244W        W 4574   1.910   5.749   1.727
36245W        W 4575  26.025   7.270   1.261
36246W        W 4576  23.586  36.590   2.267
36247W        W 4577  23.075  33.962  10.494
36248W        W 4578  24.997  12.286  10.951
36249W        W 4579   5.232  29.443   4.185
36250W        W 4580   2.250   2.927  12.868
36251W        W 4581   4.797   4.743   2.284
36252W        W 4582  19.665  20.560  11.921
36253W        W 4583  41.522  28.014  13.811
36254W        W 4584   1.929  42.799  10.408
36255W        W 4585  15.741  42.941   2.266
36256W        W 4586  38.877  35.931   4.116
36257W        W 4587   5.246   2.831  10.553
36258W        W 4588   5.776  41.333  14.485
36259W        W 4589   3.711  10.699   1.418
36260W        W 4590  13.678  17.190   3.259
36261W        W 4591  28.669   1.300   0.728
36262W        W 4592  26.952  22.665   3.355
36263W        W 4593  26.469   1.359  10.920
36264W        W 4594   7.340   1.770  11.061
36265W        W 4595  16.276  25.124  11.433
36266W        W 4596   7.356  20.756   4.682
36267W        W 4597  20.718  44.843  13.527
36268W        W 4598  31.408  12.633  14.362
36269W        W 4599  18.195  17.120   3.688
36270W        W 4600  29.428  40.375  13.994
36271W        W 4601  10.830  30.062   3.190
36272W        W 4602  28.097  31.496   5.601
36273W        W 4603  18.700  20.645  14.888
36274W        W 4604   5.418  22.747   1.817
36275W        W 4605  24.679  25.470  12.076
36276W        W 4606  13.236  16.295   0.846
36277W        W 4607  23.491  24.218   0.826
36278W        W 4608  34.424  11.194  14.376
36279W        W 4609  15.107  19.210   3.774
36280W        W 4610   1.239  25.572   0.900
36281W        W 4611  21.060  39.432   1.275
36282W        W 4612  13.663  30.609   1.255
36283W        W 4613   0.340  30.539  10.948
36284W        W 4614   9.821   6.853  11.441
36285W        W 4615  32.532  33.488  14.892
36286W        W 4616   3.274   9.359  14.826
36287W        W 4617  38.037  42.370   2.692
36288W        W 4618  36.956   7.273  11.966
36289W        W 4619  22.557  39.368  11.915
36290W        W 4620  34.515  19.714   3.387
36291W        W 4621  35.489  15.194   0.900
36292W        W 4622  24.973   7.709  11.531
36293W        W 4623  31.617   5.760   1.359
36294W        W 4624  44.781  19.150  11.416
36295W        W 4625  41.022   1.758  14.935
36296W        W 4626  11.680  37.510   0.270
36297W        W 4627  43.469   5.396   3.860
36298W        W 4628  42.949  33.093  12.895
36299W        W 4629  13.640  11.813   1.695
36300W        W 4630  12.281  18.281   2.809
36301W        W 4631   1.241   6.276  10.983
36302W        W 4632   0.252   7.843   3.179
36303W        W 4633  15.679  34.377   0.481
36304W        W 4634  24.589   2.772  10.529
36305W        W 4635   1.950  10.220  14.905
36306W        W 4636   0.294  26.497   4.734
36307W        W 4637  12.759  30.574  14.489
36308W        W 4638  44.850   6.318   1.426
36309W        W 4639   3.854  34.429  13.990
36310W        W 4640   9.673  43.003   4.703
36311W        W 4641  30.149  21.219  10.056
36312W        W 4642  10.832  14.813  12.930
36313W        W 4643  23.094  29.638   3.840
36314W        W 4644  27.525  41.983  13.436
36315W        W 4645  37.547  29.659  12.466
36316W        W 4646  41.403  43.858  13.375
36317W        W 4647   6.780  29.501   4.262
36318W        W 4648  37.860  39.008  13.796
36319W        W 4649  10.736  23.619  13.434
36320W        W 4650   8.338   2.780   4.759
36321W        W 4651   7.228  20.705   0.300
36322W        W 4652  19.562   8.340   2.227
36323W        W 4653  40.539  42.977  13.346
36324W        W 4654  11.159  21.731   4.268
36325W        W 4655  31.993  31.567   4.118
36326W        W 4656  39.339  22.511  10.105
36327W        W 4657  32.633   3.309  11.926
36328W        W 4658  41.345  10.637  14.962
36329W        W 4659  17.689   3.865   4.233
36330W        W 4660  34.525  44.854   1.348
36331W        W 4661  20.083  17.200   2.321
36332W        W 4662  23.644  34.520  12.924
36333W        W 4663  23.217  22.596   2.693
36334W        W 4664   7.324   8.886  11.417
36335W        W 4665   8.729  39.925  12.880
36336W        W 4666  42.893  12.272  14.905
36337W        W 4667  22.049   8.755   1.763
36338W        W 4668  34.016   3.449   1.719
36339W        W 4669  37.883  22.610  14.764
36340W        W 4670  31.138   4.891  10.004
36341W        W 4671  22.068  24.976  12.538
36342W        W 4672  16.611   7.716  11.973
36343W        W 4673  34.963  24.167  13.540
36344W        W 4674  27.121  31.153  13.933
36345W        W 4675  18.215   4.300   0.458
36346W        W 4676  17.622   1.969   3.278
36347W        W 4677  30.974  24.532  10.956
36348W        W 4678  40.928  20.263   2.893
36349W        W 4679   6.800  29.662   2.782
36350W        W 4680  37.539  13.179   0.433
36351W        W 4681  27.627   5.307   3.295
36352W        W 4682  41.039  14.727  11.591
36353W        W 4683  35.423  43.964  12.492
36354W        W 4684  36.048   3.353   4.233
36355W        W 4685   5.210  14.311  13.858
36356W        W 4686   9.366   3.777   3.709
36357W        W 4687  26.702  26.461  13.384
36358W        W 4688  21.133  24.706   1.434
36359W        W 4689   0.840  31.495  10.545
36360W        W 4690  27.620  42.360   4.720
36361W        W 4691  34.976  25.142  11.402
36362W        W 4692  32.977  18.293  14.500
36363W        W 4693  16.808  35.428  13.512
36364W        W 4694  21.758   4.934  10.630
36365W        W 4695   3.870  15.623   0.363
36366W        W 4696   5.785  28.588  10.603
36367W        W 4697  40.385  34.545   2.847
36368W        W 4698  10.852  40.513   2.691
36369W        W 4699  27.600  21.574  14.941
36370W        W 4700  36.584  35.600   0.352
36371W        W 4701  43.990  42.993  14.312
36372W        W 4702  24.667  39.504  13.331
36373W        W 4703   2.358  26.632   3.701
36374W        W 4704  41.538  23.207  13.823
36375W        W 4705  32.006  36.925   2.737
36376W        W 4706  28.444  37.551  11.418
36377W        W 4707  32.459  26.606   1.829
36378W        W 4708  22.054  44.403  14.385
36379W        W 4709  38.049  25.585   2.196
36380W        W 4710   3.328  35.036  14.440
36381W        W 4711  26.567  34.376   4.309
36382W        W 4712  35.526  34.888  14.307
36383W        W 4713  27.056  38.471   3.386
36384W        W 4714  29.633  41.999   4.775
36385W        W 4715  36.349   6.348  13.025
36386W        W 4716  34.063  30.459  11.889
36387W        W 4717  18.292  44.824   4.604
36388W        W 4718  11.297  23.140  11.123
36389W        W 4719  17.306  31.465   2.206
36390W        W 4720   3.269  31.447  10.935
36391W        W 4721  31.538  12.701  13.005
36392W        W 4722   0.431  30.633  10.473
36393W        W 4723  24.170  14.168  10.450
36394W        W 4724  41.810  35.476  12.526
36395W        W 4725  43.966  32.486   4.599
36396W        W 4726  13.816   1.455   4.644
36397W        W 4727  18.585  22.595   2.735
36398W        W 4728  38.972  20.245  11.460
36399W        W 4729  37.346  35.913  13.969
36400W        W 4730  27.462  39.027  12.932
36401W        W 4731  38.512  10.714   1.711
36402W        W 4732  26.176  35.449   2.406
36403W        W 4733   0.912  31.921   0.281
36404W        W 4734   5.858  37.863  14.819
36405W        W 4735  24.557  29.560   3.753
36406W        W 4736  33.071   7.857  10.921
36407W        W 4737  19.122  41.372  13.462
36408W        W 4738   2.313  19.607   3.754
36409W        W 4739  10.292  35.542   0.333
36410W        W 4740  30.414  20.154   4.687
36411W        W 4741  26.147  33.103   0.268
36412W        W 4742  17.559  37.905  11.556
36413W        W 4743   7.183  41.417   2.330
36414W        W 4744  28.040  15.685  11.000
36415W        W 4745  27.537  33.470  11.428
36416W        W 4746  19.637  41.040   3.638
36417W        W 4747  40.423  40.052  11.399
36418W        W 4748  22.211  27.985  13.808
36419W        W 4749   0.278  12.252  13.838
36420W        W 4750  13.270  40.904   3.201
36421W        W 4751   5.260  27.119   3.303
36422W        W 4752  31.093  43.398   3.820
36423W        W 4753  44.354  32.583   2.858
36424W        W 4754  37.543  40.032  13.029
36425W        W 4755  37.341  30.591  14.291
36426W        W 4756  15.256   6.753  10.953
36427W        W 4757  14.294  25.672  11.121
36428W        W 4758  23.600  32.495  14.405
36429W        W 4759  18.286  12.175   0.840
36430W        W 4760  35.988  37.009   4.171
36431W        W 4761  16.692  31.119   3.871
36432W        W 4762   8.239  43.390   4.319
36433W        W 4763  31.417  35.896   0.412
36434W        W 4764  18.670  17.173   5.096
36435W        W 4765  24.033  18.772   2.850
36436W        W 4766  42.004  32.010  11.990
36437W        W 4767   4.435   8.799  13.380
36438W        W 4768  18.155  30.586  12.520
36439W        W 4769   2.347  40.511  11.970
36440W        W 4770   5.767  38.872  14.317
36441W        W 4771  17.649  41.427   3.158
36442W        W 4772  30.587   0.448   1.828
36443W        W 4773   1.460   7.408   1.855
36444W        W 4774  22.655  13.216  10.422
36445W        W 4775  20.702   4.308  14.898
36446W        W 4776   1.296  32.074   1.897
36447W        W 4777  12.745  32.995   0.273
36448W        W 4778  15.722  23.638   4.307
36449W        W 4779  24.086  21.226  11.006
36450W        W 4780  20.734  38.943   4.303
36451W        W 4781  36.001  38.481   3.299
36452W        W 4782  39.505   8.787   1.756
36453W        W 4783  14.095  34.408  13.976
36454W        W 4784  43.357  39.407  12.875
36455W        W 4785  44.494   8.813   3.250
36456W        W 4786  20.146  21.586   0.934
36457W        W 4787  30.107  17.254  14.287
36458W        W 4788   3.367  41.902   0.427
36459W        W 4789   8.874  39.455  11.086
36460W        W 4790  35.603  29.061  11.427
36461W        W 4791   7.888  20.535   1.219
36462W        W 4792   4.852  38.005   4.339
36463W        W 4793  41.310  20.056  14.765
36464W        W 4794  27.447   4.282   3.748
36465W        W 4795  17.236   2.421   4.733
36466W        W 4796  41.838  35.963   5.134
36467W        W 4797  39.465  32.069   1.375
36468W        W 4798  19.271  18.725   2.676
36469W        W 4799  31.091  19.627  14.985
36470W        W 4800  35.379   3.431   4.716
36471W        W 4801  24.723  12.242   0.362
36472W        W 4802   4.339  34.036   2.684
36473W        W 4803  41.396  40.849   3.800
36474W        W 4804  13.606   6.875  13.048
36475W        W 4805   9.883   1.289   2.788
36476W        W 4806  29.534   4.374   3.313
36477W        W 4807  19.554  16.137   3.650
36478W        W 4808  36.891  33.928  12.501
36479W        W 4809  43.902  35.934   4.320
36480W        W 4810  31.594   5.847   2.902
36481W        W 4811  34.974  20.634  12.906
36482W        W 4812  40.849   5.381   1.257
36483W        W 4813  18.265  21.245   3.803
36484W        W 4814   8.758   7.335  11.016
36485W        W 4815  34.885   2.905  12.030
36486W        W 4816   2.237   1.785  10.131
36487W        W 4817   0.892  14.258  11.066
36488W        W 4818   2.464  42.509   4.354
36489W        W 4819  31.918  20.703  11.568
36490W        W 4820   6.276  20.079   2.720
36491W        W 4821   3.301  18.201   4.332
36492W        W 4822  15.234  26.479   0.927
36493W        W 4823  17.700  42.870   1.765
36494W        W 4824  29.471   9.238   4.191
36495W        W 4825   7.337  32.426  12.035
36496W        W 4826  36.890  40.306   3.798
36497W        W 4827  19.649  19.705  12.940
36498W        W 4828  10.796  15.144   1.413
36499W        W 4829  42.933   2.801  14.457
36500W        W 4830  12.224  33.912  12.901
36501W        W 4831  21.259  36.433   3.167
36502W        W 4832  13.717  22.589  13.415
36503W        W 4833  13.824  16.722  13.460
36504W        W 4834  22.097  39.513  14.011
36505W        W 4835  32.999  34.867   1.803
36506W        W 4836   4.411  30.461  13.391
36507W        W 4837  21.261  28.186   2.754
36508W        W 4838  19.266  40.343   1.801
36509W        W 4839  26.486  13.717   2.357
36510W        W 4840  36.561  16.266  11.455
36511W        W 4841  32.140  21.738  11.580
36512W        W 4842  16.727  16.627  13.812
36513W        W 4843  40.816  43.269  11.924
36514W        W 4844  36.864  43.839   2.383
36515W        W 4845   7.828  36.028  14.022
36516W        W 4846  10.861  21.706   1.935
36517W        W 4847  41.417   5.223   0.737
36518W        W 4848  39.041   2.262  13.835
36519W        W 4849  33.067  29.087   0.835
36520W        W 4850  28.012   9.233  11.562
36521W        W 4851  27.009  36.005  11.377
36522W        W 4852   3.789  10.265  13.029
36523W        W 4853  41.371  27.685   1.390
36524W        W 4854  16.813  42.808   4.786
36525W        W 4855  37.505   8.843   2.412
36526W        W 4856   1.426  30.157  10.490
36527W        W 4857  11.856   6.909  12.538
36528W        W 4858  13.675  41.995  11.024
36529W        W 4859  25.554  15.299   4.170
36530W        W 4860  35.390  40.420  13.881
36531W        W 4861  21.081  38.382   3.649
36532W        W 4862  33.389   3.233   2.229
36533W        W 4863  11.252  29.146   1.884
36534W        W 4864   3.344  18.546   3.825
36535W        W 4865  32.051   6.901   0.882
36536W        W 4866  39.051  22.657  10.587
36537W        W 4867  33.539  41.525   2.416
36538W        W 4868  19.598  16.250   2.369
36539W        W 4869   3.362  11.340   3.165
36540W        W 4870  25.182  35.444   3.361
36541W        W 4871  11.165  16.691  12.907
36542W        W 4872   8.317  13.633   1.748
36543W        W 4873  27.521  42.474  11.055
36544W        W 4874  22.223  26.541   9.966
36545W        W 4875  30.489  43.977   0.856
36546W        W 4876  17.757  26.634   5.308
36547W        W 4877  14.686  36.562   2.179
36548W        W 4878  14.792  40.545   3.803
36549W        W 4879  41.331  33.041  11.929
36550W        W 4880   4.289   4.403   0.476
36551W        W 4881   3.723  15.142  14.888
36552W        W 4882  13.173   7.250  12.944
36553W        W 4883  27.477  43.381  12.391
36554W        W 4884  39.321  27.568  13.987
36555W        W 4885  34.394  10.293  14.439
36556W        W 4886  29.668  26.182   4.192
36557W        W 4887  10.798  37.938   0.790
36558W        W 4888  20.273  33.920   4.144
36559W        W 4889  24.704  16.648   0.904
36560W        W 4890  36.411   7.733  10.962
36561W        W 4891  31.013   4.776  12.566
36562W        W 4892  32.994   7.805  12.441
36563W        W 4893  25.967  25.031   3.235
36564W        W 4894  37.440   0.870   1.398
36565W        W 4895  14.780  21.224  13.976
36566W        W 4896   4.386  43.800  12.960
36567W        W 4897   7.348   0.952  12.909
36568W        W 4898  16.763  31.097  11.019
36569W        W 4899  21.068  38.029  10.605
36570W        W 4900  37.390  22.218   1.273
36571W        W 4901   2.347  10.686  11.997
36572W        W 4902  44.765   5.687  13.952
36573W        W 4903  28.104   9.361  10.610
36574W        W 4904  23.661  10.346   0.410
36575W        W 4905  39.812  17.212  12.095
36576W        W 4906  13.811   6.820  14.346
36577W        W 4907   4.924   8.267  10.630
36578W        W 4908  36.096  34.376   3.288
36579W        W 4909   6.348  44.001  14.023
36580W        W 4910  14.274  44.995   3.311
36581W        W 4911  20.656   7.299  12.862
36582W        W 4912  38.886   7.797  13.351
36583W        W 4913  26.636  39.060  11.545
36584W        W 4914  33.095   1.808   4.133
36585W        W 4915  30.970  21.190  13.531
36586W        W 4916  40.806  18.689  12.477
36587W        W 4917  20.648  40.363   2.736
36588W        W 4918  14.106  35.045   1.809
36589W        W 4919   1.944  25.084   1.775
36590W        W 4920  38.979  44.905  14.940
36591W        W 4921  16.642  24.977   5.764
36592W        W 4922  33.112   6.831  13.349
36593W        W 4923  39.065  18.108  12.046
36594W        W 4924  38.538   7.806  10.590
36595W        W 4925   0.903   8.360  14.786
36596W        W 4926  32.503   2.376   4.178
36597W        W 4927  37.055  35.032   4.353
36598W        W 4928   9.317   5.439   2.814
36599W        W 4929   3.232   5.203  10.621
36600W        W 4930  22.207  34.451  14.984
36601W        W 4931  19.051  33.385   0.727
36602W        W 4932  19.537  39.406  13.398
36603W        W 4933   9.709  27.171   0.264
36604W        W 4934  13.619  33.930   0.322
36605W        W 4935  13.633  29.654   4.737
36606W        W 4936  14.263  25.975   3.824
36607W        W 4937  27.638  13.112   0.865
36608W        W 4938  13.270  33.433   2.826
36609W        W 4939   7.668  32.122  11.451
36610W        W 4940  30.596   9.231  14.818
36611W        W 4941  36.913   2.259   4.221
36612W        W 4942  21.256  19.641  10.626
36613W        W 4943  33.063  13.191   0.963
36614W        W 4944  20.139  34.444   3.237
36615W        W 4945  26.615   6.384  12.040
36616W        W 4946  16.278  21.073   2.225
36617W        W 4947  15.714  12.188  12.476
36618W        W 4948  24.031  12.314  13.354
36619W        W 4949  17.132   4.751   5.263
36620W        W 4950   5.905  19.752   4.273
36621W        W 4951  12.682  15.705  10.590
36622W        W 4952  31.057  43.412  12.408
36623W        W 4953  32.437  32.637  11.898
36624W        W 4954  17.617  30.990   2.347
36625W        W 4955  31.524  40.922  12.024
36626W        W 4956   5.328  19.626  14.759
36627W        W 4957  41.928  34.040  11.091
36628W        W 4958  32.926  31.992   3.204
36629W        W 4959  33.444  41.338  14.493
36630W        W 4960  10.312  41.511   2.898
36631W        W 4961  12.701   8.825  12.470
36632W        W 4962  12.785  29.998  13.369
36633W        W 4963  42.400   5.204  10.606
36634W        W 4964   5.735  17.769   3.761
36635W        W 4965   4.861  29.447   5.188
36636W        W 4966  44.491  12.833   4.670
36637W        W 4967  16.231  10.745   2.401
36638W        W 4968  10.288  17.740  10.436
36639W        W 4969  28.467   5.284   1.262
36640W        W 4970  11.165  28.180   2.879
36641W        W 4971  43.428   2.446  10.893
36642W        W 4972  11.157  19.155  13.959
36643W        W 4973   9.359  32.606  11.512
36644W        W 4974   6.720   3.825  11.022
36645W        W 4975   0.768  27.997  11.870
36646W        W 4976  25.563   2.331  12.484
36647W        W 4977  24.185  39.885   4.715
36648W        W 4978   8.369  20.538  11.392
36649W        W 4979  26.571  37.994  11.966
36650W        W 4980  13.645  27.969   3.160
36651W        W 4981  14.624   4.856   3.349
36652W        W 4982   5.403   4.790  10.417
36653W        W 4983  21.548   9.809   3.817
36654W        W 4984   4.302  33.930   1.293
36655W        W 4985   3.246  31.153   1.866
36656W        W 4986  22.175  22.716  12.896
36657W        W 4987  10.737   6.316  13.396
36658W        W 4988  26.468  20.248  10.909
36659W        W 4989   5.834  39.963  14.360
36660W        W 4990  31.066  16.763   4.706
36661W        W 4991  26.021  22.245  10.605
36662W        W 4992  12.305   6.703  11.091
36663W        W 4993  11.178  22.160   0.916
36664W        W 4994  11.306  42.356   2.806
36665W        W 4995  31.125  18.553  11.396
36666W        W 4996  21.706   9.273   4.176
36667W        W 4997  23.728  25.690  12.571
36668W        W 4998   6.274  43.990   0.417
36669W        W 4999  42.777  26.157  13.505
36670W        W 5000  14.185   4.350   1.406
36671W        W 5001  21.566  40.944   3.717
36672W        W 5002   9.252  40.526   1.911
36673W        W 5003  18.292  25.608   0.339
36674W        W 5004  19.585  18.672   3.171
36675W        W 5005  24.642  21.555   0.457
36676W        W 5006  18.102  30.930   2.282
36677W        W 5007  24.664   9.202  14.361
36678W        W 5008  16.792  10.733   3.818
36679W        W 5009  34.965   7.897   1.368
36680W        W 5010  11.281   7.759   1.718
36681W        W 5011  12.307  38.991   4.647
36682W        W 5012  32.000  33.046  10.100
36683W        W 5013  28.155  32.457  12.838
36684W        W 5014  11.679  27.604   1.419
36685W        W 5015  29.600  39.460  12.840
36686W        W 5016  41.901   8.759   1.927
36687W        W 5017  13.693  16.603   1.244
36688W        W 5018   6.683   3.909  11.896
36689W        W 5019  16.632  17.080  10.487
36690W        W 5020   0.906  24.528   1.726
36691W        W 5021  35.580   4.273   3.217
36692W        W 5022   6.376   0.494  13.838
36693W        W 5023   5.697   2.294   2.740
36694W        W 5024   3.348  26.168   3.225
36695W        W 5025  21.236  40.955   0.826
36696W        W 5026   7.181  37.934  12.372
36697W        W 5027  30.413  23.671  11.402
36698W        W 5028  21.575  25.994   1.234
36699W        W 5029  27.603  39.545  13.470
36700W        W 5030  18.155  18.121  10.643
36701W        W 5031  37.419  14.642  14.478
36702W        W 5032   3.782  20.188   4.126
36703W        W 5033  20.674  18.107   5.169
36704W        W 5034  13.163  36.572   1.908
36705W        W 5035  13.818  44.857  14.925
36706W        W 5036  30.070   7.699   2.184
36707W        W 5037  35.073  12.226   0.459
36708W        W 5038  31.065  40.375  12.521
36709W        W 5039   4.862   6.259  12.413
36710W        W 5040  41.007   7.406  13.462
36711W        W 5041  38.435  15.749  14.881
36712W        W 5042  21.188  37.009  11.482
36713W        W 5043   3.770  26.460   4.347
36714W        W 5044  35.016  36.520   3.687
36715W        W 5045   2.850   8.833  14.327
36716W        W 5046  17.120   8.211  14.774
36717W        W 5047  33.037  10.247   5.119
36718W        W 5048  29.668  42.824  11.440
36719W        W 5049   7.184  10.737   1.749
36720W        W 5050   6.856   7.722   1.450
36721W        W 5051  39.486   1.254   1.776
36722W        W 5052   9.672   8.853  11.574
36723W        W 5053   3.802  20.751   1.432
36724W        W 5054  26.164  41.310   3.703
36725W        W 5055  30.942  27.053  14.309
36726W        W 5056  15.730  31.072   4.719
36727W        W 5057   0.394   9.829   3.860
36728W        W 5058  17.697  42.324  14.879
36729W        W 5059   5.430  21.083   1.837
36730W        W 5060   4.896  40.494   2.222
36731W        W 5061  37.853   6.713   3.769
36732W        W 5062  42.920  18.574  12.536
36733W        W 5063  21.579  24.191  11.077
36734W        W 5064  25.964  40.905   3.789
36735W        W 5065  27.115  29.439  11.408
36736W        W 5066  21.556  40.914   0.342
36737W        W 5067  24.480   3.299  12.088
36738W        W 5068  44.366  19.276  11.405
36739W        W 5069   0.382  32.097  12.979
36740W        W 5070  16.769   4.752  10.974
36741W        W 5071  28.617  17.160  11.518
36742W        W 5072  33.574   6.711   2.800
36743W        W 5073  15.096  29.440   0.368
36744W        W 5074  22.219   5.706   0.939
36745W        W 5075  32.924  20.075  12.479
36746W        W 5076  32.524  28.942  11.506
36747W        W 5077  32.588   5.836   4.222
36748W        W 5078  24.632  30.529   3.658
36749W        W 5079   0.370  41.846  12.577
36750W        W 5080  30.465  22.674   4.323
36751W        W 5081  22.638  10.726   3.182
36752W        W 5082   7.177  28.015  13.906
36753W        W 5083  42.296  38.015   3.379
36754W        W 5084   3.291  17.751  11.418
36755W        W 5085  17.222   7.230  10.035
36756W        W 5086  22.544  16.742   9.950
36757W        W 5087  27.135  20.061   3.146
36758W        W 5088  20.538  39.809  12.834
36759W        W 5089   7.764   7.775   2.796
36760W        W 5090  19.266  33.556   1.419
36761W        W 5091  18.717  24.992  13.395
36762W        W 5092  37.497   1.894  10.084
36763W        W 5093  14.157  39.819  12.089
36764W        W 5094  22.638  12.335   4.719
36765W        W 5095  37.548  21.179   3.292
36766W        W 5096  29.973  36.473  14.368
36767W        W 5097  38.851  11.638   1.710
36768W        W 5098  32.094  10.762  13.914
36769W        W 5099  41.799  25.663   4.695
36770W        W 5100  13.332   6.393  13.426
36771W        W 5101  22.115   9.753   5.587
36772W        W 5102  43.770   5.319  12.942
36773W        W 5103   0.251  12.749   1.357
36774W        W 5104  28.931  36.482  10.897
36775W        W 5105  36.347  40.828  11.431
36776W        W 5106  35.012  21.524  13.451
36777W        W 5107  18.093   5.725   2.267
36778W        W 5108   1.369  30.042   3.818
36779W        W 5109  42.918  31.930   3.713
36780W        W 5110  21.109  24.523  12.909
36781W        W 5111  28.580  21.722  13.442
36782W        W 5112  43.269  26.460   9.961
36783W        W 5113  34.056  16.724  14.414
36784W        W 5114  28.613  44.979  13.919
36785W        W 5115  36.445  31.585   2.843
36786W        W 5116  40.929  20.067   1.744
36787W        W 5117   0.772  40.832   3.149
36788W        W 5118   2.956  13.271  11.407
36789W        W 5119  35.526  24.041  11.472
36790W        W 5120  13.327  15.139  10.890
36791W        W 5121   5.884  25.607  13.405
36792W        W 5122   9.783  10.369   1.712
36793W        W 5123   6.215  20.184   1.732
36794W        W 5124  37.085  24.093   0.938
36795W        W 5125  37.885   8.239  13.921
36796W        W 5126  28.509  36.540  12.068
36797W        W 5127  32.066  12.321  11.043
36798W        W 5128  29.007  42.851  11.546
36799W        W 5129  14.176  27.088   3.698
36800W        W 5130   1.462  38.534  12.471
36801W        W 5131  10.175  10.346  11.378
36802W        W 5132  35.098  23.129   3.854
36803W        W 5133   5.415  24.069  11.403
36804W        W 5134   6.880  25.694  12.894
36805W        W 5135  24.122  27.468  13.887
36806W        W 5136   3.338  36.573   1.893
36807W        W 5137  11.342  41.972  14.418
36808W        W 5138   2.298   1.420  12.469
36809W        W 5139  26.953  24.088   1.264
36810W        W 5140   2.427  44.412  11.563
36811W        W 5141  29.985   3.364   3.360
36812W        W 5142  21.718  44.318   0.371
36813W        W 5143  27.517  21.069   2.363
36814W        W 5144  32.423  28.987   3.297
36815W        W 5145  14.213  14.112   1.881
36816W        W 5146  21.720  26.002   2.739
36817W        W 5147  27.603  34.370   2.354
36818W        W 5148   8.352   9.290   0.764
36819W        W 5149  33.578   4.439  12.368
36820W        W 5150  42.434   2.294  11.868
36821W        W 5151   9.376  39.391  12.023
36822W        W 5152  36.444   4.290  14.295
36823W        W 5153   6.745  19.698   0.963
36824W        W 5154  18.050  40.367   3.253
36825W        W 5155   0.769  27.083   0.893
36826W        W 5156   9.390  39.048   0.946
36827W        W 5157  32.117  26.512  12.411
36828W        W 5158  43.815  12.167   1.831
36829W        W 5159  31.024  21.560   1.821
36830W        W 5160  31.082  32.027  14.448
36831W        W 5161  30.928  22.505   2.813
36832W        W 5162  11.654  34.933  10.008
36833W        W 5163   0.911  39.828   2.797
36834W        W 5164  42.920  17.797   0.479
36835W        W 5165  31.489  23.672   4.183
36836W        W 5166  43.825   3.447   4.339
36837W        W 5167  10.355  22.639   5.297
36838W        W 5168  35.924  25.471   1.420
36839W        W 5169   8.888  21.157  13.482
36840W        W 5170   9.661  43.391  13.364
36841W        W 5171  16.236  17.070   3.652
36842W        W 5172   3.379  43.803   2.352
36843W        W 5173  13.743  36.962   0.812
36844W        W 5174  19.089   1.291  14.298
36845W        W 5175  40.000  42.988   0.354
36846W        W 5176  25.610  26.061  13.906
36847W        W 5177  26.689   6.305   3.242
36848W        W 5178  41.436  25.169  10.499
36849W        W 5179  37.399  30.001  11.880
36850W        W 5180  34.049   5.932  13.351
36851W        W 5181  42.317  32.537   3.848
36852W        W 5182  18.169  40.027   3.185
36853W        W 5183   4.741  35.479   2.180
36854W        W 5184  13.768  26.479   1.867
36855W        W 5185  25.186  22.010  11.038
36856W        W 5186   7.714   0.317   1.840
36857W        W 5187  26.588  20.652  11.606
36858W        W 5188  16.084  32.888  13.395
36859W        W 5189   4.742  25.002   4.686
36860W        W 5190  20.729   0.337   0.442
36861W        W 5191  34.614  38.377  11.987
36862W        W 5192  35.548   5.307   1.845
36863W        W 5193   4.782  23.616  11.070
36864W        W 5194   6.870   5.827  13.338
36865W        W 5195  36.013  21.623  13.487
36866W        W 5196  28.094  30.939  14.296
36867W        W 5197  38.486  19.739   4.821
36868W        W 5198  38.990  36.006   4.801
36869W        W 5199  29.659  22.533   2.401
36870W        W 5200   9.356  18.090  10.623
36871W        W 5201   8.788  41.474  11.002
36872W        W 5202  31.066  33.539  11.067
36873W        W 5203  13.331   9.173  12.013
36874W        W 5204  32.088  31.630   2.747
36875W        W 5205  27.590  31.426  10.006
36876W        W 5206  36.850  19.253   2.666
36877W        W 5207  31.917  36.869   4.618
36878W        W 5208  17.705  40.350  10.928
36879W        W 5209   8.854  43.877  12.572
36880W        W 5210  19.693  20.118  14.898
36881W        W 5211   1.276  22.510   4.188
36882W        W 5212  25.179  44.275   5.087
36883W        W 5213  31.548   3.715  10.939
36884W        W 5214   5.770   9.197   2.390
36885W        W 5215  40.897  25.703   2.769
36886W        W 5216  29.933  40.412   2.384
36887W        W 5217  19.105  29.119   3.755
36888W        W 5218  38.533  15.808  14.296
36889W        W 5219  12.328   9.246  11.588
36890W        W 5220  16.651  42.808  12.078
36891W        W 5221  35.477  30.042   2.367
36892W        W 5222  33.589   6.887   1.306
36893W        W 5223  40.464  11.762   0.825
36894W        W 5224   9.852  30.078   1.814
36895W        W 5225  42.824  40.855   2.389
36896W        W 5226  42.987  34.083  13.441
36897W        W 5227   5.917   6.916   4.177
36898W        W 5228  15.592  19.259   2.204
36899W        W 5229  24.644  35.489   1.927
36900W        W 5230  10.710  40.873   2.315
36901W        W 5231  20.734  30.624  11.009
36902W        W 5232  38.485  40.927   4.223
36903W        W 5233  31.637   4.330   0.475
36904W        W 5234  19.180  42.497   0.858
36905W        W 5235  15.600   4.715   0.248
36906W        W 5236  42.886  44.358   1.214
36907W        W 5237   1.854  22.128  12.481
36908W        W 5238  22.662  30.653  11.390
36909W        W 5239  27.960  34.596  13.007
36910W        W 5240  44.439  31.036  14.942
36911W        W 5241  31.601  36.408  12.541
36912W        W 5242  37.895  17.208  10.083
36913W        W 5243   4.339  36.429  12.508
36914W        W 5244   9.350   4.354   2.281
36915W        W 5245  38.542  13.189   1.888
36916W        W 5246   3.938   6.359   2.748
36917W        W 5247  26.958  33.428  13.907
36918W        W 5248  18.267  18.202   4.706
36919W        W 5249   8.277   2.860  11.580
36920W        W 5250  36.377  16.736   0.320
36921W        W 5251  33.924   4.288   1.784
36922W        W 5252  28.055   7.874   2.693
36923W        W 5253  37.890  35.095   2.350
36924W        W 5254   8.864  12.662   4.825
36925W        W 5255  20.159  11.311   2.694
36926W        W 5256  29.656  44.940  13.963
36927W        W 5257  35.580  22.014  13.451
36928W        W 5258   3.230   9.186  12.852
36929W        W 5259  21.617  41.840   3.826
36930W        W 5260   5.251  34.410   4.770
36931W        W 5261  44.878  30.042  13.367
36932W        W 5262  21.096   1.753  12.090
36933W        W 5263  22.631  39.314   3.237
36934W        W 5264   0.854  43.793  11.587
36935W        W 5265  26.133  39.938   4.210
36936W        W 5266  27.601  24.016   3.827
36937W        W 5267  18.597  26.682   1.873
36938W        W 5268  43.918   7.794   1.348
36939W        W 5269  44.436   0.859  14.965
36940W        W 5270  32.012  35.365   0.818
36941W        W 5271  20.563  11.184   3.372
36942W        W 5272  25.630  11.136  13.976
36943W        W 5273   6.322   0.746  10.900
36944W        W 5274   2.796   5.917  11.450
36945W        W 5275   6.790  17.723   2.665
36946W        W 5276  23.495  17.721  11.071
36947W        W 5277  17.143  13.328  13.443
36948W        W 5278  37.971  44.786   3.170
36949W        W 5279  30.438  23.984   4.831
36950W        W 5280  30.440  43.979  10.531
36951W        W 5281   9.354  26.050   4.348
36952W        W 5282  24.693  21.185   3.859
36953W        W 5283  34.926   2.819  13.434
36954W        W 5284   0.959  21.519  14.927
36955W        W 5285  39.338  27.026  13.360
36956W        W 5286  37.054  11.173  14.470
36957W        W 5287  21.200  20.738  13.961
36958W        W 5288  35.952  29.564   1.888
36959W        W 5289   3.809  33.924  14.304
36960W        W 5290  24.045   6.791   4.733
36961W        W 5291  23.034  30.060   1.422
36962W        W 5292  29.054  15.807  11.396
36963W        W 5293  14.112  31.475  11.460
36964W        W 5294  21.607  14.708  11.452
36965W        W 5295   5.414   8.262   0.960
36966W        W 5296  28.543  30.569   0.254
36967W        W 5297  20.098  12.777  13.932
36968W        W 5298  27.019   9.801   4.737
36969W        W 5299  17.140  22.136  10.465
36970W        W 5300  10.650  35.926  14.921
36971W        W 5301  30.932  23.220   1.818
36972W        W 5302   7.690   6.799   2.316
36973W        W 5303  11.864  29.143   2.838
36974W        W 5304  29.065  21.093   5.198
36975W        W 5305  30.164   7.405  10.601
36976W        W 5306   0.408   5.345   4.325
36977W        W 5307  34.467  25.164   2.349
36978W        W 5308  16.626  18.779   2.893
36979W        W 5309   1.286   1.918   4.812
36980W        W 5310  14.823  13.806   2.844
36981W        W 5311  29.452  29.927   1.436
36982W        W 5312  29.926  12.193  10.591
36983W        W 5313  38.875  11.142  11.881
36984W        W 5314  25.046  44.422  11.580
36985W        W 5315  41.293  20.148   1.858
36986W        W 5316   6.756  44.851   2.680
36987W        W 5317  42.005   4.260  12.358
36988W        W 5318  40.888  26.081  12.403
36989W        W 5319  28.119  43.769  14.830
36990W        W 5320  39.943  41.391  12.052
36991W        W 5321   5.346   7.743   2.794
36992W        W 5322   4.800  18.621  14.862
36993W        W 5323  38.496  27.041  11.864
36994W        W 5324  17.215  40.420  11.885
36995W        W 5325   5.708  32.506  13.969
36996W        W 5326  23.668  26.504  12.065
36997W        W 5327  10.795   3.797   4.190
36998W        W 5328  25.968  27.945  11.972
36999W        W 5329  30.415  38.030  13.987
37000W        W 5330  30.500  44.008   3.288
37001W        W 5331  30.088  12.673  12.944
37002W        W 5332  25.579  22.735   1.773
37003W        W 5333  43.922  28.483  10.918
37004W        W 5334  13.169  27.087   2.856
37005W        W 5335  10.346  41.847  11.930
37006W        W 5336  44.783  12.164  12.360
37007W        W 5337  25.040  19.188  11.092
37008W        W 5338   2.341   7.204  12.953
37009W        W 5339  34.572   0.925   1.886
37010W        W 5340  17.288  26.485   3.660
37011W        W 5341   1.741  11.221   0.293
37012W        W 5342  18.640  37.397   0.805
37013W        W 5343   6.426  44.412  13.924
37014W        W 5344  26.086  22.554   3.273
37015W        W 5345  12.248   8.805   1.849
37016W        W 5346   4.241  25.205  12.015
37017W        W 5347  43.921  15.770  11.524
37018W        W 5348  25.119  22.611   0.748
37019W        W 5349   4.347  23.660  12.940
37020W        W 5350  38.409  32.542  14.458
37021W        W 5351  16.318   5.434  11.123
37022W        W 5352  33.452  36.469   1.261
37023W        W 5353   5.891  28.540  13.804
37024W        W 5354  43.496  40.882  11.983
37025W        W 5355  14.250  42.317  14.782
37026W        W 5356   1.382  43.357   4.786
37027W        W 5357   9.793  16.166   3.833
37028W        W 5358  42.819   0.880  14.507
37029W        W 5359  16.779  11.161  11.962
37030W        W 5360  42.024  42.348  13.909
37031W        W 5361   1.797  43.998  14.383
37032W        W 5362  17.249   4.817  11.514
37033W        W 5363  38.542   5.728  14.838
37034W        W 5364  19.661  43.409  10.941
37035W        W 5365  28.950  33.475   3.208
37036W        W 5366  25.712  37.414   3.158
37037W        W 5367  31.491  36.360  14.508
37038W        W 5368  36.992   0.262  12.519
37039W        W 5369  21.629  13.750   4.314
37040W        W 5370  20.669  24.102   1.401
37041W        W 5371  14.721  23.577   0.254
37042W        W 5372  34.865   4.231  11.054
37043W        W 5373  28.575  21.120  14.980
37044W        W 5374  29.665  38.892   4.304
37045W        W 5375  18.745  44.011  13.822
37046W        W 5376  15.692  30.988   3.831
37047W        W 5377  11.320  36.020  11.613
37048W        W 5378  32.634  25.627  10.550
37049W        W 5379  39.889  35.515  14.430
37050W        W 5380   2.743  13.633   4.278
37051W        W 5381  20.190  33.573   1.727
37052W        W 5382  30.654  14.103   3.169
37053W        W 5383  39.838   0.946   4.180
37054W        W 5384  42.789   6.313   0.761
37055W        W 5385   4.305  17.615   4.282
37056W        W 5386   0.977  11.274   4.225
37057W        W 5387  15.802  37.549  13.909
37058W        W 5388   8.294   1.742  14.330
37059W        W 5389  36.064   2.470  10.496
37060W        W 5390  11.769  21.102  12.461
37061W        W 5391  39.445   2.918   3.775
37062W        W 5392  11.805   8.220   3.165
37063W        W 5393   0.936  44.409   1.299
37064W        W 5394  12.620  26.597   1.347
37065W        W 5395  29.056  11.640   2.262
37066W        W 5396  41.408  17.637   4.117
37067W        W 5397  13.166  40.806   2.779
37068W        W 5398  19.130  22.614  14.872
37069W        W 5399  40.521  10.678  13.926
37070W        W 5400  27.943  18.191   0.922
37071W        W 5401  28.554  22.531   4.831
37072W        W 5402   1.780  26.515  12.579
37073W        W 5403  35.461  37.495  10.545
37074W        W 5404  43.349  25.149  13.312
37075W        W 5405  33.044   6.916  11.981
37076W        W 5406   8.396   7.340   0.316
37077W        W 5407  28.974  34.112  11.913
37078W        W 5408   3.432  41.365  12.486
37079W        W 5409  26.181   8.371  11.963
37080W        W 5410  37.937  16.714  14.409
37081W        W 5411  44.908   5.820  10.452
37082W        W 5412   1.340   0.256  13.861
37083W        W 5413  38.941  10.364  14.865
37084W        W 5414  28.643  11.234   9.531
37085W        W 5415   1.284  30.470   4.305
37086W        W 5416  26.142   9.214   0.805
37087W        W 5417  18.567  41.840  12.489
37088W        W 5418  29.150  33.093   0.856
37089W        W 5419  11.278   5.281   3.173
37090W        W 5420  11.300  40.935  13.054
37091W        W 5421  14.099  25.485   0.298
37092W        W 5422  30.004   8.267   1.759
37093W        W 5423  24.596  29.008   3.192
37094W        W 5424  44.757  15.660  12.037
37095W        W 5425  24.634   6.737  12.507
37096W        W 5426  23.020  43.848   1.819
37097W        W 5427  39.981   7.240   0.854
37098W        W 5428  23.068  20.746   1.695
37099W        W 5429  19.768  16.228  10.473
37100W        W 5430  29.518   2.740   4.145
37101W        W 5431  30.032  38.824  12.026
37102W        W 5432  28.492  34.443   3.645
37103W        W 5433   3.729   9.202  10.936
37104W        W 5434  10.783  23.188  14.984
37105W        W 5435  44.909  35.103  13.328
37106W        W 5436  10.173  26.201   3.233
37107W        W 5437  14.834  33.876  13.999
37108W        W 5438  17.692  27.532  12.393
37109W        W 5439  13.329  11.149   2.666
37110W        W 5440  22.194  44.803  13.331
37111W        W 5441  35.590  16.575  11.601
37112W        W 5442  23.558   8.274   2.302
37113W        W 5443  39.843  14.636   3.156
37114W        W 5444  38.376  43.303   3.244
37115W        W 5445  19.276   4.291   4.250
37116W        W 5446  23.170  16.188   0.824
37117W        W 5447  11.207   1.462   2.261
37118W        W 5448   0.929  44.918   2.854
37119W        W 5449  19.544  43.979  11.422
37120W        W 5450  10.318   7.877  14.430
37121W        W 5451  36.920   6.895   3.171
37122W        W 5452   5.778  22.563  14.385
37123W        W 5453   5.748  27.499   4.673
37124W        W 5454  33.109  39.827   1.723
37125W        W 5455  30.044  33.068  12.923
37126W        W 5456  39.942  12.353  11.107
37127W        W 5457  32.587  15.802   2.401
37128W        W 5458  20.575  42.031   4.137
37129W        W 5459  20.088  37.498   2.325
37130W        W 5460   8.678   1.876   0.920
37131W        W 5461   9.255   4.261   1.417
37132W        W 5462  37.966  41.465   0.757
37133W        W 5463  40.853   6.239   3.764
37134W        W 5464  31.092   9.316  14.414
37135W        W 5465   9.350  13.682   0.242
37136W        W 5466  22.225   1.956  14.390
37137W        W 5467  24.725  41.020  12.825
37138W        W 5468  20.628  42.003   1.236
37139W        W 5469  36.549  22.708  13.055
37140W        W 5470  20.725  33.458  11.433
37141W        W 5471  22.668  10.285   0.749
37142W        W 5472  16.750  29.050   2.348
37143W        W 5473   9.395  37.950  14.770
37144W        W 5474  30.638  17.801   4.200
37145W        W 5475  10.361  21.246  14.434
37146W        W 5476  41.362  29.931  13.347
37147W        W 5477   9.342  29.531  13.357
37148W        W 5478  19.606  11.287   2.341
37149W        W 5479  27.499  36.509  12.889
37150W        W 5480   4.295  31.990   4.241
37151W        W 5481   8.786  20.549  12.542
37152W        W 5482  12.814  41.817   3.772
37153W        W 5483  17.092  16.291   2.734
37154W        W 5484  25.549  18.067  13.006
37155W        W 5485  34.541  18.554  13.819
37156W        W 5486   5.808  27.460  10.561
37157W        W 5487  37.866  29.021  10.140
37158W        W 5488   4.376   3.727  14.934
37159W        W 5489  37.864  32.532   1.327
37160W        W 5490  41.872   4.410   0.793
37161W        W 5491  28.997  24.096   3.348
37162W        W 5492  33.125  42.356  13.421
37163W        W 5493  44.802  26.583   1.892
37164W        W 5494   3.904  43.505  11.098
37165W        W 5495  29.582  33.418  14.442
37166W        W 5496  38.347  24.712  14.832
37167W        W 5497  22.641  36.990   9.922
37168W        W 5498  25.537  20.600   2.223
37169W        W 5499  31.037   0.270   0.935
37170W        W 5500  39.004  36.455  14.007
37171W        W 5501   2.409  26.574  11.083
37172W        W 5502   5.388  36.396   5.261
37173W        W 5503  14.211  17.669  13.932
37174W        W 5504  17.095  38.983   0.424
37175W        W 5505  38.998  20.170  10.892
37176W        W 5506  24.530   8.402  12.470
37177W        W 5507  27.628  19.534  12.033
37178W        W 5508  17.187  25.494   1.714
37179W        W 5509  34.893  13.703   4.723
37180W        W 5510  12.320  33.566  10.102
37181W        W 5511   5.821  13.165  11.484
37182W        W 5512  36.048  40.804  11.949
37183W        W 5513  43.455  43.295   3.228
37184W        W 5514   8.255   6.428  12.952
37185W        W 5515  30.936  19.667  10.061
37186W        W 5516  37.457  27.039   3.674
37187W        W 5517  34.965   6.189  13.484
37188W        W 5518  22.530  20.759   4.790
37189W        W 5519  34.947  13.679  13.892
37190W        W 5520  27.658  43.299   4.647
37191W        W 5521  42.803   6.681  10.410
37192W        W 5522  11.710  25.182   3.780
37193W        W 5523  32.434  30.102   3.869
37194W        W 5524   5.764  38.514  13.028
37195W        W 5525  25.565  25.182   3.829
37196W        W 5526   0.879  10.384   1.271
37197W        W 5527  17.776  35.449  13.394
37198W        W 5528  10.731  23.521  12.837
37199W        W 5529  12.650  32.898  11.560
37200W        W 5530   1.743  14.098   3.343
37201W        W 5531  40.013  12.833  14.424
37202W        W 5532  29.657  43.382   3.280
37203W        W 5533  44.844  14.663  12.463
37204W        W 5534  18.722  28.486   1.399
37205W        W 5535  39.995  44.485   1.867
37206W        W 5536   8.328  29.583  14.768
37207W        W 5537  33.470  33.019   2.852
37208W        W 5538  18.246  31.552   3.810
37209W        W 5539  11.172  33.909  14.381
37210W        W 5540  12.673   6.294  10.944
37211W        W 5541  31.981  26.614  14.302
37212W        W 5542  23.495  43.005   3.759
37213W        W 5543  43.347  37.975   2.747
37214W        W 5544  41.472  14.151   4.278
37215W        W 5545  42.426   8.726  13.931
37216W        W 5546  26.652   4.326  11.537
37217W        W 5547  38.989  22.160   0.744
37218W        W 5548   4.338  19.624  11.463
37219W        W 5549  22.216  24.609   4.215
37220W        W 5550   9.826   8.721   2.713
37221W        W 5551  11.740  20.103   1.837
37222W        W 5552  41.998   0.368  11.897
37223W        W 5553   5.782  44.955  12.883
37224W        W 5554  23.596  16.176   0.955
37225W        W 5555  29.580  15.789   0.359
37226W        W 5556   7.283  37.539  10.418
37227W        W 5557   4.277  43.487  10.967
37228W        W 5558  30.470  38.489  10.911
37229W        W 5559   1.809  18.109  14.459
37230W        W 5560  22.132  13.180  12.059
37231W        W 5561  26.552  34.913  13.973
37232W        W 5562   2.793  18.144  12.994
37233W        W 5563  22.183  21.617  11.032
37234W        W 5564  14.805   4.296  11.444
37235W        W 5565   8.332  18.277  11.060
37236W        W 5566  42.384  15.751   4.607
37237W        W 5567  39.908  20.084  11.489
37238W        W 5568  32.631   5.719  10.900
37239W        W 5569   9.725  12.677  10.928
37240W        W 5570  32.007  17.232   4.186
37241W        W 5571   5.362   8.387  14.772
37242W        W 5572  27.675  35.091  12.006
37243W        W 5573   2.722  14.133  11.857
37244W        W 5574  31.078  15.801  14.349
37245W        W 5575  30.536  34.106   2.293
37246W        W 5576  30.026   9.730  14.320
37247W        W 5577   0.399  21.148   3.162
37248W        W 5578  28.451  30.955  10.525
37249W        W 5579   7.279  12.680  12.387
37250W        W 5580  19.654  38.961   1.823
37251W        W 5581  33.482  29.667  11.452
37252W        W 5582  29.954  32.542   0.897
37253W        W 5583   7.278  37.565  11.517
37254W        W 5584  26.011  11.348  11.077
37255W        W 5585  24.544  21.258   1.346
37256W        W 5586  36.966  20.575  11.946
37257W        W 5587   1.795  34.376   0.966
37258W        W 5588  22.747  14.208   1.316
37259W        W 5589   4.762  34.573  12.460
37260W        W 5590  32.022   7.741   4.290
37261W        W 5591  31.496   9.692  13.313
37262W        W 5592  36.948  31.025  13.013
37263W        W 5593  36.406  25.557   0.448
37264W        W 5594  21.641  18.278  14.907
37265W        W 5595  13.278  38.003  13.830
37266W        W 5596  14.200   9.335   2.793
37267W        W 5597   2.244  20.545   3.702
37268W        W 5598  39.350  10.340  12.497
37269W        W 5599  35.101   2.804   1.359
37270W        W 5600  29.149  36.449  13.892
37271W        W 5601   8.381   2.789  14.514
37272W        W 5602   8.385  22.521   3.313
37273W        W 5603  17.079  32.019   3.687
37274W        W 5604  25.120  42.906   4.751
37275W        W 5605  15.807  37.468   5.146
37276W        W 5606   9.736  39.996   3.167
37277W        W 5607  18.753  25.537  12.065
37278W        W 5608  35.059   1.439   1.420
37279W        W 5609  40.514  26.184   1.840
37280W        W 5610  40.460  10.288   3.303
37281W        W 5611  32.989  14.669   0.734
37282W        W 5612  33.450  31.144  10.554
37283W        W 5613   4.401  29.046  13.046
37284W        W 5614  14.700   6.767  11.890
37285W        W 5615  17.699  41.436   4.786
37286W        W 5616  11.373  19.136   2.816
37287W        W 5617  33.901   5.852  14.797
37288W        W 5618   4.756  34.924   1.917
37289W        W 5619  41.311  34.592   3.647
37290W        W 5620  30.510   7.712   3.791
37291W        W 5621  34.541  30.939   4.818
37292W        W 5622   6.767  13.142   1.931
37293W        W 5623  25.523   2.861   1.720
37294W        W 5624  24.022  23.145   4.801
37295W        W 5625  19.222   4.813  11.019
37296W        W 5626  34.017  31.420   3.832
37297W        W 5627  20.677  28.668  10.937
37298W        W 5628  43.391  18.057   1.817
37299W        W 5629  13.676  17.726   3.633
37300W        W 5630   8.201  12.621   4.678
37301W        W 5631   3.328  21.724  12.879
37302W        W 5632  18.610   7.747   4.682
37303W        W 5633  25.621  36.513   3.670
37304W        W 5634   5.822   6.241   2.285
37305W        W 5635  29.503  27.462   1.301
37306W        W 5636  44.827  44.259  12.051
37307W        W 5637  18.103   7.300   1.448
37308W        W 5638  19.120  23.017  13.950
37309W        W 5639  30.018  36.067  12.495
37310W        W 5640  40.832  34.440   1.427
37311W        W 5641  38.487  27.953  13.919
37312W        W 5642  24.508  19.109   0.274
37313W        W 5643  23.680  39.405   0.728
37314W        W 5644  12.762  44.957  11.421
37315W        W 5645  21.197  32.461   5.204
37316W        W 5646  17.135  13.770  10.518
37317W        W 5647  17.705  22.729   5.136
37318W        W 5648  31.958   1.378  13.024
37319W        W 5649  23.061  37.442  10.035
37320W        W 5650  23.077  42.459  10.591
37321W        W 5651   6.356   4.860   2.861
37322W        W 5652   8.384  10.674  11.099
37323W        W 5653  37.853  25.711  13.855
37324W        W 5654  17.063  13.289   1.347
37325W        W 5655  10.206  34.962   4.161
37326W        W 5656   2.871  40.390   1.782
37327W        W 5657  35.465  19.679   0.352
37328W        W 5658   3.364  37.478   1.714
37329W        W 5659  23.033  38.037   4.713
37330W        W 5660  42.414  30.981   0.436
37331W        W 5661  35.576   1.864  11.020
37332W        W 5662  17.215  25.656   4.803
37333W        W 5663  11.738  24.191  13.316
37334W        W 5664  14.714  36.457  14.323
37335W        W 5665  14.811  36.418  13.388
37336W        W 5666  30.933   4.277   1.265
37337W        W 5667  33.958  43.349   2.690
37338W        W 5668  34.889  17.740   4.183
37339W        W 5669   6.287  27.007  14.453
37340W        W 5670  11.224  41.489   1.830
37341W        W 5671   2.336  21.193  14.394
37342W        W 5672  12.698  12.799   2.747
37343W        W 5673   3.216   6.357  11.468
37344W        W 5674  43.852  10.283   2.365
37345W        W 5675  19.092   8.329  14.801
37346W        W 5676  21.588  24.105   3.690
37347W        W 5677  38.495  34.047   2.790
37348W        W 5678  15.713  16.156   4.732
37349W        W 5679   7.200   2.740  13.462
37350W        W 5680  25.968  33.947   0.887
37351W        W 5681   2.776  10.780  14.883
37352W        W 5682  25.069  24.488   4.216
37353W        W 5683  17.295  20.528  11.889
37354W        W 5684  12.686  42.304   2.337
37355W        W 5685  33.895  19.261  10.481
37356W        W 5686   4.435  33.617  14.931
37357W        W 5687   7.371  42.964  10.935
37358W        W 5688   1.272  15.177  11.913
37359W        W 5689   5.430  26.043   1.409
37360W        W 5690   8.392  15.804   3.672
37361W        W 5691   0.844  13.133   1.840
37362W        W 5692   9.296   5.275   4.794
37363W        W 5693  31.572  16.757   2.264
37364W        W 5694  22.047  38.342   0.410
37365W        W 5695   1.780   4.861  13.358
37366W        W 5696  26.567  16.303   4.123
37367W        W 5697   5.409  44.482   4.295
37368W        W 5698  17.727   2.928   4.708
37369W        W 5699  43.281  42.927  12.981
37370W        W 5700  26.041  37.372   4.296
37371W        W 5701   3.421  39.426   4.261
37372W        W 5702  15.809  28.625  12.073
37373W        W 5703  42.960  12.747  10.979
37374W        W 5704  36.558  31.008  11.915
37375W        W 5705  39.953  16.208   2.875
37376W        W 5706  38.043  30.147  12.084
37377W        W 5707  37.563  39.517  10.520
37378W        W 5708  21.734  29.651   3.695
37379W        W 5709  27.616  23.132   4.148
37380W        W 5710  41.319  35.964   3.825
37381W        W 5711   5.848  35.378  10.914
37382W        W 5712  33.600   8.229  13.931
37383W        W 5713  44.825  29.076  13.510
37384W        W 5714  23.566  38.043  10.630
37385W        W 5715   9.788  16.654   1.880
37386W        W 5716  12.788   5.879   3.256
37387W        W 5717  39.027  11.646  12.573
37388W        W 5718  39.839   9.742  11.544
37389W        W 5719   8.658  23.204   1.224
37390W        W 5720  14.830   0.808   0.395
37391W        W 5721  39.444   2.426   2.679
37392W        W 5722  38.390  22.698   3.745
37393W        W 5723  18.134  42.806   3.156
37394W        W 5724  43.459   1.282  13.922
37395W        W 5725  12.253   1.910   1.901
37396W        W 5726  12.247  30.439   0.736
37397W        W 5727   7.326   0.270   4.660
37398W        W 5728   1.472  26.000  10.582
37399W        W 5729  18.221  14.243   3.820
37400W        W 5730  30.079   5.337  13.353
37401W        W 5731  27.614   8.260  12.356
37402W        W 5732   7.772  17.614   0.765
37403W        W 5733  44.301  44.437  11.864
37404W        W 5734   8.732  11.257  12.936
37405W        W 5735   5.326  41.339  11.608
37406W        W 5736  11.343  15.602  14.297
37407W        W 5737  34.898   8.675   2.670
37408W        W 5738  19.241  36.548   1.405
37409W        W 5739  33.444  42.942   0.808
37410W        W 5740  42.512  25.643   3.797
37411W        W 5741  11.628  25.120   0.478
37412W        W 5742   0.266  10.717   1.846
37413W        W 5743  23.049  26.607   0.959
37414W        W 5744   0.932  16.203   3.278
37415W        W 5745  19.749  15.657  10.069
37416W        W 5746  19.586   5.718  10.138
37417W        W 5747   8.758  36.433  12.849
37418W        W 5748  22.056   1.835   3.364
37419W        W 5749   8.308   4.360   4.150
37420W        W 5750  32.116  14.246   3.634
37421W        W 5751  14.288  31.977  13.471
37422W        W 5752  44.435  21.181   2.267
37423W        W 5753   4.782  10.355  14.927
37424W        W 5754  43.831   4.882  14.953
37425W        W 5755  38.483  41.804  12.977
37426W        W 5756  10.284   2.321   3.800
37427W        W 5757   5.830   8.375  13.541
37428W        W 5758  35.864  34.958  13.525
37429W        W 5759   9.682  12.731  12.927
37430W        W 5760  25.706   2.803   2.214
37431W        W 5761  19.086   7.395   1.830
37432W        W 5762  15.236  23.597  12.478
37433W        W 5763  39.543  36.350  13.364
37434W        W 5764  22.509  27.459   2.415
37435W        W 5765  24.578   8.275   3.838
37436W        W 5766  28.665  30.945   3.162
37437W        W 5767  12.213  19.771   0.366
37438W        W 5768  36.564  41.363   0.749
37439W        W 5769   0.904  12.191  10.508
37440W        W 5770  36.037  37.043   4.735
37441W        W 5771  34.009  41.451  10.637
37442W        W 5772  24.137   4.286   1.428
37443W        W 5773  26.524  35.015  12.470
37444W        W 5774  40.401   1.241  11.111
37445W        W 5775  42.299  41.978   1.414
37446W        W 5776   9.284  27.630   1.223
37447W        W 5777  19.546  27.962   1.449
37448W        W 5778   3.848  19.187   1.395
37449W        W 5779  35.086  41.325  10.958
37450W        W 5780  22.224  29.659  13.329
37451W        W 5781  22.165  32.548   0.436
37452W        W 5782  22.646  34.421   3.167
37453W        W 5783  20.615  28.587  14.836
37454W        W 5784  38.522   5.759   4.643
37455W        W 5785  22.202  17.195   4.779
37456W        W 5786   2.887   7.382   2.706
37457W        W 5787  41.028  30.053  10.530
37458W        W 5788  40.427  35.918  14.802
37459W        W 5789   8.708  44.340  13.353
37460W        W 5790  24.650  19.767  12.544
37461W        W 5791   1.483   0.386   4.278
37462W        W 5792  22.720   5.786   0.807
37463W        W 5793  32.088  22.524   3.678
37464W        W 5794  30.000  15.135   4.122
37465W        W 5795   6.822   3.722  11.409
37466W        W 5796  34.446   1.459   0.822
37467W        W 5797  20.230   1.878   5.109
37468W        W 5798  28.933   4.882   2.874
37469W        W 5799  22.675  25.684   2.890
37470W        W 5800  35.405  10.371  10.546
37471W        W 5801  34.036  26.547   1.398
37472W        W 5802  18.231  21.069   1.398
37473W        W 5803  32.079   3.758   4.338
37474W        W 5804  19.579  21.565   0.483
37475W        W 5805  43.361   5.250   0.359
37476W        W 5806  15.100  26.146  11.607
37477W        W 5807   9.760  34.087   4.759
37478W        W 5808  33.419  12.777  11.974
37479W        W 5809  16.684   8.874   2.863
37480W        W 5810  32.466  15.316  11.008
37481W        W 5811   2.353  38.568   1.865
37482W        W 5812  12.307   9.282  11.123
37483W        W 5813   2.270  36.533   4.775
37484W        W 5814  12.191   0.750   4.141
37485W        W 5815   2.382   2.461   3.842
37486W        W 5816  17.691  35.435   1.803
37487W        W 5817  31.056   0.949  11.863
37488W        W 5818  18.217   4.271  11.903
37489W        W 5819  16.774  41.876   3.252
37490W        W 5820  12.316  21.135   0.928
37491W        W 5821  21.095   3.722  13.483
37492W        W 5822  42.461  20.105   3.151
37493W        W 5823   0.765  30.984  11.068
37494W        W 5824  11.365  31.503   1.381
37495W        W 5825  12.770   7.763  14.874
37496W        W 5826   3.750  20.602  11.027
37497W        W 5827  20.718   0.909   2.412
37498W        W 5828   3.248  36.940  10.632
37499W        W 5829  27.959  17.187   3.239
37500W        W 5830  30.144  28.135   0.752
37501W        W 5831  10.191  17.559   3.319
37502W        W 5832  17.709   8.751   4.794
37503W        W 5833  40.415  34.940  10.936
37504W        W 5834   0.921   8.893   4.200
37505W        W 5835   4.754   7.244  14.415
37506W        W 5836  26.487   8.868   4.335
37507W        W 5837  37.436  17.156  13.340
37508W        W 5838  28.676   4.273   3.260
37509W        W 5839  30.920  41.469  14.854
37510W        W 5840   6.727  27.084   0.930
37511W        W 5841  42.803  20.545   2.871
37512W        W 5842   4.772   3.453  11.543
37513W        W 5843  35.090  21.547   1.844
37514W        W 5844  37.836  42.435  12.423
37515W        W 5845  33.893  22.170   2.392
37516W        W 5846  33.508  35.096  11.511
37517W        W 5847  33.395  37.947  13.914
37518W        W 5848  33.958   7.882  10.938
37519W        W 5849   8.863   6.244  10.557
37520W        W 5850  27.063  29.921  10.614
37521W        W 5851  27.623  10.297   5.733
37522W        W 5852  19.247   8.708   1.918
37523W        W 5853  19.218  38.991  11.420
37524W        W 5854   4.288  19.556   1.702
37525W        W 5855  42.520  35.031   0.921
37526W        W 5856  35.861  24.639   3.652
37527W        W 5857  32.519  27.471   4.147
37528W        W 5858  31.409  16.250   3.174
37529W        W 5859  10.688  24.550   3.670
37530W        W 5860   8.215  30.916  13.409
37531W        W 5861  37.849  37.412  14.332
37532W        W 5862  23.681  23.508  14.346
37533W        W 5863  27.580  21.565   0.365
37534W        W 5864  26.096  38.904   0.839
37535W        W 5865   0.481   1.383  10.992
37536W        W 5866  32.087  35.444  13.893
37537W        W 5867  15.600  36.588  10.599
37538W        W 5868  29.523  28.162  14.293
37539W        W 5869  14.156   4.277   0.333
37540W        W 5870  30.420  30.122   4.734
37541W        W 5871  18.141  37.070  12.361
37542W        W 5872   7.362  18.081   4.730
37543W        W 5873  22.104   6.769   3.301
37544W        W 5874   6.342  14.715  14.430
37545W        W 5875   3.375   2.830  13.982
37546W        W 5876  19.747  31.520   4.170
37547W        W 5877  26.149  41.954   0.967
37548W        W 5878  43.804  17.142  14.841
37549W        W 5879  20.698  39.439  13.796
37550W        W 5880  15.168  41.945   0.957
37551W        W 5881  34.053  10.336   2.402
37552W        W 5882  24.530   7.880   0.358
37553W        W 5883  35.044  31.897  12.059
37554W        W 5884  38.980  29.165  14.767
37555W        W 5885   8.730   6.327  14.337
37556W        W 5886  10.297  20.058   4.225
37557W        W 5887  16.648  30.447   4.175
37558W        W 5888   7.232   5.919  14.778
37559W        W 5889  13.107   8.667   4.264
37560W        W 5890  31.020  15.754  12.495
37561W        W 5891  34.014  20.063   1.390
37562W        W 5892   6.197  39.387  10.582
37563W        W 5893  21.606   0.868  10.506
37564W        W 5894  34.967  17.696   2.264
37565W        W 5895  10.216  18.703   4.237
37566W        W 5896  18.051  35.010  10.475
37567W        W 5897  40.006  19.643   2.360
37568W        W 5898  40.528  23.526   1.288
37569W        W 5899  22.521  17.158  11.104
37570W        W 5900   6.391  26.968   0.441
37571W        W 5901  20.085  28.580  10.931
37572W        W 5902  42.943  27.062  14.321
37573W        W 5903  11.178   0.909   3.327
37574W        W 5904   8.821  44.854   2.366
37575W        W 5905   1.868   8.820  12.420
37576W        W 5906   7.672  34.370   3.154
37577W        W 5907  17.683  34.963  12.082
37578W        W 5908  15.126  32.622   1.819
37579W        W 5909  20.086  25.067   4.307
37580W        W 5910  18.661  23.220   2.683
37581W        W 5911  15.622   7.773   3.173
37582W        W 5912  34.107  41.469  11.444
37583W        W 5913  29.423  17.216   3.835
37584W        W 5914  40.967  37.540   2.320
37585W        W 5915  41.485   1.350   0.931
37586W        W 5916  13.708  15.582   4.299
37587W        W 5917   7.204  19.110  13.885
37588W        W 5918  32.085  40.855  10.477
37589W        W 5919  43.358  26.612   0.419
37590W        W 5920  34.869  17.637  13.819
37591W        W 5921  27.628  18.057  10.412
37592W        W 5922  37.056   2.783   1.820
37593W        W 5923   7.390   6.352  14.900
37594W        W 5924  32.118   7.756  12.963
37595W        W 5925   4.754  32.630  13.969
37596W        W 5926   0.929  32.958  13.413
37597W        W 5927  25.172  23.114  10.544
37598W        W 5928  25.067  40.872   2.852
37599W        W 5929   1.875  31.402  14.869
37600W        W 5930  12.790  36.039  10.995
37601W        W 5931  33.544  27.634   4.718
37602W        W 5932   0.454   8.827   5.290
37603W        W 5933  31.005  18.757  14.314
37604W        W 5934   0.359  35.917   0.827
37605W        W 5935  38.459  20.205  12.430
37606W        W 5936  32.436  13.189  13.309
37607W        W 5937  11.265  24.630  13.890
37608W        W 5938   1.272  12.702   4.312
37609W        W 5939  13.625  32.097   2.850
37610W        W 5940  42.922  40.534  11.511
37611W        W 5941   1.876  37.079  13.850
37612W        W 5942  21.580  24.724  11.877
37613W        W 5943  20.179   5.920  10.407
37614W        W 5944  38.518  44.430  12.533
37615W        W 5945   8.213  42.925  10.953
37616W        W 5946  26.015  37.000   1.355
37617W        W 5947  38.532  10.382   2.682
37618W        W 5948  27.007  19.603  13.381
37619W        W 5949  15.630  19.053  11.983
37620W        W 5950  22.639  12.275   3.737
37621W        W 5951  17.781  15.137  10.506
37622W        W 5952  27.569  12.804  14.840
37623W        W 5953   3.894   7.894  12.434
37624W        W 5954  25.085  44.333   0.459
37625W        W 5955  33.573   6.225   1.434
37626W        W 5956  11.327  42.837  12.013
37627W        W 5957  23.505  38.325  12.483
37628W        W 5958  27.521  14.102  14.770
37629W        W 5959  27.112  19.275   0.317
37630W        W 5960  13.156  11.804  11.404
37631W        W 5961   8.371  37.836   4.746
37632W        W 5962  21.210   2.380  11.474
37633W        W 5963   9.173  13.350  10.490
37634W        W 5964  38.973  19.647  11.047
37635W        W 5965  19.564   9.208  10.160
37636W        W 5966   4.224  26.604  12.073
37637W        W 5967  18.157  35.097   4.185
37638W        W 5968  31.949  22.553  14.288
37639W        W 5969  39.504  25.175  10.475
37640W        W 5970   0.868   6.908  10.921
37641W        W 5971   1.308  31.044   1.866
37642W        W 5972  28.523   1.296   1.349
37643W        W 5973  23.209  41.331   5.103
37644W        W 5974  28.116  21.704   2.360
37645W        W 5975  25.504  12.315   9.607
37646W        W 5976  35.973  44.787   1.867
37647W        W 5977  22.141  37.850   2.801
37648W        W 5978   7.207   9.391  14.866
37649W        W 5979  29.497  10.332   1.804
37650W        W 5980  27.074  40.333  11.053
37651W        W 5981  20.522  13.106   3.663
37652W        W 5982  38.565   1.366   1.355
37653W        W 5983  23.195  29.038  13.964
37654W        W 5984  31.083  42.342   2.672
37655W        W 5985   0.748  26.973   1.865
37656W        W 5986  23.728  11.344  12.923
37657W        W 5987   8.881  32.128  10.947
37658W        W 5988   8.399  30.418   0.441
37659W        W 5989   7.816  10.272   2.360
37660W        W 5990   0.373  15.775  14.328
37661W        W 5991  44.981   2.262   1.753
37662W        W 5992  17.092   8.860  13.867
37663W        W 5993  43.449   7.315  11.424
37664W        W 5994   2.464  37.028   5.197
37665W        W 5995   2.838  25.562  13.053
37666W        W 5996  35.034   5.753   2.873
37667W        W 5997  42.921   8.337   2.246
37668W        W 5998  42.963  14.688   1.834
37669W        W 5999  42.019  17.670  13.002
37670W        W 6000  38.901  16.589  13.432
37671W        W 6001  26.076  17.133  10.616
37672W        W 6002   7.905  24.581   3.310
37673W        W 6003  18.239   2.445  13.911
37674W        W 6004  38.983   9.828   2.215
37675W        W 6005  10.223  24.522  14.770
37676W        W 6006  11.296   8.233   0.752
37677W        W 6007  18.283  14.594   3.255
37678W        W 6008  16.625   5.850  11.563
37679W        W 6009  41.470  15.805   1.791
37680W        W 6010  43.013  25.644   3.326
37681W        W 6011  38.819  33.422  14.379
37682W        W 6012  22.713  40.396   2.206
37683W        W 6013  35.604  29.497   2.386
37684W        W 6014  39.556  29.623  13.022
37685W        W 6015  30.643  12.260  11.375
37686W        W 6016   7.851   4.917   1.324
37687W        W 6017  42.527  26.129  10.939
37688W        W 6018  31.473   4.211  14.016
37689W        W 6019  27.677  26.592  11.102
37690W        W 6020  24.160   6.863   3.785
37691W        W 6021   2.845  25.135   1.706
37692W        W 6022   9.169  37.536  10.891
37693W        W 6023  35.417  35.871  13.436
37694W        W 6024  24.685  10.268  10.078
37695W        W 6025  27.644  22.076   0.406
37696W        W 6026  33.883  40.313  14.279
37697W        W 6027   9.321  30.498   0.750
37698W        W 6028  25.062   3.437   5.294
37699W        W 6029  27.121  37.385  14.780
37700W        W 6030  16.665  18.220  11.965
37701W        W 6031   9.728  31.996  14.321
37702W        W 6032  28.476  18.132  11.452
37703W        W 6033  11.373  10.264  13.466
37704W        W 6034  40.987   6.877  10.134
37705W        W 6035  35.481  18.559   4.664
37706W        W 6036  16.294  34.429  10.563
37707W        W 6037   7.794  19.177   0.455
37708W        W 6038   7.882  11.781   2.770
37709W        W 6039  42.297  26.640   0.315
37710W        W 6040  33.544  24.126   3.369
37711W        W 6041   5.311  32.432  12.507
37712W        W 6042  26.680  36.908   4.708
37713W        W 6043  38.372   2.343  11.601
37714W        W 6044  38.430   4.306   2.725
37715W        W 6045  16.106   8.712  14.790
37716W        W 6046  39.480  39.371   3.171
37717W        W 6047  39.004   6.777   0.367
37718W        W 6048  23.544  40.500   4.748
37719W        W 6049  36.908  25.568  10.954
37720W        W 6050   0.408  20.110  12.870
37721W        W 6051  34.376  23.681  11.447
37722W        W 6052  27.643   8.336  13.811
37723W        W 6053  10.260  17.576  11.916
37724W        W 6054  17.193  32.905   3.207
37725W        W 6055  26.679   3.745  10.607
37726W        W 6056  25.532  25.209   1.217
37727W        W 6057  24.168  21.602   3.207
37728W        W 6058  37.450  42.398  10.483
37729W        W 6059   7.903  20.178   2.748
37730W        W 6060  29.956  28.073  11.442
37731W        W 6061  33.035  20.051  10.074
37732W        W 6062  35.599   3.458   1.444
37733W        W 6063  36.566  26.469  10.901
37734W        W 6064  17.677  34.962   1.233
37735W        W 6065  37.913   4.316   0.370
37736W        W 6066  36.347  43.838   3.220
37737W        W 6067   1.382  17.118  14.490
37738W        W 6068  17.144  26.598   2.309
37739W        W 6069  12.658  17.110  14.823
37740W        W 6070  44.390  29.170   0.469
37741W        W 6071  26.505  21.677   4.687
37742W        W 6072   7.820  24.974  11.431
37743W        W 6073  20.571  22.159   4.282
37744W        W 6074  10.837  20.566  13.052
37745W        W 6075  20.708  10.262   3.196
37746W        W 6076   0.390   5.408  12.524
37747W        W 6077  40.938   1.312   1.431
37748W        W 6078   9.226  26.108  13.021
37749W        W 6079   7.856  31.997   4.659
37750W        W 6080  14.730  10.189   0.384
37751W        W 6081  12.332  38.954   0.938
37752W        W 6082  27.007  26.985  13.902
37753W        W 6083  31.470  19.737  12.386
37754W        W 6084  34.897  39.887  14.812
37755W        W 6085  20.216   5.309   0.396
37756W        W 6086  14.171  21.196   4.786
37757W        W 6087   0.831  31.079   2.795
37758W        W 6088  22.078  26.968   1.704
37759W        W 6089  25.964  25.012   2.734
37760W        W 6090  43.944  26.162   4.749
37761W        W 6091  10.679  23.587   2.220
37762W        W 6092  27.090  10.685  13.871
37763W        W 6093   8.291  13.261   0.938
37764W        W 6094  26.509   6.780  11.998
37765W        W 6095  43.457  26.053  14.895
37766W        W 6096   4.365   2.910   1.932
37767W        W 6097   7.335   3.270   2.381
37768W        W 6098  44.500   8.888  12.376
37769W        W 6099  26.027  12.818  14.987
37770W        W 6100  12.240  13.112  11.921
37771W        W 6101  38.405   7.822   2.824
37772W        W 6102  18.638   7.338  11.588
37773W        W 6103  30.953  34.555   1.856
37774W        W 6104   0.795  33.062  14.367
37775W        W 6105  39.494  26.066   1.928
37776W        W 6106  14.744  37.418  10.062
37777W        W 6107  29.986  40.054   0.778
37778W        W 6108  27.587  19.729  13.801
37779W        W 6109  13.184  22.674   1.382
37780W        W 6110  30.973  32.420   0.913
37781W        W 6111  23.490  42.906  10.893
37782W        W 6112  12.192  10.312   0.743
37783W        W 6113   6.838  28.593   3.679
37784W        W 6114  17.075  38.554  14.920
37785W        W 6115  10.845   8.352   2.852
37786W        W 6116   6.303  27.124   0.751
37787W        W 6117  19.081   2.345   2.771
37788W        W 6118   3.243  36.042   1.402
37789W        W 6119   9.280  35.490  13.014
37790W        W 6120  10.232  29.593  11.101
37791W        W 6121  27.082  36.389  13.040
37792W        W 6122  15.175  20.757  10.932
37793W        W 6123  30.970  32.920   1.385
37794W        W 6124  29.640  22.225  11.427
37795W        W 6125  32.449  20.109  11.409
37796W        W 6126   1.386  41.932  10.507
37797W        W 6127  36.528  38.924  11.605
37798W        W 6128  24.503   7.282   2.351
37799W        W 6129  39.388  14.278  12.539
37800W        W 6130  33.000  44.486   2.898
37801W        W 6131  20.741  27.676   1.786
37802W        W 6132  24.492  41.327   1.806
37803W        W 6133  26.566   5.924  10.985
37804W        W 6134  19.563  22.692   0.747
37805W        W 6135  11.177   9.886   4.710
37806W        W 6136   5.749   2.877  13.378
37807W        W 6137  19.565  29.433   4.185
37808W        W 6138  41.921   0.940  14.333
37809W        W 6139  31.529  29.630   3.189
37810W        W 6140  23.580  10.369  11.933
37811W        W 6141   9.326  24.976   2.351
37812W        W 6142  17.140  26.099  12.350
37813W        W 6143  25.636  15.589   0.468
37814W        W 6144  21.137  44.840   0.820
37815W        W 6145   5.343  29.629  14.342
37816W        W 6146   2.467  18.625   1.297
37817W        W 6147  10.717  22.042   1.912
37818W        W 6148  37.466  28.122   0.762
37819W        W 6149   0.760   8.396   1.280
37820W        W 6150  44.992  12.140  11.956
37821W        W 6151  21.139  33.598  12.455
37822W        W 6152  21.184  22.655   2.898
37823W        W 6153  42.886  23.999  11.500
37824W        W 6154  23.179   5.344   0.302
37825W        W 6155  20.247  26.586   1.888
37826W        W 6156  20.191   6.396   0.846
37827W        W 6157   0.829   5.892   0.383
37828W        W 6158  42.524  33.456   1.727
37829W        W 6159  41.521  31.492   1.235
37830W        W 6160  20.679  17.090   1.733
37831W        W 6161   4.340  30.439  12.344
37832W        W 6162  38.465  12.670  12.878
37833W        W 6163  27.038  38.365  11.888
37834W        W 6164  27.078   2.367  11.507
37835W        W 6165  11.840  33.902   3.707
37836W        W 6166  24.997  26.588   4.287
37837W        W 6167   8.771  20.085   1.376
37838W        W 6168  37.498  14.214  14.915
37839W        W 6169   9.194  31.047  13.795
37840W        W 6170  13.827   4.216   2.865
37841W        W 6171   0.943  10.862  11.425
37842W        W 6172  39.057  22.622  10.958
37843W        W 6173  41.041  22.203   1.838
37844W        W 6174  16.734  21.096  12.510
37845W        W 6175  38.860   6.397  12.985
37846W        W 6176  42.880  29.044  14.777
37847W        W 6177   9.289  39.954   0.768
37848W        W 6178  19.677  24.500   9.952
37849W        W 6179  17.610  28.484   2.237
37850W        W 6180  26.639  20.531   2.856
37851W        W 6181  11.778  37.085   0.439
37852W        W 6182  19.187  31.969   0.414
37853W        W 6183  44.759  14.317  12.360
37854W        W 6184  18.275  27.002   0.851
37855W        W 6185  13.670  36.848   5.779
37856W        W 6186  43.476  32.994  13.848
37857W        W 6187  43.419  32.453  12.400
37858W        W 6188  36.413  19.211  13.351
37859W        W 6189  23.082  27.608  13.865
37860W        W 6190  25.634  33.009   2.723
37861W        W 6191   0.870   5.843  13.802
37862W        W 6192  12.118  13.224  12.987
37863W        W 6193   3.956  38.043  12.473
37864W        W 6194  32.119  42.844   4.793
37865W        W 6195  44.006  16.281  14.338
37866W        W 6196  32.022  38.937  14.315
37867W        W 6197   9.686   5.275  11.487
37868W        W 6198  14.642  12.743   4.205
37869W        W 6199  42.021  34.960  11.400
37870W        W 6200   0.762   0.821   3.185
37871W        W 6201  39.915   0.299   0.399
37872W        W 6202  40.904  33.570  14.821
37873W        W 6203  18.601  29.074   3.326
37874W        W 6204  10.778   4.226   3.632
37875W        W 6205  34.400  18.165   3.250
37876W        W 6206  26.181  43.974   1.866
37877W        W 6207   5.376  22.241   4.258
37878W        W 6208  29.509   4.279  13.811
37879W        W 6209   7.793  40.429  12.511
37880W        W 6210   7.185  14.162  11.861
37881W        W 6211  35.462   9.178  13.996
37882W        W 6212  44.400   2.909   4.272
37883W        W 6213  39.426  37.906   3.751
37884W        W 6214  38.953  35.508   1.782
37885W        W 6215  41.907  20.538   0.473
37886W        W 6216  10.234  13.813  13.503
37887W        W 6217  28.185  28.057  13.482
37888W        W 6218  41.339  31.610   3.270
37889W        W 6219   4.347  21.075  11.099
37890W        W 6220   1.952   0.826  14.476
37891W        W 6221  26.135  16.283   3.273
37892W        W 6222  39.011  17.253  10.623
37893W        W 6223  11.232  30.416   4.353
37894W        W 6224  19.223   5.735   0.885
37895W        W 6225  29.149  35.473  14.894
37896W        W 6226  34.935  11.861   0.450
37897W        W 6227  31.917  30.074  14.308
37898W        W 6228  41.510  30.516  13.394
37899W        W 6229   7.308  41.441  10.973
37900W        W 6230  42.015  13.228  13.894
37901W        W 6231  17.591  40.868  11.882
37902W        W 6232  40.020   2.377   2.381
37903W        W 6233  30.959  14.810   1.429
37904W        W 6234   4.762  27.465   0.940
37905W        W 6235   7.205  43.280   1.395
37906W        W 6236  30.001  35.910  11.094
37907W        W 6237  28.128  32.997   3.278
37908W        W 6238  11.169  13.616  11.559
37909W        W 6239  31.109  40.880  12.910
37910W        W 6240  13.677  11.815   2.380
37911W        W 6241  42.832  42.915  10.490
37912W        W 6242  30.524  13.757  12.390
37913W        W 6243  11.782  25.648  13.016
37914W        W 6244  12.664  12.693  11.443
37915W        W 6245  19.049  25.482   2.667
37916W        W 6246  16.735   2.351   0.304
37917W        W 6247  38.556  27.136  13.426
37918W        W 6248  40.928  10.281  10.435
37919W        W 6249  31.570   7.417  11.950
37920W        W 6250  32.104  13.298   2.238
37921W        W 6251  14.723  17.700   1.279
37922W        W 6252  15.687   2.329  10.555
37923W        W 6253  15.726  32.501   2.679
37924W        W 6254  30.434  14.759  14.275
37925W        W 6255  41.964   3.255   2.402
37926W        W 6256  22.743  28.152   3.799
37927W        W 6257   8.290  25.185  12.024
37928W        W 6258  31.960  42.998  12.574
37929W        W 6259  13.644   2.383   0.291
37930W        W 6260   5.319   3.432   1.835
37931W        W 6261  11.214  25.057  12.089
37932W        W 6262  12.303  15.677  14.801
37933W        W 6263  29.084   7.264  12.479
37934W        W 6264  26.204  12.134  10.501
37935W        W 6265  23.603  24.198  13.478
37936W        W 6266   2.854  12.160  12.927
37937W        W 6267  42.935  15.772   3.748
37938W        W 6268  33.395  19.159  14.946
37939W        W 6269  23.219   3.268   1.933
37940W        W 6270  14.247  26.567   1.236
37941W        W 6271  14.230  38.483   2.840
37942W        W 6272   4.860  43.980   3.738
37943W        W 6273  44.951  35.872   1.881
37944W        W 6274  43.458  28.580  14.773
37945W        W 6275  27.170   9.746   1.370
37946W        W 6276  31.425   5.302   1.315
37947W        W 6277  21.026  19.678  11.896
37948W        W 6278   4.223   2.829  11.114
37949W        W 6279  38.458  16.735   1.774
37950W        W 6280  34.120  23.077   2.192
37951W        W 6281  10.868  16.728  13.429
37952W        W 6282  28.527   3.883  12.966
37953W        W 6283   4.227  15.790  11.015
37954W        W 6284  29.514   7.231  13.533
37955W        W 6285  41.441  16.661  12.441
37956W        W 6286  30.966  26.153   3.857
37957W        W 6287   9.850  19.569  11.542
37958W        W 6288  16.594  28.518  14.971
37959W        W 6289  21.616   7.852   0.915
37960W        W 6290   5.779  43.774  11.899
37961W        W 6291   9.300   6.913   3.821
37962W        W 6292   0.320  42.285  13.996
37963W        W 6293  17.593  37.837  12.580
37964W        W 6294  35.491  44.278  12.483
37965W        W 6295  44.005  17.288   3.750
37966W        W 6296  14.833  33.891  10.621
37967W        W 6297  24.557   3.280  10.530
37968W        W 6298  35.047  43.293  12.514
37969W        W 6299  20.639  21.212  12.040
37970W        W 6300  11.217  35.002  10.460
37971W        W 6301  10.329   3.789  12.444
37972W        W 6302  10.354  17.716   0.814
37973W        W 6303  20.719  17.234  12.516
37974W        W 6304  27.587  18.182   0.283
37975W        W 6305  37.365  42.843  11.873
37976W        W 6306  18.290  30.594   2.731
37977W        W 6307   6.873  43.970   1.348
37978W        W 6308   2.955  38.519   0.834
37979W        W 6309  23.229   8.292   0.823
37980W        W 6310  20.236  29.569  13.946
37981W        W 6311  16.143   4.342  12.017
37982W        W 6312   8.675  15.799   2.696
37983W        W 6313  16.687  32.125   3.863
37984W        W 6314  26.168  36.908   2.311
37985W        W 6315  24.044   5.329  11.915
37986W        W 6316   1.837  16.617   3.635
37987W        W 6317  36.513   3.445   3.646
37988W        W 6318  35.398  36.951  11.483
37989W        W 6319  35.460  10.295  14.810
37990W        W 6320  28.592  34.061  10.082
37991W        W 6321   5.814  41.374   3.162
37992W        W 6322  36.947  18.094  12.392
37993W        W 6323  43.946  34.085   2.271
37994W        W 6324   1.773  25.005   4.727
37995W        W 6325   1.872  13.130   1.737
37996W        W 6326  41.347   5.395   1.427
37997W        W 6327  37.512  35.422  14.954
37998W        W 6328   4.746   8.873   0.310
37999W        W 6329  18.774  44.789   1.890
38000W        W 6330  30.913  21.162   0.367
38001W        W 6331  17.753   8.685  14.406
38002W        W 6332   5.258  36.997  11.901
38003W        W 6333  27.195  40.420  12.493
38004W        W 6334  29.141  42.299   2.229
38005W        W 6335  25.545  10.315  12.498
38006W        W 6336  32.547  28.052  14.898
38007W        W 6337  36.030   8.229  10.642
38008W        W 6338  35.036  19.070   3.277
38009W        W 6339   0.782  21.021  13.450
38010W        W 6340  37.078  43.970   1.919
38011W        W 6341  10.671  27.612  14.295
38012W        W 6342  29.001  34.425   4.777
38013W        W 6343   4.248  37.966   1.847
38014W        W 6344  42.504  39.360   3.262
38015W        W 6345  10.215  10.324  10.621
38016W        W 6346  32.499  32.398   3.385
38017W        W 6347   0.957  36.936   3.729
38018W        W 6348  16.780  11.673  14.510
38019W        W 6349  17.232  36.423  12.900
38020W        W 6350  30.982   3.755  13.531
38021W        W 6351  42.850  24.042   1.917
38022W        W 6352  34.033  18.165   1.833
38023W        W 6353  15.197   5.217  12.866
38024W        W 6354   7.401  10.309   2.251
38025W        W 6355   1.396  43.828   2.381
38026W        W 6356  18.752  19.102  13.904
38027W        W 6357  30.461  37.901   4.831
38028W        W 6358  31.632   9.828  10.480
38029W        W 6359  17.191  41.293   5.245
38030W        W 6360  18.699   3.750  12.855
38031W        W 6361  32.443  25.480  14.874
38032W        W 6362   2.863  28.136   0.249
38033W        W 6363  41.482  12.815  12.867
38034W        W 6364  34.570  11.737  13.043
38035W        W 6365  37.347  36.506  11.919
38036W        W 6366  39.002  15.170   2.756
38037W        W 6367  28.074  20.214   0.386
38038W        W 6368  41.374   5.898  10.462
38039W        W 6369  32.998   2.938  13.486
38040W        W 6370   3.413  14.167  10.979
38041W        W 6371  36.404  19.719   4.122
38042W        W 6372  27.012  12.670   9.670
38043W        W 6373   2.468  20.263   3.847
38044W        W 6374   1.311  12.842   0.952
38045W        W 6375   3.298  35.435   3.755
38046W        W 6376  43.889  20.745  11.582
38047W        W 6377   1.897  12.307   0.481
38048W        W 6378  32.003  27.975   4.292
38049W        W 6379  44.418  37.018   4.600
38050W        W 6380   6.412   3.758  14.015
38051W        W 6381  33.497  43.308   4.726
38052W        W 6382  26.508  32.390   4.200
38053W        W 6383  33.534   0.830   1.346
38054W        W 6384  29.959  27.534   4.328
38055W        W 6385  33.600  38.873   5.310
38056W        W 6386  43.021  22.609   5.087
38057W        W 6387  24.201   9.384  14.979
38058W        W 6388  10.177  37.427  12.941
38059W        W 6389   9.721   7.905   1.903
38060W        W 6390  43.426  29.174   5.315
38061W        W 6391  14.192  33.618   4.201
38062W        W 6392  24.979  15.670  11.447
38063W        W 6393   4.855  33.878  13.948
38064W        W 6394  14.808  21.253   0.330
38065W        W 6395   8.662  42.371   4.152
38066W        W 6396  36.094   7.225  12.363
38067W        W 6397  10.244  21.585   3.696
38068W        W 6398  16.138  16.723   4.114
38069W        W 6399  26.500  23.986   4.776
38070W        W 6400  18.162  37.880  10.494
38071W        W 6401  16.640  34.038   3.221
38072W        W 6402  38.022  28.536  11.962
38073W        W 6403  41.815  40.492  14.773
38074W        W 6404  17.677  40.940   0.269
38075W        W 6405  21.661  18.156  11.062
38076W        W 6406  10.730  16.810   0.323
38077W        W 6407  36.063  24.529   0.776
38078W        W 6408  43.379   6.407  13.435
38079W        W 6409  36.031  42.474  14.315
38080W        W 6410  37.494  31.522   3.189
38081W        W 6411   0.347  34.114  13.929
38082W        W 6412  37.980   7.210   2.268
38083W        W 6413  12.663  10.662   0.935
38084W        W 6414   9.184  28.601   4.186
38085W        W 6415   3.246  34.111  12.388
38086W        W 6416  22.744  10.876   2.897
38087W        W 6417  32.112  20.526   0.371
38088W        W 6418   4.729  30.039   0.838
38089W        W 6419   6.721  24.007   1.783
38090W        W 6420  24.647  35.974  12.937
38091W        W 6421   0.980   6.798   2.765
38092W        W 6422  18.577  36.427  10.588
38093W        W 6423  10.144  22.703  11.993
38094W        W 6424  39.053  23.192  12.475
38095W        W 6425  10.875  31.970   2.701
38096W        W 6426  33.528  41.899  12.991
38097W        W 6427  20.066  35.442   3.192
38098W        W 6428  33.476  18.100  13.497
38099W        W 6429  27.669  16.768  12.938
38100W        W 6430  21.614   7.325  12.479
38101W        W 6431   1.351  13.659   3.297
38102W        W 6432   6.387   2.776  13.498
38103W        W 6433  27.627  16.075  13.988
38104W        W 6434   2.851  16.638  12.420
38105W        W 6435   3.378  44.358  10.928
38106W        W 6436   7.773   4.784   1.877
38107W        W 6437  26.649  34.469  14.432
38108W        W 6438  40.837  11.197  12.986
38109W        W 6439   8.885  26.970  12.518
38110W        W 6440  43.965  33.053   3.179
38111W        W 6441  20.173  40.847   1.773
38112W        W 6442  35.454  39.508  14.502
38113W        W 6443  21.174  19.058   2.850
38114W        W 6444  37.949  10.868   4.715
38115W        W 6445  15.298  37.368   9.633
38116W        W 6446  12.613  21.204   2.402
38117W        W 6447  32.042  41.978  13.875
38118W        W 6448  12.134   1.267  13.870
38119W        W 6449  21.216  21.073  14.480
38120W        W 6450  43.513   0.376  12.392
38121W        W 6451  19.186  17.800   5.230
38122W        W 6452  17.760  40.887   4.605
38123W        W 6453   5.395  25.701   0.350
38124W        W 6454  31.621  42.820   1.288
38125W        W 6455  20.610  41.927  11.499
38126W        W 6456  10.345   8.753   0.422
38127W        W 6457  17.179  33.101  12.989
38128W        W 6458  25.651  28.174   4.267
38129W        W 6459  15.626  28.602  13.908
38130W        W 6460  19.275  10.772   1.385
38131W        W 6461  38.014   1.286  10.932
38132W        W 6462  13.206  18.561  13.054
38133W        W 6463   3.415  14.279  13.837
38134W        W 6464  16.681  14.234   2.768
38135W        W 6465  12.359   4.219   3.360
38136W        W 6466  21.562   0.820   2.752
38137W        W 6467  10.288  20.154  11.092
38138W        W 6468  39.376  13.246   2.664
38139W        W 6469  19.699  36.908   3.863
38140W        W 6470  42.778  29.481   3.772
38141W        W 6471  15.222  35.099  10.039
38142W        W 6472  30.106  11.807   2.814
38143W        W 6473  34.918   0.756  11.127
38144W        W 6474  43.429  42.006  11.075
38145W        W 6475   8.894  13.182   2.709
38146W        W 6476  31.122  31.098  11.583
38147W        W 6477  28.070  41.029  14.380
38148W        W 6478  33.561  34.935   1.361
38149W        W 6479  15.222  13.288  13.887
38150W        W 6480   2.469   7.287   2.248
38151W        W 6481  44.967  41.379   4.120
38152W        W 6482  10.671  38.922  14.779
38153W        W 6483  41.999  10.164  13.054
38154W        W 6484  44.880  33.618  13.487
38155W        W 6485   4.389  35.024  14.934
38156W        W 6486  26.463  37.378   2.182
38157W        W 6487  32.415   4.921  14.385
38158W        W 6488   3.322  28.024  14.379
38159W        W 6489  43.309  28.528   3.184
38160W        W 6490  40.848  20.604  14.501
38161W        W 6491  35.865  39.814  14.000
38162W        W 6492  17.683  15.138   3.821
38163W        W 6493  15.649  26.569   4.172
38164W        W 6494   3.290  39.991   0.276
38165W        W 6495  29.921   8.329   2.221
38166W        W 6496  41.422  23.133  11.547
38167W        W 6497  30.126  23.235  13.941
38168W        W 6498  21.201   0.381  11.424
38169W        W 6499  30.558  19.557   1.929
38170W        W 6500  29.048   8.213   3.630
38171W        W 6501  24.215  14.646  10.572
38172W        W 6502   1.974  21.546  14.871
38173W        W 6503  12.268  32.598   4.767
38174W        W 6504   7.414  16.808  14.457
38175W        W 6505  31.437  34.923   3.718
38176W        W 6506  42.954  31.402   0.839
38177W        W 6507  26.596   6.298  11.549
38178W        W 6508   9.831  21.166  10.576
38179W        W 6509  35.383  35.571   4.611
38180W        W 6510   3.328  43.506  13.921
38181W        W 6511   3.954   0.423   0.353
38182W        W 6512  26.577  30.097  14.891
38183W        W 6513  42.798  32.945   3.199
38184W        W 6514  37.447  36.588   0.335
38185W        W 6515  26.101  23.000  12.346
38186W        W 6516   9.810  40.803   4.277
38187W        W 6517  27.093  18.103   2.214
38188W        W 6518  34.564  37.923  13.473
38189W        W 6519  13.843  36.883   5.196
38190W        W 6520  41.423  43.912   1.772
38191W        W 6521   5.423  12.665   2.874
38192W        W 6522  25.515  16.128  12.346
38193W        W 6523  20.201  44.393  12.014
38194W        W 6524  20.682  21.521  13.795
38195W        W 6525  35.897  15.094   2.873
38196W        W 6526  37.932   6.826  14.840
38197W        W 6527  10.721   5.309  11.010
38198W        W 6528  34.996  19.579  14.329
38199W        W 6529  10.213   7.689  10.414
38200W        W 6530  32.053   8.748   1.763
38201W        W 6531  11.303  39.931  10.632
38202W        W 6532  23.153  28.177   0.885
38203W        W 6533   6.802  39.452   2.771
38204W        W 6534  45.000  13.188   2.900
38205W        W 6535  36.576   6.899  11.601
38206W        W 6536  10.770   0.797   2.376
38207W        W 6537  12.823   8.673  13.363
38208W        W 6538  22.524  18.553  13.476
38209W        W 6539  37.919  10.347   0.481
38210W        W 6540  16.277  27.056   2.412
38211W        W 6541  35.370   1.378   2.801
38212W        W 6542  11.254  22.208  12.341
38213W        W 6543  33.379  32.537  10.566
38214W        W 6544  44.814  15.634   4.236
38215W        W 6545   3.752  19.258   0.480
38216W        W 6546  15.322   7.244   0.274
38217W        W 6547  32.495   6.420   2.684
38218W        W 6548  17.294  41.357  13.387
38219W        W 6549   8.708  37.001  11.893
38220W        W 6550  27.944  30.575  12.943
38221W        W 6551  11.261  36.441  13.510
38222W        W 6552   0.843  25.198   5.292
38223W        W 6553  16.098  16.797   3.196
38224W        W 6554  24.007  43.291   1.372
38225W        W 6555  24.134  34.376   2.183
38226W        W 6556  23.579  20.096  12.375
38227W        W 6557  41.440  30.032  12.551
38228W        W 6558   0.386  19.613  11.993
38229W        W 6559  36.088  34.489  11.092
38230W        W 6560  31.527  32.616   3.272
38231W        W 6561  31.022  43.778  13.801
38232W        W 6562  27.565  18.567   2.839
38233W        W 6563  25.675  21.519  10.644
38234W        W 6564  39.861  22.180   0.816
38235W        W 6565  16.800  38.437  10.944
38236W        W 6566  38.822  30.511  10.068
38237W        W 6567  22.743  23.632  10.055
38238W        W 6568  20.606  16.163   4.722
38239W        W 6569   5.762  14.250   3.361
38240W        W 6570   0.385  10.735  14.848
38241W        W 6571  38.480  32.539  10.948
38242W        W 6572  27.975   5.794   4.351
38243W        W 6573  35.879   3.733  11.430
38244W        W 6574  33.499  22.105  13.979
38245W        W 6575  27.463  32.631   4.603
38246W        W 6576  14.205  29.586   3.870
38247W        W 6577   4.917  40.883  14.998
38248W        W 6578   6.400  25.100  10.575
38249W        W 6579  24.650  13.765   1.434
38250W        W 6580  43.290  20.614   2.668
38251W        W 6581  32.635  22.532   1.777
38252W        W 6582  37.426  34.974   1.929
38253W        W 6583  15.315  22.614   0.386
38254W        W 6584  35.019  19.086  13.410
38255W        W 6585  35.412  31.021  14.867
38256W        W 6586  41.929  29.975   2.183
38257W        W 6587   4.889  20.112   3.633
38258W        W 6588  29.009  19.090  10.910
38259W        W 6589  43.309  16.264  11.879
38260W        W 6590   3.919  34.987  11.963
38261W        W 6591  13.721  36.405   2.828
38262W        W 6592   2.374   2.267  13.046
38263W        W 6593  28.643  28.619  12.493
38264W        W 6594   5.826   8.164  11.988
38265W        W 6595  11.798   9.836   0.454
38266W        W 6596  37.902  21.562  11.113
38267W        W 6597  34.386   1.841   4.680
38268W        W 6598  41.385   8.191  10.558
38269W        W 6599  37.002  43.358  10.528
38270W        W 6600  34.955  27.158   0.357
38271W        W 6601  40.520   8.204   9.937
38272W        W 6602  30.956   5.789   3.177
38273W        W 6603  32.537  10.328   1.227
38274W        W 6604  36.361  31.631  10.425
38275W        W 6605  39.871  27.483  14.908
38276W        W 6606  23.698   0.896   4.218
38277W        W 6607  19.686  28.955   9.966
38278W        W 6608  10.850  25.218  12.077
38279W        W 6609   6.352  23.028   0.473
38280W        W 6610  31.909  27.184  14.408
38281W        W 6611  23.119  22.088  10.603
38282W        W 6612  36.519  25.178   4.799
38283W        W 6613  41.991  20.166   1.295
38284W        W 6614  10.643  43.513  12.444
38285W        W 6615  35.960   5.203   1.354
38286W        W 6616  14.595  37.379   0.301
38287W        W 6617   8.800  41.022   0.366
38288W        W 6618  15.263  10.744   2.869
38289W        W 6619  39.377  42.886   0.298
38290W        W 6620   1.417  13.317   0.903
38291W        W 6621  26.956   1.470   4.204
38292W        W 6622  10.235   2.956   3.672
38293W        W 6623   8.845  43.395  13.979
38294W        W 6624  43.473  10.790  11.898
38295W        W 6625  35.413  22.727   0.472
38296W        W 6626  26.549  24.690  11.485
38297W        W 6627  34.912  42.806  12.903
38298W        W 6628  13.118  40.329   4.258
38299W        W 6629  44.476   1.971  14.280
38300W        W 6630  26.966  17.755  10.513
38301W        W 6631  42.287  35.409  12.079
38302W        W 6632  36.853  18.716  10.413
38303W        W 6633  22.215  31.065   0.366
38304W        W 6634  23.646  25.611  11.123
38305W        W 6635  27.024  42.426  14.292
38306W        W 6636  18.601   1.968   2.215
38307W        W 6637  22.522  27.460   4.758
38308W        W 6638   7.860  28.965  12.843
38309W        W 6639   3.259  30.627   1.797
38310W        W 6640  25.050   7.413  12.352
38311W        W 6641   6.222  32.095   3.821
38312W        W 6642  19.253  14.827   1.743
38313W        W 6643   9.351  29.430  11.463
38314W        W 6644  10.169  41.806  13.019
38315W        W 6645  43.287  27.193  10.976
38316W        W 6646  21.205  17.122   5.793
38317W        W 6647  22.049  41.498  14.960
38318W        W 6648  34.413  17.069  12.523
38319W        W 6649  38.935  27.053   1.715
38320W        W 6650  41.342  13.153  14.488
38321W        W 6651   4.726   9.795  14.427
38322W        W 6652  36.963  23.530  14.423
38323W        W 6653  17.204  39.360   3.205
38324W        W 6654  39.834  27.187  12.872
38325W        W 6655   6.198  20.170  13.940
38326W        W 6656  36.533   4.341   1.852
38327W        W 6657  26.458  18.558   1.283
38328W        W 6658  20.685   0.764  10.543
38329W        W 6659   2.778  15.294   1.218
38330W        W 6660  38.946   5.412  10.539
38331W        W 6661  40.897  18.549  13.892
38332W        W 6662  28.545  23.501  11.078
38333W        W 6663  38.568   8.783   3.740
38334W        W 6664   1.310  25.642  10.532
38335W        W 6665   9.393  43.965  13.386
38336W        W 6666  13.753  41.927   0.466
38337W        W 6667   5.740  18.095   3.326
38338W        W 6668  13.170  18.139  14.514
38339W        W 6669  21.688  19.226  12.880
38340W        W 6670  31.075  33.060  10.588
38341W        W 6671   7.799  26.559   3.246
38342W        W 6672  19.262  25.082  14.352
38343W        W 6673  15.659  10.263   1.418
38344W        W 6674   4.877   6.916  13.829
38345W        W 6675   7.716   7.871  13.468
38346W        W 6676   7.684  23.674   2.275
38347W        W 6677  10.782  34.029  10.603
38348W        W 6678   4.332  16.623   0.869
38349W        W 6679   7.328  17.175  12.485
38350W        W 6680  29.572  10.796   1.933
38351W        W 6681  36.942  23.158  13.997
38352W        W 6682  41.436  27.100  12.511
38353W        W 6683  16.077  26.672  14.826
38354W        W 6684   5.325   2.757  12.076
38355W        W 6685  28.523  18.122   1.878
38356W        W 6686  31.596  39.351  11.956
38357W        W 6687   4.334   5.344  11.857
38358W        W 6688  17.232  34.444  14.780
38359W        W 6689   4.804  15.769   2.412
38360W        W 6690  15.298  39.839   0.783
38361W        W 6691   0.380  36.381   1.362
38362W        W 6692   3.345  41.911   1.256
38363W        W 6693  34.555  39.397  11.005
38364W        W 6694   0.460  11.680  11.941
38365W        W 6695  17.205  37.362   2.384
38366W        W 6696  10.828   8.162  13.020
38367W        W 6697  41.028  18.197   0.833
38368W        W 6698  19.658  39.952  13.000
38369W        W 6699  25.499  11.139  10.516
38370W        W 6700  34.983  28.137  11.897
38371W        W 6701  23.574  11.822   1.786
38372W        W 6702  38.005  11.737   4.744
38373W        W 6703  13.345  43.905   0.914
38374W        W 6704  19.661  40.973  14.344
38375W        W 6705  38.416  21.243  13.936
38376W        W 6706  35.589  29.457   4.151
38377W        W 6707   3.358  10.234   0.463
38378W        W 6708   0.781   8.304  12.480
38379W        W 6709  35.579  20.076  13.847
38380W        W 6710  20.217   8.193  11.927
38381W        W 6711  30.481   0.420  10.420
38382W        W 6712  42.469  28.185   4.304
38383W        W 6713  27.605  22.193  11.929
38384W        W 6714  22.161   9.793  13.400
38385W        W 6715   1.764  22.124   3.251
38386W        W 6716  29.024  39.876   3.286
38387W        W 6717  26.199   1.275  14.881
38388W        W 6718  42.799  38.956  13.342
38389W        W 6719  19.081   1.891   3.254
38390W        W 6720  28.027  25.548  14.794
38391W        W 6721  12.158  19.192   3.860
38392W        W 6722  16.758  25.585  11.876
38393W        W 6723  10.877  24.167   4.223
38394W        W 6724  15.692  14.634  14.967
38395W        W 6725  24.038  23.069  11.488
38396W        W 6726  27.004  28.101   4.665
38397W        W 6727  30.079  14.785  10.897
38398W        W 6728  22.087  16.205   2.377
38399W        W 6729   3.953  21.246   4.665
38400W        W 6730   2.327  41.918   4.676
38401W        W 6731  16.075   9.253  14.413
38402W        W 6732  35.960  11.372  12.862
38403W        W 6733  41.979  28.593  12.553
38404W        W 6734  14.276  13.840  13.491
38405W        W 6735   6.910  30.548  11.513
38406W        W 6736  40.846  12.189  13.423
38407W        W 6737  35.878  31.619   0.276
38408W        W 6738   2.906  16.130  11.867
38409W        W 6739  33.571  26.608  10.622
38410W        W 6740  22.656  35.881   3.631
38411W        W 6741  18.734  42.900   5.275
38412W        W 6742  15.602  37.836   3.248
38413W        W 6743  17.243  44.323  10.418
38414W        W 6744  25.082  12.307  14.934
38415W        W 6745  27.069  39.503  12.426
38416W        W 6746  43.776  29.566  12.983
38417W        W 6747  13.214  24.626  14.856
38418W        W 6748  35.931   3.453   0.938
38419W        W 6749  42.796  29.594  14.981
38420W        W 6750   6.826  10.805   1.319
38421W        W 6751   4.744  22.655   1.825
38422W        W 6752   6.704  31.616  10.618
38423W        W 6753  24.079  38.065   3.708
38424W        W 6754  12.855  24.227  14.486
38425W        W 6755  14.101  11.658  14.979
38426W        W 6756  12.295  32.950  11.427
38427W        W 6757  42.820  15.172  12.837
38428W        W 6758  33.112  20.237   5.294
38429W        W 6759   2.444  42.426  12.576
38430W        W 6760  38.395   5.310   0.261
38431W        W 6761  44.000  24.973   1.392
38432W        W 6762  32.068  36.895  14.795
38433W        W 6763   0.267  21.130   1.262
38434W        W 6764   4.876  35.854  11.503
38435W        W 6765   0.252   7.790  12.528
38436W        W 6766  22.099  22.584   3.183
38437W        W 6767  27.142  19.160   2.245
38438W        W 6768   8.753   0.414   2.794
38439W        W 6769  24.616  15.684   2.837
38440W        W 6770  19.712  13.155  10.889
38441W        W 6771   6.301   4.798  13.457
38442W        W 6772  13.263  13.759   1.865
38443W        W 6773  18.126  22.708   3.320
38444W        W 6774  30.592  14.147  10.467
38445W        W 6775  21.592  41.434   3.667
38446W        W 6776   1.319  13.647   3.652
38447W        W 6777   4.843  29.632  13.414
38448W        W 6778   4.423   5.901  11.898
38449W        W 6779   3.395  37.016   4.793
38450W        W 6780  21.167  13.184   4.788
38451W        W 6781  29.625  11.201   4.173
38452W        W 6782  26.519   8.342  11.421
38453W        W 6783  18.090  39.393  10.494
38454W        W 6784   0.477  39.390  14.866
38455W        W 6785  17.258  31.924  14.944
38456W        W 6786   2.827  39.010  13.330
38457W        W 6787  40.365  26.077   3.362
38458W        W 6788  23.177  27.042  13.340
38459W        W 6789   0.974  27.176  10.889
38460W        W 6790  43.485  33.444   1.864
38461W        W 6791  25.152  31.011   2.856
38462W        W 6792   9.714  43.932  14.895
38463W        W 6793   8.269  20.564  14.928
38464W        W 6794   8.242  35.382   4.281
38465W        W 6795  28.090   5.276  14.380
38466W        W 6796  12.770  21.689   4.779
38467W        W 6797   4.734   4.283  11.418
38468W        W 6798  41.856  42.430  11.484
38469W        W 6799  27.482  17.094   4.148
38470W        W 6800   1.391   6.321  12.870
38471W        W 6801   0.789  17.107   0.831
38472W        W 6802  24.133  38.530  13.057
38473W        W 6803  28.090  13.602  10.574
38474W        W 6804  24.516  41.880   2.850
38475W        W 6805  11.808  27.546  10.446
38476W        W 6806  31.516   8.215   4.157
38477W        W 6807   7.374   8.364  13.803
38478W        W 6808  34.973  38.517  11.001
38479W        W 6809   9.845   3.430  10.497
38480W        W 6810  39.973  34.874  13.879
38481W        W 6811   8.218  41.465   0.795
38482W        W 6812  26.488  28.996  14.832
38483W        W 6813  33.468   4.855   2.343
38484W        W 6814   9.160  24.626  14.506
38485W        W 6815  15.095  30.991   1.902
38486W        W 6816  36.484  16.733   0.818
38487W        W 6817  17.123  20.643   1.808
38488W        W 6818  11.695  12.663   9.988
38489W        W 6819   0.455  35.370   2.699
38490W        W 6820  37.886   3.732   4.686
38491W        W 6821  42.797  20.748  11.539
38492W        W 6822  19.572  19.164  12.523
38493W        W 6823  27.998  39.328   4.753
38494W        W 6824  24.096  41.306  12.843
38495W        W 6825  22.634  27.558  14.788
38496W        W 6826  35.585  17.714  13.505
38497W        W 6827   2.781   9.249  14.931
38498W        W 6828  37.021  39.955   2.885
38499W        W 6829  43.787  39.376  13.888
38500W        W 6830   5.425   1.962  10.480
38501W        W 6831  35.932  11.346   0.294
38502W        W 6832  21.613   5.774  11.058
38503W        W 6833  12.274   6.324   0.304
38504W        W 6834  43.386  23.109   2.275
38505W        W 6835   1.866   2.760   0.475
38506W        W 6836  12.205   4.929   1.780
38507W        W 6837   2.890  19.630   1.782
38508W        W 6838  38.542  42.321   3.380
38509W        W 6839  31.941   1.424   3.710
38510W        W 6840   7.675   6.819   0.447
38511W        W 6841  20.122   3.740  11.977
38512W        W 6842   6.740  42.363   3.771
38513W        W 6843  32.476  16.738  13.801
38514W        W 6844  23.577  11.742  13.374
38515W        W 6845  43.980  22.589  13.311
38516W        W 6846  26.082  18.609  10.624
38517W        W 6847   8.725  41.494  11.386
38518W        W 6848  43.490  33.580  13.894
38519W        W 6849  11.647  15.793   0.427
38520W        W 6850  23.107  38.823   3.666
38521W        W 6851  26.102   5.401   0.423
38522W        W 6852  18.689  24.710  12.860
38523W        W 6853   4.341   4.259   2.899
38524W        W 6854  25.647  41.831   0.831
38525W        W 6855  27.516  19.570   0.452
38526W        W 6856   9.334  43.438   2.700
38527W        W 6857  44.967  22.148  10.970
38528W        W 6858  22.559   2.344  14.388
38529W        W 6859  27.992  29.969  11.979
38530W        W 6860  20.650   9.662  11.534
38531W        W 6861  18.634  10.873  13.526
38532W        W 6862  16.650  36.095   3.830
38533W        W 6863  21.025  43.926  11.939
38534W        W 6864  43.468  14.159  13.821
38535W        W 6865  26.679  10.236  12.908
38536W        W 6866  30.138  38.540  14.326
38537W        W 6867  24.716  16.243   0.765
38538W        W 6868  32.056  16.261  11.447
38539W        W 6869  29.648  17.137  14.435
38540W        W 6870  41.527   2.248  12.420
38541W        W 6871   9.175  30.921   0.478
38542W        W 6872  37.975  39.023  12.444
38543W        W 6873  26.519  39.030  12.342
38544W        W 6874  25.141  28.001   3.212
38545W        W 6875  19.730   9.885  10.070
38546W        W 6876  39.820  26.628  14.399
38547W        W 6877  18.230   3.321  12.024
38548W        W 6878  10.231  38.357  13.470
38549W        W 6879  42.520   9.371  14.781
38550W        W 6880  34.493  13.810  14.947
38551W        W 6881  36.387  42.857   2.344
38552W        W 6882  28.627   6.189  13.412
38553W        W 6883  15.578  38.559   2.278
38554W        W 6884  25.072  26.562   1.267
38555W        W 6885  39.032  28.491  10.588
38556W        W 6886  16.240  35.082   9.485
38557W        W 6887  36.418  28.448   3.802
38558W        W 6888  11.751  36.405  13.994
38559W        W 6889  36.490  24.609  14.934
38560W        W 6890  29.606  12.196  11.430
38561W        W 6891  39.315   5.731   1.259
38562W        W 6892   3.748  11.153   0.365
38563W        W 6893   1.346  19.692  14.303
38564W        W 6894  42.016   7.783  11.007
38565W        W 6895  12.670  10.201   0.345
38566W        W 6896  33.478  29.595  13.861
38567W        W 6897   3.323  36.867   5.201
38568W        W 6898  29.171  43.989  13.969
38569W        W 6899  14.330  35.581  12.895
38570W        W 6900   0.782  24.609  12.508
38571W        W 6901  37.843  19.159  12.967
38572W        W 6902   3.332  24.648  11.917
38573W        W 6903   0.367  40.998  11.073
38574W        W 6904  12.708   1.308  13.863
38575W        W 6905  44.003  38.024  13.336
38576W        W 6906   3.248  32.437  11.012
38577W        W 6907  27.680   8.877   4.729
38578W        W 6908  27.548   5.913   0.458
38579W        W 6909   0.368  25.193  14.363
38580W        W 6910   5.346  35.408   4.818
38581W        W 6911  18.594  15.215   1.215
38582W        W 6912  12.157  23.044  12.905
38583W        W 6913  44.502  44.365   2.263
38584W        W 6914  30.996  18.171   3.191
38585W        W 6915  40.887   6.915   1.373
38586W        W 6916  15.145  42.283   4.683
38587W        W 6917  28.441  13.177   2.302
38588W        W 6918  44.960  31.474  12.973
38589W        W 6919   6.876  12.258   0.449
38590W        W 6920   1.951  13.811   3.334
38591W        W 6921  19.777  26.610   4.813
38592W        W 6922   8.216  15.211   0.770
38593W        W 6923   1.345  20.731   0.776
38594W        W 6924  32.138  28.099  14.374
38595W        W 6925  38.445   9.800   2.797
38596W        W 6926   8.285  28.663  12.095
38597W        W 6927  25.216  33.993   2.393
38598W        W 6928  39.845  14.282   0.775
38599W        W 6929   5.696   3.722   2.315
38600W        W 6930   4.847  12.750   0.358
38601W        W 6931  43.840  44.859   0.263
38602W        W 6932  33.613  24.552   2.819
38603W        W 6933  40.857   0.370  11.875
38604W        W 6934   2.749  26.623   1.321
38605W        W 6935  14.143  25.472   4.642
38606W        W 6936   6.694  24.217   2.722
38607W        W 6937   7.354  44.924  14.301
38608W        W 6938  40.811  12.640   3.658
38609W        W 6939  15.797  27.534   3.240
38610W        W 6940  28.465  43.869   4.243
38611W        W 6941  14.631  19.045  11.010
38612W        W 6942  43.295  17.556  10.625
38613W        W 6943  14.206  12.839   0.451
38614W        W 6944  21.121  29.986   4.768
38615W        W 6945  40.049  12.710   1.449
38616W        W 6946  36.437  22.239  10.625
38617W        W 6947  26.124   7.357  12.561
38618W        W 6948   6.379  25.160   5.153
38619W        W 6949  19.680  20.683   3.653
38620W        W 6950   2.757  12.133   2.740
38621W        W 6951  25.650  35.442  12.340
38622W        W 6952  44.268  43.006  11.103
38623W        W 6953  10.335  26.963   4.660
38624W        W 6954  25.104  39.440   1.440
38625W        W 6955   5.241   0.843  12.362
38626W        W 6956   3.735  32.578   0.803
38627W        W 6957  24.537  33.069  13.334
38628W        W 6958  26.170  41.029   1.210
38629W        W 6959  28.649  28.101  12.435
38630W        W 6960   8.339   9.763   0.433
38631W        W 6961  12.342  23.998  14.481
38632W        W 6962   1.444  24.120   0.937
38633W        W 6963   3.418  42.346   3.638
38634W        W 6964  15.150   7.912   1.388
38635W        W 6965  14.270  13.177  12.830
38636W        W 6966  33.534  43.437  10.473
38637W        W 6967  17.579  17.744   2.411
38638W        W 6968  20.748  34.068   2.180
38639W        W 6969  18.240  11.202  11.405
38640W        W 6970  26.660  30.140   0.886
38641W        W 6971  19.602   5.817  10.641
38642W        W 6972  43.429  19.610  12.870
38643W        W 6973  20.226   9.286  13.478
38644W        W 6974  12.333  28.543   3.314
38645W        W 6975   1.380  18.200  13.390
38646W        W 6976  30.496  36.909  13.026
38647W        W 6977  44.375  23.500   2.798
38648W        W 6978   6.843   3.865  14.275
38649W        W 6979   8.747  13.323  10.938
38650W        W 6980  42.913  41.921   4.625
38651W        W 6981  14.269  39.860   3.247
38652W        W 6982   9.653   0.277   2.188
38653W        W 6983   5.279  28.465  10.643
38654W        W 6984  25.660  13.761   4.664
38655W        W 6985  15.095  42.425   1.868
38656W        W 6986  42.017  33.010  12.539
38657W        W 6987   4.813  37.986   0.795
38658W        W 6988   8.160   4.729  11.432
38659W        W 6989   7.411  25.029  10.445
38660W        W 6990  13.212  21.251  11.506
38661W        W 6991  42.903  34.592  14.366
38662W        W 6992  20.032  23.505  12.560
38663W        W 6993  16.281   6.766   3.729
38664W        W 6994  16.579  31.988  14.364
38665W        W 6995   0.753   2.946   4.251
38666W        W 6996  27.109  26.647   1.831
38667W        W 6997  40.320  20.134  14.006
38668W        W 6998  26.098   1.768  13.908
38669W        W 6999  10.245  24.704   4.160
38670W        W 7000  21.592  16.612   5.299
38671W        W 7001  23.607   4.739   1.219
38672W        W 7002  42.408   5.423   2.271
38673W        W 7003  15.768   7.373   1.218
38674W        W 7004   7.685   5.371   0.861
38675W        W 7005   5.783   0.470   2.306
38676W        W 7006  27.651  29.566  10.943
38677W        W 7007   9.366  33.607  11.031
38678W        W 7008  29.631  11.293  12.020
38679W        W 7009  18.271   4.389  13.038
38680W        W 7010  28.651  23.026  10.428
38681W        W 7011  21.146   9.181  11.057
38682W        W 7012   1.304  22.173  11.115
38683W        W 7013   2.294  39.051   0.400
38684W        W 7014  30.425  11.867   4.783
38685W        W 7015   5.282  28.935   2.810
38686W        W 7016  15.762  41.417   0.311
38687W        W 7017  27.521  17.675  13.388
38688W        W 7018  22.126  35.392  11.491
38689W        W 7019  42.870  10.356  11.580
38690W        W 7020  28.068  22.236  13.812
38691W        W 7021  31.409  18.663   4.215
38692W        W 7022  20.580  15.324   2.872
38693W        W 7023  42.436  20.539  13.045
38694W        W 7024  31.507  32.443  14.831
38695W        W 7025   1.437   2.735   2.840
38696W        W 7026  27.124  16.636   1.384
38697W        W 7027  32.539  29.565   2.777
38698W        W 7028  41.928  36.067  13.931
38699W        W 7029  10.672  15.608   4.298
38700W        W 7030  10.196  22.596   4.149
38701W        W 7031  35.366  20.644   0.289
38702W        W 7032  15.272  16.233   2.892
38703W        W 7033  22.046   0.436  11.096
38704W        W 7034  16.642  37.995   5.600
38705W        W 7035   5.800  32.552  11.603
38706W        W 7036  39.919  30.527   1.876
38707W        W 7037  31.605   3.821   3.672
38708W        W 7038   0.294  23.210  14.951
38709W        W 7039  17.681  35.362  14.289
38710W        W 7040  13.263  17.568  10.980
38711W        W 7041  22.122  41.791  13.402
38712W        W 7042  15.130  15.643   0.284
38713W        W 7043  35.070  35.099   0.903
38714W        W 7044  39.485   9.290  10.008
38715W        W 7045   9.770  38.329  10.509
38716W        W 7046  38.057  28.659  11.573
38717W        W 7047  42.425  39.045   3.867
38718W        W 7048  30.568  16.748   1.242
38719W        W 7049  11.186  25.654   1.853
38720W        W 7050   7.868  38.853   4.820
38721W        W 7051  12.152  28.460  11.486
38722W        W 7052  21.254   1.786   2.259
38723W        W 7053  17.174  26.631  11.048
38724W        W 7054  15.816   8.872  10.952
38725W        W 7055   4.279  39.504   2.767
38726W        W 7056  18.210  41.969   3.279
38727W        W 7057  18.064  18.287  13.964
38728W        W 7058  21.672  26.175  11.422
38729W        W 7059  43.376  12.767   3.688
38730W        W 7060   1.399   2.315   2.288
38731W        W 7061  33.954  34.586  13.393
38732W        W 7062   1.477  43.843   1.817
38733W        W 7063   4.281   3.221   1.405
38734W        W 7064   0.405  13.262  13.976
38735W        W 7065  37.041  19.277   1.836
38736W        W 7066  36.886  37.358   4.349
38737W        W 7067  21.252  38.931  11.406
38738W        W 7068  26.477  43.464  10.970
38739W        W 7069  41.347  43.497  13.996
38740W        W 7070  44.978  39.360  10.443
38741W        W 7071  32.428  10.682  11.871
38742W        W 7072   3.263  32.561  14.873
38743W        W 7073  14.292  40.848   3.849
38744W        W 7074   1.878  30.532   4.597
38745W        W 7075   2.912  25.114  10.422
38746W        W 7076  23.620  15.722   4.274
38747W        W 7077  11.371  27.652   0.739
38748W        W 7078  43.503  14.177  12.457
38749W        W 7079  26.657  43.337  14.765
38750W        W 7080  44.321  42.005  12.075
38751W        W 7081  12.819  26.006   0.901
38752W        W 7082  16.597  27.119  14.809
38753W        W 7083  34.405  29.937   0.738
38754W        W 7084   8.861  33.060   3.178
38755W        W 7085   3.829  16.314  11.047
38756W        W 7086   7.331  40.355  14.997
38757W        W 7087   5.403   5.331  12.023
38758W        W 7088  12.128  37.414   0.317
38759W        W 7089  32.987  27.058   3.630
38760W        W 7090  20.608  26.128   4.156
38761W        W 7091  19.598  42.364   1.336
38762W        W 7092  33.564  38.515  14.482
38763W        W 7093  28.152  27.460  13.457
38764W        W 7094  22.630  19.111  12.939
38765W        W 7095  38.029   1.878  10.436
38766W        W 7096  17.256  29.022   3.261
38767W        W 7097   1.458  21.645   0.372
38768W        W 7098  44.994  35.569  13.871
38769W        W 7099   4.774  27.975  10.012
38770W        W 7100  39.317  21.746  13.332
38771W        W 7101  30.473  19.759  13.477
38772W        W 7102  25.076  20.170   2.198
38773W        W 7103  25.005   1.742   3.700
38774W        W 7104  32.611  44.972   4.675
38775W        W 7105  14.768  40.539  14.845
38776W        W 7106  16.745  25.515  13.531
38777W        W 7107   1.790  14.141  13.335
38778W        W 7108  15.791  26.666  12.499
38779W        W 7109  30.542  25.014   1.890
38780W        W 7110  34.956  17.218  10.588
38781W        W 7111  19.612  41.304  11.047
38782W        W 7112  16.234  36.446  14.927
38783W        W 7113  26.053   2.465   1.332
38784W        W 7114  29.425  12.797  13.020
38785W        W 7115   6.357   0.283  11.521
38786W        W 7116  18.165  37.976   3.841
38787W        W 7117  27.003  44.469  14.354
38788W        W 7118  39.490  13.242  12.357
38789W        W 7119   6.897  17.095  13.805
38790W        W 7120  15.202   9.229   4.164
38791W        W 7121  20.617  18.702  12.459
38792W        W 7122  23.640  19.073   4.785
38793W        W 7123  29.120   5.768  11.587
38794W        W 7124  20.763  16.161  13.856
38795W        W 7125  27.941  34.989  12.858
38796W        W 7126  33.612   3.900   1.760
38797W        W 7127   2.403  28.154   5.162
38798W        W 7128  29.555  41.901   0.849
38799W        W 7129  37.428  34.998   2.664
38800W        W 7130  11.700  15.750  11.569
38801W        W 7131  43.359   4.425  10.630
38802W        W 7132  11.347  26.974   1.296
38803W        W 7133  38.335  34.608   3.380
38804W        W 7134  11.759   8.767  14.418
38805W        W 7135  27.116  36.012  10.424
38806W        W 7136  38.512  14.718   2.862
38807W        W 7137  12.157  10.711   1.914
38808W        W 7138  27.490   1.966   3.869
38809W        W 7139   4.733  12.334   1.362
38810W        W 7140  35.585  35.524  13.432
38811W        W 7141  40.014  16.600   1.233
38812W        W 7142  12.337  19.695  10.602
38813W        W 7143  27.679   0.940   3.156
38814W        W 7144  25.658  10.308   5.601
38815W        W 7145   2.735   1.293   3.775
38816W        W 7146  14.182  12.796   4.236
38817W        W 7147  35.479  31.416  10.549
38818W        W 7148  20.680  19.179   9.550
38819W        W 7149   6.802   5.396   1.796
38820W        W 7150  23.667  18.681   2.738
38821W        W 7151   1.456  15.159   4.647
38822W        W 7152   6.686  35.084   3.269
38823W        W 7153  22.233  13.833  14.021
38824W        W 7154  17.607  12.700   2.801
38825W        W 7155  21.556  42.984   2.813
38826W        W 7156   1.859  42.918   3.807
38827W        W 7157  31.974  25.962  10.935
38828W        W 7158  36.962   0.889  14.884
38829W        W 7159  29.570  17.192  10.436
38830W        W 7160  25.614  36.060   5.212
38831W        W 7161  12.237  22.173  13.402
38832W        W 7162  11.668  34.119  14.499
38833W        W 7163  41.933  41.407  10.502
38834W        W 7164  29.668  27.954  11.934
38835W        W 7165  23.999  10.751  11.037
38836W        W 7166  18.763  26.034   2.250
38837W        W 7167  24.699  42.438  11.487
38838W        W 7168   4.772  23.543   1.315
38839W        W 7169  31.114  30.518   3.851
38840W        W 7170  44.009  35.992  10.643
38841W        W 7171  23.690  35.430   3.708
38842W        W 7172  43.906  34.985  11.032
38843W        W 7173   9.150   4.403  11.437
38844W        W 7174  34.949  18.167  14.898
38845W        W 7175  12.778  19.546  13.409
38846W        W 7176   4.236   7.294   2.236
38847W        W 7177   3.450  26.003   4.161
38848W        W 7178  27.949   6.895  13.464
38849W        W 7179  17.269  27.968   0.954
38850W        W 7180  33.021  30.531   4.785
38851W        W 7181   9.220   7.763   4.235
38852W        W 7182  43.347  15.204  14.001
38853W        W 7183  22.674  43.282   2.377
38854W        W 7184  37.015  13.127  11.030
38855W        W 7185  35.587   9.652   2.342
38856W        W 7186  36.910  41.460   4.353
38857W        W 7187   4.352  20.155   4.832
38858W        W 7188  31.063   7.789  10.531
38859W        W 7189  36.414   4.411   3.275
38860W        W 7190  19.163  38.897   4.824
38861W        W 7191  32.417  18.184   4.315
38862W        W 7192  43.969  28.588   0.284
38863W        W 7193  19.087   3.292   2.856
38864W        W 7194  29.509  21.162   5.603
38865W        W 7195  39.475   5.829  10.483
38866W        W 7196  17.690   1.782   1.343
38867W        W 7197  34.990   4.815  11.957
38868W        W 7198   0.849  14.211   4.114
38869W        W 7199  39.859  36.949  12.554
38870W        W 7200  35.395  11.265  13.042
38871W        W 7201  12.340  41.030  12.829
38872W        W 7202  31.644  37.381  14.887
38873W        W 7203   2.393   0.975  10.408
38874W        W 7204  30.499  23.207   4.794
38875W        W 7205  22.085  39.361   2.307
38876W        W 7206  16.133  12.620  11.606
38877W        W 7207  17.753  29.504  10.915
38878W        W 7208  39.951  44.910  14.305
38879W        W 7209  41.009  32.520  14.478
38880W        W 7210  28.626  40.472   2.800
38881W        W 7211  34.872  21.038   5.169
38882W        W 7212  12.796  19.652   4.645
38883W        W 7213  32.114  43.978   0.882
38884W        W 7214  18.275   2.827  13.894
38885W        W 7215   3.447  43.494   4.190
38886W        W 7216   0.330  29.984   4.741
38887W        W 7217  18.606  21.165  10.099
38888W        W 7218  26.177  37.996   1.264
38889W        W 7219  13.672  21.589   3.870
38890W        W 7220   6.751   4.747   2.857
38891W        W 7221  11.714  43.812  13.367
38892W        W 7222  30.002  29.510   4.782
38893W        W 7223  22.550  24.122   1.923
38894W        W 7224  19.155  29.988   2.263
38895W        W 7225  19.732  24.543   4.280
38896W        W 7226  17.068   8.306  14.294
38897W        W 7227  32.613  36.582  13.807
38898W        W 7228  27.027  11.340  13.428
38899W        W 7229  33.073  34.034  12.430
38900W        W 7230  39.361  25.604   3.255
38901W        W 7231  22.650  34.031  12.888
38902W        W 7232  28.452  37.358  13.827
38903W        W 7233  10.190  41.882   2.203
38904W        W 7234  32.058   4.432  10.595
38905W        W 7235  42.296   0.820   2.883
38906W        W 7236  34.071  15.696  13.349
38907W        W 7237  20.622  41.353   0.881
38908W        W 7238  11.682   9.216   0.926
38909W        W 7239  43.372  10.834  13.972
38910W        W 7240  25.981   8.352  13.889
38911W        W 7241  15.104  11.346  11.498
38912W        W 7242  15.815  12.716   3.743
38913W        W 7243  35.513   8.701  11.423
38914W        W 7244   7.693  14.218   3.729
38915W        W 7245  32.483  26.518  12.829
38916W        W 7246   4.816  22.598   0.407
38917W        W 7247   3.951  16.221   2.233
38918W        W 7248   8.706  29.477  10.527
38919W        W 7249  10.140  32.535  11.444
38920W        W 7250  29.547  25.678  10.982
38921W        W 7251  10.716  23.215   4.728
38922W        W 7252  19.748  44.986  14.415
38923W        W 7253   2.925  36.064   2.755
38924W        W 7254  19.060  18.188   4.742
38925W        W 7255  33.401   4.364   4.150
38926W        W 7256  13.312  28.091  11.974
38927W        W 7257  23.606  24.668   3.334
38928W        W 7258  37.410  25.592   1.856
38929W        W 7259  27.171  25.166  10.966
38930W        W 7260  43.918  36.002   3.844
38931W        W 7261  21.080  28.090   0.429
38932W        W 7262  42.005  26.495  12.043
38933W        W 7263  39.907  31.064   3.191
38934W        W 7264  13.299  16.694   0.301
38935W        W 7265  44.914  15.796  13.329
38936W        W 7266  22.727  32.975  10.436
38937W        W 7267  20.560  40.345  11.417
38938W        W 7268  10.233  12.682  12.477
38939W        W 7269  21.533  20.562  12.860
38940W        W 7270  43.272  34.548   4.250
38941W        W 7271  16.697  13.174  12.951
38942W        W 7272  39.948  26.084  10.484
38943W        W 7273  25.671   1.952  13.050
38944W        W 7274  34.928  37.344  11.873
38945W        W 7275  13.667  41.524   1.279
38946W        W 7276  19.203   9.254  10.483
38947W        W 7277  41.325   1.393  10.932
38948W        W 7278   5.193  19.664  12.345
38949W        W 7279   8.708  17.302  14.027
38950W        W 7280  18.147   3.918  14.493
38951W        W 7281  17.655  30.098   4.218
38952W        W 7282  22.121   7.191   9.967
38953W        W 7283  25.618  21.709   3.783
38954W        W 7284  35.882  21.630   1.377
38955W        W 7285   5.301  10.278  11.946
38956W        W 7286  39.445   3.367   2.337
38957W        W 7287   8.353  38.354   1.438
38958W        W 7288   8.190   2.279  13.052
38959W        W 7289  25.107  32.915  13.459
38960W        W 7290  32.526  14.176   3.809
38961W        W 7291   0.832  30.068  10.450
38962W        W 7292  30.123   6.299   4.758
38963W        W 7293  38.395  18.196   1.822
38964W        W 7294  43.783  13.285   0.431
38965W        W 7295   1.254  13.305  13.316
38966W        W 7296  23.125  37.502   2.833
38967W        W 7297  23.512  34.014  11.518
38968W        W 7298   1.255   2.468  14.318
38969W        W 7299  19.725  11.178  11.441
38970W        W 7300  24.048   2.744   1.294
38971W        W 7301   0.450   2.943  11.607
38972W        W 7302  30.493   0.984  14.008
38973W        W 7303  44.399   1.731  12.386
38974W        W 7304  29.466   0.770  12.342
38975W        W 7305  35.486  35.402   0.413
38976W        W 7306  25.711  39.030   3.804
38977W        W 7307  41.793  37.855  12.516
38978W        W 7308  25.988  29.600  14.414
38979W        W 7309  19.723   2.882   1.701
38980W        W 7310  32.424  17.630   4.258
38981W        W 7311  37.075  26.630  13.883
38982W        W 7312  41.922  13.820   3.253
38983W        W 7313  32.130  22.529   2.329
38984W        W 7314  27.618  27.649   0.249
38985W        W 7315  42.303  41.297   2.388
38986W        W 7316  18.619  20.065   2.826
38987W        W 7317   2.389  20.118   0.425
38988W        W 7318  44.976   7.849   0.258
38989W        W 7319   7.742  42.941  13.429
38990W        W 7320  34.885  22.551  13.543
38991W        W 7321   3.922  26.631  12.574
38992W        W 7322   6.340  23.129  12.943
38993W        W 7323  42.326  35.093  14.842
38994W        W 7324   4.437   3.305   2.799
38995W        W 7325  24.033  15.651  13.004
38996W        W 7326  25.997  30.118  14.865
38997W        W 7327  30.925  33.619   1.895
38998W        W 7328  10.321  35.548   0.941
38999W        W 7329  26.186  19.606  12.969
39000W        W 7330  31.543  19.235  14.484
39001W        W 7331  10.296  31.014   1.403
39002W        W 7332   5.194  14.328  13.473
39003W        W 7333  21.056  33.087  14.428
39004W        W 7334  18.708  29.484   3.831
39005W        W 7335  11.818  18.195   0.417
39006W        W 7336   7.794  15.122   2.900
39007W        W 7337  12.287  39.485  13.795
39008W        W 7338  22.126  16.156  10.645
39009W        W 7339  27.141   7.831   3.784
39010W        W 7340  11.236   5.810  13.357
39011W        W 7341  43.810  36.960   1.740
39012W        W 7342  23.641  31.512   0.835
39013W        W 7343  43.511  43.472   3.654
39014W        W 7344  24.009   8.240   3.351
39015W        W 7345  19.607  30.608  14.952
39016W        W 7346  40.407  40.877   3.307
39017W        W 7347  30.976  20.724   0.942
39018W        W 7348  21.245  32.043  13.328
39019W        W 7349  41.002  37.080   1.269
39020W        W 7350  30.435   2.954   4.234
39021W        W 7351  41.032  21.230   3.192
39022W        W 7352   0.844  33.424  12.934
39023W        W 7353  27.062   3.273  11.899
39024W        W 7354  23.123  17.198   2.777
39025W        W 7355  22.568  34.461  11.122
39026W        W 7356  14.709   6.195   0.455
39027W        W 7357  18.770  43.799  11.999
39028W        W 7358   4.410  27.067   0.901
39029W        W 7359  32.942   3.353  13.032
39030W        W 7360  24.188  19.694  12.087
39031W        W 7361  33.543   7.791   3.809
39032W        W 7362  12.236  35.867   1.341
39033W        W 7363  36.588  35.858   3.700
39034W        W 7364   9.688  23.997  12.400
39035W        W 7365  41.425  26.639   4.303
39036W        W 7366  18.703  17.715   0.844
39037W        W 7367  11.131  25.650  12.404
39038W        W 7368  44.903  21.131   0.246
39039W        W 7369  39.334  31.028   3.289
39040W        W 7370   6.340  43.397   0.779
39041W        W 7371  21.610  44.391  13.379
39042W        W 7372  43.793   0.353  13.870
39043W        W 7373   2.359   4.287   0.916
39044W        W 7374  36.900  26.525   3.670
39045W        W 7375  40.423  12.119  14.787
39046W        W 7376  29.919  30.523   2.313
39047W        W 7377  33.021  14.768  12.390
39048W        W 7378  19.280   7.898  10.951
39049W        W 7379  27.960  36.566   2.284
39050W        W 7380  32.992  20.131   1.852
39051W        W 7381  43.993  11.358  12.995
39052W        W 7382  41.866  27.170  10.591
39053W        W 7383  17.299  14.626  10.982
39054W        W 7384  44.872  11.866  14.927
39055W        W 7385  17.694  18.585   3.665
39056W        W 7386  16.730   5.909   2.295
39057W        W 7387  31.109  42.953   9.929
39058W        W 7388  44.935  18.062  14.392
39059W        W 7389  41.830  21.213   0.289
39060W        W 7390  43.855  19.640  13.855
39061W        W 7391  24.005  19.627  13.810
39062W        W 7392  19.576  40.055  14.388
39063W        W 7393   7.178  23.680   0.354
39064W        W 7394   5.272   8.809  11.894
39065W        W 7395  14.138  40.876  12.548
39066W        W 7396   1.302  34.102   3.723
39067W        W 7397  24.158  33.933  12.560
39068W        W 7398  29.131  35.085   3.295
39069W        W 7399  26.163   8.228  14.900
39070W        W 7400   8.356  39.328   1.388
39071W        W 7401  22.567   4.395   0.327
39072W        W 7402   3.386  13.255   0.806
39073W        W 7403   9.366   1.296  12.858
39074W        W 7404  23.155   2.373  14.845
39075W        W 7405   4.771  25.655  10.109
39076W        W 7406   9.709  23.100   0.886
39077W        W 7407  35.054  23.685   4.115
39078W        W 7408  36.430  12.351  14.799
39079W        W 7409  24.498   8.672   0.960
39080W        W 7410  30.451  16.599  13.889
39081W        W 7411  33.021  33.040   4.307
39082W        W 7412   6.350  33.401  10.069
39083W        W 7413  34.886  31.548   2.251
39084W        W 7414  23.180   5.299  14.431
39085W        W 7415  18.264  31.409   0.355
39086W        W 7416   2.421  37.443  11.918
39087W        W 7417  29.032   9.705   2.744
39088W        W 7418  24.556  10.641   0.755
39089W        W 7419   4.306  17.091   0.264
39090W        W 7420  14.201   5.860   3.189
39091W        W 7421   0.965   0.751  13.870
39092W        W 7422  24.550   4.385   2.184
39093W        W 7423  29.989  19.616  10.423
39094W        W 7424  25.121   0.425  14.359
39095W        W 7425  37.393  40.360  10.427
39096W        W 7426   2.403  35.870   0.431
39097W        W 7427  17.593  40.032  13.911
39098W        W 7428   2.246  37.079  13.438
39099W        W 7429  43.313  40.338  14.949
39100W        W 7430  34.371  13.639   3.266
39101W        W 7431  28.512  30.142   0.775
39102W        W 7432   3.815  35.481   4.717
39103W        W 7433   3.831  27.158   2.390
39104W        W 7434   0.767  10.788  11.964
39105W        W 7435  19.178   0.957   0.790
39106W        W 7436  41.434   4.864  12.037
39107W        W 7437   2.731  33.432   3.662
39108W        W 7438   9.389  30.923  12.907
39109W        W 7439  11.836   0.400  10.608
39110W        W 7440   3.303  27.462  14.009
39111W        W 7441  37.053  22.148   1.895
39112W        W 7442  10.771  18.267   2.219
39113W        W 7443  18.145  26.032   2.774
39114W        W 7444  41.017  21.657   4.637
39115W        W 7445   8.350  31.418   1.285
39116W        W 7446  37.511  11.293   1.827
39117W        W 7447   0.943  12.759  14.331
39118W        W 7448  44.907  38.413   2.218
39119W        W 7449   6.895  19.137  11.599
39120W        W 7450  22.105  38.867   1.423
39121W        W 7451  20.710   9.874   2.903
39122W        W 7452  14.155  37.546   4.173
39123W        W 7453  22.612   9.175  10.555
39124W        W 7454  32.461   4.727  10.925
39125W        W 7455   7.180   4.381   2.688
39126W        W 7456  28.502   1.965  14.320
39127W        W 7457  11.264  12.338  11.982
39128W        W 7458  25.202  40.400   3.795
39129W        W 7459   3.222   5.861  11.074
39130W        W 7460  41.317   4.359  12.468
39131W        W 7461  39.017  26.029  14.775
39132W        W 7462  25.017  29.981   2.289
39133W        W 7463  28.604  25.159  10.528
39134W        W 7464   6.744   8.177  14.440
39135W        W 7465  29.555  26.181   3.783
39136W        W 7466  24.647  25.637  10.907
39137W        W 7467  35.010  22.523  10.419
39138W        W 7468  23.706  30.161   2.788
39139W        W 7469  35.430  41.936  10.930
39140W        W 7470  23.023  41.415   4.786
39141W        W 7471  18.780  17.278   2.278
39142W        W 7472  16.611  11.256  10.431
39143W        W 7473   5.819  32.535  14.891
39144W        W 7474  32.469  22.535   5.132
39145W        W 7475  24.614  30.989   1.839
39146W        W 7476  38.489  41.420   1.921
39147W        W 7477  13.147  20.103   3.662
39148W        W 7478  24.180   9.736  12.977
39149W        W 7479  43.974   8.341  14.949
39150W        W 7480  41.976   9.355  11.438
39151W        W 7481  39.356  11.802   2.349
39152W        W 7482  11.656  26.033  10.442
39153W        W 7483  26.632  19.661  13.990
39154W        W 7484  33.943  42.510  13.014
39155W        W 7485  21.089  20.632   0.738
39156W        W 7486  16.100  14.710   1.799
39157W        W 7487   4.718  23.564  11.604
39158W        W 7488  26.534  42.796   2.372
39159W        W 7489   9.274   9.726   0.245
39160W        W 7490  39.977  20.647   0.332
39161W        W 7491  26.570   6.744   4.795
39162W        W 7492  33.573  22.650   0.289
39163W        W 7493   6.327  26.095  13.526
39164W        W 7494  22.171  39.808   3.809
39165W        W 7495  31.126  17.196   3.152
39166W        W 7496  40.848   0.461  11.113
39167W        W 7497   0.314   4.800   0.751
39168W        W 7498  27.024  13.319  13.989
39169W        W 7499  21.234  15.260   4.260
39170W        W 7500  33.950  34.386   2.697
39171W        W 7501  10.875  23.240  13.967
39172W        W 7502  15.083  40.821  14.871
39173W        W 7503  31.033  27.943  10.155
39174W        W 7504  32.027   4.704   0.309
39175W        W 7505  15.808  24.046   5.198
39176W        W 7506  33.967  15.276   3.675
39177W        W 7507  24.506  17.140  13.063
39178W        W 7508   3.789  13.831   3.333
39179W        W 7509   3.253  13.185  12.465
39180W        W 7510   0.750  13.732  11.008
39181W        W 7511   5.891  24.148  13.059
39182W        W 7512  32.061  42.032   0.319
39183W        W 7513  41.304  17.306   3.718
39184W        W 7514   4.893  38.520   5.248
39185W        W 7515  10.771  22.724  10.444
39186W        W 7516  39.000  10.146  13.828
39187W        W 7517  26.680  11.628   2.828
39188W        W 7518   9.185  36.367  13.860
39189W        W 7519  12.253  39.892  11.108
39190W        W 7520   2.293  12.116   3.168
39191W        W 7521   8.770  30.910   3.248
39192W        W 7522  27.571  21.148  10.956
39193W        W 7523  10.207  21.619  11.558
39194W        W 7524  16.302  35.589  12.405
39195W        W 7525  16.254  35.456   2.180
39196W        W 7526  26.077  43.287  13.828
39197W        W 7527   5.417  26.698  13.827
39198W        W 7528   0.829  43.413  11.584
39199W        W 7529   7.912  36.972  12.429
39200W        W 7530  21.625  15.163  10.421
39201W        W 7531  16.199  38.862  12.961
39202W        W 7532  24.485  27.067  12.402
39203W        W 7533  20.098  12.715  13.400
39204W        W 7534  17.659  29.131   3.307
39205W        W 7535  21.655   4.443  12.541
39206W        W 7536  38.457  42.944   2.783
39207W        W 7537  30.080  40.470  13.021
39208W        W 7538  23.490  25.562   2.896
39209W        W 7539  42.348   0.858  12.925
39210W        W 7540  38.974  11.133   4.695
39211W        W 7541   9.838  24.606   3.697
39212W        W 7542  32.958   2.339  14.787
39213W        W 7543   3.409  17.268  12.054
39214W        W 7544  44.433   0.361  11.016
39215W        W 7545  10.376  29.128  12.939
39216W        W 7546  32.935  14.611   4.695
39217W        W 7547  13.714  37.559  11.968
39218W        W 7548   7.742  14.217   0.363
39219W        W 7549  11.764  37.038  13.449
39220W        W 7550   7.787  34.941  13.038
39221W        W 7551  12.251  43.313  11.890
39222W        W 7552  37.861  19.548  11.460
39223W        W 7553   9.812  17.206  10.556
39224W        W 7554   8.806  39.512  12.008
39225W        W 7555  25.009  14.301   4.778
39226W        W 7556   1.779  35.402   3.739
39227W        W 7557  44.949  27.997   0.930
39228W        W 7558  31.414   4.706   4.740
39229W        W 7559  41.838  27.098   4.272
39230W        W 7560   4.416  15.103   3.703
39231W        W 7561  33.906  33.417  14.913
39232W        W 7562  30.035  12.846  10.997
39233W        W 7563  27.458  38.018  13.509
39234W        W 7564  36.390  26.024   3.337
39235W        W 7565   3.456   0.793  10.620
39236W        W 7566  22.742  31.902   3.836
39237W        W 7567  21.624  40.857   1.337
39238W        W 7568  19.247   9.877  13.022
39239W        W 7569  14.609  14.236  13.890
39240W        W 7570  32.949   8.404  10.999
39241W        W 7571  31.634   0.783  13.934
39242W        W 7572  19.729  16.119  14.810
39243W        W 7573  17.790  13.680  12.078
39244W        W 7574   9.736  10.722  11.953
39245W        W 7575  29.654  23.080  14.431
39246W        W 7576  13.721  24.532  14.437
39247W        W 7577  37.511  41.835   4.598
39248W        W 7578  35.549  35.586   1.317
39249W        W 7579   4.222  29.091   4.653
39250W        W 7580  25.506  20.593  11.561
39251W        W 7581  37.524  41.300   0.740
39252W        W 7582  25.547  33.936  14.277
39253W        W 7583  21.707  31.911  14.014
39254W        W 7584  24.544  10.210  12.919
39255W        W 7585   2.924   0.894   1.734
39256W        W 7586  37.946  44.765   2.675
39257W        W 7587  42.303   5.749  13.478
39258W        W 7588  41.018  16.169   2.793
39259W        W 7589  33.912   0.421   1.268
39260W        W 7590  38.076  12.130  12.409
39261W        W 7591  12.792  22.161  14.784
39262W        W 7592  43.402  36.923  14.288
39263W        W 7593  28.580  21.237  10.595
39264W        W 7594  30.940  16.655  13.333
39265W        W 7595  37.486  26.674  11.953
39266W        W 7596  15.781  41.909  12.420
39267W        W 7597   9.330  13.600  13.463
39268W        W 7598  33.470  41.475   1.800
39269W        W 7599   7.752  21.185  10.551
39270W        W 7600   2.924  42.896   1.442
39271W        W 7601  21.078  40.874  12.091
39272W        W 7602   5.863  40.437   0.450
39273W        W 7603  13.140   9.802   2.414
39274W        W 7604  44.800   8.299   2.242
39275W        W 7605  33.952  37.899  11.428
39276W        W 7606  34.429  32.562   4.237
39277W        W 7607  41.480   3.425  11.950
39278W        W 7608  32.530  30.032  14.397
39279W        W 7609  32.061  14.684   0.281
39280W        W 7610   9.714   7.748   3.800
39281W        W 7611  33.938  28.553  11.962
39282W        W 7612  39.411   7.890   1.890
39283W        W 7613  43.986   1.820   4.726
39284W        W 7614   2.802  27.569   1.263
39285W        W 7615  40.013  42.020  12.457
39286W        W 7616  33.428  38.926  10.463
39287W        W 7617  12.778  29.957  11.926
39288W        W 7618  22.162   1.742  12.525
39289W        W 7619  10.260  43.454  14.411
39290W        W 7620  19.253  17.678  12.411
39291W        W 7621  29.555  40.510  14.912
39292W        W 7622  29.532  25.682   4.668
39293W        W 7623  22.638  44.826   4.767
39294W        W 7624  15.282  23.571   3.659
39295W        W 7625  37.391   9.849   2.663
39296W        W 7626  23.103  34.596  12.996
39297W        W 7627  19.220   8.699  13.963
39298W        W 7628   2.822  44.484   3.274
39299W        W 7629  26.542   1.849   1.822
39300W        W 7630  10.718  27.109  13.803
39301W        W 7631  12.353  12.321   1.824
39302W        W 7632  18.156   4.426   0.965
39303W        W 7633   7.249  14.828  13.513
39304W        W 7634   5.217  35.468   1.347
39305W        W 7635  31.470  36.540   2.754
39306W        W 7636  28.069   0.953   5.253
39307W        W 7637  42.938  16.088   3.335
39308W        W 7638   8.675   9.198  12.405
39309W        W 7639  21.257  41.787  13.389
39310W        W 7640   8.858  18.719   0.413
39311W        W 7641  33.610   8.899  11.112
39312W        W 7642   4.935  26.627   0.752
39313W        W 7643  42.914  41.442   1.751
39314W        W 7644   7.873  10.186  13.468
39315W        W 7645   0.841  39.418  13.448
39316W        W 7646  13.827  41.398   1.735
39317W        W 7647  26.566  40.977  14.398
39318W        W 7648  22.588  13.726  11.881
39319W        W 7649  25.621   3.820  13.457
39320W        W 7650  27.000  18.718  14.412
39321W        W 7651  15.683  20.541  14.939
39322W        W 7652   4.292  11.279   2.894
39323W        W 7653  19.733  21.704  13.005
39324W        W 7654  17.791  25.658   3.231
39325W        W 7655  10.725   1.757   3.666
39326W        W 7656   9.755  30.656   4.279
39327W        W 7657  15.634  20.638   0.328
39328W        W 7658   8.385  38.362  14.022
39329W        W 7659  34.438  37.077  13.944
39330W        W 7660   9.647   9.297   3.294
39331W        W 7661   6.389  43.832  12.969
39332W        W 7662  23.228  11.687   4.198
39333W        W 7663   5.365  28.160   3.235
39334W        W 7664  34.545  41.914  12.473
39335W        W 7665  15.084   0.958   3.176
39336W        W 7666  44.887   1.299   0.384
39337W        W 7667  15.624   2.760  12.886
39338W        W 7668  10.154  24.106   3.373
39339W        W 7669   7.711   1.954   4.740
39340W        W 7670   2.840  13.328   3.644
39341W        W 7671  25.062   0.877  14.464
39342W        W 7672  10.301  29.970  10.987
39343W        W 7673  32.129  22.604  14.799
39344W        W 7674  23.092  39.957  10.503
39345W        W 7675  14.290  40.386   4.821
39346W        W 7676  14.756  30.110   1.900
39347W        W 7677  17.601  19.161   2.752
39348W        W 7678  38.032   8.259  11.862
39349W        W 7679  43.936  22.582   3.348
39350W        W 7680   5.847   1.963  14.297
39351W        W 7681  37.395  15.680   4.220
39352W        W 7682  23.038  16.305  12.574
39353W        W 7683  23.150  10.201   3.321
39354W        W 7684  10.714  19.616   2.830
39355W        W 7685   7.327   0.390  13.861
39356W        W 7686  29.513  23.212  10.576
39357W        W 7687  40.861  38.072   3.152
39358W        W 7688  10.676   7.900   3.854
39359W        W 7689  27.667   3.733  13.841
39360W        W 7690  22.597  26.168  14.931
39361W        W 7691   5.436  31.980   0.264
39362W        W 7692  26.515  17.682  13.965
39363W        W 7693  39.891  27.586  12.884
39364W        W 7694   1.865  25.068  10.514
39365W        W 7695   2.253  28.663  13.482
39366W        W 7696  30.061  29.434  14.875
39367W        W 7697   6.890  43.938   1.890
39368W        W 7698  44.280  28.077   0.899
39369W        W 7699  13.221  43.956  13.510
39370W        W 7700  29.018  39.965   0.915
39371W        W 7701  26.188  30.448   4.780
39372W        W 7702  18.598  27.608   3.197
39373W        W 7703   7.675  38.028  14.465
39374W        W 7704  17.072  14.783   0.748
39375W        W 7705   4.794   8.680   1.436
39376W        W 7706  18.761   7.388  10.979
39377W        W 7707   6.285  16.124   1.926
39378W        W 7708  18.763   5.342  14.319
39379W        W 7709  42.784  33.943  12.353
39380W        W 7710  20.254  17.697   4.647
39381W        W 7711  10.792   7.401  12.859
39382W        W 7712  13.665   2.821  13.013
39383W        W 7713  36.860  13.704   0.430
39384W        W 7714   6.378  23.698   3.674
39385W        W 7715   0.966  26.076   1.407
39386W        W 7716   7.707  20.134  10.565
39387W        W 7717  39.474  20.739   2.279
39388W        W 7718  32.106  21.044   0.248
39389W        W 7719  34.513  43.428   1.709
39390W        W 7720  34.538  42.513   0.473
39391W        W 7721   4.768   4.319   3.254
39392W        W 7722  13.295  11.147  14.382
39393W        W 7723  11.719  22.610   2.379
39394W        W 7724  25.973  33.017  14.354
39395W        W 7725  14.779   6.308   4.301
39396W        W 7726   4.794  30.157  13.460
39397W        W 7727  40.517  17.643  11.951
39398W        W 7728   9.275  37.981  12.971
39399W        W 7729   1.433  30.503  11.533
39400W        W 7730  37.456   7.695   2.848
39401W        W 7731  13.161  34.895  13.002
39402W        W 7732  25.695   8.697   0.962
39403W        W 7733  33.625  18.147   4.784
39404W        W 7734  34.460   9.658  13.354
39405W        W 7735  23.556  12.767  11.017
39406W        W 7736   9.235  38.415  11.871
39407W        W 7737  21.567  11.337   1.405
39408W        W 7738  33.507  43.349  11.505
39409W        W 7739  39.353   1.869  12.882
39410W        W 7740  24.677   0.336   2.299
39411W        W 7741  23.150  23.194   4.755
39412W        W 7742   8.201  43.353  11.571
39413W        W 7743   7.847  36.482  14.006
39414W        W 7744  20.033  37.836   4.220
39415W        W 7745   3.745  21.660  11.560
39416W        W 7746  27.504  26.637   2.385
39417W        W 7747  26.142  21.617  12.028
39418W        W 7748  36.521  19.050   0.264
39419W        W 7749  29.160   8.401   4.161
39420W        W 7750  34.419  11.628  14.281
39421W        W 7751   6.269  20.049   0.344
39422W        W 7752   6.850  21.078   2.675
39423W        W 7753  21.076   8.288  13.976
39424W        W 7754  33.945  19.243  14.453
39425W        W 7755  42.016  24.481  14.445
39426W        W 7756  35.966  35.402   1.235
39427W        W 7757  32.558  36.359   1.925
39428W        W 7758  10.809   3.795   3.712
39429W        W 7759   1.420   6.247  13.481
39430W        W 7760  43.952   2.762   3.661
39431W        W 7761  33.493  26.154  13.453
39432W        W 7762  32.551  29.031   2.752
39433W        W 7763   6.355  10.674   0.941
39434W        W 7764   5.806  16.576   4.695
39435W        W 7765  22.086  34.608   3.832
39436W        W 7766  31.906   7.773  11.051
39437W        W 7767  27.081  34.545  11.492
39438W        W 7768   9.738   0.886  14.391
39439W        W 7769  32.534  33.959  11.126
39440W        W 7770   0.759  30.537  11.071
39441W        W 7771  38.948  15.814  14.384
39442W        W 7772  20.198  19.615   0.382
39443W        W 7773  22.647   9.781  12.050
39444W        W 7774   6.285   4.371  13.438
39445W        W 7775   1.245  41.820  13.912
39446W        W 7776  17.307  13.155   2.835
39447W        W 7777   2.965  29.633  12.391
39448W        W 7778  36.581  15.633  13.002
39449W        W 7779   2.834   2.774  14.962
39450W        W 7780  30.916  14.225   3.253
39451W        W 7781  39.452  43.836   4.209
39452W        W 7782  27.638  30.038  12.885
39453W        W 7783  29.423   2.378  13.999
39454W        W 7784  14.826  32.419  10.635
39455W        W 7785   1.846  33.441   0.274
39456W        W 7786  25.513  41.369  10.443
39457W        W 7787  12.164  18.569   1.825
39458W        W 7788   5.828  27.060  10.934
39459W        W 7789  27.159  14.228  12.962
39460W        W 7790  42.003  30.146  10.904
39461W        W 7791  21.525  30.014   3.145
39462W        W 7792   1.736  25.180   3.317
39463W        W 7793  44.914  34.042   2.670
39464W        W 7794  31.978   1.379   1.273
39465W        W 7795  23.005  26.982  12.982
39466W        W 7796   5.333  27.650   3.377
39467W        W 7797   1.345  28.506  11.539
39468W        W 7798  21.673   2.891  11.538
39469W        W 7799  14.262  13.123  11.426
39470W        W 7800  34.537  15.594   4.186
39471W        W 7801  22.663  24.516   5.209
39472W        W 7802  10.688  23.013   2.310
39473W        W 7803  31.535   7.759  11.434
39474W        W 7804  39.814  27.140   3.164
39475W        W 7805  17.279   6.296   0.851
39476W        W 7806  44.271  28.983  14.919
39477W        W 7807  34.587  44.379  12.848
39478W        W 7808   4.921  43.777  13.435
39479W        W 7809  41.918  28.172  11.019
39480W        W 7810  23.631  23.694  12.928
39481W        W 7811  19.662  23.720  14.349
39482W        W 7812  17.062   3.318  12.557
39483W        W 7813  18.200   4.706  11.013
39484W        W 7814  18.090  34.040  13.013
39485W        W 7815   6.913  34.891   1.362
39486W        W 7816  19.068  24.062  12.849
39487W        W 7817   4.887  17.650  11.557
39488W        W 7818  41.351  24.036   0.821
39489W        W 7819  28.052   5.252  10.903
39490W        W 7820  42.958   8.170   0.953
39491W        W 7821  23.583  44.838  13.924
39492W        W 7822   0.745   2.257   0.415
39493W        W 7823  44.404  26.168  13.323
39494W        W 7824  15.737  40.467   0.924
39495W        W 7825  20.215   4.376  10.598
39496W        W 7826  23.586  19.734   0.465
39497W        W 7827  39.510  39.527   0.334
39498W        W 7828  33.087  41.422  13.927
39499W        W 7829   7.808  40.951  14.439
39500W        W 7830  23.172  38.451   2.307
39501W        W 7831  30.064   8.318   3.860
39502W        W 7832   0.380   4.220   2.768
39503W        W 7833  39.398  14.755  10.980
39504W        W 7834  42.509  22.141   4.160
39505W        W 7835  44.372  18.084   4.222
39506W        W 7836  32.413  39.929  14.841
39507W        W 7837  23.147  40.308  13.496
39508W        W 7838  35.397  19.148  10.994
39509W        W 7839  11.365  13.324  14.364
39510W        W 7840  11.150  40.512   0.864
39511W        W 7841   9.334  24.119  10.968
39512W        W 7842  29.446   0.820  13.325
39513W        W 7843   4.810   1.760  13.013
39514W        W 7844  42.443  41.886   4.684
39515W        W 7845  38.380  12.681  14.364
39516W        W 7846  41.009  27.092   3.333
39517W        W 7847  44.844   6.288   2.381
39518W        W 7848   1.831  31.076  11.511
39519W        W 7849   9.765   5.258  14.825
39520W        W 7850  32.399  27.088   4.320
39521W        W 7851   2.801   7.222  11.530
39522W        W 7852  24.052  14.713   2.326
39523W        W 7853  17.769   4.938   1.404
39524W        W 7854  29.158   0.816   4.181
39525W        W 7855  23.097  27.147   4.235
39526W        W 7856  43.794  40.425  12.053
39527W        W 7857  17.665  34.426   1.258
39528W        W 7858   4.220  26.531  14.967
39529W        W 7859  44.917  14.176  14.485
39530W        W 7860  42.781  14.158   2.807
39531W        W 7861   8.364  29.003   3.287
39532W        W 7862   1.966   5.328   0.285
39533W        W 7863  29.918  43.974  11.992
39534W        W 7864   4.348  24.602   4.204
39535W        W 7865  13.280  10.247   5.320
39536W        W 7866  12.172  15.246  13.016
39537W        W 7867  39.824  17.188  13.461
39538W        W 7868  16.138  14.331   2.706
39539W        W 7869  37.498  25.696   4.702
39540W        W 7870   3.831  41.886  11.526
39541W        W 7871  41.302  35.927  13.461
39542W        W 7872   0.878  19.577   4.647
39543W        W 7873  25.571   2.250   4.807
39544W        W 7874  34.074   5.306  12.487
39545W        W 7875  29.444   5.769   0.378
39546W        W 7876  30.613   8.874  14.295
39547W        W 7877  39.985  25.681  14.515
39548W        W 7878   8.396   5.365  10.454
39549W        W 7879  25.187  21.680   0.351
39550W        W 7880  36.927   5.792   0.740
39551W        W 7881   8.200   9.820   2.740
39552W        W 7882  33.916  40.972  11.011
39553W        W 7883  17.775  29.556  13.010
39554W        W 7884  11.231   2.767  11.536
39555W        W 7885  13.174  29.443  14.361
39556W        W 7886  40.835   7.872  12.371
39557W        W 7887  41.001  42.366   4.328
39558W        W 7888   3.826  18.709  11.899
39559W        W 7889  23.507  18.187  10.895
39560W        W 7890  16.787  25.677  14.917
39561W        W 7891   9.159  15.272  13.368
39562W        W 7892  19.586  31.499  12.348
39563W        W 7893   3.750  32.398   4.249
39564W        W 7894  13.177   3.416   4.745
39565W        W 7895  36.584  24.178   1.735
39566W        W 7896  12.821   6.291   2.315
39567W        W 7897   6.792   3.227  10.481
39568W        W 7898   8.247  25.487  13.467
39569W        W 7899  14.830  26.679   3.284
39570W        W 7900  41.391  32.486   3.697
39571W        W 7901  44.344  34.089  11.889
39572W        W 7902  22.578  11.181  12.383
39573W        W 7903  36.449  21.634   2.240
39574W        W 7904   7.341  16.705  14.782
39575W        W 7905   4.825  31.992  12.827
39576W        W 7906  18.674   0.456   3.201
39577W        W 7907  35.401  30.082   4.142
39578W        W 7908  28.990  26.598  14.003
39579W        W 7909  13.700  15.197   0.257
39580W        W 7910  32.535  13.207  12.897
39581W        W 7911  37.534  42.952   3.264
39582W        W 7912  36.975  27.684   1.851
39583W        W 7913  19.196  15.762  12.394
39584W        W 7914  13.141  10.748  13.845
39585W        W 7915   4.843  41.040  10.132
39586W        W 7916  34.555  16.307  12.496
39587W        W 7917  36.435   7.859  12.939
39588W        W 7918  17.769  17.244  11.543
39589W        W 7919  28.092  21.170   1.849
39590W        W 7920  15.117   7.706   2.322
39591W        W 7921  11.217  32.532  11.607
39592W        W 7922  32.943  43.946  14.443
39593W        W 7923   1.476  28.515  10.637
39594W        W 7924  36.853  10.238   4.277
39595W        W 7925  32.514   8.696   4.719
39596W        W 7926  43.910  33.487  13.389
39597W        W 7927   1.761  15.603  10.948
39598W        W 7928  16.142  13.270   1.707
39599W        W 7929  14.095  39.552  14.310
39600W        W 7930   0.413  40.478   0.283
39601W        W 7931  18.177   5.254   4.775
39602W        W 7932  28.510  19.643   0.304
39603W        W 7933  16.711  12.738  11.905
39604W        W 7934  30.049  26.553  14.850
39605W        W 7935   4.721  27.082  12.439
39606W        W 7936  41.811  40.362   4.663
39607W        W 7937   4.412  23.136  14.417
39608W        W 7938  37.887  25.652  11.866
39609W        W 7939  44.498  25.669   0.857
39610W        W 7940  34.406  11.739  12.515
39611W        W 7941  15.757  35.902  11.869
39612W        W 7942   0.943  11.334   3.199
39613W        W 7943  34.423  26.488  14.370
39614W        W 7944  37.081  26.061  12.027
39615W        W 7945  27.459  18.096  14.498
39616W        W 7946  43.931  18.788   4.635
39617W        W 7947  42.837   8.871   1.923
39618W        W 7948  18.731  18.617   4.130
39619W        W 7949  22.589  13.792  12.870
39620W        W 7950   9.677  34.001   2.769
39621W        W 7951   9.330  36.456   2.735
39622W        W 7952  26.981   3.349  12.536
39623W        W 7953  35.970  39.065  12.454
39624W        W 7954  40.524  31.556  13.373
39625W        W 7955   9.654  30.499  13.388
39626W        W 7956  24.088  42.824  12.574
39627W        W 7957  10.234  35.564  13.866
39628W        W 7958  13.180  32.093   2.202
39629W        W 7959  31.626   4.327  13.052
39630W        W 7960   6.331   8.785   1.765
39631W        W 7961  15.277  42.021   1.880
39632W        W 7962  40.041  29.948   1.814
39633W        W 7963  17.121  44.766   0.858
39634W        W 7964  42.396  35.409   2.373
39635W        W 7965  14.633   0.784   1.336
39636W        W 7966   1.451  42.419  10.479
39637W        W 7967  24.025  41.978  13.459
39638W        W 7968  22.185   4.857  14.467
39639W        W 7969   9.786  24.103   3.688
39640W        W 7970  12.136  11.374   0.909
39641W        W 7971  28.494   0.314   2.778
39642W        W 7972  40.530  11.709   3.654
39643W        W 7973  31.150  37.464   4.780
39644W        W 7974  18.104  19.570  12.997
39645W        W 7975  10.203  13.793   4.715
39646W        W 7976  30.600   4.821   4.786
39647W        W 7977  16.665  20.177  10.598
39648W        W 7978  21.692  14.601  14.281
39649W        W 7979  42.372  27.141  13.394
39650W        W 7980   8.328   9.327   2.402
39651W        W 7981  13.786  11.255  12.826
39652W        W 7982  37.394  38.959   1.425
39653W        W 7983  15.730  19.284   4.829
39654W        W 7984  33.979  20.082  11.553
39655W        W 7985  25.159  39.864  10.899
39656W        W 7986   9.387  29.609  14.806
39657W        W 7987  16.647  11.215  14.290
39658W        W 7988   3.817  37.521   0.454
39659W        W 7989  13.742  21.168   4.721
39660W        W 7990  28.153   9.208  12.488
39661W        W 7991  39.324  22.080  10.418
39662W        W 7992  42.507   3.274   2.214
39663W        W 7993   4.860   8.861   4.163
39664W        W 7994  34.896  35.419   0.920
39665W        W 7995  42.449  25.088  14.826
39666W        W 7996  28.573  30.433   2.892
39667W        W 7997  28.116   4.780  11.583
39668W        W 7998  42.981   4.287  12.874
39669W        W 7999   6.715  12.625   1.401
39670W        W 8000  30.457  31.945   0.747
39671W        W 8001  26.687   5.410   3.703
39672W        W 8002  15.176  29.088  11.453
39673W        W 8003  29.149   1.843   2.672
39674W        W 8004   2.282  25.609  14.891
39675W        W 8005  10.192  43.006   2.371
39676W        W 8006   1.377   5.714  10.627
39677W        W 8007  26.603  17.740  11.036
39678W        W 8008  19.690  39.546  12.091
39679W        W 8009  16.099  41.345   3.870
39680W        W 8010  19.588   3.404  14.933
39681W        W 8011  37.833  35.993  10.952
39682W        W 8012  15.256  27.140  10.926
39683W        W 8013  33.879  14.740  10.981
39684W        W 8014  12.221  42.490  12.578
39685W        W 8015   4.893  20.067  10.118
39686W        W 8016  30.953  44.264   4.124
39687W        W 8017   3.710  30.110  11.897
39688W        W 8018  17.134  14.127   4.219
39689W        W 8019  36.885  39.882  12.904
39690W        W 8020  30.482  27.640   1.418
39691W        W 8021  18.665  13.291   0.293
39692W        W 8022  42.945   7.701   2.870
39693W        W 8023  34.373   0.381  14.457
39694W        W 8024   6.742  27.616  13.934
39695W        W 8025  30.143  31.546  13.398
39696W        W 8026  39.379  36.523  12.372
39697W        W 8027  12.782  34.547   1.707
39698W        W 8028  43.810  31.405   1.715
39699W        W 8029   4.307  11.358   4.734
39700W        W 8030  42.881  32.132   3.175
39701W        W 8031  27.160  41.469   2.343
39702W        W 8032   5.828  29.006  10.454
39703W        W 8033  13.755  26.062   0.454
39704W        W 8034  24.976  20.062  12.375
39705W        W 8035  10.255  42.340   5.213
39706W        W 8036  16.169  39.491  10.506
39707W        W 8037  43.962  17.638  13.041
39708W        W 8038  21.754  28.070   9.571
39709W        W 8039  43.778  42.912  13.538
39710W        W 8040  38.449   9.736   0.853
39711W        W 8041  43.984  44.423  14.391
39712W        W 8042  37.337  17.082   0.921
39713W        W 8043  11.231  21.645  13.400
39714W        W 8044  33.055  32.418  12.426
39715W        W 8045  43.478  44.777   3.378
39716W        W 8046  27.097  36.503  10.955
39717W        W 8047  42.848   4.336  14.430
39718W        W 8048  19.597  31.544  11.510
39719W        W 8049  27.581  34.496  13.430
39720W        W 8050  12.245  16.612  11.108
39721W        W 8051  30.621   7.207  10.541
39722W        W 8052  14.150  14.806  12.457
39723W        W 8053  18.202  17.177  11.038
39724W        W 8054  14.273  36.352  14.876
39725W        W 8055  22.583   8.777   3.695
39726W        W 8056  30.511  25.975  12.437
39727W        W 8057  44.959   8.786  13.316
39728W        W 8058  44.878  30.001  14.499
39729W        W 8059  17.636  37.830  13.043
39730W        W 8060  21.676  20.099  10.481
39731W        W 8061  23.530  22.675  12.831
39732W        W 8062  33.520  10.678  14.952
39733W        W 8063  21.685  28.086  13.883
39734W        W 8064   3.422  41.002  12.415
39735W        W 8065  25.507   0.439   2.354
39736W        W 8066  18.669  33.381  10.959
39737W        W 8067  27.950  34.520   2.833
39738W        W 8068  44.265  12.317  10.609
39739W        W 8069  32.456   4.242  12.447
39740W        W 8070  19.679  44.391  11.129
39741W        W 8071  15.134  25.708   1.865
39742W        W 8072  40.875   7.776   3.688
39743W        W 8073  11.175  41.374   2.301
39744W        W 8074  29.586   3.716   0.435
39745W        W 8075   0.870  36.874   3.281
39746W        W 8076   0.346  20.213  11.569
39747W        W 8077  24.054  22.670  10.478
39748W        W 8078  39.358  44.306   0.338
39749W        W 8079  31.122  13.317  14.925
39750W        W 8080  33.987  38.987   2.228
39751W        W 8081  13.127  43.853   3.650
39752W        W 8082  31.095  23.239  13.896
39753W        W 8083   7.749  22.226  14.826
39754W        W 8084  15.316  34.426  12.397
39755W        W 8085  30.450  19.139  12.381
39756W        W 8086   6.886  31.018  10.576
39757W        W 8087   5.305  24.490  12.078
39758W        W 8088  31.590  39.336  13.839
39759W        W 8089   2.441  44.931   4.775
39760W        W 8090  39.903  20.057   3.207
39761W        W 8091  44.757  30.119  14.855
39762W        W 8092   5.374  33.456  12.899
39763W        W 8093  36.936  10.302   2.800
39764W        W 8094  22.597  15.214  14.959
39765W        W 8095  14.641  34.537  10.453
39766W        W 8096  26.964  31.637   0.895
39767W        W 8097  38.450  28.676   0.381
39768W        W 8098   3.841   8.765  12.837
39769W        W 8099  42.918  14.112  14.779
39770W        W 8100  16.196  44.010  11.003
39771W        W 8101  14.228  36.398   1.254
39772W        W 8102  17.669  37.890   1.234
39773W        W 8103  27.545  22.191   4.228
39774W        W 8104   8.828  19.748   2.185
39775W        W 8105  25.175  44.800   2.662
39776W        W 8106  28.003  41.002  11.881
39777W        W 8107   3.954  12.192  12.507
39778W        W 8108  41.504   8.840  11.031
39779W        W 8109   1.903   7.272  10.501
39780W        W 8110   8.259  42.293  13.546
39781W        W 8111  24.137  32.132   5.193
39782W        W 8112  17.179  11.320  12.898
39783W        W 8113  40.961  11.650   4.758
39784W        W 8114   3.753  35.475  11.424
39785W        W 8115  42.335   7.191   3.185
39786W        W 8116   2.818  29.568  14.418
39787W        W 8117  12.682   4.335   2.797
39788W        W 8118   0.813  40.434   1.726
39789W        W 8119  24.513   7.239   1.266
39790W        W 8120   8.314  43.957  14.877
39791W        W 8121  17.296  27.025   1.430
39792W        W 8122  16.215   1.462  10.959
39793W        W 8123  42.469  33.470  14.793
39794W        W 8124   9.163   4.229  12.926
39795W        W 8125  24.222  14.699   4.144
39796W        W 8126  43.463  29.560   3.818
39797W        W 8127  19.674  14.272  11.123
39798W        W 8128   3.928  22.537  11.109
39799W        W 8129  42.828  32.124   0.924
39800W        W 8130  37.915  33.986   0.469
39801W        W 8131   8.281   7.817   2.881
39802W        W 8132  31.489   8.881   1.282
39803W        W 8133  21.706   1.878   2.283
39804W        W 8134   3.454   7.817   2.747
39805W        W 8135  38.547  16.237   4.608
39806W        W 8136  17.064  39.331  12.370
39807W        W 8137  32.980   8.279   2.193
39808W        W 8138  29.579   4.826  13.011
39809W        W 8139   1.910  24.576  14.969
39810W        W 8140  25.096  18.153  10.547
39811W        W 8141  17.726  34.591  10.914
39812W        W 8142  20.243  40.018   2.880
39813W        W 8143  35.014  28.983   0.377
39814W        W 8144  29.499   3.416  13.926
39815W        W 8145  26.693  16.717   3.323
39816W        W 8146  34.873   9.182  12.379
39817W        W 8147   8.807  40.325  10.465
39818W        W 8148  35.007  34.490   2.788
39819W        W 8149  39.975  11.837   0.324
39820W        W 8150  27.569  17.596  13.967
39821W        W 8151   4.236  38.324   3.231
39822W        W 8152  12.346  16.145   0.967
39823W        W 8153   0.804   1.260   3.711
39824W        W 8154  13.789   0.427  12.023
39825W        W 8155   9.716  22.550   3.342
39826W        W 8156  15.586   6.858  12.408
39827W        W 8157  11.690  24.583  12.929
39828W        W 8158  30.451  16.799  11.973
39829W        W 8159  28.038  14.680  14.775
39830W        W 8160   1.286   5.291   0.269
39831W        W 8161  31.146  22.558   3.234
39832W        W 8162   6.899  44.970  11.446
39833W        W 8163  15.237  27.043   3.632
39834W        W 8164  32.099   2.369   0.907
39835W        W 8165   5.430   0.877   3.339
39836W        W 8166  27.117   0.879  13.493
39837W        W 8167  22.589  32.626   0.364
39838W        W 8168  32.413   4.843  10.496
39839W        W 8169  15.294  17.666   2.847
39840W        W 8170  32.994   8.393   4.214
39841W        W 8171  21.167  24.136   0.947
39842W        W 8172  31.043  28.119  11.602
39843W        W 8173   9.389  39.915   1.800
39844W        W 8174  38.428  29.149   2.841
39845W        W 8175  20.166  41.477   4.662
39846W        W 8176   2.788  37.433  10.954
39847W        W 8177  22.052  16.247  14.010
39848W        W 8178  33.985  28.526   1.416
39849W        W 8179  19.245  37.457   0.460
39850W        W 8180  37.982  44.394  10.970
39851W        W 8181  35.098  30.061   3.667
39852W        W 8182  40.422  25.696   0.422
39853W        W 8183  25.672   1.352   0.782
39854W        W 8184  15.133   4.250  14.861
39855W        W 8185   6.341  11.744  13.539
39856W        W 8186  22.043   5.850  13.926
39857W        W 8187  16.779  12.338   4.818
39858W        W 8188  20.578  30.111   4.756
39859W        W 8189  32.955  39.338  13.018
39860W        W 8190  38.921  38.975   4.300
39861W        W 8191   5.744  30.959  13.370
39862W        W 8192  10.221   9.765   4.626
39863W        W 8193  44.758  44.962   0.858
39864W        W 8194  24.012  15.276  14.474
39865W        W 8195  31.627  31.413  11.012
39866W        W 8196  34.554  24.984   0.331
39867W        W 8197  24.548  19.613  14.029
39868W        W 8198  40.965   0.408  13.968
39869W        W 8199  35.918  44.429   4.154
39870W        W 8200   3.915  29.484   4.238
39871W        W 8201  16.211  32.592  14.487
39872W        W 8202  28.490  43.858  12.401
39873W        W 8203  29.065  32.533  11.870
39874W        W 8204   8.692  31.421  14.881
39875W        W 8205  38.501  34.109  12.999
39876W        W 8206  23.563  33.881  10.889
39877W        W 8207  18.125  30.511  11.075
39878W        W 8208  22.089  36.031   3.745
39879W        W 8209  41.454  34.035  13.537
39880W        W 8210  36.521  17.694  10.889
39881W        W 8211  39.041   5.770   3.714
39882W        W 8212  41.936   8.322  12.409
39883W        W 8213  25.159  37.010   0.967
39884W        W 8214  31.970  37.434   4.831
39885W        W 8215  35.557  23.011   1.394
39886W        W 8216  18.711  43.374   0.834
39887W        W 8217  40.430  15.133   4.835
39888W        W 8218  20.093   1.822  10.018
39889W        W 8219  44.472  22.021   4.704
39890W        W 8220  22.184  28.042   2.782
39891W        W 8221  22.118  17.744  11.040
39892W        W 8222  19.695  38.017   4.762
39893W        W 8223   3.314  22.128  10.606
39894W        W 8224  37.388  28.996   1.408
39895W        W 8225   1.741   0.793   3.202
39896W        W 8226   7.218   2.267   4.229
39897W        W 8227   9.651  19.169   0.788
39898W        W 8228  33.076  28.448   1.887
39899W        W 8229  40.311  39.503   4.649
39900W        W 8230  37.960  43.483  13.800
39901W        W 8231  38.402  10.189  12.402
39902W        W 8232  29.115  23.036   0.933
39903W        W 8233  25.082  28.974   2.757
39904W        W 8234  14.783  19.717  12.070
39905W        W 8235  14.263  25.703   2.795
39906W        W 8236  44.403  39.530  12.393
39907W        W 8237  19.096   8.319  10.990
39908W        W 8238  44.493  19.551  13.801
39909W        W 8239  16.781  43.998   3.761
39910W        W 8240  40.542   4.888  13.497
39911W        W 8241  38.423   7.345  14.772
39912W        W 8242  11.240   3.720   2.258
39913W        W 8243  34.915  23.552   5.108
39914W        W 8244  31.028  25.474  14.407
39915W        W 8245  13.711  23.501   3.356
39916W        W 8246  40.847  10.773   3.726
39917W        W 8247  44.414  31.627   1.324
39918W        W 8248  35.452  30.054   3.722
39919W        W 8249  42.294  40.809   1.733
39920W        W 8250   3.248  26.483   0.353
39921W        W 8251  25.489  20.228   3.205
39922W        W 8252  16.639  30.482   4.800
39923W        W 8253  10.210  25.641   1.807
39924W        W 8254  37.037  26.506   0.315
39925W        W 8255  41.989  40.917   4.806
39926W        W 8256  34.013   4.753   4.129
39927W        W 8257   0.378  29.642  10.600
39928W        W 8258  43.443  39.953  13.795
39929W        W 8259  28.577   1.747  12.452
39930W        W 8260  24.641  19.176   1.361
39931W        W 8261   1.874  16.119  13.308
39932W        W 8262  44.788   3.738   2.204
39933W        W 8263  12.349   6.829  13.864
39934W        W 8264  10.664   2.348  10.581
39935W        W 8265  38.819   3.762   3.310
39936W        W 8266  19.202  24.090  13.456
39937W        W 8267  32.473  34.091   1.732
39938W        W 8268  27.535  42.899  13.494
39939W        W 8269  17.607  17.698   0.727
39940W        W 8270  43.302  30.555   0.923
39941W        W 8271   3.945  30.008  12.924
39942W        W 8272  20.119  10.801   0.250
39943W        W 8273  38.555   9.191  14.505
39944W        W 8274   3.764   4.802   3.282
39945W        W 8275  34.539   4.941   1.448
39946W        W 8276  15.775  39.018   5.266
39947W        W 8277   8.721  23.686  13.003
39948W        W 8278  25.708  16.185  11.598
39949W        W 8279   3.848   1.791  10.451
39950W        W 8280  11.281  28.181  11.465
39951W        W 8281  16.221   4.438   3.714
39952W        W 8282   8.354  29.588  11.098
39953W        W 8283   1.896  39.870  15.000
39954W        W 8284  33.467   4.312   2.776
39955W        W 8285   0.481  18.170  14.336
39956W        W 8286   8.290  44.934   1.816
39957W        W 8287  18.781  40.537  11.489
39958W        W 8288   2.242   0.413   9.933
39959W        W 8289  29.456   9.372   1.935
39960W        W 8290  26.999  14.160   3.787
39961W        W 8291  18.178  19.708   2.321
39962W        W 8292  19.100  11.223  13.498
39963W        W 8293   9.248  40.351  10.954
39964W        W 8294   4.794  44.408  12.033
39965W        W 8295  17.738  22.228  13.031
39966W        W 8296  35.974  39.025   5.241
39967W        W 8297  14.183  34.416   2.721
39968W        W 8298  36.512  34.025  14.808
39969W        W 8299  37.342  38.372   3.243
39970W        W 8300  15.692  33.550   3.704
39971W        W 8301  24.178  35.364   0.311
39972W        W 8302  41.008   8.791  11.906
39973W        W 8303  28.038  34.487  14.472
39974W        W 8304   3.811  16.161   1.314
39975W        W 8305  34.064  37.565  13.510
39976W        W 8306  34.978  41.510   1.287
39977W        W 8307   5.844  20.236   4.131
39978W        W 8308  33.970  24.189  12.433
39979W        W 8309  14.666   9.769  11.590
39980W        W 8310  44.975  41.414   3.364
39981W        W 8311  34.398   3.870   1.762
39982W        W 8312  36.451  12.192   4.210
39983W        W 8313  41.910  42.976  10.516
39984W        W 8314  25.133  41.476  11.011
39985W        W 8315   0.954   8.191   0.830
39986W        W 8316  40.878  24.601  14.024
39987W        W 8317  20.178   0.969  10.432
39988W        W 8318  31.898  30.574  12.569
39989W        W 8319   3.956  22.617  13.993
39990W        W 8320  32.098  26.567   5.099
39991W        W 8321  16.665  27.105   0.329
39992W        W 8322   6.411  33.563   5.133
39993W        W 8323  22.727  21.095  13.881
39994W        W 8324  31.619  31.647  11.556
39995W        W 8325  40.990   2.243  11.917
39996W        W 8326  29.657  24.147  10.434
39997W        W 8327   2.236  15.257  13.017
39998W        W 8328  17.680  30.417  14.861
39999W        W 8329   1.459  22.504   1.743
40000W        W 8330  17.287  40.900  11.060
40001W        W 8331  35.570  39.017   2.245
40002W        W 8332  23.172   9.847  10.918
40003W        W 8333  26.484  39.446  12.048
40004W        W 8334  24.211  32.039   3.287
40005W        W 8335  20.249  11.204  11.493
40006W        W 8336  35.509  29.543  11.605
40007W        W 8337  10.697  34.383   2.369
40008W        W 8338  20.214  18.051  12.513
40009W        W 8339  26.512  10.324   5.308
40010W        W 8340  24.641   2.726   4.229
40011W        W 8341   2.396  39.927  10.995
40012W        W 8342  34.106  13.711  13.976
40013W        W 8343   1.826  27.971   4.327
40014W        W 8344  24.478  10.649   5.801
40015W        W 8345  28.015  14.280  10.539
40016W        W 8346  32.988  33.491   4.173
40017W        W 8347  39.004   8.267  13.007
40018W        W 8348  19.169  20.610  12.091
40019W        W 8349  25.047  24.223   4.319
40020W        W 8350  11.181  27.011  14.786
40021W        W 8351   8.376  10.633   1.341
40022W        W 8352  41.378  33.446  10.545
40023W        W 8353  40.865  29.070   1.860
40024W        W 8354  44.323  25.213   1.914
40025W        W 8355   4.745  25.026   2.705
40026W        W 8356  43.346  15.245   0.384
40027W        W 8357  41.871  19.152  11.512
40028W        W 8358  43.385  11.798   0.250
40029W        W 8359  37.411  29.429   2.688
40030W        W 8360  40.465  33.494   0.472
40031W        W 8361   7.740  26.081   4.733
40032W        W 8362   7.241  37.925   2.381
40033W        W 8363   2.837   6.694  13.475
40034W        W 8364  15.703  36.894   1.384
40035W        W 8365  10.841  36.575   3.803
40036W        W 8366  36.425  42.312  13.400
40037W        W 8367  41.788  26.187   2.297
40038W        W 8368  22.073  32.469  13.447
40039W        W 8369  34.095  44.347  14.943
40040W        W 8370  24.171   5.364   4.296
40041W        W 8371   9.658   7.182  12.495
40042W        W 8372  38.346  13.684   1.322
40043W        W 8373   5.823   4.844  10.921
40044W        W 8374  18.072  34.866   1.918
40045W        W 8375   3.431  29.121   4.236
40046W        W 8376  29.485  37.390   4.323
40047W        W 8377  24.097  42.409   2.314
40048W        W 8378  17.231   8.373  11.577
40049W        W 8379  19.235  42.802  11.043
40050W        W 8380  32.433  17.287   2.823
40051W        W 8381   3.918  26.641  13.513
40052W        W 8382  42.806  35.024  14.002
40053W        W 8383   6.361  25.510  12.465
40054W        W 8384   9.862  11.771  12.019
40055W        W 8385  25.548  44.434   3.181
40056W        W 8386  31.965  11.829   1.265
40057W        W 8387  36.036   2.806  14.320
40058W        W 8388  41.485  27.572  11.012
40059W        W 8389  21.650   7.401   3.672
40060W        W 8390   9.375   6.389   0.756
40061W        W 8391  35.061   3.455   0.873
40062W        W 8392  24.538  22.171  11.901
40063W        W 8393  33.509   3.250  11.004
40064W        W 8394   5.395  13.185   2.360
40065W        W 8395  44.486   2.418   4.307
40066W        W 8396  36.979  39.920  13.834
40067W        W 8397  25.654  40.504   3.841
40068W        W 8398   7.669   0.432   0.295
40069W        W 8399   7.181  31.550  12.548
40070W        W 8400  11.853  11.278  13.309
40071W        W 8401  35.946  14.783   2.813
40072W        W 8402   0.970  18.551  14.939
40073W        W 8403  42.031   6.900   3.242
40074W        W 8404  20.250  24.520  11.010
40075W        W 8405   2.292  29.653   5.092
40076W        W 8406  32.626  11.311   2.181
40077W        W 8407   2.287  36.025   4.343
40078W        W 8408  26.491  24.986  10.022
40079W        W 8409  37.874   9.225   3.801
40080W        W 8410  20.583  19.728  11.469
40081W        W 8411  34.424  12.204  11.882
40082W        W 8412  33.620  23.239  13.056
40083W        W 8413  26.039  11.354   0.917
40084W        W 8414   2.463  21.234   3.858
40085W        W 8415  42.299   9.729  13.363
40086W        W 8416  17.227  27.538  10.114
40087W        W 8417  10.382  36.554  14.348
40088W        W 8418  21.679  42.297  11.891
40089W        W 8419  14.114   5.271   1.909
40090W        W 8420  37.853  34.042   2.396
40091W        W 8421  28.597  32.098   2.349
40092W        W 8422   6.788  44.759  12.575
40093W        W 8423  37.026   6.273   0.281
40094W        W 8424  41.340  28.017   4.714
40095W        W 8425  43.342  23.132  10.912
40096W        W 8426   4.331  29.938   4.122
40097W        W 8427   7.690   6.316  14.331
40098W        W 8428  13.672  28.022   0.389
40099W        W 8429  40.904  20.636  13.975
40100W        W 8430  15.702  10.768  11.608
40101W        W 8431  35.952  39.855   1.725
40102W        W 8432  32.995  21.674  13.410
40103W        W 8433  21.223  19.279   4.267
40104W        W 8434  43.864  23.232  13.063
40105W        W 8435  10.285  15.158  12.479
40106W        W 8436   3.260  29.174   1.715
40107W        W 8437   9.259   8.245  11.467
40108W        W 8438  39.359  39.442  13.341
40109W        W 8439  35.587  44.866   1.365
40110W        W 8440  14.712  28.671  12.902
40111W        W 8441   8.679  10.341   0.447
40112W        W 8442  15.177  28.566   4.809
40113W        W 8443  26.694  35.954  13.021
40114W        W 8444  24.204  35.082   2.237
40115W        W 8445  27.086   7.866   4.780
40116W        W 8446   1.867  37.582   9.983
40117W        W 8447  14.632  10.696  12.827
40118W        W 8448   4.237  42.826   1.291
40119W        W 8449  29.960  12.699   3.347
40120W        W 8450  31.537  15.647   0.852
40121W        W 8451   7.238   7.379  12.095
40122W        W 8452   3.910  29.945   2.256
40123W        W 8453   6.887  22.011   3.147
40124W        W 8454  31.429   5.757   4.297
40125W        W 8455   5.698  37.455   1.901
40126W        W 8456  26.638   1.968   1.296
40127W        W 8457  42.392  36.455  13.326
40128W        W 8458  28.012  36.932  14.015
40129W        W 8459  44.460  35.509  14.491
40130W        W 8460  34.080  15.692  10.407
40131W        W 8461  18.235  39.986   4.287
40132W        W 8462  25.527  37.484  12.075
40133W        W 8463  38.829  40.398  11.589
40134W        W 8464  36.942  17.637   0.452
40135W        W 8465  12.794  28.042  13.798
40136W        W 8466   3.758  44.394  10.615
40137W        W 8467  40.329  23.729   2.874
40138W        W 8468  44.817   7.282   4.128
40139W        W 8469  30.621  12.321   1.326
40140W        W 8470  14.596  30.943   0.854
40141W        W 8471  29.101  29.152   1.236
40142W        W 8472  16.633  28.093  11.986
40143W        W 8473  15.186   4.360   0.919
40144W        W 8474  42.889  24.582   0.762
40145W        W 8475  34.506  38.435   2.362
40146W        W 8476  18.668  33.057   2.739
40147W        W 8477  20.653  27.544   5.719
40148W        W 8478  44.999  35.034  11.047
40149W        W 8479  40.031   2.846   3.638
40150W        W 8480  11.339  13.619  14.828
40151W        W 8481  34.012  16.803   1.299
40152W        W 8482  19.622   8.738   3.289
40153W        W 8483  10.843  14.335  14.911
40154W        W 8484  39.325  21.078  14.911
40155W        W 8485  30.033  23.098   3.630
40156W        W 8486  20.705   1.480  12.858
40157W        W 8487  26.196  42.960   2.264
40158W        W 8488  44.859  40.002  11.048
40159W        W 8489  11.842  16.204  13.892
40160W        W 8490  23.676  28.570  14.930
40161W        W 8491  36.369  40.962   1.932
40162W        W 8492  30.122  38.982  13.847
40163W        W 8493  40.872  16.227  10.408
40164W        W 8494   3.402  14.268   4.287
40165W        W 8495   6.679  26.042  10.589
40166W        W 8496  18.680   7.262  10.416
40167W        W 8497  43.350   3.279  12.475
40168W        W 8498   6.400  42.312  13.052
40169W        W 8499  22.504  24.207   2.274
40170W        W 8500  32.016  19.252  13.022
40171W        W 8501  15.316   5.912  13.946
40172W        W 8502  14.751  39.462  11.456
40173W        W 8503  18.682  37.547  13.032
40174W        W 8504  35.044  15.722  12.998
40175W        W 8505  22.053  19.055   3.292
40176W        W 8506  18.692   5.277  13.351
40177W        W 8507  22.705  34.117  11.553
40178W        W 8508   5.710  18.696   3.696
40179W        W 8509   2.923   0.784  11.903
40180W        W 8510   4.905  37.552  14.502
40181W        W 8511  44.931  24.563  13.381
40182W        W 8512  12.686  22.052   0.258
40183W        W 8513   6.290  10.175   0.367
40184W        W 8514  32.414  15.192   3.767
40185W        W 8515  40.508   3.818   2.323
40186W        W 8516  29.144  33.595   0.380
40187W        W 8517  21.127  12.786  14.336
40188W        W 8518  29.549   1.305  14.938
40189W        W 8519   7.366  14.680   1.822
40190W        W 8520  36.490  39.320  10.612
40191W        W 8521  15.748  31.913   1.870
40192W        W 8522  35.529  13.667  11.385
40193W        W 8523  18.196  18.610   4.278
40194W        W 8524  39.331   6.883   4.804
40195W        W 8525  44.991   1.871   4.692
40196W        W 8526  11.764  27.046   2.352
40197W        W 8527  25.993  22.068   1.309
40198W        W 8528  18.739  34.594  11.429
40199W        W 8529  22.105  24.093  10.539
40200W        W 8530   9.378  10.764  14.436
40201W        W 8531  23.542   7.281   3.824
40202W        W 8532   1.814  18.239   0.379
40203W        W 8533  20.645  16.291  10.514
40204W        W 8534  21.200  22.634   2.348
40205W        W 8535  16.210   7.699   3.707
40206W        W 8536  21.640  19.633   9.513
40207W        W 8537   3.299  14.156   3.297
40208W        W 8538  14.338   6.353  11.399
40209W        W 8539  35.372  21.686   0.317
40210W        W 8540  11.787  35.031   3.338
40211W        W 8541  42.843  15.593   1.818
40212W        W 8542  24.114  31.548  14.937
40213W        W 8543  10.381  34.883   2.762
40214W        W 8544  18.650  34.935  14.284
40215W        W 8545  28.950  40.866   3.667
40216W        W 8546  42.347   4.232  12.935
40217W        W 8547  10.653  31.503  10.909
40218W        W 8548  37.950  37.472  12.354
40219W        W 8549  20.117  35.051  12.910
40220W        W 8550  43.369  21.683  11.058
40221W        W 8551  14.767  20.736  13.423
40222W        W 8552  11.654  40.310   3.728
40223W        W 8553  34.516  21.603   2.667
40224W        W 8554  26.477  21.083   1.321
40225W        W 8555  11.140  33.416  12.828
40226W        W 8556   6.266   0.320  12.517
40227W        W 8557  39.495  37.405  13.455
40228W        W 8558  13.625   7.284  12.542
40229W        W 8559  20.096  30.414  14.845
40230W        W 8560  21.720   1.322  10.902
40231W        W 8561  26.462  22.050  11.454
40232W        W 8562  33.423  19.570  14.855
40233W        W 8563   3.216  20.264   3.751
40234W        W 8564   2.816  25.642   1.872
40235W        W 8565  34.476  38.875   4.153
40236W        W 8566  35.063  28.539  11.893
40237W        W 8567  41.961  18.079  14.932
40238W        W 8568   9.310  43.291  14.766
40239W        W 8569  16.137  42.030   1.449
40240W        W 8570  29.056  20.760  14.013
40241W        W 8571  31.012  42.917   2.742
40242W        W 8572  13.194   5.749   3.698
40243W        W 8573  23.205   9.231   5.253
40244W        W 8574  20.580   1.448  13.814
40245W        W 8575  12.672  31.478   2.277
40246W        W 8576  27.484  24.091  11.395
40247W        W 8577  39.478  15.311   4.664
40248W        W 8578  36.891   5.419   2.287
40249W        W 8579  21.162  23.605   1.744
40250W        W 8580  33.899  31.948   1.260
40251W        W 8581  18.660   8.766   1.336
40252W        W 8582  43.971  37.061  10.437
40253W        W 8583  43.369  30.637  14.394
40254W        W 8584  28.959  18.647  12.407
40255W        W 8585  34.011  20.054  10.644
40256W        W 8586  36.035  11.189  10.625
40257W        W 8587   0.401   0.304   0.242
40258W        W 8588  10.228  42.999  10.645
40259W        W 8589   1.806  21.239   3.691
40260W        W 8590  41.421  16.112   1.702
40261W        W 8591   4.920  17.691   0.343
40262W        W 8592  36.843  34.046   1.872
40263W        W 8593  10.178   6.278   5.103
40264W        W 8594  20.039  35.398  13.955
40265W        W 8595  11.644  25.487  11.479
40266W        W 8596  30.962  33.544   4.152
40267W        W 8597   2.297  39.425   4.637
40268W        W 8598  41.330  32.417  13.455
40269W        W 8599  24.203   2.385   0.364
40270W        W 8600  24.018   5.702   1.741
40271W        W 8601  31.011  44.920  14.766
40272W        W 8602  33.878  27.156  13.354
40273W        W 8603  11.248  37.405  14.829
40274W        W 8604  36.521  32.013   3.313
40275W        W 8605  15.276  30.034   3.738
40276W        W 8606   1.381   7.729  12.351
40277W        W 8607  16.302   3.302   3.253
40278W        W 8608  34.372  39.537   0.396
40279W        W 8609  19.147   5.917  10.545
40280W        W 8610   4.406  11.175   0.756
40281W        W 8611  26.468  13.329   5.177
40282W        W 8612  36.933  27.489  13.416
40283W        W 8613  23.124  29.014  13.358
40284W        W 8614  22.143  11.666  13.802
40285W        W 8615  43.437  12.116  14.410
40286W        W 8616  25.526  10.776  11.385
40287W        W 8617  40.039  27.096   3.839
40288W        W 8618  20.737   4.250   0.406
40289W        W 8619  33.605  18.764   9.998
40290W        W 8620  34.389  34.509  12.507
40291W        W 8621   7.763   2.900   1.425
40292W        W 8622  12.848  37.970  11.111
40293W        W 8623  27.542  26.087  12.379
40294W        W 8624  25.480  10.685  11.054
40295W        W 8625  43.434   2.724  11.601
40296W        W 8626  11.822  10.152   5.315
40297W        W 8627  25.063   0.293  11.378
40298W        W 8628   1.933  22.711  14.899
40299W        W 8629  30.605  35.958  10.523
40300W        W 8630   4.324  32.044   1.695
40301W        W 8631  13.249  15.764  11.599
40302W        W 8632  27.620  27.183   4.724
40303W        W 8633  34.581  22.524  12.353
40304W        W 8634  40.429  22.222  10.590
40305W        W 8635  30.910  21.050  12.913
40306W        W 8636  15.712  22.095  11.946
40307W        W 8637  20.255   6.856   4.268
40308W        W 8638  15.250  11.804   2.193
40309W        W 8639  23.541   1.819  13.880
40310W        W 8640   1.758  36.545  13.879
40311W        W 8641  38.007  38.001  14.870
40312W        W 8642  43.841   9.266  14.327
40313W        W 8643   6.807  29.479   3.368
40314W        W 8644  17.563   2.413   2.194
40315W        W 8645  32.581  38.941  10.407
40316W        W 8646  29.427  12.704   2.284
40317W        W 8647   9.790  29.173  13.883
40318W        W 8648  20.603   2.463  10.512
40319W        W 8649  43.888  43.453   0.292
40320W        W 8650   6.776  20.727  14.364
40321W        W 8651   5.932  28.931   1.381
40322W        W 8652  24.649   2.887  14.842
40323W        W 8653   8.315  29.039  14.761
40324W        W 8654  35.540  26.679  13.039
40325W        W 8655  22.674  23.174  13.527
40326W        W 8656  41.532  39.378   1.704
40327W        W 8657   4.782   7.249   2.723
40328W        W 8658   7.219  17.208   3.839
40329W        W 8659  24.496   1.805   2.379
40330W        W 8660  40.928  42.501  10.409
40331W        W 8661  10.870  30.531  11.917
40332W        W 8662  38.904  26.528  11.944
40333W        W 8663  44.860   7.312  14.378
40334W        W 8664  33.950  41.496  14.011
40335W        W 8665  13.841   8.345  11.037
40336W        W 8666   6.755  10.802  13.935
40337W        W 8667  32.130  44.900  13.929
40338W        W 8668  16.645  16.169  14.765
40339W        W 8669  34.494  24.148   4.688
40340W        W 8670  11.851  30.605   2.784
40341W        W 8671   3.773  32.440   0.344
40342W        W 8672  27.136  19.110   3.683
40343W        W 8673  38.035  30.570  14.989
40344W        W 8674   4.292  42.018  14.941
40345W        W 8675  35.885  32.980   3.629
40346W        W 8676  31.984  12.173   3.204
40347W        W 8677  30.448  29.452  13.942
40348W        W 8678  41.830  15.819   0.805
40349W        W 8679  42.429  30.563   1.926
40350W        W 8680  17.303  29.050   2.380
40351W        W 8681  40.511  38.975  12.513
40352W        W 8682   8.683  25.565   1.385
40353W        W 8683   6.781  21.545   2.680
40354W        W 8684  14.784  22.053   4.341
40355W        W 8685  32.522   2.830   3.237
40356W        W 8686   6.852  13.262   2.236
40357W        W 8687  26.122  39.974  10.411
40358W        W 8688   4.852   7.861   2.362
40359W        W 8689  22.228  36.526  11.570
40360W        W 8690   4.415  21.610   0.908
40361W        W 8691  37.888   3.849   3.300
40362W        W 8692   1.793  30.610   1.445
40363W        W 8693  34.578   5.281  12.939
40364W        W 8694  17.753  26.083  11.412
40365W        W 8695  37.021  19.727  11.011
40366W        W 8696  37.071  32.398  13.854
40367W        W 8697  33.504  21.158  12.046
40368W        W 8698  44.855  22.236   3.248
40369W        W 8699  43.421   5.275  11.513
40370W        W 8700  41.346   1.798  13.489
40371W        W 8701  23.517  43.384  11.395
40372W        W 8702  28.486  23.611  12.006
40373W        W 8703  12.143  39.335   4.256
40374W        W 8704  35.376   0.337  14.851
40375W        W 8705  28.050   9.801  13.497
40376W        W 8706  11.705   9.276  14.278
40377W        W 8707  27.136  17.192  10.419
40378W        W 8708  10.348   0.942  12.508
40379W        W 8709  44.442   8.366   4.204
40380W        W 8710  18.569  25.709   5.763
40381W        W 8711  15.181  17.267   3.682
40382W        W 8712   4.306  42.940  10.423
40383W        W 8713   6.774  41.319   0.478
40384W        W 8714  10.803  14.276  14.512
40385W        W 8715  19.749  20.599  11.533
40386W        W 8716  40.470  41.299  14.281
40387W        W 8717  39.809  32.053  14.990
40388W        W 8718  43.832  39.442  12.865
40389W        W 8719   2.747   9.753  11.871
40390W        W 8720  33.413   1.414   3.811
40391W        W 8721   9.165  24.599   3.202
40392W        W 8722   8.393  22.723  12.868
40393W        W 8723  20.129  41.430   0.294
40394W        W 8724   3.409   8.350   0.303
40395W        W 8725  23.551   2.390  12.527
40396W        W 8726  13.843  13.720  14.838
40397W        W 8727  40.446   5.892   1.218
40398W        W 8728  36.517  31.149   1.814
40399W        W 8729  18.211  16.083  14.986
40400W        W 8730   0.987  20.098   2.392
40401W        W 8731  35.480  41.924  12.067
40402W        W 8732   2.768  43.984   4.260
40403W        W 8733  42.834   4.718   4.819
40404W        W 8734  25.617  36.523  13.864
40405W        W 8735  10.713  14.179   1.880
40406W        W 8736  32.551  41.414  11.885
40407W        W 8737  42.794   7.812  12.044
40408W        W 8738   4.913  27.567   4.752
40409W        W 8739   6.389  24.119  12.466
40410W        W 8740   9.289  26.985   3.748
40411W        W 8741  35.042  26.566  14.446
40412W        W 8742  39.855   3.356  12.557
40413W        W 8743  35.929  31.603   1.424
40414W        W 8744  23.613  44.391   1.737
40415W        W 8745  17.142  14.683   2.691
40416W        W 8746   5.902  11.273   0.310
40417W        W 8747  35.955  27.608  12.381
40418W        W 8748  12.126  11.156   2.824
40419W        W 8749  32.039  11.321  13.523
40420W        W 8750  39.897   2.947  11.409
40421W        W 8751  14.598  19.586   4.185
40422W        W 8752  42.478  30.068   3.704
40423W        W 8753  16.810  37.892   1.423
40424W        W 8754   5.338  21.027  14.444
40425W        W 8755   4.908   3.719  14.792
40426W        W 8756  15.612  39.344   1.900
40427W        W 8757  19.692   2.845   0.892
40428W        W 8758  35.000  22.651   1.864
40429W        W 8759  10.311   9.699  11.017
40430W        W 8760  11.754  39.547  13.808
40431W        W 8761  13.710  25.673   2.687
40432W        W 8762  22.629  37.368  10.959
40433W        W 8763  44.806  37.069   2.866
40434W        W 8764  13.154  43.782   2.321
40435W        W 8765  35.020   8.812  11.986
40436W        W 8766   2.309  39.868  11.883
40437W        W 8767  23.545  22.116  12.876
40438W        W 8768  37.574  23.139  14.796
40439W        W 8769  41.448  28.492  12.066
40440W        W 8770  38.569  18.681   3.702
40441W        W 8771   0.796  34.921   3.376
40442W        W 8772  35.446   8.365   3.649
40443W        W 8773  42.443  14.235  14.024
40444W        W 8774  19.197  43.804   0.940
40445W        W 8775  28.990   2.234  13.972
40446W        W 8776   7.794  31.414   3.840
40447W        W 8777  20.138  26.987  11.434
40448W        W 8778  39.035  24.174   2.339
40449W        W 8779   3.449  18.572   4.782
40450W        W 8780  13.755  30.061   0.307
40451W        W 8781  32.534   9.667   1.269
40452W        W 8782  32.411   7.316  12.914
40453W        W 8783  13.637   1.972  11.024
40454W        W 8784   8.254  24.711  10.907
40455W        W 8785  26.562  39.872   0.828
40456W        W 8786  21.183  29.444   2.362
40457W        W 8787  16.730  34.612   9.934
40458W        W 8788  17.593  29.138  13.512
40459W        W 8789   5.713  23.001   1.759
40460W        W 8790  42.845  31.422   0.308
40461W        W 8791   4.245  41.323  11.588
40462W        W 8792  37.575  22.187  12.835
40463W        W 8793  34.017   1.774   1.316
40464W        W 8794   8.344   5.239  12.888
40465W        W 8795  12.657  43.350   3.838
40466W        W 8796   8.253  26.463  14.762
40467W        W 8797  42.951   1.420   1.293
40468W        W 8798  17.226  41.308  11.387
40469W        W 8799  32.036  10.242  10.425
40470W        W 8800  30.121   9.302   1.924
40471W        W 8801  40.899  17.199   3.670
40472W        W 8802  34.943  12.187  11.555
40473W        W 8803  16.714  21.726  11.380
40474W        W 8804  32.489  18.764   3.168
40475W        W 8805  32.429   5.708   3.224
40476W        W 8806   5.419  23.666   3.333
40477W        W 8807   7.846  33.611  14.464
40478W        W 8808  36.363  29.933   1.351
40479W        W 8809  13.606  33.921   3.310
40480W        W 8810   2.922   3.267  12.571
40481W        W 8811  24.488   7.315  10.997
40482W        W 8812  29.999  43.426   3.359
40483W        W 8813  11.710  20.646  14.778
40484W        W 8814   4.365   0.346  12.842
40485W        W 8815  21.618  35.015   0.816
40486W        W 8816  29.156  30.599   3.329
40487W        W 8817  17.137  18.070   2.369
40488W        W 8818  38.901  35.032  10.597
40489W        W 8819  18.217   6.330   2.741
40490W        W 8820  11.360   8.711  12.458
40491W        W 8821   6.356  14.171   2.397
40492W        W 8822  37.344  18.085   9.922
40493W        W 8823  43.843  16.260   2.901
40494W        W 8824  43.006  27.573  11.393
40495W        W 8825  22.526   0.424  11.554
40496W        W 8826  15.165  34.447   2.358
40497W        W 8827  37.847  26.136   3.162
40498W        W 8828   5.280  21.719  13.494
40499W        W 8829  31.566  19.183  10.889
40500W        W 8830  33.546   9.285  11.447
40501W        W 8831  22.124  17.302   0.402
40502W        W 8832   4.227   4.262   0.841
40503W        W 8833  30.930  23.219  14.282
40504W        W 8834  21.727   1.825  11.989
40505W        W 8835  34.573  34.504   0.726
40506W        W 8836  26.515  42.858  14.509
40507W        W 8837  24.701  21.553  11.858
40508W        W 8838   9.313  25.090   9.961
40509W        W 8839  16.736  25.698  10.034
40510W        W 8840  28.484  40.400   1.296
40511W        W 8841  24.720  36.425  12.370
40512W        W 8842  39.340   1.858  12.580
40513W        W 8843   3.330  38.933  14.856
40514W        W 8844  44.442  18.163   3.640
40515W        W 8845  17.711  19.102   1.861
40516W        W 8846  34.115  37.454   1.443
40517W        W 8847   3.236  17.287   0.291
40518W        W 8848  38.917  28.553   1.228
40519W        W 8849  42.810   6.311  13.486
40520W        W 8850  32.889  40.920   0.828
40521W        W 8851  34.877  44.485  10.427
40522W        W 8852  38.338   1.326  14.331
40523W        W 8853  32.517  24.564  11.038
40524W        W 8854  33.544   6.361  13.913
40525W        W 8855   8.345  33.416  10.616
40526W        W 8856   0.939  42.350   2.738
40527W        W 8857  31.897  17.098  13.963
40528W        W 8858  20.095  25.219  13.013
40529W        W 8859  24.603   8.692  14.420
40530W        W 8860  35.412  27.639  12.413
40531W        W 8861   3.225  26.104   3.764
40532W        W 8862  11.645   0.983  12.443
40533W        W 8863  44.408  26.129  13.982
40534W        W 8864  41.387   5.840   4.834
40535W        W 8865  34.588  41.912   3.670
40536W        W 8866  14.590   9.742  12.576
40537W        W 8867  37.536  19.159  12.373
40538W        W 8868  31.552   2.944  14.814
40539W        W 8869   6.861  18.665   2.338
40540W        W 8870   3.714   2.850   2.353
40541W        W 8871   3.324   8.310   2.683
40542W        W 8872  39.494  30.983  13.351
40543W        W 8873  39.954   6.416  12.918
40544W        W 8874  37.077  27.651  13.920
40545W        W 8875  43.358  12.282  11.009
40546W        W 8876  19.267  36.470   4.630
40547W        W 8877  27.971  37.426  11.101
40548W        W 8878  29.621   6.777   2.266
40549W        W 8879  36.407  25.567  11.526
40550W        W 8880  16.201  14.240   4.748
40551W        W 8881   6.728   1.917  14.290
40552W        W 8882  33.085  30.159  12.845
40553W        W 8883  23.668  19.592   1.384
40554W        W 8884  36.036   5.813  10.939
40555W        W 8885  41.369  44.330   4.783
40556W        W 8886   5.754  29.115   2.371
40557W        W 8887   5.914  13.163  12.475
40558W        W 8888  21.716  40.476   4.267
40559W        W 8889  29.069  13.194  13.893
40560W        W 8890  23.056  13.106   2.753
40561W        W 8891   8.868  19.088  13.384
40562W        W 8892  27.962  35.461  11.599
40563W        W 8893  27.186  15.097   3.321
40564W        W 8894   5.329  31.018   3.762
40565W        W 8895  26.597   9.858  13.439
40566W        W 8896  35.410  25.146   1.337
40567W        W 8897  17.189  10.848   4.152
40568W        W 8898  20.757  36.582  12.066
40569W        W 8899  11.274  37.366   5.194
40570W        W 8900  43.839  36.543   4.656
40571W        W 8901   9.654   4.869  10.513
40572W        W 8902  26.078  20.162  11.097
40573W        W 8903  38.037  43.506  10.576
40574W        W 8904  29.443  12.810  11.124
40575W        W 8905  38.840  24.172   0.929
40576W        W 8906  38.333   3.397  13.329
40577W        W 8907   4.239  15.268   1.342
40578W        W 8908   9.693  10.770   2.828
40579W        W 8909  24.575  16.172  14.813
40580W        W 8910   9.777   3.317  12.412
40581W        W 8911  28.627  35.002   1.409
40582W        W 8912  35.472  14.739  11.879
40583W        W 8913  22.746  22.019  11.071
40584W        W 8914  13.833   5.255  12.864
40585W        W 8915  17.283   8.664  11.105
40586W        W 8916  40.414  10.283   1.276
40587W        W 8917  44.467  32.506   3.288
40588W        W 8918  26.130  39.353  14.276
40589W        W 8919  39.362  10.191   4.668
40590W        W 8920  15.136  12.633  11.388
40591W        W 8921  14.683  32.508   1.399
40592W        W 8922  23.239  40.517  10.908
40593W        W 8923  29.041  42.428   2.690
40594W        W 8924  10.309  36.406  13.410
40595W        W 8925  15.618   6.367   2.722
40596W        W 8926  30.942  42.336  11.015
40597W        W 8927  40.391  40.411   1.428
40598W        W 8928   6.793  14.608  13.865
40599W        W 8929  11.635  28.082  14.795
40600W        W 8930  24.136  15.755  13.343
40601W        W 8931  30.014  23.608   2.263
40602W        W 8932  41.409  21.666  14.432
40603W        W 8933  21.080   3.457   0.319
40604W        W 8934  12.787  21.728   1.905
40605W        W 8935  19.661  40.398  11.073
40606W        W 8936  30.923   0.402  11.480
40607W        W 8937   2.449  32.421   1.439
40608W        W 8938  38.501  24.538  11.103
40609W        W 8939  29.117  41.354  12.556
40610W        W 8940  18.597  40.363   4.170
40611W        W 8941  26.058  13.217   3.743
40612W        W 8942   2.809   2.806  13.444
40613W        W 8943   8.881  17.692   3.672
40614W        W 8944  30.991  39.531   3.799
40615W        W 8945  23.156  26.960   4.648
40616W        W 8946  19.582  14.655   3.330
40617W        W 8947  11.185  25.708  10.626
40618W        W 8948  34.115  15.157  14.921
40619W        W 8949  20.572  28.104   1.441
40620W        W 8950   9.764  13.251   2.784
40621W        W 8951  20.068  32.632   1.725
40622W        W 8952  21.073  16.172   5.803
40623W        W 8953  38.867  42.907  13.350
40624W        W 8954  44.878  30.510  11.495
40625W        W 8955  29.125  26.701   4.730
40626W        W 8956  12.335  10.729   4.349
40627W        W 8957  11.161  27.108  11.477
40628W        W 8958  32.923  20.112   1.247
40629W        W 8959  31.638  19.764   4.648
40630W        W 8960  41.819   7.810  13.004
40631W        W 8961   2.258   7.280   4.323
40632W        W 8962  19.158   6.338   0.854
40633W        W 8963  40.386   0.909  14.909
40634W        W 8964  41.405   6.762   1.363
40635W        W 8965  28.060   6.696  10.433
40636W        W 8966   7.722   7.370   1.218
40637W        W 8967  36.896  42.818   3.719
40638W        W 8968  36.017   6.422  11.449
40639W        W 8969  39.537  44.876   2.771
40640W        W 8970  33.884  32.914   4.710
40641W        W 8971  23.041   0.912  11.036
40642W        W 8972  21.754  23.520  14.514
40643W        W 8973  25.645  16.624  14.917
40644W        W 8974   3.419  25.703  10.545
40645W        W 8975  11.298  27.100  13.974
40646W        W 8976  38.034  22.189   3.772
40647W        W 8977  29.480  43.906   3.776
40648W        W 8978  42.841  44.971  13.810
40649W        W 8979   9.347  10.322   3.318
40650W        W 8980  36.589   2.792  10.948
40651W        W 8981  41.933  15.264  13.344
40652W        W 8982  38.540  25.664  10.595
40653W        W 8983  10.200  10.334   1.725
40654W        W 8984  32.124  43.875  12.363
40655W        W 8985  26.498  32.594   0.411
40656W        W 8986  29.501  13.127  12.934
40657W        W 8987  16.270  30.113  13.537
40658W        W 8988  35.997  44.438   5.134
40659W        W 8989  11.202  16.211  12.050
40660W        W 8990   9.381  16.225  13.876
40661W        W 8991  35.578   2.880  13.417
40662W        W 8992  27.632   9.353   0.949
40663W        W 8993  33.473  19.648   4.606
40664W        W 8994   5.729  38.438   0.463
40665W        W 8995  25.489  27.649   1.302
40666W        W 8996  12.647   4.343   1.218
40667W        W 8997   2.406  34.071  13.462
40668W        W 8998  26.179  33.954   0.416
40669W        W 8999  13.757  31.404  14.893
40670W        W 9000   2.266  36.545  11.100
40671W        W 9001   4.818  29.642   0.398
40672W        W 9002  25.525   7.862  10.445
40673W        W 9003   8.796  31.078   1.260
40674W        W 9004   9.394  20.729   2.875
40675W        W 9005  42.520   7.178  10.411
40676W        W 9006  36.913   1.354   2.846
40677W        W 9007  41.926  28.007   4.612
40678W        W 9008  34.113  28.951   2.181
40679W        W 9009  34.044  20.631  12.027
40680W        W 9010  43.907  16.183  12.034
40681W        W 9011  42.500  17.748  14.990
40682W        W 9012  10.784  35.956  11.430
40683W        W 9013   8.715  26.526   1.833
40684W        W 9014  11.820  39.535  13.463
40685W        W 9015  38.006  44.328   9.964
40686W        W 9016  43.381  24.078   3.256
40687W        W 9017  33.535  39.970   3.168
40688W        W 9018  27.108  34.912  11.613
40689W        W 9019  31.977  19.197  11.422
40690W        W 9020  27.677  30.456   1.381
40691W        W 9021  29.523  29.628   1.368
40692W        W 9022  33.389  41.965   4.694
40693W        W 9023   0.930  21.741   2.336
40694W        W 9024  17.206   8.727  12.452
40695W        W 9025   5.692  23.497   1.270
40696W        W 9026   1.472  24.544   3.803
40697W        W 9027  29.631   9.698   0.334
40698W        W 9028   8.301   4.863   0.251
40699W        W 9029  24.561   4.286   0.464
40700W        W 9030  32.392   7.334   4.640
40701W        W 9031  34.501  38.568   0.787
40702W        W 9032  24.494  14.588  12.032
40703W        W 9033  40.950  17.690  13.909
40704W        W 9034  34.969  11.649   2.824
40705W        W 9035  44.946  25.501  10.933
40706W        W 9036  12.307  17.742   3.353
40707W        W 9037   4.440  16.742   1.778
40708W        W 9038  27.628  19.243  11.991
40709W        W 9039  22.567   4.797   2.761
40710W        W 9040  25.546   8.326  13.335
40711W        W 9041  38.827  31.055   3.318
40712W        W 9042  28.515  30.627  13.406
40713W        W 9043   3.403   7.704   3.807
40714W        W 9044  41.406   5.921  12.532
40715W        W 9045  27.610   7.680  11.382
40716W        W 9046  16.569  43.277   0.792
40717W        W 9047  26.202  26.956  12.423
40718W        W 9048   1.401  43.782   0.363
40719W        W 9049  25.117  39.914  12.503
40720W        W 9050  15.105  10.280  13.827
40721W        W 9051  36.849   6.254   2.815
40722W        W 9052  44.394  35.422  13.509
40723W        W 9053  15.586  13.317  12.930
40724W        W 9054  10.333  20.641  10.074
40725W        W 9055  41.874   2.897  10.629
40726W        W 9056  14.232  18.703  12.451
40727W        W 9057  38.830  17.206   3.776
40728W        W 9058  15.090   9.194  11.517
40729W        W 9059   7.413  25.152   0.431
40730W        W 9060  11.208  10.645  13.819
40731W        W 9061  42.286  26.090   0.300
40732W        W 9062  35.091   6.360  14.324
40733W        W 9063  31.919  38.501  13.910
40734W        W 9064  38.823  13.828   1.816
40735W        W 9065  32.922  28.062   3.798
40736W        W 9066  34.080   9.194   0.768
40737W        W 9067  18.629   2.252   5.102
40738W        W 9068  34.447  19.743  11.372
40739W        W 9069   3.814  14.150  14.940
40740W        W 9070  13.815  19.136   0.248
40741W        W 9071   5.813  23.576   4.676
40742W        W 9072   8.798  42.433   4.676
40743W        W 9073  23.149  44.810   3.237
40744W        W 9074   7.874   6.380   9.984
40745W        W 9075  29.049  35.432   1.845
40746W        W 9076  22.099  38.007  10.406
40747W        W 9077  24.227  27.160  14.323
40748W        W 9078   0.865  38.395  13.475
40749W        W 9079  35.995  11.139   1.698
40750W        W 9080   4.821  21.068  14.311
40751W        W 9081  12.741   2.256  10.608
40752W        W 9082   8.731  22.225  11.897
40753W        W 9083  13.778  33.436   1.802
40754W        W 9084   4.352   4.290   4.180
40755W        W 9085   3.310   2.843   2.343
40756W        W 9086  44.365  21.603  11.596
40757W        W 9087  24.034  36.449  14.391
40758W        W 9088   8.269   5.405   3.765
40759W        W 9089  37.393  16.633   0.746
40760W        W 9090  42.008   4.700  12.086
40761W        W 9091  38.327  37.534  13.341
40762W        W 9092   9.234  29.152   3.802
40763W        W 9093  36.950  44.945  13.481
40764W        W 9094   2.829  21.091  12.510
40765W        W 9095   0.799   3.414   2.757
40766W        W 9096  30.934  23.124   1.369
40767W        W 9097  34.075  15.134   0.345
40768W        W 9098  43.922  19.217   2.701
40769W        W 9099  12.279  30.130   3.812
40770W        W 9100  41.973  30.999   4.746
40771W        W 9101  17.195  29.461   5.297
40772W        W 9102  27.984  40.015   4.712
40773W        W 9103  17.251  12.290   2.825
40774W        W 9104   4.860  17.731  11.870
40775W        W 9105   0.417  17.284  11.067
40776W        W 9106   8.838  20.621  11.927
40777W        W 9107   0.858  36.961  10.903
40778W        W 9108  43.935   9.172  11.036
40779W        W 9109   7.310  33.084   1.754
40780W        W 9110  38.476  11.630   1.800
40781W        W 9111  40.309  32.087  13.892
40782W        W 9112   6.712  24.091  11.019
40783W        W 9113  37.566   9.387   1.712
40784W        W 9114  36.453   6.764   3.362
40785W        W 9115  38.427  22.063  11.926
40786W        W 9116  29.018  34.951   2.746
40787W        W 9117   7.308  40.888  13.408
40788W        W 9118   8.188   6.309  13.379
40789W        W 9119  34.372  30.550   0.294
40790W        W 9120  13.806  21.174   0.333
40791W        W 9121  38.003  26.956   2.848
40792W        W 9122  14.686  43.002  11.440
40793W        W 9123  21.677  28.641  11.911
40794W        W 9124  36.465   8.237  10.560
40795W        W 9125   5.796  25.040   2.811
40796W        W 9126   7.362  44.910   4.767
40797W        W 9127  22.098   0.811   3.853
40798W        W 9128  31.003  33.089  14.454
40799W        W 9129  36.528   2.955   1.708
40800W        W 9130  33.521   2.233   4.281
40801W        W 9131  19.208  25.976  10.957
40802W        W 9132  29.466  22.213   1.754
40803W        W 9133   3.899   7.828  10.422
40804W        W 9134  14.738  39.458  12.357
40805W        W 9135  14.159  10.850   3.351
40806W        W 9136  40.888  44.755   3.293
40807W        W 9137  38.424   3.260   3.346
40808W        W 9138  44.867  19.770   3.205
40809W        W 9139  19.647  35.934  13.546
40810W        W 9140  33.130  40.960  13.360
40811W        W 9141  27.117  43.457   4.770
40812W        W 9142  20.250  13.125  12.845
40813W        W 9143  38.014  24.988  13.859
40814W        W 9144  39.827  10.353   3.632
40815W        W 9145  22.181  37.886  14.769
40816W        W 9146  24.536   4.292   2.890
40817W        W 9147  19.623  19.765  10.571
40818W        W 9148  44.490  29.620  10.155
40819W        W 9149  39.856  42.467  11.506
40820W        W 9150  36.860  29.647   4.344
40821W        W 9151  21.657  15.764  10.593
40822W        W 9152  29.497  16.788  10.579
40823W        W 9153  25.545   1.903   3.819
40824W        W 9154  35.085  12.251  10.580
40825W        W 9155  26.484  42.389   1.836
40826W        W 9156  40.386  13.675   1.903
40827W        W 9157  35.587  27.074   3.757
40828W        W 9158  21.611  23.700   3.210
40829W        W 9159  15.260  36.012   2.809
40830W        W 9160  17.629  24.141   1.894
40831W        W 9161  30.015  32.520  11.892
40832W        W 9162  44.491   1.878   4.803
40833W        W 9163   5.785   0.272  12.348
40834W        W 9164  28.515  18.070  13.355
40835W        W 9165  44.403  26.540  14.372
40836W        W 9166  38.953   1.793   3.683
40837W        W 9167  11.646   9.730  13.359
40838W        W 9168  34.448  21.057  12.831
40839W        W 9169  13.182  37.986   0.259
40840W        W 9170   5.420   1.349   2.867
40841W        W 9171  25.482  32.440  14.344
40842W        W 9172  36.049  42.400  10.928
40843W        W 9173  41.338  32.888  10.537
40844W        W 9174  10.814  27.004  11.547
40845W        W 9175  18.075   7.367   0.755
40846W        W 9176  39.065  39.808  10.553
40847W        W 9177  39.400  14.802  11.452
40848W        W 9178  22.542  18.138   4.292
40849W        W 9179  34.110  21.642   4.803
40850W        W 9180  32.578   8.887   0.918
40851W        W 9181  28.527  37.043   3.772
40852W        W 9182  37.468  41.344   3.229
40853W        W 9183   9.702   7.776  11.603
40854W        W 9184  44.855  37.004   0.956
40855W        W 9185  36.011   9.718   1.835
40856W        W 9186  43.966  36.973  13.519
40857W        W 9187  44.957  24.985   0.382
40858W        W 9188   7.717  36.025  12.073
40859W        W 9189   5.692  41.460   4.809
40860W        W 9190  19.256  30.919   4.264
40861W        W 9191  22.245   6.255   4.208
40862W        W 9192   8.350  11.184   3.149
40863W        W 9193  39.868  25.106  13.845
40864W        W 9194  23.223   8.199   0.462
40865W        W 9195  10.243  16.301   3.658
40866W        W 9196  31.902  19.629  10.606
40867W        W 9197  11.691   4.401   1.837
40868W        W 9198  28.631   5.844   1.793
40869W        W 9199  28.459  35.987   2.807
40870W        W 9200  19.242  29.552   1.229
40871W        W 9201  21.253  32.041  13.835
40872W        W 9202   0.265  18.261  11.937
40873W        W 9203  11.625   8.367  14.982
40874W        W 9204  19.093  14.202   3.651
40875W        W 9205   7.684  44.758   3.160
40876W        W 9206  17.754  43.768  11.385
40877W        W 9207  32.519  27.512   1.788
40878W        W 9208  14.202  41.928  14.461
40879W        W 9209  25.072  18.729  13.392
40880W        W 9210  37.028  34.045  13.971
40881W        W 9211  27.075  40.511  13.002
40882W        W 9212  21.598  14.739  10.429
40883W        W 9213  43.359  25.669  10.492
40884W        W 9214  32.103  43.487  11.612
40885W        W 9215  11.305  36.355   2.213
40886W        W 9216  20.762  26.957  11.482
40887W        W 9217   2.438  34.028  14.346
40888W        W 9218  21.050  22.006   2.240
40889W        W 9219  38.521  24.677  11.611
40890W        W 9220  35.568   8.834  14.949
40891W        W 9221  41.024  30.098   1.443
40892W        W 9222  33.082  12.332  11.597
40893W        W 9223  41.518  29.087   0.908
40894W        W 9224   3.289  21.588  10.591
40895W        W 9225  44.793  30.513  11.125
40896W        W 9226  13.747   3.720   4.796
40897W        W 9227  13.645  22.558  14.513
40898W        W 9228  13.269  35.497  12.576
40899W        W 9229   3.795  28.673  11.920
40900W        W 9230  35.992  29.920  14.844
40901W        W 9231  39.860   6.196   1.232
40902W        W 9232   1.822  16.612   0.879
40903W        W 9233  32.942  38.482   3.360
40904W        W 9234  13.171  13.126   1.726
40905W        W 9235   3.757   5.245  12.418
40906W        W 9236  35.372  35.371  14.886
40907W        W 9237  41.365  31.435  13.438
40908W        W 9238  22.671  22.743  13.799
40909W        W 9239  25.713  28.536   4.226
40910W        W 9240  13.205  42.429   4.257
40911W        W 9241  24.121  25.192   4.718
40912W        W 9242  25.575  16.708  12.386
40913W        W 9243  35.974  26.980  10.503
40914W        W 9244  37.039  28.121   3.682
40915W        W 9245  35.513  36.465  10.420
40916W        W 9246  39.539  33.622  13.817
40917W        W 9247  12.276  10.217   4.159
40918W        W 9248  36.983  36.475   3.325
40919W        W 9249  27.959   4.407   2.363
40920W        W 9250  22.208   3.955   0.914
40921W        W 9251   8.270   0.941  14.463
40922W        W 9252  21.225  43.794  14.378
40923W        W 9253  10.308  41.948  10.611
40924W        W 9254  44.415  23.678   4.237
40925W        W 9255  10.699  32.439   3.338
40926W        W 9256  40.949  36.937  13.438
40927W        W 9257  11.858  15.163   2.756
40928W        W 9258  25.184   1.424  12.379
40929W        W 9259  32.492  27.657   1.210
40930W        W 9260  21.206  10.704   4.321
40931W        W 9261  27.457  43.953   1.451
40932W        W 9262  25.476   5.816   2.862
40933W        W 9263  27.530  29.502  11.495
40934W        W 9264  19.188  16.619   2.396
40935W        W 9265  39.531  10.780  12.541
40936W        W 9266  21.094  21.046   9.937
40937W        W 9267  37.844  34.551   2.819
40938W        W 9268  32.907  26.625   1.267
40939W        W 9269  19.176   6.352  12.377
40940W        W 9270  41.422  29.986   2.182
40941W        W 9271  40.989   0.429   1.384
40942W        W 9272  18.225  26.986   4.166
40943W        W 9273  21.756  33.972   2.723
40944W        W 9274  27.463  42.478   0.389
40945W        W 9275   3.737   3.328   2.883
40946W        W 9276  24.186  34.492  14.405
40947W        W 9277  40.957  28.014   2.839
40948W        W 9278   3.278   4.208   2.280
40949W        W 9279  15.681  38.470  13.830
40950W        W 9280  42.397   2.828   3.641
40951W        W 9281  42.820  40.865   2.695
40952W        W 9282  36.507  30.644   1.348
40953W        W 9283  44.778   5.348   1.869
40954W        W 9284  38.380  27.192  14.378
40955W        W 9285  14.239  26.966   3.243
40956W        W 9286  11.702  38.488   0.821
40957W        W 9287   1.775  30.625  14.881
40958W        W 9288   5.873   2.915  11.093
40959W        W 9289  19.678  20.253  10.894
40960W        W 9290  30.143  39.844  14.809
40961W        W 9291   7.771  25.650  10.416
40962W        W 9292   4.844  43.858  14.855
40963W        W 9293  37.020  37.082   2.671
40964W        W 9294  34.033  30.476   4.686
40965W        W 9295  32.555  15.267   0.950
40966W        W 9296  18.268  35.961  11.857
40967W        W 9297  20.040  18.089   3.780
40968W        W 9298   0.843  23.517  14.856
40969W        W 9299  34.561  42.867   3.639
40970W        W 9300  33.054  26.594  13.859
40971W        W 9301  26.170  33.612   1.362
40972W        W 9302  29.631  25.585  13.969
40973W        W 9303  36.491  18.217   3.367
40974W        W 9304   9.320  30.006  13.364
40975W        W 9305   4.387  44.801  13.531
40976W        W 9306  15.782   7.327   3.804
40977W        W 9307  18.236  18.277  12.545
40978W        W 9308  10.338  43.443  10.104
40979W        W 9309  33.041  27.513   0.807
40980W        W 9310   7.309  21.124  13.387
40981W        W 9311   5.700  33.068   3.241
40982W        W 9312  38.893  30.521  10.581
40983W        W 9313  26.466  12.351   3.828
40984W        W 9314  24.983  11.338   5.297
40985W        W 9315  31.100  42.439   1.353
40986W        W 9316  42.389  37.014   1.429
40987W        W 9317  18.242  14.746  13.944
40988W        W 9318  31.910   4.793  13.411
40989W        W 9319   2.751  18.665   3.698
40990W        W 9320   4.207  21.071  13.453
40991W        W 9321  34.879   5.267  14.416
40992W        W 9322  40.329   6.875   1.733
40993W        W 9323   5.711  15.600   2.286
40994W        W 9324   7.800  11.130   1.316
40995W        W 9325  10.699  23.175   1.700
40996W        W 9326  34.880  14.298  11.992
40997W        W 9327  31.916  21.152  13.998
40998W        W 9328   3.790  33.542  10.622
40999W        W 9329  38.441   8.780  11.452
41000W        W 9330  11.766  41.429  10.928
41001W        W 9331  43.990  43.330  13.324
41002W        W 9332  35.885  17.102  12.011
41003W        W 9333   8.203  30.557   1.338
41004W        W 9334  41.346  18.117  11.594
41005W        W 9335  25.144  29.438   0.425
41006W        W 9336  15.802  15.671  14.981
41007W        W 9337   7.190  31.512  10.437
41008W        W 9338  37.371  23.998  13.946
41009W        W 9339  23.543  38.403   4.641
41010W        W 9340   0.333  18.556  12.961
41011W        W 9341  14.263   3.406  11.610
41012W        W 9342  22.521  40.041  10.899
41013W        W 9343  38.893  44.481  10.495
41014W        W 9344  10.210   2.441   1.694
41015W        W 9345  11.664   2.407   2.322
41016W        W 9346   2.790  23.126  11.392
41017W        W 9347  16.796  37.892   3.270
41018W        W 9348  24.987  23.026  14.004
41019W        W 9349  10.273  33.490  11.009
41020W        W 9350  32.087  28.153  11.855
41021W        W 9351  34.997  29.003  14.451
41022W        W 9352  15.784  21.609  12.535
41023W        W 9353  17.160   6.399  13.505
41024W        W 9354  15.683  16.081   1.341
41025W        W 9355  24.588  19.636  14.299
41026W        W 9356  42.337  17.617  11.974
41027W        W 9357   5.892  29.136   3.746
41028W        W 9358  44.337  18.191   2.884
41029W        W 9359  11.651  10.718  10.422
41030W        W 9360  30.565  27.646   2.200
41031W        W 9361  33.075   1.237   2.383
41032W        W 9362  36.552   8.244   2.701
41033W        W 9363  43.493   1.842   4.721
41034W        W 9364  38.419  23.627  11.078
41035W        W 9365  23.215  18.658  10.025
41036W        W 9366  39.843  25.493   3.151
41037W        W 9367  40.472  28.949  10.639
41038W        W 9368  24.687  31.461   1.729
41039W        W 9369  18.693  14.222   4.215
41040W        W 9370   3.739  10.731   3.247
41041W        W 9371  24.200  14.771   2.689
41042W        W 9372  41.975  30.973   4.224
41043W        W 9373  35.946   1.976   0.785
41044W        W 9374  22.592   4.305  13.435
41045W        W 9375  21.646  10.666  13.979
41046W        W 9376  28.538  17.709  11.441
41047W        W 9377   2.946  44.818   2.407
41048W        W 9378  33.553  40.855  11.911
41049W        W 9379  22.593  20.222  12.516
41050W        W 9380  31.581  37.939   2.697
41051W        W 9381   0.832  12.250   4.715
41052W        W 9382  17.676   3.835   0.831
41053W        W 9383  19.223  26.675  12.954
41054W        W 9384  23.634  13.221  14.476
41055W        W 9385   5.736   5.847   2.237
41056W        W 9386   9.261   4.713   5.232
41057W        W 9387  34.497  27.104  11.510
41058W        W 9388  12.718  19.133  14.835
41059W        W 9389  37.038  37.477   1.211
41060W        W 9390   4.727  17.187  11.041
41061W        W 9391  20.162  16.639  14.490
41062W        W 9392  25.534  23.039   1.323
41063W        W 9393  31.437  20.665  13.965
41064W        W 9394  17.142  17.194  11.547
41065W        W 9395  13.674   8.792   1.805
41066W        W 9396  44.782  23.566  13.819
41067W        W 9397  33.494  20.141   2.333
41068W        W 9398  30.042  30.094  12.973
41069W        W 9399  16.737   5.889  10.494
41070W        W 9400   5.246  30.936  10.535
41071W        W 9401  18.263  21.697   2.891
41072W        W 9402  38.535  13.711  14.936
41073W        W 9403  38.912  29.601   4.673
41074W        W 9404  37.447  41.476  12.527
41075W        W 9405  30.468  27.682   3.345
41076W        W 9406  38.337  38.448   2.320
41077W        W 9407  42.443  16.102  10.988
41078W        W 9408   7.713  34.046  12.861
41079W        W 9409  33.110  11.758   3.867
41080W        W 9410   5.879  32.962   2.882
41081W        W 9411  19.589  44.361   2.328
41082W        W 9412  15.137  25.680   4.616
41083W        W 9413   8.313  34.558  12.074
41084W        W 9414   4.209   2.888   4.610
41085W        W 9415  41.320  21.258  12.916
41086W        W 9416  11.338  14.336  14.766
41087W        W 9417  18.757   3.717   1.266
41088W        W 9418  41.498  23.653   2.398
41089W        W 9419  39.937  26.577  14.783
41090W        W 9420  18.695  40.856  14.457
41091W        W 9421  30.026   6.759  10.530
41092W        W 9422  33.618  29.450  10.465
41093W        W 9423  41.454   8.259   1.890
41094W        W 9424  28.943   1.840  11.098
41095W        W 9425  11.855  43.887  13.060
41096W        W 9426  43.867  19.162   4.163
41097W        W 9427   1.419  18.651   1.270
41098W        W 9428  31.591  27.609   2.356
41099W        W 9429  42.303  19.040   0.274
41100W        W 9430  37.501   2.448   1.427
41101W        W 9431   0.899  34.049  10.464
41102W        W 9432  19.641  31.912  12.086
41103W        W 9433  32.997   0.330  14.905
41104W        W 9434  37.577   8.730  12.524
41105W        W 9435  37.940   7.367  14.274
41106W        W 9436  15.709  40.828   0.848
41107W        W 9437  33.073   2.345  12.874
41108W        W 9438  34.464  41.942  11.420
41109W        W 9439  17.192  19.671   4.655
41110W        W 9440   7.868  11.634   3.631
41111W        W 9441  20.033  10.694  13.406
41112W        W 9442  22.187  35.971   0.797
41113W        W 9443  12.218   8.273   2.279
41114W        W 9444   4.793  13.828  12.355
41115W        W 9445  13.816  19.629  13.864
41116W        W 9446  36.441  29.072  10.897
41117W        W 9447  44.828  14.262  12.905
41118W        W 9448  32.129  15.241  14.403
41119W        W 9449  40.538  35.863   0.785
41120W        W 9450  11.719   9.250  10.502
41121W        W 9451   6.778   8.667   3.739
41122W        W 9452  13.257   0.763  10.588
41123W        W 9453  33.031  27.986  12.365
41124W        W 9454  21.566  33.079   1.826
41125W        W 9455  19.215  15.618   1.732
41126W        W 9456  27.513   1.911  10.537
41127W        W 9457  11.300  10.296   0.830
41128W        W 9458   0.856   7.811  10.441
41129W        W 9459  11.316  20.230  14.295
41130W        W 9460  12.164  19.761  14.913
41131W        W 9461  33.499   9.366  11.027
41132W        W 9462  31.541  41.861   3.338
41133W        W 9463  21.567   5.857  14.480
41134W        W 9464   4.768   9.359   2.278
41135W        W 9465  10.266  26.972  14.309
41136W        W 9466  32.409  31.143  13.321
41137W        W 9467   9.692  34.005  14.829
41138W        W 9468  37.917   9.345   0.422
41139W        W 9469  27.948  28.574  11.483
41140W        W 9470   1.357  33.966  12.521
41141W        W 9471  17.800  10.143  10.140
41142W        W 9472  10.743  20.072  10.608
41143W        W 9473   0.322  14.830   1.352
41144W        W 9474  37.521   6.690   0.762
41145W        W 9475   3.274  34.024  14.985
41146W        W 9476  21.715  17.082   0.296
41147W        W 9477  15.671  42.467   2.748
41148W        W 9478  27.600   5.804  12.910
41149W        W 9479   8.260   3.326  14.406
41150W        W 9480  42.497   3.902   2.231
41151W        W 9481  14.110  27.153  14.347
41152W        W 9482  28.165  31.474   1.268
41153W        W 9483  29.612  11.839   2.392
41154W        W 9484  31.929  28.627  11.496
41155W        W 9485  10.635   8.768   0.947
41156W        W 9486   8.328  22.666   0.872
41157W        W 9487   4.414  44.261   4.235
41158W        W 9488  15.581  41.007  11.016
41159W        W 9489  23.986  30.456  14.484
41160W        W 9490  18.638  29.013   0.867
41161W        W 9491  43.964  12.132  13.385
41162W        W 9492  17.723  26.151   4.719
41163W        W 9493  28.089  29.617   0.346
41164W        W 9494  19.769   1.454  11.030
41165W        W 9495  37.947  11.203   1.392
41166W        W 9496  39.949  27.027   2.357
41167W        W 9497   2.231  30.540   4.351
41168W        W 9498  23.004  27.575  12.374
41169W        W 9499  16.318  30.035   3.375
41170W        W 9500  33.460   2.375   4.835
41171W        W 9501   7.172   0.749  13.927
41172W        W 9502  23.643  33.406  13.815
41173W        W 9503  34.009  24.058  10.924
41174W        W 9504   2.412   1.879  12.923
41175W        W 9505  29.024  19.766   3.204
41176W        W 9506  26.575  27.192  11.870
41177W        W 9507  24.570  17.301  10.616
41178W        W 9508  40.544  16.719   4.226
41179W        W 9509  25.156   9.381  13.330
41180W        W 9510  26.192  17.285  13.016
41181W        W 9511   4.873  34.009   3.666
41182W        W 9512  26.609  43.989   3.268
41183W        W 9513  34.095   9.345   0.257
41184W        W 9514   6.837  13.840  11.573
41185W        W 9515  41.846  24.108   2.270
41186W        W 9516  41.504  44.273  12.018
41187W        W 9517  38.484  16.706   0.391
41188W        W 9518  19.770  29.577  10.123
41189W        W 9519  18.762  11.346   3.822
41190W        W 9520  33.088  20.547   0.432
41191W        W 9521  25.635   8.733  12.562
41192W        W 9522  28.530   2.297   4.818
41193W        W 9523  11.338   4.859  13.450
41194W        W 9524   0.770  29.646  11.064
41195W        W 9525  16.315  20.632  14.361
41196W        W 9526  43.359   4.321   0.896
41197W        W 9527  11.862  23.040  14.489
41198W        W 9528  22.515  18.107   9.477
41199W        W 9529  21.114   9.162   3.267
41200W        W 9530   1.733  31.916  10.088
41201W        W 9531  19.165  17.162  11.399
41202W        W 9532  21.702  32.081  12.368
41203W        W 9533  44.482  21.590   0.870
41204W        W 9534  19.072  26.991  10.577
41205W        W 9535  18.136  18.183  11.439
41206W        W 9536   0.797  16.633  13.389
41207W        W 9537  42.325  20.097   1.249
41208W        W 9538   0.818  42.855  14.839
41209W        W 9539   9.682  34.522  12.858
41210W        W 9540  39.519  32.515   1.327
41211W        W 9541  25.669   4.360  10.406
41212W        W 9542  18.697  22.518  11.373
41213W        W 9543  43.847  39.052   4.145
41214W        W 9544  10.805   9.764  12.848
41215W        W 9545  29.658   3.396   0.471
41216W        W 9546  37.559  33.019   1.305
41217W        W 9547   1.745  42.996  13.797
41218W        W 9548  13.812   5.854   0.427
41219W        W 9549  37.459  42.996  10.941
41220W        W 9550  44.367   7.226   2.785
41221W        W 9551  28.163   4.917   2.678
41222W        W 9552  35.495  19.268   0.443
41223W        W 9553  44.763  20.040  14.006
41224W        W 9554  12.160  16.628   3.372
41225W        W 9555  36.916  21.682   0.248
41226W        W 9556  26.636   5.814  12.830
41227W        W 9557  11.707  35.395   4.724
41228W        W 9558  40.826  24.978   3.211
41229W        W 9559  36.883   8.332  14.467
41230W        W 9560  11.659  15.767  13.486
41231W        W 9561  38.888  44.780   3.658
41232W        W 9562  10.740  37.989  13.373
41233W        W 9563  36.926  27.091  14.888
41234W        W 9564  33.424  41.796   2.317
41235W        W 9565  36.999  13.659  14.005
41236W        W 9566  17.204   5.361   4.815
41237W        W 9567   0.774  34.551   0.732
41238W        W 9568  39.548   4.769  12.970
41239W        W 9569  29.471  24.022  14.395
41240W        W 9570   2.393   3.763  11.527
41241W        W 9571  15.142   2.301   3.759
41242W        W 9572  43.785  37.877  12.500
41243W        W 9573  10.272  24.080  14.428
41244W        W 9574  32.477  24.193  12.544
41245W        W 9575  12.244  44.258   2.686
41246W        W 9576  40.513  10.645  12.829
41247W        W 9577  20.257  17.562   5.137
41248W        W 9578  42.791  44.866  13.344
41249W        W 9579  29.559  13.158  11.514
41250W        W 9580  32.044   0.845   1.345
41251W        W 9581  21.530  41.933  11.861
41252W        W 9582  37.849  42.866  12.081
41253W        W 9583  13.274  19.060  10.605
41254W        W 9584  42.523   4.264  14.459
41255W        W 9585  33.402  14.233  13.474
41256W        W 9586   5.798  41.817  13.817
41257W        W 9587  21.212  27.450  11.433
41258W        W 9588  22.248  24.612  10.946
41259W        W 9589  39.379   2.250   1.304
41260W        W 9590   8.790  10.287   3.767
41261W        W 9591  11.646  11.709   0.250
41262W        W 9592  26.645  25.059  11.513
41263W        W 9593  23.014   1.801   3.181
41264W        W 9594  21.201  36.921   2.297
41265W        W 9595  27.179  36.863   0.367
41266W        W 9596   3.394  40.543  11.527
41267W        W 9597  15.148  12.193   3.384
41268W        W 9598  26.111  36.564   0.816
41269W        W 9599  26.989   7.267   1.316
41270W        W 9600   5.819  14.305   3.813
41271W        W 9601  39.880   4.875  13.834
41272W        W 9602  25.087  43.776  12.389
41273W        W 9603  12.790  15.813  11.424
41274W        W 9604  18.214   9.808   0.923
41275W        W 9605  12.297   1.902   4.807
41276W        W 9606   7.329  10.241   0.869
41277W        W 9607  37.981   6.737  12.461
41278W        W 9608  27.951  22.207   1.419
41279W        W 9609   9.323   5.225  12.539
41280W        W 9610  44.954  29.630   0.428
41281W        W 9611   2.425  26.005   3.285
41282W        W 9612  35.861  36.956   3.224
41283W        W 9613  11.820  30.589   5.165
41284W        W 9614  21.178   9.791   3.812
41285W        W 9615   2.439   5.287   4.189
41286W        W 9616  36.939   5.761  14.483
41287W        W 9617  15.658  19.085  14.904
41288W        W 9618  19.153  28.985   0.278
41289W        W 9619  18.680  11.259   0.756
41290W        W 9620   9.324   1.855  10.442
41291W        W 9621   0.942   5.786  14.469
41292W        W 9622  43.955   0.750   3.364
41293W        W 9623  44.943  10.727  12.077
41294W        W 9624  23.554  32.533   2.791
41295W        W 9625  25.016  24.512   2.827
41296W        W 9626  42.019  31.925  13.969
41297W        W 9627  10.153  14.148  13.378
41298W        W 9628  44.405  19.113   0.447
41299W        W 9629   4.429  39.808   0.912
41300W        W 9630   9.798  32.900  10.902
41301W        W 9631  44.852  14.188   0.356
41302W        W 9632  19.213  18.605   4.606
41303W        W 9633  11.815  29.936  12.516
41304W        W 9634  33.923  10.644  14.388
41305W        W 9635  29.028  26.035  11.890
41306W        W 9636   5.294  16.710  11.920
41307W        W 9637  19.247  44.800   4.275
41308W        W 9638  32.423  39.869   4.605
41309W        W 9639  16.781  44.868  11.389
41310W        W 9640  24.160   1.356   0.265
41311W        W 9641  20.193   0.434  14.502
41312W        W 9642   0.880  24.677  11.066
41313W        W 9643  39.508  41.904  12.501
41314W        W 9644   8.783  28.145  11.017
41315W        W 9645  35.005  18.088   1.418
41316W        W 9646   1.919  20.626   4.202
41317W        W 9647  31.064  35.460   3.361
41318W        W 9648  20.202  32.617   4.278
41319W        W 9649  21.577  35.520  10.421
41320W        W 9650   1.439   9.294   1.849
41321W        W 9651  18.642  16.084  10.469
41322W        W 9652  11.127  39.958  13.024
41323W        W 9653  33.474  39.450   3.851
41324W        W 9654  30.446   7.743  13.988
41325W        W 9655  23.578  17.228   2.289
41326W        W 9656  37.397  18.632   0.946
41327W        W 9657  42.418  37.003   3.708
41328W        W 9658  39.388  35.381  11.014
41329W        W 9659  15.261  25.501   0.836
41330W        W 9660  41.330   8.301   1.261
41331W        W 9661  12.137   4.827   2.677
41332W        W 9662  36.981   4.926  11.969
41333W        W 9663  36.448   1.328   4.751
41334W        W 9664  39.418  37.497  14.341
41335W        W 9665   3.340  14.747   2.818
41336W        W 9666  10.210  27.149   0.783
41337W        W 9667  30.456  33.965   0.914
41338W        W 9668  36.593   4.925  13.943
41339W        W 9669  25.125  28.553  13.412
41340W        W 9670  34.495  41.382   3.843
41341W        W 9671  18.559  11.821   4.340
41342W        W 9672   2.840  14.146   4.781
41343W        W 9673  34.579  27.085  13.344
41344W        W 9674  25.036  33.882  13.430
41345W        W 9675  29.482  33.473   3.384
41346W        W 9676  18.139  33.481  11.561
41347W        W 9677  43.270  44.894  13.497
41348W        W 9678   3.838  16.142   4.205
41349W        W 9679   9.221  39.493   4.273
41350W        W 9680  43.932   5.689  13.927
41351W        W 9681   5.209  39.551   4.177
41352W        W 9682  37.548   2.298  10.451
41353W        W 9683  42.828  41.865   2.298
41354W        W 9684  42.904  22.618  11.562
41355W        W 9685  41.834  33.493  11.428
41356W        W 9686  44.434  10.719   4.206
41357W        W 9687  31.135  19.268  13.349
41358W        W 9688  41.414   2.446   3.357
41359W        W 9689  26.187  12.229  13.326
41360W        W 9690  13.296   0.357  14.010
41361W        W 9691  44.855  29.956  10.546
41362W        W 9692  22.551   5.923  12.843
41363W        W 9693   3.950  15.262   4.269
41364W        W 9694  32.010  16.795   4.618
41365W        W 9695  17.290  32.617  10.420
41366W        W 9696  21.698  40.447   0.858
41367W        W 9697  40.534  42.433  11.991
41368W        W 9698  40.904  31.496  14.474
41369W        W 9699  28.181  36.990   1.714
41370W        W 9700  28.529   6.391  10.545
41371W        W 9701   1.381  33.892   0.820
41372W        W 9702   8.307  13.749  14.325
41373W        W 9703  13.302  29.652   5.297
41374W        W 9704  11.718  20.036   2.891
41375W        W 9705  28.039   7.681  11.373
41376W        W 9706  41.013  10.184   3.630
41377W        W 9707  40.853  21.059   4.312
41378W        W 9708  22.030  18.790  10.139
41379W        W 9709  15.087  20.166   3.271
41380W        W 9710  33.546  31.017   3.315
41381W        W 9711  33.124  14.653  11.968
41382W        W 9712  18.753  44.405  11.549
41383W        W 9713  19.676   7.257  11.463
41384W        W 9714   6.182  26.691   2.663
41385W        W 9715  19.536  23.167  14.307
41386W        W 9716   1.854  13.711   1.328
41387W        W 9717   6.813  27.580  13.004
41388W        W 9718  14.281  29.574   3.228
41389W        W 9719  39.946   3.230  10.517
41390W        W 9720  44.967  31.994   0.354
41391W        W 9721  26.490  37.987   5.127
41392W        W 9722  40.402  17.752  10.431
41393W        W 9723  34.380  15.097  12.074
41394W        W 9724   3.827  27.968  11.934
41395W        W 9725  19.205   0.281  12.417
41396W        W 9726  11.727  32.452   2.843
41397W        W 9727  43.418   2.869  10.990
41398W        W 9728  18.657  14.329   2.773
41399W        W 9729  34.612  12.775  13.873
41400W        W 9730  33.087  12.684   2.216
41401W        W 9731  25.180  40.376  13.434
41402W        W 9732  33.127  30.489   1.290
41403W        W 9733  26.986  29.128  11.010
41404W        W 9734   3.280  42.858  11.568
41405W        W 9735   3.449  12.789  11.877
41406W        W 9736  26.967  19.562  13.943
41407W        W 9737  14.591  37.865   0.419
41408W        W 9738  28.159  28.139   3.145
41409W        W 9739  11.677  19.195  10.939
41410W        W 9740  26.003   4.750   3.637
41411W        W 9741  42.880  21.262   1.803
41412W        W 9742  36.918   1.861  11.467
41413W        W 9743  21.109  12.788   2.691
41414W        W 9744  23.218   4.874   0.388
41415W        W 9745   7.305  25.029   4.160
41416W        W 9746   0.865   0.452  13.821
41417W        W 9747  36.984  35.510  10.927
41418W        W 9748   2.370  24.031  14.850
41419W        W 9749  27.101  37.556   2.727
41420W        W 9750  17.795   5.243  14.968
41421W        W 9751  29.141  34.996  13.479
41422W        W 9752   4.803  19.738  14.884
41423W        W 9753  34.090   6.414  10.995
41424W        W 9754  41.432  26.103  11.421
41425W        W 9755  21.204  41.879   4.682
41426W        W 9756  29.669  28.466  14.919
41427W        W 9757  21.138   3.286   1.842
41428W        W 9758  24.612  42.937  12.532
41429W        W 9759  42.832  26.632  14.274
41430W        W 9760  13.173   9.766   4.299
41431W        W 9761   6.403  23.171  14.278
41432W        W 9762  11.278  28.452   3.852
41433W        W 9763  27.495  10.740   2.279
41434W        W 9764   0.392  15.224  13.389
41435W        W 9765   9.324  36.932  11.387
41436W        W 9766   2.254  13.804   0.449
41437W        W 9767  20.764  37.840  14.819
41438W        W 9768  33.411  17.711   4.634
41439W        W 9769  40.045  43.952  12.369
41440W        W 9770   3.759  36.589  14.911
41441W        W 9771  38.936   9.238  10.642
41442W        W 9772   8.769  17.096   4.724
41443W        W 9773  41.013  24.201  12.836
41444W        W 9774  28.644  37.009   1.215
41445W        W 9775   0.829  13.232   1.412
41446W        W 9776  25.658  31.612  13.453
41447W        W 9777   7.323   6.338  11.070
41448W        W 9778  26.115  28.662  11.397
41449W        W 9779  11.149  20.242  10.484
41450W        W 9780  28.979   1.447   3.764
41451W        W 9781   9.686  13.146  13.868
41452W        W 9782  18.700   7.269  12.902
41453W        W 9783  31.446   7.753  14.485
41454W        W 9784  26.518   2.341   1.406
41455W        W 9785  27.553  17.237   2.300
41456W        W 9786  23.192  42.802  12.558
41457W        W 9787  14.131  27.993  13.546
41458W        W 9788  28.132  29.139  14.786
41459W        W 9789  21.517   2.441   2.214
41460W        W 9790  35.369  34.878  12.880
41461W        W 9791  12.656  33.885  13.866
41462W        W 9792  25.536   9.259   2.407
41463W        W 9793  36.513  19.574   5.201
41464W        W 9794  37.525  31.523   2.360
41465W        W 9795  22.661  24.226   4.613
41466W        W 9796  44.967   8.206   2.849
41467W        W 9797  32.634  43.937  14.405
41468W        W 9798  26.537  41.393  11.025
41469W        W 9799  14.819  41.918  14.387
41470W        W 9800  37.436  10.712  13.981
41471W        W 9801  21.661   8.196   9.927
41472W        W 9802  14.113   1.289   1.877
41473W        W 9803  44.908   6.743  11.874
41474W        W 9804  10.873  31.055   4.671
41475W        W 9805   9.388  13.825   0.871
41476W        W 9806  33.016   7.175  13.820
41477W        W 9807  14.613  15.662  13.856
41478W        W 9808   3.920  29.006   3.815
41479W        W 9809  23.074  31.073  13.312
41480W        W 9810  16.175  38.497   0.908
41481W        W 9811  28.989   3.220   2.319
41482W        W 9812  21.080  16.705   9.620
41483W        W 9813  38.566  28.608   0.803
41484W        W 9814  20.115  35.583  13.403
41485W        W 9815  31.458  22.228  13.829
41486W        W 9816  13.623  16.678   3.826
41487W        W 9817  32.053  30.605   3.638
41488W        W 9818  11.337   3.797  14.355
41489W        W 9819  23.586  13.706  10.408
41490W        W 9820  36.461  17.583   4.756
41491W        W 9821   1.899  20.738  14.276
41492W        W 9822  24.710  44.886   4.272
41493W        W 9823   1.434  10.850  12.850
41494W        W 9824  11.311  42.288   1.926
41495W        W 9825   8.163  28.981  11.085
41496W        W 9826  28.517  12.345   5.695
41497W        W 9827  12.611  13.251  11.877
41498W        W 9828  31.922  21.630  14.474
41499W        W 9829  41.311  17.674   0.446
41500W        W 9830  15.793  39.876   1.361
41501W        W 9831  43.416  40.488  10.510
41502W        W 9832   6.218  34.609  10.634
41503W        W 9833   4.331  30.032  14.326
41504W        W 9834  15.732   9.242  14.817
41505W        W 9835  33.431  20.611   9.929
41506W        W 9836   3.401  24.650   3.699
41507W        W 9837  11.678  35.890  14.954
41508W        W 9838  12.731   3.714   4.178
41509W        W 9839  28.519  12.827   9.468
41510W        W 9840  26.538  18.243   0.360
41511W        W 9841   4.341  38.832   4.219
41512W        W 9842   5.329  15.296   4.155
41513W        W 9843  23.089  18.676  10.571
41514W        W 9844   0.469   5.734   0.734
41515W        W 9845  22.190  42.902  11.586
41516W        W 9846  38.891  17.785  11.462
41517W        W 9847  19.167  18.592   1.766
41518W        W 9848  27.087  34.370   1.239
41519W        W 9849  28.045  21.103  10.624
41520W        W 9850  13.837   3.939  14.412
41521W        W 9851  19.754  35.565  11.597
41522W        W 9852  33.442  20.221   1.905
41523W        W 9853  40.024  10.277   2.284
41524W        W 9854   5.723  41.991   2.190
41525W        W 9855  13.204  36.019   4.204
41526W        W 9856  33.041  42.330  12.026
41527W        W 9857  23.220  27.495   3.711
41528W        W 9858  34.031  22.512   0.759
41529W        W 9859  35.035  25.523  11.954
41530W        W 9860  20.088  26.577  14.772
41531W        W 9861  13.806  36.587  12.372
41532W        W 9862  41.995  18.213   2.793
41533W        W 9863  25.631  10.708   0.311
41534W        W 9864  31.123  39.998   2.757
41535W        W 9865   6.320  41.796   4.145
41536W        W 9866  26.552  13.172  14.281
41537W        W 9867  28.089  34.615   3.713
41538W        W 9868  33.082  30.058  11.405
41539W        W 9869  13.761  35.410   1.260
41540W        W 9870  35.439  24.539   3.728
41541W        W 9871  16.256  43.302  10.432
41542W        W 9872  44.300  14.098  11.937
41543W        W 9873   4.265  11.754   3.848
41544W        W 9874  31.939  40.426   5.280
41545W        W 9875  32.045  13.319  14.829
41546W        W 9876   1.904  11.867  13.409
41547W        W 9877   4.874  31.116   0.256
41548W        W 9878  44.328  30.985   0.463
41549W        W 9879  10.372  40.806   0.735
41550W        W 9880   7.362  26.548   4.258
41551W        W 9881  31.914  36.568   2.281
41552W        W 9882  17.746   3.744   1.305
41553W        W 9883  16.794   8.724  14.292
41554W        W 9884  14.161  15.195  10.550
41555W        W 9885  39.851  15.152  12.431
41556W        W 9886  31.535  29.544   3.755
41557W        W 9887  30.428  20.683   2.308
41558W        W 9888  35.000   0.834   3.170
41559W        W 9889  24.631  36.436  14.490
41560W        W 9890  20.691  13.309   1.219
41561W        W 9891  36.399  37.918   2.674
41562W        W 9892  16.168  18.250  12.074
41563W        W 9893  17.189   9.700   3.367
41564W        W 9894  41.817  20.098  11.517
41565W        W 9895  19.230  34.047   1.720
41566W        W 9896  37.019  14.704   2.876
41567W        W 9897  26.970  14.806  12.553
41568W        W 9898  39.349  38.507  12.023
41569W        W 9899  15.721   1.324   0.404
41570W        W 9900   1.893   4.280   3.727
41571W        W 9901   0.418  19.047   2.891
41572W        W 9902  36.531   1.762   1.765
41573W        W 9903  39.354   8.395  12.061
41574W        W 9904  11.365  26.973  14.446
41575W        W 9905  24.176  43.795   3.310
41576W        W 9906  14.330  27.996   2.687
41577W        W 9907  36.995  34.013  14.951
41578W        W 9908  24.072   1.795   3.665
41579W        W 9909  18.778  13.685   4.190
41580W        W 9910   2.258   4.328   3.645
41581W        W 9911  27.458   4.369  13.541
41582W        W 9912   4.220  13.710   2.885
41583W        W 9913  25.193  18.274   4.660
41584W        W 9914  14.657  43.381   4.331
41585W        W 9915   9.244   6.765   0.369
41586W        W 9916   5.711  22.558   4.322
41587W        W 9917  31.991  39.557   1.347
41588W        W 9918  20.742  31.482  12.477
41589W        W 9919  44.320   0.418   4.617
41590W        W 9920  25.068  19.044  13.470
41591W        W 9921  20.194  22.655   0.740
41592W        W 9922  33.385  44.882   0.442
41593W        W 9923   2.765  13.205  13.870
41594W        W 9924  25.663   9.361  10.578
41595W        W 9925  30.611  21.533  10.017
41596W        W 9926  43.997  39.380  11.940
41597W        W 9927   5.319  39.341  13.970
41598W        W 9928  38.932  37.872   1.302
41599W        W 9929  20.525  28.186   5.285
41600W        W 9930  40.997  43.311  13.542
41601W        W 9931  31.901   9.389   0.939
41602W        W 9932  17.142  32.105   2.898
41603W        W 9933  44.408  12.222   4.328
41604W        W 9934  11.674   3.318  12.860
41605W        W 9935  40.020  22.160  11.105
41606W        W 9936   6.392  20.684  12.414
41607W        W 9937  19.175   9.878   0.790
41608W        W 9938  27.488  31.076   4.318
41609W        W 9939  37.869   7.904  13.797
41610W        W 9940  35.037  40.463   2.710
41611W        W 9941  33.590  15.602   2.671
41612W        W 9942   2.308  34.577   4.815
41613W        W 9943  22.629  29.943  12.909
41614W        W 9944  33.495  15.757   3.723
41615W        W 9945  33.601  14.765   3.784
41616W        W 9946  20.081  19.655  10.034
41617W        W 9947  44.424  30.497   0.481
41618W        W 9948  29.540  19.266  13.418
41619W        W 9949  42.848   8.217   3.720
41620W        W 9950  37.030  12.234   4.717
41621W        W 9951  23.237  36.972   0.294
41622W        W 9952  21.253   2.890   0.441
41623W        W 9953  37.467  21.238  13.829
41624W        W 9954  13.232  12.175  13.452
41625W        W 9955  32.442  39.014  14.009
41626W        W 9956  16.205  29.005  11.392
41627W        W 9957  19.735  22.227   2.227
41628W        W 9958  38.455  10.182  10.644
41629W        W 9959  26.081  26.495   2.263
41630W        W 9960  29.035  16.249  12.426
41631W        W 9961  37.479   8.860  14.411
41632W        W 9962   1.430  43.405  12.994
41633W        W 9963   6.731  37.912   4.696
41634W        W 9964  12.749  29.582  13.436
41635W        W 9965  34.090  29.970  10.532
41636W        W 9966  20.698  25.133  14.009
41637W        W 9967   0.973   8.227  12.973
41638W        W 9968  11.138  15.759  12.379
41639W        W 9969  28.988  15.287   2.376
41640W        W 9970  16.747  43.793   1.351
41641W        W 9971  35.865  35.546  11.128
41642W        W 9972  38.483  29.976  14.905
41643W        W 9973  36.466  19.080  14.906
41644W        W 9974  41.522  26.596   2.830
41645W        W 9975   5.349  35.511  13.990
41646W        W 9976   4.320  32.529  14.403
41647W        W 9977  22.603  15.245  10.105
41648W        W 9978   9.227  30.612  14.418
41649W        W 9979  31.590  35.904  13.958
41650W        W 9980   7.865   3.925  14.849
41651W        W 9981  37.531  12.125   2.777
41652W        W 9982  37.878  15.662   3.729
41653W        W 9983  36.375  17.663  12.955
41654W        W 9984  24.186  39.848   1.711
41655W        W 9985  34.896  40.905   0.430
41656W        W 9986  36.554   5.747   1.797
41657W        W 9987  33.399   1.452   3.295
41658W        W 9988  40.422  17.209  13.008
41659W        W 9989  44.910  14.195   3.168
41660W        W 9990   6.279  30.088   2.807
41661W        W 9991  17.171  39.366  10.598
41662W        W 9992  22.700   3.391  13.958
41663W        W 9993   0.811  15.313   3.363
41664W        W 9994  33.387  33.068  14.496
41665W        W 9995  37.553  27.014  13.493
41666W        W 9996  41.480  31.407  13.873
41667W        W 9997  34.922  31.124  12.521
41668W        W 9998  30.606   9.349  12.502
41669W        W 9999   7.684  34.586  11.603
41670W        W10000  20.628  33.958   1.820
41671W        W10001  12.730  42.287  10.516
41672W        W10002  35.415   6.843   2.186
41673W        W10003  20.200  21.255   2.221
41674W        W10004  30.626  23.023  13.975
41675W        W10005  16.721  24.621  13.418
41676W        W10006  10.189   1.837   0.368
41677W        W10007  20.624  17.164   4.749
41678W        W10008  27.092   9.359  10.468
41679W        W10009  40.014  40.855   3.246
41680W        W10010  32.995   1.320   0.333
41681W        W10011  21.663  38.348  11.978
41682W        W10012  24.558  14.259  12.462
41683W        W10013  25.005  24.681  10.961
41684W        W10014   8.351  43.457  12.976
41685W        W10015   5.814  22.702   0.393
41686W        W10016  10.347  28.981  11.509
41687W        W10017  32.487  19.189  14.812
41688W        W10018  24.688  21.606  11.555
41689W        W10019  17.221  40.991  11.548
41690W        W10020   5.873  33.418  12.529
41691W        W10021  16.637  16.259   0.812
41692W        W10022  44.936  29.643   4.672
41693W        W10023  24.076  43.443   3.207
41694W        W10024  44.758  28.147  10.986
41695W        W10025  33.895   0.825  12.893
41696W        W10026  33.438  19.095  13.535
41697W        W10027  11.685  35.462  11.552
41698W        W10028  38.487  43.961  11.962
41699W        W10029   3.330  40.898   1.433
41700W        W10030  12.675   3.841  12.507
41701W        W10031   9.671  18.106  13.878
41702W        W10032  20.249  37.956  10.431
41703W        W10033  31.615  23.234  11.942
41704W        W10034  38.547  36.077  10.634
41705W        W10035  43.980  44.891   3.832
41706W        W10036  14.765  13.837   0.840
41707W        W10037  20.216   4.261   3.844
41708W        W10038  41.880  13.777  14.363
41709W        W10039  41.515  39.963  11.913
41710W        W10040  31.479   5.218  13.957
41711W        W10041   8.297   3.828  11.397
41712W        W10042  29.138   0.791   3.862
41713W        W10043  19.691  23.586  13.543
41714W        W10044  40.410  31.509   0.931
41715W        W10045  13.602  32.965   0.278
41716W        W10046   4.742  37.061   0.280
41717W        W10047  20.604   7.197   0.358
41718W        W10048  43.841  23.118   4.623
41719W        W10049  28.013  13.641   2.404
41720W        W10050   0.419   8.810  12.494
41721W        W10051  11.332  35.882   2.853
41722W        W10052  35.540   1.243   3.149
41723W        W10053  27.100  20.202   2.378
41724W        W10054  40.334  18.627   2.333
41725W        W10055  10.823  13.274  13.035
41726W        W10056   9.722  41.903  13.510
41727W        W10057  43.799  38.567  12.556
41728W        W10058  24.106  35.997   2.678
41729W        W10059  18.105  26.589   1.275
41730W        W10060  30.140  14.676   4.724
41731W        W10061  30.128  18.591   2.329
41732W        W10062  14.597   6.260   3.677
41733W        W10063  43.358  19.735   2.293
41734W        W10064  35.388  38.998  11.016
41735W        W10065  19.237   5.800  13.479
41736W        W10066   7.397   1.881  10.529
41737W        W10067  18.762  24.105  14.788
41738W        W10068  36.899  43.286   3.847
41739W        W10069  43.399   8.404   1.423
41740W        W10070  16.255   2.417  13.832
41741W        W10071  36.496  39.829   3.387
41742W        W10072   0.751  20.595  10.605
41743W        W10073  23.724   2.405  12.847
41744W        W10074   8.198  31.642  10.911
41745W        W10075  20.585  37.962  13.374
41746W        W10076   4.268  20.118  12.087
41747W        W10077  42.871  29.027   1.850
41748W        W10078  15.206   7.235  14.324
41749W        W10079  16.100  20.731   2.834
41750W        W10080  18.725  31.484  14.839
41751W        W10081   0.843  40.452  11.050
41752W        W10082  15.628  40.992   3.351
41753W        W10083   5.219  39.526  14.449
41754W        W10084  25.707  34.549  11.399
41755W        W10085  21.197  41.344  14.395
41756W        W10086  30.067  20.632  10.580
41757W        W10087  36.483   3.928   2.874
41758W        W10088  43.275   3.863  13.977
41759W        W10089  34.049  30.596   2.742
41760W        W10090  24.171  14.785  12.052
41761W        W10091  37.856   5.845   4.137
41762W        W10092   4.438  28.496  12.574
41763W        W10093  26.979  27.975  11.427
41764W        W10094   4.700   5.210  14.799
41765W        W10095   6.206  28.050  12.553
41766W        W10096  11.333  43.872  12.077
41767W        W10097  28.449   2.227  13.970
41768W        W10098  25.693  37.389  10.580
41769W        W10099  42.492  33.983  14.760
41770W        W10100   2.897  11.274   3.645
41771W        W10101  16.244   7.773   4.601
41772W        W10102  41.835  33.967   3.158
41773W        W10103  12.736  15.094   4.191
41774W        W10104  13.706   9.387   0.832
41775W        W10105  17.692  33.904   2.206
41776W        W10106  23.720  22.215   2.275
41777W        W10107  31.535  10.718  14.872
41778W        W10108   1.941  27.595   3.195
41779W        W10109   6.394   3.233  11.951
41780W        W10110  24.193   4.345   1.864
41781W        W10111  13.290   8.775   5.132
41782W        W10112  38.971  39.449   4.790
41783W        W10113  20.099  39.527  10.464
41784W        W10114  22.664  15.268   4.802
41785W        W10115  32.618  11.750  12.915
41786W        W10116  40.999  16.771   2.273
41787W        W10117  10.345  16.647   0.884
41788W        W10118   9.859  30.482  12.577
41789W        W10119  25.173  26.470   3.290
41790W        W10120  19.173  39.387   0.727
41791W        W10121  11.374  34.014  12.524
41792W        W10122   2.430  22.732   2.836
41793W        W10123  23.169  18.239  11.119
41794W        W10124  20.115  28.940   1.244
41795W        W10125  41.035  20.756  14.820
41796W        W10126  14.106  24.146   0.932
41797W        W10127  12.719  30.069   4.755
41798W        W10128  18.638  24.644  14.813
41799W        W10129  24.986  28.467  10.923
41800W        W10130  20.587   6.322  11.524
41801W        W10131  21.053   3.826  14.513
41802W        W10132  26.196   4.841   4.135
41803W        W10133  37.895   4.438  13.949
41804W        W10134  26.667  17.170  14.898
41805W        W10135  18.730  31.440  10.583
41806W        W10136  30.535  11.735   0.833
41807W        W10137  34.394  33.403  13.834
41808W        W10138   4.829  35.523  14.843
41809W        W10139  20.575   2.362  13.992
41810W        W10140  15.246   2.835  13.528
41811W        W10141  33.536  18.141  10.911
41812W        W10142  13.249  40.465  12.028
41813W        W10143   0.368  34.969   1.413
41814W        W10144  29.043   7.396   2.393
41815W        W10145  29.462  36.558   4.601
41816W        W10146   9.334  26.014  10.416
41817W        W10147  26.600  18.279   4.625
41818W        W10148   3.311   0.268   2.766
41819W        W10149  27.083  23.993  10.505
41820W        W10150  28.034  29.499  11.878
41821W        W10151  19.196  35.974  12.445
41822W        W10152   1.263  37.415   4.638
41823W        W10153  22.097   5.754   2.252
41824W        W10154  16.655  15.770   4.276
41825W        W10155  37.344   6.869   3.810
41826W        W10156  38.066  20.627  13.921
41827W        W10157   1.783  31.954  13.837
41828W        W10158  38.044  11.310   0.804
41829W        W10159   2.309  44.971  14.962
41830W        W10160   0.354  10.818   1.369
41831W        W10161  24.981  35.486  13.825
41832W        W10162  18.783  43.005   9.924
41833W        W10163   9.306  26.175   3.776
41834W        W10164   7.411  39.496   2.755
41835W        W10165  37.563  21.670  14.834
41836W        W10166  21.043  10.238   4.749
41837W        W10167  31.614  28.166   3.356
41838W        W10168  11.238   1.294  12.397
41839W        W10169  44.915  21.746  13.990
41840W        W10170  31.633  22.664   0.345
41841W        W10171   8.755  31.034  14.514
41842W        W10172  34.929  41.027  11.010
41843W        W10173   6.245  33.436   1.352
41844W        W10174  17.730  19.101   2.209
41845W        W10175  20.073  33.132   0.775
41846W        W10176  41.384  32.536   2.350
41847W        W10177   3.380   3.754   1.787
41848W        W10178  36.874   6.262  13.501
41849W        W10179  26.030  18.109   3.269
41850W        W10180   1.776  16.243   0.482
41851W        W10181  43.276  35.002  14.764
41852W        W10182   3.858  36.046   2.676
41853W        W10183   1.887  40.384  10.463
41854W        W10184  16.761  18.565  13.814
41855W        W10185  40.404  25.127   3.639
41856W        W10186  19.673  25.965  14.803
41857W        W10187  23.735  28.026   2.717
41858W        W10188  17.715   0.966   3.647
41859W        W10189  32.914  18.132   0.734
41860W        W10190   7.837   0.902  12.342
41861W        W10191   9.295  37.922   1.240
41862W        W10192   8.403   7.861   1.309
41863W        W10193  17.124  11.663   3.796
41864W        W10194  15.312  38.068  11.939
41865W        W10195   3.336  24.130   4.784
41866W        W10196  39.514  19.588   3.687
41867W        W10197   7.407  30.458  10.481
41868W        W10198  22.514  26.992  11.473
41869W        W10199  19.180  11.838  10.621
41870W        W10200  37.406  24.504   4.194
41871W        W10201  44.463  25.028  11.918
41872W        W10202  43.777  24.146   2.806
41873W        W10203  33.981   4.888  13.425
41874W        W10204  28.934  14.758  11.939
41875W        W10205  12.189  38.051   4.635
41876W        W10206  10.201  37.505   0.319
41877W        W10207   4.303   2.435   4.689
41878W        W10208  31.626  27.094   2.734
41879W        W10209   7.202   7.771   2.800
41880W        W10210  42.897  10.326   2.316
41881W        W10211  36.415   2.767   0.427
41882W        W10212  18.786   3.446  10.466
41883W        W10213   9.225  43.006   0.964
41884W        W10214  40.409  34.896  14.307
41885W        W10215  13.202  43.836   2.845
41886W        W10216  16.113  27.195  13.420
41887W        W10217  42.367  39.440   2.712
41888W        W10218   2.799  15.685  10.560
41889W        W10219  13.730  12.742   1.265
41890W        W10220  20.242  44.924   0.287
41891W        W10221  21.087   5.290  10.645
41892W        W10222  22.031  41.835   3.152
41893W        W10223  22.658   4.836  10.570
41894W        W10224   8.706  25.060   2.740
41895W        W10225  32.498  12.282  12.848
41896W        W10226   1.444  22.534   0.764
41897W        W10227  41.969  15.660   3.204
41898W        W10228  37.545  16.673   1.855
41899W        W10229  16.664   5.293   2.251
41900W        W10230  25.559   0.452  10.470
41901W        W10231  19.757   5.260  12.532
41902W        W10232  41.533  17.293  10.538
41903W        W10233  23.159  15.690  13.792
41904W        W10234  10.679   4.218  10.492
41905W        W10235  20.621  37.481   4.816
41906W        W10236   6.402  11.714  10.908
41907W        W10237  20.165  15.192  11.880
41908W        W10238  32.928   0.458  11.484
41909W        W10239   6.400   0.960   1.852
41910W        W10240   0.748  43.288  10.489
41911W        W10241   8.210  32.994  15.000
41912W        W10242  41.947  14.165   9.947
41913W        W10243   3.304  21.736  11.028
41914W        W10244   9.199  35.470   4.352
41915W        W10245  26.634  41.890   0.890
41916W        W10246   7.208  43.428  12.997
41917W        W10247  34.012  24.665  11.080
41918W        W10248   5.295  37.365   5.586
41919W        W10249  33.885  43.788  12.478
41920W        W10250  15.253  15.767  11.007
41921W        W10251  25.555   9.287  13.454
41922W        W10252  41.488  13.630  14.359
41923W        W10253   5.710   1.453  14.439
41924W        W10254  23.723   3.787  14.007
41925W        W10255  15.646  37.918  13.806
41926W        W10256  15.177   2.920   4.619
41927W        W10257   7.816  44.338   4.125
41928W        W10258  12.265  16.582  12.085
41929W        W10259  19.170   6.707  12.012
41930W        W10260  39.060   2.727  12.500
41931W        W10261   0.415  43.800   4.249
41932W        W10262  31.607  29.092  11.477
41933W        W10263  27.060  28.126   2.863
41934W        W10264  12.145  11.825  12.520
41935W        W10265  35.561  13.628   0.334
41936W        W10266  34.398  24.097   4.348
41937W        W10267  13.278  25.013   3.784
41938W        W10268  21.107   6.711   9.515
41939W        W10269  31.542  22.650   5.801
41940W        W10270  15.617   0.283  12.038
41941W        W10271  12.159  11.824  14.438
41942W        W10272  39.482  15.780  10.028
41943W        W10273  36.432  20.214   2.856
41944W        W10274  36.004  14.134  12.521
41945W        W10275  22.533  41.006   1.783
41946W        W10276  12.247   5.249   2.341
41947W        W10277  25.163  17.089  11.552
41948W        W10278  38.978  43.859  14.834
41949W        W10279  18.222  30.639   2.334
41950W        W10280  42.294  23.688   2.665
41951W        W10281  42.484  15.178   1.768
41952W        W10282  35.963  20.578   0.431
41953W        W10283   5.319  36.086  13.365
41954W        W10284  25.536  29.023   1.787
41955W        W10285  21.572  14.281   2.249
41956W        W10286  17.602  32.099  12.389
41957W        W10287  29.936  27.109  14.848
41958W        W10288  36.858  41.397   3.293
41959W        W10289  23.124  25.166   3.859
41960W        W10290   8.329   4.809   1.754
41961W        W10291  41.853  12.637   0.836
41962W        W10292  37.437   6.695  11.027
41963W        W10293  32.045  39.324   3.250
41964W        W10294  16.185  24.010  12.940
41965W        W10295  13.245  15.278   3.640
41966W        W10296  27.050  39.894  10.968
41967W        W10297  17.116  25.981  10.963
41968W        W10298  16.090  18.549   0.967
41969W        W10299   4.945  19.206   3.303
41970W        W10300  16.769   5.202   0.911
41971W        W10301   4.385  31.120  12.858
41972W        W10302  32.977  25.641   1.337
41973W        W10303   0.744   0.261  11.598
41974W        W10304  18.695  21.528   3.769
41975W        W10305   5.334   3.736   2.257
41976W        W10306   4.386  12.346  14.025
41977W        W10307  18.130  31.567  13.343
41978W        W10308  24.167  15.238  10.616
41979W        W10309  11.325  34.867   1.370
41980W        W10310  25.573  24.492   0.783
41981W        W10311  21.213   6.773  12.501
41982W        W10312  37.500  13.153   2.808
41983W        W10313  26.120   0.906   3.869
41984W        W10314  41.822  33.545   2.379
41985W        W10315  40.545   1.258  12.070
41986W        W10316   4.321  33.618  11.581
41987W        W10317  19.242  16.125   2.348
41988W        W10318   0.398  18.161  12.888
41989W        W10319  19.215  38.396   1.333
41990W        W10320  15.324   1.948  11.564
41991W        W10321  26.496   6.700   0.916
41992W        W10322  14.821   5.698  13.407
41993W        W10323   2.253  21.160  13.899
41994W        W10324  20.042  23.613   2.780
41995W        W10325  26.955   9.658  10.599
41996W        W10326  25.107  26.017  13.941
41997W        W10327  10.830  22.678   3.159
41998W        W10328   2.245   9.859  14.856
41999W        W10329  42.488  20.752  14.023
42000W        W10330  42.902   1.407   0.413
42001W        W10331  10.786  26.595  14.383
42002W        W10332  44.796   8.897   5.253
42003W        W10333  14.717  39.053   0.967
42004W        W10334  37.388  31.411  14.471
42005W        W10335  42.506   5.698   4.247
42006W        W10336   3.456   8.259   4.684
42007W        W10337  31.008   0.967  12.441
42008W        W10338  35.940   8.212   0.338
42009W        W10339  10.356   2.253  13.423
42010W        W10340  28.519  32.958   3.692
42011W        W10341  12.253  21.056   4.623
42012W        W10342  42.798  18.107   4.817
42013W        W10343  13.331  33.891   3.278
42014W        W10344  36.902  29.071   2.373
42015W        W10345  19.285  11.289   3.861
42016W        W10346   2.359  22.038   0.812
42017W        W10347  35.560  22.206  13.808
42018W        W10348  22.112  38.444  14.443
42019W        W10349  22.241   9.809   0.367
42020W        W10350  22.094  41.354  10.440
42021W        W10351  39.340  30.413  10.595
42022W        W10352   7.217  26.043   2.313
42023W        W10353  44.436  11.736  12.009
42024W        W10354  40.371  41.430   2.779
42025W        W10355  40.003  14.598  10.571
42026W        W10356  36.462  29.134   3.852
42027W        W10357  35.929  20.056  13.031
42028W        W10358  38.069  36.076   0.386
42029W        W10359  34.001  30.413   1.451
42030W        W10360  31.548  44.285  10.449
42031W        W10361  35.389  19.058   2.768
42032W        W10362  35.565   3.849  12.346
42033W        W10363  37.971  32.936   2.672
42034W        W10364  25.173  21.162  11.988
42035W        W10365  36.447  14.659   4.154
42036W        W10366  15.289  28.078   1.915
42037W        W10367  40.393   8.767   2.762
42038W        W10368  25.523  37.474  10.129
42039W        W10369  35.972  32.915   2.692
42040W        W10370  22.675  21.513  13.812
42041W        W10371  19.696  25.650   3.687
42042W        W10372  29.024  25.516  13.394
42043W        W10373  16.096  13.629   4.320
42044W        W10374   8.894  29.129   0.347
42045W        W10375  27.978  31.450   4.284
42046W        W10376  19.628  35.060   3.653
42047W        W10377  16.291  15.264   1.319
42048W        W10378  15.226   6.753   2.376
42049W        W10379  37.507   8.842  12.965
42050W        W10380  10.161   1.803   3.768
42051W        W10381  14.164  24.170  11.058
42052W        W10382  24.612   5.271  14.855
42053W        W10383  20.741  27.476   4.242
42054W        W10384  23.235  11.344   3.310
42055W        W10385  17.291  31.438  12.009
42056W        W10386   6.195   7.778  14.976
42057W        W10387   8.900  33.626   1.734
42058W        W10388  30.479   7.392   2.848
42059W        W10389   3.353  10.721   0.276
42060W        W10390  43.013  17.603   4.299
42061W        W10391   8.734  18.691  14.298
42062W        W10392  28.185  15.672   5.146
42063W        W10393  24.195  31.635  12.085
42064W        W10394  32.421  33.611  12.977
42065W        W10395  37.942  17.156   1.699
42066W        W10396   4.366   4.825  14.331
42067W        W10397  26.110  12.812  14.414
42068W        W10398  30.542  27.484  12.892
42069W        W10399  24.110  13.345   1.281
42070W        W10400  11.635  39.500   3.718
42071W        W10401  18.646   0.889   5.275
42072W        W10402  44.499  14.158   2.355
42073W        W10403  25.143  21.609  11.072
42074W        W10404  30.522  44.849  13.053
42075W        W10405  36.994  43.490   2.206
42076W        W10406  13.206  42.905  10.963
42077W        W10407  17.296  41.917  11.397
42078W        W10408   7.272  18.267   1.829
42079W        W10409   6.300  18.669   3.306
42080W        W10410  38.003  28.132  11.490
42081W        W10411   5.736  14.180   2.391
42082W        W10412   6.679  34.917   0.885
42083W        W10413   2.730  39.823   4.669
42084W        W10414  31.524  43.944  11.441
42085W        W10415  36.001  28.511   1.735
42086W        W10416  34.490  10.737  12.002
42087W        W10417  25.506  34.505   2.715
42088W        W10418  39.385  36.494   4.241
42089W        W10419  20.525  30.609   1.217
42090W        W10420  19.541  20.126  13.811
42091W        W10421   0.364  13.667  11.992
42092W        W10422  39.008   1.855  12.424
42093W        W10423  19.120  18.701   2.397
42094W        W10424   5.375  34.987  14.507
42095W        W10425  18.555   4.830   5.081
42096W        W10426  40.304   1.915  12.502
42097W        W10427   8.815  40.515  11.055
42098W        W10428  10.651  38.520   1.791
42099W        W10429   2.949  28.523  13.493
42100W        W10430  41.996  42.428  14.813
42101W        W10431   0.924  39.371   1.923
42102W        W10432  37.066  31.645  10.977
42103W        W10433  14.833  16.795   0.870
42104W        W10434  29.137  27.521   3.756
42105W        W10435   7.302  22.237   3.285
42106W        W10436  13.207  17.621  10.569
42107W        W10437  26.644  32.937   0.948
42108W        W10438  27.081  31.434  12.485
42109W        W10439  42.307  24.024   3.807
42110W        W10440  28.003  20.046   1.838
42111W        W10441  24.069  19.670  14.993
42112W        W10442  12.761   7.763   1.415
42113W        W10443   3.846  40.403   4.734
42114W        W10444  38.549  36.520  14.323
42115W        W10445  39.023   1.248   1.849
42116W        W10446   1.314   1.964  12.951
42117W        W10447  14.311  34.931   0.913
42118W        W10448  42.974  15.726  14.331
42119W        W10449  18.168   1.360   3.162
42120W        W10450  23.120  14.221  11.972
42121W        W10451  12.840  15.127  10.619
42122W        W10452   8.677  31.606  12.478
42123W        W10453  27.686  26.536  12.551
42124W        W10454  35.005   4.289   0.939
42125W        W10455  31.545  15.252   0.728
42126W        W10456  30.467  35.970   1.408
42127W        W10457   4.780  30.943   0.751
42128W        W10458  25.110  32.060   1.912
42129W        W10459  18.564  27.065  11.994
42130W        W10460  14.270  21.622  14.454
42131W        W10461  40.548  33.097  14.288
42132W        W10462  23.988  27.087   2.803
42133W        W10463  18.163  34.927  12.984
42134W        W10464  20.764  11.314   1.246
42135W        W10465  13.770  35.363   3.845
42136W        W10466   9.661   3.328  13.793
42137W        W10467  16.075  37.475   5.776
42138W        W10468  26.098  17.166  13.418
42139W        W10469  17.593  13.746  13.058
42140W        W10470  43.888  25.193  10.555
42141W        W10471  20.148  44.936   3.800
42142W        W10472  38.892  28.009  12.869
42143W        W10473   4.885   9.687   1.339
42144W        W10474  28.490  11.281  14.964
42145W        W10475  39.431  32.914  14.413
42146W        W10476   3.811  19.219   2.334
42147W        W10477  44.374   6.758  10.503
42148W        W10478  36.530  34.999  14.896
42149W        W10479  21.563  25.978  12.947
42150W        W10480  42.371  44.505  10.407
42151W        W10481   0.289  17.257  12.011
42152W        W10482  27.180  17.238  11.025
42153W        W10483  44.943  24.047   3.783
42154W        W10484  15.583  41.529  12.938
42155W        W10485  35.018  27.050   1.700
42156W        W10486   6.747  43.939   2.805
42157W        W10487  32.967  37.495   4.664
42158W        W10488  35.875  24.143   0.371
42159W        W10489  36.386  26.058   1.430
42160W        W10490  23.076  14.774   1.393
42161W        W10491   5.743  44.994   2.249
42162W        W10492  24.181  10.746   3.675
42163W        W10493   1.405   7.825   0.837
42164W        W10494  15.784   8.337   3.276
42165W        W10495   8.401   9.646   3.858
42166W        W10496  35.912  30.929  12.869
42167W        W10497  44.801   3.409  14.789
42168W        W10498  43.988  42.926   0.246
42169W        W10499  40.497  43.403  12.487
42170W        W10500  43.894  39.547   3.682
42171W        W10501  17.784  30.505  11.897
42172W        W10502   1.256  27.148  10.915
42173W        W10503  19.765  27.604  10.575
42174W        W10504  19.123   5.262   0.413
42175W        W10505   4.935  13.757  12.870
42176W        W10506  10.152   9.682  12.391
42177W        W10507  10.218  15.202  13.810
42178W        W10508  17.291  35.097  11.595
42179W        W10509  17.171  25.185  12.382
42180W        W10510  22.639  12.840   0.327
42181W        W10511  34.038  38.999  14.382
42182W        W10512  27.123  37.559   1.731
42183W        W10513  14.611   9.772   2.346
42184W        W10514  22.742  41.427  12.854
42185W        W10515  19.085  10.242   0.474
42186W        W10516  38.964  13.206  14.298
42187W        W10517   8.781  42.891   0.450
42188W        W10518  39.355  12.720  14.883
42189W        W10519  12.734  28.135   2.884
42190W        W10520  40.409  17.557  11.053
42191W        W10521   4.209  14.761   1.323
42192W        W10522  42.287   6.815   2.776
42193W        W10523  31.504  15.696  12.341
42194W        W10524  27.635  28.149  12.579
42195W        W10525  11.179  39.940  13.989
42196W        W10526   4.391  27.688   0.427
42197W        W10527  13.792  12.185   1.438
42198W        W10528  30.453  37.945  11.437
42199W        W10529   5.356  21.694  13.958
42200W        W10530  40.403  14.675  14.431
42201W        W10531  17.167   8.204   1.381
42202W        W10532  20.158  30.444  11.879
42203W        W10533  25.977  44.964   3.298
42204W        W10534  29.145  34.110   9.591
42205W        W10535  27.457  32.927  13.880
42206W        W10536  18.170  37.566  11.058
42207W        W10537  20.758   6.352  14.829
42208W        W10538  23.102   8.703  10.414
42209W        W10539  10.341  34.473   3.375
42210W        W10540  29.563  22.097   5.254
42211W        W10541  19.271  23.139  13.056
42212W        W10542  10.872   8.379  14.873
42213W        W10543   8.228  16.645   3.360
42214W        W10544   8.386  17.723  13.425
42215W        W10545  26.158  41.041  14.946
42216W        W10546  33.904  21.644  12.372
42217W        W10547  11.161  10.689   3.705
42218W        W10548  23.178   3.848   1.860
42219W        W10549  20.094  29.035   0.452
42220W        W10550  24.106  19.536  10.554
42221W        W10551  42.413  43.459   4.684
42222W        W10552  28.124   0.800   3.758
42223W        W10553  26.038  20.644   1.883
42224W        W10554  42.813  40.927  12.420
42225W        W10555  33.971  20.140   4.711
42226W        W10556  31.577  11.742   2.198
42227W        W10557  16.086  11.258   3.664
42228W        W10558   4.885   2.902   0.307
42229W        W10559   6.198  23.097  14.780
42230W        W10560  38.397  41.458   0.464
42231W        W10561  30.958  39.906   3.228
42232W        W10562  15.607  13.345  14.822
42233W        W10563   5.308  18.780   4.227
42234W        W10564   6.694  28.122   2.740
42235W        W10565   8.376  44.797   0.312
42236W        W10566  25.487  22.614   0.365
42237W        W10567   4.780  27.459   4.327
42238W        W10568   2.819  32.967  13.346
42239W        W10569  28.629  43.418  12.550
42240W        W10570  27.008   6.878  14.014
42241W        W10571  26.129  27.989  14.765
42242W        W10572  19.674  17.128   5.209
42243W        W10573  43.779  32.108  13.919
42244W        W10574  28.499  40.419   3.256
42245W        W10575  36.011  32.091   2.352
42246W        W10576   1.748   3.828  12.077
42247W        W10577  24.132  11.197  14.331
42248W        W10578  36.530  19.740  10.028
42249W        W10579   4.419  27.016  11.102
42250W        W10580  43.469  26.674   3.152
42251W        W10581   0.269  41.352  12.044
42252W        W10582  22.632  40.873   2.395
42253W        W10583   8.881   0.263  10.504
42254W        W10584   4.730   1.477  10.609
42255W        W10585   1.341  39.871  11.950
42256W        W10586   0.289   8.178  10.943
42257W        W10587   2.314  25.127   1.294
42258W        W10588  21.640  12.148  10.974
42259W        W10589  42.386  27.965   1.288
42260W        W10590   4.727  39.328  11.005
42261W        W10591  20.064  32.978   4.281
42262W        W10592  16.201  34.583   2.688
42263W        W10593  16.087  42.976  14.788
42264W        W10594  37.382  35.490   4.623
42265W        W10595  20.638  34.027   0.469
42266W        W10596   0.418  36.094  12.972
42267W        W10597  23.497  34.081   0.260
42268W        W10598  24.487   7.724   1.717
42269W        W10599  36.451  20.175   1.715
42270W        W10600  43.312  34.032   0.908
42271W        W10601   2.795  38.916  14.508
42272W        W10602   3.942  24.202  14.473
42273W        W10603  43.288  18.648  14.492
42274W        W10604  25.007  27.645  13.878
42275W        W10605  32.498  44.264  14.770
42276W        W10606  17.171   1.928   2.203
42277W        W10607  17.659  18.076  10.550
42278W        W10608  17.650  30.033   2.261
42279W        W10609  19.255  33.567   3.347
42280W        W10610  35.400  21.253  14.503
42281W        W10611  35.590  27.149  12.470
42282W        W10612  44.768  21.242   2.715
42283W        W10613  44.498  30.464  12.450
42284W        W10614   4.295  23.175   4.273
42285W        W10615  15.806   2.457  11.023
42286W        W10616  36.956  22.532  13.998
42287W        W10617   8.896  13.779   4.114
42288W        W10618  11.126  15.110  13.891
42289W        W10619   9.304  16.157   4.688
42290W        W10620  38.828  28.466  12.895
42291W        W10621   2.265  44.316   2.401
42292W        W10622  36.352  36.990  10.997
42293W        W10623  30.128  41.480  13.374
42294W        W10624   2.424   2.348  13.913
42295W        W10625   9.806   7.329   2.367
42296W        W10626  41.505  22.058  14.901
42297W        W10627   7.839   0.467   3.738
42298W        W10628  23.039   3.869   4.809
42299W        W10629  25.498  25.664  14.439
42300W        W10630   7.382  39.863  13.347
42301W        W10631  32.139  15.200  12.867
42302W        W10632  14.652  13.616   0.266
42303W        W10633  28.075   3.276  13.400
42304W        W10634  33.583  23.663  14.931
42305W        W10635  25.019   3.455  12.903
42306W        W10636  33.986  24.035  13.893
42307W        W10637   4.772  28.111   2.877
42308W        W10638  42.520  16.212  11.919
42309W        W10639   8.845  32.398  14.000
42310W        W10640  42.779  33.403  10.605
42311W        W10641  13.720   1.367  14.461
42312W        W10642  43.304  23.719   3.650
42313W        W10643  38.043   9.260  12.408
42314W        W10644  34.892  14.779   1.828
42315W        W10645   8.194  34.462   3.721
42316W        W10646  21.174  26.585  13.859
42317W        W10647  14.635  18.559   4.660
42318W        W10648  17.677   4.272  14.318
42319W        W10649  18.172  36.940  12.911
42320W        W10650   6.852   0.469   4.784
42321W        W10651  43.999  39.015  13.886
42322W        W10652  29.565  39.318   1.301
42323W        W10653   3.865  17.668   1.758
42324W        W10654  21.237  40.890  10.637
42325W        W10655  40.966  18.744  14.365
42326W        W10656   6.265  18.765  11.523
42327W        W10657  20.217  44.762   1.428
42328W        W10658   3.851  30.046   2.848
42329W        W10659  13.676  14.831   1.275
42330W        W10660  44.759   2.893   0.391
42331W        W10661  41.376  40.931   3.275
42332W        W10662  42.881  42.959  12.542
42333W        W10663  28.961   2.784  11.412
42334W        W10664  28.022  20.060  13.350
42335W        W10665  16.601   4.435  13.006
42336W        W10666   1.403  17.599   0.815
42337W        W10667   0.399  22.039  12.003
42338W        W10668  38.537  22.702  11.866
42339W        W10669  40.979  31.632   4.236
42340W        W10670  16.761  21.207  15.000
42341W        W10671   2.432   7.786  14.821
42342W        W10672   1.350  24.555   2.887
42343W        W10673  25.679  23.575  13.046
42344W        W10674  16.804  43.946   2.292
42345W        W10675  41.001  20.688  11.984
42346W        W10676  43.959  44.400   3.273
42347W        W10677   5.751  12.636   4.834
42348W        W10678  15.604  41.465   2.326
42349W        W10679  14.801  23.145   3.862
42350W        W10680  38.934  41.479  12.574
42351W        W10681  25.684   9.258  11.404
42352W        W10682   5.312  23.735  12.372
42353W        W10683  40.383  32.634  13.413
42354W        W10684  40.387   6.416   1.828
42355W        W10685  22.646  26.552  10.947
42356W        W10686  22.684  37.976  11.405
42357W        W10687  11.692  32.426  10.487
42358W        W10688  42.935  44.786   1.377
42359W        W10689   4.698  44.963  13.320
42360W        W10690  28.107  13.264  10.970
42361W        W10691  25.030   4.380   2.735
42362W        W10692  20.546   7.210   1.760
42363W        W10693   0.269  20.271   0.316
42364W        W10694  40.436   3.390   1.326
42365W        W10695  34.599  18.259  13.959
42366W        W10696  16.592  43.454   2.336
42367W        W10697   5.363  38.059   5.707
42368W        W10698  34.099   6.270   3.173
42369W        W10699  34.614  27.987  12.946
42370W        W10700  36.443  27.152   0.764
42371W        W10701   4.852  40.497  12.823
42372W        W10702  21.659  13.135  13.836
42373W        W10703   2.763  40.328  12.402
42374W        W10704  28.440  10.302  12.369
42375W        W10705  29.573   1.324   0.958
42376W        W10706  18.780  14.106  10.504
42377W        W10707  20.104  41.396   1.710
42378W        W10708  16.305   8.259   4.718
42379W        W10709  31.633   9.370   3.766
42380W        W10710  17.075  26.087   2.848
42381W        W10711  24.983  40.455   1.417
42382W        W10712  26.172  11.228  10.588
42383W        W10713   5.320  17.727   1.287
42384W        W10714  36.009   4.426   1.902
42385W        W10715  38.475  37.023   2.317
42386W        W10716  24.566  10.693   0.448
42387W        W10717   5.355   9.297  11.479
42388W        W10718  27.981  32.131  14.369
42389W        W10719  12.237   3.944  10.546
42390W        W10720  14.625   3.714   3.204
42391W        W10721  15.587   6.268   4.646
42392W        W10722  43.774  14.744  14.352
42393W        W10723  18.296  36.359   4.309
42394W        W10724  13.828  11.210  11.488
42395W        W10725   6.872  25.682  13.944
42396W        W10726  11.311   1.878  11.920
42397W        W10727  19.175  23.690  10.616
42398W        W10728   6.233  34.112   4.175
42399W        W10729   0.958  26.497  10.590
42400W        W10730   3.765  28.478  10.960
42401W        W10731  10.158  42.979  11.462
42402W        W10732  37.840  19.126   1.300
42403W        W10733   9.372  32.522   3.750
42404W        W10734   6.310  30.655  12.853
42405W        W10735  17.723  40.333  11.909
42406W        W10736  42.289  13.328   0.736
42407W        W10737  23.574   7.289  14.358
42408W        W10738   7.395  23.610   4.174
42409W        W10739  33.515  21.042  12.397
42410W        W10740  20.094  35.495  10.962
42411W        W10741  42.870  30.586  10.957
42412W        W10742  36.017  27.999   4.231
42413W        W10743  10.351  10.289   5.250
42414W        W10744  33.089   4.206  13.051
42415W        W10745  12.846  28.614  14.502
42416W        W10746   3.388  43.422   1.724
42417W        W10747  38.862  18.284  12.436
42418W        W10748  33.529  10.175  14.348
42419W        W10749  12.169  20.245   1.843
42420W        W10750  44.294  42.310   0.918
42421W        W10751  22.132  23.668  14.799
42422W        W10752  38.534  20.268  10.434
42423W        W10753  26.178   3.351   1.788
42424W        W10754   1.913  19.065  13.468
42425W        W10755   0.416  32.982   1.333
42426W        W10756   1.819   6.183  12.904
42427W        W10757  22.536  28.175   1.703
42428W        W10758  29.968  19.106   4.297
42429W        W10759  44.430  30.112  13.315
42430W        W10760  16.780  28.078   4.676
42431W        W10761  20.242  42.884  12.348
42432W        W10762  40.493  13.700  14.769
42433W        W10763  41.927  42.951  13.811
42434W        W10764  22.082  14.611  11.117
42435W        W10765  13.726  44.327  11.447
42436W        W10766  40.542  23.194  11.860
42437W        W10767   8.804  19.160   2.875
42438W        W10768   4.859  40.804   4.350
42439W        W10769   4.322  28.523  13.501
42440W        W10770   4.360   5.823  14.452
42441W        W10771  16.766  14.120  11.011
42442W        W10772   4.868  41.853  12.399
42443W        W10773  22.153  42.018  10.621
42444W        W10774  37.057  43.281  14.349
42445W        W10775  22.615  15.690  14.956
42446W        W10776  23.239  23.132  10.409
42447W        W10777  35.517   8.701   3.702
42448W        W10778   3.838  34.941  14.768
42449W        W10779  26.034  40.353   0.827
42450W        W10780   1.840  16.638  10.632
42451W        W10781  20.643  19.163  11.501
42452W        W10782  37.084  40.391  12.848
42453W        W10783  33.898   2.429   3.764
42454W        W10784  42.470  35.573  12.361
42455W        W10785   7.778   5.809   4.656
42456W        W10786  19.588  23.694   5.655
42457W        W10787   1.391  33.569   3.239
42458W        W10788  22.574  20.120   1.925
42459W        W10789  43.803  15.301  11.105
42460W        W10790  25.050  32.037  11.120
42461W        W10791  36.575  12.641   2.768
42462W        W10792  43.301  23.173   0.413
42463W        W10793  28.551  40.404  11.115
42464W        W10794  31.923   0.877  13.520
42465W        W10795  41.409  10.313  13.358
42466W        W10796   0.858  41.966   4.325
42467W        W10797  11.839   2.842   1.264
42468W        W10798  30.087  34.001   1.832
42469W        W10799   4.221  22.138   0.388
42470W        W10800   5.425  40.944  12.998
42471W        W10801  14.245  16.186  10.582
42472W        W10802  44.830  30.617   1.409
42473W        W10803   7.896  17.154  12.382
42474W        W10804  40.850  17.136  13.031
42475W        W10805  33.897  36.561  13.900
42476W        W10806  28.616   9.696   2.676
42477W        W10807  13.827   7.416  14.009
42478W        W10808   3.737  13.760   0.791
42479W        W10809  25.172  14.295  11.422
42480W        W10810  41.030  14.229   0.452
42481W        W10811   5.283  36.942   4.283
42482W        W10812  38.840  36.961  13.399
42483W        W10813  37.484  28.999   2.870
42484W        W10814  16.723  22.110   1.287
42485W        W10815  24.519   7.796  14.924
42486W        W10816  22.720  24.531  14.964
42487W        W10817  29.028  38.965   4.254
42488W        W10818  17.143   5.707   4.726
42489W        W10819  12.295  40.456  11.954
42490W        W10820  31.960  36.047   0.310
42491W        W10821  10.196  17.786  13.048
42492W        W10822  24.491  13.713  11.442
42493W        W10823  17.152  42.014   0.768
42494W        W10824  20.670  43.816  12.397
42495W        W10825  42.293  26.152  13.824
42496W        W10826   4.279  44.908  11.093
42497W        W10827   4.805  12.721  11.418
42498W        W10828  33.472  29.162  10.429
42499W        W10829  12.230  34.612   4.656
42500W        W10830   8.198   0.389   0.336
42501W        W10831  25.650   8.338   2.712
42502W        W10832   2.291   7.775   3.695
42503W        W10833  20.034  29.135   2.845
42504W        W10834  20.114   8.373   4.819
42505W        W10835   2.250  21.613   3.777
42506W        W10836   3.240  33.012  12.038
42507W        W10837  38.556  13.208  11.855
42508W        W10838  28.045  38.334   1.427
42509W        W10839  16.655  33.118   1.306
42510W        W10840  12.785  41.942   1.434
42511W        W10841  42.848  31.996   4.338
42512W        W10842   1.343  39.400  14.457
42513W        W10843  28.643  39.837  11.910
42514W        W10844  21.613   8.371   4.704
42515W        W10845   1.920  35.472  10.435
42516W        W10846   8.694   7.786  11.544
42517W        W10847  33.923  44.786  12.505
42518W        W10848  27.149  42.352  11.391
42519W        W10849  30.598   4.926  10.072
42520W        W10850  43.884  15.803  14.884
42521W        W10851  11.842  44.872   2.776
42522W        W10852   6.814  23.580  12.481
42523W        W10853  31.640  37.368  11.027
42524W        W10854  24.542  25.479   1.225
42525W        W10855  10.219  32.888  14.493
42526W        W10856   8.365  26.513   1.812
42527W        W10857  23.992  14.136  14.822
42528W        W10858  34.066  12.843  14.865
42529W        W10859   1.794  42.405   3.869
42530W        W10860   1.379  11.863   4.310
42531W        W10861  40.377  15.638  14.474
42532W        W10862   3.921  31.457   0.747
42533W        W10863  24.053   0.917  13.008
42534W        W10864   6.379  11.763  11.504
42535W        W10865  42.394   5.355   3.189
42536W        W10866  43.772  44.456   1.385
42537W        W10867   1.300  28.160  13.468
42538W        W10868   7.207  43.970   2.698
42539W        W10869  14.256  20.045   2.233
42540W        W10870  23.194  39.375  13.961
42541W        W10871  43.892   7.903  13.419
42542W        W10872  17.132  25.677  11.856
42543W        W10873  31.076   6.317  14.925
42544W        W10874  42.885  11.279   1.293
42545W        W10875  23.196  25.032  14.426
42546W        W10876   4.218   3.935   1.443
42547W        W10877  30.995  35.043   2.273
42548W        W10878   7.224  35.408   3.745
42549W        W10879  43.906  24.025  14.894
42550W        W10880  19.637   6.231  11.381
42551W        W10881  20.539  40.309   4.140
42552W        W10882  40.864  23.045   4.273
42553W        W10883  24.498  34.966   3.198
42554W        W10884  11.628  21.524   4.837
42555W        W10885   6.682  36.081   2.813
42556W        W10886  25.538  28.027   3.771
42557W        W10887   7.888  16.579   3.378
42558W        W10888   1.305  16.197  11.048
42559W        W10889  40.032  43.379   3.660
42560W        W10890   1.778  29.554   1.922
42561W        W10891  20.263  13.817  14.833
42562W        W10892  18.648  23.613  10.581
42563W        W10893   9.660  34.951   1.376
42564W        W10894  41.982  15.176   2.710
42565W        W10895  34.868  16.613  14.959
42566W        W10896  17.588  29.079   2.798
42567W        W10897  27.550  14.650  10.489
42568W        W10898  28.674   4.909  12.556
42569W        W10899   5.243  13.811  10.550
42570W        W10900  39.978   5.414   5.628
42571W        W10901  24.502  37.493  11.538
42572W        W10902  21.704  44.458   2.692
42573W        W10903  40.461  26.031  14.276
42574W        W10904  16.114  25.586   9.672
42575W        W10905  19.126  19.697   1.716
42576W        W10906  22.100  18.217   0.301
42577W        W10907  36.848  28.015  13.473
42578W        W10908  40.024  34.109  13.055
42579W        W10909  44.905  43.427  12.949
42580W        W10910  44.771   4.729  10.581
42581W        W10911  31.067  15.249   1.819
42582W        W10912   9.301  24.628   2.198
42583W        W10913   4.849  38.959  14.903
42584W        W10914  10.701  21.696  13.924
42585W        W10915  21.595  24.998  11.521
42586W        W10916  27.121  31.076  11.563
42587W        W10917  20.050  12.730  12.961
42588W        W10918  10.849  13.259  10.565
42589W        W10919  18.117  14.103   0.471
42590W        W10920   4.284  11.788  14.919
42591W        W10921  42.416  39.019  10.556
42592W        W10922  22.024  27.467  12.945
42593W        W10923  43.999   3.238   0.890
42594W        W10924  43.822  26.963   0.276
42595W        W10925  20.565  36.576   2.899
42596W        W10926  19.207   3.770   2.189
42597W        W10927  27.640  29.121   3.268
42598W        W10928  34.034  10.766  13.355
42599W        W10929  10.193   8.214   0.761
42600W        W10930  39.393  18.053  13.045
42601W        W10931  30.647  35.524  12.391
42602W        W10932  22.548  39.439  13.424
42603W        W10933  29.667  18.615   5.091
42604W        W10934  11.650   6.272   2.803
42605W        W10935  29.168  12.727   0.845
42606W        W10936   8.223  41.947   2.183
42607W        W10937  17.555  42.496  11.997
42608W        W10938  32.545  38.915   1.276
42609W        W10939  35.529  14.824  11.122
42610W        W10940  38.929  25.557  14.987
42611W        W10941  37.058   6.413   1.321
42612W        W10942  17.159   5.198   1.394
42613W        W10943  38.518   8.255   1.330
42614W        W10944  28.679  23.022   3.288
42615W        W10945  13.726  23.582  10.968
42616W        W10946  25.502  37.576  12.850
42617W        W10947  25.601  39.370   1.795
42618W        W10948  13.120  25.086   3.235
42619W        W10949  15.649  20.039   0.878
42620W        W10950  32.465   2.786   0.324
42621W        W10951  11.241  31.008   2.820
42622W        W10952  26.137  32.466   3.756
42623W        W10953  33.452  35.951   0.741
42624W        W10954   8.380  30.599   2.699
42625W        W10955  23.608  26.134  12.887
42626W        W10956  22.071  34.048   1.730
42627W        W10957  12.832  18.686   0.316
42628W        W10958  27.521   7.705   0.332
42629W        W10959   4.391  39.440  10.904
42630W        W10960  33.586  11.145   4.248
42631W        W10961  36.360   6.412  14.317
42632W        W10962  31.897  42.368   1.341
42633W        W10963  14.610   2.742   4.808
42634W        W10964  29.557   4.221   1.847
42635W        W10965  10.701  22.671   0.852
42636W        W10966  34.099  16.103  11.463
42637W        W10967  13.708   2.843   2.398
42638W        W10968  12.842  35.992   3.357
42639W        W10969  13.257   9.848  12.999
42640W        W10970   8.329   7.841  12.061
42641W        W10971  23.213  42.857   4.619
42642W        W10972  39.971  14.237  12.486
42643W        W10973  23.129  36.085  13.929
42644W        W10974  12.200  28.506  13.059
42645W        W10975  39.490  27.663  12.069
42646W        W10976  44.925  33.426  12.397
42647W        W10977   3.802  35.480   3.693
42648W        W10978   8.325  17.231   2.748
42649W        W10979  12.735   6.723  14.412
42650W        W10980  13.346  36.883   1.415
42651W        W10981   2.382  35.853  12.352
42652W        W10982  25.074  41.454  12.942
42653W        W10983  34.864  15.580   1.256
42654W        W10984   9.759  31.080   2.861
42655W        W10985   9.269  10.370  12.054
42656W        W10986   0.825  12.836   1.282
42657W        W10987  13.835   3.337  11.598
42658W        W10988  16.697  30.032  13.347
42659W        W10989  41.504   9.306   2.735
42660W        W10990  23.162  26.577   0.448
42661W        W10991  18.273   2.456  13.405
42662W        W10992  25.509   5.710  12.559
42663W        W10993  30.119  16.268   1.733
42664W        W10994   4.943  32.125   2.730
42665W        W10995  26.053  19.726  13.544
42666W        W10996  42.853  27.996   3.379
42667W        W10997  28.078   3.389  12.085
42668W        W10998  39.063  21.538  12.374
42669W        W10999  24.211  40.052  14.781
42670W        W11000   9.867   2.737  10.995
42671W        W11001   4.820  12.721  10.904
42672W        W11002  18.578  14.669  13.845
42673W        W11003  22.724   4.412  11.044
42674W        W11004  42.800  42.845   0.471
42675W        W11005  32.434  12.747   1.832
42676W        W11006  12.195  15.745   1.825
42677W        W11007  33.525  18.581  11.992
42678W        W11008   7.415  40.383   2.862
42679W        W11009  33.397  34.036  10.615
42680W        W11010  39.000  29.071  14.296
42681W        W11011  20.188  32.910  14.493
42682W        W11012  33.014  25.574   1.802
42683W        W11013  23.024  16.215   4.149
42684W        W11014   5.759  22.218   2.273
42685W        W11015  34.099  43.327   3.710
42686W        W11016   6.421  18.103  12.447
42687W        W11017   8.875  25.165  13.994
42688W        W11018  26.582  17.601  11.532
42689W        W11019  10.190  21.612  13.931
42690W        W11020   1.922  12.317  11.495
42691W        W11021  30.137  41.040   4.137
42692W        W11022  31.918  28.116   0.243
42693W        W11023   2.850  26.485   5.148
42694W        W11024  23.719   1.801  10.955
42695W        W11025   1.740  21.527  12.504
42696W        W11026   0.938  15.589  11.038
42697W        W11027  12.830  39.431   3.352
42698W        W11028  12.845  43.444  12.865
42699W        W11029  30.602  23.183   0.384
42700W        W11030   5.375  40.517   2.873
42701W        W11031  11.744  41.833   0.282
42702W        W11032  41.001  29.016   1.402
42703W        W11033   3.298  16.101  11.081
42704W        W11034  43.931  26.956   3.735
42705W        W11035  32.603  19.728   4.770
42706W        W11036   3.421  30.505  14.972
42707W        W11037  35.378  10.158   2.831
42708W        W11038  33.071   9.792  13.819
42709W        W11039  22.731  32.016   2.205
42710W        W11040  10.637   9.676  10.561
42711W        W11041  44.407  23.602  13.537
42712W        W11042   9.329  30.053   1.715
42713W        W11043   5.396  22.567  11.912
42714W        W11044  33.049  43.337   1.440
42715W        W11045  14.626   2.339   2.290
42716W        W11046  14.798  42.791   1.309
42717W        W11047   2.424  37.977  13.328
42718W        W11048  19.714   2.277  13.057
42719W        W11049  19.546  22.707  11.073
42720W        W11050  32.629  16.155  12.041
42721W        W11051  33.934  30.113   3.639
42722W        W11052  36.468   8.774   3.723
42723W        W11053  33.446  14.224   1.900
42724W        W11054  21.160  19.249   3.650
42725W        W11055   5.714  34.561   0.386
42726W        W11056  41.367  10.686  12.033
42727W        W11057  41.860   9.672   4.712
42728W        W11058   6.390  27.177  12.044
42729W        W11059  28.119  14.273  12.477
42730W        W11060   2.460   0.343  12.369
42731W        W11061  35.869  25.009  14.344
42732W        W11062  23.558  43.899  13.791
42733W        W11063  34.398  41.978   4.650
42734W        W11064  37.378  14.695   3.646
42735W        W11065  32.447  11.667  12.028
42736W        W11066   8.719  28.936   2.278
42737W        W11067  42.978  30.631  11.511
42738W        W11068   5.729  34.523  13.876
42739W        W11069  25.672  32.432  14.937
42740W        W11070  34.511  16.303   2.361
42741W        W11071   4.730  10.317   1.236
42742W        W11072  11.154  19.604  11.880
42743W        W11073  27.185  26.458   2.673
42744W        W11074  36.068  20.560   0.847
42745W        W11075  11.632  10.284   0.881
42746W        W11076  31.434   2.733  11.075
42747W        W11077  29.041  19.168  13.821
42748W        W11078  18.231   6.242   2.371
42749W        W11079  19.756  32.452  12.548
42750W        W11080  33.397   0.457  11.450
42751W        W11081   2.732   8.736  11.102
42752W        W11082  37.569   4.830   4.608
42753W        W11083  33.556  14.602   1.746
42754W        W11084  42.327  38.996  10.920
42755W        W11085  32.946  11.130  11.404
42756W        W11086  12.691   7.744   3.321
42757W        W11087  18.108  44.344  14.397
42758W        W11088   0.774   2.272   0.735
42759W        W11089  19.122  10.336   3.356
42760W        W11090  18.134  28.106  14.289
42761W        W11091  24.142   7.289   3.156
42762W        W11092  31.607   4.239  11.592
42763W        W11093  44.457  35.004   2.407
42764W        W11094   3.795  20.172  11.917
42765W        W11095  31.153  37.018  13.331
42766W        W11096  13.813  38.406   2.741
42767W        W11097  20.060   3.380   0.342
42768W        W11098  29.001  20.035   0.331
42769W        W11099  24.550   6.193  11.538
42770W        W11100  26.679  32.601   2.681
42771W        W11101  11.676   7.719  11.448
42772W        W11102  22.605  33.439  11.385
42773W        W11103   2.281  11.261   1.394
42774W        W11104  29.025  10.668   2.407
42775W        W11105  34.897   2.928  11.583
42776W        W11106  36.942  22.088  14.877
42777W        W11107   7.376  23.726   2.311
42778W        W11108  32.940  43.445   0.911
42779W        W11109  13.707  35.939  12.379
42780W        W11110  14.594  26.642  12.440
42781W        W11111  32.556  19.266  10.065
42782W        W11112  27.086  13.331  14.978
42783W        W11113  13.222   1.464  12.075
42784W        W11114  15.276  34.033   1.887
42785W        W11115  29.638  14.597  11.869
42786W        W11116  44.923  36.479  13.864
42787W        W11117  24.213  12.346  12.841
42788W        W11118   2.384  30.640   3.274
42789W        W11119  36.512  39.397   3.665
42790W        W11120  44.851   8.861  10.974
42791W        W11121   1.324   1.836  13.944
42792W        W11122  35.933   2.404   3.253
42793W        W11123  42.852  16.734   4.165
42794W        W11124  29.052   3.855   0.341
42795W        W11125  22.123  25.670  10.597
42796W        W11126  25.206  36.933  10.917
42797W        W11127  18.778   7.209   3.316
42798W        W11128  29.174  20.687   3.827
42799W        W11129   0.487  10.150  13.352
42800W        W11130  36.348  19.549   3.866
42801W        W11131  29.476  22.670  10.507
42802W        W11132   2.350  20.660  12.013
42803W        W11133  38.451   6.900  12.023
42804W        W11134  26.616   2.229  10.639
42805W        W11135   4.724   1.926  10.920
42806W        W11136  28.491  18.696  14.402
42807W        W11137   5.231  36.423   1.371
42808W        W11138  39.027  13.346  11.067
42809W        W11139  19.565  26.532   3.726
42810W        W11140  15.130  41.391  10.562
42811W        W11141  39.507  23.163  10.487
42812W        W11142  17.682   2.722  11.598
42813W        W11143  28.576   0.908   2.191
42814W        W11144  28.982  10.305  14.383
42815W        W11145  14.829  12.335   0.407
42816W        W11146  20.755  22.163  12.453
42817W        W11147  42.405  28.628   0.913
42818W        W11148  11.176  19.708   4.716
42819W        W11149  16.181  18.108  13.387
42820W        W11150   5.902  11.303  11.043
42821W        W11151  41.479   7.228   0.302
42822W        W11152  10.250  41.487  12.918
42823W        W11153  27.963  15.704   0.424
42824W        W11154  17.690  28.053  10.992
42825W        W11155  26.685  33.536  12.081
42826W        W11156  42.990  32.578  13.541
42827W        W11157  24.628   4.710   1.808
42828W        W11158  32.931  10.365  14.818
42829W        W11159   4.432  10.169  10.622
42830W        W11160  11.829  16.177   3.164
42831W        W11161  39.507  16.170  12.903
42832W        W11162   2.771  20.145   4.724
42833W        W11163  32.491   3.334  13.437
42834W        W11164  28.931  29.171   4.639
42835W        W11165  32.031   7.756  13.473
42836W        W11166  35.562  37.932   1.222
42837W        W11167  13.164  25.552  14.826
42838W        W11168   7.700  17.187  14.295
42839W        W11169  35.460  19.693  14.912
42840W        W11170  32.576   6.744   0.383
42841W        W11171   2.243  43.812  14.373
42842W        W11172   7.826  42.343   0.962
42843W        W11173  15.607   7.819   1.924
42844W        W11174  10.169   1.375  13.913
42845W        W11175  41.798  39.982  12.416
42846W        W11176  42.344   9.314   2.300
42847W        W11177  25.034  19.731   1.283
42848W        W11178  16.744  37.015   1.699
42849W        W11179  23.687  18.554   4.351
42850W        W11180   0.463  39.876   2.664
42851W        W11181   9.868  42.333   0.430
42852W        W11182  20.039   2.352  13.308
42853W        W11183  27.965   0.904   1.404
42854W        W11184   1.296  23.652   0.297
42855W        W11185  37.467  38.966  11.113
42856W        W11186   7.271  22.688  12.566
42857W        W11187  13.251   5.870   1.420
42858W        W11188  24.176  29.150  10.593
42859W        W11189  29.997  23.225   0.959
42860W        W11190  33.125   6.907   3.256
42861W        W11191  32.996  19.228  14.811
42862W        W11192  30.571   7.900  14.464
42863W        W11193  25.087  19.284  12.931
42864W        W11194  44.417  33.107   0.800
42865W        W11195  32.617  19.205  11.083
42866W        W11196  17.768   1.804   3.703
42867W        W11197  10.232  10.362  14.358
42868W        W11198  42.882  19.074   2.851
42869W        W11199  17.575  29.077   4.224
42870W        W11200  39.985   4.433  14.810
42871W        W11201   8.282  43.395   3.340
42872W        W11202  15.614  44.358  12.414
42873W        W11203  13.124  38.955  10.636
42874W        W11204  44.848  37.934  10.955
42875W        W11205  29.476  10.371  12.034
42876W        W11206   3.805   7.406  14.946
42877W        W11207   5.291  13.673   4.709
42878W        W11208   6.321  42.462  14.989
42879W        W11209  13.251  19.199   0.383
42880W        W11210  18.569  24.157   2.879
42881W        W11211  27.490  20.597   2.318
42882W        W11212  10.276  14.242  12.357
42883W        W11213  20.271  19.152  14.905
42884W        W11214  17.189  15.578  10.910
42885W        W11215  30.603  19.263  13.849
42886W        W11216  44.837  42.288   3.752
42887W        W11217   6.190  21.593   0.899
42888W        W11218   6.253   8.271  11.418
42889W        W11219  27.068  20.221  12.877
42890W        W11220  33.609  26.495   1.700
42891W        W11221   4.323  34.383  11.867
42892W        W11222  16.245  18.645  11.112
42893W        W11223  24.182   6.873   2.203
42894W        W11224  23.550  12.676  14.003
42895W        W11225   3.391  10.364   1.784
42896W        W11226  39.545   0.814   2.372
42897W        W11227   2.732  24.226   1.844
42898W        W11228  15.264  21.669  11.022
42899W        W11229  13.237  33.565  10.580
42900W        W11230  21.052  15.627   3.672
42901W        W11231  25.524  31.580   0.869
42902W        W11232  13.740  30.609  13.988
42903W        W11233  27.547  32.469   3.785
42904W        W11234  24.509  23.112   3.185
42905W        W11235   1.362  29.032   0.455
42906W        W11236  20.208   9.653  12.528
42907W        W11237  19.600  32.958  14.959
42908W        W11238  41.838  32.053  13.348
42909W        W11239  22.063  13.113  10.566
42910W        W11240  22.212  42.285  12.058
42911W        W11241   4.288  27.101  12.035
42912W        W11242  28.668  26.079   0.728
42913W        W11243  11.333  37.366   3.751
42914W        W11244  17.559  39.503   4.161
42915W        W11245  42.391  37.021   0.363
42916W        W11246  35.537   1.783   0.882
42917W        W11247  40.986  34.536  13.361
42918W        W11248  32.127  11.349   3.775
42919W        W11249  17.675  41.820  13.054
42920W        W11250  24.112  43.771   0.810
42921W        W11251  15.264  32.985   3.372
42922W        W11252  44.473  15.604   4.271
42923W        W11253  16.759  36.449   2.716
42924W        W11254  41.858   1.867  12.408
42925W        W11255  27.973  43.871   1.786
42926W        W11256  35.006  23.730   3.728
42927W        W11257  30.509  32.015   5.154
42928W        W11258   3.947  29.148   2.212
42929W        W11259  24.988  40.429  14.982
42930W        W11260  26.599  37.511   2.678
42931W        W11261   2.892  12.685  12.541
42932W        W11262  42.910  36.507  11.522
42933W        W11263  13.226  28.009  10.604
42934W        W11264  28.675  12.131  10.903
42935W        W11265  43.787  31.438   2.745
42936W        W11266  41.518   7.223  14.898
42937W        W11267  20.177  28.981   4.277
42938W        W11268  30.577  14.608   1.308
42939W        W11269  15.261  37.395   3.202
42940W        W11270  41.355  32.503   2.844
42941W        W11271  32.888  27.542   1.835
42942W        W11272  41.519  15.099   1.369
42943W        W11273   5.919  25.964   0.843
42944W        W11274   5.735  17.797  12.495
42945W        W11275  40.997  26.516   4.215
42946W        W11276   6.363  37.442  11.423
42947W        W11277   9.674  18.282  14.986
42948W        W11278  32.974  27.039   1.903
42949W        W11279  26.037  13.666  11.494
42950W        W11280  21.090  23.241   2.690
42951W        W11281  23.185   2.888  11.005
42952W        W11282   3.267  29.572  12.924
42953W        W11283   9.150  29.588  10.628
42954W        W11284  42.319  25.669  13.431
42955W        W11285  16.769  16.802  11.008
42956W        W11286  19.194  35.468   2.398
42957W        W11287  23.688  22.141  10.897
42958W        W11288  44.404  41.380  10.563
42959W        W11289  31.553  21.031   2.807
42960W        W11290  31.933  22.512   4.295
42961W        W11291  18.651  29.510  13.005
42962W        W11292   7.898  25.987   2.662
42963W        W11293  39.353  20.028  12.412
42964W        W11294  14.301  27.457   2.723
42965W        W11295   4.940  18.193  10.643
42966W        W11296  36.935   9.229  11.527
42967W        W11297  14.319  13.222  14.420
42968W        W11298  32.440   1.476  14.382
42969W        W11299  33.036  36.078   2.890
42970W        W11300  29.044  33.082  14.899
42971W        W11301  24.010  39.061   1.935
42972W        W11302   6.736  44.369   2.258
42973W        W11303  18.650   5.767  13.868
42974W        W11304  40.495  34.491  14.384
42975W        W11305  44.895  34.914   1.867
42976W        W11306   4.402  18.259   1.220
42977W        W11307  28.513   9.376   0.460
42978W        W11308   8.750  38.544   4.319
42979W        W11309  40.399   9.827  13.952
42980W        W11310   0.348   2.432  12.459
42981W        W11311  26.065  32.100   3.632
42982W        W11312  22.653   4.790   1.695
42983W        W11313  15.608  35.041  10.431
42984W        W11314  16.148  38.064   9.456
42985W        W11315   5.835  30.646  13.365
42986W        W11316  19.681  42.903  10.512
42987W        W11317  15.189  16.580  13.437
42988W        W11318  44.848   3.402   0.298
42989W        W11319  16.782   1.780   2.867
42990W        W11320  20.170  38.983  13.049
42991W        W11321  25.469   6.346  13.317
42992W        W11322   4.900  16.622  11.905
42993W        W11323  37.484   3.886   2.703
42994W        W11324  28.465  44.774   1.907
42995W        W11325  17.168   3.289   2.897
42996W        W11326   0.347  28.977  13.408
42997W        W11327   6.417   6.244  11.052
42998W        W11328  26.498  34.011   4.644
42999W        W11329  24.654  26.055   4.647
43000W        W11330  10.296  13.274   1.805
43001W        W11331  26.155  28.007   4.828
43002W        W11332  19.053   2.365   4.774
43003W        W11333  31.061  42.506  12.435
43004W        W11334   5.816   1.779  12.421
43005W        W11335  16.303  43.857  14.301
43006W        W11336  29.606  34.520   4.607
43007W        W11337  43.893   9.680   1.916
43008W        W11338  37.075  17.203  11.927
43009W        W11339   2.300  32.544   4.645
43010W        W11340  36.929  37.022   4.773
43011W        W11341  14.610  21.657  11.589
43012W        W11342  29.123  39.372  12.346
43013W        W11343  43.301  14.592  13.976
43014W        W11344  24.181  14.124  12.431
43015W        W11345  17.278  40.345   3.777
43016W        W11346  15.811  11.740   2.209
43017W        W11347   3.328  25.568   4.283
43018W        W11348  37.427  39.538   2.781
43019W        W11349  30.117  17.083  10.922
43020W        W11350   5.849  21.231   3.640
43021W        W11351  27.150  33.041  12.844
43022W        W11352   0.319  23.543  12.931
43023W        W11353  38.404   8.240   0.250
43024W        W11354  39.884  30.157  13.005
43025W        W11355  27.090  42.374  12.423
43026W        W11356  28.675  32.595  14.344
43027W        W11357  19.280  22.222   4.236
43028W        W11358  29.549  28.498   1.721
43029W        W11359  19.155   7.911   4.262
43030W        W11360  31.415  33.426  13.935
43031W        W11361  26.027  18.758   2.684
43032W        W11362   7.890  20.769   4.221
43033W        W11363  38.353   1.835  12.076
43034W        W11364   6.835   4.782   1.746
43035W        W11365  22.186   6.916  10.120
43036W        W11366  32.448  39.330   3.295
43037W        W11367  13.810  21.091  10.598
43038W        W11368  20.068  27.624  11.410
43039W        W11369  22.529  13.605  11.392
43040W        W11370   5.798   2.955  14.371
43041W        W11371   4.930  38.439   1.239
43042W        W11372  15.583   9.285  13.544
43043W        W11373  41.821  26.153   4.770
43044W        W11374  37.340  44.381   0.922
43045W        W11375   3.282   2.261  12.512
43046W        W11376   2.966  17.216  14.480
43047W        W11377  42.390  27.968  12.878
43048W        W11378  24.178  24.221   3.148
43049W        W11379  22.183   8.898   4.598
43050W        W11380  26.138  43.797  11.905
43051W        W11381   8.262  18.657  14.949
43052W        W11382  44.342  42.948   2.351
43053W        W11383   2.336   3.744  14.781
43054W        W11384   0.759  35.427  14.009
43055W        W11385   7.718  44.326  11.894
43056W        W11386  14.817  42.867   2.757
43057W        W11387  17.787  37.489   0.759
43058W        W11388   2.242  21.672  13.402
43059W        W11389  44.910  28.602  12.068
43060W        W11390   0.801  23.656   2.800
43061W        W11391  19.278  36.969   3.810
43062W        W11392  31.473  17.568   2.380
43063W        W11393  32.396  27.055  14.959
43064W        W11394  22.602  13.131   3.760
43065W        W11395  33.387  27.950   2.417
43066W        W11396  22.662   1.766   1.719
43067W        W11397  40.836  15.175   0.874
43068W        W11398  44.502  43.385   4.636
43069W        W11399   7.726  24.599   2.179
43070W        W11400  30.123  29.990   0.753
43071W        W11401  18.113  22.592   4.687
43072W        W11402  36.040  35.448   0.747
43073W        W11403  15.787  30.050  13.437
43074W        W11404  13.329  34.068  10.558
43075W        W11405  15.289  23.101   0.892
43076W        W11406  38.966   8.337   4.624
43077W        W11407  33.488  24.086   0.733
43078W        W11408   3.717   7.672   1.272
43079W        W11409   2.316  10.176   1.423
43080W        W11410  39.927   8.685  14.869
43081W        W11411  39.398  22.057   4.806
43082W        W11412   9.831  41.399  11.573
43083W        W11413  13.224  32.896  13.062
43084W        W11414  30.537  37.944  12.050
43085W        W11415  37.480  31.904   4.274
43086W        W11416  38.380  39.853   0.794
43087W        W11417  30.516  37.508  13.008
43088W        W11418  20.717  12.650  13.936
43089W        W11419  12.242  19.093  10.528
43090W        W11420  44.985  28.535  13.958
43091W        W11421   7.722   3.954  10.460
43092W        W11422  10.220  26.691   1.933
43093W        W11423  11.855  17.755  13.366
43094W        W11424  41.294  36.348  10.534
43095W        W11425  40.042  27.646  13.934
43096W        W11426  23.622   8.377  14.310
43097W        W11427  11.161  24.128  14.277
43098W        W11428  13.833  20.142  12.893
43099W        W11429  22.106   1.903   0.474
43100W        W11430  23.042   3.915   2.852
43101W        W11431  11.756  17.650  13.830
43102W        W11432   8.738  20.195   0.944
43103W        W11433   4.387  27.683  13.338
43104W        W11434   1.871  41.956   3.237
43105W        W11435  10.632  15.665   3.217
43106W        W11436  25.047   4.268  11.610
43107W        W11437  24.151  44.334  13.793
43108W        W11438   5.784  40.526  12.939
43109W        W11439  26.551   8.675   3.684
43110W        W11440  29.531   9.164   0.479
43111W        W11441  21.252   1.880  13.960
43112W        W11442  33.396  24.556   3.210
43113W        W11443  37.046  15.147  13.845
43114W        W11444  26.101  40.493   0.391
43115W        W11445  38.834  10.643  12.465
43116W        W11446  23.003  38.385   1.911
43117W        W11447   5.427   0.954   3.690
43118W        W11448   6.242  11.718  10.427
43119W        W11449  40.797  37.347   4.149
43120W        W11450  21.198   1.453  11.095
43121W        W11451  32.393   1.431  13.817
43122W        W11452  17.233   0.337  11.540
43123W        W11453  37.064  25.058  11.860
43124W        W11454  23.534  24.607   4.306
43125W        W11455  22.635  20.038   0.949
43126W        W11456  22.232   3.343   2.275
43127W        W11457  36.020   9.378   3.333
43128W        W11458   0.253  29.022  11.527
43129W        W11459  44.772  12.346  14.846
43130W        W11460  17.171  13.243  10.428
43131W        W11461   8.814  43.328   3.308
43132W        W11462  44.781  30.929   0.954
43133W        W11463  40.940  13.177  11.996
43134W        W11464  25.492   8.829  11.088
43135W        W11465  33.417  31.125   3.829
43136W        W11466   2.307  31.938  10.105
43137W        W11467  19.773  24.569   3.361
43138W        W11468  20.067   3.342   2.717
43139W        W11469  40.901  20.030  14.429
43140W        W11470  30.940  40.810   2.880
43141W        W11471  11.364   4.734   2.399
43142W        W11472  23.083   5.409   1.765
43143W        W11473   2.275  30.036  12.492
43144W        W11474  22.213  17.674   1.749
43145W        W11475  41.509   9.352   0.874
43146W        W11476  21.694   3.828   0.342
43147W        W11477   0.784  21.206  11.404
43148W        W11478  28.442   7.791  11.413
43149W        W11479  32.966  28.037   0.465
43150W        W11480  35.032  44.308   4.598
43151W        W11481  38.378  38.352  12.420
43152W        W11482  24.073   1.254  14.341
43153W        W11483  22.171  38.567   3.816
43154W        W11484   3.835   1.443  14.417
43155W        W11485   9.754  38.040  14.989
43156W        W11486   9.868  44.943   1.244
43157W        W11487  13.312  22.238   2.363
43158W        W11488  42.339  37.533   1.328
43159W        W11489  31.456  28.089   1.439
43160W        W11490  35.579   7.199   4.722
43161W        W11491  18.196  38.856   0.429
43162W        W11492  33.076   1.786   4.719
43163W        W11493  16.637  15.090   1.855
43164W        W11494  20.578   2.911  13.901
43165W        W11495  13.194  44.956  12.976
43166W        W11496  24.597   5.803  14.440
43167W        W11497   6.843  20.549   2.310
43168W        W11498  38.841  26.073  11.905
43169W        W11499   2.793  44.904  12.948
43170W        W11500   9.883  29.058  10.467
43171W        W11501   8.315  39.462  14.497
43172W        W11502   9.673  40.826   3.240
43173W        W11503  12.144  31.990   4.227
43174W        W11504  21.118  25.984   0.947
43175W        W11505  29.073  30.045  14.823
43176W        W11506  11.753  42.325   3.256
43177W        W11507  43.430   8.706  10.024
43178W        W11508  43.962  28.179  12.363
43179W        W11509  36.386   1.851  11.984
43180W        W11510  39.531   4.434   1.726
43181W        W11511  20.216   5.426  14.783
43182W        W11512   9.865  42.998  14.377
43183W        W11513  12.706  29.022   4.116
43184W        W11514   5.741   6.871   2.312
43185W        W11515  21.203   5.338  14.434
43186W        W11516  36.452   4.263   2.825
43187W        W11517  12.351   1.237  11.036
43188W        W11518  38.075  41.435  13.502
43189W        W11519  18.614  10.822  14.462
43190W        W11520   6.745  14.807  12.402
43191W        W11521  28.951  19.541  12.924
43192W        W11522   1.440  30.609  11.905
43193W        W11523  22.654  43.286   3.248
43194W        W11524  31.139   9.390   4.185
43195W        W11525  33.456  10.724   4.676
43196W        W11526  42.505  17.136  13.821
43197W        W11527  29.978  35.528   4.262
43198W        W11528  11.272   0.854  10.889
43199W        W11529  16.211  17.725  13.868
43200W        W11530   6.245   1.477  11.415
43201W        W11531   1.745  38.385  12.903
43202W        W11532  21.209   5.717  10.588
43203W        W11533  30.938  31.125  12.854
43204W        W11534   2.463  41.422  13.374
43205W        W11535   7.866  36.415  14.277
43206W        W11536  19.629   6.251  10.562
43207W        W11537   2.771  14.727  12.996
43208W        W11538  10.368   3.317   0.445
43209W        W11539  15.613  30.640   0.777
43210W        W11540  36.444   8.830   2.835
43211W        W11541  33.904  19.100  11.124
43212W        W11542  35.472   8.228   4.289
43213W        W11543  20.689  20.580   3.197
43214W        W11544   9.264  33.439  13.937
43215W        W11545  14.733  41.512  14.773
43216W        W11546  36.911   0.304  14.773
43217W        W11547  11.228  38.458  14.316
43218W        W11548  23.020  32.396  11.395
43219W        W11549  23.116   2.358   4.669
43220W        W11550  40.865  39.336   1.414
43221W        W11551  18.237  24.142   0.462
43222W        W11552   9.190  43.487  13.004
43223W        W11553  24.674   0.944  12.940
43224W        W11554  39.844  29.525  13.026
43225W        W11555  22.182   6.207   1.839
43226W        W11556  41.345  34.951  14.304
43227W        W11557  23.552  20.598  11.105
43228W        W11558  30.506  39.516  14.947
43229W        W11559   6.788   8.779  12.076
43230W        W11560  16.625  28.052  14.280
43231W        W11561  43.409  22.561   3.803
43232W        W11562  30.609  31.494  11.060
43233W        W11563  30.502  19.147  13.325
43234W        W11564  38.562  43.351   1.813
43235W        W11565  20.667  40.839   0.859
43236W        W11566  24.217  11.761  13.873
43237W        W11567  16.753  10.301  11.470
43238W        W11568  23.105  33.592   1.747
43239W        W11569  41.471  23.109   0.956
43240W        W11570  39.544  17.758  12.932
43241W        W11571  15.700   3.756   0.864
43242W        W11572  34.000  43.272  12.916
43243W        W11573   4.725  29.090   2.824
43244W        W11574   7.676  27.492   4.152
43245W        W11575  21.184  25.581   1.376
43246W        W11576  22.146   5.239  11.479
43247W        W11577  32.404  20.029   2.225
43248W        W11578   6.778   6.279  12.940
43249W        W11579  33.003  28.000  13.527
43250W        W11580   0.914  22.015  11.038
43251W        W11581  38.544  22.657   0.368
43252W        W11582  23.734  25.707  11.443
43253W        W11583  11.342  23.607  11.998
43254W        W11584  24.654  25.033   2.353
43255W        W11585  19.742   9.872   0.479
43256W        W11586   2.308  28.514   2.861
43257W        W11587  27.571  19.548   3.636
43258W        W11588   8.166  23.543  11.398
43259W        W11589  30.073  43.013   3.761
43260W        W11590  39.061  29.043  11.861
43261W        W11591  24.084  35.412   2.413
43262W        W11592  21.755  27.036  13.310
43263W        W11593  41.320  36.591   3.164
43264W        W11594  13.331  44.380  13.306
43265W        W11595  30.006  43.447   4.731
43266W        W11596  27.155  31.918  14.783
43267W        W11597  34.116  16.785  14.889
43268W        W11598  19.112  12.123  10.637
43269W        W11599   8.900   4.433  13.872
43270W        W11600   1.825   8.279  14.766
43271W        W11601  37.932   2.933  13.805
43272W        W11602  27.192  30.049  11.095
43273W        W11603  21.595  44.437   4.212
43274W        W11604  28.982  35.958   1.914
43275W        W11605  24.187  43.976  11.527
43276W        W11606   7.334  13.633   3.753
43277W        W11607  21.556  28.059  13.447
43278W        W11608  22.078  15.698  14.931
43279W        W11609  24.148   5.276  11.449
43280W        W11610  15.690  22.220  11.495
43281W        W11611  44.843  29.158  14.028
43282W        W11612  11.139  35.068   0.442
43283W        W11613  30.155  23.644   1.728
43284W        W11614  11.201  19.540   1.410
43285W        W11615  36.921  35.928   1.863
43286W        W11616   7.407  25.038  13.440
43287W        W11617  44.782  34.490  10.420
43288W        W11618  19.142  32.009   4.251
43289W        W11619  15.327  21.584   2.292
43290W        W11620  32.498  19.719   1.421
43291W        W11621   7.406   7.397  12.577
43292W        W11622  25.518  17.306  14.943
43293W        W11623  38.504  11.301   3.370
43294W        W11624  32.458  16.244   0.459
43295W        W11625  32.450  21.632  14.792
43296W        W11626  29.516  30.913  14.508
43297W        W11627  43.467   6.402  12.859
43298W        W11628  28.933  36.466   2.858
43299W        W11629  10.255  36.843  11.490
43300W        W11630  37.455  43.778   2.796
43301W        W11631  29.926  25.069  13.983
43302W        W11632   2.755  21.684  11.893
43303W        W11633  37.027  23.545   3.709
43304W        W11634   4.264  41.333  12.369
43305W        W11635  15.253   1.800   3.695
43306W        W11636  12.255  24.514   1.353
43307W        W11637  38.894  41.980  11.560
43308W        W11638  27.006  19.665  12.083
43309W        W11639   9.770  21.621  11.049
43310W        W11640  23.001  15.619  11.974
43311W        W11641   0.921  44.497  14.766
43312W        W11642  21.203  41.340  10.150
43313W        W11643   7.731  43.959   4.172
43314W        W11644  29.094   9.701   4.746
43315W        W11645  35.974  43.017   3.355
43316W        W11646  42.784  24.693   2.190
43317W        W11647  43.449  27.152  14.871
43318W        W11648  33.928  11.176   0.322
43319W        W11649  18.140  40.547   3.652
43320W        W11650   0.812  41.862  11.595
43321W        W11651   5.309  39.381  11.859
43322W        W11652  22.028  44.408   2.799
43323W        W11653  41.373  29.585  13.875
43324W        W11654  35.387  44.920   1.797
43325W        W11655  16.622   4.750  11.900
43326W        W11656   4.375   8.874  11.484
43327W        W11657  42.012  24.042   4.711
43328W        W11658  44.884  16.194   2.215
43329W        W11659   7.335   2.335   2.322
43330W        W11660  34.422  24.490   1.333
43331W        W11661  35.023  39.448   3.180
43332W        W11662   1.481  43.384   3.788
43333W        W11663  32.498  22.565   2.208
43334W        W11664  29.115  32.987   3.338
43335W        W11665  42.355  22.509   0.414
43336W        W11666  32.464  28.551  11.974
43337W        W11667  36.018  16.603   2.218
43338W        W11668  10.683  41.004   3.749
43339W        W11669  37.028  10.635   3.222
43340W        W11670  36.534   8.768  14.921
43341W        W11671  21.250  15.649  14.312
43342W        W11672  39.004  21.068   2.393
43343W        W11673  14.799   8.685   3.833
43344W        W11674  27.024  40.319   4.761
43345W        W11675  30.557  25.652   1.694
43346W        W11676  43.436  35.376  13.050
43347W        W11677  32.423  24.983  11.067
43348W        W11678  28.001  15.254  11.410
43349W        W11679   4.421   6.865   4.734
43350W        W11680  30.927  42.937  12.029
43351W        W11681  35.036  28.677  11.085
43352W        W11682  21.179  27.997  10.469
43353W        W11683  29.603  30.990   4.677
43354W        W11684  31.612   7.818  13.537
43355W        W11685  38.020  39.926   1.813
43356W        W11686  15.231  35.386   5.265
43357W        W11687   7.309  12.773  11.096
43358W        W11688  33.504  11.846   2.817
43359W        W11689  21.233  14.692  10.958
43360W        W11690  17.681  40.986   0.839
43361W        W11691  34.076   5.234  14.981
43362W        W11692  10.843   6.918  11.896
43363W        W11693  25.172   1.950   2.834
43364W        W11694  26.203   9.776   1.437
43365W        W11695  19.168  26.568  10.479
43366W        W11696   4.838  30.102   4.121
43367W        W11697  40.366  22.141   1.821
43368W        W11698  30.122  30.448   3.733
43369W        W11699  26.511   0.978   4.172
43370W        W11700  11.349   7.264   1.762
43371W        W11701  12.635  12.785   4.745
43372W        W11702  20.146  34.406   1.818
43373W        W11703  20.739  11.691   3.831
43374W        W11704   5.257  16.304  12.386
43375W        W11705  24.212   0.300   2.901
43376W        W11706  15.794  23.600   3.630
43377W        W11707  33.042  38.344  14.819
43378W        W11708   5.431  21.198  14.005
43379W        W11709  22.053  42.898   0.400
43380W        W11710  33.895  26.112  11.898
43381W        W11711  26.599  10.287  13.798
43382W        W11712  37.013  21.253   3.373
43383W        W11713  35.979  18.228  14.428
43384W        W11714  43.341  32.499  12.035
43385W        W11715   9.809   3.899  11.597
43386W        W11716   8.758   1.394  11.006
43387W        W11717  19.106  18.073   0.256
43388W        W11718   7.777  15.279  12.514
43389W        W11719  16.221  22.593   2.742
43390W        W11720  24.059  38.461  14.279
43391W        W11721  21.180  40.825  12.397
43392W        W11722  42.969   2.431   2.837
43393W        W11723   5.200  26.614  14.409
43394W        W11724  14.245  20.662  12.488
43395W        W11725  36.950  15.660   3.638
43396W        W11726  14.731  37.875  12.971
43397W        W11727  10.827  16.585   3.373
43398W        W11728  34.097   3.236  13.950
43399W        W11729   5.239  28.118   0.414
43400W        W11730  23.077  43.475  12.842
43401W        W11731  34.072   3.416   2.888
43402W        W11732   1.741  18.188   2.358
43403W        W11733  12.157   7.837   2.808
43404W        W11734  39.044   7.750   1.789
43405W        W11735  42.972  12.693  11.890
43406W        W11736  20.596   8.747  14.453
43407W        W11737   8.829  29.056  12.387
43408W        W11738   3.448   0.836   5.203
43409W        W11739   8.340  44.351   1.699
43410W        W11740  42.967  10.243  13.021
43411W        W11741  38.920  34.079   9.966
43412W        W11742  38.563  37.858  10.945
43413W        W11743  17.569  20.543   2.663
43414W        W11744  20.166   8.892  13.376
43415W        W11745  10.661   8.858   0.286
43416W        W11746   7.854  42.796  10.582
43417W        W11747  24.551  25.014   2.718
43418W        W11748  42.378   8.240  14.392
43419W        W11749  42.009  12.188  13.912
43420W        W11750  35.873  20.274  10.978
43421W        W11751  17.181  41.827   2.784
43422W        W11752   2.850   1.767  10.964
43423W        W11753  18.152  11.250  10.587
43424W        W11754  30.510   1.868  13.998
43425W        W11755  28.020  39.966  11.886
43426W        W11756  19.136  42.878   4.241
43427W        W11757  16.766  13.631  11.927
43428W        W11758  41.022  15.091   1.225
43429W        W11759  35.495   5.423   4.238
43430W        W11760   5.748   1.830   4.606
43431W        W11761   6.906  23.645  11.077
43432W        W11762  22.126  44.349   1.794
43433W        W11763  14.713  18.050   1.372
43434W        W11764  25.499  21.152   2.662
43435W        W11765  43.908  25.033  11.549
43436W        W11766  32.062  12.728  12.492
43437W        W11767  27.987  18.750  12.580
43438W        W11768  12.261  25.650  11.968
43439W        W11769  35.103  30.560  14.380
43440W        W11770   1.304  19.685  10.407
43441W        W11771  20.737  35.598   4.343
43442W        W11772   7.220  24.026   4.722
43443W        W11773  34.014  31.053   4.163
43444W        W11774  30.511   4.873   3.167
43445W        W11775   2.814  37.999   4.824
43446W        W11776  41.818  21.589  11.543
43447W        W11777  29.098  19.145  10.452
43448W        W11778   3.284  32.098  14.028
43449W        W11779  37.432  22.021   0.773
43450W        W11780  28.137  43.384   0.753
43451W        W11781   7.802  20.657   1.869
43452W        W11782  26.485  30.524  13.504
43453W        W11783  39.384  38.941  14.964
43454W        W11784  16.727  26.550  13.037
43455W        W11785  22.621  15.093   1.715
43456W        W11786  21.114  34.414  12.341
43457W        W11787  14.653  14.197   2.892
43458W        W11788   0.799  23.218   4.718
43459W        W11789   0.280  13.738  14.798
43460W        W11790  20.105  42.830   0.767
43461W        W11791   0.893   8.302  13.892
43462W        W11792  28.101  43.371  14.413
43463W        W11793   9.176  25.122  13.046
43464W        W11794  19.762  22.513  10.529
43465W        W11795  18.067  34.908   4.815
43466W        W11796  15.665   5.266  11.453
43467W        W11797  10.731  37.931   4.825
43468W        W11798  20.059   1.869   4.607
43469W        W11799  28.146   3.807   4.627
43470W        W11800   1.472  34.015   4.720
43471W        W11801   5.691  13.841   2.382
43472W        W11802  20.732  44.928  11.489
43473W        W11803  11.253  20.528  14.805
43474W        W11804  43.009  24.553  11.929
43475W        W11805  44.388   0.912  13.348
43476W        W11806  25.474   3.795  11.519
43477W        W11807   7.831  23.525  13.522
43478W        W11808  20.738  34.525  10.620
43479W        W11809  42.370  35.862   1.364
43480W        W11810  20.059  12.746   1.914
43481W        W11811  22.233  31.050  12.357
43482W        W11812  16.594   0.777   2.352
43483W        W11813  29.614   5.200   2.251
43484W        W11814  24.004  43.914   1.702
43485W        W11815  17.589  43.897  12.374
43486W        W11816   9.338  12.202  10.923
43487W        W11817  12.258  19.685  11.399
43488W        W11818  20.227  18.744  14.966
43489W        W11819  39.463  30.451   2.869
43490W        W11820   3.294  39.953  12.850
43491W        W11821  43.969  41.382   2.406
43492W        W11822  25.576  38.861   2.684
43493W        W11823  10.242   0.298  10.013
43494W        W11824   9.833  36.394   3.280
43495W        W11825  42.928  11.302  12.398
43496W        W11826  11.747  24.484   0.466
43497W        W11827  38.337  13.220   3.199
43498W        W11828   2.832  30.542   3.327
43499W        W11829   5.306  21.238  14.965
43500W        W11830  41.388  43.458   1.882
43501W        W11831  36.509  19.725   4.682
43502W        W11832  12.126  41.336   1.850
43503W        W11833  40.303  24.185  12.086
43504W        W11834  10.688  39.859   2.301
43505W        W11835  41.952  34.595   0.469
43506W        W11836  12.349  14.209  14.341
43507W        W11837  24.623   9.296   1.245
43508W        W11838   5.426  30.939  13.994
43509W        W11839  11.624  13.825  11.967
43510W        W11840  36.980   3.740   1.803
43511W        W11841  33.609   6.209  12.048
43512W        W11842  20.611   9.682  13.860
43513W        W11843   9.164  30.999  11.582
43514W        W11844  20.155   5.695   1.696
43515W        W11845  15.642  24.664  11.521
43516W        W11846  33.438  39.933  12.554
43517W        W11847   0.897  42.978   0.322
43518W        W11848  23.712  17.703  12.541
43519W        W11849  10.664   5.722   0.820
43520W        W11850  29.653  30.562  14.797
43521W        W11851  21.072  29.621   4.352
43522W        W11852  42.508   9.760  12.567
43523W        W11853  36.066  10.186   0.758
43524W        W11854   8.160  34.394  13.892
43525W        W11855  12.693  41.496  14.420
43526W        W11856  42.526   0.333  14.966
43527W        W11857  12.312  23.618   2.839
43528W        W11858   1.811  36.854   1.896
43529W        W11859   2.273   2.812  11.380
43530W        W11860   1.780  15.759  13.038
43531W        W11861  34.882  34.997   2.841
43532W        W11862  22.723   4.443   0.748
43533W        W11863  24.153  38.893  14.907
43534W        W11864   8.679  23.508  13.546
43535W        W11865  42.800  43.421  12.832
43536W        W11866  19.558  29.619  11.395
43537W        W11867   7.840  29.065   5.302
43538W        W11868  25.054  15.258   3.308
43539W        W11869  13.140  21.090   4.775
43540W        W11870  34.571  21.234   2.885
43541W        W11871  18.756  30.053  11.859
43542W        W11872   5.744   7.224  12.847
43543W        W11873  20.721  26.023   4.665
43544W        W11874  17.180  20.194  14.854
43545W        W11875  39.560   9.177  14.948
43546W        W11876  33.423   1.915   0.740
43547W        W11877  16.575  44.347   3.252
43548W        W11878  18.244  43.448  10.918
43549W        W11879  31.011  32.498   4.821
43550W        W11880  18.224  22.062   4.352
43551W        W11881  13.128  28.952   3.804
43552W        W11882  25.609  13.172   3.848
43553W        W11883  14.617   9.861  11.890
43554W        W11884  40.890   9.174   4.130
43555W        W11885  25.623  14.139   1.241
43556W        W11886   4.428   5.214   2.186
43557W        W11887  41.494  28.661  10.436
43558W        W11888  30.578  14.219   0.886
43559W        W11889  29.631  25.484   3.839
43560W        W11890  18.079  12.675   4.338
43561W        W11891  15.776  14.648   1.833
43562W        W11892  26.031  20.160   3.147
43563W        W11893   0.452  36.971   2.296
43564W        W11894  17.159  16.216   0.731
43565W        W11895   1.794  28.661  12.400
43566W        W11896  15.777  43.769  10.488
43567W        W11897  20.243  22.582  14.343
43568W        W11898   5.815  20.694   3.181
43569W        W11899   3.849  26.543   2.834
43570W        W11900  43.397  31.018  12.577
43571W        W11901   9.378  28.657  10.925
43572W        W11902  36.086  31.136   2.723
43573W        W11903  11.752  19.123   3.841
43574W        W11904   3.341  39.548  13.881
43575W        W11905  29.656  43.460  12.927
43576W        W11906  33.019  23.730   4.815
43577W        W11907  27.645  26.676   4.682
43578W        W11908  23.671  15.181   0.264
43579W        W11909  25.198  41.858   0.263
43580W        W11910  26.641  42.397  12.507
43581W        W11911  32.077  32.460   4.601
43582W        W11912  32.903   7.899   4.171
43583W        W11913   4.856  33.561  13.352
43584W        W11914  16.271  25.098   2.347
43585W        W11915  31.980  18.682   0.317
43586W        W11916  30.563  39.441   0.848
43587W        W11917  24.212  19.542  12.492
43588W        W11918  38.882   4.811   1.772
43589W        W11919  22.574  18.658   9.517
43590W        W11920   1.944  34.932   2.672
43591W        W11921  19.755   9.714  14.958
43592W        W11922  13.112  13.828   2.282
43593W        W11923  23.112  24.973   2.700
43594W        W11924   1.956   3.451   4.743
43595W        W11925   1.415  10.694  13.923
43596W        W11926  16.657   7.839   1.860
43597W        W11927  40.454  38.955   0.246
43598W        W11928  27.002  40.486   0.414
43599W        W11929  15.675   1.349  11.601
43600W        W11930  12.615  21.612  12.924
43601W        W11931  25.102   7.279   2.318
43602W        W11932  28.017  26.465   1.919
43603W        W11933  22.727  26.699  14.949
43604W        W11934  23.641  37.930   3.170
43605W        W11935   8.738  28.154   2.832
43606W        W11936   7.269   4.346  11.463
43607W        W11937  36.372  23.578  11.958
43608W        W11938  41.843   2.405   1.238
43609W        W11939  29.468   8.792   4.763
43610W        W11940   5.834   6.377  10.639
43611W        W11941  23.658  14.834  13.934
43612W        W11942  31.426  11.778   2.865
43613W        W11943  33.625  22.007   4.609
43614W        W11944  40.998   5.322  13.898
43615W        W11945  40.000  10.725   4.737
43616W        W11946   7.839  36.454  12.383
43617W        W11947  38.032   7.770   4.131
43618W        W11948  16.111  18.124   3.310
43619W        W11949  13.697  40.995  13.412
43620W        W11950  12.213  22.080   2.765
43621W        W11951  20.720  33.988   2.831
43622W        W11952  33.062  39.932  11.882
43623W        W11953  13.325  13.702  13.448
43624W        W11954  24.551  31.620  13.361
43625W        W11955  39.894  27.576  11.458
43626W        W11956   3.935  24.138   3.749
43627W        W11957  14.614  21.037   1.870
43628W        W11958  31.045  18.615  12.454
43629W        W11959  42.360   7.238  10.948
43630W        W11960  25.528  38.392  11.009
43631W        W11961  10.828  26.975   1.881
43632W        W11962  34.925  33.993  13.399
43633W        W11963  15.206  41.398  12.998
43634W        W11964  32.557   3.768   0.791
43635W        W11965   0.974  12.660   2.817
43636W        W11966   7.178  43.912   0.874
43637W        W11967  31.101   8.723   1.403
43638W        W11968   3.381   6.813  14.306
43639W        W11969   4.797   2.298   5.181
43640W        W11970  26.155  25.555  11.494
43641W        W11971   3.456  27.190   1.737
43642W        W11972  29.623  35.581  11.007
43643W        W11973  10.684   7.345   2.765
43644W        W11974  27.967  10.639  12.523
43645W        W11975  42.420   3.240  12.013
43646W        W11976   3.840  29.499  11.042
43647W        W11977  28.985  41.384  11.088
43648W        W11978  19.071  10.370  13.965
43649W        W11979  22.160  21.045   1.327
43650W        W11980  11.650  19.617   2.283
43651W        W11981  25.985  15.212   4.605
43652W        W11982  37.087  41.963  11.470
43653W        W11983   5.775  19.071  11.919
43654W        W11984  37.079  16.724   3.814
43655W        W11985  26.495   3.837   4.132
43656W        W11986  41.431  28.097   0.879
43657W        W11987   4.921   2.834  14.295
43658W        W11988  38.863   8.395   3.377
43659W        W11989  40.965  40.467   2.352
43660W        W11990  39.512  15.266   1.838
43661W        W11991  41.416   8.354   4.674
43662W        W11992  20.168  38.836  13.934
43663W        W11993  26.505  44.312  10.502
43664W        W11994  17.076  34.370  10.895
43665W        W11995  22.534   2.360   1.293
43666W        W11996  41.935  12.207  10.991
43667W        W11997  44.423  31.037   4.161
43668W        W11998  10.323  30.580  12.959
43669W        W11999  28.962  15.142  11.600
43670W        W12000  15.743   1.940   0.285
43671W        W12001   3.849  27.052   0.928
43672W        W12002   1.852   7.874   4.638
43673W        W12003  21.517   6.850   4.600
43674W        W12004  41.038   5.328  12.940
43675W        W12005  43.372  40.444   2.367
43676W        W12006   3.950  10.261  10.084
43677W        W12007   7.775  29.063   3.842
43678W        W12008  20.134  17.590  12.876
43679W        W12009  24.185   0.748  10.435
43680W        W12010  28.945  22.556  13.971
43681W        W12011  12.270  14.136  12.503
43682W        W12012  38.878   8.812  14.443
43683W        W12013   5.762  13.183  11.878
43684W        W12014  13.609   0.758   1.256
43685W        W12015   5.688  27.639  13.978
43686W        W12016  39.885  17.564  11.404
43687W        W12017  44.396   6.678  12.399
43688W        W12018  41.338   4.830  10.560
43689W        W12019   3.315  12.784  11.015
43690W        W12020  30.478  42.792   0.357
43691W        W12021  23.543  24.994   3.650
43692W        W12022  25.003  43.789  11.429
43693W        W12023  23.007   6.848   1.733
43694W        W12024  36.007  11.860   1.694
43695W        W12025  39.917  25.079  10.948
43696W        W12026  36.524  37.425  11.498
43697W        W12027   3.805  38.002   4.314
43698W        W12028  34.487   2.260  12.546
43699W        W12029   4.252  18.224  12.393
43700W        W12030  38.459  14.141   3.242
43701W        W12031   2.250  20.030  10.573
43702W        W12032  24.652   5.356   3.813
43703W        W12033  23.606  12.332  13.489
43704W        W12034  28.123   8.808   0.321
43705W        W12035  15.803  11.667   4.777
43706W        W12036   4.781  13.298  10.132
43707W        W12037  30.163   5.321   2.231
43708W        W12038  25.188   0.462   4.198
43709W        W12039  18.187  23.706   0.794
43710W        W12040  35.571  38.343   0.398
43711W        W12041  37.928  34.572  11.547
43712W        W12042   6.300  12.137  14.917
43713W        W12043  34.967  41.952   2.689
43714W        W12044  39.937   0.766  12.024
43715W        W12045   6.267  15.115   1.340
43716W        W12046  35.559   6.203  10.594
43717W        W12047  20.717  22.127   0.256
43718W        W12048  33.959  39.469   1.240
43719W        W12049  23.219   5.274  11.528
43720W        W12050  38.061  30.951   0.334
43721W        W12051  28.944  20.586  10.122
43722W        W12052  28.034  32.942   2.320
43723W        W12053  36.422  14.331  13.884
43724W        W12054  24.006  33.619   1.935
43725W        W12055  21.559  20.108   2.896
43726W        W12056   1.397  23.007   4.341
43727W        W12057   9.719  35.944  12.467
43728W        W12058  29.089  29.532   2.798
43729W        W12059   2.359  38.542  14.371
43730W        W12060  35.514  36.959   4.170
43731W        W12061  40.868  22.611   2.273
43732W        W12062   3.456  29.512   3.261
43733W        W12063  13.831   8.833   0.369
43734W        W12064   5.837  31.488  13.850
43735W        W12065  15.188  32.554  12.988
43736W        W12066  24.106  12.741  11.026
43737W        W12067  44.447  11.235   2.748
43738W        W12068  40.348  26.032   2.902
43739W        W12069  26.073  18.741   0.856
43740W        W12070  12.244  30.553   2.785
43741W        W12071  39.463  24.665   0.410
43742W        W12072   4.838   7.728  13.975
43743W        W12073  39.023  18.593  12.056
43744W        W12074  19.087  14.304  10.481
43745W        W12075  23.660  19.256   4.310
43746W        W12076  14.135  44.878   4.702
43747W        W12077   4.446   3.798   1.804
43748W        W12078   4.761   1.952  13.511
43749W        W12079  42.843  28.135  11.502
43750W        W12080  29.504  12.175   0.781
43751W        W12081   3.786  29.996   3.183
43752W        W12082  36.929  24.580  13.949
43753W        W12083   1.422  12.700   4.640
43754W        W12084   4.884  37.452   0.430
43755W        W12085   7.834  19.124   3.854
43756W        W12086  19.179   9.764  10.404
43757W        W12087  13.173  29.665   3.706
43758W        W12088  12.210  27.981   3.225
43759W        W12089   8.798   0.329   1.335
43760W        W12090  33.516  40.547   0.262
43761W        W12091  32.489  27.496  13.013
43762W        W12092  43.286  30.965   1.372
43763W        W12093  27.120  22.610   2.320
43764W        W12094  28.078  34.985   3.737
43765W        W12095  12.249  21.611  12.462
43766W        W12096  26.696  20.252   3.271
43767W        W12097  17.593  36.085   2.679
43768W        W12098  40.494  17.717   4.832
43769W        W12099   0.923  40.420   0.365
43770W        W12100  44.973   4.832   1.724
43771W        W12101  42.962  26.994  14.762
43772W        W12102  18.668  20.070  10.453
43773W        W12103   1.931   7.695  13.846
43774W        W12104  34.443  21.562   3.807
43775W        W12105   6.839  33.621  10.888
43776W        W12106  44.838  40.543   1.756
43777W        W12107  33.128  38.046  13.474
43778W        W12108  36.475  43.991  12.025
43779W        W12109  15.182  36.892  13.317
43780W        W12110  27.600   5.889   3.312
43781W        W12111  24.517   6.245  13.318
43782W        W12112   6.729   6.312  10.511
43783W        W12113  28.579  40.934  13.403
43784W        W12114  28.087  37.568  10.455
43785W        W12115  40.513  14.596   0.283
43786W        W12116   9.816  20.066  14.892
43787W        W12117  32.480   1.342   2.226
43788W        W12118  42.339  31.112  11.383
43789W        W12119  31.425  28.592  14.886
43790W        W12120  22.713  28.090   0.837
43791W        W12121  13.613  41.970  14.285
43792W        W12122   7.239  35.885  10.553
43793W        W12123  20.137  44.435   2.409
43794W        W12124  31.565   1.802   3.719
43795W        W12125  11.207  12.837   0.377
43796W        W12126   0.772  30.575   3.673
43797W        W12127  18.280  21.603  10.431
43798W        W12128   2.726  33.543   0.764
43799W        W12129  43.329  28.930  10.904
43800W        W12130  26.468   9.720   5.100
43801W        W12131  12.240  28.930   3.746
43802W        W12132  36.571  37.346   1.372
43803W        W12133  39.966  25.670   1.835
43804W        W12134  32.557  30.544   3.280
43805W        W12135  22.222  23.124  13.472
43806W        W12136  16.317  20.743   4.210
43807W        W12137  20.740  27.023  14.822
43808W        W12138   3.717  25.119   5.276
43809W        W12139  14.144   1.824  13.494
43810W        W12140  32.504  20.268   4.598
43811W        W12141   3.762  12.220  13.407
43812W        W12142  34.435   8.393   0.480
43813W        W12143  19.663  42.416  11.376
43814W        W12144  34.430  23.169  12.494
43815W        W12145  26.586  40.016   3.754
43816W        W12146  27.959  33.986   5.260
43817W        W12147  39.017  42.920  14.909
43818W        W12148   6.263  26.040  14.940
43819W        W12149  22.665  29.020   3.664
43820W        W12150  39.441  25.062   2.689
43821W        W12151  30.659  17.298   1.699
43822W        W12152  35.545  38.857  10.404
43823W        W12153  13.683  43.900  12.012
43824W        W12154  27.080  39.001  13.394
43825W        W12155  25.035   9.785   1.715
43826W        W12156   1.339  36.393  10.941
43827W        W12157  15.206  17.625  12.843
43828W        W12158  34.481  37.500  14.985
43829W        W12159   3.798  28.097  10.524
43830W        W12160  44.905  10.759   0.465
43831W        W12161   7.854  29.078   1.212
43832W        W12162  19.081  32.885   1.904
43833W        W12163  16.146  42.467   2.329
43834W        W12164  28.676  13.810  10.948
43835W        W12165  39.948  39.491  13.901
43836W        W12166  41.537   4.237  13.006
43837W        W12167   9.291  10.228  14.478
43838W        W12168   8.843   4.311   4.711
43839W        W12169  33.011  16.314  14.339
43840W        W12170   7.711  28.985   2.809
43841W        W12171  23.090  36.424   0.275
43842W        W12172  32.127   2.342   1.880
43843W        W12173  41.310  12.726  11.915
43844W        W12174  41.925  11.740  13.878
43845W        W12175  14.798  31.935   1.725
43846W        W12176  35.444  44.009   3.834
43847W        W12177  30.479  23.684   2.341
43848W        W12178  30.513  20.188   3.742
43849W        W12179  33.452  30.608  14.298
43850W        W12180   8.778  17.638  12.577
43851W        W12181   1.274  22.125   3.785
43852W        W12182  11.867   4.872   2.743
43853W        W12183  24.714  14.664  14.029
43854W        W12184  22.160   5.370   2.367
43855W        W12185  40.311  15.608  12.531
43856W        W12186  37.850  42.519  13.528
43857W        W12187   5.789  16.098  10.906
43858W        W12188  36.871   5.287  10.970
43859W        W12189   5.437  39.921  11.080
43860W        W12190  20.211  36.927   2.871
43861W        W12191  17.190   9.742   4.270
43862W        W12192   2.820  37.073  12.869
43863W        W12193  34.974  23.539  14.791
43864W        W12194   5.765  41.353  13.841
43865W        W12195  24.098  14.665   3.644
43866W        W12196  30.034   3.897  13.484
43867W        W12197  40.820  12.247  10.617
43868W        W12198  23.108  16.081   2.879
43869W        W12199   6.361  31.015   3.278
43870W        W12200  20.646  28.126   0.385
43871W        W12201  29.446  26.590   2.195
43872W        W12202  43.001  12.334   1.339
43873W        W12203  21.665  41.497   3.345
43874W        W12204  16.238   0.319  12.925
43875W        W12205  41.999  22.997  14.998
43876W        W12206  39.031  13.201  14.851
43877W        W12207   8.166  30.494  14.489
43878W        W12208  40.915  40.316   4.200
43879W        W12209  39.947  18.274  10.507
43880W        W12210  17.773  24.480  14.900
43881W        W12211  38.994  17.668  14.974
43882W        W12212  35.090  29.947  10.638
43883W        W12213  40.455  30.144   4.182
43884W        W12214   7.719  44.927   3.857
43885W        W12215   5.333   9.752  12.834
43886W        W12216  24.054   8.290  13.389
43887W        W12217  31.006  29.123  12.874
43888W        W12218  17.773  34.034  14.882
43889W        W12219  35.017  39.988   1.335
43890W        W12220  35.484  11.221  14.452
43891W        W12221   2.882   3.941   3.147
43892W        W12222  19.066  25.199   0.342
43893W        W12223  18.261  25.568  14.423
43894W        W12224  41.932   0.293  12.575
43895W        W12225  15.647  16.796  12.945
43896W        W12226  39.355  26.185  12.516
43897W        W12227   8.719  13.600  14.290
43898W        W12228  11.137  26.138   4.696
43899W        W12229   0.896  36.094   3.795
43900W        W12230  14.116   3.944   2.194
43901W        W12231  43.406  26.197  14.321
43902W        W12232   7.851  11.824  14.456
43903W        W12233  30.657  10.826  13.529
43904W        W12234   9.344  19.549   3.159
43905W        W12235  30.971  17.734  11.944
43906W        W12236  35.969   6.262   0.920
43907W        W12237  44.834  18.789  14.816
43908W        W12238  23.189   9.337   2.201
43909W        W12239  12.650  10.670   2.319
43910W        W12240  17.102  21.612   1.837
43911W        W12241   5.277  11.660   4.794
43912W        W12242  25.101  20.729   1.743
43913W        W12243   6.212  11.820   2.379
43914W        W12244   0.329  43.969   4.797
43915W        W12245  25.691  20.751  11.897
43916W        W12246  34.472  28.050  14.296
43917W        W12247  17.709   2.248   0.270
43918W        W12248  33.612   8.823  12.372
43919W        W12249  27.680  21.518   3.366
43920W        W12250  41.787   5.334   0.811
43921W        W12251  13.607  16.782   0.283
43922W        W12252  31.476  13.227   1.887
43923W        W12253  13.732  20.245   2.349
43924W        W12254  40.463  30.580   0.901
43925W        W12255   8.336  24.077  11.500
43926W        W12256  40.318  22.082   0.454
43927W        W12257  41.356  13.629   0.901
43928W        W12258   9.836   3.449  11.941
43929W        W12259  42.946  29.645  14.494
43930W        W12260   0.283  36.460  10.596
43931W        W12261  40.315  37.973  13.063
43932W        W12262  12.752  12.284  12.560
43933W        W12263  32.029  38.519   3.751
43934W        W12264  33.892  38.930  11.034
43935W        W12265  17.667  15.253  14.921
43936W        W12266  23.669  32.528  11.905
43937W        W12267  22.094   3.863  11.510
43938W        W12268  35.925  20.042   0.247
43939W        W12269  10.147   4.757  14.767
43940W        W12270  13.150  24.052   3.641
43941W        W12271  37.492  22.226  14.303
43942W        W12272  30.576  22.213  12.495
43943W        W12273  12.200  42.013   3.260
43944W        W12274  35.910   7.722   4.205
43945W        W12275  31.405  37.495   0.750
43946W        W12276  16.577   7.833  11.068
43947W        W12277   0.451   7.756  12.826
43948W        W12278  32.069  11.860   0.848
43949W        W12279   6.830   9.286  10.998
43950W        W12280  15.308  42.430  11.491
43951W        W12281  38.990   7.394   1.912
43952W        W12282  10.746  17.140  12.569
43953W        W12283  22.694  33.097   3.152
43954W        W12284  29.122  18.226  12.385
43955W        W12285   3.370  32.987  11.401
43956W        W12286  39.366  22.242   1.360
43957W        W12287  34.419  16.153   2.874
43958W        W12288   7.287  33.109   3.658
43959W        W12289  33.884   8.296   0.260
43960W        W12290  25.705   1.471  10.440
43961W        W12291  29.504  31.637   0.270
43962W        W12292  39.433   0.907  13.822
43963W        W12293  10.730  33.504   4.693
43964W        W12294  44.005  35.593  12.979
43965W        W12295  16.313  34.380  14.874
43966W        W12296  41.449  12.354  14.282
43967W        W12297  22.244  43.885   3.169
43968W        W12298  10.723   4.844  11.503
43969W        W12299   1.964  11.353   2.667
43970W        W12300   5.915  14.719  10.996
43971W        W12301  38.344  19.098  13.341
43972W        W12302  13.778  14.147   3.672
43973W        W12303  35.362  38.063  12.967
43974W        W12304  27.554  15.308  11.865
43975W        W12305  27.598  43.390   2.247
43976W        W12306  33.900  34.996   0.747
43977W        W12307  43.776  31.955   1.446
43978W        W12308  31.094   2.754  12.906
43979W        W12309  30.438  39.341   3.290
43980W        W12310  30.455   3.951  14.764
43981W        W12311  41.364   7.242   4.280
43982W        W12312  19.258   0.925   3.652
43983W        W12313  29.555  42.288  11.906
43984W        W12314   6.911  33.973   3.745
43985W        W12315  16.639  34.465   3.269
43986W        W12316  22.544  16.626   2.273
43987W        W12317  22.106  25.558  14.502
43988W        W12318   8.315  33.048   4.693
43989W        W12319   1.408  12.350  10.982
43990W        W12320  16.623  26.641  14.280
43991W        W12321  23.532  19.044  11.125
43992W        W12322   4.803  26.523  11.070
43993W        W12323  43.771  11.779   0.321
43994W        W12324  20.039  25.538  11.607
43995W        W12325   8.181  17.136   0.410
43996W        W12326  34.104  34.514  11.529
43997W        W12327   0.469  20.154   4.758
43998W        W12328  10.189  35.537   1.234
43999W        W12329  20.188   4.812   1.700
44000W        W12330   8.745   8.313   0.367
44001W        W12331   9.155  15.225   3.826
44002W        W12332   6.738   3.880   3.786
44003W        W12333  23.210   1.849  14.760
44004W        W12334  36.924   8.161  12.857
44005W        W12335  14.784  20.208   1.783
44006W        W12336  43.930   0.945   2.869
44007W        W12337  44.007  30.556  13.895
44008W        W12338   3.725  28.659   4.787
44009W        W12339  12.327  10.858  13.983
44010W        W12340   7.908  20.161  13.059
44011W        W12341  15.233  20.591   4.673
44012W        W12342  17.119   0.959   1.286
44013W        W12343   6.241   6.206   1.450
44014W        W12344  18.214  44.491  12.522
44015W        W12345  18.275  37.083   3.745
44016W        W12346   7.808  28.950  11.863
44017W        W12347  25.174  16.100   4.125
44018W        W12348  38.385   4.245   1.823
44019W        W12349  13.141  20.052  13.538
44020W        W12350  22.106  28.986   3.653
44021W        W12351  27.007   6.368  14.794
44022W        W12352  15.322  11.253  12.343
44023W        W12353  27.517  26.680   3.857
44024W        W12354   3.230  17.749  11.013
44025W        W12355   8.806  23.181   4.687
44026W        W12356  14.193  17.061  12.504
44027W        W12357  13.651  29.479   3.849
44028W        W12358  13.308   0.324   4.161
44029W        W12359  44.339  42.896   3.763
44030W        W12360   7.242  28.602  12.888
44031W        W12361  41.489  12.175   0.252
44032W        W12362  19.135  21.244   2.397
44033W        W12363   0.439  26.581   3.376
44034W        W12364   1.744  42.028   1.450
44035W        W12365  40.448  25.669   2.360
44036W        W12366  27.091  25.680  14.904
44037W        W12367  32.400  12.311   1.331
44038W        W12368  19.707  38.922   4.173
44039W        W12369   6.690  41.867  10.471
44040W        W12370  21.195  19.634   9.603
44041W        W12371  34.040  39.865   0.246
44042W        W12372   4.760  17.562  11.101
44043W        W12373  29.575  37.555   0.260
44044W        W12374   0.793   0.850   2.748
44045W        W12375   0.465  35.035   4.121
44046W        W12376  30.606  24.191  10.943
44047W        W12377  13.811  24.231  13.366
44048W        W12378   0.361   8.798  14.933
44049W        W12379  15.231  29.518  13.353
44050W        W12380  12.174   3.298   0.450
44051W        W12381  32.141  18.787  14.965
44052W        W12382  19.257  10.320   0.917
44053W        W12383  17.136  37.537   0.390
44054W        W12384   5.273   1.433  13.387
44055W        W12385  32.027  13.669   0.920
44056W        W12386  21.045  43.829   0.961
44057W        W12387  36.491  24.541   3.726
44058W        W12388  37.848  32.528   2.713
44059W        W12389  35.410  19.242  12.411
44060W        W12390  23.004  16.596  12.388
44061W        W12391   0.395  17.587   3.762
44062W        W12392  13.666  19.102  13.312
44063W        W12393   5.308   2.882  11.554
44064W        W12394  43.441  34.866  10.481
44065W        W12395   8.698   8.159   0.891
44066W        W12396  44.334  26.477   5.214
44067W        W12397  15.110  27.478  12.048
44068W        W12398  37.857  15.648   4.799
44069W        W12399  24.141  41.424   1.412
44070W        W12400   3.373   3.347   0.909
44071W        W12401  35.883  17.145  12.947
44072W        W12402  39.884   3.316   1.226
44073W        W12403  10.854   0.379   3.364
44074W        W12404   2.302  43.408   2.244
44075W        W12405  16.715  17.183  11.978
44076W        W12406  42.298  38.471  12.441
44077W        W12407  30.412  33.607  12.438
44078W        W12408  15.790  28.471   2.728
44079W        W12409  33.037  42.987  12.515
44080W        W12410  15.120  13.686  14.386
44081W        W12411   8.363  32.040   3.215
44082W        W12412   3.299   8.726   3.761
44083W        W12413  15.740  34.397   9.669
44084W        W12414  32.125  20.092   1.404
44085W        W12415  20.627  32.050  11.396
44086W        W12416  12.350  34.419   2.767
44087W        W12417  20.238  18.079  12.029
44088W        W12418   1.902  26.995   3.313
44089W        W12419  11.725  40.937  12.539
44090W        W12420  42.826  10.673   0.866
44091W        W12421  10.338  10.797   0.309
44092W        W12422  28.539  31.053   9.601
44093W        W12423  17.222   9.288  11.873
44094W        W12424   5.924   7.774  13.820
44095W        W12425  20.710  20.689  12.384
44096W        W12426  39.871   3.281   3.668
44097W        W12427  22.660  16.744  11.934
44098W        W12428  29.130  14.740  12.450
44099W        W12429  20.750  39.333   3.675
44100W        W12430  28.028  33.120  12.045
44101W        W12431  24.069  29.035  13.886
44102W        W12432  25.595   2.466  11.027
44103W        W12433   2.876  25.515  14.414
44104W        W12434  38.440  40.400   0.832
44105W        W12435   9.241  20.078  14.993
44106W        W12436  13.193  35.986  13.320
44107W        W12437  17.651  26.484  11.925
44108W        W12438  13.324  37.540   4.613
44109W        W12439  43.358  21.255  10.126
44110W        W12440  21.741  18.546  13.869
44111W        W12441  16.083  21.257   3.811
44112W        W12442  23.510   4.875   1.847
44113W        W12443  43.014  15.180  13.804
44114W        W12444  20.695   7.223  10.982
44115W        W12445  36.006  44.877   4.746
44116W        W12446   5.436  13.713  13.506
44117W        W12447  44.345  40.890  14.917
44118W        W12448  29.476  36.399   0.465
44119W        W12449  20.734  41.392  13.989
44120W        W12450  21.523  13.611  13.873
44121W        W12451  20.131  42.016  11.422
44122W        W12452  26.489   8.353   4.268
44123W        W12453  41.827  23.523   4.268
44124W        W12454  32.140  35.026   1.323
44125W        W12455  31.441  23.183  11.108
44126W        W12456  36.987  16.686  13.814
44127W        W12457   7.291  32.424   4.148
44128W        W12458  13.631  25.677  11.022
44129W        W12459  14.695  13.304  13.955
44130W        W12460  44.802  40.001  12.882
44131W        W12461   5.812  14.608  13.483
44132W        W12462  17.159   6.853   4.836
44133W        W12463  43.882  29.489  14.925
44134W        W12464  31.901  15.676  14.317
44135W        W12465  42.427  29.057   0.354
44136W        W12466   1.328  44.970  11.431
44137W        W12467  42.922  41.932  11.125
44138W        W12468  29.075  32.020  13.988
44139W        W12469  37.914  20.201  12.864
44140W        W12470  26.702  10.287   3.292
44141W        W12471  11.823  27.131  13.960
44142W        W12472  38.911  24.131  10.573
44143W        W12473  31.000   6.358   3.721
44144W        W12474   4.929   5.794  13.441
44145W        W12475  36.988  35.378  10.618
44146W        W12476  24.072  20.725   2.197
44147W        W12477  15.213  28.534  14.869
44148W        W12478   1.763  14.737   3.231
44149W        W12479  42.388  37.468  13.366
44150W        W12480   2.880  23.215   4.300
44151W        W12481  42.329  26.166  12.462
44152W        W12482  42.933  35.437  13.829
44153W        W12483  39.352  35.987  11.091
44154W        W12484   9.185  31.940   3.829
44155W        W12485  30.073  18.089  10.888
44156W        W12486  26.153  15.774   2.286
44157W        W12487  29.586  29.524   3.649
44158W        W12488  13.269  42.908   2.717
44159W        W12489  27.557   4.926  14.363
44160W        W12490  36.396  23.643   1.399
44161W        W12491  41.875  14.157  14.293
44162W        W12492  25.650   3.801   2.394
44163W        W12493  26.044  25.189   0.772
44164W        W12494  15.622  29.487   4.168
44165W        W12495  41.309  36.351   5.262
44166W        W12496  33.501   6.378   2.863
44167W        W12497  28.631   0.827   3.701
44168W        W12498   3.411  21.053  12.483
44169W        W12499  37.006  10.680   0.901
44170W        W12500  22.611  18.233   3.701
44171W        W12501  25.468  40.846   3.768
44172W        W12502  30.610  32.964  10.535
44173W        W12503  14.670  22.007   4.608
44174W        W12504  38.539  21.084   0.906
44175W        W12505   0.429  33.975  14.360
44176W        W12506  22.141  19.250  14.878
44177W        W12507  37.406  41.031  14.958
44178W        W12508  15.134  18.234  13.803
44179W        W12509  26.183   3.434   3.842
44180W        W12510  28.479  11.370   2.860
44181W        W12511   5.331  20.156  10.467
44182W        W12512  26.653  37.903   0.454
44183W        W12513   6.333  12.679  12.986
44184W        W12514  25.549  38.022   3.857
44185W        W12515  31.532  30.027   1.238
44186W        W12516  23.736  34.374  13.966
44187W        W12517  17.734  21.725   0.779
44188W        W12518  11.349  12.307  12.962
44189W        W12519   7.378  37.442  14.504
44190W        W12520  40.853  24.018   3.156
44191W        W12521  43.325  37.543  11.991
44192W        W12522   7.352  24.496  14.995
44193W        W12523  19.730   2.300  11.471
44194W        W12524  22.563  18.094   1.841
44195W        W12525  33.961  44.958   4.133
44196W        W12526  10.281  21.055  10.511
44197W        W12527  41.918  40.515   1.872
44198W        W12528  40.424  19.590   0.412
44199W        W12529  34.370  41.476  13.883
44200W        W12530  23.070   0.912   0.925
44201W        W12531   7.276  35.496   2.260
44202W        W12532  27.086  21.531   1.794
44203W        W12533  15.129   0.863  12.841
44204W        W12534  39.390  43.852   0.428
44205W        W12535   7.698  40.811   0.260
44206W        W12536  19.242  39.493  10.910
44207W        W12537  21.047  39.842  11.577
44208W        W12538   2.904  13.779  13.899
44209W        W12539   0.848   9.293   4.267
44210W        W12540  26.146  40.534  10.512
44211W        W12541  28.465  35.417   0.326
44212W        W12542  31.081  38.934   4.200
44213W        W12543  21.755  22.674   3.731
44214W        W12544  37.906  13.667  11.444
44215W        W12545  28.168  37.844   0.475
44216W        W12546  36.885  13.612   0.743
44217W        W12547  13.781  27.941  10.526
44218W        W12548  36.056  17.597  12.491
44219W        W12549  32.506  38.568  12.032
44220W        W12550  27.511  12.251   3.729
44221W        W12551  44.432  30.518   3.178
44222W        W12552  32.499  19.749  10.475
44223W        W12553  34.534  21.539  14.421
44224W        W12554  30.069  22.153   0.359
44225W        W12555  16.606  31.413   1.449
44226W        W12556  15.669  24.157  11.391
44227W        W12557  34.885  21.066  13.991
44228W        W12558  10.868  23.629  12.071
44229W        W12559  21.019  32.539  14.974
44230W        W12560  23.142  43.357   0.294
44231W        W12561  11.660  34.450  10.643
44232W        W12562  40.438  42.486  14.506
44233W        W12563  13.153  32.127   5.248
44234W        W12564  20.629  44.416   2.698
44235W        W12565  14.148   6.778   3.852
44236W        W12566  19.722  18.188  10.059
44237W        W12567  25.493  15.818  10.612
44238W        W12568  37.573  28.138   5.216
44239W        W12569  23.628  26.987   2.243
44240W        W12570   2.331  14.777   0.410
44241W        W12571  26.613   8.808   0.471
44242W        W12572  22.046  21.068  10.906
44243W        W12573  33.976  25.969   3.317
44244W        W12574  34.400  29.637   3.797
44245W        W12575  30.127  11.818  14.419
44246W        W12576  43.394  19.181   0.788
44247W        W12577  16.291  19.088   3.712
44248W        W12578  32.534  19.738  11.428
44249W        W12579  20.213   8.785  10.963
44250W        W12580  41.394  19.714  12.926
44251W        W12581  21.540  13.298  11.431
44252W        W12582  20.179  30.992  10.587
44253W        W12583  39.836   6.890  12.558
44254W        W12584  15.260  22.024  14.802
44255W        W12585   9.643  37.493  13.438
44256W        W12586  44.326  32.007   2.835
44257W        W12587  15.110   7.386   1.718
44258W        W12588   2.859  25.081   3.147
44259W        W12589   2.769  31.088   2.390
44260W        W12590  43.292   2.445  13.907
44261W        W12591   4.248  14.272   2.410
44262W        W12592  11.682   4.830   4.193
44263W        W12593   7.344  41.414   3.813
44264W        W12594  16.602  24.501  12.509
44265W        W12595  42.905  40.925   3.167
44266W        W12596  28.553  17.571  12.452
44267W        W12597  33.525  15.807   0.888
44268W        W12598  35.067  20.221   1.766
44269W        W12599  10.641  34.045  14.781
44270W        W12600  21.573  30.594  12.374
44271W        W12601  26.205   4.295  12.068
44272W        W12602  28.972  41.517  10.511
44273W        W12603   8.689  29.141   4.641
44274W        W12604  27.512  22.672   1.769
44275W        W12605  33.048   4.865  10.931
44276W        W12606  21.191  40.542   2.347
44277W        W12607  19.173  31.981   4.607
44278W        W12608  33.380   9.730  11.914
44279W        W12609  12.787  29.546  12.480
44280W        W12610  29.567  17.106  12.574
44281W        W12611  41.535  42.451   4.801
44282W        W12612  33.054   8.387  12.921
44283W        W12613  14.591  40.886  12.433
44284W        W12614  16.792  31.011   4.352
44285W        W12615  25.594  16.275  14.438
44286W        W12616   4.380   3.400   3.764
44287W        W12617   0.307  32.959  11.413
44288W        W12618  17.776  30.435   2.405
44289W        W12619   9.792  37.366   2.184
44290W        W12620  14.722  12.330  10.978
44291W        W12621  23.647  11.312  12.012
44292W        W12622  29.621  14.244  10.424
44293W        W12623  19.048  23.680  11.386
44294W        W12624  11.795  36.889  12.563
44295W        W12625  43.968  42.376  12.909
44296W        W12626  28.063  32.048   1.833
44297W        W12627  42.514  40.942  12.942
44298W        W12628  41.793  29.949   0.466
44299W        W12629  28.083  29.568  10.037
44300W        W12630  32.484  14.281  12.876
44301W        W12631  23.733   1.322   1.355
44302W        W12632  20.265  27.161   3.331
44303W        W12633  19.608  10.757  14.480
44304W        W12634  36.562  29.532   4.670
44305W        W12635  29.126   6.904   4.809
44306W        W12636  13.195   4.822   0.733
44307W        W12637  22.998  42.500  12.940
44308W        W12638  12.771  10.271  12.375
44309W        W12639  12.352   8.195  10.973
44310W        W12640  41.858   8.727  13.473
44311W        W12641   3.262  33.465  13.501
44312W        W12642  11.319  39.426  14.937
44313W        W12643  22.100  23.689   0.766
44314W        W12644  26.663  39.401  10.530
44315W        W12645  19.649  13.251   0.903
44316W        W12646  11.251  14.666  10.994
44317W        W12647  17.267  20.580  13.892
44318W        W12648  43.940  44.322  12.571
44319W        W12649  21.674  23.096  11.113
44320W        W12650   1.309  12.716  14.377
44321W        W12651   6.764   4.381  14.283
44322W        W12652   5.738  43.834  10.945
44323W        W12653   3.421   4.387   0.913
44324W        W12654  18.212   6.740   4.168
44325W        W12655  15.592   6.187   4.117
44326W        W12656   8.244  11.789  14.927
44327W        W12657   5.239   5.319  11.474
44328W        W12658  22.213  13.821   2.338
44329W        W12659  25.175   7.900  13.060
44330W        W12660  26.615  19.162  11.990
44331W        W12661  27.957   6.715  14.963
44332W        W12662   8.711  12.643  12.561
44333W        W12663  22.658  24.182   4.149
44334W        W12664  20.232  39.002   1.426
44335W        W12665   1.342  33.043  13.847
44336W        W12666   2.275  13.311   3.839
44337W        W12667  25.580   2.360  12.978
44338W        W12668  30.636  32.898   4.300
44339W        W12669  39.944  21.534   1.395
44340W        W12670  15.204   6.376   3.155
44341W        W12671  36.020  32.987  11.094
44342W        W12672  16.587   5.850  14.505
44343W        W12673  29.081   8.709   2.801
44344W        W12674  22.558   1.859  12.411
44345W        W12675  17.772  44.768   1.257
44346W        W12676  37.084   7.335  10.941
44347W        W12677  21.724  28.468  11.068
44348W        W12678  32.014   2.302   2.386
44349W        W12679  34.597  24.034  11.372
44350W        W12680   4.766   6.772   0.332
44351W        W12681   5.422  33.062   4.767
44352W        W12682  28.993   7.682  12.933
44353W        W12683   2.340  35.932   5.164
44354W        W12684  19.068   0.985   0.459
44355W        W12685  26.686  34.551  13.334
44356W        W12686  40.021  35.386   3.154
44357W        W12687  41.909   6.898  13.032
44358W        W12688   9.740  29.476   2.837
44359W        W12689  22.688  42.016  13.830
44360W        W12690  19.121  16.092   2.820
44361W        W12691   5.753   6.420  14.424
44362W        W12692  13.692   0.805  12.907
44363W        W12693   7.865  43.766   2.754
44364W        W12694  18.552   7.380  14.309
44365W        W12695  33.916   1.314  13.799
44366W        W12696  26.621  42.331  10.458
44367W        W12697  19.262  11.693  11.587
44368W        W12698  27.992  34.422  10.465
44369W        W12699  26.491  39.811  11.897
44370W        W12700  11.171  26.463   4.202
44371W        W12701  11.306  17.071   4.712
44372W        W12702  19.778   2.424  14.770
44373W        W12703  42.406  23.598   3.631
44374W        W12704   8.790  24.579  13.035
44375W        W12705  12.263  24.131   1.277
44376W        W12706   9.699  41.915   3.792
44377W        W12707  17.578  44.856   2.358
44378W        W12708  22.514  28.665  13.063
44379W        W12709  31.033  16.689  10.492
44380W        W12710  41.444  36.947  12.386
44381W        W12711  39.325  29.137  10.911
44382W        W12712  23.194   5.900  14.971
44383W        W12713  31.966  34.072  11.124
44384W        W12714  13.176  23.685   2.367
44385W        W12715  15.209   5.718  14.483
44386W        W12716  39.358  35.421  11.604
44387W        W12717  30.573  23.191   1.903
44388W        W12718  44.780  22.654   1.751
44389W        W12719  21.670  40.815  14.935
44390W        W12720  31.075   2.413  12.518
44391W        W12721  36.428  24.111  13.806
44392W        W12722   0.386  30.432  11.901
44393W        W12723  44.889   9.205   1.369
44394W        W12724  30.007  28.633  13.884
44395W        W12725  34.524   1.937   2.811
44396W        W12726   6.300  39.474  14.450
44397W        W12727  34.478  20.726   4.730
44398W        W12728  21.522  22.178   0.749
44399W        W12729   4.237  33.473  11.909
44400W        W12730  36.443   9.764   3.770
44401W        W12731  38.523   6.758  11.389
44402W        W12732  32.603  17.615   1.285
44403W        W12733  17.779   5.406  10.999
44404W        W12734  36.545  26.645   1.314
44405W        W12735  31.001  13.224  12.847
44406W        W12736  31.059  37.401  12.478
44407W        W12737  35.922  30.621  10.429
44408W        W12738  13.227  33.048   3.324
44409W        W12739  41.994  31.931  12.376
44410W        W12740  19.199   6.272   3.230
44411W        W12741  43.889  13.336  14.996
44412W        W12742  43.430  34.494   3.749
44413W        W12743  18.258   4.843   0.302
44414W        W12744  13.270  24.182   1.699
44415W        W12745  26.541  41.897   4.775
44416W        W12746   6.797  14.258   3.650
44417W        W12747  43.383  13.195  11.896
44418W        W12748  30.628  37.028  14.413
44419W        W12749   5.732   4.785  14.024
44420W        W12750   1.463  21.209  14.348
44421W        W12751  11.268  32.444   4.837
44422W        W12752  29.474  24.584   1.283
44423W        W12753  23.180  32.422   2.369
44424W        W12754  13.840  23.079  14.392
44425W        W12755  25.039  32.896  14.497
44426W        W12756  44.309   2.231   3.214
44427W        W12757  23.602  27.194   3.245
44428W        W12758  27.641  37.442  10.964
44429W        W12759   2.920  19.097   0.271
44430W        W12760  12.244  31.472  11.447
44431W        W12761   5.914  39.426  11.568
44432W        W12762  14.654  17.227   2.236
44433W        W12763  32.944  35.023   2.325
44434W        W12764   9.347  15.805   0.309
44435W        W12765  34.486   0.979  11.005
44436W        W12766   0.434  26.159  11.419
44437W        W12767   2.420   1.957  13.901
44438W        W12768  36.425  14.650   3.728
44439W        W12769   5.241  33.110  11.021
44440W        W12770  21.578   7.337  11.958
44441W        W12771   8.222  14.321  11.430
44442W        W12772   1.291  16.590   2.229
44443W        W12773  21.124  19.075   4.750
44444W        W12774  42.494   2.274  13.365
44445W        W12775  22.696  41.908  10.585
44446W        W12776   4.427  34.505   0.821
44447W        W12777   9.167  38.893  10.026
44448W        W12778   0.494  28.024  12.984
44449W        W12779  31.037  20.209  11.046
44450W        W12780   9.357  27.000  13.432
44451W        W12781  21.628  29.536  11.425
44452W        W12782  32.909  21.579  14.459
44453W        W12783   6.923   5.301   3.316
44454W        W12784  13.143   3.429   5.298
44455W        W12785  20.767  44.411   1.744
44456W        W12786  23.221  12.781  10.641
44457W        W12787  21.220  19.633   5.220
44458W        W12788   9.359   3.928   0.911
44459W        W12789  14.138  23.115  10.423
44460W        W12790  13.762  33.619  13.451
44461W        W12791  32.973  41.491  14.384
44462W        W12792  28.152  29.062  11.428
44463W        W12793  32.972   4.235   4.128
44464W        W12794  13.742  39.555   3.277
44465W        W12795  11.832  13.330  11.567
44466W        W12796  35.935  14.153  11.919
44467W        W12797  26.951  25.174  13.017
44468W        W12798  27.479   1.941   0.476
44469W        W12799   1.836  13.168   3.296
44470W        W12800  37.357  23.103  12.505
44471W        W12801  41.436  22.250   2.865
44472W        W12802  44.801  15.183  13.506
44473W        W12803  10.734  22.206  10.451
44474W        W12804  12.707  18.177   2.829
44475W        W12805  16.620  35.576  10.890
44476W        W12806   4.831  14.648   3.673
44477W        W12807  28.435  17.689  12.025
44478W        W12808  39.912   1.409   0.923
44479W        W12809   6.315   7.278   5.237
44480W        W12810  22.724  37.898  12.861
44481W        W12811  30.481   4.836  13.513
44482W        W12812  41.968  30.972  14.006
44483W        W12813   4.839  40.893  10.628
44484W        W12814   8.368   5.896  10.452
44485W        W12815  19.064  28.492  13.316
44486W        W12816  10.723   4.394   1.794
44487W        W12817  31.985  38.020  11.613
44488W        W12818  43.479  33.405  14.422
44489W        W12819   9.694  20.031   1.228
44490W        W12820  44.983  43.405  13.417
44491W        W12821   0.906  26.508  14.430
44492W        W12822   4.211  17.606   0.892
44493W        W12823   0.796   9.266   2.862
44494W        W12824  37.885  18.221   1.809
44495W        W12825   3.408  10.754  11.554
44496W        W12826  26.183  35.051  11.987
44497W        W12827   7.277  34.369   0.838
44498W        W12828   6.687  19.731   5.081
44499W        W12829   2.795  34.547  10.942
44500W        W12830   9.219  41.862   1.215
44501W        W12831  34.457   4.748   3.777
44502W        W12832  33.966  17.089  13.805
44503W        W12833  43.369  22.510  13.803
44504W        W12834  13.337  29.997   1.296
44505W        W12835  10.165  37.017  12.402
44506W        W12836  23.641  26.645   2.312
44507W        W12837  27.688  15.654  10.598
44508W        W12838  29.617  20.225  12.420
44509W        W12839  27.089  20.159   0.247
44510W        W12840  31.591  25.175  11.908
44511W        W12841  37.951   6.209  14.827
44512W        W12842  33.506  27.990   0.785
44513W        W12843  29.447   8.755  13.031
44514W        W12844   0.471  18.747   0.753
44515W        W12845  39.879  16.786   2.404
44516W        W12846   5.726   2.307   0.281
44517W        W12847  30.959  39.933   0.779
44518W        W12848  30.091  34.090   2.186
44519W        W12849  33.091  19.766   5.269
44520W        W12850  35.870  40.025  11.009
44521W        W12851  11.806   2.465  13.018
44522W        W12852  44.899  26.062   3.224
44523W        W12853  33.999  42.495   2.893
44524W        W12854   9.302  11.346   0.333
44525W        W12855  15.753  43.312   1.911
44526W        W12856  10.714  31.448   3.855
44527W        W12857  23.181  25.561   3.712
44528W        W12858   8.250  14.764  10.454
44529W        W12859  11.723  16.592   0.822
44530W        W12860   2.278   1.477  14.794
44531W        W12861  32.960  37.024  14.005
44532W        W12862  32.531  17.201   3.845
44533W        W12863  26.562  20.156  13.022
44534W        W12864  14.271  32.550   1.865
44535W        W12865   7.182  21.697   4.701
44536W        W12866  20.603  15.237  13.998
44537W        W12867  23.565  21.065   0.917
44538W        W12868  23.184  18.728  14.868
44539W        W12869  28.949   3.917  12.400
44540W        W12870  23.218   2.258  11.457
44541W        W12871   3.834  40.902  14.312
44542W        W12872  44.845  12.814   3.377
44543W        W12873  24.208  30.101  11.886
44544W        W12874   9.150  23.506   3.222
44545W        W12875  41.297  33.612   0.324
44546W        W12876  39.005  10.371  11.964
44547W        W12877  44.357  11.643  14.980
44548W        W12878  40.545  24.026   1.252
44549W        W12879  22.088  16.682  12.343
44550W        W12880  11.768  32.988  10.959
44551W        W12881  37.075   9.685  13.351
44552W        W12882  15.755  22.538  11.036
44553W        W12883  27.665   6.353  13.988
44554W        W12884  34.906   5.757  12.971
44555W        W12885  15.292   3.427  14.932
44556W        W12886  34.551   9.231  11.400
44557W        W12887   1.935  16.179   3.186
44558W        W12888   1.748  43.276  13.875
44559W        W12889  21.042  13.255   4.306
44560W        W12890   6.738   2.791  11.975
44561W        W12891  41.843  13.778   1.817
44562W        W12892  44.364  24.162   3.859
44563W        W12893  37.978  34.878  11.077
44564W        W12894   7.303  29.103   0.795
44565W        W12895  30.558  43.861   2.678
44566W        W12896  36.574  44.261   4.330
44567W        W12897   7.874  24.507  11.902
44568W        W12898   3.450  32.537  13.407
44569W        W12899  10.333  17.637  13.474
44570W        W12900  31.431  20.530  14.488
44571W        W12901  27.942  26.574  10.102
44572W        W12902  11.716  29.427   2.286
44573W        W12903   8.201  22.007  10.554
44574W        W12904  38.466  16.139  11.434
44575W        W12905  21.039  33.917   4.751
44576W        W12906  42.004  31.982   5.322
44577W        W12907   2.398   5.211  12.548
44578W        W12908  32.603   9.869   3.151
44579W        W12909  36.057  25.560  12.878
44580W        W12910  20.611  29.145  12.425
44581W        W12911  21.657  17.138   4.757
44582W        W12912  15.300  10.799  11.126
44583W        W12913   8.184  21.138   2.857
44584W        W12914  36.975  12.178   1.290
44585W        W12915  13.281   6.884   3.650
44586W        W12916   2.850  32.518   2.198
44587W        W12917  25.962  10.212  10.484
44588W        W12918  17.786  13.276  11.604
44589W        W12919  32.895  38.022   0.365
44590W        W12920  30.007  17.061   3.665
44591W        W12921  29.117  40.337  13.885
44592W        W12922   2.456  38.494  10.640
44593W        W12923  26.511  15.600   5.142
44594W        W12924  42.784   3.763  11.919
44595W        W12925  41.001  10.161   4.179
44596W        W12926  25.215   0.987   0.813
44597W        W12927  37.463  27.599  10.004
44598W        W12928   9.852  18.087   4.173
44599W        W12929  16.709  16.596  14.472
44600W        W12930  15.752  37.865  10.027
44601W        W12931   5.790   8.167  10.581
44602W        W12932  11.319  28.596  14.472
44603W        W12933   6.845  19.712   0.323
44604W        W12934   0.823   1.821  14.338
44605W        W12935  31.150   0.957   0.804
44606W        W12936  19.071  38.443  12.966
44607W        W12937  20.267  19.632  10.997
44608W        W12938   8.682  35.578   0.888
44609W        W12939  10.332  37.011  13.463
44610W        W12940  34.480   4.821   0.429
44611W        W12941  16.619  19.695  10.504
44612W        W12942  37.847  26.120   0.319
44613W        W12943   5.774   1.389  13.528
44614W        W12944  24.030  26.701   4.672
44615W        W12945  11.263  39.886   2.831
44616W        W12946  21.059  22.092   2.801
44617W        W12947  36.034  41.856  10.458
44618W        W12948  23.213  44.792   0.822
44619W        W12949   8.366  19.195   1.761
44620W        W12950  38.024   5.200  10.469
44621W        W12951  27.656  20.139  13.409
44622W        W12952  37.973  28.521   0.242
44623W        W12953  13.233  43.430  10.644
44624W        W12954  30.641  14.826  13.547
44625W        W12955  31.631   9.836  12.918
44626W        W12956  39.392   1.936   5.082
44627W        W12957  33.965  19.545   3.863
44628W        W12958   9.382   1.949   3.778
44629W        W12959  34.411  22.226  13.050
44630W        W12960  43.947  34.038   1.893
44631W        W12961  25.097  21.629  14.426
44632W        W12962  15.228  15.229   3.822
44633W        W12963  14.734  28.954   4.826
44634W        W12964  20.177  37.970   2.288
44635W        W12965  30.977  30.137  11.007
44636W        W12966  17.112   6.331  12.566
44637W        W12967  16.571  32.959   3.189
44638W        W12968   7.321  42.368  12.404
44639W        W12969  13.704  13.817   2.889
44640W        W12970  20.669  13.813  12.868
44641W        W12971  13.815  18.156   0.279
44642W        W12972  36.017  31.618  10.430
44643W        W12973  30.639   9.751   4.755
44644W        W12974  22.041   3.228  13.027
44645W        W12975  13.195   2.249   4.250
44646W        W12976  11.359  31.538  12.439
44647W        W12977  21.645   3.730  11.375
44648W        W12978   5.388  40.479  12.522
44649W        W12979  17.718  44.425  14.445
44650W        W12980  38.537   6.780   3.201
44651W        W12981  18.143  32.497  14.027
44652W        W12982  17.243  11.156   3.747
44653W        W12983  33.433  15.274  11.480
44654W        W12984  27.949  34.104  10.154
44655W        W12985   1.361  27.640   0.434
44656W        W12986  27.187  44.795  12.021
44657W        W12987  35.004  34.541  13.962
44658W        W12988   5.288  35.861   2.887
44659W        W12989  19.639  40.338   0.914
44660W        W12990  21.756  25.064   4.199
44661W        W12991  32.040  40.498  13.057
44662W        W12992  25.585  34.952  11.082
44663W        W12993   5.310  40.823   3.156
44664W        W12994  11.273  10.158   5.150
44665W        W12995   8.228  32.078  14.768
44666W        W12996  40.877   3.302  13.404
44667W        W12997  40.954   9.769   1.841
44668W        W12998  37.364  10.850   2.265
44669W        W12999  22.574  20.700   4.192
44670W        W13000  30.512  32.571   4.639
44671W        W13001  36.551  37.529  14.510
44672W        W13002  24.026  27.957  12.421
44673W        W13003   2.923  13.842  10.486
44674W        W13004  26.108  15.163  14.785
44675W        W13005  14.749  43.832   1.311
44676W        W13006  12.757  13.115   0.257
44677W        W13007  43.413  40.475  14.447
44678W        W13008  11.828  27.590  12.039
44679W        W13009  31.606  28.436  12.493
44680W        W13010  16.801  34.384  12.095
44681W        W13011  38.931  22.232  11.964
44682W        W13012   3.874   3.737  10.987
44683W        W13013  42.938  13.602   3.708
44684W        W13014  25.195   9.648  11.504
44685W        W13015  19.134  35.463  13.349
44686W        W13016  13.191  41.016   0.963
44687W        W13017  22.165  34.427  10.437
44688W        W13018   0.829  14.678  10.484
44689W        W13019   0.397  10.755   0.478
44690W        W13020  26.561   0.845  14.842
44691W        W13021  43.359   4.259   4.269
44692W        W13022   6.191  34.525  13.506
44693W        W13023  34.610  36.548   1.218
44694W        W13024  33.033  41.426   3.171
44695W        W13025  24.190  41.294   9.930
44696W        W13026  42.923  31.126   2.405
44697W        W13027  24.993  13.234  11.382
44698W        W13028  10.850  33.045   0.366
44699W        W13029  39.465  35.047  10.578
44700W        W13030  32.110   6.825  13.893
44701W        W13031   5.386  23.703   1.748
44702W        W13032  17.080   7.678  13.867
44703W        W13033  33.556  14.128   2.833
44704W        W13034   7.785  20.262   4.309
44705W        W13035  44.875  29.042   4.234
44706W        W13036  33.904  35.435   0.349
44707W        W13037  17.667  26.086   0.849
44708W        W13038  42.929  12.708   3.255
44709W        W13039   3.820  10.873  13.383
44710W        W13040  28.552  28.036   4.227
44711W        W13041  43.272  40.888   3.279
44712W        W13042  39.885  30.008   4.148
44713W        W13043  37.463   7.687  14.373
44714W        W13044  22.665  24.487   0.299
44715W        W13045  38.964   4.265  13.456
44716W        W13046  20.208   1.963   1.799
44717W        W13047   6.208  43.347  12.893
44718W        W13048  37.053   7.834  12.879
44719W        W13049  35.073  41.505   0.917
44720W        W13050  32.456   6.697  13.975
44721W        W13051  43.768  44.358   3.759
44722W        W13052   9.733  38.915   2.848
44723W        W13053  44.896  30.130  11.524
44724W        W13054  26.516  10.672   1.365
44725W        W13055  39.917  18.218   3.857
44726W        W13056  33.900  25.179   0.919
44727W        W13057   4.795  11.288  13.798
44728W        W13058   9.797  36.505   2.396
44729W        W13059  22.221  15.782   3.725
44730W        W13060   1.744  34.027  13.039
44731W        W13061   9.297  38.401   2.680
44732W        W13062  35.023  16.280  14.342
44733W        W13063   0.874  24.493   4.787
44734W        W13064  17.188  37.447  11.998
44735W        W13065  19.189  26.133   9.952
44736W        W13066  38.068  37.017   1.275
44737W        W13067  24.159   4.431   4.757
44738W        W13068  23.678   4.208  10.645
44739W        W13069  36.471  30.541  14.331
44740W        W13070  17.612  36.924   0.303
44741W        W13071  11.295  34.444  12.053
44742W        W13072   6.201   2.933   1.254
44743W        W13073  37.356   5.692   0.770
44744W        W13074  33.517  17.638   4.274
44745W        W13075  28.500   3.303   4.811
44746W        W13076   7.694  33.602  13.493
44747W        W13077   7.888  37.457   3.815
44748W        W13078   3.818  27.048  14.970
44749W        W13079  12.305  20.111   4.782
44750W        W13080  17.754   6.715   4.275
44751W        W13081  29.031  44.914   0.387
44752W        W13082  42.468  32.128  10.529
44753W        W13083  17.279  18.739  13.888
44754W        W13084  34.988  35.874  13.843
44755W        W13085  10.277   1.368  12.447
44756W        W13086   5.328  13.341   4.263
44757W        W13087  33.569   4.878   3.266
44758W        W13088  13.317   0.957   5.286
44759W        W13089   7.377  36.073  14.892
44760W        W13090  37.404   7.698  13.029
44761W        W13091   6.713  29.144  13.459
44762W        W13092  20.193  23.031  10.500
44763W        W13093   4.428   9.724   4.288
44764W        W13094  17.566  32.050   0.750
44765W        W13095  14.825  29.167  10.113
44766W        W13096   5.733   9.727  12.047
44767W        W13097  22.154  16.260   3.642
44768W        W13098  34.040  21.698   4.161
44769W        W13099   7.881  23.023   3.691
44770W        W13100  11.259  26.462  12.513
44771W        W13101   3.872  12.360  12.860
44772W        W13102  15.586  19.061   0.863
44773W        W13103  11.366  28.004  14.345
44774W        W13104  31.086  41.449   0.433
44775W        W13105   5.825  28.146   0.745
44776W        W13106  19.249  41.818  14.848
44777W        W13107   2.885  27.968  14.436
44778W        W13108  29.433  39.058   3.301
44779W        W13109  17.664  10.838   1.374
44780W        W13110  27.052   3.847   1.726
44781W        W13111   5.324  33.602  12.018
44782W        W13112  10.717  25.609  13.429
44783W        W13113   9.796   2.422   0.945
44784W        W13114  21.689  29.984   4.180
44785W        W13115  36.580   6.758   1.271
44786W        W13116  34.392  43.964   0.964
44787W        W13117  13.254  24.125   1.232
44788W        W13118  30.126  16.755  11.100
44789W        W13119  17.082  13.747  14.402
44790W        W13120   9.321  25.565  10.908
44791W        W13121  30.086  25.710   2.882
44792W        W13122  26.201  32.479   2.773
44793W        W13123  15.661  30.989  11.003
44794W        W13124  26.195  14.825   0.432
44795W        W13125   0.928  27.974  11.085
44796W        W13126   6.249   6.753  12.830
44797W        W13127  30.087  16.658   4.748
44798W        W13128   8.342   5.861  12.053
44799W        W13129  26.518  12.626   1.417
44800W        W13130  36.927   2.869  13.442
44801W        W13131   3.808  20.051   1.238
44802W        W13132  43.310  41.434   3.321
44803W        W13133   6.230  32.042  11.580
44804W        W13134  24.515  39.479  12.928
44805W        W13135  22.161  41.028   0.334
44806W        W13136   9.867  28.547   2.218
44807W        W13137  40.361  39.393  11.928
44808W        W13138  37.877  25.639  12.359
44809W        W13139  31.093  34.873   0.897
44810W        W13140   5.324  38.921  11.595
44811W        W13141  36.941  19.686   0.935
44812W        W13142  16.170  36.462  10.532
44813W        W13143  14.097   2.244   4.788
44814W        W13144  18.202  28.455  11.028
44815W        W13145  18.206   5.203  14.980
44816W        W13146   9.744  23.081  10.604
44817W        W13147  19.671  39.399   4.127
44818W        W13148  44.298   9.183  14.339
44819W        W13149  36.516  13.278   5.203
44820W        W13150  23.984   9.760   2.256
44821W        W13151  35.510  37.943   3.237
44822W        W13152  32.634   0.480   4.773
44823W        W13153  15.673  25.476  10.149
44824W        W13154   7.890  28.519   3.779
44825W        W13155  13.131   7.347   1.317
44826W        W13156  12.235  11.293   3.383
44827W        W13157  12.681   9.184   3.202
44828W        W13158  32.606   2.730  14.310
44829W        W13159  10.649  24.583   4.281
44830W        W13160   7.735  24.175   2.744
44831W        W13161  38.853  35.861  11.496
44832W        W13162  29.525  33.911  10.978
44833W        W13163  43.512   2.789   2.229
44834W        W13164  25.028  34.073  13.827
44835W        W13165  31.557  22.204   4.637
44836W        W13166  41.930   9.748  10.578
44837W        W13167  31.105   5.838   3.747
44838W        W13168  27.976  15.620  14.857
44839W        W13169  31.533  28.166  12.081
44840W        W13170  21.631  10.858  14.787
44841W        W13171  16.179  41.454  11.541
44842W        W13172  40.538  24.599   0.283
44843W        W13173  37.578  20.211   2.830
44844W        W13174  41.351   4.365   1.782
44845W        W13175  34.992  24.143   0.791
44846W        W13176  17.143   3.408  11.420
44847W        W13177  40.003  13.635   4.170
44848W        W13178   7.256  16.258   0.349
44849W        W13179  12.705  26.613   1.905
44850W        W13180  26.510  13.241   2.798
44851W        W13181  39.065  30.991  11.519
44852W        W13182   5.706   3.842   3.280
44853W        W13183  13.169   2.750   0.278
44854W        W13184   3.731   4.213   2.864
44855W        W13185  41.848  11.310   1.270
44856W        W13186  36.555  18.063  12.552
44857W        W13187   6.329  16.100  12.894
44858W        W13188  31.119   0.361   2.260
44859W        W13189  22.651  38.571   2.706
44860W        W13190  25.684  22.509   1.217
44861W        W13191  19.084  40.931  13.904
44862W        W13192  24.495  43.971  11.526
44863W        W13193  39.853  44.866   4.628
44864W        W13194   0.918   8.736   9.950
44865W        W13195  35.041   6.739  11.908
44866W        W13196   0.341  10.638   3.162
44867W        W13197  38.822  22.151  14.286
44868W        W13198  34.415  17.227   1.307
44869W        W13199  30.622  35.547   4.197
44870W        W13200   7.267  37.560  12.522
44871W        W13201  15.191  20.684   3.764
44872W        W13202   4.911  16.230  13.803
44873W        W13203  18.280  36.361  12.515
44874W        W13204  12.671   2.792   0.284
44875W        W13205  24.218  33.406   3.812
44876W        W13206  31.433  44.481   3.300
44877W        W13207  13.222  15.644  12.348
44878W        W13208   6.706  41.420   3.154
44879W        W13209   0.470  41.909   2.775
44880W        W13210  17.081   6.205  12.083
44881W        W13211   3.748  17.774  11.989
44882W        W13212  28.506  11.151  11.597
44883W        W13213  39.894   8.277   0.329
44884W        W13214  19.097  28.052   2.399
44885W        W13215  27.181   5.831  12.386
44886W        W13216   5.432  34.941   4.154
44887W        W13217  31.515  34.528  11.046
44888W        W13218   9.171   4.440   0.407
44889W        W13219   7.416   3.734  14.898
44890W        W13220  37.871   4.305   4.299
44891W        W13221  27.942   1.956   3.756
44892W        W13222  13.237  10.244   1.306
44893W        W13223   1.384   9.380   0.412
44894W        W13224  32.472  44.854   2.383
44895W        W13225  18.630  16.751   0.295
44896W        W13226  37.030  30.029   2.229
44897W        W13227  21.227  33.458   0.284
44898W        W13228   6.182  42.898  10.548
44899W        W13229  44.793  12.286   1.262
44900W        W13230   7.403  37.843  11.942
44901W        W13231  30.553  33.460   1.700
44902W        W13232  26.163  36.881   0.436
44903W        W13233  39.034  14.280   4.697
44904W        W13234  35.368   2.387  12.977
44905W        W13235  16.725  17.785  12.899
44906W        W13236   7.185  21.234   4.757
44907W        W13237   3.945  13.813   0.329
44908W        W13238   0.301  20.065   3.865
44909W        W13239  39.821   7.213  13.989
44910W        W13240  24.571  15.800   1.766
44911W        W13241   1.880  24.500   3.655
44912W        W13242  13.132  16.153   3.755
44913W        W13243  24.158  25.675   1.767
44914W        W13244  39.479  21.566  12.556
44915W        W13245  14.236  35.596  10.097
44916W        W13246  17.608  10.645  13.826
44917W        W13247  19.619  10.290   4.786
44918W        W13248   0.849  15.210  11.860
44919W        W13249  27.957  32.120  14.922
44920W        W13250  41.995   2.935  14.020
44921W        W13251  27.041  23.629   4.188
44922W        W13252  34.390  15.746   3.161
44923W        W13253  13.790  28.572  12.064
44924W        W13254  11.688   1.882   0.959
44925W        W13255  11.156  25.984  14.865
44926W        W13256  14.799  19.679   1.428
44927W        W13257   9.738  43.973  12.350
44928W        W13258  38.424  25.138  14.840
44929W        W13259  14.681  13.633  12.028
44930W        W13260  29.519  18.634  14.498
44931W        W13261  34.945  13.726  14.452
44932W        W13262  29.067  30.160   0.840
44933W        W13263  10.733   9.175   1.315
44934W        W13264   5.417  36.561   3.173
44935W        W13265  25.480  23.138   0.289
44936W        W13266  10.822   7.872  12.521
44937W        W13267  13.720   8.216   4.770
44938W        W13268  38.489  19.232   0.832
44939W        W13269  15.773  12.261   2.796
44940W        W13270  29.488   8.749  14.444
44941W        W13271  40.503   9.664   2.371
44942W        W13272  42.444  39.942   1.893
44943W        W13273  12.799  44.443  11.410
44944W        W13274  12.342  10.844  12.554
44945W        W13275  42.912   6.427   4.149
44946W        W13276  32.418  41.797   3.150
44947W        W13277  13.753  23.680  10.440
44948W        W13278  39.431  19.111   4.175
44949W        W13279  22.118  31.017   0.768
44950W        W13280   9.362  23.641  13.963
44951W        W13281  23.068   9.203   0.417
44952W        W13282   2.858  18.079  14.874
44953W        W13283   5.796   8.236   1.717
44954W        W13284  41.989  34.580  14.931
44955W        W13285  11.158   4.259  11.468
44956W        W13286   6.201  24.988  13.818
44957W        W13287   1.460  15.299  14.946
44958W        W13288  29.949  37.012   1.319
44959W        W13289  34.550  30.617  11.519
44960W        W13290  42.506  27.100   2.346
44961W        W13291  19.128  26.126  10.475
44962W        W13292  21.199  26.011  12.055
44963W        W13293  26.503   4.271   1.828
44964W        W13294   3.358  29.040   1.403
44965W        W13295  26.153  12.729   0.816
44966W        W13296  11.267  35.061   0.763
44967W        W13297  11.632  37.373   3.829
44968W        W13298   9.890  39.377  11.856
44969W        W13299  15.749  17.734   4.623
44970W        W13300  33.997   0.326  11.937
44971W        W13301  33.564  31.626  12.466
44972W        W13302   6.276   8.901  13.309
44973W        W13303  10.241  42.887   2.795
44974W        W13304  36.421  16.182   3.769
44975W        W13305  40.343  30.164   1.326
44976W        W13306  44.930  29.571  11.498
44977W        W13307  20.214  35.867  13.873
44978W        W13308  31.120  21.568  14.979
44979W        W13309  19.770  27.552   1.894
44980W        W13310  38.405  37.085  11.057
44981W        W13311   6.251  32.915  13.981
44982W        W13312  21.173   3.911   3.228
44983W        W13313  20.144  16.674  12.438
44984W        W13314  10.311  34.035  11.124
44985W        W13315  21.263  36.086  10.109
44986W        W13316  17.687  42.986  11.088
44987W        W13317  39.483  42.817   3.345
44988W        W13318  37.561  16.735   4.706
44989W        W13319  12.139   2.799   1.241
44990W        W13320  26.127  42.890  10.991
44991W        W13321   6.785  13.648  11.960
44992W        W13322  23.995  33.487   3.241
44993W        W13323  43.389  37.560   4.183
44994W        W13324  14.750  23.598  13.968
44995W        W13325   3.722  34.999   1.311
44996W        W13326  11.658  15.198  14.847
44997W        W13327   4.854  20.658   0.835
44998W        W13328  27.950  15.293   2.888
44999W        W13329  34.096  19.090  12.057
45000W        W13330  18.670  24.573   1.759
45001W        W13331  29.526   5.846  11.475
45002W        W13332  33.956  13.606  12.015
45003W        W13333  33.916  36.372  14.487
45004W        W13334  21.677  41.332   1.708
45005W        W13335   8.169  30.646   3.768
45006W        W13336  27.989  40.320   1.276
45007W        W13337  30.555   2.774   2.216
45008W        W13338  15.168  28.602  11.476
45009W        W13339  30.052  29.643  11.863
45010W        W13340  40.027   1.265  10.914
45011W        W13341   5.928  32.417   3.666
45012W        W13342  25.610  41.915  11.855
45013W        W13343  17.131  27.635  13.336
45014W        W13344  35.482  21.553   3.644
45015W        W13345  38.507  44.302  13.483
45016W        W13346  28.977  30.116   3.177
45017W        W13347  26.657  43.844   2.703
45018W        W13348   3.443  30.045  12.000
45019W        W13349  11.702  18.575   0.385
45020W        W13350  38.953  21.552  13.539
45021W        W13351  11.212  42.958  14.371
45022W        W13352  14.723  18.753  14.828
45023W        W13353  34.965  30.931  13.036
45024W        W13354  36.586   6.183  13.845
45025W        W13355  11.776  16.787  14.847
45026W        W13356  14.234  26.994   0.865
45027W        W13357   0.766  37.418   4.271
45028W        W13358  39.838   1.271  13.938
45029W        W13359  24.506  41.958  14.491
45030W        W13360  39.396  23.168  13.474
45031W        W13361  38.893  16.686  10.534
45032W        W13362  31.023   2.899  14.903
45033W        W13363  11.644  23.192   3.849
45034W        W13364  25.165  10.378   0.815
45035W        W13365  25.146  38.363  11.086
45036W        W13366  13.223  29.567   0.808
45037W        W13367  44.483  18.185  12.846
45038W        W13368  30.645  17.130  12.951
45039W        W13369   2.471  42.473  11.958
45040W        W13370  25.640  21.682   4.119
45041W        W13371  26.960   4.396  14.789
45042W        W13372  19.243  32.026   2.237
45043W        W13373  40.494  28.453  13.878
45044W        W13374  20.592  10.873   2.180
45045W        W13375  23.536   6.680  11.377
45046W        W13376   7.401  11.300   1.707
45047W        W13377   2.961  34.390   2.179
45048W        W13378  32.469  18.156  14.759
45049W        W13379  40.397  41.426  11.858
45050W        W13380  26.564  13.790  13.401
45051W        W13381  16.107   3.901  11.908
45052W        W13382  16.301  14.660   4.619
45053W        W13383  18.780  23.150  11.097
45054W        W13384  41.808  28.668   3.189
45055W        W13385   6.864   0.247   0.433
45056W        W13386   3.414  19.192  12.006
45057W        W13387  35.981  15.577  10.413
45058W        W13388  38.910  19.048  12.432
45059W        W13389  38.891  43.926  12.523
45060W        W13390  11.326   6.264  13.791
45061W        W13391   5.198  17.741  11.922
45062W        W13392  28.671  34.370   4.639
45063W        W13393  43.942  26.140   2.684
45064W        W13394  12.680  18.075  11.930
45065W        W13395   7.336   4.863  11.101
45066W        W13396   4.889  26.198   3.214
45067W        W13397  25.981  26.985  13.922
45068W        W13398   5.744  28.149  14.912
45069W        W13399  31.546  40.001   1.711
45070W        W13400  16.233  27.454   3.160
45071W        W13401  20.157  17.590  12.419
45072W        W13402  36.042  11.135   2.259
45073W        W13403  25.683   4.835   0.469
45074W        W13404  26.084  29.113  13.531
45075W        W13405   2.872  37.341  14.331
45076W        W13406   4.213   9.378   2.859
45077W        W13407   9.657  42.954   1.360
45078W        W13408  20.196  11.171  12.838
45079W        W13409  27.688   9.151  14.982
45080W        W13410  37.380  38.822  14.838
45081W        W13411   0.934  29.156   1.323
45082W        W13412  27.623   9.181  11.568
45083W        W13413  17.165  23.182  12.499
45084W        W13414  33.478   6.247   2.181
45085W        W13415   5.817   9.671  14.295
45086W        W13416  22.696  21.557  12.050
45087W        W13417  38.990   8.755  13.818
45088W        W13418  25.150   1.380  11.413
45089W        W13419  16.194  21.110  10.584
45090W        W13420  41.318   9.826   1.789
45091W        W13421  27.577  10.155   1.210
45092W        W13422  36.944  42.965  11.070
45093W        W13423   9.162  19.184   3.271
45094W        W13424  41.930  34.580  12.529
45095W        W13425   6.411  11.745  10.096
45096W        W13426  36.571   5.714   0.751
45097W        W13427   2.748  18.184   2.838
45098W        W13428   8.168  17.120   1.882
45099W        W13429  23.228  40.384   0.430
45100W        W13430  36.983   2.354   4.733
45101W        W13431   8.345  31.956   0.483
45102W        W13432   9.238   5.859   0.736
45103W        W13433  17.195  11.773   3.194
45104W        W13434  32.129  37.492  10.451
45105W        W13435  16.645  18.717  12.576
45106W        W13436   7.837   6.402  10.645
45107W        W13437  19.772  26.507  12.094
45108W        W13438   2.367  14.707  11.998
45109W        W13439  27.473  36.483   1.821
45110W        W13440  35.492   2.290   0.894
45111W        W13441  27.633  41.447  12.566
45112W        W13442   8.814   7.850  14.456
45113W        W13443   7.871   2.881   4.230
45114W        W13444  27.567   5.230   0.243
45115W        W13445  30.076   0.420   0.735
45116W        W13446  17.566  10.724   0.330
45117W        W13447  43.799  43.788   1.725
45118W        W13448  26.031  19.662  11.118
45119W        W13449  16.101  11.737  13.844
45120W        W13450   8.209   6.849   0.902
45121W        W13451  39.032   2.293  10.419
45122W        W13452  44.871  20.224   3.260
45123W        W13453  39.342   6.338   0.763
45124W        W13454  20.138   9.756  14.024
45125W        W13455  14.712  28.563   3.184
45126W        W13456   1.275  23.073  14.470
45127W        W13457   9.224  29.937   2.814
45128W        W13458  35.473   7.366   1.856
45129W        W13459   9.374   0.935  13.369
45130W        W13460  19.558  40.494  12.958
45131W        W13461   3.910  15.235   2.841
45132W        W13462  42.286  16.744   3.223
45133W        W13463  44.422   3.893  12.026
45134W        W13464   8.837   7.341  12.967
45135W        W13465   5.410  38.907   2.798
45136W        W13466  20.268   4.439  12.908
45137W        W13467  23.209   4.368  12.518
45138W        W13468  15.285  12.295   4.342
45139W        W13469  41.429  19.222  12.505
45140W        W13470  35.004  17.693  13.415
45141W        W13471  11.147  29.007  11.583
45142W        W13472   0.874  29.090   9.928
45143W        W13473  19.101  20.653   2.193
45144W        W13474  11.353  21.610   0.831
45145W        W13475  37.446  28.990   3.356
45146W        W13476  17.677  12.223  10.626
45147W        W13477  32.633  18.590  12.445
45148W        W13478  39.972  37.064   2.218
45149W        W13479   8.360  31.994   5.194
45150W        W13480  38.512  37.073   0.308
45151W        W13481   0.276   8.172   1.855
45152W        W13482  27.593   8.808  13.326
45153W        W13483  13.687  14.831   1.795
45154W        W13484  15.154  24.704   3.765
45155W        W13485   0.839  14.627  11.538
45156W        W13486  34.476  32.123   0.800
45157W        W13487  28.487  23.602   1.266
45158W        W13488  34.555  32.127   5.084
45159W        W13489  12.621   2.226   0.420
45160W        W13490  35.069  14.626   2.304
45161W        W13491   4.435  34.957   2.765
45162W        W13492  17.258  19.729  14.764
45163W        W13493  44.778  19.276   0.780
45164W        W13494  29.049  36.019   1.322
45165W        W13495  33.439  32.485  11.571
45166W        W13496  36.394  44.318   0.445
45167W        W13497   4.883  10.210   4.729
45168W        W13498  24.088   4.822   9.950
45169W        W13499   0.883   0.413  14.363
45170W        W13500  24.660  39.350   1.257
45171W        W13501  36.027  19.103   3.204
45172W        W13502   9.283   1.446  12.076
45173W        W13503  28.997   9.212   1.392
45174W        W13504  16.074  29.607  13.465
45175W        W13505  18.773   7.833   1.887
45176W        W13506  21.211  29.563  11.925
45177W        W13507  38.492   1.483   2.295
45178W        W13508   2.356  44.287  13.894
45179W        W13509  30.613  12.731  10.456
45180W        W13510  39.970   9.668   4.266
45181W        W13511  21.064  41.863  12.471
45182W        W13512  10.370  18.780  14.372
45183W        W13513   7.834  22.509  12.849
45184W        W13514  20.152  38.066   4.675
45185W        W13515  37.492  31.148  10.436
45186W        W13516  40.322  11.296  12.836
45187W        W13517  17.260  31.936  11.979
45188W        W13518   5.833  39.904   2.367
45189W        W13519  24.684  39.021   0.960
45190W        W13520   2.774  14.730  11.505
45191W        W13521   4.409   1.768   1.709
45192W        W13522  42.003  17.139  11.943
45193W        W13523  21.200  33.555   3.192
45194W        W13524  34.489  43.800   3.867
45195W        W13525  23.207  19.692   0.964
45196W        W13526  15.179   0.255  10.960
45197W        W13527  11.713  15.629  14.888
45198W        W13528  33.543  32.905   0.416
45199W        W13529   5.885  40.800   1.913
45200W        W13530  25.070   1.305  11.931
45201W        W13531   0.791  24.170  10.966
45202W        W13532  36.468  15.159   3.714
45203W        W13533   2.727  34.011   3.746
45204W        W13534  15.116  15.725   1.440
45205W        W13535   1.278  39.975   0.782
45206W        W13536  43.013  42.876   4.243
45207W        W13537  27.484  42.796   0.419
45208W        W13538   2.268  17.185  12.012
45209W        W13539  26.088  35.039  14.983
45210W        W13540  33.488   5.803   3.204
45211W        W13541   6.238  19.551   1.397
45212W        W13542   7.691  39.397   3.376
45213W        W13543   2.847   4.807  10.896
45214W        W13544  17.266  32.991  13.337
45215W        W13545  35.045   6.306  12.483
45216W        W13546  14.661  19.273   3.810
45217W        W13547  23.516   5.858  10.558
45218W        W13548  33.547  27.676  13.931
45219W        W13549  44.476  16.680  13.379
45220W        W13550   8.246   3.738  13.795
45221W        W13551  23.718  41.328   3.318
45222W        W13552  28.119  34.876   1.704
45223W        W13553  44.833  11.857   3.160
45224W        W13554  21.639  27.089   3.719
45225W        W13555  11.222  30.977  13.844
45226W        W13556  20.147  15.138   1.274
45227W        W13557  43.297  13.340  13.367
45228W        W13558  25.592  10.734   0.955
45229W        W13559   1.432  36.501   0.835
45230W        W13560  28.054  17.657  12.443
45231W        W13561  29.946  38.026  14.916
45232W        W13562   4.212  12.734  10.434
45233W        W13563  14.274  37.932  11.546
45234W        W13564  40.463  36.868   0.317
45235W        W13565  25.203  13.843   2.730
45236W        W13566  26.602  38.362  11.855
45237W        W13567  10.351  37.967   3.687
45238W        W13568  40.900   1.466   0.726
45239W        W13569  27.942  26.046   3.660
45240W        W13570  15.734  16.602   0.462
45241W        W13571  12.637  27.081  14.389
45242W        W13572  39.037   4.364   4.671
45243W        W13573  33.383  12.631  10.643
45244W        W13574   2.370   1.876   1.291
45245W        W13575  43.460  36.090   1.448
45246W        W13576  22.096  30.422   3.814
45247W        W13577   0.981  18.091  14.778
45248W        W13578  28.481  12.733   1.805
45249W        W13579   8.701  39.921  14.801
45250W        W13580  35.557  42.442   4.715
45251W        W13581  41.018  37.858  12.477
45252W        W13582   6.235   3.891   2.290
45253W        W13583  23.204  35.044   0.824
45254W        W13584  44.999  44.371   1.826
45255W        W13585  35.102  33.922  11.541
45256W        W13586   2.302   1.753   4.748
45257W        W13587   8.350  20.144  10.526
45258W        W13588  29.961  42.396   1.313
45259W        W13589  36.503  19.602   0.767
45260W        W13590   1.876  11.852   1.316
45261W        W13591  11.780   4.238   2.678
45262W        W13592  17.653  15.144   4.130
45263W        W13593   0.415  14.284   3.222
45264W        W13594  33.928  35.078   0.358
45265W        W13595  34.113   0.264   4.206
45266W        W13596  28.933  12.207  11.915
45267W        W13597   3.792   9.372   3.306
45268W        W13598  13.200   0.748   0.426
45269W        W13599  24.493  41.855  13.863
45270W        W13600  19.650   1.388   0.764
45271W        W13601   0.430  17.611   2.312
45272W        W13602  15.700  23.655  12.992
45273W        W13603   4.926  44.860   3.793
45274W        W13604   6.879  44.472  10.428
45275W        W13605   4.253  37.992   4.781
45276W        W13606  44.299  18.228   4.771
45277W        W13607   0.860  15.257  13.871
45278W        W13608   9.384  23.498   4.209
45279W        W13609  16.579  26.106   1.889
45280W        W13610   5.883  17.116   4.704
45281W        W13611  11.304  27.636  13.976
45282W        W13612   4.348  42.440  10.459
45283W        W13613  25.479  25.962  10.999
45284W        W13614  30.652  21.045   3.664
45285W        W13615  43.815  21.021  14.911
45286W        W13616  27.626  33.398  12.392
45287W        W13617  31.925  42.324   2.858
45288W        W13618  29.053  40.840   1.407
45289W        W13619  43.437  10.306  13.972
45290W        W13620  12.343  20.620  12.070
45291W        W13621  31.910  24.612   2.404
45292W        W13622  40.364   1.255   2.317
45293W        W13623   5.379  19.130   4.729
45294W        W13624   5.756  39.875  13.940
45295W        W13625  37.483   8.663   3.725
45296W        W13626  30.601  19.571  11.043
45297W        W13627   5.929  25.706  11.004
45298W        W13628  11.143   0.828  11.885
45299W        W13629  40.533  20.145  10.642
45300W        W13630  43.866  28.039   0.364
45301W        W13631   5.695  19.142  10.550
45302W        W13632  25.605  13.272  13.922
45303W        W13633  39.996  22.583  14.447
45304W        W13634  34.097  32.568   3.278
45305W        W13635   7.254  43.438   0.462
45306W        W13636  44.370   8.201  12.365
45307W        W13637   4.430  38.064   0.462
45308W        W13638  28.583  32.492  13.864
45309W        W13639  22.232  21.198  13.352
45310W        W13640  13.299  17.795   2.414
45311W        W13641  17.233   2.800   4.715
45312W        W13642  38.821   0.893  10.060
45313W        W13643  33.454  43.012  14.839
45314W        W13644  42.990  12.229   0.263
45315W        W13645  21.090   4.932   2.747
45316W        W13646  31.586  19.195  12.845
45317W        W13647  41.312  40.494   2.695
45318W        W13648  23.984  42.901   1.367
45319W        W13649  10.294  19.559   2.739
45320W        W13650  19.278  41.868   1.214
45321W        W13651  34.417  14.329  12.075
45322W        W13652   1.864  28.074   0.794
45323W        W13653  25.215  39.037   2.320
45324W        W13654  30.931   1.751  10.928
45325W        W13655  16.139   0.839   3.649
45326W        W13656  20.557  16.674  13.854
45327W        W13657  36.522  28.030  14.423
45328W        W13658  42.388  13.702   1.426
45329W        W13659  31.593  41.835   2.843
45330W        W13660  16.714  12.203  12.415
45331W        W13661  43.492  37.546   2.822
45332W        W13662  36.866  34.021  14.281
45333W        W13663  29.627  28.561  11.488
45334W        W13664  21.599   1.357   4.823
45335W        W13665  11.178  20.546  13.520
45336W        W13666  18.643  28.652  10.490
45337W        W13667  42.381   3.870  14.926
45338W        W13668  15.620  30.507  14.922
45339W        W13669  27.579  16.297   2.332
45340W        W13670  11.147   9.877  10.628
45341W        W13671   0.318  39.370  12.070
45342W        W13672  22.654  13.778  13.413
45343W        W13673  20.048  12.784  12.435
45344W        W13674  24.170  17.766  14.786
45345W        W13675  37.087  14.165  12.071
45346W        W13676  20.582  25.007  11.916
45347W        W13677  43.775  34.055   1.419
45348W        W13678  44.495  37.854   0.894
45349W        W13679  36.498  33.060  12.362
45350W        W13680  20.697   6.727   5.310
45351W        W13681   8.730  39.429   4.606
45352W        W13682  26.627  35.547  12.567
45353W        W13683  30.527   4.865  13.040
45354W        W13684  35.418  35.081   2.665
45355W        W13685   2.323  30.988   3.204
45356W        W13686  13.724  23.185  13.524
45357W        W13687  37.497   9.180  11.873
45358W        W13688  16.598  16.148  14.336
45359W        W13689  24.666  13.297  11.116
45360W        W13690  41.847  10.368   3.167
45361W        W13691   9.229  24.640  14.978
45362W        W13692  21.102  36.936  10.540
45363W        W13693  29.066  36.965  13.919
45364W        W13694  17.590  33.010  14.370
45365W        W13695  26.564  38.829   5.266
45366W        W13696  42.786  20.670  12.030
45367W        W13697  27.000  39.364  13.848
45368W        W13698  27.181  37.875  14.386
45369W        W13699  33.014  28.525  14.795
45370W        W13700  17.163  11.637   2.701
45371W        W13701  17.289  33.429  11.564
45372W        W13702   8.254  39.391  12.034
45373W        W13703  11.212  29.135   1.390
45374W        W13704   0.357  40.964  13.913
45375W        W13705  33.555  26.473   2.218
45376W        W13706   5.312  19.210  11.528
45377W        W13707  39.919   9.183   4.773
45378W        W13708  23.501  13.216   3.746
45379W        W13709   1.918  38.865  14.986
45380W        W13710  24.683  15.823  12.502
45381W        W13711   1.777  25.545   0.443
45382W        W13712  15.091   0.755   1.810
45383W        W13713  39.928  38.960   3.244
45384W        W13714  32.032  28.640  10.564
45385W        W13715  25.481   7.372  13.423
45386W        W13716   7.407  21.588  10.565
45387W        W13717   9.850  20.677  11.937
45388W        W13718  24.507  18.100  11.097
45389W        W13719  17.199  12.169   4.334
45390W        W13720   3.817  28.965  13.363
45391W        W13721  44.938  20.217   0.244
45392W        W13722  33.096  18.099  11.558
45393W        W13723  23.190  16.291   1.271
45394W        W13724  26.969  18.151   3.776
45395W        W13725  14.727  32.517   3.317
45396W        W13726  35.103  40.525   3.317
45397W        W13727  39.323  11.134   3.232
45398W        W13728  25.144  38.883  13.526
45399W        W13729  10.639  26.005  10.958
45400W        W13730  14.817  35.411   5.295
45401W        W13731  18.664  16.735   0.893
45402W        W13732  22.231  41.321   2.235
45403W        W13733  22.043   0.825  14.318
45404W        W13734  24.542  34.453   3.251
45405W        W13735   6.391  30.970   1.417
45406W        W13736   7.238  16.574   2.664
45407W        W13737  14.800  30.619  10.983
45408W        W13738  17.071  29.500   3.215
45409W        W13739  31.605  31.034  14.763
45410W        W13740  44.889  28.052  14.501
45411W        W13741   7.708   3.353   5.238
45412W        W13742  30.614   4.245  12.856
45413W        W13743  25.978   4.938  13.406
45414W        W13744  41.829  38.832   3.863
45415W        W13745   7.411   4.386  14.438
45416W        W13746  11.688   1.770  10.457
45417W        W13747  11.181  44.325   4.309
45418W        W13748   6.239  40.427  13.837
45419W        W13749  42.942  17.303   2.886
45420W        W13750  28.008  36.433   3.688
45421W        W13751  18.079  40.891   1.813
45422W        W13752  29.546  43.366  10.406
45423W        W13753  22.544  27.952   5.307
45424W        W13754  35.985   8.696  14.287
45425W        W13755  31.602  25.092   2.716
45426W        W13756  21.727  13.642   3.730
45427W        W13757  29.113  15.710   4.288
45428W        W13758  10.850  12.173  14.309
45429W        W13759  16.239  17.747   1.308
45430W        W13760   5.334   3.866   2.730
45431W        W13761  22.183  44.002  12.904
45432W        W13762   3.935  11.209   0.739
45433W        W13763   8.793  30.130   2.721
45434W        W13764  13.151  14.659   2.872
45435W        W13765   0.445   1.766  11.546
45436W        W13766   5.397  42.490  12.078
45437W        W13767  31.446   2.465  12.543
45438W        W13768  15.189  14.737   1.730
45439W        W13769  26.049   6.353  13.940
45440W        W13770  44.765  29.144  12.458
45441W        W13771  26.617  20.125   4.178
45442W        W13772  29.071  44.266  14.762
45443W        W13773  39.053  12.340   1.809
45444W        W13774  15.673  15.113  14.863
45445W        W13775  26.582   8.182   3.641
45446W        W13776  12.742  42.940  10.521
45447W        W13777  33.497  13.174  10.426
45448W        W13778  35.034  39.925  10.511
45449W        W13779  25.042   7.797  14.311
45450W        W13780  24.021  28.135   4.266
45451W        W13781  27.663  21.253   1.257
45452W        W13782   6.188  12.709  12.392
45453W        W13783   8.799  20.050   2.188
45454W        W13784  30.516  15.199  12.869
45455W        W13785  38.562  28.604   1.713
45456W        W13786  30.982   3.300  11.039
45457W        W13787  16.209   3.948  14.361
45458W        W13788  39.492  44.988  13.492
45459W        W13789   3.237  33.069   3.166
45460W        W13790   3.448  25.176  12.455
45461W        W13791  43.796  10.219   3.148
45462W        W13792   9.247  25.645   2.268
45463W        W13793  44.345   3.364   4.674
45464W        W13794  11.218  37.398  13.369
45465W        W13795  24.085  28.143   1.872
45466W        W13796  31.109  43.928   2.733
45467W        W13797  25.563  39.314   1.345
45468W        W13798  34.997  20.592  10.497
45469W        W13799  22.543  34.575   2.243
45470W        W13800  33.423  37.996   4.302
45471W        W13801  38.901  30.650  13.911
45472W        W13802  32.529  21.247   5.082
45473W        W13803  22.688  43.998  10.943
45474W        W13804  38.390   7.376  13.539
45475W        W13805  23.560  18.594   3.634
45476W        W13806  27.080  44.464   1.795
45477W        W13807  13.334  27.074  11.001
45478W        W13808  43.414   9.243  10.533
45479W        W13809   7.883  21.528  14.788
45480W        W13810  39.051  20.756   2.823
45481W        W13811  20.590  14.687   0.388
45482W        W13812  25.042   3.411   1.419
45483W        W13813  31.900  11.823  14.433
45484W        W13814  21.526  21.224   2.357
45485W        W13815   6.745  24.601  10.979
45486W        W13816  13.279  33.943   3.743
45487W        W13817  37.347  43.978  12.041
45488W        W13818  16.310   8.794   4.244
45489W        W13819  26.701  23.188   2.728
45490W        W13820  15.292   2.395  10.455
45491W        W13821  16.197  13.687  14.422
45492W        W13822  34.049   9.792   1.908
45493W        W13823  37.964  31.519  11.552
45494W        W13824   0.889  38.531   2.299
45495W        W13825  32.077  44.469  11.105
45496W        W13826   7.769  16.804   4.641
45497W        W13827  42.884  22.221  14.464
45498W        W13828  11.704  43.369   4.638
45499W        W13829  23.084  22.696   0.307
45500W        W13830  42.999  38.505   0.463
45501W        W13831   3.802  10.717   4.268
45502W        W13832  16.100  15.602   1.228
45503W        W13833  22.512  31.997   4.270
45504W        W13834   6.732  33.071   4.649
45505W        W13835  25.002   1.771   3.190
45506W        W13836  33.989  17.144   3.377
45507W        W13837  15.783   4.326  10.914
45508W        W13838  20.659   9.190  13.437
45509W        W13839  39.552   4.275  10.531
45510W        W13840  35.858   0.807  14.461
45511W        W13841  37.038  28.466   1.418
45512W        W13842  31.538  44.503   0.244
45513W        W13843  22.596  21.681   2.791
45514W        W13844  13.626  40.027  11.908
45515W        W13845   8.176  30.622  14.006
45516W        W13846  18.189   3.908   2.195
45517W        W13847  38.423  33.478   2.864
45518W        W13848  12.357  44.324  11.872
45519W        W13849  30.021  39.539  13.819
45520W        W13850  12.766   2.462  11.445
45521W        W13851   5.830  18.724  12.886
45522W        W13852  17.126  33.002  11.976
45523W        W13853  30.417  12.258   4.204
45524W        W13854   6.801  17.761  14.973
45525W        W13855  39.984  15.322   3.359
45526W        W13856   8.179  41.383  12.459
45527W        W13857  13.232  30.980  12.340
45528W        W13858  22.586   0.866   3.271
45529W        W13859  44.353  23.044   0.865
45530W        W13860  36.591  10.669   2.760
45531W        W13861  23.673  36.400  12.011
45532W        W13862  41.892  15.681  14.008
45533W        W13863   3.322  27.602   1.357
45534W        W13864  30.954  35.463   1.428
45535W        W13865   8.709  11.741   2.740
45536W        W13866   6.256  41.294   4.325
45537W        W13867  24.603  41.430  12.501
45538W        W13868   7.910   7.863  14.025
45539W        W13869  36.999  11.304   4.654
45540W        W13870  25.657  35.027   4.612
45541W        W13871  12.282  28.102  12.576
45542W        W13872  33.895  19.093   3.832
45543W        W13873  35.103  19.616  11.383
45544W        W13874  28.159  21.078   3.682
45545W        W13875  23.104  20.696   0.313
45546W        W13876  44.894  31.937   3.700
45547W        W13877   4.799  42.390   4.635
45548W        W13878  10.790  34.009   3.773
45549W        W13879   3.945   6.755   2.751
45550W        W13880  18.078  42.446   0.400
45551W        W13881  15.246  16.281  14.933
45552W        W13882  30.588  14.130  12.551
45553W        W13883  26.622  33.013   3.700
45554W        W13884  27.586   2.374   4.735
45555W        W13885  27.603   8.804   1.917
45556W        W13886  19.539  28.486  13.440
45557W        W13887  19.243  34.875   4.786
45558W        W13888  29.092  44.990   4.279
45559W        W13889  13.329  14.182   3.223
45560W        W13890   5.844   2.462   1.406
45561W        W13891   2.889  35.524  13.048
45562W        W13892   2.274  34.889   3.325
45563W        W13893   6.875  12.142  14.966
45564W        W13894  16.756   0.314  11.903
45565W        W13895  43.455   7.191   1.916
45566W        W13896  15.234  18.221   2.748
45567W        W13897  37.366  12.223   4.691
45568W        W13898  31.076  38.029  12.525
45569W        W13899  15.727  18.154  11.075
45570W        W13900  26.008  24.125  13.942
45571W        W13901  30.617   2.871  11.536
45572W        W13902  44.942  25.210  11.995
45573W        W13903  24.029  24.525  11.021
45574W        W13904  11.133  36.065   0.805
45575W        W13905   8.864  24.509   3.661
45576W        W13906  17.588   5.744   1.294
45577W        W13907   2.316  10.349  13.907
45578W        W13908  26.659   1.279  10.603
45579W        W13909   1.734   9.780   2.323
45580W        W13910  30.580  20.059   2.317
45581W        W13911  17.075  15.713   2.773
45582W        W13912   3.389  16.205   3.280
45583W        W13913  23.021   2.844  10.512
45584W        W13914  36.939  43.880  10.488
45585W        W13915  17.187  14.706  13.034
45586W        W13916  42.377  44.777  14.931
45587W        W13917   8.757  12.325  12.842
45588W        W13918  20.657   9.835  12.980
45589W        W13919  36.557  11.702   9.938
45590W        W13920  10.802  12.143   1.730
45591W        W13921   8.225   6.274   0.362
45592W        W13922  31.579  39.824  11.499
45593W        W13923  18.677  42.906   4.646
45594W        W13924  10.740  20.621  12.035
45595W        W13925  30.112  27.109  12.044
45596W        W13926  32.612  42.355  13.501
45597W        W13927  18.621  43.514   2.672
45598W        W13928  29.502  22.037  12.985
45599W        W13929  38.009  23.532   1.305
45600W        W13930  17.794  16.291   2.337
45601W        W13931  31.141  43.304  11.964
45602W        W13932  19.582  35.447  12.541
45603W        W13933   3.222   9.705  11.063
45604W        W13934  16.275   9.726  14.797
45605W        W13935   5.887  42.452   2.198
45606W        W13936  39.386  31.064   0.911
45607W        W13937  41.998  13.685   2.861
45608W        W13938  37.879  24.640   3.290
45609W        W13939  43.882  32.948  10.567
45610W        W13940  16.235  40.361  10.426
45611W        W13941  20.238   6.789   4.701
45612W        W13942  33.924  11.845  11.873
45613W        W13943  20.190  33.966   0.838
45614W        W13944   9.312  42.917  13.973
45615W        W13945  40.442   7.196  14.992
45616W        W13946  23.179  29.169   0.889
45617W        W13947  36.081  38.342   1.845
45618W        W13948  21.152  37.991  14.961
45619W        W13949  28.592  32.968  12.437
45620W        W13950  17.279  36.931  11.008
45621W        W13951   9.333  26.615  10.550
45622W        W13952  23.069  39.509   1.289
45623W        W13953  39.933   7.254   1.279
45624W        W13954  28.544   1.257   1.694
45625W        W13955  11.298  12.327  11.005
45626W        W13956  30.426  28.498   3.749
45627W        W13957  39.863  40.891   2.786
45628W        W13958  38.443   9.251  10.422
45629W        W13959  12.708  31.558  14.415
45630W        W13960  26.145  28.093  11.537
45631W        W13961  11.278  36.965  12.021
45632W        W13962  18.274  22.552  13.975
45633W        W13963  28.531  33.614  10.130
45634W        W13964   3.847  38.996   3.867
45635W        W13965  27.568  19.549   4.347
45636W        W13966  37.073  22.731  12.854
45637W        W13967   9.307  28.555   2.769
45638W        W13968  27.051  25.569   1.719
45639W        W13969  35.934  21.580   0.851
45640W        W13970  38.461  20.093   4.301
45641W        W13971  22.081   8.297  14.931
45642W        W13972  43.332   7.315   5.098
45643W        W13973  36.999   8.266   3.348
45644W        W13974   5.824  16.267  12.845
45645W        W13975   0.257  35.492   3.163
45646W        W13976  11.790  20.184   0.782
45647W        W13977   0.845  40.818  13.866
45648W        W13978  18.608   0.851  11.100
45649W        W13979  17.195  11.752  10.550
45650W        W13980  18.781  18.095   4.693
45651W        W13981  39.452  22.592   3.147
45652W        W13982  10.771  32.578   1.917
45653W        W13983  38.856  33.097   1.930
45654W        W13984  21.170  14.233   1.825
45655W        W13985  21.073  22.195   1.302
45656W        W13986  38.949  33.457  10.085
45657W        W13987   1.392  15.597   3.301
45658W        W13988   9.867   9.691  13.440
45659W        W13989  41.980  33.078   3.162
45660W        W13990  10.724  37.015  11.096
45661W        W13991   3.316  40.921  12.996
45662W        W13992  24.500  26.201  13.985
45663W        W13993  36.351  21.051   4.212
45664W        W13994  41.404  21.157  14.837
45665W        W13995   1.297   8.245   0.260
45666W        W13996  30.007  22.622  10.133
45667W        W13997  42.351  34.987  10.496
45668W        W13998  41.035  33.473  11.492
45669W        W13999  17.700  30.434  14.385
45670W        W14000   7.683  16.215   4.662
45671W        W14001  16.259  33.593   2.261
45672W        W14002   1.275  14.121   1.930
45673W        W14003  28.571  39.380   4.352
45674W        W14004  39.419  11.677  11.070
45675W        W14005  41.946  19.098   2.726
45676W        W14006  22.687   7.244   0.380
45677W        W14007  15.264  13.837   2.363
45678W        W14008  41.906  38.064   4.838
45679W        W14009  12.270  19.742  12.440
45680W        W14010   5.210  37.403   9.932
45681W        W14011  27.131  19.222  14.923
45682W        W14012   6.819  30.579   0.414
45683W        W14013   5.902  14.832  14.335
45684W        W14014  40.379  23.682   3.166
45685W        W14015  44.009  18.131   2.678
45686W        W14016  20.594  21.738   2.762
45687W        W14017  10.664   6.772  14.945
45688W        W14018  11.212  16.639   0.351
45689W        W14019  20.153  29.947  14.400
45690W        W14020  29.166  20.126  10.485
45691W        W14021  20.171  11.679   0.374
45692W        W14022  34.892  27.692  10.981
45693W        W14023  43.402   7.818   3.321
45694W        W14024  29.143  37.948  13.954
45695W        W14025  11.159  34.957  12.072
45696W        W14026  29.004  21.758   4.288
45697W        W14027  15.614  19.672  13.004
45698W        W14028  39.870  30.604   3.188
45699W        W14029   0.322  11.145   4.800
45700W        W14030  29.174  28.566   4.642
45701W        W14031  40.032  21.051   1.259
45702W        W14032   5.270  36.085   5.281
45703W        W14033  33.002  15.257   4.338
45704W        W14034  24.563  21.046  13.845
45705W        W14035  44.483  22.662  12.001
45706W        W14036  25.969  20.200  13.046
45707W        W14037  25.709  26.190  14.983
45708W        W14038  14.737   1.314  12.411
45709W        W14039  21.705   6.920   5.640
45710W        W14040  10.872  24.675  14.891
45711W        W14041  25.579  13.681  10.581
45712W        W14042   3.275  40.965   0.780
45713W        W14043  17.775  10.368   2.849
45714W        W14044  44.926  22.523   0.377
45715W        W14045  34.504  44.802   3.271
45716W        W14046  10.836   9.307   0.315
45717W        W14047  39.390  36.450   1.216
45718W        W14048  15.610  34.113   1.305
45719W        W14049  28.559  28.986  12.050
45720W        W14050  18.680  24.100  12.078
45721W        W14051  17.289   7.809   3.850
45722W        W14052  17.282  10.170   4.312
45723W        W14053  41.947  22.174  12.503
45724W        W14054  40.849  35.885   3.806
45725W        W14055  33.874  18.569   4.141
45726W        W14056   2.947  19.175   0.826
45727W        W14057  42.311  22.204   1.890
45728W        W14058  22.251  41.947   2.763
45729W        W14059  27.952  14.689  13.310
45730W        W14060   5.383  21.599   1.342
45731W        W14061  10.253  39.989   0.811
45732W        W14062  37.406  44.500  12.556
45733W        W14063  16.618  19.581  13.846
45734W        W14064  38.916   2.414   1.737
45735W        W14065  25.532   6.761   4.780
45736W        W14066  16.713  17.663   3.363
45737W        W14067  19.602  20.063  14.304
45738W        W14068  18.651  19.557   0.302
45739W        W14069  36.959  11.634   2.745
45740W        W14070   5.383  25.130   2.354
45741W        W14071  27.580  29.055  10.999
45742W        W14072  35.539   8.787   3.342
45743W        W14073   3.777  30.562   3.819
45744W        W14074  35.490  13.139   4.297
45745W        W14075   8.220  25.660   2.210
45746W        W14076  29.165  42.023  12.389
45747W        W14077  25.088  37.523  14.351
45748W        W14078   1.953   6.859   4.208
45749W        W14079  14.712  41.965   4.338
45750W        W14080  17.267  37.839   2.255
45751W        W14081  12.204  44.423  11.576
45752W        W14082  36.382  25.645   1.730
45753W        W14083  10.155  19.657  14.927
45754W        W14084  19.039  38.968   1.765
45755W        W14085  42.936  28.644   3.641
45756W        W14086  20.039   3.382  13.024
45757W        W14087  37.351  36.460   4.135
45758W        W14088  23.159   7.221  13.452
45759W        W14089  33.885  22.727  14.288
45760W        W14090  41.819  34.551   1.888
45761W        W14091  37.487  43.327  12.825
45762W        W14092  28.949  16.644  14.943
45763W        W14093   5.432   0.404  13.809
45764W        W14094  27.940   0.377   1.737
45765W        W14095  27.950  10.783   4.215
45766W        W14096   7.306  26.505   3.648
45767W        W14097  44.444  42.382  12.451
45768W        W14098  15.585  17.699  10.407
45769W        W14099   1.277  39.335  12.922
45770W        W14100   5.802  41.298   0.393
45771W        W14101  27.623  42.029   1.804
45772W        W14102  24.634  12.282  11.117
45773W        W14103  25.159  14.275  10.439
45774W        W14104  16.221  22.507   0.382
45775W        W14105  27.567  19.263   1.270
45776W        W14106  24.567  28.074  14.466
45777W        W14107  36.060  39.001  11.490
45778W        W14108  21.045  12.649  14.835
45779W        W14109  29.989  26.663  13.977
45780W        W14110  30.441  22.168  13.985
45781W        W14111  36.930  22.689  14.406
45782W        W14112  42.012  16.132  12.998
45783W        W14113  13.708  36.953   1.362
45784W        W14114  20.087  20.075   5.176
45785W        W14115   3.877  23.614  14.482
45786W        W14116  38.991  41.319  14.502
45787W        W14117   5.400  23.051  14.777
45788W        W14118   3.810  27.084  14.402
45789W        W14119  17.633   2.947   0.361
45790W        W14120  42.424  24.171  11.966
45791W        W14121  31.940  32.425   4.191
45792W        W14122  10.312  18.149   3.837
45793W        W14123  33.428  14.724  10.623
45794W        W14124  40.882   3.289  11.474
45795W        W14125  13.163  39.540  13.973
45796W        W14126   8.395  15.276  13.903
45797W        W14127   9.699   7.821  13.860
45798W        W14128  15.205  35.430  12.509
45799W        W14129  28.942  10.377   3.648
45800W        W14130  16.222   5.436  11.953
45801W        W14131  43.871  12.297  12.883
45802W        W14132   4.703  36.354  13.513
45803W        W14133  19.136  25.554   4.252
45804W        W14134  23.525  14.712   2.359
45805W        W14135   3.946  37.455   3.840
45806W        W14136  36.903  11.745  11.555
45807W        W14137  15.186  32.055   4.135
45808W        W14138  33.921  18.127  10.992
45809W        W14139   7.698  27.448  10.579
45810W        W14140  38.541  15.581  12.427
45811W        W14141  11.197   1.314  13.814
45812W        W14142   6.398  24.604  12.536
45813W        W14143  18.071   7.875   0.745
45814W        W14144  44.912  20.664  12.974
45815W        W14145  40.036   7.200   4.190
45816W        W14146  33.086  36.954  14.878
45817W        W14147  31.524  17.294   0.891
45818W        W14148  16.580   5.197   1.729
45819W        W14149  31.099  13.825  13.351
45820W        W14150  10.845  33.121  10.636
45821W        W14151  32.540   0.813  13.526
45822W        W14152  21.168  11.795  13.377
45823W        W14153   3.296   5.697  12.455
45824W        W14154   0.890  23.165   4.198
45825W        W14155  44.937   9.311  14.895
45826W        W14156  31.444  15.142   3.841
45827W        W14157  31.039   0.952   2.316
45828W        W14158  30.133  31.460   0.950
45829W        W14159  36.081  13.800   1.325
45830W        W14160   3.341   1.767   0.849
45831W        W14161  11.279  32.915   3.294
45832W        W14162   0.982  12.802  11.886
45833W        W14163  37.347  24.142  10.472
45834W        W14164  33.520  37.410  13.436
45835W        W14165  31.547  31.566  12.013
45836W        W14166  24.682   3.740  13.993
45837W        W14167  34.378  31.632   1.744
45838W        W14168  37.481  33.457  12.834
45839W        W14169   8.345  37.919   0.836
45840W        W14170  16.643  29.993   2.692
45841W        W14171  25.190  19.643  12.894
45842W        W14172  38.966  15.120   1.322
45843W        W14173   8.249  28.540  11.062
45844W        W14174  29.928  39.544   4.615
45845W        W14175  30.490  34.093  11.109
45846W        W14176  30.453  25.028  12.531
45847W        W14177  16.178   2.757   1.224
45848W        W14178  36.349  44.764   0.379
45849W        W14179   9.378  14.634   0.925
45850W        W14180  41.032  27.185  10.471
45851W        W14181   2.379   2.432   2.368
45852W        W14182  26.466  22.682   4.352
45853W        W14183  27.145  12.801   9.933
45854W        W14184  29.960  19.142   2.243
45855W        W14185   0.833  22.589  14.801
45856W        W14186  11.622  14.186   1.326
45857W        W14187  34.092  38.949   4.199
45858W        W14188   9.209  10.858   2.216
45859W        W14189  23.213   9.840  14.446
45860W        W14190  29.117   1.272   3.325
45861W        W14191  44.795   1.280  10.494
45862W        W14192  42.353  42.800  10.495
45863W        W14193  20.101   2.467  12.542
45864W        W14194  43.450  43.830  12.077
45865W        W14195   7.703  24.614   4.342
45866W        W14196  23.137  29.074   3.319
45867W        W14197   3.894   3.854   1.215
45868W        W14198   2.402  41.891   4.235
45869W        W14199  26.983   3.868   0.474
45870W        W14200  37.509  35.082  12.888
45871W        W14201  19.256  36.450  11.016
45872W        W14202  13.268  39.853   4.303
45873W        W14203  12.220  13.200   2.712
45874W        W14204   8.850  35.448   0.302
45875W        W14205  44.465  11.297  14.835
45876W        W14206   3.709  42.446   4.713
45877W        W14207   5.412   4.213  10.905
45878W        W14208  40.927  13.796  10.574
45879W        W14209  10.712   1.966  11.912
45880W        W14210  21.148   3.857   2.811
45881W        W14211  10.679  24.998   0.766
45882W        W14212  32.128  16.588  13.323
45883W        W14213  19.278  44.819  14.281
45884W        W14214   4.926  12.773   3.698
45885W        W14215  32.015  25.529   1.850
45886W        W14216  25.066  39.447   2.850
45887W        W14217  44.450  43.333  11.122
45888W        W14218  40.978   8.179   1.391
45889W        W14219  16.569  39.893   4.243
45890W        W14220  37.386  16.072   1.376
45891W        W14221  16.262  36.918   0.451
45892W        W14222  33.605   4.919  12.384
45893W        W14223  13.726  31.063   3.721
45894W        W14224   8.273  34.957  10.964
45895W        W14225  36.909  39.459  12.537
45896W        W14226   8.196  26.549   0.392
45897W        W14227  28.965  44.769   3.858
45898W        W14228   6.236  16.197   0.276
45899W        W14229  32.948  35.389   2.858
45900W        W14230  25.472  20.657   0.286
45901W        W14231   4.772  20.744  10.419
45902W        W14232  27.516  23.667   3.148
45903W        W14233   6.395  35.946   2.749
45904W        W14234   8.843  33.383  11.592
45905W        W14235  21.199  32.607  11.413
45906W        W14236  31.589  33.554   1.807
45907W        W14237  22.215   7.288  12.452
45908W        W14238   8.835  33.510  11.913
45909W        W14239  37.437  44.329   2.241
45910W        W14240  41.485  44.799  13.845
45911W        W14241  26.152  44.978   2.327
45912W        W14242  39.380  41.967  12.016
45913W        W14243  19.747  14.151   3.820
45914W        W14244   3.934  25.191  12.390
45915W        W14245  39.882  43.916   1.224
45916W        W14246  37.036  28.102  10.410
45917W        W14247  19.668  44.397   4.169
45918W        W14248  39.056  25.560   5.087
45919W        W14249  31.552  30.476   0.841
45920W        W14250   3.726   4.714  10.645
45921W        W14251   7.707  16.650   4.241
45922W        W14252  34.887  16.196  13.851
45923W        W14253  18.182  39.900  13.460
45924W        W14254   8.203  23.730  13.047
45925W        W14255  38.054  24.127  14.333
45926W        W14256  22.501  42.524  13.473
45927W        W14257   1.952   3.796   1.256
45928W        W14258  41.353  28.588   0.840
45929W        W14259   3.916  42.493   0.827
45930W        W14260  17.078  11.858  13.537
45931W        W14261  27.457  41.316   2.214
45932W        W14262  28.981  24.017  13.343
45933W        W14263  42.985  18.269  11.044
45934W        W14264  44.941  19.585   4.607
45935W        W14265  37.457  32.474   3.196
45936W        W14266  14.634  37.025   1.745
45937W        W14267  12.737  16.614  14.843
45938W        W14268  19.107  24.505   3.347
45939W        W14269  34.605   7.188   2.361
45940W        W14270  44.846  14.220  11.097
45941W        W14271  20.230  13.639   1.696
45942W        W14272  38.896  34.585   2.721
45943W        W14273  21.136   0.743   2.362
45944W        W14274  38.375  39.440  14.441
45945W        W14275  15.164   4.319   1.312
45946W        W14276   1.822  24.214  12.419
45947W        W14277  28.452   3.421  12.857
45948W        W14278  11.267  31.130  11.429
45949W        W14279  13.786  43.269  12.439
45950W        W14280  26.983  12.146   1.240
45951W        W14281  19.697  31.078   1.396
45952W        W14282  38.866  17.212  12.842
45953W        W14283   4.907  28.616   1.880
45954W        W14284  42.319  43.843  12.419
45955W        W14285  18.245  18.659  10.632
45956W        W14286  25.010   8.851  13.821
45957W        W14287   1.340  35.549  14.776
45958W        W14288  11.348  21.586  11.594
45959W        W14289  23.571  21.674   1.719
45960W        W14290   9.148   3.267  11.093
45961W        W14291  30.110   8.657   2.343
45962W        W14292  44.978   0.913   3.189
45963W        W14293  26.165  41.370  12.935
45964W        W14294  27.547   8.160   4.272
45965W        W14295  22.652   5.839  11.550
45966W        W14296  29.934   1.389   0.879
45967W        W14297  19.095  24.006   1.341
45968W        W14298  37.042  26.172   1.713
45969W        W14299   4.376  28.493   0.363
45970W        W14300  14.622  30.474   0.744
45971W        W14301  30.915  24.089   3.269
45972W        W14302  29.165  32.034  11.484
45973W        W14303  32.899   2.440   1.695
45974W        W14304  11.675  40.368  13.890
45975W        W14305  21.631  19.606  11.446
45976W        W14306  10.678  34.018   4.347
45977W        W14307   9.230  13.216  13.022
45978W        W14308   2.305   8.362   0.750
45979W        W14309  20.669  30.489  14.897
45980W        W14310  14.688   2.938  11.574
45981W        W14311  40.446  21.747  14.821
45982W        W14312   4.813   7.821  12.525
45983W        W14313   1.465  39.963   1.365
45984W        W14314   4.317  38.899  13.831
45985W        W14315  31.574  39.861   4.754
45986W        W14316  32.578  11.285   0.826
45987W        W14317  36.037  40.869   0.803
45988W        W14318  22.721  39.397   2.834
45989W        W14319  28.444  40.871  13.940
45990W        W14320  31.922  32.943   3.870
45991W        W14321   5.687  12.131   1.844
45992W        W14322  12.664  14.774  14.909
45993W        W14323  11.816  12.764  11.016
45994W        W14324  18.283  29.162   1.783
45995W        W14325   7.737  37.878  14.767
45996W        W14326  15.168  17.155   4.697
45997W        W14327   7.184  34.395  12.530
45998W        W14328  24.544  44.438  10.969
45999W        W14329  22.729  38.868  10.140
46000W        W14330   6.847  38.937  13.380
46001W        W14331  18.788  23.523  13.479
46002W        W14332  23.144  15.749  10.616
46003W        W14333  19.758  13.752   2.882
46004W        W14334  24.668   0.846   0.933
46005W        W14335   2.323  26.071   2.185
46006W        W14336   3.240   0.390  13.063
46007W        W14337  28.096  41.419   4.702
46008W        W14338  35.871  37.086   2.884
46009W        W14339  29.600  33.106   1.856
46010W        W14340  32.567  43.346  10.587
46011W        W14341  29.116  22.678  12.982
46012W        W14342  29.121  35.893   4.261
46013W        W14343  36.452  28.479   1.905
46014W        W14344   7.303   5.764   1.432
46015W        W14345   2.313  38.881  13.963
46016W        W14346  11.677  29.087  13.909
46017W        W14347  37.474  32.591   3.704
46018W        W14348  44.946  29.140   0.763
46019W        W14349  29.023   1.936  14.367
46020W        W14350  17.299  43.970   0.933
46021W        W14351  15.167   2.450   4.817
46022W        W14352  13.603  27.506  13.875
46023W        W14353  25.585  30.583   3.762
46024W        W14354  27.072   5.848  14.814
46025W        W14355   9.798  43.943  11.899
46026W        W14356  35.480   0.317  13.397
46027W        W14357  33.998  11.684   4.771
46028W        W14358   2.909  32.421  11.992
46029W        W14359  25.209  30.475   3.776
46030W        W14360  41.039   3.318   5.270
46031W        W14361  38.463  39.542   4.679
46032W        W14362  27.539  35.378  14.782
46033W        W14363   4.396  12.705   1.727
46034W        W14364  20.105  26.620   5.269
46035W        W14365  35.924  32.071  11.400
46036W        W14366  24.628   4.874   1.274
46037W        W14367   3.329  18.610   2.736
46038W        W14368  24.575  39.016  12.889
46039W        W14369  18.291  17.116  14.378
46040W        W14370  24.584  25.168   3.672
46041W        W14371  17.564  40.934   3.283
46042W        W14372   2.383  38.429  13.009
46043W        W14373  32.407  41.885  10.887
46044W        W14374  44.840  17.067  12.056
46045W        W14375   9.338  39.964  13.912
46046W        W14376  36.442  43.969  13.025
46047W        W14377  13.127  18.083  11.519
46048W        W14378   0.328  21.169  14.397
46049W        W14379  42.325  16.578   0.255
46050W        W14380   9.671   1.799  11.054
46051W        W14381  27.544   9.822   2.266
46052W        W14382   9.296  27.003   4.678
46053W        W14383  10.644  29.989  11.538
46054W        W14384  41.817  33.029   1.735
46055W        W14385  36.077  40.427  13.874
46056W        W14386  25.533  15.134  13.351
46057W        W14387  24.122  44.285   2.361
46058W        W14388  36.019  34.921   2.303
46059W        W14389  16.213  31.032  14.304
46060W        W14390  10.792   2.458  12.882
46061W        W14391  39.323  13.735  14.015
46062W        W14392   6.721  15.805  10.989
46063W        W14393  43.488   0.312   3.377
46064W        W14394  25.598   5.693  14.946
46065W        W14395  22.133  30.467  11.574
46066W        W14396  10.860  22.653  11.514
46067W        W14397   6.696  32.919  12.421
46068W        W14398   2.722  42.331   0.832
46069W        W14399   0.779  19.572   4.168
46070W        W14400   8.867  12.206   0.309
46071W        W14401  14.178   4.386  11.915
46072W        W14402  42.785   4.906  14.903
46073W        W14403  39.551  30.466   3.779
46074W        W14404  33.457  39.005   4.655
46075W        W14405  38.430  15.748   3.789
46076W        W14406  23.058  32.503   2.847
46077W        W14407  20.536  21.213   5.101
46078W        W14408  12.196  43.407  14.482
46079W        W14409  10.658  42.861   3.268
46080W        W14410   3.250  23.598  13.915
46081W        W14411  25.624  21.558   2.231
46082W        W14412  35.930  18.557  10.546
46083W        W14413  40.026   5.806  13.353
46084W        W14414  24.542  33.415   0.350
46085W        W14415  42.348  38.492   3.734
46086W        W14416  39.913  36.427  12.460
46087W        W14417   2.905   9.857   1.871
46088W        W14418   2.422  41.519  10.078
46089W        W14419  18.063   7.780   3.208
46090W        W14420  14.188  29.453  14.490
46091W        W14421  42.027  37.400  14.458
46092W        W14422  40.439   3.273   1.913
46093W        W14423  42.351  26.156  13.428
46094W        W14424  43.486  31.432  12.409
46095W        W14425  10.224  24.680  12.848
46096W        W14426  35.985  14.791  10.934
46097W        W14427  36.358   7.809   2.902
46098W        W14428   6.240  26.686   3.272
46099W        W14429  21.599   4.835  11.882
46100W        W14430   9.779  27.620  13.544
46101W        W14431  34.377  44.298   1.246
46102W        W14432  44.270  14.192  14.491
46103W        W14433  42.792  39.390  14.003
46104W        W14434  32.128  39.443   0.868
46105W        W14435  37.894  17.105   3.663
46106W        W14436  29.017  26.117  12.525
46107W        W14437   1.783  17.259   4.634
46108W        W14438   1.316  19.057   2.382
46109W        W14439  41.510  39.509   0.382
46110W        W14440  31.562   1.250  14.409
46111W        W14441   1.771  42.011  14.925
46112W        W14442  38.844  30.652   1.808
46113W        W14443  18.210  31.056  13.370
46114W        W14444  22.057  10.817   5.115
46115W        W14445  27.197  33.458   2.326
46116W        W14446  34.378  38.369  10.603
46117W        W14447  26.086   6.679   4.350
46118W        W14448  19.674  35.940  10.466
46119W        W14449  18.054  34.615   3.738
46120W        W14450  41.358   1.892  12.499
46121W        W14451  25.578  16.195  13.391
46122W        W14452  36.891   3.712   2.864
46123W        W14453  36.981   0.348   3.738
46124W        W14454  37.480  10.772   0.422
46125W        W14455   7.194   7.833  13.014
46126W        W14456   0.744  44.353  12.538
46127W        W14457   7.825  24.213   3.791
46128W        W14458  39.986  10.335   0.809
46129W        W14459  35.522   3.273   2.179
46130W        W14460  10.304  31.620  13.453
46131W        W14461  26.481  43.283   4.263
46132W        W14462   1.770   3.328  12.869
46133W        W14463  31.026  44.884  14.325
46134W        W14464  29.587  29.926  13.060
46135W        W14465  18.668  31.061  14.485
46136W        W14466  40.486   5.322   9.949
46137W        W14467   4.933  43.971   3.366
46138W        W14468  32.440  25.018  14.342
46139W        W14469  28.929  21.521  12.395
46140W        W14470  18.050  37.446   0.901
46141W        W14471  12.785  27.615   0.863
46142W        W14472  16.772   4.244   4.720
46143W        W14473   3.408  38.844   4.642
46144W        W14474  44.422  12.358  14.031
46145W        W14475  24.631  41.415  14.320
46146W        W14476  20.712  11.819  14.793
46147W        W14477   4.938  42.988   0.820
46148W        W14478  38.435   3.425   2.216
46149W        W14479  34.592  17.194  12.979
46150W        W14480   2.731  15.670  13.886
46151W        W14481  34.014   4.392   2.885
46152W        W14482  31.644   6.841  10.475
46153W        W14483  10.690  20.150   3.375
46154W        W14484   6.315  43.988  13.464
46155W        W14485   8.709   2.753   1.841
46156W        W14486  16.281   4.879   3.806
46157W        W14487  16.635  31.005  12.367
46158W        W14488  32.395  14.804  13.829
46159W        W14489  38.021  17.155   4.353
46160W        W14490   1.771  11.132  14.929
46161W        W14491  41.974  30.596  12.986
46162W        W14492  27.568  22.738  13.386
46163W        W14493  23.996   5.246  14.281
46164W        W14494  28.590  13.615   3.754
46165W        W14495   0.840  31.150  14.817
46166W        W14496   6.361  16.621  10.630
46167W        W14497  10.218  31.915  13.427
46168W        W14498  30.939  34.561   4.740
46169W        W14499  12.251  29.923  14.883
46170W        W14500   7.238  40.958   1.723
46171W        W14501  26.655  40.544  10.431
46172W        W14502  38.009  14.227  11.992
46173W        W14503  34.919  34.429  12.076
46174W        W14504  18.696   0.305   3.697
46175W        W14505   9.222  26.129   4.662
46176W        W14506  19.768  10.204   3.309
46177W        W14507  34.493   1.385  13.504
46178W        W14508  36.912  14.598   3.230
46179W        W14509  25.685  14.632  14.312
46180W        W14510  13.797   4.739   2.274
46181W        W14511  17.098  20.080  11.018
46182W        W14512   7.320  28.617  10.509
46183W        W14513  34.111  32.916  13.491
46184W        W14514  34.059  23.717   3.845
46185W        W14515  26.132  14.328  13.897
46186W        W14516  41.464  11.703  13.362
46187W        W14517  23.650   0.892   1.863
46188W        W14518  34.964   6.193   0.451
46189W        W14519  17.615  13.203  14.933
46190W        W14520  39.386  26.036  13.348
46191W        W14521  13.147  20.685   1.904
46192W        W14522  20.727  15.150  11.984
46193W        W14523  21.057  30.136   2.272
46194W        W14524  38.999   2.365   0.820
46195W        W14525  34.096  18.774  10.925
46196W        W14526  36.579   8.715   2.214
46197W        W14527  30.499   7.354  11.013
46198W        W14528  26.141  41.484  11.454
46199W        W14529  29.608  44.977   0.305
46200W        W14530   2.873  38.376   3.731
46201W        W14531  18.575  25.580   1.430
46202W        W14532  22.091  36.414   4.768
46203W        W14533  19.112  15.085   0.852
46204W        W14534  39.837  31.600   0.319
46205W        W14535  14.235  35.564  12.567
46206W        W14536   6.743  40.322   2.396
46207W        W14537  23.990  41.878  12.061
46208W        W14538  29.504  36.082  10.463
46209W        W14539   6.754  28.660  10.470
46210W        W14540  28.930  14.302  14.403
46211W        W14541  26.658  30.096  13.931
46212W        W14542   7.340  34.083   2.715
46213W        W14543  32.069  32.518  12.910
46214W        W14544  25.692  14.106  13.506
46215W        W14545  44.806  20.555   0.858
46216W        W14546  32.396  35.937   3.728
46217W        W14547  25.539  16.131  10.591
46218W        W14548  36.076  19.577   4.268
46219W        W14549  42.900  16.260  12.009
46220W        W14550  16.803  30.512   2.754
46221W        W14551  44.327   8.724  14.896
46222W        W14552  16.798   9.268  10.890
46223W        W14553  36.863   7.178  10.632
46224W        W14554   6.313  43.764   3.217
46225W        W14555   4.748   7.334   2.327
46226W        W14556  29.459  15.729   0.865
46227W        W14557  36.534  39.063  13.481
46228W        W14558  38.902  12.700   2.259
46229W        W14559  15.655   3.459  11.089
46230W        W14560  44.874   0.448  13.011
46231W        W14561   2.320  29.995   4.645
46232W        W14562  26.104  29.983  11.887
46233W        W14563  18.104  26.696  14.814
46234W        W14564   7.910  11.179  14.282
46235W        W14565  44.455  35.107  13.324
46236W        W14566  19.595   8.384  14.398
46237W        W14567  26.016  28.502   3.337
46238W        W14568  10.282  12.735   3.686
46239W        W14569   8.194  39.840   2.340
46240W        W14570  39.811  20.540   2.679
46241W        W14571  43.014   9.849  11.483
46242W        W14572  24.088  15.285  14.927
46243W        W14573  32.500  32.408  14.820
46244W        W14574  11.347  41.493   4.155
46245W        W14575  21.246  38.971  14.348
46246W        W14576  22.630  14.241  11.424
46247W        W14577  25.017  41.494  10.560
46248W        W14578  25.468  29.618   0.391
46249W        W14579  16.772  17.727   1.230
46250W        W14580  11.316   6.227  11.872
46251W        W14581  25.023  10.796   2.800
46252W        W14582  25.033  35.101   0.863
46253W        W14583  42.886  17.304  11.522
46254W        W14584  16.643   5.306  14.508
46255W        W14585   8.730  29.527  13.840
46256W        W14586  24.680   0.840   4.748
46257W        W14587  19.266   4.446   2.696
46258W        W14588   6.257   3.230  14.027
46259W        W14589  40.915  24.500   4.779
46260W        W14590  20.117  38.523   0.910
46261W        W14591  29.595   6.243   5.125
46262W        W14592  41.830  21.225  11.456
46263W        W14593  27.995  18.176  14.989
46264W        W14594  31.634  13.702   1.755
46265W        W14595  24.160  32.013  10.964
46266W        W14596  42.321  25.084  13.024
46267W        W14597  25.972   1.966  10.948
46268W        W14598  29.084  17.729  14.289
46269W        W14599  18.775  31.421   0.822
46270W        W14600  30.459  29.497   0.822
46271W        W14601  19.231  33.938  10.540
46272W        W14602   1.845  21.228  13.513
46273W        W14603  43.869  37.057   2.297
46274W        W14604  38.899  27.074  14.297
46275W        W14605  10.196   5.313  10.615
46276W        W14606  34.527  29.167   1.234
46277W        W14607  41.893   5.404   0.362
46278W        W14608  16.804  39.323  13.902
46279W        W14609  17.795   8.222   1.273
46280W        W14610  41.501  26.956  14.792
46281W        W14611  20.567  15.641   1.260
46282W        W14612  33.901  32.619   3.818
46283W        W14613  16.138   7.821  13.822
46284W        W14614  13.310  35.449  14.283
46285W        W14615  37.540  16.748   3.841
46286W        W14616  38.846   6.313   3.845
46287W        W14617  38.926  28.117   2.792
46288W        W14618  10.144  33.951   0.324
46289W        W14619  16.785  19.700  13.485
46290W        W14620  31.593  27.508  13.882
46291W        W14621   8.750   3.241  12.835
46292W        W14622  38.860   8.681   9.967
46293W        W14623  44.823  20.117   2.377
46294W        W14624  18.655  27.588  14.443
46295W        W14625  24.209  21.660   3.772
46296W        W14626  30.135   0.867  10.447
46297W        W14627  39.867  23.986  13.009
46298W        W14628  24.629  26.494   1.920
46299W        W14629   4.917  25.149  11.050
46300W        W14630   7.214  27.945  12.538
46301W        W14631  29.112   4.395  13.531
46302W        W14632   1.286  38.344   0.340
46303W        W14633  17.621  33.456   4.687
46304W        W14634  40.023  14.676  10.908
46305W        W14635  31.559  27.627  12.346
46306W        W14636  14.297  43.913   0.333
46307W        W14637  36.914  40.330  11.552
46308W        W14638  35.601  35.567  14.483
46309W        W14639  19.691  19.540  14.918
46310W        W14640  11.140  36.585   0.846
46311W        W14641  18.078   1.460  12.845
46312W        W14642   9.888  33.022  13.392
46313W        W14643  27.683  33.582  13.893
46314W        W14644  12.668  23.055   3.348
46315W        W14645  12.616  20.637   4.338
46316W        W14646   5.198  16.105   4.143
46317W        W14647  27.454  42.391  11.537
46318W        W14648  18.771   4.836  11.468
46319W        W14649  17.267  38.505  13.968
46320W        W14650  18.261  24.566  12.467
46321W        W14651  36.578  43.877  11.028
46322W        W14652   4.830  37.426   1.920
46323W        W14653  19.775  11.273  12.539
46324W        W14654   7.357  38.826   0.739
46325W        W14655  33.379  24.624   2.279
46326W        W14656   6.850  22.587   1.710
46327W        W14657   5.698   5.780   4.615
46328W        W14658  24.114  41.327   4.190
46329W        W14659  39.383   0.346  11.578
46330W        W14660  31.623   8.170  13.861
46331W        W14661  41.977  34.104   1.279
46332W        W14662  16.294  29.927   2.254
46333W        W14663   4.839   1.347   2.350
46334W        W14664  24.713  24.653   3.641
46335W        W14665  40.847  10.274   1.411
46336W        W14666  10.351  15.706   3.818
46337W        W14667  36.891  31.013   3.186
46338W        W14668  23.619   6.859  13.952
46339W        W14669   8.668  43.858   2.816
46340W        W14670  15.793  44.848  12.475
46341W        W14671   9.802  42.815   2.357
46342W        W14672  10.299  34.101  13.486
46343W        W14673   5.851   1.921   3.833
46344W        W14674  19.576   0.894   4.626
46345W        W14675  23.504  26.023  14.759
46346W        W14676  13.130  31.459   2.779
46347W        W14677   4.772   6.191  10.000
46348W        W14678   4.814  20.060   4.206
46349W        W14679  44.459  26.527  10.039
46350W        W14680  22.670  44.904   3.309
46351W        W14681  39.926  30.578  13.424
46352W        W14682  31.459  29.084  10.935
46353W        W14683  41.840   2.862   0.284
46354W        W14684  33.118  20.189  10.983
46355W        W14685  32.411  11.135   4.179
46356W        W14686  19.562   1.271   1.872
46357W        W14687  29.612  31.054   3.226
46358W        W14688  24.041   7.258  11.076
46359W        W14689  40.895  28.147  13.919
46360W        W14690  32.946   5.824   3.755
46361W        W14691  18.141  34.531  11.574
46362W        W14692  31.503  42.806  14.288
46363W        W14693  18.091   7.400  13.337
46364W        W14694  33.912  44.969  12.997
46365W        W14695  34.472  19.559   4.803
46366W        W14696  25.092  35.404  13.522
46367W        W14697   3.762  17.205   2.751
46368W        W14698  23.180  21.060   4.292
46369W        W14699  10.305  20.148   3.267
46370W        W14700  22.183  14.245   0.928
46371W        W14701  38.037   3.314   2.352
46372W        W14702  17.091  18.144   0.950
46373W        W14703  25.055  20.738  14.311
46374W        W14704  42.975  28.932  10.472
46375W        W14705  13.330   4.413   2.196
46376W        W14706  26.000  16.619   0.434
46377W        W14707  42.005  13.307   3.155
46378W        W14708  10.773   3.858   0.418
46379W        W14709  18.637  14.245  13.003
46380W        W14710   5.270  29.976   1.327
46381W        W14711  40.821  32.934   4.802
46382W        W14712  23.070  28.183   4.191
46383W        W14713  24.608   9.697  13.529
46384W        W14714  30.123  26.635  10.129
46385W        W14715  26.513  15.588   0.268
46386W        W14716   6.374   8.896  11.945
46387W        W14717  44.483  13.615  10.596
46388W        W14718  26.513  38.997   1.909
46389W        W14719  25.636  32.141  11.477
46390W        W14720  17.060  42.011   1.909
46391W        W14721   4.716   4.812   3.681
46392W        W14722  44.859   2.906  12.878
46393W        W14723  38.976  22.739  12.892
46394W        W14724  28.120  11.703  12.077
46395W        W14725  19.044  11.217   2.315
46396W        W14726  37.347  42.498   2.776
46397W        W14727  26.475  21.117  13.421
46398W        W14728   2.839  11.184  14.849
46399W        W14729  27.136   7.382  11.567
46400W        W14730   7.690  11.212   2.696
46401W        W14731  38.412  23.030  13.545
46402W        W14732  21.544  20.681   0.338
46403W        W14733  44.293  34.893   1.796
46404W        W14734   6.864   3.442   3.713
46405W        W14735  34.569  42.806   3.237
46406W        W14736  10.382  26.038  14.925
46407W        W14737  14.122  21.633  12.002
46408W        W14738  12.331  42.794  13.924
46409W        W14739  40.826  26.500   1.368
46410W        W14740  38.963  18.772   1.360
46411W        W14741   4.771  19.668   2.382
46412W        W14742  25.691  13.842   0.728
46413W        W14743  39.460  35.519  13.440
46414W        W14744  33.046  20.072  11.381
46415W        W14745  35.883  42.031   0.922
46416W        W14746  27.121  38.361  12.831
46417W        W14747  42.020  16.200  13.468
46418W        W14748  14.749   0.276  10.580
46419W        W14749  19.608  20.629  14.937
46420W        W14750  28.959  24.543  14.402
46421W        W14751  43.360  27.036  13.024
46422W        W14752  22.058  39.916   3.198
46423W        W14753  16.295   2.930  13.501
46424W        W14754  19.253  44.364  11.021
46425W        W14755  23.679   2.348   0.873
46426W        W14756   3.742  38.521  12.533
46427W        W14757  40.368   4.364  11.488
46428W        W14758  44.388  19.546  12.070
46429W        W14759  18.181  28.491   3.376
46430W        W14760  39.027  28.595  14.466
46431W        W14761  31.082   5.867   1.704
46432W        W14762  15.696   0.985   0.754
46433W        W14763  22.629  21.055  12.344
46434W        W14764  26.573  30.090  10.635
46435W        W14765  38.521  30.001   2.236
46436W        W14766   9.835  17.623   3.286
46437W        W14767  20.702  27.973   4.690
46438W        W14768  36.410  44.856  14.829
46439W        W14769  22.637  10.345  12.939
46440W        W14770  12.756  41.524  11.102
46441W        W14771  38.510  32.131   2.405
46442W        W14772  21.514  36.994  14.986
46443W        W14773   4.896  23.594  12.948
46444W        W14774   5.791   1.415  11.009
46445W        W14775  36.018   0.875   2.333
46446W        W14776  12.617  10.720  13.537
46447W        W14777  38.962  33.497  14.788
46448W        W14778  38.960  28.022   3.287
46449W        W14779   3.387  25.484  14.289
46450W        W14780  20.044   7.322   4.779
46451W        W14781   3.368   5.201   4.755
46452W        W14782   1.936  31.403  11.418
46453W        W14783  13.750  15.115   4.270
46454W        W14784  44.872  11.782   4.290
46455W        W14785  25.010  34.574  11.003
46456W        W14786   0.430  28.615  10.502
46457W        W14787   0.349  44.859   1.883
46458W        W14788  23.638  33.444   2.256
46459W        W14789  12.174   1.383   0.857
46460W        W14790  40.832  38.396  13.827
46461W        W14791   3.273  14.181  11.401
46462W        W14792   2.412  15.618   2.858
46463W        W14793  26.549  38.422   9.965
46464W        W14794  10.643  27.552   4.270
46465W        W14795  10.327  16.123  12.899
46466W        W14796  20.189  16.765  11.481
46467W        W14797   6.275  35.982   9.946
46468W        W14798   8.719  19.194   1.775
46469W        W14799  37.860   1.756  11.454
46470W        W14800  41.510   2.950   3.865
46471W        W14801  28.605  27.641  10.938
46472W        W14802   7.385  20.701  11.507
46473W        W14803  15.193  31.084  13.859
46474W        W14804  38.474  18.064   4.658
46475W        W14805  14.619  39.019   2.238
46476W        W14806  16.203  13.751   1.794
46477W        W14807  30.598  40.535  10.609
46478W        W14808  36.494  44.268  11.535
46479W        W14809   7.790   7.245  11.548
46480W        W14810   4.289  38.424   0.883
46481W        W14811  44.854  18.721  13.950
46482W        W14812   8.750  17.259   3.276
46483W        W14813  35.928  17.228  11.537
46484W        W14814  31.423  26.054   2.331
46485W        W14815   6.379  33.076   3.735
46486W        W14816  36.354  38.991   3.255
46487W        W14817  35.017  35.934  10.019
46488W        W14818  22.084  43.881   1.742
46489W        W14819  27.600  17.682  12.031
46490W        W14820  32.488   7.844   4.661
46491W        W14821   5.278  44.447   2.699
46492W        W14822  37.860   8.366  13.384
46493W        W14823  34.450   5.868  13.985
46494W        W14824  15.297  32.966   0.278
46495W        W14825  44.309  16.622   1.428
46496W        W14826   5.706  13.264   3.854
46497W        W14827  11.699  37.938  11.894
46498W        W14828  37.554  29.982  13.439
46499W        W14829   6.424  30.109   2.261
46500W        W14830   9.170  40.415  13.461
46501W        W14831  38.885   2.933  10.506
46502W        W14832   2.396  15.688   0.862
46503W        W14833   0.368  14.310   2.731
46504W        W14834  22.661  10.377  10.611
46505W        W14835  12.822  25.582  14.817
46506W        W14836  42.031  31.644  14.021
46507W        W14837  37.921  38.335  14.401
46508W        W14838  26.093  37.557   2.826
46509W        W14839   7.220  34.054  14.446
46510W        W14840  26.615  10.377   9.572
46511W        W14841   7.823   4.314  14.445
46512W        W14842  10.295  15.635  11.522
46513W        W14843  38.022  42.967   3.308
46514W        W14844   8.808  26.041   1.722
46515W        W14845  33.413  20.742  13.990
46516W        W14846   7.844  41.536  11.534
46517W        W14847   7.254  35.918   3.635
46518W        W14848   2.892  42.479   4.670
46519W        W14849   6.398  16.085  14.300
46520W        W14850   1.240  32.442  11.952
46521W        W14851  24.167  32.450   3.838
46522W        W14852   2.434  28.966   3.168
46523W        W14853   2.289  31.062  14.275
46524W        W14854  32.003  17.132  14.308
46525W        W14855  14.193  16.657   3.286
46526W        W14856  11.182  13.723  14.409
46527W        W14857  38.466  36.042  13.473
46528W        W14858  21.554  22.665   3.359
46529W        W14859  29.622  38.947   0.411
46530W        W14860  36.059   3.884  10.626
46531W        W14861   5.857  39.467  13.448
46532W        W14862   8.657  34.109  13.876
46533W        W14863  25.991  15.717   4.299
46534W        W14864   1.342  12.244  13.931
46535W        W14865   8.854   7.271  14.466
46536W        W14866  31.145   1.871   0.436
46537W        W14867  16.590  18.287  14.971
46538W        W14868  23.053  41.926  13.360
46539W        W14869  25.962  31.032   4.254
46540W        W14870  28.954  16.227  10.491
46541W        W14871  21.251  31.148   2.866
46542W        W14872  22.094  18.572   4.152
46543W        W14873  41.333  37.950  14.946
46544W        W14874  16.806  16.114   2.249
46545W        W14875  34.505  26.197  11.876
46546W        W14876  29.623  44.011   3.199
46547W        W14877  30.635  19.766  12.864
46548W        W14878  40.428  29.967  13.480
46549W        W14879  40.814  36.445  13.398
46550W        W14880  24.206  34.601   9.952
46551W        W14881  13.602   7.340  11.081
46552W        W14882  29.591   8.276  11.888
46553W        W14883  29.582  29.639   2.878
46554W        W14884  18.740  37.442   3.287
46555W        W14885  30.636   2.860  13.999
46556W        W14886  35.540   4.402   2.814
46557W        W14887  17.783   7.824  10.635
46558W        W14888  39.503   9.285   4.193
46559W        W14889   9.761  37.338  10.005
46560W        W14890  39.946  28.066  13.320
46561W        W14891  20.263  12.634  10.593
46562W        W14892  38.379  42.522   0.864
46563W        W14893   2.414  22.112  14.974
46564W        W14894  28.584  10.181  11.500
46565W        W14895  40.838  30.991   4.693
46566W        W14896   4.758  33.546   0.453
46567W        W14897  15.694  41.927   4.124
46568W        W14898  21.063  18.660   3.644
46569W        W14899  43.014  30.652  13.534
46570W        W14900  33.523  23.704   2.812
46571W        W14901  37.432  12.796   0.864
46572W        W14902  15.794   0.964   1.871
46573W        W14903   5.786  15.182  13.327
46574W        W14904  43.496  18.604   3.214
46575W        W14905  32.556   0.871  10.124
46576W        W14906  28.952  25.179  12.059
46577W        W14907   0.909  37.427  12.575
46578W        W14908   7.879  25.620  11.377
46579W        W14909  20.598  35.993  13.862
46580W        W14910  31.403  43.271   1.262
46581W        W14911   3.415  33.604  12.978
46582W        W14912  36.565  16.640   4.307
46583W        W14913  43.018  22.623  13.424
46584W        W14914   0.774  10.337   2.742
46585W        W14915  40.496   2.380  12.487
46586W        W14916  43.387  43.012   0.395
46587W        W14917  14.167  17.742   1.828
46588W        W14918   3.720   1.893   1.790
46589W        W14919  44.841  31.431  14.397
46590W        W14920  34.968  28.044   5.214
46591W        W14921  14.641  29.113   0.276
46592W        W14922   6.690  20.746   0.403
46593W        W14923   0.405   2.290   0.338
46594W        W14924  39.339  32.031   2.187
46595W        W14925  18.066  25.151   3.843
46596W        W14926  40.446  42.490   0.941
46597W        W14927  37.985  10.794   4.215
46598W        W14928   5.837  30.533  14.808
46599W        W14929   3.367   2.727   2.679
46600W        W14930  28.586  39.956   0.389
46601W        W14931  42.929  13.747   0.817
46602W        W14932   9.167   8.760  14.907
46603W        W14933  44.824  21.725   1.920
46604W        W14934  21.073   3.324  13.020
46605W        W14935  28.179  11.208   3.679
46606W        W14936  33.380  33.909   3.635
46607W        W14937  28.078   6.706   4.298
46608W        W14938  15.693  39.997   3.277
46609W        W14939  21.613  38.448   4.177
46610W        W14940  19.062  42.324   2.727
46611W        W14941  37.530  31.905   0.938
46612W        W14942  43.276  41.512   4.178
46613W        W14943  43.365   8.785  14.777
46614W        W14944   7.714  22.665  14.451
46615W        W14945  18.265  26.007   0.841
46616W        W14946  27.672  24.482  13.419
46617W        W14947  22.590  11.790  14.773
46618W        W14948   2.919   2.421  11.402
46619W        W14949   7.182  10.710  12.861
46620W        W14950  36.989   7.401  14.933
46621W        W14951  28.674  36.412  10.997
46622W        W14952  14.732   3.938   3.767
46623W        W14953   5.387  23.001  11.976
46624W        W14954  44.764   6.682   1.914
46625W        W14955   0.984   3.410  11.113
46626W        W14956  20.188  38.819  12.016
46627W        W14957  26.594  35.506   3.263
46628W        W14958  44.493  38.981   2.341
46629W        W14959  32.567  32.531   0.959
46630W        W14960  10.203  32.522  11.001
46631W        W14961  43.291   4.924  12.544
46632W        W14962  13.665  32.534   0.799
46633W        W14963  42.886  10.316   0.769
46634W        W14964  43.775  22.111   0.306
46635W        W14965  37.902  43.409  14.299
46636W        W14966  41.814  14.249   4.241
46637W        W14967  43.509  26.981  12.397
46638W        W14968   8.283  44.435   2.389
46639W        W14969  35.088  44.280  12.388
46640W        W14970  16.639  36.864  12.568
46641W        W14971   4.814  34.103   4.760
46642W        W14972  39.893  10.318  11.439
46643W        W14973  33.928  41.985   2.899
46644W        W14974   1.785  40.856  14.480
46645W        W14975  40.953  13.700   1.220
46646W        W14976  26.614  41.952   0.327
46647W        W14977   4.866  34.910   4.325
46648W        W14978  10.727  21.128   1.740
46649W        W14979   4.294  25.668  10.491
46650W        W14980  24.070   3.445   5.170
46651W        W14981   4.923  13.795  13.876
46652W        W14982  28.111  31.596  14.411
46653W        W14983  13.685  18.770  12.956
46654W        W14984  18.651  25.057  14.409
46655W        W14985   7.298   2.727   0.812
46656W        W14986  11.152  41.491  12.053
46657W        W14987  17.279  34.922   3.236
46658W        W14988  14.793   6.718  13.945
46659W        W14989  44.971  25.533  14.390
46660W        W14990  40.387  23.727   0.280
46661W        W14991   7.689  25.198  14.419
46662W        W14992  27.690  33.079  12.544
46663W        W14993  27.493  11.713  12.922
46664W        W14994  35.439  15.182   3.746
46665W        W14995   0.300   3.292   4.805
46666W        W14996   8.352   4.244   3.743
46667W        W14997  19.646  22.126  12.968
46668W        W14998   0.426  26.626  13.424
46669W        W14999   4.834  28.116   2.230
46670W        W15000  43.343  26.198   1.875
46671W        W15001  26.527   1.954  14.302
46672W        W15002  30.569  21.172   0.355
46673W        W15003   0.842   8.795  11.101
46674W        W15004  24.190  33.427  12.826
46675W        W15005  22.212   5.750  14.810
46676W        W15006  40.515  16.651   1.414
46677W        W15007  40.050  26.619  11.867
46678W        W15008  22.089  16.189  12.364
46679W        W15009  20.667  16.253  14.474
46680W        W15010  44.808   2.427  13.982
46681W        W15011   0.869  28.495   0.844
46682W        W15012  14.715   7.687   0.449
46683W        W15013  21.018  18.660  10.581
46684W        W15014  36.097  29.940   2.856
46685W        W15015   0.988  29.010  11.397
46686W        W15016  18.108  24.652   4.763
46687W        W15017  19.587  20.081  12.504
46688W        W15018   1.927  21.028  14.294
46689W        W15019   9.721  43.827  10.443
46690W        W15020  22.133   3.888   3.784
46691W        W15021  11.818  35.852   3.834
46692W        W15022   6.922  24.186  12.882
46693W        W15023  43.478   7.802  11.860
46694W        W15024  19.731  36.351   4.277
46695W        W15025  18.179   3.947   3.703
46696W        W15026  43.501  27.482  13.905
46697W        W15027  37.438   3.254   0.426
46698W        W15028   3.938  12.151   1.749
46699W        W15029  34.976   9.654   2.258
46700W        W15030  27.594  35.933  12.916
46701W        W15031  23.630  14.183   0.843
46702W        W15032  17.246  37.943   0.420
46703W        W15033  14.329   9.753  12.870
46704W        W15034  12.856  39.853   0.810
46705W        W15035  10.360  15.111   2.293
46706W        W15036  34.603   1.924   0.843
46707W        W15037  11.681  29.457   3.776
46708W        W15038  23.566  23.614  11.876
46709W        W15039  26.647  14.200   4.637
46710W        W15040   8.215  31.469   2.301
46711W        W15041   1.260   7.833  11.498
46712W        W15042   2.424  37.363   2.696
46713W        W15043  31.617   5.345   0.899
46714W        W15044  35.394   8.314  10.570
46715W        W15045  13.655   9.317   4.666
46716W        W15046  10.677  24.606   3.192
46717W        W15047  15.703   3.767   3.199
46718W        W15048  33.128   4.222   1.815
46719W        W15049  19.169  26.981   0.260
46720W        W15050  36.396   3.301  12.846
46721W        W15051  32.984  11.313   0.967
46722W        W15052  22.226  37.342   3.371
46723W        W15053  12.185  41.856   1.918
46724W        W15054  18.085  30.076  14.461
46725W        W15055  33.069  26.499   3.360
46726W        W15056  44.336  32.973  11.576
46727W        W15057  29.611  41.907  14.766
46728W        W15058  37.498  43.276   0.445
46729W        W15059  10.325  14.719   2.865
46730W        W15060  14.215  16.226   0.427
46731W        W15061  40.324  41.403  11.440
46732W        W15062  18.281  31.575  13.026
46733W        W15063  15.812  11.160   2.714
46734W        W15064   4.728  34.522  11.603
46735W        W15065  21.742   4.840   0.770
46736W        W15066  40.493  17.756   3.848
46737W        W15067   0.809  22.106   4.625
46738W        W15068  32.624  10.639  12.396
46739W        W15069  11.167  37.497   2.203
46740W        W15070   1.905  11.764  12.513
46741W        W15071  16.604  16.144  13.899
46742W        W15072  16.180  34.973  12.942
46743W        W15073  25.614  26.658  12.341
46744W        W15074  10.845  32.099  12.366
46745W        W15075  14.155  43.813  13.514
46746W        W15076  32.956   7.236   0.359
46747W        W15077  39.850  37.860   1.434
46748W        W15078  10.280  44.899  11.990
46749W        W15079  34.519  35.022  11.892
46750W        W15080   9.161  25.616  12.872
46751W        W15081  25.018   8.356  13.802
46752W        W15082   7.380  14.191  14.293
46753W        W15083   3.734   4.334  11.973
46754W        W15084  38.462  25.986   1.309
46755W        W15085   4.345   6.806  14.434
46756W        W15086   6.362   4.917  12.546
46757W        W15087  36.378  32.620  11.040
46758W        W15088  20.594  25.568  14.307
46759W        W15089  28.962  11.276   4.316
46760W        W15090  44.978  28.062  13.963
46761W        W15091  33.459  42.325   3.670
46762W        W15092  15.736  27.030  11.980
46763W        W15093  44.318   3.731   3.168
46764W        W15094  10.259  30.649   1.264
46765W        W15095   3.334  13.227  12.949
46766W        W15096  39.444  44.419   3.277
46767W        W15097  20.074  22.057   1.231
46768W        W15098  33.050  36.916   0.244
46769W        W15099  18.177  40.381   1.440
46770W        W15100   2.252   0.847  11.937
46771W        W15101  32.520  11.829   2.720
46772W        W15102  18.735  17.144  13.384
46773W        W15103  20.170  31.424  12.007
46774W        W15104  35.035   4.790  13.505
46775W        W15105  32.462  13.763  13.852
46776W        W15106   2.245   8.674   0.325
46777W        W15107  14.259  38.970  10.438
46778W        W15108   1.889  28.603   0.773
46779W        W15109   7.767  28.097  14.889
46780W        W15110   0.384  23.232  11.111
46781W        W15111  26.514  42.959   1.864
46782W        W15112  19.060   3.312   1.916
46783W        W15113  38.350  10.841  14.408
46784W        W15114  17.212  21.036   1.736
46785W        W15115  13.677  16.160  11.395
46786W        W15116  29.542  40.310   4.823
46787W        W15117   1.236   9.817   2.395
46788W        W15118  41.480  43.784   4.154
46789W        W15119  10.734  20.727   2.283
46790W        W15120  34.996  37.063  11.384
46791W        W15121  24.099  17.228  10.611
46792W        W15122   4.211   2.444  12.851
46793W        W15123  33.877   5.386  11.436
46794W        W15124  10.310  13.742  13.945
46795W        W15125   1.776  42.020   2.703
46796W        W15126  32.036   9.792  13.903
46797W        W15127  18.589   4.808   0.267
46798W        W15128  16.615  28.099   3.662
46799W        W15129  42.821  30.969   0.923
46800W        W15130  32.082  26.970  12.990
46801W        W15131  36.960  24.189  10.627
46802W        W15132   3.400  11.352   4.318
46803W        W15133  41.989  42.818  14.432
46804W        W15134  11.179  22.096   1.794
46805W        W15135  17.103  39.017   4.183
46806W        W15136  30.131  17.615  12.902
46807W        W15137  13.694  38.073  12.562
46808W        W15138   1.764  23.059   1.296
46809W        W15139  19.279  28.528   5.123
46810W        W15140  28.594  15.183   1.359
46811W        W15141  32.942  29.609   4.238
46812W        W15142   5.415  25.000  12.427
46813W        W15143  14.747  19.671  13.914
46814W        W15144  16.306  28.046  12.340
46815W        W15145  28.580  32.602   3.786
46816W        W15146  13.733  41.404  10.556
46817W        W15147  26.067  40.328   4.346
46818W        W15148  39.522   9.749  13.389
46819W        W15149  17.077  33.615  11.127
46820W        W15150  13.711  13.185   3.787
46821W        W15151  40.983  25.664  11.579
46822W        W15152  37.860  16.600   1.219
46823W        W15153  13.106   0.251   2.733
46824W        W15154  37.578  19.536   1.271
46825W        W15155  15.819  19.539   4.670
46826W        W15156  33.603  13.245  12.004
46827W        W15157  22.082   6.923  14.879
46828W        W15158  35.022   6.792  11.481
46829W        W15159  39.472   8.732  14.321
46830W        W15160  13.665  34.511   2.269
46831W        W15161  27.001  16.299  11.968
46832W        W15162  20.196  38.528  10.612
46833W        W15163  44.421  37.436   1.772
46834W        W15164  40.039   8.371  12.855
46835W        W15165   6.797  43.019   3.805
46836W        W15166  27.052  13.183   4.798
46837W        W15167  35.026  25.573   2.200
46838W        W15168   9.244   2.440  14.349
46839W        W15169  19.700  34.951   5.280
46840W        W15170  30.987  22.682   5.776
46841W        W15171  26.701  27.171  11.433
46842W        W15172   8.238  14.271  13.357
46843W        W15173   4.742  22.590  13.473
46844W        W15174  27.460  42.030  12.079
46845W        W15175  25.988   0.980  13.802
46846W        W15176  38.328   1.350   3.324
46847W        W15177  36.093  39.511  13.509
46848W        W15178  37.404  30.159  12.450
46849W        W15179  44.477  24.085   4.315
46850W        W15180  32.480  21.118   4.238
46851W        W15181  40.420   7.762  10.999
46852W        W15182  40.366  39.971  14.896
46853W        W15183  14.178  12.340   2.759
46854W        W15184   6.792  31.558   1.787
46855W        W15185  43.445  41.486  11.573
46856W        W15186  19.192  22.519  11.421
46857W        W15187  41.010  11.813  11.468
46858W        W15188  30.522   8.360   3.829
46859W        W15189  27.565  38.404   0.415
46860W        W15190  39.338   7.316  12.963
46861W        W15191  20.762   0.355   3.259
46862W        W15192  11.836  31.965   9.950
46863W        W15193  17.153  28.522  10.504
46864W        W15194  24.208  24.075   4.606
46865W        W15195  10.678  22.007   4.703
46866W        W15196  31.120  38.076   4.761
46867W        W15197  28.043  11.246  14.802
46868W        W15198   7.782  28.987   4.654
46869W        W15199  22.102  27.579   5.618
46870W        W15200  34.534   3.236  14.290
46871W        W15201  40.346  17.290   2.311
46872W        W15202  37.038  29.046   0.257
46873W        W15203  44.328  24.703  11.587
46874W        W15204  28.170   6.263  14.778
46875W        W15205  10.307  31.055   2.683
46876W        W15206  19.216  35.572   2.831
46877W        W15207  31.514  40.004   0.424
46878W        W15208  13.298  16.595  13.810
46879W        W15209  19.703   2.394  11.065
46880W        W15210  10.202  12.247   2.196
46881W        W15211  32.609  23.166  11.997
46882W        W15212  29.045  37.000  14.847
46883W        W15213  17.669  33.407   3.767
46884W        W15214  22.061  11.183   3.676
46885W        W15215  10.694   8.787   3.152
46886W        W15216  17.581  33.932   0.792
46887W        W15217  39.409  19.584   4.182
46888W        W15218   0.824   7.807   1.738
46889W        W15219  32.909  29.026  14.368
46890W        W15220  33.969  11.243  10.498
46891W        W15221  35.022  43.339  13.435
46892W        W15222  18.231  40.312  12.565
46893W        W15223   9.370   0.943   0.252
46894W        W15224  12.327  28.952  11.103
46895W        W15225  35.499  18.589   0.416
46896W        W15226  40.511  36.496  13.018
46897W        W15227  15.821  41.307   4.331
46898W        W15228  23.709  35.534   1.346
46899W        W15229  34.920  34.054   2.818
46900W        W15230   7.723  14.824  11.500
46901W        W15231  28.104  10.842  10.606
46902W        W15232  34.417   0.494   3.276
46903W        W15233  39.560  19.086   3.778
46904W        W15234  29.659  10.740  14.838
46905W        W15235   6.882  31.586   0.755
46906W        W15236  36.515  15.719   2.667
46907W        W15237  38.976  11.791   0.939
46908W        W15238  29.492  22.250   2.822
46909W        W15239  34.384  15.083   4.251
46910W        W15240  38.388  37.063  12.579
46911W        W15241  28.439   5.341   3.184
46912W        W15242  41.497  42.524   3.182
46913W        W15243  31.473  40.915  13.985
46914W        W15244  19.087  19.209  10.593
46915W        W15245  34.997  31.023   0.898
46916W        W15246  13.682  32.494  13.933
46917W        W15247   8.827  36.407   2.855
46918W        W15248  35.591  33.914  12.045
46919W        W15249  20.122   7.764  12.352
46920W        W15250  10.641  25.972   4.115
46921W        W15251  17.290  36.409  13.362
46922W        W15252  39.976  18.219  11.457
46923W        W15253  27.137  15.734  13.429
46924W        W15254   2.289  14.106   4.237
46925W        W15255  30.634  20.669   1.779
46926W        W15256  15.247  36.995   3.750
46927W        W15257   4.299  19.746   0.243
46928W        W15258  41.920  18.284  12.387
46929W        W15259  26.128  12.744   3.166
46930W        W15260  39.970  27.009  11.395
46931W        W15261  11.764  33.991   3.201
46932W        W15262  23.679   8.178   1.238
46933W        W15263  28.530  38.032  10.505
46934W        W15264  15.291  36.069   4.681
46935W        W15265  11.353  34.508   0.827
46936W        W15266  26.985   1.479   1.228
46937W        W15267  10.308  36.926   1.389
46938W        W15268   7.765   5.246   2.379
46939W        W15269  23.182  36.086  13.389
46940W        W15270  25.695  30.556  13.988
46941W        W15271  21.673  22.146   3.153
46942W        W15272  31.530  24.530  14.499
46943W        W15273  41.467   1.458  14.356
46944W        W15274   4.314  17.201   0.782
46945W        W15275  44.892  38.844  10.620
46946W        W15276   2.390  29.460   1.435
46947W        W15277   6.422   2.365  14.461
46948W        W15278  13.152   2.302  11.986
46949W        W15279  12.280  30.555  13.984
46950W        W15280  27.486  15.723  13.797
46951W        W15281  43.862  18.617  12.986
46952W        W15282  35.963  17.127   3.324
46953W        W15283  17.727   4.226  11.592
46954W        W15284  11.173  38.877  14.482
46955W        W15285  41.369  29.993  13.890
46956W        W15286  28.950  19.715  11.410
46957W        W15287  15.737  21.255   2.208
46958W        W15288  30.492  38.845  12.572
46959W        W15289  30.437   7.711  11.000
46960W        W15290  32.097  33.601   2.814
46961W        W15291  41.964  10.774   2.714
46962W        W15292  23.683  18.762  12.014
46963W        W15293   3.381  15.640  13.895
46964W        W15294  19.730   9.221   1.450
46965W        W15295  41.848  13.318   1.808
46966W        W15296  20.068   2.257   1.420
46967W        W15297  32.565  36.515  10.498
46968W        W15298  33.598  22.556  11.545
46969W        W15299  11.643  36.487  13.320
46970W        W15300   0.869  11.267   2.782
46971W        W15301   5.341  25.642  13.005
46972W        W15302  28.606  37.834  12.477
46973W        W15303  26.171   2.834  14.280
46974W        W15304   3.219   8.164  14.821
46975W        W15305  15.745  16.121  12.999
46976W        W15306  12.639  37.377  10.966
46977W        W15307  20.115  26.603  13.008
46978W        W15308  22.240  20.758   0.298
46979W        W15309  32.459  23.605   0.737
46980W        W15310   4.293  17.134   2.780
46981W        W15311  34.538  34.536   3.374
46982W        W15312  15.764  43.444  12.012
46983W        W15313   6.887  24.155   4.624
46984W        W15314  29.061   1.404   1.222
46985W        W15315  30.495   8.698   2.232
46986W        W15316   9.735   7.872   0.815
46987W        W15317  31.036  44.852   3.332
46988W        W15318  34.556  22.165  12.371
46989W        W15319  34.064  27.606   4.809
46990W        W15320   0.293   7.727  11.910
46991W        W15321  33.603  27.678  13.539
46992W        W15322  32.612  42.490   2.892
46993W        W15323  40.407  36.513  13.962
46994W        W15324  44.814   7.334   1.898
46995W        W15325  33.496   4.812   4.125
46996W        W15326  27.612  40.921  11.584
46997W        W15327   1.367  23.678  12.470
46998W        W15328  34.563   6.751   2.362
46999W        W15329  24.107   0.258  12.471
47000W        W15330  40.859   3.269   0.244
47001W        W15331  10.815   2.396  12.074
47002W        W15332  12.785  16.222  13.021
47003W        W15333   5.409  12.339  11.007
47004W        W15334  39.874   5.298   2.805
47005W        W15335  22.073  18.612   1.721
47006W        W15336   7.203  23.513   1.439
47007W        W15337  10.648   2.729  11.966
47008W        W15338  37.014  40.439  12.424
47009W        W15339  12.318  27.194   0.477
47010W        W15340  32.397  25.192   0.268
47011W        W15341  13.800  42.783   3.294
47012W        W15342  27.482  32.114   4.730
47013W        W15343   1.383  26.572  14.788
47014W        W15344  22.593  30.566   2.834
47015W        W15345   0.464  17.306  13.952
47016W        W15346   6.757  12.172  14.290
47017W        W15347  14.187  40.821   4.613
47018W        W15348  14.682  21.046   4.822
47019W        W15349  35.376  24.173   0.426
47020W        W15350  16.609  33.597  12.006
47021W        W15351  35.996   8.175   3.367
47022W        W15352  20.662  21.714   4.771
47023W        W15353  43.851  39.885  12.450
47024W        W15354  27.088   8.240   3.706
47025W        W15355   0.953  33.547   4.806
47026W        W15356  41.451  11.689  13.046
47027W        W15357  39.332  37.445   1.436
47028W        W15358  43.020  12.302  10.909
47029W        W15359   8.267  29.961   0.832
47030W        W15360  25.581  28.604  13.544
47031W        W15361  44.959  24.611  11.002
47032W        W15362  25.683  33.876   0.368
47033W        W15363  34.898  40.463  11.442
47034W        W15364   3.389  23.105   2.718
47035W        W15365  14.736  42.002   2.222
47036W        W15366   5.416  13.700   3.379
47037W        W15367  20.671  17.200   3.362
47038W        W15368  18.171   4.279   2.663
47039W        W15369  37.965  35.483  12.032
47040W        W15370  22.501  21.116   1.916
47041W        W15371  21.657  18.208  13.994
47042W        W15372   6.846  31.440   4.728
47043W        W15373  13.190  17.615   2.784
47044W        W15374  42.341   4.775   0.964
47045W        W15375  25.507  15.190   3.201
47046W        W15376  35.471  27.036   2.798
47047W        W15377  43.817   3.245  11.578
47048W        W15378  10.744  38.436  13.022
47049W        W15379   4.298  30.436   1.407
47050W        W15380   7.327  34.408  10.543
47051W        W15381  44.992   4.929  14.913
47052W        W15382  15.788  42.903  14.899
47053W        W15383  13.254  28.586   4.798
47054W        W15384  43.339   1.811  12.880
47055W        W15385  10.855  38.935  13.460
47056W        W15386   4.335  42.322  12.553
47057W        W15387  19.664   2.347   2.674
47058W        W15388  20.071  30.650   2.347
47059W        W15389  27.119   6.246   2.227
47060W        W15390   7.178   6.325  10.464
47061W        W15391  43.778  39.468   1.244
47062W        W15392   9.697  43.472  13.902
47063W        W15393  37.872  39.546   0.421
47064W        W15394  41.382  35.070  12.520
47065W        W15395  42.394  36.980  13.963
47066W        W15396   3.422  22.192   1.828
47067W        W15397   8.829   5.224  12.042
47068W        W15398  17.224  15.669  12.579
47069W        W15399  11.663  27.187   0.484
47070W        W15400   1.473   5.331   3.362
47071W        W15401   2.907  32.087   2.201
47072W        W15402   8.239   3.733   4.344
47073W        W15403  13.182  17.164  11.525
47074W        W15404  39.004   6.705   4.235
47075W        W15405  16.289  34.887  13.941
47076W        W15406  12.650  35.596   2.821
47077W        W15407  32.592   2.315  13.058
47078W        W15408  12.251  44.880   3.318
47079W        W15409   2.234  13.268  13.058
47080W        W15410  39.536  31.116   2.246
47081W        W15411  23.592  36.964  13.407
47082W        W15412  17.793  21.588  12.863
47083W        W15413   8.260  37.999  13.510
47084W        W15414  35.404  34.026  11.476
47085W        W15415  21.196  12.235   4.184
47086W        W15416  43.386  41.363   2.684
47087W        W15417  33.601  27.567   3.661
47088W        W15418  43.802  11.133   0.246
47089W        W15419  25.219  41.400  13.515
47090W        W15420  42.464  40.526  13.817
47091W        W15421  25.544  33.380   2.319
47092W        W15422   9.854  13.726  14.958
47093W        W15423  15.289  33.050  13.451
47094W        W15424  16.265  34.974  10.591
47095W        W15425  31.994   9.881  11.055
47096W        W15426  22.159  43.821  12.035
47097W        W15427  41.025  44.394   2.681
47098W        W15428   3.247  14.782  12.034
47099W        W15429  42.425  40.930   3.812
47100W        W15430   8.189   4.766  12.439
47101W        W15431   3.741  42.478   2.792
47102W        W15432  40.811  42.793  12.371
47103W        W15433  24.040  21.082   3.278
47104W        W15434  21.185  29.543  11.104
47105W        W15435  36.963  42.785  13.958
47106W        W15436  40.547   8.247  11.601
47107W        W15437   9.841   7.739  13.355
47108W        W15438  19.571  18.122  11.897
47109W        W15439  26.570   5.324   2.877
47110W        W15440  11.748  34.504   1.697
47111W        W15441  44.444  27.018   0.844
47112W        W15442  19.558   5.238  11.960
47113W        W15443  37.954   7.767  10.562
47114W        W15444  11.728  25.638  10.564
47115W        W15445  11.864  23.597   2.387
47116W        W15446  41.833  30.580  14.283
47117W        W15447  30.560  20.218  12.059
47118W        W15448  11.243  12.309  14.029
47119W        W15449  42.778   4.301  10.638
47120W        W15450  38.519  32.496  12.385
47121W        W15451   0.976  32.061  12.834
47122W        W15452  26.463  15.153   3.357
47123W        W15453  35.928  35.565  11.520
47124W        W15454  13.257  34.993   0.443
47125W        W15455  44.978   3.251   4.311
47126W        W15456  34.546  18.172   4.630
47127W        W15457  29.661  13.771   2.275
47128W        W15458   8.397  36.990   2.803
47129W        W15459   3.434  19.596  12.428
47130W        W15460  19.178   6.402  13.953
47131W        W15461   1.408  17.242   3.773
47132W        W15462  30.579  29.642  12.914
47133W        W15463  38.382  13.296  10.504
47134W        W15464   0.473  38.867   1.221
47135W        W15465  26.575  23.167   4.752
47136W        W15466  41.343  41.899   1.892
47137W        W15467  36.037   7.367  10.432
47138W        W15468   4.789  44.834  14.915
47139W        W15469  22.054  11.177   0.792
47140W        W15470  26.085  12.224   0.265
47141W        W15471   6.797  26.083   4.754
47142W        W15472   8.285  10.326  13.521
47143W        W15473  20.577  40.927   1.439
47144W        W15474  27.617  20.692  12.021
47145W        W15475  20.242  37.433  13.052
47146W        W15476   7.223  11.263  13.482
47147W        W15477  10.242  12.750  14.279
47148W        W15478  28.111  42.500  14.023
47149W        W15479   1.847  11.353  12.984
47150W        W15480  26.178  27.143   0.742
47151W        W15481  44.003  34.396   4.702
47152W        W15482  41.894  25.562   3.339
47153W        W15483  22.222  18.220   4.143
47154W        W15484  18.260  32.632  10.445
47155W        W15485  41.031   4.289  11.862
47156W        W15486   4.851  16.629   2.315
47157W        W15487  11.309  36.050  14.856
47158W        W15488  13.695   6.202   3.240
47159W        W15489  27.098  30.131  13.427
47160W        W15490  11.817  20.038   4.825
47161W        W15491   9.371  37.897  14.508
47162W        W15492  21.249  36.376  12.074
47163W        W15493   8.697   7.302  11.498
47164W        W15494  36.054  23.142  11.934
47165W        W15495  29.028  37.989   0.878
47166W        W15496  25.487  41.995  13.879
47167W        W15497  28.162  43.956  14.451
47168W        W15498  42.523  12.756   2.350
47169W        W15499   7.276  36.395   1.232
47170W        W15500  34.548  11.359  10.918
47171W        W15501  23.071  36.497   1.848
47172W        W15502  23.195  22.515  11.938
47173W        W15503   0.285  44.318  12.411
47174W        W15504  20.637  17.712  12.523
47175W        W15505   4.759  43.417   1.249
47176W        W15506  25.502  40.521   1.838
47177W        W15507  28.106  30.540   1.793
47178W        W15508  36.529  33.403  13.841
47179W        W15509  19.073  43.388   2.831
47180W        W15510  40.502  12.710  14.946
47181W        W15511  24.984  38.559  10.099
47182W        W15512   0.943  15.184   2.854
47183W        W15513  11.267  18.089  11.428
47184W        W15514  10.745  39.384  10.425
47185W        W15515   4.316  42.478   0.448
47186W        W15516  24.704  30.564   1.724
47187W        W15517  34.530   3.928   4.832
47188W        W15518  42.403   2.924  13.427
47189W        W15519  41.926  22.736   4.259
47190W        W15520  35.419  15.665   0.909
47191W        W15521   2.238  20.032  12.469
47192W        W15522  14.172   2.764  13.468
47193W        W15523  43.445   6.828   0.279
47194W        W15524   7.394  30.066  13.906
47195W        W15525  44.900  19.689  14.303
47196W        W15526   9.877  23.680  10.441
47197W        W15527  34.586   4.799   2.297
47198W        W15528  18.233  16.582   3.821
47199W        W15529  10.823  34.100  11.082
47200W        W15530   5.706  33.903   4.655
47201W        W15531  35.857   2.363   0.284
47202W        W15532  30.446  32.032  13.850
47203W        W15533  20.554  30.924  10.491
47204W        W15534   1.260  28.580  13.416
47205W        W15535  40.494  32.537   3.738
47206W        W15536  23.632  23.635   4.604
47207W        W15537  18.770  27.006   4.231
47208W        W15538  21.131  37.571   3.336
47209W        W15539   3.416  34.083  10.955
47210W        W15540   9.827  14.675   3.315
47211W        W15541  28.647  25.186   4.118
47212W        W15542  18.263  15.142  11.453
47213W        W15543  42.934  26.043   2.898
47214W        W15544   4.327   4.910  10.473
47215W        W15545  15.263   2.246  12.434
47216W        W15546  32.485   5.352  10.470
47217W        W15547  29.618  11.146   2.845
47218W        W15548  34.506  36.936   3.150
47219W        W15549   6.294  28.455  10.624
47220W        W15550   8.351   9.161  12.864
47221W        W15551  44.822  44.485  11.117
47222W        W15552   0.391  25.054   0.327
47223W        W15553  15.799   9.694   3.383
47224W        W15554  25.143   2.271   4.117
47225W        W15555   7.246   4.718   1.307
47226W        W15556  21.124  19.691   2.391
47227W        W15557   9.791  17.732  14.466
47228W        W15558   6.911  41.408   4.353
47229W        W15559  36.020   1.453  14.006
47230W        W15560  42.288   9.836  14.388
47231W        W15561  15.636  19.240  11.111
47232W        W15562   7.382   3.305  12.933
47233W        W15563  20.261  30.022  11.424
47234W        W15564  23.046  36.494   4.255
47235W        W15565  11.189  36.509   1.329
47236W        W15566  24.169  13.146   2.881
47237W        W15567  38.432  44.394   3.747
47238W        W15568   0.292  37.494   3.305
47239W        W15569  32.577  18.197   2.309
47240W        W15570  37.429   2.343  14.975
47241W        W15571  38.892   5.423   9.465
47242W        W15572  26.963  36.916  13.398
47243W        W15573  12.785   1.886  10.539
47244W        W15574  22.101   8.808   0.356
47245W        W15575  44.983  30.931  11.578
47246W        W15576  32.589  33.115  13.859
47247W        W15577   3.245  21.161  13.808
47248W        W15578  31.929  17.137  11.002
47249W        W15579  31.521   3.763   4.743
47250W        W15580   3.883  26.520  12.869
47251W        W15581  19.535  30.099   3.231
47252W        W15582  21.094  18.705   4.643
47253W        W15583  19.688  38.906   0.270
47254W        W15584  15.087  36.580   0.287
47255W        W15585  43.950  27.130  12.362
47256W        W15586  20.756   8.703  12.561
47257W        W15587   6.255   4.395   1.702
47258W        W15588  38.373  11.325   4.616
47259W        W15589  17.241  15.186  12.371
47260W        W15590  36.026  30.080  12.495
47261W        W15591  17.679  41.329  14.923
47262W        W15592  13.839  39.343  12.893
47263W        W15593   9.768  22.553   1.850
47264W        W15594   5.792  24.525   4.717
47265W        W15595  36.055   8.823  10.991
47266W        W15596  24.564  39.521   3.865
47267W        W15597  17.651   2.869   2.312
47268W        W15598  42.837  28.507   4.145
47269W        W15599  28.674  15.129   2.748
47270W        W15600   3.932  36.870  12.985
47271W        W15601  14.240  26.664  13.995
47272W        W15602  14.760  30.080  12.488
47273W        W15603  35.096  11.152  10.538
47274W        W15604  32.085  18.732  12.501
47275W        W15605  30.939  22.066   0.373
47276W        W15606  30.633   7.286   3.684
47277W        W15607   4.329  29.150  11.968
47278W        W15608  37.444   5.775  12.043
47279W        W15609  38.954  35.003  14.929
47280W        W15610   6.258  13.792  12.393
47281W        W15611  23.003  17.213  11.596
47282W        W15612  21.625   8.274  12.512
47283W        W15613  42.438  13.156  12.529
47284W        W15614  35.998  38.820  10.510
47285W        W15615  43.868  41.827   0.736
47286W        W15616  33.085  33.430  11.976
47287W        W15617  43.389  29.521  14.770
47288W        W15618   8.760  27.109   3.773
47289W        W15619  36.063  25.654   2.864
47290W        W15620  37.070  19.648   1.432
47291W        W15621  39.908   4.910  10.015
47292W        W15622  10.810   2.317   2.691
47293W        W15623  16.712  30.161   0.865
47294W        W15624  30.983   5.841  14.307
47295W        W15625  15.171  23.025  13.467
47296W        W15626  39.029  17.167   5.126
47297W        W15627  16.229   7.773  12.423
47298W        W15628  35.484   5.244  13.844
47299W        W15629   0.862  42.990   5.194
47300W        W15630  22.744  41.016   0.446
47301W        W15631  12.158  29.032   4.229
47302W        W15632  30.946  35.373   1.849
47303W        W15633  44.301  43.470  12.080
47304W        W15634  44.763  28.587  10.958
47305W        W15635  10.730  38.362   3.293
47306W        W15636  26.545  22.078   2.283
47307W        W15637  12.614  13.286  14.974
47308W        W15638  25.609   9.237  13.990
47309W        W15639  14.218  42.950  11.059
47310W        W15640  35.567  39.454   3.373
47311W        W15641  35.544  12.625  13.859
47312W        W15642  24.520  42.366   2.761
47313W        W15643  38.943  42.299  12.422
47314W        W15644  32.041   1.895  14.462
47315W        W15645  26.961  27.968  10.536
47316W        W15646   1.762  16.081  10.926
47317W        W15647  27.001  23.111  12.934
47318W        W15648  19.572  34.066   4.324
47319W        W15649  11.784  11.833  12.090
47320W        W15650  24.579  16.290   2.855
47321W        W15651  39.403  44.274   0.957
47322W        W15652  37.518  32.970  10.494
47323W        W15653   3.347  28.151   5.321
47324W        W15654  11.159  36.859  11.461
47325W        W15655   2.263  38.966  10.630
47326W        W15656  43.299  37.977   1.750
47327W        W15657  30.990  24.097  14.284
47328W        W15658   9.337  34.050  13.824
47329W        W15659  31.612  16.164   2.834
47330W        W15660  44.952  39.064   4.323
47331W        W15661  18.165  32.391   0.916
47332W        W15662  29.050  27.636   2.179
47333W        W15663   6.808  35.374  14.880
47334W        W15664  15.196  18.625  11.074
47335W        W15665  19.736  41.962  11.123
47336W        W15666  42.011   7.240   1.294
47337W        W15667  29.142  12.776   1.928
47338W        W15668  32.069  31.461   3.340
47339W        W15669  15.198  26.963  10.639
47340W        W15670   7.206   9.219   2.412
47341W        W15671  30.421  28.081   0.381
47342W        W15672  14.659  20.757  10.984
47343W        W15673  13.208   1.893  11.039
47344W        W15674   8.251   2.433  12.034
47345W        W15675  41.811  44.501   3.155
47346W        W15676  10.231  15.226  11.888
47347W        W15677   4.267  26.093   2.276
47348W        W15678   9.209  15.819  11.416
47349W        W15679  33.951  25.160   1.703
47350W        W15680  19.052  27.102   1.416
47351W        W15681  19.272  27.484   2.300
47352W        W15682  40.400  36.908   1.300
47353W        W15683  44.777   0.930   3.771
47354W        W15684  38.494  16.145   1.341
47355W        W15685   3.415  26.633  12.556
47356W        W15686   6.205  18.556  12.445
47357W        W15687  21.615  41.922   2.213
47358W        W15688   0.933  27.681  10.625
47359W        W15689  24.156   7.225   5.167
47360W        W15690  22.137   3.891  10.489
47361W        W15691  11.187  35.446   1.933
47362W        W15692   5.249  32.030  11.109
47363W        W15693  36.932  42.786   4.602
47364W        W15694  41.891  10.205  12.446
47365W        W15695  35.879  37.058  11.901
47366W        W15696  23.624   7.775   2.736
47367W        W15697  38.450   5.384   5.803
47368W        W15698  27.011  36.087   0.901
47369W        W15699  25.637   2.337  12.057
47370W        W15700  24.030   6.724  14.323
47371W        W15701  26.510  23.080   2.385
47372W        W15702  13.832  25.976  13.029
47373W        W15703  21.080  19.268  14.030
47374W        W15704   6.265  31.630   3.212
47375W        W15705  13.600  19.140   4.273
47376W        W15706  32.050  17.168  12.526
47377W        W15707   0.277  12.132  11.027
47378W        W15708  27.691   8.268   4.711
47379W        W15709  10.852  39.036  13.939
47380W        W15710  30.522  21.039  12.990
47381W        W15711  32.138   8.747  11.540
47382W        W15712  39.407  38.900   3.847
47383W        W15713   8.840   0.972   0.400
47384W        W15714  36.445   9.814   1.761
47385W        W15715  37.537   8.387   0.807
47386W        W15716  24.487  31.094   0.835
47387W        W15717  36.952  43.408   4.818
47388W        W15718  37.055  40.045   4.186
47389W        W15719  37.039  17.617   1.417
47390W        W15720   1.795  18.056   3.758
47391W        W15721  11.692  34.977   1.414
47392W        W15722   6.418  12.738   2.832
47393W        W15723   7.374  37.900  13.349
47394W        W15724  36.512  25.122  13.447
47395W        W15725  38.035  43.791  13.913
47396W        W15726   1.735  34.882  13.503
47397W        W15727  28.646  34.111  14.494
47398W        W15728  19.234  26.007  11.407
47399W        W15729  13.225  41.420   1.432
47400W        W15730   2.436  33.626  13.547
47401W        W15731  26.966  40.801   2.409
47402W        W15732  21.605  29.530  14.820
47403W        W15733  34.067  34.464   4.290
47404W        W15734   6.403  44.781  11.510
47405W        W15735  35.504  13.675   3.728
47406W        W15736  20.199  35.537  14.819
47407W        W15737  36.579  35.066  11.515
47408W        W15738  39.042  16.635   1.787
47409W        W15739  34.019  12.173   1.870
47410W        W15740   3.349  28.451   0.787
47411W        W15741  44.873  15.085  12.942
47412W        W15742   3.325  12.129   3.800
47413W        W15743  21.089   3.887  12.839
47414W        W15744  25.640   8.196  14.436
47415W        W15745  30.654   2.448   1.858
47416W        W15746  34.105   0.831   4.219
47417W        W15747  18.553   9.288   2.836
47418W        W15748  17.640  10.755  12.998
47419W        W15749  28.185  16.150   0.888
47420W        W15750  20.249  26.658  13.519
47421W        W15751  27.956  30.419  10.435
47422W        W15752  16.568  31.569  14.429
47423W        W15753   3.917  31.899   5.101
47424W        W15754   0.871  34.093  13.914
47425W        W15755  38.570  38.909  12.489
47426W        W15756  14.148   1.389  14.410
47427W        W15757  29.044  19.587   1.286
47428W        W15758  32.074  24.042   0.729
47429W        W15759   7.323   9.191  14.274
47430W        W15760  26.660  26.524   5.293
47431W        W15761  39.428  44.372  14.932
47432W        W15762  11.809  25.139  14.901
47433W        W15763  32.494  27.096  11.041
47434W        W15764   1.275  24.028   1.730
47435W        W15765  12.785  40.812   3.828
47436W        W15766   6.743  44.918  13.356
47437W        W15767   7.729  21.529  11.987
47438W        W15768  15.281   9.767   3.266
47439W        W15769  23.073  17.199  14.336
47440W        W15770  37.902  19.156  10.511
47441W        W15771  10.743  17.214  13.353
47442W        W15772   4.816  16.180   3.812
47443W        W15773  42.297  34.378   1.285
47444W        W15774  36.097   8.763  11.877
47445W        W15775   8.838  42.005   4.139
47446W        W15776  40.412  35.971   3.786
47447W        W15777  16.581  33.616  10.623
47448W        W15778  25.090  40.994  12.930
47449W        W15779  41.921  13.836   1.240
47450W        W15780   2.893  14.255   2.340
47451W        W15781  32.926  36.035  14.865
47452W        W15782  21.562  19.541   5.697
47453W        W15783  26.504   4.788   5.280
47454W        W15784  29.470  19.547   0.367
47455W        W15785  10.678  11.643  13.820
47456W        W15786   1.907  10.354  13.009
47457W        W15787  33.057   1.348   1.905
47458W        W15788  43.325  41.404  13.492
47459W        W15789  39.373  31.458   3.632
47460W        W15790  28.144  31.906  11.907
47461W        W15791  42.951   7.885   5.197
47462W        W15792  28.557  17.099  12.895
47463W        W15793  38.551  37.978  14.407
47464W        W15794  44.304  25.638  11.972
47465W        W15795  25.575  11.199   4.174
47466W        W15796  24.513   8.677  13.056
47467W        W15797  29.048  41.820  12.976
47468W        W15798  17.776  15.134  12.900
47469W        W15799  31.018  10.665   4.678
47470W        W15800  33.538  20.241  11.523
47471W        W15801  18.253   4.883  10.603
47472W        W15802  37.395  11.304  12.937
47473W        W15803  16.780  11.309   2.315
47474W        W15804  37.475  33.946   4.218
47475W        W15805  18.262  13.138  10.908
47476W        W15806   9.777  26.703  13.821
47477W        W15807  43.961  26.648  10.410
47478W        W15808  31.644   6.213  12.354
47479W        W15809   7.773  40.973   3.635
47480W        W15810  35.998  33.037  14.913
47481W        W15811  31.036  27.010  13.855
47482W        W15812  30.118  14.267   4.336
47483W        W15813  14.733   2.344   4.663
47484W        W15814  33.935  32.060  11.107
47485W        W15815  10.202  20.739  14.967
47486W        W15816  23.535   3.918  11.438
47487W        W15817  35.952  24.703  12.370
47488W        W15818  37.891  30.480  11.895
47489W        W15819  42.416  44.963   1.889
47490W        W15820  16.619   2.956  10.582
47491W        W15821  25.042  19.635   2.821
47492W        W15822  36.971   6.843  12.464
47493W        W15823  25.066  32.064  11.901
47494W        W15824  10.840  35.439   4.246
47495W        W15825  10.359  35.038   2.321
47496W        W15826  27.121   7.181  12.084
47497W        W15827  41.370  44.851  14.283
47498W        W15828  29.659  44.985  12.456
47499W        W15829  25.039  35.900  12.522
47500W        W15830  32.124  18.756  14.327
47501W        W15831   4.245  16.721   4.328
47502W        W15832  16.579  42.830  11.527
47503W        W15833  33.083  23.233   1.212
47504W        W15834  38.469  39.331   2.699
47505W        W15835  20.610   4.313  10.583
47506W        W15836  33.537   3.304   3.365
47507W        W15837   3.791  18.667   1.846
47508W        W15838  33.388   6.314   3.195
47509W        W15839  27.128  33.507  12.862
47510W        W15840  37.374   7.717   2.339
47511W        W15841  32.400  26.206  13.946
47512W        W15842  43.345   3.719  12.560
47513W        W15843   9.295   3.891   4.213
47514W        W15844   0.812  29.583   3.668
47515W        W15845  16.719  41.884   1.320
47516W        W15846  33.935  18.255   2.361
47517W        W15847   1.878  10.195   3.631
47518W        W15848  41.510  16.767   1.374
47519W        W15849   6.706   3.709  14.947
47520W        W15850  41.299  18.575   3.217
47521W        W15851  12.146  35.059  14.383
47522W        W15852  17.738  32.531  14.311
47523W        W15853  29.989  36.508  12.925
47524W        W15854  25.080   4.820   1.857
47525W        W15855  42.350  26.963   4.297
47526W        W15856  14.296   5.726   0.917
47527W        W15857  40.417   6.715   5.109
47528W        W15858   8.212  34.444   2.368
47529W        W15859  38.991  11.348  12.920
47530W        W15860  21.644  18.556  11.892
47531W        W15861   1.892  37.838   2.875
47532W        W15862  10.266  23.514  12.093
47533W        W15863  37.375  42.027  13.444
47534W        W15864  16.234  37.547   2.213
47535W        W15865  37.540   8.166  13.515
47536W        W15866  31.573  10.700   4.327
47537W        W15867   0.883  37.376   0.253
47538W        W15868  14.750  22.057   2.347
47539W        W15869  40.337  12.850   3.724
47540W        W15870  12.180  11.666   2.824
47541W        W15871  14.599  39.436   3.371
47542W        W15872  29.931   4.840  10.477
47543W        W15873  21.679  12.739  10.541
47544W        W15874  39.014  16.112  11.412
47545W        W15875  23.715  39.838   4.820
47546W        W15876   6.423  40.843   1.398
47547W        W15877  11.231   0.403   3.207
47548W        W15878  16.679  36.562   3.672
47549W        W15879  27.449  37.562  10.419
47550W        W15880  16.769  21.570  14.458
47551W        W15881  35.472  25.164   4.696
47552W        W15882   3.943   0.919  12.966
47553W        W15883  12.826  32.107  11.993
47554W        W15884   7.273  16.103   2.770
47555W        W15885  10.203  36.023  12.347
47556W        W15886   1.865  21.531   0.407
47557W        W15887  38.067  11.361  13.503
47558W        W15888  12.686  29.445   2.715
47559W        W15889  36.850  12.723   3.171
47560W        W15890  19.721   7.323   2.876
47561W        W15891  40.923  17.084  11.117
47562W        W15892   7.341  18.566  14.427
47563W        W15893  44.436  23.652   1.802
47564W        W15894  31.978  37.526   1.915
47565W        W15895  23.002   8.356  14.436
47566W        W15896   8.811  33.064   1.274
47567W        W15897  18.717   0.900  13.446
47568W        W15898  21.163   9.249  10.123
47569W        W15899  20.589  27.186   0.848
47570W        W15900  44.870  34.430  11.558
47571W        W15901  39.474  35.065  12.339
47572W        W15902  25.219  23.520  13.413
47573W        W15903  12.333  14.810  11.858
47574W        W15904   1.900  38.871   4.635
47575W        W15905  44.485  44.468   3.346
47576W        W15906  35.945  37.836   1.254
47577W        W15907  18.716  11.229  11.490
47578W        W15908  19.556  30.539  13.851
47579W        W15909   3.887  23.228  11.602
47580W        W15910  32.454   5.712  13.507
47581W        W15911  29.655   4.237   4.620
47582W        W15912  25.100  30.484   0.779
47583W        W15913  27.547   6.711   3.665
47584W        W15914  39.543  14.710   4.717
47585W        W15915   2.796  10.218  12.991
47586W        W15916  12.325  19.047  12.843
47587W        W15917   5.883  36.037  13.462
47588W        W15918  44.863   5.282   2.812
47589W        W15919  10.292  13.750  14.831
47590W        W15920  43.005  22.560   1.923
47591W        W15921  37.857  42.896   0.782
47592W        W15922   4.305  33.417   4.118
47593W        W15923  19.539  28.634  10.152
47594W        W15924   2.767  30.121  10.411
47595W        W15925  15.138  12.738   3.306
47596W        W15926  37.008  10.850   2.242
47597W        W15927  24.638  29.973  10.474
47598W        W15928  31.449   8.740  13.386
47599W        W15929  44.463  12.135  10.160
47600W        W15930  27.124   4.814  14.762
47601W        W15931  16.654  29.485   3.675
47602W        W15932  34.966  18.590  11.007
47603W        W15933  23.690   2.823   2.734
47604W        W15934  41.507  11.206  14.478
47605W        W15935  21.166   3.822   2.401
47606W        W15936  33.410  21.052  12.971
47607W        W15937  44.428  15.207   3.709
47608W        W15938  41.899  38.441  11.537
47609W        W15939   8.283  32.611   0.891
47610W        W15940  41.457   6.251   2.351
47611W        W15941   1.373  37.570   3.833
47612W        W15942  43.277  39.823  12.367
47613W        W15943   1.828  29.612  14.348
47614W        W15944   0.915  25.073  13.468
47615W        W15945  34.085   2.898   3.821
47616W        W15946  38.534   9.675   1.860
47617W        W15947  38.996   9.163   0.772
47618W        W15948  12.790  42.001   4.211
47619W        W15949  19.657   0.457  11.953
47620W        W15950  23.095  22.241   0.741
47621W        W15951  27.942  27.465  14.985
47622W        W15952  14.597  39.042  10.507
47623W        W15953  41.314   6.852  13.482
47624W        W15954  17.219  42.303  13.795
47625W        W15955  35.018  40.843  13.513
47626W        W15956  23.053   4.769   4.200
47627W        W15957   2.240  14.750  13.964
47628W        W15958  42.885   8.898   4.323
47629W        W15959  39.939  18.640   2.686
47630W        W15960   5.871  30.632  11.465
47631W        W15961  38.010  31.582   0.473
47632W        W15962  36.501   0.390   3.301
47633W        W15963  35.863  40.868  10.990
47634W        W15964  26.554  32.492   1.890
47635W        W15965  39.421  24.092   2.709
47636W        W15966  20.768  14.266  12.931
47637W        W15967  40.486  13.652  10.578
47638W        W15968   8.668  29.597  14.392
47639W        W15969  43.448  27.676  14.887
47640W        W15970  18.105  17.269  10.527
47641W        W15971  38.850  11.624  14.293
47642W        W15972  23.691   1.963   2.263
47643W        W15973   9.761  39.401   0.776
47644W        W15974  18.124  33.905  13.467
47645W        W15975  32.607  16.736   2.781
47646W        W15976  23.558  41.483  12.490
47647W        W15977  43.950  28.160   4.729
47648W        W15978  26.627  33.450  10.936
47649W        W15979  37.435   9.788   1.266
47650W        W15980  15.193  32.443   4.651
47651W        W15981  34.010  30.559  14.806
47652W        W15982  26.506  19.267   1.926
47653W        W15983  18.565  43.953  11.071
47654W        W15984  18.682  15.594  12.400
47655W        W15985  33.510  39.540   2.348
47656W        W15986   4.357  26.128   4.234
47657W        W15987  33.003  21.601  12.073
47658W        W15988  36.487  17.299   0.248
47659W        W15989  14.216   2.297   1.426
47660W        W15990  41.832  28.965   0.444
47661W        W15991  39.459  27.447  12.515
47662W        W15992   9.734   4.855  12.460
47663W        W15993  16.095  25.022   2.852
47664W        W15994  37.919  22.243  13.401
47665W        W15995  40.460  35.563   1.805
47666W        W15996  20.683   5.417   0.768
47667W        W15997  36.982  41.834  13.034
47668W        W15998   6.720   1.903   0.306
47669W        W15999   8.734   4.335   0.381
47670W        W16000  41.341   4.410   1.312
47671W        W16001  19.128  13.296   0.348
47672W        W16002   8.867  18.557  10.504
47673W        W16003  44.990  23.129   2.197
47674W        W16004  33.573  26.701  12.537
47675W        W16005  22.083  25.610  12.392
47676W        W16006   7.807  32.896   1.891
47677W        W16007  31.152   1.740  14.781
47678W        W16008  40.402   4.217  10.511
47679W        W16009  28.453  16.703   2.367
47680W        W16010  31.554  13.205  10.510
47681W        W16011  32.124  22.709  11.106
47682W        W16012  20.681  42.469  12.918
47683W        W16013  35.471  13.805   2.410
47684W        W16014   0.339   0.893   3.712
47685W        W16015  21.746   4.866   2.778
47686W        W16016   5.335  21.043   9.948
47687W        W16017  40.848   0.301   0.745
47688W        W16018  13.677  21.196   2.786
47689W        W16019  40.865   1.873   0.910
47690W        W16020  38.518   4.875  13.538
47691W        W16021  35.035  42.453   0.743
47692W        W16022   5.755  27.669   2.230
47693W        W16023  37.364  30.096   4.314
47694W        W16024  22.171  35.054  14.890
47695W        W16025  34.432   2.275   0.821
47696W        W16026  37.527  30.501  14.813
47697W        W16027  20.587   8.205   3.674
47698W        W16028  12.792  10.322  11.492
47699W        W16029  24.204  20.715   1.734
47700W        W16030   6.820  31.145  14.950
47701W        W16031   7.404   3.230  10.410
47702W        W16032  15.772  30.158   1.723
47703W        W16033  13.730  32.139  13.866
47704W        W16034   4.216   6.265  10.447
47705W        W16035  16.123  42.304  12.096
47706W        W16036  12.341  23.578   1.882
47707W        W16037  27.980  13.619   0.282
47708W        W16038  32.036  22.526  12.074
47709W        W16039  35.403  27.611  11.509
47710W        W16040   3.906   2.777  12.057
47711W        W16041   2.330  27.534   1.745
47712W        W16042  33.091  26.470   0.392
47713W        W16043  35.581  38.836  12.893
47714W        W16044  40.418  24.716   0.904
47715W        W16045  37.959  37.376  13.411
47716W        W16046  23.132   0.860  14.365
47717W        W16047  23.692  27.188   1.246
47718W        W16048  26.017   3.460   1.377
47719W        W16049   9.197  33.086   3.298
47720W        W16050  32.916   5.789   2.717
47721W        W16051  12.782  27.052   2.274
47722W        W16052  34.876   0.477  10.559
47723W        W16053  17.652  13.684  10.457
47724W        W16054  43.806  41.524   4.293
47725W        W16055   4.782  42.827   3.355
47726W        W16056  43.276  44.319   1.295
47727W        W16057  12.697  17.682  11.057
47728W        W16058  40.983  21.694   3.719
47729W        W16059  28.118  16.309   0.250
47730W        W16060  24.180  19.281  11.914
47731W        W16061  19.224  26.187  13.044
47732W        W16062  37.866  25.042  13.433
47733W        W16063   4.242  28.024   4.701
47734W        W16064  44.294  20.078  11.089
47735W        W16065   6.834  20.213   4.792
47736W        W16066   8.344  39.898  13.990
47737W        W16067  16.153  29.153   0.939
47738W        W16068  33.387  20.689  13.036
47739W        W16069  23.652  39.053  14.879
47740W        W16070  23.533  41.934   3.766
47741W        W16071  43.365  40.437   2.795
47742W        W16072  27.601  13.132   2.247
47743W        W16073  25.057   5.870  14.279
47744W        W16074  43.899  30.528  14.388
47745W        W16075  12.774   9.651   0.916
47746W        W16076  22.060  37.508  12.846
47747W        W16077  34.922  28.979   3.668
47748W        W16078  39.934  25.131  14.384
47749W        W16079  20.155  13.701   4.119
47750W        W16080   9.192  38.864  11.129
47751W        W16081  17.755  41.489  13.505
47752W        W16082   6.899   9.704   4.301
47753W        W16083  20.706  31.454  10.908
47754W        W16084  19.750  39.533   3.244
47755W        W16085  24.589  12.219  10.536
47756W        W16086  31.901   3.763   4.725
47757W        W16087  22.035  12.270  10.644
47758W        W16088  20.077  24.565  13.029
47759W        W16089  30.582   0.465  10.912
47760W        W16090  16.747  28.518   2.901
47761W        W16091  22.096  37.463   0.462
47762W        W16092  29.019  33.569  10.498
47763W        W16093  33.390  33.937   0.290
47764W        W16094  16.704  39.373  10.917
47765W        W16095  34.523  12.813   2.248
47766W        W16096  37.934  41.299  10.438
47767W        W16097   4.894  11.840   1.332
47768W        W16098  13.816  18.545   2.813
47769W        W16099  38.386  44.419  14.029
47770W        W16100  38.571   2.826  12.561
47771W        W16101  16.675   6.270   4.234
47772W        W16102  29.529  37.336  14.347
47773W        W16103   0.969  39.553  14.852
47774W        W16104  28.058  26.192  13.382
47775W        W16105  25.527  31.946   4.128
47776W        W16106   8.894  43.273  11.019
47777W        W16107  11.305   6.393   1.356
47778W        W16108  39.417  20.726   0.850
47779W        W16109  13.341  18.246  10.997
47780W        W16110   1.868   8.301   3.257
47781W        W16111  15.116   6.763  12.558
47782W        W16112  22.031  17.716   0.836
47783W        W16113  23.506  20.656  13.498
47784W        W16114  28.579  19.251   1.418
47785W        W16115  20.608  24.581   4.833
47786W        W16116  10.725  39.875  10.917
47787W        W16117   3.789  24.606  12.946
47788W        W16118   5.390   3.891  12.358
47789W        W16119  14.135  39.326   0.307
47790W        W16120  28.951  18.177   3.258
47791W        W16121  25.556   2.739   2.726
47792W        W16122  34.885  21.090   0.795
47793W        W16123  39.868  17.594  14.837
47794W        W16124   7.847  17.762   4.320
47795W        W16125  13.184  27.173  14.012
47796W        W16126  24.706  38.999   0.362
47797W        W16127  37.883  28.648   2.233
47798W        W16128  37.840  35.538   3.191
47799W        W16129   2.242  40.931  12.036
47800W        W16130  29.009  13.799  13.795
47801W        W16131  31.132  44.411  11.007
47802W        W16132  19.682   0.813  10.966
47803W        W16133  30.964  29.533  12.393
47804W        W16134  27.084  29.562  12.351
47805W        W16135   8.336   8.363  14.515
47806W        W16136  19.573  17.664  11.058
47807W        W16137  11.632  26.542   0.248
47808W        W16138  39.866  36.543  12.908
47809W        W16139  44.401   8.773  13.397
47810W        W16140  25.982  13.618   3.328
47811W        W16141  23.137  41.013   4.835
47812W        W16142  28.593  27.606   2.747
47813W        W16143  35.924  38.394  10.615
47814W        W16144  21.615  44.880  11.425
47815W        W16145  10.193  41.932   0.800
47816W        W16146  24.579   3.337   3.314
47817W        W16147  41.895  25.680   1.404
47818W        W16148  19.169   1.288   2.235
47819W        W16149  31.965   5.797  11.449
47820W        W16150  33.933  40.801   3.762
47821W        W16151  29.040  17.697   4.298
47822W        W16152  39.406  17.765   3.795
47823W        W16153  26.091  21.664  13.472
47824W        W16154   1.332  43.919  14.930
47825W        W16155  14.153  42.374  13.371
47826W        W16156   8.898  38.976   3.682
47827W        W16157  25.200  43.363  14.884
47828W        W16158   4.343  32.945   4.619
47829W        W16159  28.579  32.471   3.185
47830W        W16160  18.242   4.883   3.268
47831W        W16161   3.826  33.442   2.791
47832W        W16162  14.626  16.126   1.368
47833W        W16163  44.277  29.147  13.943
47834W        W16164  40.400  44.491   4.750
47835W        W16165  26.066  35.455  11.496
47836W        W16166  43.445   3.247   3.342
47837W        W16167  22.136  27.579   2.417
47838W        W16168  29.940  43.798  12.565
47839W        W16169  38.938  40.951   1.431
47840W        W16170  13.702  41.294  11.562
47841W        W16171  21.572  37.390  14.394
47842W        W16172  28.160  19.197  13.492
47843W        W16173   6.738  38.069  10.503
47844W        W16174   9.261  29.115  14.990
47845W        W16175  23.181  41.420  13.470
47846W        W16176  44.411  26.459   4.820
47847W        W16177  21.561  16.757  14.926
47848W        W16178  26.700  15.308  11.550
47849W        W16179  13.703  23.117  10.926
47850W        W16180   5.764  27.981  12.007
47851W        W16181  17.724  15.703  10.893
47852W        W16182  36.401   9.266  12.844
47853W        W16183  21.213  15.745   2.240
47854W        W16184  20.258  28.671   5.249
47855W        W16185  42.984  23.680  12.347
47856W        W16186  36.920  29.127  14.011
47857W        W16187  15.583  34.467  12.047
47858W        W16188  27.142  11.819  11.560
47859W        W16189   0.472   5.194  10.624
47860W        W16190   6.868   7.759  13.052
47861W        W16191   0.913   9.780  14.512
47862W        W16192  38.353  40.465  11.563
47863W        W16193  33.874   6.847   3.155
47864W        W16194  22.621  27.044   2.701
47865W        W16195  27.468  26.974  12.928
47866W        W16196   6.306  26.072   2.283
47867W        W16197   3.382  19.778  10.075
47868W        W16198  38.560   8.690  11.106
47869W        W16199  31.061  44.935   2.781
47870W        W16200  21.204  39.360   4.297
47871W        W16201  20.048  36.369  10.993
47872W        W16202  37.064  27.099  11.422
47873W        W16203  43.939  11.154  14.410
47874W        W16204  34.095   1.968  13.033
47875W        W16205  22.078   3.750   2.786
47876W        W16206  31.558   8.811  10.920
47877W        W16207  31.629  34.955  13.533
47878W        W16208  27.634  16.304  11.612
47879W        W16209  24.204  23.019   3.672
47880W        W16210   9.395  33.609  13.462
47881W        W16211  11.663  44.961   0.396
47882W        W16212  29.526   3.952   1.375
47883W        W16213  15.800   7.852   1.228
47884W        W16214  19.208  43.886   2.741
47885W        W16215  27.121  22.718   9.936
47886W        W16216  33.918  44.429  13.350
47887W        W16217  40.029  33.121  13.473
47888W        W16218  29.613  39.859  13.969
47889W        W16219   8.358  11.638   0.936
47890W        W16220   4.243  39.885   3.804
47891W        W16221  16.149  37.367   5.223
47892W        W16222  23.617  42.439  12.989
47893W        W16223  34.409  43.843  14.814
47894W        W16224  38.846  41.349   3.789
47895W        W16225  27.686  37.498   0.905
47896W        W16226   3.444  20.150  12.824
47897W        W16227  29.653   7.829  13.403
47898W        W16228   5.718  20.135   0.385
47899W        W16229  36.020  23.126  13.422
47900W        W16230  15.626  12.645  14.298
47901W        W16231   0.252  41.373  14.480
47902W        W16232   9.803  22.039   3.829
47903W        W16233  26.565  13.315   3.168
47904W        W16234   5.304  30.130   3.676
47905W        W16235  17.128  34.065   0.957
47906W        W16236  30.974   5.727   4.144
47907W        W16237  11.661   7.398  10.051
47908W        W16238   4.380  18.276   0.780
47909W        W16239  36.492  20.250  14.763
47910W        W16240   5.320  14.721   4.613
47911W        W16241  12.190  38.504   3.163
47912W        W16242  24.704   7.363  13.822
47913W        W16243  17.617  20.036   0.468
47914W        W16244  30.998   9.358  12.096
47915W        W16245  32.570  32.910   2.781
47916W        W16246  24.013   1.351   1.248
47917W        W16247  34.558  44.354  11.508
47918W        W16248   5.687  11.198  12.988
47919W        W16249   5.399  22.109  10.429
47920W        W16250  13.240  12.802   1.930
47921W        W16251  12.788  21.733   2.710
47922W        W16252  42.963  35.954  11.942
47923W        W16253  41.003  32.027   0.328
47924W        W16254  33.427  20.167  10.101
47925W        W16255  10.299  20.710   4.200
47926W        W16256   9.823   7.737   2.901
47927W        W16257  15.738   1.343   0.900
47928W        W16258   6.264   8.669  10.122
47929W        W16259  19.715  23.035   0.858
47930W        W16260  36.099  36.066   1.430
47931W        W16261  18.587  39.543   2.411
47932W        W16262  19.772  16.108  13.870
47933W        W16263  21.743  21.106   4.782
47934W        W16264  19.629  28.077  10.403
47935W        W16265  17.583  23.705   3.213
47936W        W16266  23.161  31.402  10.538
47937W        W16267  35.533  35.923   2.662
47938W        W16268  13.203  27.571  14.959
47939W        W16269  34.550  25.142  10.484
47940W        W16270  14.155   0.437  10.411
47941W        W16271  33.398  44.981   4.666
47942W        W16272  12.761  20.660  10.542
47943W        W16273  34.111  33.440  12.549
47944W        W16274   2.343  20.207   0.744
47945W        W16275  41.792  35.517  11.981
47946W        W16276  29.431  18.549  11.920
47947W        W16277  26.556  41.487  12.942
47948W        W16278  19.203   3.799  14.960
47949W        W16279   6.346  34.010  13.338
47950W        W16280  39.532  29.951  10.530
47951W        W16281  20.758  21.228  12.556
47952W        W16282  11.658  43.360   0.304
47953W        W16283   6.692  34.080  14.758
47954W        W16284   5.890  25.670   1.439
47955W        W16285  32.939   1.899  13.993
47956W        W16286  22.125   2.318   0.898
47957W        W16287  28.540  21.154  13.467
47958W        W16288  25.597  33.089  11.058
47959W        W16289   0.761  35.482   0.452
47960W        W16290  12.158   8.179  13.015
47961W        W16291  41.880  31.567  11.470
47962W        W16292  41.959   2.471  10.636
47963W        W16293   7.897   6.313   3.787
47964W        W16294  21.078  15.215   2.245
47965W        W16295  12.141  33.913  10.616
47966W        W16296  11.164  31.997  10.995
47967W        W16297  25.029  35.516   0.463
47968W        W16298  16.804  44.410   0.951
47969W        W16299  25.510   1.392  12.545
47970W        W16300   8.308   7.225  14.006
47971W        W16301  29.567  26.662  12.857
47972W        W16302  13.622  19.664  13.045
47973W        W16303  18.119  30.037   3.860
47974W        W16304  26.608   5.715   0.367
47975W        W16305  23.623  13.618  12.538
47976W        W16306  21.573  13.749   3.153
47977W        W16307   9.781  40.380   4.174
47978W        W16308  30.941   0.753  13.892
47979W        W16309  38.516  42.476   1.853
47980W        W16310  40.903  33.571   4.734
47981W        W16311   0.949   2.873  13.842
47982W        W16312  34.407  34.891   2.253
47983W        W16313   8.337  26.510   2.894
47984W        W16314   2.446  43.282   1.894
47985W        W16315   7.806   8.211   3.848
47986W        W16316   8.230  33.514  13.805
47987W        W16317  28.976  12.825  12.387
47988W        W16318  28.056  28.990   4.154
47989W        W16319   2.954  34.089  13.418
47990W        W16320  10.694  13.264   4.273
47991W        W16321  27.166  33.411   4.737
47992W        W16322  15.699  22.582  11.980
47993W        W16323  25.131  30.088  10.510
47994W        W16324   9.302  27.489   2.891
47995W        W16325  12.211  12.161  10.627
47996W        W16326   0.441  43.982   3.177
47997W        W16327  36.928  15.625   2.733
47998W        W16328  22.627  10.837   0.277
47999W        W16329  10.857   6.342   3.734
48000W        W16330  20.253  37.390   2.781
48001W        W16331  35.490  13.837  14.906
48002W        W16332   3.926  23.199   3.290
48003W        W16333  26.168  21.691  10.906
48004W        W16334  31.153   6.296   0.278
48005W        W16335   0.964  31.566   3.382
48006W        W16336  25.510   3.458  10.960
48007W        W16337  40.915  40.448   1.757
48008W        W16338  43.776  32.070   0.880
48009W        W16339  32.967  34.395  13.009
48010W        W16340  21.638  14.174  13.955
48011W        W16341  21.132  25.637  12.445
48012W        W16342  26.488  26.100  11.879
48013W        W16343  15.593  41.352  13.807
48014W        W16344  20.156   5.270   1.898
48015W        W16345   1.406  41.380  12.541
48016W        W16346  15.171  42.004   1.360
48017W        W16347  37.564  22.571  13.908
48018W        W16348  42.840  14.279   3.635
48019W        W16349  27.049   4.768  10.585
48020W        W16350   8.257   9.746  13.420
48021W        W16351   2.259  43.383  13.849
48022W        W16352   6.253  32.070  12.421
48023W        W16353  12.686  15.256   0.420
48024W        W16354   9.735  10.290   3.194
48025W        W16355  41.004  30.079   3.241
48026W        W16356  35.361   7.386   0.323
48027W        W16357   3.903  24.681   1.712
48028W        W16358  29.438   6.358  10.018
48029W        W16359  11.288  38.043  12.077
48030W        W16360  23.498  42.513  13.932
48031W        W16361  12.206   7.753  10.927
48032W        W16362  34.887  31.033  11.376
48033W        W16363  40.826   1.285   0.400
48034W        W16364  34.955   7.904   5.105
48035W        W16365  14.801  39.930  13.871
48036W        W16366  28.066  35.525  12.023
48037W        W16367  31.444  36.948  12.899
48038W        W16368  15.217  39.456  14.923
48039W        W16369  32.484  15.239   3.290
48040W        W16370   5.902  32.480   1.410
48041W        W16371  35.391  39.429  13.913
48042W        W16372   4.824  39.918  12.542
48043W        W16373  13.635  10.686  10.437
48044W        W16374   7.814  35.098   3.696
48045W        W16375  41.376  18.663  14.872
48046W        W16376  36.579  13.336  13.849
48047W        W16377  22.217  31.476   1.935
48048W        W16378  19.601  20.202   0.351
48049W        W16379   7.684  10.759  13.519
48050W        W16380   0.298  10.733  11.119
48051W        W16381  39.902  39.449  13.488
48052W        W16382  11.341  26.692  11.955
48053W        W16383  16.701   6.790  13.931
48054W        W16384  30.964  21.157   0.749
48055W        W16385  18.719   8.397  13.034
48056W        W16386  43.821  28.594   3.847
48057W        W16387   0.939  11.249  12.961
48058W        W16388  33.922  34.867   4.702
48059W        W16389   4.294  37.557  10.099
48060W        W16390   2.428  37.537   3.211
48061W        W16391  20.599  27.018  11.095
48062W        W16392   7.730  41.959  11.035
48063W        W16393  32.903  29.152   4.253
48064W        W16394   4.860  20.033   1.837
48065W        W16395  28.680  32.060  11.911
48066W        W16396  41.527   2.341  14.769
48067W        W16397  15.232   7.227  12.000
48068W        W16398  13.115   8.256   4.324
48069W        W16399   3.319  36.065  12.073
48070W        W16400   8.330  35.031  14.838
48071W        W16401   1.876  26.133   0.940
48072W        W16402  34.893  29.077  14.779
48073W        W16403  27.524  37.477  14.380
48074W        W16404  19.238  24.116   1.739
48075W        W16405   7.683  38.846  14.795
48076W        W16406  44.830   4.867  13.974
48077W        W16407  29.932  41.969  13.944
48078W        W16408  23.672  20.062   0.865
48079W        W16409  24.535  37.393   3.751
48080W        W16410  38.058   3.238  10.999
48081W        W16411   7.857   9.377  13.390
48082W        W16412   6.876  26.576  11.472
48083W        W16413   0.833  34.493  11.049
48084W        W16414  14.239   4.909   3.206
48085W        W16415  44.817  44.428  11.461
48086W        W16416  44.940  36.530   2.305
48087W        W16417  34.517  16.809   1.303
48088W        W16418  13.760  43.878   3.189
48089W        W16419  43.396  22.007  13.456
48090W        W16420  30.596  42.823  13.413
48091W        W16421  11.744  31.614   3.285
48092W        W16422  12.201   9.663  11.606
48093W        W16423  15.774  15.147   1.742
48094W        W16424  16.223  40.952  12.033
48095W        W16425   9.776  12.679  11.518
48096W        W16426  35.889   1.285   2.675
48097W        W16427  37.426  16.714   4.204
48098W        W16428  39.980   5.822   9.625
48099W        W16429  14.783  15.330  10.984
48100W        W16430  10.181  22.122  10.422
48101W        W16431  20.648  25.584  11.464
48102W        W16432   1.371  29.136   4.298
48103W        W16433  43.893  30.073  10.496
48104W        W16434  23.654  39.397   3.215
48105W        W16435   7.364  30.996   4.820
48106W        W16436  34.542  25.632  11.092
48107W        W16437  43.478  16.255   1.917
48108W        W16438  40.886  37.520   3.647
48109W        W16439  42.823  14.687  11.458
48110W        W16440  12.778  18.203   3.774
48111W        W16441  20.040   3.248   4.759
48112W        W16442  14.276  30.645   0.913
48113W        W16443  16.792   1.291  14.446
48114W        W16444   6.224   6.339   0.327
48115W        W16445   6.191  26.556   5.278
48116W        W16446  32.511  29.985  11.417
48117W        W16447  39.824  24.191  14.300
48118W        W16448  26.595  10.782  11.020
48119W        W16449   4.873  32.965   3.744
48120W        W16450  16.604  18.581   0.458
48121W        W16451  36.498   1.928   2.809
48122W        W16452  28.572  37.832  14.796
48123W        W16453  31.952  19.085   5.570
48124W        W16454  38.443   0.803   2.236
48125W        W16455  18.095  12.325  12.471
48126W        W16456  32.574   6.920  11.380
48127W        W16457  18.657  20.688   0.740
48128W        W16458   1.366  38.505   3.228
48129W        W16459  23.068  32.510   1.844
48130W        W16460  42.948  33.587   2.273
48131W        W16461  10.648  39.411   2.850
48132W        W16462  14.664  44.802  14.360
48133W        W16463  14.623  30.513   3.330
48134W        W16464  33.935   8.778  11.544
48135W        W16465  13.205  13.648  10.922
48136W        W16466  44.444  25.163  11.448
48137W        W16467  33.917   5.885  11.541
48138W        W16468  34.493  28.649   4.831
48139W        W16469  17.578  33.113   0.730
48140W        W16470   6.416   8.814   1.235
48141W        W16471   5.363  30.140  13.465
48142W        W16472  38.874  32.575   0.337
48143W        W16473  27.581  37.533   2.398
48144W        W16474  33.921  33.577  11.419
48145W        W16475  42.460  16.179   3.756
48146W        W16476  13.143   4.274  10.410
48147W        W16477  36.873  24.112  13.817
48148W        W16478  44.320  37.004  11.935
48149W        W16479   3.780  18.636   2.213
48150W        W16480  27.689  28.002   4.648
48151W        W16481  14.697  26.100   2.708
48152W        W16482  15.293  17.567   1.377
48153W        W16483  38.977   2.910  13.834
48154W        W16484  13.612   5.748   3.803
48155W        W16485  32.058  16.271  13.909
48156W        W16486  21.532  17.561  14.818
48157W        W16487  39.054  42.520   3.335
48158W        W16488  29.159  17.664  13.959
48159W        W16489  25.713  28.522  11.020
48160W        W16490   8.299   1.755  14.949
48161W        W16491  27.116  36.998   0.945
48162W        W16492  38.860  38.348   4.771
48163W        W16493  24.116  30.929   3.692
48164W        W16494  19.080  42.518  11.405
48165W        W16495  28.499  20.229   0.772
48166W        W16496  21.687  35.532  14.404
48167W        W16497  33.612  26.095   2.360
48168W        W16498  41.392  28.634  13.335
48169W        W16499  34.098  13.203  12.503
48170W        W16500  42.372   5.779   0.907
48171W        W16501   0.905   7.793  13.886
48172W        W16502  10.331  14.181   3.639
48173W        W16503  39.376  12.799   5.119
48174W        W16504  34.099  36.890   3.803
48175W        W16505  40.909   4.268   1.238
48176W        W16506  25.037   0.985   3.853
48177W        W16507  21.190   2.243   4.624
48178W        W16508  39.431  32.470  12.015
48179W        W16509  44.444   3.729   3.718
48180W        W16510  29.615  40.883  13.473
48181W        W16511  24.997  16.126   3.869
48182W        W16512  42.888   1.839  13.834
48183W        W16513  28.042  30.065  12.996
48184W        W16514  35.528  23.070   4.744
48185W        W16515  18.571  27.065   2.860
48186W        W16516  10.374  27.555  10.102
48187W        W16517  13.628  37.507  10.463
48188W        W16518  13.667  18.757  13.437
48189W        W16519  23.659   8.665   0.466
48190W        W16520  31.455   4.424   1.219
48191W        W16521  34.939  12.160  13.955
48192W        W16522  31.921  31.089  11.506
48193W        W16523  37.357  38.967  14.305
48194W        W16524   6.793  14.651   1.711
48195W        W16525  38.888  36.025   1.381
48196W        W16526  15.697  13.619  12.418
48197W        W16527   5.434   7.865   3.762
48198W        W16528  24.081  11.330   2.251
48199W        W16529  43.866   4.217  10.482
48200W        W16530  29.021  40.366  12.085
48201W        W16531  25.198  22.638  13.870
48202W        W16532  22.719   3.412  14.816
48203W        W16533  26.151   1.746  11.389
48204W        W16534  20.722   5.422   4.789
48205W        W16535  12.241  43.394  11.019
48206W        W16536  21.747  30.153   3.838
48207W        W16537   2.915   5.224   0.292
48208W        W16538   9.349  25.966   0.482
48209W        W16539  42.342  10.166   4.318
48210W        W16540   8.377  34.007  10.996
48211W        W16541   9.751  23.527   4.165
48212W        W16542   5.834  40.338  14.959
48213W        W16543   6.246  42.375  10.634
48214W        W16544  43.779  26.675   1.229
48215W        W16545  42.375   3.407  11.011
48216W        W16546  27.635  28.619   3.698
48217W        W16547   9.350  16.755  13.536
48218W        W16548   4.209  37.433   4.260
48219W        W16549   2.414  32.958  14.962
48220W        W16550  14.212  37.834  12.981
48221W        W16551  21.677  28.118   0.733
48222W        W16552  18.784  34.981   2.191
48223W        W16553  35.937  43.503   4.159
48224W        W16554  15.237   4.239  13.031
48225W        W16555  15.789   0.436   2.374
48226W        W16556  31.520  30.619   1.912
48227W        W16557  19.284  22.037  10.993
48228W        W16558  38.354  30.472   0.370
48229W        W16559  43.309  26.065   0.403
48230W        W16560   3.393  41.893  10.444
48231W        W16561  16.778   7.291   2.847
48232W        W16562  44.488   1.791  12.905
48233W        W16563  24.490  31.613  12.938
48234W        W16564   5.806  13.704  14.962
48235W        W16565  27.941  41.392  13.900
48236W        W16566   1.327  24.530  14.354
48237W        W16567  38.986  38.908   4.745
48238W        W16568  28.554   8.260   1.398
48239W        W16569  14.704  28.673   2.680
48240W        W16570  25.590   4.382   4.212
48241W        W16571  41.014   5.411   0.796
48242W        W16572  38.561  43.508   0.779
48243W        W16573   0.778   5.426   4.837
48244W        W16574  23.991   8.713   4.763
48245W        W16575  15.590  11.292  12.024
48246W        W16576  43.373  12.154   4.301
48247W        W16577  31.023  27.002   3.188
48248W        W16578   8.321  21.034   0.470
48249W        W16579  43.375  15.090   2.391
48250W        W16580  34.566   6.773   0.419
48251W        W16581  26.992   7.852   4.312
48252W        W16582  29.959  40.942  12.521
48253W        W16583  38.961  15.654   5.211
48254W        W16584  40.966  22.680   1.742
48255W        W16585  30.071   3.278  12.398
48256W        W16586  18.667  38.057   0.907
48257W        W16587  31.429   0.377  11.083
48258W        W16588  27.624  16.090  12.913
48259W        W16589  39.904  17.792  13.352
48260W        W16590  27.123  16.720  12.420
48261W        W16591  44.927  38.984  14.467
48262W        W16592  10.816  28.036   3.157
48263W        W16593   6.280  25.624   3.812
48264W        W16594   0.964   0.743  14.432
48265W        W16595  12.204  35.976   4.355
48266W        W16596  13.127  20.222   3.152
48267W        W16597  24.490  25.013  13.537
48268W        W16598  41.374  33.517   3.293
48269W        W16599  18.731  34.057  13.893
48270W        W16600  13.600  13.827  11.409
48271W        W16601  31.075  33.047   3.703
48272W        W16602  12.126  37.896   2.828
48273W        W16603  18.682  25.077  12.476
48274W        W16604  35.068  20.238  13.888
48275W        W16605   6.798  27.475   4.804
48276W        W16606   7.888  22.720  13.949
48277W        W16607  42.506  23.219   0.891
48278W        W16608  33.471   2.902  12.833
48279W        W16609  20.763  20.208   2.695
48280W        W16610  19.121   6.891  12.384
48281W        W16611   7.835  38.471   0.466
48282W        W16612  38.484  29.981   3.835
48283W        W16613  20.722  28.597  11.538
48284W        W16614  16.170  23.722  11.399
48285W        W16615  21.188  41.852  11.940
48286W        W16616  24.479  16.078  14.476
48287W        W16617   7.900  37.355   1.329
48288W        W16618  36.858  34.954   1.739
48289W        W16619   1.394  17.270  11.064
48290W        W16620   9.291  16.258   3.288
48291W        W16621  38.974  14.598   0.847
48292W        W16622  25.179  38.433  13.438
48293W        W16623  10.645  25.683  14.416
48294W        W16624  16.675   9.694  12.552
48295W        W16625  41.352   7.409  14.324
48296W        W16626  20.238  32.961  14.946
48297W        W16627   9.197  25.004   0.410
48298W        W16628  20.088   9.738   1.810
48299W        W16629   6.349  36.859  11.866
48300W        W16630  11.691  30.594   1.377
48301W        W16631   9.878  41.879   2.784
48302W        W16632  31.571  22.556  14.936
48303W        W16633  40.872   8.258  10.067
48304W        W16634   6.858  36.032  11.059
48305W        W16635  15.175  19.563   4.729
48306W        W16636   4.792  11.704   2.340
48307W        W16637  24.185  20.604  13.508
48308W        W16638  40.522  16.208   4.782
48309W        W16639  40.488   8.388   2.384
48310W        W16640  42.025  15.116  10.888
48311W        W16641  16.316  31.048   2.209
48312W        W16642  11.140  23.184  13.372
48313W        W16643  34.928  19.067  12.432
48314W        W16644   4.249  21.751  12.378
48315W        W16645  35.897   1.899  14.370
48316W        W16646  15.801  18.226  14.363
48317W        W16647  18.602  42.426   1.434
48318W        W16648   0.976   9.866   0.950
48319W        W16649  39.382  20.161  11.998
48320W        W16650  40.364   9.869  12.033
48321W        W16651  37.871  26.068  10.526
48322W        W16652   5.747  13.619   4.788
48323W        W16653  30.535  42.820   3.191
48324W        W16654  20.735  42.818   4.656
48325W        W16655  26.001  10.245  13.896
48326W        W16656   1.366  37.911  12.533
48327W        W16657  32.555  14.598  14.927
48328W        W16658  32.537   4.726  13.536
48329W        W16659   4.918  29.932  11.908
48330W        W16660  21.240  35.031  10.645
48331W        W16661  29.040  29.532  14.330
48332W        W16662  28.628  16.592   4.816
48333W        W16663   2.263  30.418   2.283
48334W        W16664   7.413  11.272  14.820
48335W        W16665  36.443  19.700  11.957
48336W        W16666  35.524   1.805   0.270
48337W        W16667  15.091  27.502   3.676
48338W        W16668  32.479  41.496   4.680
48339W        W16669   9.359  41.518  14.972
48340W        W16670  39.449  36.591  10.581
48341W        W16671  20.144  14.592   1.829
48342W        W16672   7.312  20.648  13.798
48343W        W16673  32.999  24.190  10.978
48344W        W16674  36.529  23.079   4.209
48345W        W16675  19.171  10.756  11.410
48346W        W16676   6.236  27.074   2.257
48347W        W16677   2.746  10.374   1.354
48348W        W16678  13.267  16.791  11.475
48349W        W16679  39.349  37.963  14.463
48350W        W16680   9.815   5.913  12.830
48351W        W16681  42.793  37.371   2.896
48352W        W16682   0.875  10.772  13.993
48353W        W16683  25.515  41.025   2.285
48354W        W16684  26.085  23.696   0.263
48355W        W16685  37.540  18.078   1.302
48356W        W16686   4.853  17.086  10.511
48357W        W16687  15.209  33.510   4.138
48358W        W16688  12.173   1.973   2.401
48359W        W16689  14.599  11.180   1.392
48360W        W16690  23.033  22.047   1.761
48361W        W16691  30.141  33.971  11.483
48362W        W16692  14.187  26.134  10.459
48363W        W16693   7.336  36.455  12.388
48364W        W16694  35.387  23.698   1.236
48365W        W16695   6.335  32.402  13.864
48366W        W16696  14.714  44.800   3.679
48367W        W16697  43.388  38.893  14.776
48368W        W16698  34.510  23.009  11.541
48369W        W16699  16.660   9.798   3.320
48370W        W16700  12.160  20.029   0.836
48371W        W16701  20.676   3.452   3.231
48372W        W16702  42.519  35.494  11.040
48373W        W16703   6.321  22.211   0.388
48374W        W16704  42.444  33.995  10.522
48375W        W16705  11.719  25.120   3.160
48376W        W16706  36.019  19.271  11.899
48377W        W16707  32.442   6.349   1.275
48378W        W16708  17.627   2.729   3.690
48379W        W16709  16.142  41.498   4.267
48380W        W16710  23.227  23.096  13.377
48381W        W16711  33.067   6.860  13.875
48382W        W16712  27.596  32.002  11.372
48383W        W16713  32.589   9.818   2.756
48384W        W16714  23.730  35.416   4.696
48385W        W16715  10.383  39.970   3.797
48386W        W16716  41.036   9.384  13.465
48387W        W16717   6.810  26.504   3.743
48388W        W16718  43.511  43.478   2.388
48389W        W16719  17.661  40.869   1.335
48390W        W16720   3.917   7.710   4.218
48391W        W16721  19.744  29.524   1.443
48392W        W16722  34.000   8.171  10.525
48393W        W16723  16.759  28.971   3.271
48394W        W16724  17.244  14.798  10.539
48395W        W16725  25.571  30.038  11.413
48396W        W16726  16.205  37.909   5.167
48397W        W16727   0.456  20.038   1.403
48398W        W16728  30.093  39.063  12.446
48399W        W16729  17.680  13.310  10.595
48400W        W16730  11.163  42.998   4.608
48401W        W16731  14.740  34.395  11.391
48402W        W16732  12.681  26.608  11.457
48403W        W16733   5.399  15.730  13.852
48404W        W16734  21.530  17.784  11.399
48405W        W16735  25.025  33.608   0.346
48406W        W16736   8.871  17.174  13.425
48407W        W16737  12.838  27.519  11.900
48408W        W16738   0.826  30.144   0.460
48409W        W16739  11.799  18.778  10.576
48410W        W16740  29.455  23.591  11.128
48411W        W16741  11.782  22.075   0.826
48412W        W16742   9.337   8.794  14.306
48413W        W16743   7.893   3.854  11.497
48414W        W16744  37.080   1.890   0.355
48415W        W16745   4.450  40.489  10.545
48416W        W16746  38.973  41.043   3.282
48417W        W16747  37.039  32.930   0.386
48418W        W16748  38.075  34.026  12.566
48419W        W16749  26.460  41.430   0.337
48420W        W16750  38.884  23.596   4.622
48421W        W16751  12.340  26.549   1.806
48422W        W16752  38.875  10.734   0.425
48423W        W16753  10.351  26.209  11.911
48424W        W16754  10.816  10.639  11.009
48425W        W16755  25.513  35.953  14.761
48426W        W16756  34.022  18.070  11.454
48427W        W16757  41.366  37.451   1.324
48428W        W16758  28.678  15.220   1.819
48429W        W16759  40.852  44.829   1.373
48430W        W16760  32.059  21.623   3.298
48431W        W16761  31.092  36.891   3.298
48432W        W16762  44.342  27.633  14.789
48433W        W16763  10.362  30.478   3.853
48434W        W16764  10.775  38.955   2.265
48435W        W16765  28.009  28.562  13.818
48436W        W16766  16.720  39.484   2.828
48437W        W16767  16.802   0.433   2.786
48438W        W16768  26.626  43.314  11.948
48439W        W16769   1.337  11.262   3.834
48440W        W16770  42.004  34.113  14.791
48441W        W16771   4.444  13.346   4.223
48442W        W16772   7.673  29.922  14.786
48443W        W16773  35.940  30.028  13.470
48444W        W16774  33.065  44.766   0.353
48445W        W16775  18.620   0.950  12.361
48446W        W16776   5.253  12.140  13.909
48447W        W16777   3.940  44.942   1.378
48448W        W16778  38.524  17.128  10.521
48449W        W16779  15.116  27.510  13.322
48450W        W16780  17.161  10.274  14.923
48451W        W16781  14.743  40.326  14.020
48452W        W16782  27.691   5.389   1.215
48453W        W16783  36.876  25.141  13.824
48454W        W16784  13.806  24.645   4.679
48455W        W16785  43.913  16.629   3.805
48456W        W16786  40.814  26.586  12.010
48457W        W16787  41.507  23.026   4.171
48458W        W16788   8.296   8.743  12.847
48459W        W16789  15.666  21.584   0.287
48460W        W16790  37.910   1.793   4.152
48461W        W16791   8.210  36.052   0.354
48462W        W16792  28.945  13.148  12.920
48463W        W16793  41.814   4.805   0.399
48464W        W16794  26.066  34.887  12.951
48465W        W16795  20.610   7.227   3.778
48466W        W16796  37.388  43.284  14.968
48467W        W16797  44.333  16.228  14.979
48468W        W16798  18.116   8.193  11.024
48469W        W16799  20.752  12.173   2.800
48470W        W16800   9.294  27.947  11.608
48471W        W16801  39.844   0.771  13.450
48472W        W16802  44.361   7.912  13.015
48473W        W16803  31.564   1.763  14.440
48474W        W16804  19.769  32.088  12.396
48475W        W16805   5.429  30.145  11.395
48476W        W16806  23.157  18.755   4.314
48477W        W16807  37.902  15.168  10.499
48478W        W16808   3.767  39.350   5.620
48479W        W16809  21.695  25.119  13.874
48480W        W16810  32.437  36.452  14.490
48481W        W16811   4.371  18.750   2.813
48482W        W16812  20.553  25.013   0.411
48483W        W16813  26.974  21.516  11.453
48484W        W16814   9.678  13.729  13.341
48485W        W16815  24.719  37.962  14.841
48486W        W16816   0.792  13.667  14.427
48487W        W16817  40.345  35.885   9.932
48488W        W16818  36.438  31.410   3.767
48489W        W16819  41.846  36.478   3.149
48490W        W16820  43.815  31.007   2.745
48491W        W16821  40.956  41.336  11.118
48492W        W16822   9.163   6.733  10.930
48493W        W16823   8.711  28.081   0.437
48494W        W16824   9.853  31.436   2.679
48495W        W16825  21.177  15.741   4.197
48496W        W16826  28.532   2.333   0.254
48497W        W16827  20.169   1.780  10.407
48498W        W16828  39.942  32.011   2.801
48499W        W16829  22.060  28.004  10.005
48500W        W16830  37.944  33.382   4.629
48501W        W16831  29.597  24.080   2.763
48502W        W16832  25.581  25.162   0.879
48503W        W16833  19.714  40.979   3.205
48504W        W16834  13.269  43.297  12.523
48505W        W16835  41.955   5.906  13.461
48506W        W16836  12.765  43.342  13.461
48507W        W16837  16.310  21.749   2.393
48508W        W16838  18.112  27.603  14.978
48509W        W16839  18.189   0.778  11.887
48510W        W16840  32.613  25.505  13.879
48511W        W16841  41.304   0.786   2.877
48512W        W16842  24.607  28.972  12.026
48513W        W16843  18.775  28.663   3.317
48514W        W16844  30.059  19.650  11.526
48515W        W16845  28.140  38.043   3.261
48516W        W16846  23.564   8.846  13.056
48517W        W16847  14.637  29.160  11.553
48518W        W16848   6.684  17.780  10.995
48519W        W16849   8.741   5.923  13.545
48520W        W16850   4.370  26.683  14.379
48521W        W16851  10.710  10.789  10.584
48522W        W16852  23.517  32.041   1.928
48523W        W16853  22.176  28.499   0.743
48524W        W16854   7.679   8.215  14.483
48525W        W16855  13.201   3.782  13.795
48526W        W16856  21.261  10.193  10.100
48527W        W16857   6.719   3.892   0.737
48528W        W16858  15.162  22.538   3.149
48529W        W16859  31.014  28.533  14.505
48530W        W16860  35.071  23.491   4.693
48531W        W16861  33.092  29.570   1.757
48532W        W16862   7.201  36.860   3.849
48533W        W16863  24.112  26.132   3.765
48534W        W16864  20.638  20.666   4.283
48535W        W16865   5.366  17.560   4.654
48536W        W16866  29.921  15.657   0.854
48537W        W16867  28.505  28.498  13.474
48538W        W16868  30.646  31.931  14.832
48539W        W16869  21.586  16.110   5.621
48540W        W16870  37.025  30.144   3.742
48541W        W16871  20.678  14.759  13.934
48542W        W16872  41.365   1.312  10.574
48543W        W16873  43.769   5.711   0.965
48544W        W16874  30.554   2.370  11.108
48545W        W16875  14.321  39.062  14.953
48546W        W16876  19.225  37.529  11.115
48547W        W16877  21.533  20.709   2.774
48548W        W16878  30.506  29.924   1.227
48549W        W16879  35.571  28.587  12.492
48550W        W16880  34.488  15.655  10.432
48551W        W16881  40.035   4.206   4.637
48552W        W16882  14.250  25.105   2.283
48553W        W16883  16.161  33.009   2.367
48554W        W16884  31.027  32.427   3.754
48555W        W16885  27.987  21.114  10.055
48556W        W16886  40.454  29.582  10.915
48557W        W16887  23.610  39.007   0.967
48558W        W16888   5.864  31.073   4.313
48559W        W16889  32.632  30.613   1.736
48560W        W16890  39.427  16.699  11.546
48561W        W16891   2.806  35.565  11.388
48562W        W16892  10.757  18.703   2.340
48563W        W16893  34.448  29.578   2.318
48564W        W16894  17.149  11.264  11.498
48565W        W16895  13.740  12.318  10.470
48566W        W16896   5.283  27.178  12.457
48567W        W16897  23.171   3.365   2.234
48568W        W16898  14.775  16.270   3.646
48569W        W16899   4.830  38.564  13.018
48570W        W16900  42.990  37.532  11.977
48571W        W16901  13.151  41.898   4.317
48572W        W16902  32.994  22.179   0.966
48573W        W16903  10.266  19.733  11.569
48574W        W16904   0.294   2.916   1.844
48575W        W16905  21.694  10.321  13.376
48576W        W16906  24.601  12.792  14.274
48577W        W16907  32.450  23.717  11.438
48578W        W16908  10.691  29.427  12.956
48579W        W16909  16.623  39.466  14.861
48580W        W16910  44.815  31.577   2.307
48581W        W16911  20.699  20.094  10.625
48582W        W16912  34.499  37.423   0.287
48583W        W16913  13.666  31.534  13.902
48584W        W16914  24.601  33.973  11.932
48585W        W16915  35.968  13.133  13.442
48586W        W16916  40.409  40.843  12.950
48587W        W16917  22.613   0.410   0.275
48588W        W16918  39.510  40.322   1.895
48589W        W16919  24.634  31.595  12.348
48590W        W16920   4.423  34.096   4.675
48591W        W16921  33.902  21.070  13.465
48592W        W16922   2.385  32.636   4.218
48593W        W16923  25.553   6.322  11.383
48594W        W16924  24.164  10.729   2.690
48595W        W16925  25.600   2.412   1.774
48596W        W16926  38.833  27.136  12.537
48597W        W16927  18.150  21.071   2.217
48598W        W16928  30.474  22.542  10.932
48599W        W16929   1.397   0.832  13.967
48600W        W16930  17.120  20.539   3.274
48601W        W16931  39.432  39.479   2.873
48602W        W16932   9.862  17.661  13.898
48603W        W16933   1.801  41.811  13.538
48604W        W16934  12.149  23.562  13.010
48605W        W16935  34.954  43.933   1.867
48606W        W16936  12.680  23.682   0.287
48607W        W16937  32.954  42.381  11.537
48608W        W16938   5.272   2.946   3.664
48609W        W16939  42.921   6.284   2.281
48610W        W16940   0.281  40.418  12.015
48611W        W16941  29.542  24.134  14.935
48612W        W16942  39.424  34.108  10.462
48613W        W16943  39.843  37.403   3.753
48614W        W16944  25.470  23.227  14.451
48615W        W16945  44.268  19.658   0.878
48616W        W16946  15.163  38.074  10.032
48617W        W16947  29.510  39.853  11.887
48618W        W16948  40.817  15.205   3.375
48619W        W16949  32.084  24.049  10.537
48620W        W16950  18.623  32.508   1.929
48621W        W16951  34.879  30.634   1.901
48622W        W16952  13.325  36.479  10.909
48623W        W16953  25.019   8.806  13.490
48624W        W16954  11.786  21.661  13.354
48625W        W16955  35.032  42.334  11.548
48626W        W16956  36.864  22.246   2.388
48627W        W16957  31.134   0.986  12.940
48628W        W16958  44.414   8.405  10.530
48629W        W16959   9.871  10.727  10.415
48630W        W16960  34.461  33.498   1.402
48631W        W16961  20.234  21.166  14.779
48632W        W16962  26.198  40.011  10.982
48633W        W16963  35.590   2.755  11.901
48634W        W16964   9.761  44.385   4.326
48635W        W16965   2.942  24.549  13.529
48636W        W16966  28.476  15.289   0.765
48637W        W16967  31.429  27.193  12.428
48638W        W16968  14.113  39.465  13.048
48639W        W16969  23.158  31.420   2.269
48640W        W16970   3.804  35.595  13.341
48641W        W16971  33.551  12.797   3.831
48642W        W16972  23.097   7.235  11.468
48643W        W16973  42.870  28.049   4.663
48644W        W16974  24.696  36.451   3.275
48645W        W16975  39.363   7.198   1.350
48646W        W16976  36.484  25.691  10.544
48647W        W16977  31.023  30.149  11.455
48648W        W16978  44.501  36.422  12.508
48649W        W16979  39.961  38.959  10.594
48650W        W16980   5.856  17.117  13.966
48651W        W16981  27.598  20.096   0.389
48652W        W16982   8.333   9.741  11.474
48653W        W16983  22.016  38.490   1.758
48654W        W16984  33.942  30.562   4.128
48655W        W16985  36.453   4.290  11.389
48656W        W16986   4.828  31.491  13.914
48657W        W16987  22.613  42.308  11.532
48658W        W16988  19.551  10.808  13.813
48659W        W16989  22.662  24.633  14.345
48660W        W16990  14.146  10.781   0.313
48661W        W16991   9.191   5.276   3.316
48662W        W16992   6.368  16.670   4.349
48663W        W16993  36.364  35.450  11.010
48664W        W16994  34.940  30.437  12.439
48665W        W16995   1.295  43.017  10.540
48666W        W16996  32.575  27.679   3.372
48667W        W16997  13.680  21.565  14.296
48668W        W16998  19.729  40.461  14.846
48669W        W16999   0.327  13.797   3.786
48670W        W17000  33.084  38.461   0.429
48671W        W17001  43.494  11.706  11.862
48672W        W17002   1.382  30.108  12.477
48673W        W17003  44.455   8.835  10.424
48674W        W17004  31.980  42.928   1.293
48675W        W17005  22.135  23.014  10.636
48676W        W17006  15.270  27.457  10.983
48677W        W17007  17.646  26.006  11.918
48678W        W17008  41.302  25.966   4.732
48679W        W17009  39.036   0.947   3.356
48680W        W17010   1.467   6.796   3.169
48681W        W17011  10.725   9.645  11.468
48682W        W17012   9.656  22.034   1.790
48683W        W17013  38.330  39.812  13.445
48684W        W17014  16.217  12.185  11.495
48685W        W17015  33.400  10.268   4.168
48686W        W17016  44.935  14.167  14.913
48687W        W17017   9.266   8.243   3.828
48688W        W17018   3.951  12.682   0.916
48689W        W17019  27.482  22.507   0.952
48690W        W17020  28.439  16.646  13.920
48691W        W17021   4.305  25.160  12.578
48692W        W17022  38.483   4.237   0.340
48693W        W17023  35.493  22.505   0.938
48694W        W17024  17.275  26.033   0.868
48695W        W17025  35.509  30.498  14.516
48696W        W17026   4.721   7.232  14.775
48697W        W17027  10.370  41.943   1.306
48698W        W17028  32.117  28.533   1.282
48699W        W17029   9.356   1.927   3.232
48700W        W17030  16.673   6.776   1.399
48701W        W17031  22.531  30.559  13.947
48702W        W17032   9.888  26.137  12.960
48703W        W17033  37.537  26.691   4.607
48704W        W17034   5.839  40.815   1.383
48705W        W17035  37.901  12.284   3.839
48706W        W17036  41.424  41.927  13.835
48707W        W17037  15.138  43.830  13.348
48708W        W17038  18.584  23.151  14.901
48709W        W17039  44.499  43.460  14.393
48710W        W17040  17.286  39.022  12.838
48711W        W17041  10.333  26.674  14.501
48712W        W17042  14.131   9.242   0.298
48713W        W17043   6.733  29.035  13.828
48714W        W17044   8.406   7.847   3.791
48715W        W17045  43.450   4.862   1.776
48716W        W17046   2.346  15.168  12.044
48717W        W17047  38.005  23.552  13.015
48718W        W17048  29.668  35.031  11.101
48719W        W17049   0.936  44.922   3.220
48720W        W17050  28.056   8.368  11.416
48721W        W17051  27.445  11.160  11.902
48722W        W17052  42.521  15.087  12.432
48723W        W17053  15.116  20.194   4.134
48724W        W17054  12.750  20.058  11.457
48725W        W17055  40.534  42.899  11.508
48726W        W17056  29.942  36.075   3.703
48727W        W17057  42.959  43.997  13.358
48728W        W17058   2.908   2.789  13.025
48729W        W17059  17.289  30.047   3.740
48730W        W17060  30.969   0.429   3.270
48731W        W17061  18.158   5.918  12.907
48732W        W17062  29.982   9.716   4.245
48733W        W17063  29.137   3.759   1.899
48734W        W17064  41.953  23.569  11.884
48735W        W17065  20.211  26.047  11.078
48736W        W17066   5.306  11.685   1.898
48737W        W17067   7.713  18.548   0.459
48738W        W17068   7.394   7.269   0.436
48739W        W17069  44.492  25.533  11.449
48740W        W17070  25.652  12.632   4.246
48741W        W17071  15.329  36.068   0.757
48742W        W17072  41.350  24.041   3.187
48743W        W17073  29.096  27.954   0.907
48744W        W17074  18.204  20.753   0.876
48745W        W17075  26.596  25.692   0.462
48746W        W17076  27.638  30.588  13.916
48747W        W17077  25.123  41.857  11.967
48748W        W17078   4.722  42.489  10.463
48749W        W17079  32.033  41.372  13.821
48750W        W17080  18.696  43.378   1.262
48751W        W17081  40.534  14.769  12.845
48752W        W17082  28.640  10.234  10.537
48753W        W17083  29.472  23.633  13.932
48754W        W17084  35.947  32.606   0.294
48755W        W17085  33.095  18.252  13.043
48756W        W17086   5.925   4.250   2.769
48757W        W17087  12.795  21.122  11.417
48758W        W17088  32.928  21.244   4.715
48759W        W17089  21.673  33.484   4.613
48760W        W17090  14.667   1.925   1.891
48761W        W17091  29.632  40.951   0.856
48762W        W17092  10.874   0.772   4.778
48763W        W17093  38.862  20.758   3.334
48764W        W17094  43.928  33.051  13.513
48765W        W17095  40.408  12.334  13.017
48766W        W17096  40.375  33.523   0.760
48767W        W17097  14.811  40.862   1.926
48768W        W17098  31.602  36.876  10.582
48769W        W17099  41.292  30.546  12.044
48770W        W17100  24.178  23.589  11.097
48771W        W17101  34.459  20.715  13.514
48772W        W17102  22.089  41.514   4.679
48773W        W17103  25.169  19.261   4.648
48774W        W17104  33.005  25.142  14.329
48775W        W17105   2.228  32.563   3.690
48776W        W17106  24.163  35.029  13.995
48777W        W17107   0.293  29.175  14.005
48778W        W17108   3.443  14.668  13.337
48779W        W17109   3.771  11.802   0.291
48780W        W17110  34.401  39.423  10.537
48781W        W17111  24.617  40.837   4.194
48782W        W17112  40.949  26.541   2.864
48783W        W17113  29.488  34.970  13.924
48784W        W17114  43.837  28.096   3.659
48785W        W17115  24.650  21.701   3.640
48786W        W17116  13.676  34.532  10.427
48787W        W17117  25.609   6.866   4.202
48788W        W17118  21.545   5.890   0.384
48789W        W17119  18.741   8.850  11.041
48790W        W17120  20.625  30.098  12.005
48791W        W17121  22.236  32.018  14.896
48792W        W17122  44.758   6.897  14.804
48793W        W17123  20.228  32.458   2.900
48794W        W17124  42.983  25.059   2.324
48795W        W17125  23.149  22.040   4.794
48796W        W17126  34.915  38.023  11.090
48797W        W17127  32.903   0.764  12.868
48798W        W17128  10.763   3.879   4.653
48799W        W17129  33.403  42.501  14.841
48800W        W17130  37.400  27.978  12.545
48801W        W17131   4.431  12.216  10.477
48802W        W17132  42.954  10.162  11.998
48803W        W17133  20.566  26.957   3.237
48804W        W17134   4.709  10.223  10.541
48805W        W17135   7.245  20.126  11.467
48806W        W17136   6.360   8.673  10.531
48807W        W17137  30.641  36.348   3.861
48808W        W17138  32.916  24.986  12.534
48809W        W17139  24.223  18.640   4.136
48810W        W17140  44.319  35.468   1.878
48811W        W17141  13.605   4.776  14.479
48812W        W17142   7.768  23.135  13.941
48813W        W17143  18.677  29.109   1.307
48814W        W17144  25.129   6.317  14.510
48815W        W17145  27.543  41.531   0.811
48816W        W17146   5.789  15.656   0.480
48817W        W17147  27.020   9.688  14.282
48818W        W17148  27.674  44.758   3.320
48819W        W17149  18.712  24.489   0.850
48820W        W17150  34.494  36.537  10.438
48821W        W17151  36.432  39.433   1.414
48822W        W17152  44.319  27.942  14.937
48823W        W17153  14.616  24.688   1.318
48824W        W17154   6.884  28.951   0.953
48825W        W17155   9.300  24.608   0.430
48826W        W17156  13.204  37.077   0.750
48827W        W17157  26.093  18.581  11.885
48828W        W17158  22.605  28.485   4.812
48829W        W17159  34.012  35.449   3.312
48830W        W17160  33.433   5.841   4.200
48831W        W17161   9.870  26.988  11.934
48832W        W17162  19.262   1.849   1.772
48833W        W17163  17.586  40.375   2.374
48834W        W17164   3.258   4.732   0.255
48835W        W17165  11.222   3.880   1.381
48836W        W17166  44.993  14.268  12.079
48837W        W17167   6.771  22.539   2.398
48838W        W17168  12.167   1.417   4.225
48839W        W17169  35.461  26.049   2.799
48840W        W17170  23.176  38.028   1.859
48841W        W17171  43.981   6.833   0.777
48842W        W17172  20.574   3.904   4.787
48843W        W17173  44.770   5.783  13.434
48844W        W17174  36.472  17.161   2.379
48845W        W17175  25.698  16.603   1.442
48846W        W17176  21.534   4.710   3.765
48847W        W17177  17.214  20.174   1.906
48848W        W17178  33.513  13.259   0.267
48849W        W17179  36.467   6.362   3.374
48850W        W17180  39.945  43.292  10.635
48851W        W17181  17.245  10.320   5.313
48852W        W17182   1.390  14.706   4.743
48853W        W17183   8.806  14.167   3.698
48854W        W17184  22.643  38.057  10.983
48855W        W17185  30.122  43.321   1.863
48856W        W17186   5.707  15.632   0.865
48857W        W17187  17.121   9.757  13.912
48858W        W17188  29.934   3.353   1.333
48859W        W17189  22.019  21.554   4.748
48860W        W17190   2.890  10.333  11.429
48861W        W17191   3.246  28.020   4.741
48862W        W17192  27.148  20.747   4.688
48863W        W17193   4.216   8.390   0.771
48864W        W17194  25.179  37.937  13.814
48865W        W17195  25.566  18.159  10.977
48866W        W17196   4.918  34.372   0.890
48867W        W17197  43.480  41.963  13.317
48868W        W17198  22.090   4.904  11.096
48869W        W17199  34.049  32.489  13.526
48870W        W17200  27.102  43.428   1.733
48871W        W17201   2.454  13.305  11.073
48872W        W17202   7.687  15.644  10.161
48873W        W17203   6.817  17.694   0.733
48874W        W17204  14.600  20.666   0.314
48875W        W17205  23.992  27.062   0.335
48876W        W17206  33.605   0.974  11.908
48877W        W17207  20.221  40.914   0.778
48878W        W17208  13.817  43.991   3.791
48879W        W17209   4.826   3.880   5.283
48880W        W17210  37.027  30.539  12.005
48881W        W17211  11.765  12.855   3.817
48882W        W17212  29.037  28.660   2.666
48883W        W17213  39.852   9.190   2.416
48884W        W17214   2.733  16.686   2.325
48885W        W17215  38.950   8.862   4.749
48886W        W17216  39.525   4.449   3.701
48887W        W17217  22.056  37.050  14.828
48888W        W17218  40.484  15.798  13.367
48889W        W17219  23.512  33.028   2.303
48890W        W17220  20.202  44.955  14.819
48891W        W17221  31.464  36.963   3.293
48892W        W17222  27.448  38.900   2.749
48893W        W17223  11.796  20.129   2.389
48894W        W17224  39.395   6.763  14.328
48895W        W17225  15.760  17.788  14.285
48896W        W17226   5.754  28.118  14.295
48897W        W17227  40.987  36.399   0.278
48898W        W17228   1.866  12.767   0.353
48899W        W17229  18.277  17.591   3.771
48900W        W17230  11.679  30.978  14.331
48901W        W17231  29.958  31.460   2.808
48902W        W17232   1.843  10.306   2.378
48903W        W17233   8.172  17.738  14.976
48904W        W17234   1.858  40.386   4.156
48905W        W17235   4.235  41.322  11.969
48906W        W17236   6.302  30.608   4.617
48907W        W17237  22.176  13.679  13.326
48908W        W17238  33.000  36.093   2.413
48909W        W17239   0.271  13.155  10.890
48910W        W17240   5.194  38.049  10.078
48911W        W17241  33.464  23.594  12.871
48912W        W17242   0.268   7.245   0.846
48913W        W17243  27.460  22.618   2.390
48914W        W17244  33.381  38.343   4.677
48915W        W17245  35.992  29.085   4.236
48916W        W17246  32.098  37.033  14.026
48917W        W17247  28.967  17.293   0.412
48918W        W17248  23.201  42.008  11.602
48919W        W17249  37.998  16.795   3.338
48920W        W17250  38.454   0.257  14.427
48921W        W17251  10.703  15.162   0.842
48922W        W17252   8.840  35.927  12.924
48923W        W17253  18.266  30.633   1.866
48924W        W17254  26.196  36.479   3.339
48925W        W17255   1.248   1.933   0.869
48926W        W17256  33.033  26.981   2.315
48927W        W17257   7.905  18.670  11.569
48928W        W17258  11.795  29.108  11.584
48929W        W17259  15.717  43.454   0.895
48930W        W17260  31.607  30.574  13.512
48931W        W17261  19.088   2.302  14.428
48932W        W17262  32.567  23.711  14.351
48933W        W17263  22.121   8.722   3.256
48934W        W17264  19.220   1.260  13.435
48935W        W17265  27.128  18.753  11.417
48936W        W17266  18.086  17.686  11.592
48937W        W17267  23.601  39.482   4.170
48938W        W17268  19.087  40.373  13.364
48939W        W17269   1.960  19.763  12.863
48940W        W17270  30.591  34.882   4.304
48941W        W17271  43.290   6.747   1.900
48942W        W17272  40.048  35.096   1.278
48943W        W17273  19.653  17.570  10.626
48944W        W17274  14.805   0.825  10.937
48945W        W17275   1.270   2.384  11.444
48946W        W17276  27.547  42.390   2.681
48947W        W17277  44.805  13.754   0.380
48948W        W17278   8.843  11.317  14.389
48949W        W17279  21.087   5.731  11.968
48950W        W17280  25.964  32.579  12.932
48951W        W17281  38.982  23.528   3.734
48952W        W17282  28.469  25.975   0.330
48953W        W17283  18.268  27.003   1.921
48954W        W17284  29.448  26.150  11.983
48955W        W17285  44.261  27.495  10.489
48956W        W17286   8.328   0.909   3.748
48957W        W17287  27.066  21.210   0.882
48958W        W17288  11.689  12.731   0.879
48959W        W17289  33.410  16.207  12.905
48960W        W17290  22.631  34.495  12.371
48961W        W17291  42.784   1.320  12.941
48962W        W17292   1.848  34.001   0.854
48963W        W17293  43.907  37.995   0.375
48964W        W17294  43.970  19.150  11.875
48965W        W17295  17.738   9.720   1.770
48966W        W17296  10.668  28.530   1.258
48967W        W17297  29.934  36.958   2.829
48968W        W17298  13.172  27.115   2.358
48969W        W17299   6.188   2.893  14.382
48970W        W17300  32.455   5.269   0.295
48971W        W17301  17.181  40.346   0.371
48972W        W17302  27.085   8.743   3.757
48973W        W17303  36.986  43.002  11.577
48974W        W17304  31.083  40.022   1.841
48975W        W17305   1.325  25.117  13.792
48976W        W17306  28.097   6.690   4.678
48977W        W17307  21.228  14.241   2.865
48978W        W17308  22.710  18.690   5.299
48979W        W17309  41.883  38.482   1.214
48980W        W17310  10.295   5.390   0.834
48981W        W17311   3.362  25.170  10.946
48982W        W17312  21.678  32.454  12.361
48983W        W17313  30.015  11.353   2.245
48984W        W17314  42.378  42.890  11.924
48985W        W17315  21.048  30.534  14.382
48986W        W17316  22.197   4.874   2.347
48987W        W17317  22.062  35.012   4.273
48988W        W17318  18.696  18.716  11.604
48989W        W17319  31.583  15.668  13.309
48990W        W17320   7.739  34.013  10.904
48991W        W17321  28.127  31.054  10.511
48992W        W17322  25.168  13.819  13.385
48993W        W17323  13.178  11.761  14.958
48994W        W17324  19.233  13.822  13.464
48995W        W17325  32.510   7.691   3.650
48996W        W17326   8.314  39.375  10.582
48997W        W17327  23.594  40.848  13.420
48998W        W17328  42.780   3.275  11.878
48999W        W17329   1.287  22.558  12.060
49000W        W17330  23.631  32.930  12.834
49001W        W17331   3.749  20.645  11.397
49002W        W17332  44.984  38.979  14.958
49003W        W17333   1.268  21.750  14.007
49004W        W17334  41.455  17.668  11.505
49005W        W17335  28.630  23.675   3.852
49006W        W17336   9.874  19.602  13.434
49007W        W17337  31.448  23.727   2.277
49008W        W17338  22.022   6.783  12.521
49009W        W17339  14.724  11.803  13.794
49010W        W17340   4.334  13.263   4.785
49011W        W17341   6.238   6.296  11.470
49012W        W17342   8.212  11.703   0.420
49013W        W17343  10.150  37.405  11.526
49014W        W17344  32.523  14.195  11.979
49015W        W17345  10.303  22.558  13.528
49016W        W17346  17.097  19.762  13.002
49017W        W17347  40.504   8.191   0.926
49018W        W17348  38.380  32.905   1.794
49019W        W17349  22.593  34.405  12.082
49020W        W17350  20.127  36.851   1.350
49021W        W17351  13.751  36.893   4.808
49022W        W17352  36.901  28.037   4.220
49023W        W17353  20.073   3.237   1.232
49024W        W17354  17.754   6.382   2.790
49025W        W17355   7.402  35.488   4.320
49026W        W17356  13.349  33.396   1.885
49027W        W17357  17.277  26.676  13.899
49028W        W17358  11.630  38.905   2.377
49029W        W17359   9.363  10.836   4.254
49030W        W17360  26.580  23.561   1.336
49031W        W17361  16.314  20.564   0.928
49032W        W17362  34.940  11.285  10.046
49033W        W17363   1.914   9.688   4.672
49034W        W17364  37.411  11.360  14.906
49035W        W17365  39.909  21.143  10.415
49036W        W17366  11.851  24.221   3.322
49037W        W17367   1.786   0.294   1.893
49038W        W17368  28.961  25.002  13.324
49039W        W17369  30.659  30.996  10.475
49040W        W17370  11.707  31.137  11.904
49041W        W17371   9.200  42.374   3.838
49042W        W17372  34.421  30.997  14.918
49043W        W17373   5.269  41.530   1.341
49044W        W17374  23.656  42.392   1.212
49045W        W17375  29.611  33.591   4.817
49046W        W17376  31.582   9.256  12.896
49047W        W17377  12.660  16.097   4.292
49048W        W17378  27.046   2.264   3.741
49049W        W17379  40.437  37.037  11.057
49050W        W17380  36.402  26.614   5.200
49051W        W17381  14.207  16.674  13.988
49052W        W17382  43.499  27.007  10.596
49053W        W17383  33.129   9.182  14.279
49054W        W17384  40.869  37.425   1.260
49055W        W17385  24.112  25.547   3.765
49056W        W17386   2.397  21.086   4.196
49057W        W17387   6.231  24.647   2.246
49058W        W17388   5.346  28.970  11.399
49059W        W17389  16.308   3.249   0.309
49060W        W17390  21.560  24.101   1.749
49061W        W17391  16.114  12.799   4.184
49062W        W17392  15.821  37.985  11.910
49063W        W17393  23.119  35.601   0.304
49064W        W17394   6.916  40.390   2.811
49065W        W17395  39.045   4.868  14.364
49066W        W17396  21.710  12.230  14.998
49067W        W17397  20.110  37.582   4.307
49068W        W17398   8.190  29.082  11.936
49069W        W17399  36.388  21.098  10.021
49070W        W17400  20.076  31.022   1.328
49071W        W17401  44.765  14.825  13.440
49072W        W17402  30.574  20.220  14.999
49073W        W17403  35.419  31.936   2.810
49074W        W17404  38.547  13.336   4.772
49075W        W17405  40.365  38.028   2.347
49076W        W17406  27.045   2.344   1.386
49077W        W17407   2.322  33.031  14.486
49078W        W17408  17.214  25.546   3.226
49079W        W17409  21.083  40.386   1.216
49080W        W17410  31.953  38.472   0.433
49081W        W17411  16.643   6.288  12.513
49082W        W17412  44.272  43.290   3.197
49083W        W17413   3.241  27.090  12.930
49084W        W17414  16.312  26.055   0.364
49085W        W17415  44.001  40.383   1.796
49086W        W17416  10.303  21.024   5.153
49087W        W17417  23.069  21.151   3.298
49088W        W17418   8.888  33.917  14.845
49089W        W17419  12.673  13.611   3.271
49090W        W17420  42.363  32.056   0.327
49091W        W17421  14.681  24.623   2.345
49092W        W17422  38.023   0.397  14.917
49093W        W17423  26.955  27.959  12.379
49094W        W17424  44.929  36.486  12.989
49095W        W17425  17.596  35.055   0.320
49096W        W17426  26.543   8.297   0.866
49097W        W17427  34.912  24.663  10.472
49098W        W17428  33.476   2.828   3.866
49099W        W17429  28.600  40.532   4.713
49100W        W17430  42.480  27.557  11.857
49101W        W17431  44.928  15.234   3.201
49102W        W17432  12.717   4.277   0.815
49103W        W17433  27.456  39.973  12.436
49104W        W17434  30.629   4.288   0.742
49105W        W17435  36.379  10.796   4.713
49106W        W17436  18.734  26.652   3.309
49107W        W17437  21.157   5.887   0.960
49108W        W17438  32.984   3.845   3.727
49109W        W17439  17.628  38.968  13.006
49110W        W17440  40.996  44.380  10.583
49111W        W17441  14.767  35.539  14.976
49112W        W17442  20.214   0.370  11.473
49113W        W17443  44.929  38.352   0.379
49114W        W17444  39.033  10.239  14.457
49115W        W17445  11.729  24.207  14.342
49116W        W17446   2.764   7.760  11.489
49117W        W17447   0.891   5.418  14.031
49118W        W17448  12.353  27.629  10.887
49119W        W17449   7.176  26.180   2.748
49120W        W17450  10.327  33.562   2.880
49121W        W17451  19.188  27.954  12.030
49122W        W17452   7.404  22.128   3.735
49123W        W17453  10.811   0.797   1.703
49124W        W17454  21.107  10.231   0.271
49125W        W17455  17.130   1.304  14.344
49126W        W17456  13.634  29.562   1.213
49127W        W17457  33.541  13.738  13.061
49128W        W17458   3.334  26.091  12.517
49129W        W17459  34.382  37.418   0.878
49130W        W17460   3.858  25.503   4.630
49131W        W17461  31.461  24.017   0.482
49132W        W17462  42.453  42.927   1.321
49133W        W17463  14.594  33.613  10.039
49134W        W17464  15.758  14.240  11.041
49135W        W17465  27.945  29.577   3.260
49136W        W17466  31.974  27.171  11.553
49137W        W17467  38.530  43.431   4.340
49138W        W17468  28.181  18.132  11.463
49139W        W17469  19.083  16.669   3.149
49140W        W17470  37.035  32.037  11.496
49141W        W17471  33.058   8.344   2.737
49142W        W17472  12.706   9.210  12.391
49143W        W17473  25.997   2.394  10.902
49144W        W17474  40.832  11.688  12.996
49145W        W17475  23.167  26.484  14.981
49146W        W17476  29.665  10.745   4.279
49147W        W17477  42.802  30.041   2.665
49148W        W17478  12.181  42.349  11.881
49149W        W17479   2.844   5.844   1.350
49150W        W17480  30.421   4.852  10.906
49151W        W17481  38.001  24.224  11.997
49152W        W17482  23.607  41.946   4.275
49153W        W17483  35.986  16.608  14.975
49154W        W17484  14.284  22.094  11.556
49155W        W17485  14.772   2.828   2.873
49156W        W17486   4.896  26.055  14.023
49157W        W17487   7.214  16.158  11.538
49158W        W17488  21.162  27.677  12.961
49159W        W17489  43.450  31.905   1.229
49160W        W17490  18.764  23.590   1.365
49161W        W17491  21.093  13.351  12.075
49162W        W17492  16.620  34.928  12.940
49163W        W17493  24.176  31.934   0.435
49164W        W17494  24.706  24.518  11.538
49165W        W17495  36.539  16.799  12.077
49166W        W17496   4.916  12.304  12.981
49167W        W17497  27.543   6.893  12.452
49168W        W17498   3.460  11.321  12.372
49169W        W17499  19.202  11.709  11.890
49170W        W17500  44.792  21.513   0.935
49171W        W17501   5.834  39.484   4.326
49172W        W17502   5.720   8.758   2.247
49173W        W17503  25.049   6.191  11.589
49174W        W17504   5.816  29.128   0.382
49175W        W17505  26.689  38.035  11.605
49176W        W17506  42.337  36.998   2.885
49177W        W17507  18.286   0.402  13.408
49178W        W17508  39.439   3.713   2.671
49179W        W17509  11.230  10.720   2.262
49180W        W17510  30.566  27.512   1.776
49181W        W17511  38.000  39.002  13.379
49182W        W17512  18.074  21.017  14.411
49183W        W17513   1.801   2.429  12.029
49184W        W17514  15.668  34.873  10.152
49185W        W17515  29.547  32.415  13.838
49186W        W17516  30.450   2.871   3.781
49187W        W17517  27.094  16.269  11.486
49188W        W17518  18.139  30.140  11.612
49189W        W17519   7.874  26.028   0.738
49190W        W17520  34.546   5.713   2.305
49191W        W17521  30.926   8.710  12.542
49192W        W17522  26.996  10.821  11.009
49193W        W17523  36.393  37.863   0.483
49194W        W17524   5.754  42.392   3.704
49195W        W17525  17.800  29.029  11.935
49196W        W17526   2.469  27.078   1.254
49197W        W17527  36.511  31.640  10.988
49198W        W17528  19.714  12.678  11.967
49199W        W17529  31.646  20.060   5.310
49200W        W17530  38.983   4.868  10.566
49201W        W17531  28.640  26.173   4.632
49202W        W17532   9.275  12.729   1.264
49203W        W17533  33.027  23.194  10.562
49204W        W17534  42.353  38.420  10.894
49205W        W17535  43.510  39.919   4.614
49206W        W17536  41.878   6.213   4.824
49207W        W17537  16.256  24.610  12.392
49208W        W17538  18.224   8.660   4.601
49209W        W17539  30.938   8.180  11.465
49210W        W17540   4.836  26.584  11.457
49211W        W17541   5.422  19.240   1.321
49212W        W17542  26.080   1.755   2.791
49213W        W17543  16.746  28.176   0.913
49214W        W17544   2.873  33.924   3.294
49215W        W17545   9.694  28.597  11.502
49216W        W17546  40.801  40.496  13.310
49217W        W17547   8.319   0.792   3.212
49218W        W17548  25.495  31.627  14.881
49219W        W17549  27.622   4.408   2.778
49220W        W17550   7.302  28.074   1.784
49221W        W17551  23.121  14.221  14.834
49222W        W17552  11.204  26.495   0.397
49223W        W17553  25.181  36.873  13.319
49224W        W17554  10.707  29.051  12.097
49225W        W17555   6.385  12.150  10.897
49226W        W17556   3.229  31.568  14.879
49227W        W17557  21.203  16.801  12.529
49228W        W17558  28.933   6.418   0.828
49229W        W17559  16.619  18.145   3.305
49230W        W17560  22.137  38.542  12.828
49231W        W17561  11.156  10.328  13.914
49232W        W17562  36.876  23.213  10.977
49233W        W17563   4.734  40.846  13.991
49234W        W17564  39.396  31.058  10.909
49235W        W17565  31.505  44.806  11.105
49236W        W17566  27.977  16.704  12.552
49237W        W17567  14.096  11.865   1.380
49238W        W17568  23.199  28.080  11.009
49239W        W17569  33.622   2.339  10.620
49240W        W17570  18.184   8.824  12.931
49241W        W17571  37.063  19.225  11.504
49242W        W17572  19.211   6.839  14.375
49243W        W17573  44.474  38.049  10.581
49244W        W17574  21.757   6.316  13.985
49245W        W17575  41.042  25.208  14.969
49246W        W17576  41.349  22.237   0.447
49247W        W17577   1.736   2.875  11.010
49248W        W17578  21.520  28.938   1.384
49249W        W17579  37.354   7.240   4.171
49250W        W17580  18.705  16.293  13.053
49251W        W17581  41.042  11.661   2.212
49252W        W17582  26.562   3.450  10.985
49253W        W17583  43.365   0.810  12.871
49254W        W17584   1.379   8.175  14.878
49255W        W17585   0.786  17.297   3.850
49256W        W17586  36.392  23.714  13.430
49257W        W17587  38.933  35.038   2.351
49258W        W17588  23.198  11.850   3.801
49259W        W17589  25.532  19.192   2.872
49260W        W17590   7.767  43.515  11.471
49261W        W17591  29.168  37.546   1.846
49262W        W17592  44.961  42.785  13.038
49263W        W17593  12.181  40.989   0.309
49264W        W17594  38.412  42.781   0.288
49265W        W17595  35.945  43.011   4.799
49266W        W17596  17.648  31.456   0.868
49267W        W17597  40.021  18.115   2.678
49268W        W17598  43.345  44.942  12.885
49269W        W17599  13.832  31.483   0.745
49270W        W17600  10.248  34.057  11.392
49271W        W17601  15.317  38.939  11.952
49272W        W17602  10.799  35.514   3.739
49273W        W17603  42.411  24.070  11.599
49274W        W17604  37.863   5.363   3.359
49275W        W17605  15.208  24.561   2.241
49276W        W17606  17.273   9.285  14.841
49277W        W17607  19.129  20.137  14.897
49278W        W17608  10.198  42.313   3.761
49279W        W17609  16.626   6.346  12.020
49280W        W17610   8.727   9.197  14.354
49281W        W17611  20.193   7.375  12.933
49282W        W17612  18.260  18.608  11.490
49283W        W17613  41.043  34.004   2.314
49284W        W17614  10.382  40.377   3.228
49285W        W17615   7.847  44.967   0.923
49286W        W17616  36.033   0.952   4.644
49287W        W17617   7.781  23.520   1.248
49288W        W17618  34.871  10.637  13.385
49289W        W17619  11.327  39.918  12.543
49290W        W17620  42.412  14.229   1.848
49291W        W17621  30.475  18.111   4.176
49292W        W17622  15.583   5.874  13.312
49293W        W17623  43.999  22.511  11.566
49294W        W17624  11.787  15.136   3.869
49295W        W17625  22.636  22.101   2.297
49296W        W17626   0.830  15.709   3.866
49297W        W17627  21.247  23.690   4.744
49298W        W17628   2.960  32.503   0.911
49299W        W17629  22.688  40.856   2.887
49300W        W17630  10.154   5.231  14.872
49301W        W17631   0.470  44.844  10.980
49302W        W17632  30.986  17.106   0.850
49303W        W17633  24.652  12.304   3.202
49304W        W17634  28.663  27.584  11.515
49305W        W17635  38.355  21.254   2.202
49306W        W17636  11.736  39.903   1.841
49307W        W17637  34.475  25.994   2.811
49308W        W17638  42.435  30.002   4.229
49309W        W17639   1.899  36.464   0.896
49310W        W17640   4.937   4.738   5.194
49311W        W17641  24.495  32.574   1.913
49312W        W17642  30.611  11.697  10.573
49313W        W17643  16.080  21.212   4.630
49314W        W17644   1.317   5.754  12.368
49315W        W17645  20.172  20.714   2.243
49316W        W17646  29.473  35.903   3.736
49317W        W17647   3.461  10.347   0.811
49318W        W17648  31.938  30.086  13.506
49319W        W17649  26.611  15.653   1.451
49320W        W17650   4.241   3.822  13.840
49321W        W17651  42.010  26.614   0.840
49322W        W17652  34.897  21.677  13.998
49323W        W17653  29.574  38.044  13.986
49324W        W17654   3.811  15.236   1.878
49325W        W17655   1.283   6.713   4.697
49326W        W17656  19.777   0.836  11.483
49327W        W17657  37.414  42.887   0.733
49328W        W17658  31.001  43.485   3.329
49329W        W17659  42.404  15.209  11.535
49330W        W17660  21.653   6.393  13.439
49331W        W17661  29.534  39.332  14.294
49332W        W17662  31.488  37.442   2.396
49333W        W17663  32.564  16.164  14.918
49334W        W17664  14.747  10.836  11.575
49335W        W17665  41.529   5.430  14.463
49336W        W17666  23.728  34.407  12.463
49337W        W17667  24.126  18.088  11.463
49338W        W17668  34.103   4.936  10.912
49339W        W17669  36.993  12.632  10.521
49340W        W17670  35.063  36.088  12.020
49341W        W17671  17.719  17.173  12.905
49342W        W17672  16.726  36.091   3.282
49343W        W17673  26.648  33.107  14.788
49344W        W17674  18.095  27.566   4.329
49345W        W17675  22.126   5.421   0.750
49346W        W17676  24.156  31.598   2.249
49347W        W17677   3.724  13.349  12.868
49348W        W17678   2.315  23.046  11.963
49349W        W17679   2.299  29.473   4.659
49350W        W17680  39.052   9.798   0.869
49351W        W17681   7.810   5.231   1.334
49352W        W17682  19.080  15.113   1.347
49353W        W17683   3.949  28.075  14.801
49354W        W17684  32.982  39.883   4.797
49355W        W17685  12.315  11.330  11.560
49356W        W17686  12.152   5.383  14.909
49357W        W17687   3.767   7.227   2.202
49358W        W17688  29.442  35.054   0.362
49359W        W17689  43.408   5.346  10.936
49360W        W17690  10.706   0.452   4.269
49361W        W17691  44.421  37.922   3.764
49362W        W17692  28.176  14.652   4.597
49363W        W17693  35.470   7.835  12.357
49364W        W17694  25.705  20.679  14.418
49365W        W17695  41.350  26.600  12.055
49366W        W17696   2.926   8.718  13.331
49367W        W17697  10.632   5.223   4.720
49368W        W17698  43.492  36.908   1.752
49369W        W17699   8.896   7.391   9.931
49370W        W17700  31.022  29.614   3.247
49371W        W17701  31.467  20.531   4.323
49372W        W17702   9.833   3.720  10.535
49373W        W17703  36.450  43.303   3.295
49374W        W17704  25.118  31.423   1.253
49375W        W17705  11.807   6.919   3.337
49376W        W17706  37.578  21.725  14.391
49377W        W17707  17.596  42.802  12.499
49378W        W17708  34.060   5.786   0.246
49379W        W17709   3.430  14.162   2.809
49380W        W17710  26.493   6.724   0.362
49381W        W17711  40.048  24.045   4.707
49382W        W17712  29.143  26.514   3.656
49383W        W17713  11.833  24.666   4.140
49384W        W17714  38.333  19.267  11.929
49385W        W17715   4.831  18.597   1.310
49386W        W17716  25.190  14.590   5.302
49387W        W17717  38.043  38.897   0.249
49388W        W17718   5.932   3.919   3.797
49389W        W17719   6.316   3.926  10.432
49390W        W17720  44.959   9.845  13.848
49391W        W17721  17.143  23.571  12.884
49392W        W17722  32.635  15.722   1.825
49393W        W17723  14.672  44.478   9.995
49394W        W17724   4.728  18.101  10.908
49395W        W17725  38.825  43.815  11.996
49396W        W17726  19.750  16.682   1.333
49397W        W17727  40.314  25.609   3.224
49398W        W17728  43.995  39.037   3.162
49399W        W17729   9.696  10.786  12.371
49400W        W17730  41.809  26.129  13.894
49401W        W17731  31.138  11.752  10.589
49402W        W17732  30.994  17.734  14.427
49403W        W17733  23.630  38.022  13.309
49404W        W17734   6.754  40.022   3.165
49405W        W17735  32.094  40.430  11.998
49406W        W17736  11.768   2.759  14.430
49407W        W17737  39.822  34.933  14.463
49408W        W17738  14.324  10.330   3.644
49409W        W17739  27.644   2.320   2.375
49410W        W17740  22.054  23.499  12.886
49411W        W17741  14.109  35.550   5.295
49412W        W17742   1.770  43.894  13.879
49413W        W17743  27.647   9.669  13.857
49414W        W17744  39.870  40.438   3.761
49415W        W17745  25.204  34.376   1.408
49416W        W17746   8.362  38.459  10.417
49417W        W17747   9.767  16.277  14.889
49418W        W17748  39.016  41.409  13.428
49419W        W17749  18.196  34.890   1.377
49420W        W17750  43.364   5.715   0.421
49421W        W17751   5.387  15.104  12.838
49422W        W17752   1.346  27.058   4.692
49423W        W17753   0.791  22.104  14.392
49424W        W17754  30.647  43.816   3.639
49425W        W17755  31.503   4.918  13.330
49426W        W17756  10.297  10.198   3.360
49427W        W17757  19.780  26.021  12.057
49428W        W17758  14.283  26.665   4.829
49429W        W17759   1.389  31.966  13.010
49430W        W17760  18.055  23.057   5.221
49431W        W17761   3.729  27.450   0.315
49432W        W17762  19.652  32.553  14.498
49433W        W17763  11.254  14.193  10.434
49434W        W17764  23.106   6.237  14.019
49435W        W17765   7.823  33.405  10.435
49436W        W17766  36.468  12.743  12.578
49437W        W17767  44.351   7.698  10.546
49438W        W17768  40.396  20.677  13.883
49439W        W17769  37.873   6.761  14.017
49440W        W17770  14.104  37.369  10.478
49441W        W17771   2.931  30.635   0.889
49442W        W17772  13.807  11.324   4.665
49443W        W17773  30.156   8.294  12.939
49444W        W17774   6.879   9.391  14.024
49445W        W17775   8.283  35.927   3.679
49446W        W17776  43.324  29.606   0.816
49447W        W17777  22.011  18.085  12.577
49448W        W17778  41.026  18.575   0.359
49449W        W17779  41.420  40.496   1.759
49450W        W17780   8.896  40.520   4.603
49451W        W17781  23.684  11.248  14.334
49452W        W17782  43.986   5.418   4.320
49453W        W17783  32.018  11.691  14.817
49454W        W17784  40.314  40.453  12.014
49455W        W17785  29.982   4.257   3.865
49456W        W17786  17.555   7.691   4.804
49457W        W17787  38.057  12.679   0.803
49458W        W17788  23.070  39.823   4.278
49459W        W17789  44.258  39.441   4.788
49460W        W17790  21.041  43.830   4.753
49461W        W17791  32.966   3.343   3.172
49462W        W17792  43.784  11.821  11.408
49463W        W17793  33.607  19.695  10.054
49464W        W17794  14.285  24.041  13.398
49465W        W17795   2.332  38.546  11.872
49466W        W17796  35.392   2.720   0.729
49467W        W17797  10.717  30.512   0.414
49468W        W17798  24.994   8.271  10.512
49469W        W17799  32.098  32.055  14.368
49470W        W17800  24.660   8.705  13.970
49471W        W17801  14.249  40.011  11.041
49472W        W17802  41.988   8.284   3.798
49473W        W17803  20.166   9.701  12.949
49474W        W17804  25.680   6.313  11.924
49475W        W17805  27.458   3.865  11.931
49476W        W17806  10.771  18.641   3.810
49477W        W17807   0.446  16.157   4.785
49478W        W17808  39.888  40.341  14.777
49479W        W17809  18.745  38.364   1.856
49480W        W17810  16.570   7.839   0.408
49481W        W17811   5.298   8.773   5.219
49482W        W17812  33.499  25.076  12.938
49483W        W17813  26.109   9.840   5.707
49484W        W17814  38.528  40.356  12.929
49485W        W17815  15.687  14.315  14.352
49486W        W17816  37.554  10.375   0.362
49487W        W17817  32.888  13.130   4.828
49488W        W17818  31.119  36.847   2.364
49489W        W17819  35.441  40.503   0.793
49490W        W17820  11.209   7.292   4.801
49491W        W17821  32.585  33.910   2.712
49492W        W17822   3.345  13.838  13.391
49493W        W17823  37.548   7.770  14.953
49494W        W17824   5.277   4.913  11.904
49495W        W17825  23.711  13.315   2.744
49496W        W17826  41.982   7.787  14.412
49497W        W17827  18.240  21.162  12.566
49498W        W17828   0.373  35.032  13.541
49499W        W17829   2.783  38.067   3.178
49500W        W17830   1.427  18.697  14.780
49501W        W17831  30.576  17.153  10.447
49502W        W17832  11.683  16.601  13.317
49503W        W17833   8.282  28.510   3.845
49504W        W17834  31.417   5.857  13.054
49505W        W17835   9.785  21.697  11.472
49506W        W17836  32.442  31.090  10.442
49507W        W17837  42.963  29.426   2.217
49508W        W17838  26.526   1.326   1.913
49509W        W17839  22.565   8.241   3.280
49510W        W17840  31.145   8.710   9.978
49511W        W17841  19.686  19.281  14.906
49512W        W17842   1.792   1.802  10.573
49513W        W17843  30.544  35.509   2.741
49514W        W17844  13.619  22.222  12.077
49515W        W17845  38.012  33.581  13.991
49516W        W17846  17.121  19.556  12.045
49517W        W17847   4.856  28.035  12.081
49518W        W17848  19.142  27.004  12.510
49519W        W17849  10.836  32.531  12.882
49520W        W17850  13.281  41.909  13.401
49521W        W17851  37.844  32.616  11.085
49522W        W17852   3.391  12.669   3.266
49523W        W17853   9.253  28.060   3.781
49524W        W17854  32.505   6.217  10.559
49525W        W17855  23.231  13.835  11.028
49526W        W17856  15.279  31.923  13.020
49527W        W17857  20.623  33.418   2.737
49528W        W17858  29.100  18.655   4.258
49529W        W17859   8.882  43.830   4.139
49530W        W17860   7.273  16.174   1.915
49531W        W17861   2.358  27.144  12.354
49532W        W17862   3.272   0.763  11.910
49533W        W17863   0.817   9.745   1.419
49534W        W17864  24.193   8.681   0.366
49535W        W17865  37.908  17.703  10.532
49536W        W17866   6.248   7.254   2.261
49537W        W17867  42.920   3.443  13.384
49538W        W17868  18.132  13.819  12.021
49539W        W17869  21.225   1.897   0.732
49540W        W17870  37.363  23.205   3.725
49541W        W17871  11.196  30.587   1.231
49542W        W17872  14.220  21.227  12.032
49543W        W17873  11.329  36.422   2.795
49544W        W17874  16.637   8.286  11.951
49545W        W17875  41.990   7.277  13.829
49546W        W17876  11.227  16.103   0.793
49547W        W17877  44.458   3.362   0.429
49548W        W17878  26.512  44.323   4.830
49549W        W17879  41.309  18.105   1.311
49550W        W17880  38.343  40.475   1.830
49551W        W17881  39.817  22.531   0.771
49552W        W17882  14.150  37.369   3.812
49553W        W17883   8.202  14.719  13.987
49554W        W17884  41.000  42.848  11.120
49555W        W17885   2.735   3.216   2.345
49556W        W17886  10.234  26.646  13.409
49557W        W17887  36.916  30.518  13.471
49558W        W17888  25.004  19.152  12.490
49559W        W17889  31.625  24.988  14.860
49560W        W17890   8.789  22.251   4.631
49561W        W17891  38.523   1.278  11.022
49562W        W17892  27.619  24.499   2.872
49563W        W17893  25.469   9.362  14.977
49564W        W17894  30.553   0.443  12.901
49565W        W17895  32.557  33.429   1.928
49566W        W17896  12.327  29.522   4.725
49567W        W17897  18.255  36.846  12.012
49568W        W17898  34.942  38.987   4.330
49569W        W17899  25.513   7.273   3.738
49570W        W17900  15.227  31.483  12.930
49571W        W17901  18.772   4.241   2.833
49572W        W17902  11.304  19.575  11.410
49573W        W17903   0.909  24.096   1.306
49574W        W17904   1.435  18.766  13.797
49575W        W17905  15.281  18.295   0.814
49576W        W17906   5.413  14.167   1.314
49577W        W17907  19.071  35.029  11.487
49578W        W17908  31.534  28.524   1.900
49579W        W17909  11.719   5.269   3.333
49580W        W17910  26.694  10.226   3.695
49581W        W17911   4.330  18.240   0.262
49582W        W17912  44.981  44.309  13.444
49583W        W17913  15.765  34.050   3.737
49584W        W17914  33.509   1.861  13.994
49585W        W17915   5.410  23.500  13.887
49586W        W17916  17.581   2.366  14.765
49587W        W17917  41.012  34.469   2.361
49588W        W17918  15.650  11.315  13.472
49589W        W17919  21.027  23.665   2.723
49590W        W17920  15.207   4.301  10.525
49591W        W17921  38.410  31.591  13.395
49592W        W17922  26.111  10.836   0.402
49593W        W17923   3.359  36.895   2.360
49594W        W17924  44.277  19.553  11.080
49595W        W17925  25.042  24.016  11.516
49596W        W17926   9.284  27.169  11.929
49597W        W17927  12.772  19.737   2.194
49598W        W17928   4.377  32.110  14.007
49599W        W17929  27.945  33.585  12.505
49600W        W17930  19.145  14.205  13.406
49601W        W17931  24.534  14.677   4.831
49602W        W17932  13.258  29.663  10.946
49603W        W17933  17.663   8.310   4.241
49604W        W17934  42.422  24.670  10.896
49605W        W17935  17.230  44.446   5.279
49606W        W17936  10.854   7.399  11.866
49607W        W17937  28.484  35.953  14.028
49608W        W17938  24.604  19.723   4.305
49609W        W17939   4.778  21.251   1.822
49610W        W17940  18.191   1.964  11.076
49611W        W17941  13.647   6.814  14.007
49612W        W17942   3.306   8.283  14.488
49613W        W17943  43.953  30.547   3.218
49614W        W17944   1.876  42.849  13.389
49615W        W17945  31.152  43.351  13.373
49616W        W17946  33.012   0.289  12.899
49617W        W17947  10.697  36.943   3.294
49618W        W17948   4.341  28.604   1.254
49619W        W17949  31.115  26.487  12.857
49620W        W17950  29.011   8.257   4.709
49621W        W17951  30.453  13.778   2.883
49622W        W17952  32.972  13.304  10.497
49623W        W17953   7.222  17.631  13.383
49624W        W17954  43.273  13.328  14.957
49625W        W17955  42.823  10.780  13.793
49626W        W17956   6.817  25.207  11.517
49627W        W17957  22.214  44.840  14.916
49628W        W17958   7.191  42.360  10.577
49629W        W17959  11.727  42.818   4.680
49630W        W17960  14.705  15.713   2.682
49631W        W17961   3.298  26.089  12.955
49632W        W17962   0.873  38.482   0.727
49633W        W17963  44.756  44.903  11.043
49634W        W17964  42.469  24.608  12.969
49635W        W17965  17.747  20.071  11.484
49636W        W17966  33.560  29.094  11.073
49637W        W17967   4.362  14.292   3.255
49638W        W17968  19.149  24.173   3.753
49639W        W17969   0.459  36.446   2.848
49640W        W17970   8.271   5.920   0.923
49641W        W17971   6.211  30.615  13.404
49642W        W17972  20.258  36.082   0.294
49643W        W17973  38.882  29.959  11.546
49644W        W17974  20.554   9.156   5.610
49645W        W17975  21.047  23.691   0.462
49646W        W17976  30.991  42.495  11.397
49647W        W17977   1.887  13.630   4.684
49648W        W17978  29.110  21.729   3.184
49649W        W17979  15.699  35.105   5.774
49650W        W17980  41.865  43.858   1.794
49651W        W17981   5.240  28.964  12.960
49652W        W17982  26.580  23.536  13.956
49653W        W17983  14.110  31.959  14.365
49654W        W17984  14.217  20.590   2.675
49655W        W17985   3.717  38.045  13.411
49656W        W17986  32.435  23.510   0.477
49657W        W17987  10.754  21.609  14.438
49658W        W17988  20.253  22.584  10.081
49659W        W17989  32.469   6.872   3.161
49660W        W17990  38.907  15.118   2.243
49661W        W17991  23.076  25.110   4.703
49662W        W17992  26.530  30.435  12.375
49663W        W17993  43.878   8.669  11.467
49664W        W17994  19.238  26.105   5.582
49665W        W17995  15.264  38.336   4.232
49666W        W17996  34.450  23.025  12.918
49667W        W17997  37.993  43.769   4.626
49668W        W17998   8.261  44.892   0.884
49669W        W17999  18.081   7.306  11.587
49670W        W18000  10.869  44.831   0.920
49671W        W18001  17.658  30.967  10.928
49672W        W18002  34.445  26.516  14.781
49673W        W18003  30.077  21.210   2.714
49674W        W18004  23.042  24.516  13.337
49675W        W18005  43.861  44.901  14.393
49676W        W18006  11.360  35.535   0.837
49677W        W18007  39.517  24.085   4.725
49678W        W18008   3.458  34.569   1.744
49679W        W18009  14.277  34.078   2.193
49680W        W18010  34.003  38.535   3.701
49681W        W18011  11.796  13.281   5.145
49682W        W18012  20.602  21.557   3.269
49683W        W18013   3.217  23.709  10.553
49684W        W18014  29.145   6.277   4.676
49685W        W18015  27.074   0.818   2.194
49686W        W18016  25.633  13.739  12.933
49687W        W18017  42.020  17.196   0.865
49688W        W18018   4.795   0.901   1.760
49689W        W18019  33.400  17.265  12.399
49690W        W18020  34.044  40.035  11.401
49691W        W18021  34.961  43.299   2.288
49692W        W18022  36.873  39.963  10.591
49693W        W18023  12.159  31.128   4.642
49694W        W18024  32.914  44.269  11.582
49695W        W18025  31.517  24.521   0.905
49696W        W18026   0.931  40.538  12.508
49697W        W18027  26.540  31.487   0.284
49698W        W18028  43.297   6.309  14.030
49699W        W18029  43.367  10.739  11.022
49700W        W18030   7.279  13.248  10.576
49701W        W18031  32.462  28.970  13.816
49702W        W18032  38.982  17.783  10.552
49703W        W18033  19.202  32.458   2.669
49704W        W18034  33.916   7.839  13.517
49705W        W18035  24.658  11.356   3.371
49706W        W18036  19.669  42.806   3.216
49707W        W18037  40.958  15.684   4.272
49708W        W18038   1.752  22.522   1.793
49709W        W18039   3.881  27.161  11.022
49710W        W18040  21.611  14.699   1.775
49711W        W18041  25.045  22.167   0.824
49712W        W18042  11.804  19.598  10.588
49713W        W18043  41.537  12.249  10.584
49714W        W18044   7.770  19.122   2.330
49715W        W18045  33.091  29.963  14.340
49716W        W18046  44.977  42.906  14.292
49717W        W18047  25.174   8.325   1.422
49718W        W18048  12.846  24.985  12.029
49719W        W18049  36.902  18.207   0.961
49720W        W18050  16.114  13.118   3.667
49721W        W18051   3.851  21.027  14.479
49722W        W18052  41.366  19.186   1.798
49723W        W18053   4.390   7.252   0.370
49724W        W18054  10.156  25.602  14.976
49725W        W18055   2.755  38.493  13.999
49726W        W18056  40.527   3.712  13.403
49727W        W18057  36.858   7.709   2.211
49728W        W18058  35.943  17.653   1.697
49729W        W18059  33.525  31.147   1.782
49730W        W18060  25.025  13.175   4.216
49731W        W18061  20.758  39.055  12.443
49732W        W18062  44.857  16.289  13.510
49733W        W18063  33.118   0.454  11.077
49734W        W18064  30.985  36.889  11.088
49735W        W18065   7.859  26.070   3.787
49736W        W18066  40.026  25.009   3.237
49737W        W18067   4.921  16.697  10.126
49738W        W18068  41.799  18.218  12.932
49739W        W18069  31.952  42.988  11.562
49740W        W18070  39.838  10.283   4.830
49741W        W18071  41.460  25.624   2.189
49742W        W18072   9.769   3.744   0.409
49743W        W18073  34.010   9.341   3.784
49744W        W18074   9.204  22.132   1.211
49745W        W18075   3.822  20.056  14.931
49746W        W18076  20.716  16.163   3.797
49747W        W18077  40.942  32.594   4.302
49748W        W18078  37.396  33.969  11.889
49749W        W18079  17.241  19.259  12.091
49750W        W18080  20.752   4.894  11.020
49751W        W18081  30.979  37.925  14.278
49752W        W18082  36.984  40.809  10.636
49753W        W18083  10.864   0.286   1.812
49754W        W18084  33.554  40.847  14.759
49755W        W18085  38.007  30.533  10.055
49756W        W18086  36.359  42.429   3.176
49757W        W18087  14.340  29.142   0.268
49758W        W18088  18.726  42.326  12.015
49759W        W18089  24.715   0.779  12.077
49760W        W18090   6.396  41.365  10.627
49761W        W18091  42.917  41.792   4.287
49762W        W18092  15.169  44.990  13.970
49763W        W18093  44.433  11.292   0.448
49764W        W18094  10.183  43.369   3.860
49765W        W18095  44.442  18.574  10.556
49766W        W18096   3.882  13.316   1.863
49767W        W18097  23.506  21.150   4.297
49768W        W18098  25.538   8.287   0.383
49769W        W18099   1.964  16.196  12.860
49770W        W18100  36.441   5.229   1.746
49771W        W18101  27.003  31.639  14.354
49772W        W18102  15.691   2.254  12.490
49773W        W18103   6.364  44.355   1.724
49774W        W18104  31.949   9.824   0.965
49775W        W18105  37.452  30.655   2.861
49776W        W18106  10.237   1.416  12.824
49777W        W18107  17.273  13.107  14.330
49778W        W18108  18.140  18.713   2.763
49779W        W18109  27.948  25.041  13.843
49780W        W18110   9.368  20.551  12.558
49781W        W18111  25.675  38.511   1.771
49782W        W18112  39.904  43.021   4.628
49783W        W18113  27.598   4.289  10.577
49784W        W18114  31.539  39.967  14.494
49785W        W18115  19.712  22.580   1.852
49786W        W18116   8.752  31.985   4.132
49787W        W18117  36.548  32.945   1.286
49788W        W18118  17.167  12.728   9.978
49789W        W18119  10.816  35.943   2.890
49790W        W18120  35.922  42.819   2.393
49791W        W18121  11.678   7.323   0.928
49792W        W18122   9.221  29.095   0.744
49793W        W18123  18.246  18.234   0.805
49794W        W18124  20.685  10.787  13.817
49795W        W18125  14.141  38.362  13.049
49796W        W18126   0.952   1.860  11.127
49797W        W18127  20.616  39.891   0.294
49798W        W18128  14.249  20.648   0.800
49799W        W18129  12.788  41.500  10.633
49800W        W18130  26.604   7.809  11.596
49801W        W18131  14.205  43.871  14.020
49802W        W18132   4.334   9.326   0.871
49803W        W18133  18.648  44.914  10.475
49804W        W18134  44.457  11.862   4.314
49805W        W18135  23.156  39.921  14.863
49806W        W18136  44.825   8.875   2.828
49807W        W18137  25.165  25.583  11.605
49808W        W18138   6.719   4.701   1.329
49809W        W18139  29.655  37.355  12.071
49810W        W18140  32.614  12.623  11.569
49811W        W18141  11.191  43.806   3.713
49812W        W18142  41.299  40.482   3.331
49813W        W18143  12.264  22.521   0.761
49814W        W18144   6.375  40.478  12.527
49815W        W18145  42.862  44.489   3.654
49816W        W18146  29.030  19.078   1.757
49817W        W18147  10.767   9.821  12.095
49818W        W18148   4.384  11.141   3.681
49819W        W18149   6.357  10.240   3.236
49820W        W18150  28.466  14.132  13.003
49821W        W18151  29.137  44.377  13.517
49822W        W18152  21.758  19.674  14.016
49823W        W18153  36.869  38.326  11.446
49824W        W18154  22.657   7.781   3.256
49825W        W18155  33.897  40.878  13.942
49826W        W18156   7.880  11.750  14.928
49827W        W18157  19.745  36.000  12.466
49828W        W18158  35.857   7.299   3.863
49829W        W18159  24.033  21.040  13.974
49830W        W18160  32.919  32.010  12.985
49831W        W18161  34.973  40.396   0.861
49832W        W18162  37.571  41.296   2.806
49833W        W18163  25.145  30.553  14.321
49834W        W18164  35.103  37.890  13.050
49835W        W18165   8.780  28.986   1.417
49836W        W18166  20.675  32.021  13.062
49837W        W18167   6.225  33.900   4.757
49838W        W18168  41.898  30.640   0.882
49839W        W18169   4.394  15.266  11.393
49840W        W18170  13.680  18.728   0.458
49841W        W18171  26.628  29.017   5.135
49842W        W18172  29.484   6.717   4.231
49843W        W18173  16.226  36.570  14.012
49844W        W18174  35.560  38.348   4.209
49845W        W18175  17.726  29.550  12.041
49846W        W18176  27.953  18.570  11.517
49847W        W18177  39.985  10.197  12.970
49848W        W18178  28.992  36.409  12.343
49849W        W18179  20.163  22.742  14.947
49850W        W18180  36.877  23.719  13.960
49851W        W18181  19.118  18.236   2.408
49852W        W18182  33.583  40.497  14.275
49853W        W18183  12.664  36.425  10.408
49854W        W18184  33.050  39.370  11.606
49855W        W18185   7.733  26.458   0.353
49856W        W18186  39.365  32.102  11.928
49857W        W18187  39.515  23.711  11.429
49858W        W18188  24.640  37.885   3.307
49859W        W18189  39.969  18.704  12.363
49860W        W18190   5.883   0.816  11.003
49861W        W18191  15.175   4.765   0.402
49862W        W18192  31.043  33.570   5.276
49863W        W18193  31.898  29.001  10.522
49864W        W18194   0.892   7.717  11.855
49865W        W18195  40.396  26.539  12.471
49866W        W18196  13.350  33.882  12.538
49867W        W18197  18.758  35.404  13.429
49868W        W18198  16.192   6.790   2.404
49869W        W18199  40.426  23.645   4.354
49870W        W18200  25.049  17.207   4.235
49871W        W18201  19.708  29.073   5.169
49872W        W18202  25.180  14.813   2.273
49873W        W18203   4.771  38.965  13.410
49874W        W18204  27.127  34.041  11.081
49875W        W18205   4.866  28.112   0.380
49876W        W18206  36.995  26.498   2.185
49877W        W18207   3.382  31.044   0.930
49878W        W18208   6.367  32.558   3.376
49879W        W18209  37.882  16.805  11.108
49880W        W18210  38.872  15.102   3.329
49881W        W18211  14.763  39.881  14.939
49882W        W18212  36.026  12.137   0.852
49883W        W18213  17.738  43.945  14.423
49884W        W18214  41.449  27.459  14.804
49885W        W18215  39.452  21.136   2.408
49886W        W18216  41.407  14.716  13.389
49887W        W18217  17.667   1.824   2.348
49888W        W18218   7.760   4.718  14.486
49889W        W18219  38.365  23.041  14.930
49890W        W18220  12.760  31.442   2.728
49891W        W18221  36.347  14.642  11.435
49892W        W18222  43.389   8.317   3.276
49893W        W18223  29.130   1.820  11.389
49894W        W18224  27.552  26.691  14.486
49895W        W18225  20.533  23.034  11.920
49896W        W18226  25.058  34.887  10.462
49897W        W18227   0.394   4.396  14.398
49898W        W18228  36.025   2.330  11.104
49899W        W18229  27.495  41.359   3.661
49900W        W18230  39.368  15.823   1.745
49901W        W18231  41.828  44.883   2.844
49902W        W18232  27.499   2.427   4.157
49903W        W18233  18.086  43.951   4.323
49904W        W18234   6.416  11.284  11.078
49905W        W18235  21.250  42.314  14.924
49906W        W18236  35.468  28.131  13.907
49907W        W18237  36.850  39.009   1.833
49908W        W18238  22.741  26.670   2.388
49909W        W18239  27.966  19.679   4.171
49910W        W18240   6.861  40.047   0.480
49911W        W18241  14.230  20.068   1.288
49912W        W18242   6.777   3.262  14.906
49913W        W18243   1.259  16.667  12.892
49914W        W18244  30.479   0.457   3.197
49915W        W18245  40.312  29.077  12.459
49916W        W18246  42.006  16.806  14.816
49917W        W18247  20.178  22.514   1.338
49918W        W18248  25.016  37.340  12.928
49919W        W18249   3.418  12.347   4.224
49920W        W18250  38.869  44.467  14.381
49921W        W18251  29.146   7.892   3.299
49922W        W18252  13.137  41.439   0.320
49923W        W18253  37.336  34.456  14.989
49924W        W18254  31.119  40.805  14.285
49925W        W18255  23.057  29.065  12.842
49926W        W18256  20.639   2.963   4.684
49927W        W18257  13.346  14.682  11.485
49928W        W18258  34.863  14.642  11.935
49929W        W18259  34.010  37.561  10.926
49930W        W18260   4.831  30.564  11.409
49931W        W18261  18.102   5.341  10.436
49932W        W18262  31.545  15.280   4.816
49933W        W18263   9.184  37.379   0.937
49934W        W18264  38.427   6.716  14.890
49935W        W18265  35.079  42.956  14.976
49936W        W18266   9.885   0.462   0.461
49937W        W18267  20.168  25.520  14.847
49938W        W18268  15.792  11.866  12.438
49939W        W18269  26.670  26.050  12.354
49940W        W18270  14.712   8.194   3.335
49941W        W18271  28.610  19.188   3.165
49942W        W18272  33.519  23.173   1.258
49943W        W18273  32.456  40.468   0.437
49944W        W18274  37.448  40.528   3.641
49945W        W18275  25.624  40.418   4.706
49946W        W18276  41.433  29.479   4.675
49947W        W18277  22.130  21.697  13.480
49948W        W18278  31.953  38.548   3.341
49949W        W18279  31.538  24.161   4.298
49950W        W18280  24.135  13.146  11.049
49951W        W18281  16.720  18.189   4.731
49952W        W18282   2.434  38.965  14.491
49953W        W18283  18.587  33.904   0.967
49954W        W18284  39.477  30.463   1.351
49955W        W18285  10.862  21.643  10.460
49956W        W18286  12.289  35.914   4.753
49957W        W18287  18.144  32.578   3.246
49958W        W18288  30.936  27.509  12.870
49959W        W18289  16.776  42.321   3.665
49960W        W18290   3.247  44.312  12.371
49961W        W18291  44.762   7.726  14.847
49962W        W18292  30.033  14.135   0.452
49963W        W18293   2.926  37.392   4.271
49964W        W18294  34.974  40.534   0.253
49965W        W18295   0.309  27.972   3.818
49966W        W18296   0.825  37.480  11.612
49967W        W18297  29.984  18.131   2.250
49968W        W18298  38.904  26.971   1.443
49969W        W18299   6.799  28.603  11.098
49970W        W18300   8.678  20.714   2.392
49971W        W18301   3.309   1.260   3.836
49972W        W18302  21.545  25.473  10.470
49973W        W18303  35.056   2.247  12.085
49974W        W18304  38.867  14.199  14.837
49975W        W18305  43.477  16.607   1.904
49976W        W18306   6.902  44.808   1.874
49977W        W18307  43.408  16.806   2.746
49978W        W18308   3.288  25.123  10.448
49979W        W18309  36.063   1.281  12.517
49980W        W18310  37.012  21.694  12.569
49981W        W18311   4.390  29.946  11.503
49982W        W18312  10.145  44.806   1.266
49983W        W18313  13.760   2.307   3.708
49984W        W18314  24.183  14.199  12.042
49985W        W18315  37.407  23.105   0.732
49986W        W18316  39.410  22.735   4.160
49987W        W18317  36.534  34.473   3.176
49988W        W18318  28.461   7.239  11.896
49989W        W18319  37.364   0.445  13.368
49990W        W18320  23.202   4.440  13.324
49991W        W18321  28.944  12.210  14.292
49992W        W18322  37.929  35.071  13.328
49993W        W18323  16.280  29.458   3.284
49994W        W18324  43.933  32.902  14.018
49995W        W18325  15.279  34.971  11.958
49996W        W18326  24.573  36.911  12.073
49997W        W18327  39.873   5.737   4.218
49998W        W18328  35.423  33.508  13.350
49999W        W18329  31.085  23.027   3.374
50000W        W18330   0.752  30.964   0.372
50001W        W18331  37.978  42.497   0.301
50002W        W18332  31.508  20.068   1.447
50003W        W18333  27.657  26.467   2.713
50004W        W18334  18.611  13.690   0.480
50005W        W18335  21.543  23.602   1.833
50006W        W18336   3.370  39.045   3.836
50007W        W18337  25.599  32.905   4.744
50008W        W18338  39.812  12.803   3.283
50009W        W18339   5.399  15.239  13.440
50010W        W18340  12.725  41.981  13.966
50011W        W18341   9.811   3.713   4.123
50012W        W18342  27.186   4.834  12.887
50013W        W18343  43.955  30.967  11.966
50014W        W18344  43.861   0.306   1.900
50015W        W18345  19.758   2.908   4.231
50016W        W18346  41.026   4.857   5.098
50017W        W18347  34.961  30.582  13.965
50018W        W18348  15.276   0.940  11.498
50019W        W18349  22.653  23.074   1.379
50020W        W18350  30.433   0.817  11.573
50021W        W18351  10.635  12.189   0.305
50022W        W18352  17.667   9.849   3.241
50023W        W18353  43.799   1.474   3.326
50024W        W18354   3.307  26.581   2.208
50025W        W18355  22.171  12.691  13.951
50026W        W18356  32.467  16.579   0.728
50027W        W18357  14.241  34.383   4.194
50028W        W18358  23.714  28.458  13.044
50029W        W18359  11.261   9.887   0.758
50030W        W18360  26.553   3.396  13.369
50031W        W18361  41.924  37.088  11.971
50032W        W18362   3.825  38.438   1.303
50033W        W18363  32.611  35.991   5.267
50034W        W18364  28.553  40.520   3.642
50035W        W18365  15.155   7.181   2.827
50036W        W18366  44.390   2.297  14.294
50037W        W18367  39.924  19.732  12.046
50038W        W18368  34.386  17.693  14.398
50039W        W18369  33.406  34.494  14.415
50040W        W18370  20.740  20.523  13.842
50041W        W18371  25.510  40.942   2.849
50042W        W18372  33.061  16.077  14.917
50043W        W18373  33.580  21.685  10.550
50044W        W18374  29.062   8.708   3.243
50045W        W18375  43.822  10.718   1.352
50046W        W18376  10.145  16.746  10.100
50047W        W18377   3.309  26.590  11.452
50048W        W18378   2.878   1.336   4.307
50049W        W18379  39.529   7.359   0.342
50050W        W18380  17.650  33.946  13.911
50051W        W18381  18.779  44.908   4.232
50052W        W18382  42.327  13.188  14.825
50053W        W18383  13.278  32.419  11.033
50054W        W18384   5.435  34.106  10.888
50055W        W18385   0.467  32.908  14.929
50056W        W18386  11.327  17.747   3.862
50057W        W18387   2.332  18.732   9.966
50058W        W18388  20.130  10.871  14.428
50059W        W18389  37.040  37.905  10.917
50060W        W18390   3.380   3.317   3.340
50061W        W18391  39.390  22.113   0.803
50062W        W18392  32.115  12.676  11.981
50063W        W18393   0.922  32.504  11.960
50064W        W18394  24.528   0.448  11.017
50065W        W18395  16.804   0.324   1.769
50066W        W18396  25.652  21.109   0.400
50067W        W18397  17.073  37.074   4.134
50068W        W18398  28.184  31.546   5.186
50069W        W18399  39.918  39.000  13.020
50070W        W18400  39.327  35.079  13.039
50071W        W18401  26.133  43.309   1.791
50072W        W18402   4.807  23.654   3.257
50073W        W18403  26.004  33.957  14.406
50074W        W18404   2.241  36.041   0.903
50075W        W18405  18.596   7.774  11.068
50076W        W18406  18.279  37.034  11.538
50077W        W18407  40.030  38.002  11.597
50078W        W18408  13.232  41.921   4.663
50079W        W18409   8.288  28.593  10.631
50080W        W18410  10.658  30.098  13.867
50081W        W18411  23.170  24.484   2.725
50082W        W18412  39.873   7.354  14.425
50083W        W18413  22.679  42.855   3.720
50084W        W18414  19.650   1.248   2.704
50085W        W18415   0.438  28.056   1.370
50086W        W18416   2.334   3.416  14.293
50087W        W18417  30.928   6.689   4.783
50088W        W18418   5.926  39.973   1.813
50089W        W18419  21.230  24.503  14.414
50090W        W18420  14.820  15.310  12.083
50091W        W18421  25.663   0.972  11.391
50092W        W18422  31.617  26.024   1.335
50093W        W18423  28.621  19.275  11.063
50094W        W18424  13.302  19.230   3.361
50095W        W18425  42.449  24.989  14.292
50096W        W18426  17.637  20.684   3.679
50097W        W18427   5.350  25.157   4.671
50098W        W18428  33.096  18.766   3.219
50099W        W18429   5.893  37.536   2.803
50100W        W18430   9.289  42.012  12.438
50101W        W18431  37.400  14.276   2.786
50102W        W18432   5.376  19.154   3.177
50103W        W18433  15.717  44.974  10.936
50104W        W18434  27.159  24.107  14.834
50105W        W18435   8.790   6.400   1.216
50106W        W18436  24.513   3.429  10.913
50107W        W18437  27.604  10.282  14.908
50108W        W18438   3.859  32.994   0.284
50109W        W18439  17.123  17.571   1.220
50110W        W18440  26.674   8.827   2.270
50111W        W18441  19.722  11.749   2.702
50112W        W18442  23.156  11.301   1.308
50113W        W18443  44.383  29.946  14.377
50114W        W18444   5.719   0.943  14.979
50115W        W18445  15.236  30.473   3.654
50116W        W18446  23.080  26.143   1.420
50117W        W18447   7.678   1.904   0.825
50118W        W18448  15.170   9.863   1.697
50119W        W18449  16.786  24.114   1.751
50120W        W18450   7.732  21.251   4.196
50121W        W18451   9.752  34.078   0.246
50122W        W18452   7.357  36.577  12.058
50123W        W18453  24.486   6.807   1.754
50124W        W18454  11.287  13.779   0.436
50125W        W18455  12.130  32.893  12.896
50126W        W18456  15.734  41.343   0.798
50127W        W18457  31.417  19.638   2.358
50128W        W18458  15.667   8.819  14.323
50129W        W18459  33.547   6.858   2.209
50130W        W18460   1.901   7.365  14.397
50131W        W18461  44.441  43.950  10.617
50132W        W18462  35.870  16.310   2.258
50133W        W18463  29.113  32.477  12.911
50134W        W18464  17.132   4.894  13.873
50135W        W18465  29.585  13.284   0.857
50136W        W18466  20.044  24.676  13.468
50137W        W18467  10.231  37.350   1.296
50138W        W18468  24.554   5.222  10.426
50139W        W18469   3.919  31.402  12.051
50140W        W18470  27.001  41.990   0.352
50141W        W18471  24.496  18.123  12.448
50142W        W18472   5.230  21.659  11.556
50143W        W18473  14.691   3.352  11.101
50144W        W18474   8.194  37.506  14.494
50145W        W18475  12.824   9.347   2.256
50146W        W18476   1.400  33.934   3.341
50147W        W18477  17.102  19.268   3.824
50148W        W18478  21.609   0.935  13.978
50149W        W18479  14.289  11.693  13.884
50150W        W18480  22.242  41.016  14.494
50151W        W18481   7.190  33.064  13.477
50152W        W18482  37.049   1.461  14.785
50153W        W18483  16.295  16.605  10.644
50154W        W18484  27.178  18.239   4.248
50155W        W18485  19.562  29.021   0.324
50156W        W18486   2.725   0.255  12.948
50157W        W18487   5.764  37.439   0.856
50158W        W18488   0.811  41.532  12.380
50159W        W18489  31.061  33.994   1.698
50160W        W18490  12.800  14.170  14.959
50161W        W18491  22.509  18.568  12.997
50162W        W18492   6.222  32.629   4.709
50163W        W18493  15.205   0.451   1.859
50164W        W18494  29.571  30.990   1.814
50165W        W18495   0.477   6.767   2.280
50166W        W18496  23.007  10.367  10.111
50167W        W18497  42.026   7.294  13.382
50168W        W18498  15.731  35.950  14.304
50169W        W18499  25.657  10.874  13.940
50170W        W18500   1.377   6.257   4.237
50171W        W18501  27.969  37.857  14.435
50172W        W18502  40.307  34.865   3.683
50173W        W18503  30.917   8.671   2.395
50174W        W18504  36.431  21.541   3.769
50175W        W18505  38.422  12.270  12.454
50176W        W18506  40.821  16.738  10.920
50177W        W18507  34.481  32.975   4.657
50178W        W18508  32.938  31.636  14.421
50179W        W18509   5.422  30.637  11.016
50180W        W18510  10.207  44.983   4.200
50181W        W18511  19.575  18.268  12.572
50182W        W18512  39.559  15.716  11.864
50183W        W18513  40.902  39.525   4.309
50184W        W18514   6.865   4.365  14.958
50185W        W18515   1.759   2.753   1.912
50186W        W18516  26.509  43.317   2.233
50187W        W18517   3.289  37.368  11.107
50188W        W18518  34.500  16.143  11.467
50189W        W18519  42.782  32.133  13.815
50190W        W18520  26.022  25.119  12.867
50191W        W18521  36.396  19.707  12.527
50192W        W18522  33.982   4.715   3.362
50193W        W18523  24.145  28.151   3.259
50194W        W18524  31.477  36.543  11.557
50195W        W18525  13.168  37.030  12.974
50196W        W18526  35.576  18.714  10.943
50197W        W18527  16.629   8.659   0.907
50198W        W18528   5.383  11.147   0.771
50199W        W18529   7.365  22.241  12.505
50200W        W18530  17.673   8.666   4.115
50201W        W18531  19.659  19.688   3.175
50202W        W18532  19.559  28.048   2.279
50203W        W18533  44.996   7.210  14.974
50204W        W18534  41.802  41.495  12.499
50205W        W18535  10.865  42.805  14.473
50206W        W18536  24.703  17.668   0.771
50207W        W18537  16.227  11.810   2.797
50208W        W18538  39.003   5.260   3.295
50209W        W18539   8.658  33.919  12.450
50210W        W18540  36.970   3.829  13.060
50211W        W18541  41.890   2.268   0.476
50212W        W18542  35.494  31.951   4.181
50213W        W18543  26.682   8.761   0.730
50214W        W18544  44.813  24.600  12.443
50215W        W18545  26.669  30.089   1.820
50216W        W18546  30.075  41.538   0.853
50217W        W18547  29.950  32.465  13.912
50218W        W18548  26.002  25.213   1.789
50219W        W18549  11.139   0.803   2.874
50220W        W18550   4.802  31.597  11.376
50221W        W18551  13.753  40.441  12.464
50222W        W18552  29.648   2.392  10.994
50223W        W18553  29.980  21.653  13.029
50224W        W18554   5.719  24.671   0.816
50225W        W18555  42.305  34.026  11.865
50226W        W18556  22.557  19.171  11.500
50227W        W18557   6.742  25.053  10.408
50228W        W18558  12.799   5.334   3.312
50229W        W18559  44.282  24.634  14.293
50230W        W18560  11.675  31.419  13.905
50231W        W18561   8.794  30.911   5.161
50232W        W18562  24.708  35.602  14.369
50233W        W18563   1.245  16.778  11.911
50234W        W18564   2.430  21.645  14.022
50235W        W18565   7.402  40.408  12.840
50236W        W18566  37.930  20.100  13.836
50237W        W18567   7.786  40.443  14.982
50238W        W18568  20.061   6.879  14.959
50239W        W18569   9.859  37.469   0.418
50240W        W18570  17.298  38.454   2.235
50241W        W18571   9.660  31.524  14.899
50242W        W18572  36.852  15.252   1.375
50243W        W18573  33.061  34.477  11.941
50244W        W18574  38.849  11.758  10.415
50245W        W18575   2.230  10.744  14.798
50246W        W18576  11.625  14.630  10.899
50247W        W18577  18.176  31.441  14.910
50248W        W18578  31.436  12.282  13.902
50249W        W18579  12.266   5.436  13.896
50250W        W18580   0.263  30.051   4.210
50251W        W18581  28.501  25.679   2.707
50252W        W18582  12.278  33.467   4.807
50253W        W18583   8.690  23.617   4.675
50254W        W18584  21.071  10.746   4.809
50255W        W18585  32.965   3.775  12.490
50256W        W18586  23.500  24.665  14.463
50257W        W18587  34.013  33.987   3.342
50258W        W18588  28.149   2.826   3.829
50259W        W18589   4.926   0.979  10.978
50260W        W18590  41.292  44.924   4.616
50261W        W18591  24.194  35.929  11.373
50262W        W18592  31.100  15.791   3.339
50263W        W18593  40.818   6.847  14.989
50264W        W18594  28.451  27.006  13.309
50265W        W18595  13.766   4.428  11.862
50266W        W18596   1.389  12.827  11.114
50267W        W18597  13.287  41.839   2.260
50268W        W18598  33.611   4.380  14.298
50269W        W18599   8.721  41.332   3.152
50270W        W18600   2.728  21.126  11.969
50271W        W18601  10.238  36.855   9.963
50272W        W18602  32.895   0.308   0.792
50273W        W18603   8.250  33.007   1.749
50274W        W18604  35.095   6.816   0.281
50275W        W18605  17.801  39.946  12.982
50276W        W18606  32.556  29.645  13.050
50277W        W18607   9.160   1.744   1.263
50278W        W18608   5.890  39.527   3.345
50279W        W18609  38.945  26.072   3.323
50280W        W18610  31.089  28.504   2.368
50281W        W18611  31.035  10.650  12.489
50282W        W18612   2.291  37.021  12.403
50283W        W18613  42.290  28.603  10.495
50284W        W18614   4.404  44.310  14.835
50285W        W18615  14.811   8.379   0.945
50286W        W18616   5.197   6.421   4.220
50287W        W18617  14.662  22.654   1.776
50288W        W18618   3.878  10.717   2.844
50289W        W18619  44.266  38.396  11.122
50290W        W18620  28.982  22.698  12.058
50291W        W18621  36.030  26.114   0.966
50292W        W18622   0.311   6.796  12.844
50293W        W18623  25.492  12.297  11.518
50294W        W18624   3.713  20.214   3.771
50295W        W18625  26.487  32.983  12.527
50296W        W18626  27.567  44.755   4.694
50297W        W18627  41.829  16.137   1.438
50298W        W18628  12.308  35.074  14.996
50299W        W18629  35.448  44.403   2.200
50300W        W18630  19.045  27.164   3.673
50301W        W18631  31.049  35.390  13.542
50302W        W18632  37.881  39.447   2.259
50303W        W18633  18.765  42.389   4.162
50304W        W18634  23.999   7.406  11.600
50305W        W18635   3.287  15.251  10.968
50306W        W18636   0.335  17.219  14.296
50307W        W18637  15.732  32.895   4.322
50308W        W18638  30.064   2.826   0.289
50309W        W18639  43.855  16.114   3.260
50310W        W18640  17.267   4.298  11.911
50311W        W18641  34.563   5.905  12.013
50312W        W18642   0.850   3.727   3.293
50313W        W18643  40.354   7.178   3.193
50314W        W18644  36.385  22.150   4.348
50315W        W18645   8.710  36.880   2.296
50316W        W18646  23.138   5.790   2.767
50317W        W18647  39.490   3.240   1.284
50318W        W18648  25.554  32.565   1.448
50319W        W18649  44.989  34.050  14.310
50320W        W18650  40.005  33.079   2.252
50321W        W18651   7.877  28.160   2.217
50322W        W18652  11.853  43.310   1.378
50323W        W18653  34.875  29.135  10.593
50324W        W18654  42.959  16.612  14.864
50325W        W18655  23.235  44.859   1.925
50326W        W18656  26.052  37.423   1.390
50327W        W18657   6.828   7.729   3.217
50328W        W18658  42.413  24.160  12.425
50329W        W18659   0.346  18.270   3.267
50330W        W18660  44.953  42.513   4.351
50331W        W18661   8.723  41.508   2.232
50332W        W18662  31.131   0.466   3.834
50333W        W18663  12.332  33.004   4.132
50334W        W18664  43.339  44.894   2.363
50335W        W18665  17.613   1.243   0.769
50336W        W18666  43.383  43.443  10.937
50337W        W18667  32.492  27.155  13.337
50338W        W18668  31.444  16.639   0.731
50339W        W18669  41.829  36.890  12.500
50340W        W18670  43.950  31.574  12.572
50341W        W18671  33.445   0.764   1.764
50342W        W18672  43.338  36.347   2.873
50343W        W18673  30.471  18.561   4.705
50344W        W18674  25.566  28.451  14.863
50345W        W18675  44.863  36.439  14.783
50346W        W18676  39.948  40.001   2.274
50347W        W18677   1.257  40.840  10.601
50348W        W18678  33.921  14.657   1.744
50349W        W18679  42.312  18.125  14.454
50350W        W18680   2.752  22.219  14.472
50351W        W18681  33.116  20.702  11.017
50352W        W18682   8.251  12.150   1.794
50353W        W18683  39.819   5.737   0.892
50354W        W18684   4.721  35.362  12.439
50355W        W18685  38.852   2.320   3.856
50356W        W18686  11.242  38.342   0.919
50357W        W18687  10.848  42.327  11.034
50358W        W18688  27.503  23.004   0.803
50359W        W18689  42.855  25.504  12.346
50360W        W18690  26.570  21.134   0.791
50361W        W18691   5.864  18.560   1.733
50362W        W18692  40.373  22.220   4.661
50363W        W18693  31.079  43.273  13.850
50364W        W18694  43.857  32.406   1.425
50365W        W18695  33.450  29.464  12.563
50366W        W18696  27.194   2.340   0.851
50367W        W18697  39.904  29.569   1.349
50368W        W18698  44.897  22.175   1.725
50369W        W18699  25.150  25.973  12.368
50370W        W18700   8.307  38.858  14.808
50371W        W18701  33.621  26.682  11.107
50372W        W18702  30.069  27.592  11.580
50373W        W18703  21.190  19.779   4.670
50374W        W18704  28.041   7.796   1.852
50375W        W18705   4.448   3.760  11.006
50376W        W18706  20.560  20.566   4.643
50377W        W18707   8.686  22.674  10.994
50378W        W18708  16.604  28.142  13.315
50379W        W18709  33.879  30.065  10.984
50380W        W18710  24.060  19.183   3.686
50381W        W18711  22.560  21.182   3.375
50382W        W18712  36.978  39.545   1.841
50383W        W18713  15.286  37.021  13.913
50384W        W18714  23.058   0.753  13.382
50385W        W18715  11.694  19.618  14.912
50386W        W18716  37.546  20.038  12.028
50387W        W18717  16.680   1.386  10.407
50388W        W18718   5.909  44.379  13.330
50389W        W18719  34.389  17.798   3.789
50390W        W18720  32.022   7.888  13.802
50391W        W18721  43.991   9.168  12.472
50392W        W18722  11.636  30.143   4.791
50393W        W18723  22.512  11.361   0.733
50394W        W18724  35.404  19.150  11.915
50395W        W18725  44.367  41.402   2.874
50396W        W18726  14.333  25.067  11.908
50397W        W18727  44.817  23.707   4.823
50398W        W18728  17.069  34.438   1.700
50399W        W18729  11.760  31.922  13.331
50400W        W18730   7.251  19.153  10.525
50401W        W18731  15.602  17.288   4.725
50402W        W18732   0.469  17.136  12.487
50403W        W18733  39.844  10.682   3.367
50404W        W18734  44.404  42.466  11.099
50405W        W18735   6.678  27.633  12.434
50406W        W18736   2.425  22.572  14.932
50407W        W18737  43.441   4.345  11.545
50408W        W18738  30.479  29.547   3.315
50409W        W18739   8.898  19.045  11.537
50410W        W18740  14.810   3.381  10.567
50411W        W18741  18.717  33.556   3.335
50412W        W18742  36.064  33.909   4.179
50413W        W18743  23.567   3.910  14.814
50414W        W18744  37.425  26.979   0.942
50415W        W18745  15.707  41.980   1.307
50416W        W18746  23.608  44.464   4.640
50417W        W18747  22.226  24.651  14.465
50418W        W18748  39.051  30.132   2.399
50419W        W18749  14.250  18.634   4.608
50420W        W18750  25.708  19.238  11.548
50421W        W18751  36.054  23.223   4.196
50422W        W18752  40.032  19.200   3.291
50423W        W18753  20.668  32.016   1.848
50424W        W18754  36.364  31.642   3.191
50425W        W18755   4.341  33.538  13.509
50426W        W18756   8.206  33.563  11.553
50427W        W18757  38.422  12.675   2.354
50428W        W18758  27.640  36.984  12.432
50429W        W18759   0.964  14.816   2.375
50430W        W18760  27.599  17.608  11.477
50431W        W18761   2.428  15.692   4.126
50432W        W18762  33.917  36.511  10.488
50433W        W18763  36.929   5.900  12.869
50434W        W18764  31.567   8.856  10.427
50435W        W18765  38.529  32.576  13.412
50436W        W18766  11.659  18.100   1.887
50437W        W18767   7.343  11.371  11.034
50438W        W18768  24.984  27.501  10.940
50439W        W18769  25.076  18.136  12.894
50440W        W18770  23.623  22.579   3.647
50441W        W18771  38.029   7.740   4.747
50442W        W18772  25.072  39.394  14.420
50443W        W18773   6.817  34.445   3.325
50444W        W18774  40.328  15.213   0.392
50445W        W18775  31.122  24.091   0.948
50446W        W18776  20.524   0.975   4.350
50447W        W18777   8.396  23.156   4.348
50448W        W18778   0.401  23.106   3.309
50449W        W18779  19.281  13.665   4.600
50450W        W18780  33.040  28.449  11.563
50451W        W18781  44.887  26.001   3.685
50452W        W18782  40.489   7.902   1.371
50453W        W18783  21.035  39.956   0.308
50454W        W18784  13.189   2.858   2.233
50455W        W18785  20.225  10.365   1.384
50456W        W18786  27.961  14.213  11.487
50457W        W18787  33.550   9.237  12.475
50458W        W18788   2.772  42.985   1.756
50459W        W18789   6.243  19.271  13.308
50460W        W18790  25.211  20.673  13.391
50461W        W18791   6.299   4.329  10.619
50462W        W18792  12.669  26.993  12.940
50463W        W18793   8.872  44.360  10.598
50464W        W18794  19.693  20.750   0.822
50465W        W18795  34.038  13.244   2.902
50466W        W18796   3.364  38.969   3.260
50467W        W18797   2.765   1.441   1.229
50468W        W18798   7.716  20.173   0.739
50469W        W18799   8.864  14.595  12.961
50470W        W18800  24.228   3.760   0.447
50471W        W18801  33.072  18.053   1.714
50472W        W18802  37.080   4.721   4.812
50473W        W18803  42.935   1.940  11.468
50474W        W18804   5.222   0.402   4.163
50475W        W18805   7.753  42.408  12.856
50476W        W18806  23.057  35.951   2.836
50477W        W18807  34.449  27.115   3.778
50478W        W18808  17.118   0.746  13.397
50479W        W18809  28.624  19.643   3.377
50480W        W18810  22.166  43.962   1.277
50481W        W18811  37.460   6.356   3.254
50482W        W18812  23.075  26.977  14.028
50483W        W18813   0.491  25.966   1.885
50484W        W18814  42.428  23.991   0.431
50485W        W18815  24.686  41.536  11.112
50486W        W18816   6.732  33.079   2.263
50487W        W18817  17.218   6.779  13.319
50488W        W18818  23.158   7.768  11.458
50489W        W18819  17.187   4.857  12.476
50490W        W18820   1.281   1.376   4.163
50491W        W18821   4.434  33.923  13.971
50492W        W18822   0.878   1.855   4.231
50493W        W18823  27.451  35.904  11.914
50494W        W18824  25.121  33.105   1.342
50495W        W18825  21.646   4.754  13.359
50496W        W18826  37.064  31.955  11.964
50497W        W18827  38.388  12.647   1.275
50498W        W18828   8.875  38.932   2.858
50499W        W18829  39.996  36.011   0.325
50500W        W18830  19.101  27.577  12.937
50501W        W18831  39.040  10.239  11.053
50502W        W18832  34.905  17.290  10.986
50503W        W18833  44.258  28.024  13.341
50504W        W18834  37.478  35.100  11.128
50505W        W18835   6.269   1.397   3.345
50506W        W18836  32.944  38.914   1.420
50507W        W18837  14.169   0.268  12.021
50508W        W18838   9.161  39.011  13.396
50509W        W18839   9.872  11.682   3.718
50510W        W18840  22.522  23.548   1.915
50511W        W18841   9.738  33.501   2.862
50512W        W18842  33.585  30.071   4.332
50513W        W18843  29.561   6.292   0.876
50514W        W18844  20.068  37.860  10.974
50515W        W18845  44.362  17.277   2.266
50516W        W18846   8.776  24.552  14.834
50517W        W18847  34.537  32.914  13.029
50518W        W18848  15.675  27.528   9.983
50519W        W18849   2.264  25.038   3.802
50520W        W18850  38.005  32.522   3.332
50521W        W18851  21.722   0.461   2.856
50522W        W18852  44.811  38.330   3.217
50523W        W18853  11.224  41.944   4.251
50524W        W18854   3.877   9.274  14.008
50525W        W18855  29.434  30.487  12.448
50526W        W18856  35.981  26.511  10.644
50527W        W18857  35.859  19.100  11.379
50528W        W18858  34.558  19.067  12.043
50529W        W18859  21.161   7.871   0.336
50530W        W18860  10.814  16.106   4.200
50531W        W18861  10.324  27.152  13.368
50532W        W18862  14.328  16.137   2.386
50533W        W18863   3.745  23.610   3.764
50534W        W18864   5.914  30.500   3.850
50535W        W18865  10.319  25.509   3.245
50536W        W18866  42.811  38.922   1.366
50537W        W18867  31.615   9.295  14.810
50538W        W18868  41.985  44.434  14.828
50539W        W18869  25.705  44.943  11.991
50540W        W18870   5.395  12.848  14.497
50541W        W18871  36.048  37.503   1.355
50542W        W18872  35.897  36.962   2.216
50543W        W18873  19.098  12.292   3.700
50544W        W18874  28.131  11.759   5.605
50545W        W18875   6.906  41.887   3.301
50546W        W18876  28.438  38.045  10.974
50547W        W18877  21.607   9.819  11.080
50548W        W18878   3.766  24.604  14.837
50549W        W18879  32.504  28.567  13.482
50550W        W18880  39.837  37.992  10.555
50551W        W18881   6.871  41.388   3.810
50552W        W18882  31.000  11.316  11.901
50553W        W18883  11.655  12.633  12.469
50554W        W18884  40.842  22.623  13.979
50555W        W18885  37.837  34.972   0.418
50556W        W18886  19.548  19.120   0.449
50557W        W18887   9.771  24.568  10.961
50558W        W18888   6.801  38.017  10.933
50559W        W18889  43.421  29.058  13.386
50560W        W18890   3.953   2.935  12.377
50561W        W18891   7.840  38.473  12.563
50562W        W18892  31.647  34.936   1.846
50563W        W18893  13.347  24.502   3.659
50564W        W18894  31.489  41.345  14.973
50565W        W18895  32.987   4.717  10.633
50566W        W18896   2.906  21.162  12.987
50567W        W18897  39.363  13.251   1.901
50568W        W18898  39.894  10.348  13.857
50569W        W18899   5.735   5.403   4.744
50570W        W18900   8.309  19.735   0.249
50571W        W18901  38.026   2.407   3.367
50572W        W18902  35.976   0.958  10.558
50573W        W18903   5.808   1.410   4.258
50574W        W18904  37.911  15.703  14.380
50575W        W18905  41.293  42.469   1.869
50576W        W18906  40.818   5.366   1.908
50577W        W18907  37.885  19.112  12.357
50578W        W18908  17.577   6.358   3.342
50579W        W18909  34.380  23.504   1.435
50580W        W18910  27.143   8.185  10.612
50581W        W18911  37.899   6.887   0.341
50582W        W18912  41.953  38.334  11.933
50583W        W18913  26.973  27.501  12.840
50584W        W18914  30.077  12.705   0.883
50585W        W18915  30.487   2.730   3.339
50586W        W18916  23.078  42.396   1.883
50587W        W18917  22.728  25.655  12.577
50588W        W18918   9.324   7.374   2.818
50589W        W18919  37.496  21.098   1.841
50590W        W18920  28.126  29.522   1.274
50591W        W18921  26.193  11.711  11.962
50592W        W18922   6.208  38.462   2.869
50593W        W18923  42.482  18.562  14.766
50594W        W18924  25.645   7.903  13.470
50595W        W18925  13.617  24.202   3.790
50596W        W18926  35.437   0.455  11.052
50597W        W18927  21.587   6.209  12.927
50598W        W18928   9.325  28.516   0.267
50599W        W18929  42.477  36.572  11.950
50600W        W18930  16.238  12.206  14.468
50601W        W18931  14.729  33.075   1.309
50602W        W18932  36.481  32.032   0.291
50603W        W18933  30.573  10.635   0.746
50604W        W18934  13.218  21.136   4.220
50605W        W18935   9.769  18.057  13.330
50606W        W18936  21.563  34.480  14.473
50607W        W18937  21.172   5.239  12.365
50608W        W18938   4.738  14.788   1.896
50609W        W18939  14.211  24.117   0.250
50610W        W18940  24.704  35.101   2.723
50611W        W18941  44.926  13.304   1.217
50612W        W18942   8.190  20.750  13.974
50613W        W18943  16.109  11.823  12.425
50614W        W18944  37.909  32.588  14.337
50615W        W18945   6.252   0.469  12.840
50616W        W18946  26.649  22.603  11.855
50617W        W18947  41.898  12.343   3.198
50618W        W18948  39.428  31.580  14.323
50619W        W18949  18.293  29.130  11.110
50620W        W18950  26.679   7.874  13.847
50621W        W18951  37.369   8.669  10.522
50622W        W18952  10.236  10.274   0.243
50623W        W18953  28.489  34.475   5.779
50624W        W18954  19.592  24.102  12.494
50625W        W18955  13.786  31.433   1.379
50626W        W18956  23.681   7.347   1.930
50627W        W18957  42.016  32.047  14.785
50628W        W18958  44.924  36.534   3.330
50629W        W18959  21.255   3.938   1.801
50630W        W18960  26.019   8.663   4.836
50631W        W18961  19.246  34.890  11.075
50632W        W18962  29.606  20.591  12.062
50633W        W18963   3.892  11.643  12.411
50634W        W18964   2.413  31.128   0.960
50635W        W18965  32.618  39.393  14.936
50636W        W18966  26.536  43.945  11.871
50637W        W18967  22.077  33.578  14.275
50638W        W18968   6.188  36.493   1.254
50639W        W18969  34.411  24.665  12.409
50640W        W18970  14.146  41.903  12.843
50641W        W18971  35.360  41.382  13.505
50642W        W18972  26.613  19.179   3.220
50643W        W18973  23.506  38.904   1.392
50644W        W18974  30.473  14.137  13.394
50645W        W18975   4.257  21.698   0.378
50646W        W18976  21.678  21.159   1.350
50647W        W18977  16.580   1.782   4.204
50648W        W18978  38.459  26.981   1.351
50649W        W18979   0.250   4.821   3.842
50650W        W18980  44.375  42.008   3.371
50651W        W18981  19.618  19.593  13.379
50652W        W18982  41.519  20.754   4.816
50653W        W18983  16.225  43.406   0.394
50654W        W18984   6.725  11.350  13.397
50655W        W18985  10.142   9.215   0.303
50656W        W18986  27.166  21.146  14.350
50657W        W18987  27.490   7.779  14.814
50658W        W18988  39.016  25.997   0.928
50659W        W18989   9.347   3.220  10.593
50660W        W18990  13.261  23.018   1.729
50661W        W18991  37.067   7.736   0.385
50662W        W18992  33.921  14.189  11.603
50663W        W18993   7.324   2.952   1.428
50664W        W18994   5.754  24.485  14.492
50665W        W18995  26.480  38.355  11.104
50666W        W18996  33.046  11.798  13.317
50667W        W18997  20.081  25.471  12.011
50668W        W18998   3.927  35.530   5.185
50669W        W18999   6.389  15.103  13.436
50670W        W19000   9.774   6.206  13.518
50671W        W19001   8.834   0.358  14.790
50672W        W19002  23.131  27.954  13.415
50673W        W19003   2.873  15.215   1.717
50674W        W19004  21.689  15.135  14.028
50675W        W19005   4.262   5.717   1.273
50676W        W19006   7.747  21.172  14.317
50677W        W19007  27.981   8.754  10.946
50678W        W19008  42.373  23.666   4.681
50679W        W19009  39.814   2.906  13.527
50680W        W19010   2.879  33.586   2.211
50681W        W19011  10.837  24.065   3.773
50682W        W19012  25.052  10.648   3.340
50683W        W19013  19.042  32.590   0.794
50684W        W19014  10.867  10.875   3.842
50685W        W19015  37.399   0.808  12.377
50686W        W19016  42.001  17.770  11.097
50687W        W19017  18.762  37.080   3.324
50688W        W19018  13.321  33.556   0.869
50689W        W19019  28.042  25.185  14.818
50690W        W19020  18.251  43.882  12.492
50691W        W19021  11.623  23.197  11.439
50692W        W19022  27.067  43.486   3.639
50693W        W19023  25.621   7.808   2.822
50694W        W19024  39.966  30.038  12.368
50695W        W19025  28.071  16.119   1.789
50696W        W19026  11.698  17.128   5.294
50697W        W19027  32.904   8.884  14.320
50698W        W19028  39.866  31.974   4.834
50699W        W19029  24.626  24.516   1.814
50700W        W19030  40.938  13.222   3.334
50701W        W19031  11.279  43.954  12.937
50702W        W19032  31.594  35.044   3.369
50703W        W19033  18.569  23.061   5.612
50704W        W19034  35.393  39.954  13.938
50705W        W19035  10.740  37.358  14.760
50706W        W19036  28.018  34.400  13.866
50707W        W19037  25.200   8.384   4.718
50708W        W19038  19.269  14.807  11.925
50709W        W19039   3.945  30.461   0.953
50710W        W19040  12.709  24.127   1.711
50711W        W19041  44.473  18.666  11.429
50712W        W19042  31.094   6.758  13.450
50713W        W19043  42.852  20.744   0.427
50714W        W19044  12.787  39.878  11.402
50715W        W19045  13.643  23.571   4.829
50716W        W19046  11.789  39.874  14.481
50717W        W19047  16.102  44.785   0.480
50718W        W19048   0.282  22.031   0.904
50719W        W19049  42.901   7.733   0.836
50720W        W19050   5.876  37.362   0.298
50721W        W19051   1.936  28.148  12.089
50722W        W19052  34.911  33.418   0.751
50723W        W19053   3.893  25.101   4.163
50724W        W19054  32.558  10.246  12.011
50725W        W19055   9.213   6.349  13.007
50726W        W19056  25.135  37.550   1.250
50727W        W19057  28.072  10.281  12.954
50728W        W19058  10.230  13.244  12.561
50729W        W19059   8.864   4.740  12.928
50730W        W19060  14.748  21.234   3.372
50731W        W19061  38.352  18.242  14.425
50732W        W19062  20.061  17.732   0.424
50733W        W19063  29.616   4.231  14.974
50734W        W19064  35.426   0.446   3.151
50735W        W19065  18.612  15.098   1.763
50736W        W19066  27.491   3.775   4.247
50737W        W19067  14.619  28.980  13.536
50738W        W19068   8.356   5.304   2.238
50739W        W19069  39.495  19.765  11.905
50740W        W19070  23.084  32.954   0.418
50741W        W19071  22.017  33.586  10.467
50742W        W19072  38.944   1.894  10.903
50743W        W19073   1.869  22.027  14.846
50744W        W19074  27.458  43.889   0.416
50745W        W19075  39.523  17.186   1.918
50746W        W19076  19.147  35.036   2.414
50747W        W19077  15.687   4.233   2.213
50748W        W19078   6.901   4.358  13.848
50749W        W19079  18.570  28.559  13.795
50750W        W19080  35.452  37.544   0.864
50751W        W19081  19.668  19.225  13.398
50752W        W19082   6.397   9.205   0.729
50753W        W19083  25.054   5.889   1.355
50754W        W19084  23.681   6.779  14.509
50755W        W19085   9.326  33.063  13.842
50756W        W19086  30.449  10.877   4.244
50757W        W19087  19.667  40.948  14.032
50758W        W19088  23.517   2.908  12.078
50759W        W19089  35.434  21.027  13.046
50760W        W19090  19.170  39.983  13.457
50761W        W19091  30.516  27.507  10.539
50762W        W19092  36.378  36.391  12.946
50763W        W19093  38.859   3.332  13.889
50764W        W19094  35.963   0.261   2.260
50765W        W19095   6.794  26.517   2.357
50766W        W19096  40.874  40.365   1.401
50767W        W19097  25.581  32.404   4.829
50768W        W19098  20.168  28.096   0.818
50769W        W19099   4.328   8.856  12.910
50770W        W19100  22.510  35.870  13.526
50771W        W19101   2.459  31.120   3.703
50772W        W19102  11.279   4.807   0.774
50773W        W19103  24.646   5.809  13.394
50774W        W19104  32.499  21.182  12.497
50775W        W19105   7.289  37.533   1.366
50776W        W19106   7.394  26.699  11.101
50777W        W19107  19.735  28.651   5.139
50778W        W19108  39.540  23.994   1.922
50779W        W19109  19.157  15.131  14.368
50780W        W19110  35.864  34.073  14.854
50781W        W19111  19.561  12.698  14.414
50782W        W19112   5.925  44.846  12.433
50783W        W19113  38.938   2.801   0.249
50784W        W19114  27.087  24.660  14.877
50785W        W19115  12.641   4.314  13.048
50786W        W19116  11.168   0.955  11.444
50787W        W19117  27.588   7.370  14.291
50788W        W19118   4.275  12.689   0.821
50789W        W19119   1.469  35.984  11.579
50790W        W19120   0.898   3.897   2.690
50791W        W19121  13.215   4.365   2.717
50792W        W19122  26.148   4.210   0.426
50793W        W19123   8.361  14.615  11.602
50794W        W19124  11.193  11.268   1.806
50795W        W19125  37.897  36.023  12.066
50796W        W19126   8.178   1.894  11.945
50797W        W19127  39.065  30.911   2.791
50798W        W19128  29.956  44.982   2.797
50799W        W19129   3.908  44.459  10.015
50800W        W19130  30.941   1.813   3.171
50801W        W19131  18.733  13.154  13.334
50802W        W19132  14.176   6.290  12.549
50803W        W19133  37.901  44.339  13.545
50804W        W19134  26.958   6.702   3.337
50805W        W19135  25.218  37.905  12.528
50806W        W19136   1.382  28.120  10.963
50807W        W19137  12.815  35.542  11.119
50808W        W19138  15.245  17.099  12.987
50809W        W19139  21.542  25.675   1.421
50810W        W19140   6.814  24.676  14.913
50811W        W19141   3.896  32.469  14.442
50812W        W19142  13.202  39.496  10.490
50813W        W19143  43.844  37.465   3.713
50814W        W19144   2.761  41.338   3.378
50815W        W19145  40.487   2.804   2.888
50816W        W19146  23.001  39.857  11.524
50817W        W19147  37.030  26.173   3.805
50818W        W19148   2.454  15.818   3.387
50819W        W19149  13.717  21.598   3.290
50820W        W19150  29.586  29.630   0.254
50821W        W19151   6.365   3.727   0.400
50822W        W19152  17.683  12.296   2.346
50823W        W19153  18.773   9.778  12.415
50824W        W19154  18.750   5.439  10.531
50825W        W19155  38.410  20.240  13.803
50826W        W19156  40.320   4.713  14.758
50827W        W19157   7.766  20.597  11.924
50828W        W19158  11.229  16.318  14.938
50829W        W19159  32.129   7.394   2.350
50830W        W19160  29.093  42.498  14.377
50831W        W19161   8.699  14.270   4.200
50832W        W19162  28.135  12.166   4.727
50833W        W19163   1.838  20.663   1.386
50834W        W19164  32.142  42.796  11.915
50835W        W19165  29.948  21.055   0.897
50836W        W19166  31.919  24.168  11.523
50837W        W19167  20.178  23.587  14.450
50838W        W19168  44.270  37.986  14.472
50839W        W19169  33.607   5.220  10.515
50840W        W19170  20.136  24.572   0.247
50841W        W19171  24.635  33.103  10.604
50842W        W19172   0.406  20.262  12.044
50843W        W19173  16.668  17.746   0.270
50844W        W19174  29.616  14.279   0.797
50845W        W19175  11.349  44.413   0.399
50846W        W19176  35.925   0.364   4.181
50847W        W19177   5.251  35.081  12.089
50848W        W19178  41.909  14.208  10.978
50849W        W19179   3.879  25.963   4.213
50850W        W19180  37.472  34.966  12.561
50851W        W19181   1.318  17.742  13.413
50852W        W19182   9.305   9.204  10.568
50853W        W19183  12.193  22.172  10.944
50854W        W19184  33.504  36.095   1.888
50855W        W19185   3.864   6.234  14.779
50856W        W19186  26.474  13.207   0.754
50857W        W19187  44.756  30.539   4.616
50858W        W19188  14.719   9.646  14.305
50859W        W19189   0.290   1.390  11.459
50860W        W19190   7.868  43.395   0.398
50861W        W19191   1.458  37.575   0.761
50862W        W19192  35.011  37.917  14.900
50863W        W19193  10.840  31.471  13.309
50864W        W19194  32.019  34.434   0.375
50865W        W19195  33.431  34.921  14.956
50866W        W19196   0.278  29.994   1.815
50867W        W19197   8.853  34.369  11.049
50868W        W19198  24.020  33.983  12.905
50869W        W19199  44.433  20.622   2.733
50870W        W19200  33.900   2.759   0.917
50871W        W19201  12.245  22.611   2.211
50872W        W19202  27.516  38.926   4.833
50873W        W19203  43.856  33.413  13.024
50874W        W19204  25.584   9.201  12.472
50875W        W19205  16.637  14.099   2.289
50876W        W19206  11.668  15.092   4.763
50877W        W19207  38.986  31.592   2.666
50878W        W19208  37.355  27.523  12.563
50879W        W19209  44.898  44.414  14.973
50880W        W19210  23.728  34.595   1.838
50881W        W19211  16.178  27.050  13.875
50882W        W19212  38.994  32.569   3.705
50883W        W19213   4.244  43.872   3.336
50884W        W19214  17.208   6.688   1.289
50885W        W19215  22.178  33.617   2.877
50886W        W19216   2.763   0.951   3.230
50887W        W19217  12.610   0.306   0.889
50888W        W19218   8.338  37.013  12.961
50889W        W19219  31.436   7.385  13.427
50890W        W19220   8.802  44.371   1.906
50891W        W19221  13.784  32.045  11.960
50892W        W19222  19.582  36.422   3.354
50893W        W19223  36.466  32.455  14.310
50894W        W19224  16.632  15.778   2.899
50895W        W19225   3.946  42.426   1.726
50896W        W19226  31.602   6.401   3.751
50897W        W19227  31.406  25.677   3.861
50898W        W19228  15.753  19.160  14.476
50899W        W19229  27.165  37.877   4.646
50900W        W19230  26.202  27.056   3.189
50901W        W19231  42.996   8.721  14.456
50902W        W19232   5.304  33.914   0.424
50903W        W19233  12.225  11.632  10.544
50904W        W19234  30.503   6.694  12.895
50905W        W19235  33.528   7.308   4.224
50906W        W19236  29.095  20.098  13.009
50907W        W19237  28.129  26.662  10.980
50908W        W19238   0.953   3.406   4.298
50909W        W19239  40.802  27.517   1.747
50910W        W19240   1.364  42.473   4.175
50911W        W19241  26.114  36.484  12.434
50912W        W19242  21.706   6.737   9.516
50913W        W19243   1.482  33.475  12.014
50914W        W19244  12.833  40.912   0.448
50915W        W19245   1.304  19.672   0.277
50916W        W19246   6.756   7.233  11.933
50917W        W19247  43.503  38.874  11.024
50918W        W19248  13.805  32.969   2.233
50919W        W19249   0.860  38.074  10.919
50920W        W19250  12.279  44.483   0.834
50921W        W19251  18.175  27.193  11.958
50922W        W19252  17.148  41.453  13.004
50923W        W19253  33.381  30.625  13.961
50924W        W19254  17.587  13.817  13.860
50925W        W19255  18.242  25.078   1.725
50926W        W19256  16.701  20.729  14.404
50927W        W19257  25.521  36.383  12.506
50928W        W19258  36.096  28.938   3.793
50929W        W19259  11.816  12.297  11.990
50930W        W19260   7.851  10.829   2.676
50931W        W19261   6.804  16.799   4.807
50932W        W19262   5.820  44.451  14.006
50933W        W19263  44.860  42.429   0.249
50934W        W19264   3.823   4.790  12.929
50935W        W19265  24.671  19.147  14.859
50936W        W19266  17.262  22.623  14.982
50937W        W19267  19.581  25.124   5.125
50938W        W19268  41.813  27.159  13.857
50939W        W19269  13.178  42.491  13.959
50940W        W19270  41.830  42.033  12.092
50941W        W19271  15.318   2.905  11.856
50942W        W19272  30.620   0.932   2.222
50943W        W19273  20.691  17.176   4.338
50944W        W19274  13.599   8.342  13.439
50945W        W19275  29.072  38.535   1.424
50946W        W19276  24.107  22.618  11.439
50947W        W19277  35.587  41.330   0.823
50948W        W19278  30.542   0.475   4.136
50949W        W19279  17.615   4.427   3.374
50950W        W19280   1.466  14.594  12.500
50951W        W19281  38.373  42.004  12.482
50952W        W19282  17.131  19.706   2.698
50953W        W19283   7.821  43.929  10.900
50954W        W19284  16.146  34.370   1.746
50955W        W19285   2.377  28.533   3.378
50956W        W19286  20.690   4.822  12.379
50957W        W19287   9.702   1.861  13.543
50958W        W19288  15.125  40.412   2.404
50959W        W19289  16.760  23.539  14.928
50960W        W19290  42.018   0.778  13.014
50961W        W19291  31.409  38.418   1.247
50962W        W19292  24.588  13.121  13.432
50963W        W19293  29.652  23.715  12.580
50964W        W19294  20.178  25.542  12.422
50965W        W19295  37.039   6.919  14.408
50966W        W19296  30.457  21.753  10.611
50967W        W19297  41.788   5.835   2.408
50968W        W19298  12.245  35.887  12.981
50969W        W19299   3.866  26.624   2.297
50970W        W19300  25.982  29.943  13.035
50971W        W19301   2.444  12.834  11.979
50972W        W19302  11.304   5.350  13.012
50973W        W19303  42.851  23.717   2.704
50974W        W19304  38.348  28.173   4.347
50975W        W19305   1.365  14.783  14.489
50976W        W19306  28.575   8.789   2.410
50977W        W19307  33.875  38.361  11.962
50978W        W19308  29.507  43.470   4.662
50979W        W19309   2.936  44.441  11.949
50980W        W19310   6.378  21.049  13.435
50981W        W19311  37.888   9.841  14.856
50982W        W19312   5.416  41.467   3.369
50983W        W19313   8.318   9.256   4.751
50984W        W19314  29.043   9.365  10.892
50985W        W19315  23.095  29.924   9.592
50986W        W19316  43.276   0.315  12.053
50987W        W19317  24.033  15.275  12.561
50988W        W19318   6.197  23.658  11.067
50989W        W19319  30.453  44.316   3.669
50990W        W19320  22.207  19.632   2.197
50991W        W19321  36.890  12.801  12.486
50992W        W19322  41.841  25.148  11.520
50993W        W19323  16.626   1.788   0.368
50994W        W19324  14.691  31.029   4.767
50995W        W19325  33.037   4.721   1.853
50996W        W19326   0.366  31.003  13.007
50997W        W19327  42.789  10.257   4.200
50998W        W19328  38.968  41.955   0.356
50999W        W19329  18.752   6.411   4.646
51000W        W19330  15.249  38.334   2.379
51001W        W19331  38.531  15.653  14.006
51002W        W19332  21.125  43.778   2.363
51003W        W19333  11.630  32.987  11.975
51004W        W19334  42.922  38.056  13.866
51005W        W19335  25.605  26.482   2.869
51006W        W19336  33.055  42.420   2.796
51007W        W19337  26.975  25.127  10.429
51008W        W19338  22.245  31.017   3.760
51009W        W19339  17.747  13.106  12.914
51010W        W19340  29.656  19.560  12.356
51011W        W19341  44.341   8.228   0.428
51012W        W19342  23.150  26.558   5.319
51013W        W19343   3.272  42.352  11.612
51014W        W19344  28.025  38.930   2.757
51015W        W19345   5.295  38.002  10.478
51016W        W19346  10.138   7.711   1.877
51017W        W19347   4.279  37.569   3.306
51018W        W19348  34.892  36.373  10.457
51019W        W19349   9.879  41.031  10.593
51020W        W19350   8.405  42.482  14.981
51021W        W19351  31.404   6.383  14.404
51022W        W19352  29.612  32.629  11.073
51023W        W19353  11.727  37.540  12.888
51024W        W19354  34.553  15.282  12.957
51025W        W19355   0.281   3.836   4.674
51026W        W19356  32.630  22.683  11.128
51027W        W19357  20.583  41.481   0.407
51028W        W19358  35.992  38.500  10.888
51029W        W19359  35.516  27.487   0.967
51030W        W19360  29.480   9.761  10.469
51031W        W19361  14.662   0.444  10.925
51032W        W19362  23.537  24.028  13.042
51033W        W19363  10.753  11.263   0.396
51034W        W19364   2.779  24.560   3.209
51035W        W19365  23.546   1.463  13.923
51036W        W19366  27.959  18.577   0.338
51037W        W19367   3.755  10.758   3.857
51038W        W19368   6.915  26.121  14.816
51039W        W19369  16.155  31.511   4.722
51040W        W19370  15.225   9.200   0.957
51041W        W19371   8.775  34.535   4.774
51042W        W19372  36.363  23.516   3.310
51043W        W19373  31.470  25.578   4.737
51044W        W19374  41.334  34.613   3.176
51045W        W19375  19.072   7.290   3.338
51046W        W19376  39.833  36.481  11.438
51047W        W19377  21.023  44.822   2.412
51048W        W19378  12.179   0.858   0.414
51049W        W19379  43.466  27.181  12.001
51050W        W19380  31.071  40.884   2.198
51051W        W19381  38.405  11.856  10.894
51052W        W19382  27.472  11.250  10.152
51053W        W19383   5.230  30.078   0.435
51054W        W19384  33.552  24.150  13.542
51055W        W19385   5.400  23.704  14.512
51056W        W19386  12.324  38.330   4.737
51057W        W19387  30.543  23.163  11.861
51058W        W19388  31.933  28.527  14.448
51059W        W19389  41.471  23.726   0.774
51060W        W19390  16.580   5.867   3.672
51061W        W19391  38.930  43.777   3.346
51062W        W19392  40.332  26.545  14.322
51063W        W19393  17.121  30.948   3.710
51064W        W19394  41.314  32.097   4.792
51065W        W19395   9.230  17.280   3.226
51066W        W19396  36.098  22.038  12.057
51067W        W19397  27.196  13.653   0.475
51068W        W19398  36.470  24.535  14.431
51069W        W19399   4.310  44.403   1.451
51070W        W19400  13.770  26.606   5.258
51071W        W19401  23.550   2.750  13.541
51072W        W19402   0.490   6.802   3.862
51073W        W19403   9.205   7.822  10.429
51074W        W19404  18.204  14.613   3.649
51075W        W19405  24.555   7.302  14.514
51076W        W19406  32.487   0.929  12.896
51077W        W19407  10.321  44.295  11.995
51078W        W19408  38.041  19.620  13.526
51079W        W19409  28.658  19.556  12.434
51080W        W19410  20.743  36.843   1.923
51081W        W19411  24.675  22.576  14.914
51082W        W19412  32.612  25.693  11.095
51083W        W19413   9.695   0.780   2.772
51084W        W19414  43.328  12.346  13.799
51085W        W19415   5.204  38.568  10.642
51086W        W19416  19.257   7.374  13.392
51087W        W19417  26.667  20.710  13.793
51088W        W19418  36.950  21.577  11.944
51089W        W19419  20.671  14.632  11.855
51090W        W19420  13.608  44.314   0.324
51091W        W19421   2.379  18.623  12.932
51092W        W19422  26.593  19.775   0.326
51093W        W19423   9.810   6.789   1.230
51094W        W19424  24.019  16.768   4.201
51095W        W19425  37.895  15.609  13.830
51096W        W19426   6.296  29.051  13.359
51097W        W19427  37.412  12.612  10.942
51098W        W19428  21.750  43.461   2.775
51099W        W19429  14.272  17.771   3.245
51100W        W19430  21.047   7.315   1.712
51101W        W19431  18.737  35.572  14.285
51102W        W19432   8.874   5.339  11.525
51103W        W19433   6.309  31.052  11.572
51104W        W19434  29.607  14.319   2.843
51105W        W19435  36.069  44.879  14.974
51106W        W19436  37.832  18.770  13.945
51107W        W19437   3.801  34.397  10.435
51108W        W19438  38.001  18.231   2.851
51109W        W19439  41.015  36.528   2.749
51110W        W19440  29.056  28.628  14.944
51111W        W19441  18.746  16.118   0.389
51112W        W19442  42.886  20.029   1.826
51113W        W19443   9.758   4.798  14.442
51114W        W19444  27.617  19.081   0.417
51115W        W19445  22.189  24.148   0.280
51116W        W19446   7.729   2.350  14.500
51117W        W19447  29.622  36.917   2.668
51118W        W19448  33.473   6.335  12.406
51119W        W19449  39.052  25.645   3.688
51120W        W19450  27.584  43.809  12.863
51121W        W19451   5.391  29.998   2.303
51122W        W19452   4.445  30.616  12.009
51123W        W19453  43.942   4.763   1.282
51124W        W19454  36.444  13.146   2.868
51125W        W19455  37.933   2.909   2.196
51126W        W19456  44.820   1.871   5.086
51127W        W19457   3.386  27.148  11.947
51128W        W19458  38.058  10.821  10.447
51129W        W19459  23.553  25.185  10.927
51130W        W19460  42.485   7.252  14.980
51131W        W19461  15.802  37.478  11.449
51132W        W19462  24.494  32.413  11.484
51133W        W19463  43.890  13.693  11.449
51134W        W19464  10.657  20.031  11.023
51135W        W19465   8.170   8.202  12.834
51136W        W19466  22.022  10.331  10.596
51137W        W19467  28.031  31.023  13.504
51138W        W19468  11.282   2.454  12.039
51139W        W19469  34.063   4.931   4.785
51140W        W19470   3.786  12.721   2.182
51141W        W19471  28.998  30.628  12.052
51142W        W19472  40.451   1.739   2.783
51143W        W19473  16.802  15.646   1.719
51144W        W19474  34.029  19.189  12.996
51145W        W19475  34.368  27.031  11.884
51146W        W19476  43.386  44.472  10.573
51147W        W19477  35.978  34.987  11.927
51148W        W19478  23.677  32.100  14.444
51149W        W19479  35.451  21.118   3.681
51150W        W19480   6.887  31.597   3.156
51151W        W19481  21.201  39.838  10.444
51152W        W19482  32.541  41.837   2.725
51153W        W19483  28.114  20.748  14.897
51154W        W19484  17.774  15.639   4.728
51155W        W19485  43.404  22.618   2.277
51156W        W19486  43.994  41.459  13.956
51157W        W19487  37.064  38.049   2.189
51158W        W19488  39.404   3.302   4.610
51159W        W19489   2.793  20.177   1.269
51160W        W19490  19.061  33.066   2.752
51161W        W19491   4.895  10.375   2.376
51162W        W19492   1.419  21.185   4.810
51163W        W19493  28.565   7.894   0.390
51164W        W19494  32.108  15.663   1.877
51165W        W19495  30.959  44.319   0.770
51166W        W19496  38.880  39.976   0.737
51167W        W19497  37.474  11.152   4.770
51168W        W19498  12.735  25.986   2.404
51169W        W19499  44.943  17.566   1.211
51170W        W19500  30.526  19.655   3.763
51171W        W19501  32.904  40.430   3.633
51172W        W19502  12.142  44.988  11.458
51173W        W19503  18.569   6.384   5.210
51174W        W19504  27.090  25.528  12.482
51175W        W19505  33.010  40.388  13.403
51176W        W19506  33.933  37.346  14.790
51177W        W19507  26.076  40.971   4.638
51178W        W19508   8.878   5.820  14.350
51179W        W19509  17.566  14.714   0.327
51180W        W19510  19.737  37.490   0.794
51181W        W19511  35.365  20.655  10.496
51182W        W19512  23.652  33.386  10.957
51183W        W19513  12.139  14.735   2.242
51184W        W19514  40.837   1.340  11.537
51185W        W19515   6.245  19.683   0.378
51186W        W19516  39.949  26.114  11.914
51187W        W19517  12.670  41.921   0.886
51188W        W19518  38.486  32.932   0.784
51189W        W19519  39.925  35.093  13.507
51190W        W19520  30.119  36.353  14.786
51191W        W19521   4.252  40.465  11.868
51192W        W19522   5.913  30.439  12.892
51193W        W19523   2.432  35.478  11.398
51194W        W19524  27.621   4.720   2.787
51195W        W19525   6.907  22.574  12.495
51196W        W19526  15.174  31.029   3.758
51197W        W19527   7.836  41.934  14.275
51198W        W19528  10.861  21.615  13.497
51199W        W19529  35.895  24.701   0.414
51200W        W19530   2.921  39.997  12.505
51201W        W19531  27.980  42.416   4.753
51202W        W19532  44.008  39.899  10.644
51203W        W19533  24.531   0.799   3.355
51204W        W19534  40.862  37.047  10.510
51205W        W19535  25.115  33.388   1.213
51206W        W19536  10.168  24.591  10.908
51207W        W19537  19.170  12.764  11.578
51208W        W19538   9.709  33.913  12.946
51209W        W19539  30.617   2.749   0.407
51210W        W19540  10.207  27.027   1.871
51211W        W19541   3.336  10.230  13.014
51212W        W19542  12.677  39.338  11.940
51213W        W19543  14.687  19.285  12.368
51214W        W19544   2.833  34.995   2.753
51215W        W19545  17.743   1.872   0.800
51216W        W19546  42.340  41.819   2.842
51217W        W19547  25.681  26.984  13.336
51218W        W19548  41.386   5.225  12.848
51219W        W19549  15.792   4.231  12.952
51220W        W19550  42.521   3.804  12.996
51221W        W19551  28.156  30.492   9.961
51222W        W19552   3.842  32.592   2.806
51223W        W19553  25.579   5.259   3.217
51224W        W19554  39.997   3.714   4.331
51225W        W19555  34.076  27.448  11.574
51226W        W19556  35.409  32.526   2.698
51227W        W19557  41.922  14.322   5.158
51228W        W19558  34.084   2.371  10.501
51229W        W19559  22.506  14.312  13.051
51230W        W19560  13.694  13.625  12.891
51231W        W19561  31.508  40.525  13.869
51232W        W19562  30.572  11.733  11.526
51233W        W19563  21.155  34.552   0.773
51234W        W19564  23.109  15.160   2.348
51235W        W19565  43.904  44.939   4.223
51236W        W19566   8.707   2.364  11.935
51237W        W19567  29.522   7.383   2.341
51238W        W19568  40.480  14.183   2.347
51239W        W19569  37.556  13.244  13.849
51240W        W19570   4.251  28.126  14.416
51241W        W19571  34.062   9.259  11.446
51242W        W19572  39.352  11.201  11.927
51243W        W19573  34.605   4.423  13.355
51244W        W19574  35.999  38.031   4.741
51245W        W19575  39.017  38.330  14.866
51246W        W19576  20.714  16.088   5.277
51247W        W19577  35.568  20.142  14.951
51248W        W19578  34.571  24.700  14.393
51249W        W19579  12.748  21.081  13.535
51250W        W19580   3.253  14.148  10.449
51251W        W19581  33.112  17.563  12.838
51252W        W19582   5.831  36.431  12.493
51253W        W19583   3.722  26.550   1.210
51254W        W19584  26.659  17.779   4.255
51255W        W19585  30.116  31.428   3.339
51256W        W19586  39.931  41.937   2.855
51257W        W19587  17.602   6.862   2.245
51258W        W19588  22.164  13.275   4.248
51259W        W19589   3.933  42.366   3.234
51260W        W19590  20.697   7.725   9.971
51261W        W19591  41.043  32.462   1.906
51262W        W19592  31.039   4.740  11.120
51263W        W19593   0.945  23.656   0.837
51264W        W19594  15.769  26.107  14.953
51265W        W19595  30.559  25.475   2.413
51266W        W19596  37.977  34.928  14.475
51267W        W19597   5.716   0.255   3.380
51268W        W19598  35.432  41.024   3.637
51269W        W19599  15.230  12.641   0.915
51270W        W19600  11.298  27.076  10.485
51271W        W19601  38.388  18.613  13.950
51272W        W19602  19.176  12.170   4.666
51273W        W19603  34.534  15.687  11.878
51274W        W19604  14.097  23.507   9.955
51275W        W19605  23.137  42.874  14.790
51276W        W19606  33.940  18.655   4.727
51277W        W19607   7.358  17.083  14.900
51278W        W19608   4.714  40.349  13.438
51279W        W19609  10.741  33.533  11.418
51280W        W19610  16.775  41.914  11.917
51281W        W19611  35.434  12.758  12.931
51282W        W19612   6.332  10.644  14.029
51283W        W19613  35.925  18.551  13.018
51284W        W19614  33.456   5.918   0.279
51285W        W19615   2.353  23.071  11.375
51286W        W19616  11.642  19.617  14.496
51287W        W19617  16.108  39.439   3.642
51288W        W19618  39.916  21.126  11.413
51289W        W19619  39.051   7.253  12.984
51290W        W19620   5.408  11.698   1.359
51291W        W19621  13.220  12.176  12.075
51292W        W19622  37.039   3.822  11.118
51293W        W19623  37.990   7.184  14.800
51294W        W19624   2.400  22.112  10.922
51295W        W19625  35.364  11.640  10.602
51296W        W19626  42.871   9.300  12.515
51297W        W19627  28.651  35.098   0.845
51298W        W19628  22.995  11.215  13.890
51299W        W19629  15.752   2.274   5.281
51300W        W19630  18.597  25.092  13.018
51301W        W19631  39.922  30.968  13.408
51302W        W19632  30.421  19.268  10.486
51303W        W19633  38.886  12.333   2.415
51304W        W19634   9.269  27.608   2.319
51305W        W19635   7.397  24.211  11.110
51306W        W19636  25.639  28.026  11.406
51307W        W19637  36.435  11.264  14.514
51308W        W19638  20.157  38.903   3.723
51309W        W19639   6.197  34.895   4.287
51310W        W19640   3.860  44.827  14.301
51311W        W19641  28.618  19.215  13.859
51312W        W19642   3.291  35.906   0.883
51313W        W19643  37.982  32.482  12.945
51314W        W19644   7.711  10.839   0.333
51315W        W19645  28.138  25.075   3.198
51316W        W19646   3.742  10.342   2.325
51317W        W19647  42.523   2.770  12.844
51318W        W19648   2.732  16.808  11.963
51319W        W19649  39.551   0.888  12.453
51320W        W19650  23.033  25.534   2.890
51321W        W19651  18.175   5.751  11.051
51322W        W19652  37.991  26.005   0.830
51323W        W19653   9.784   8.203   1.825
51324W        W19654  37.429   0.328  10.552
51325W        W19655  20.639  44.319   0.955
51326W        W19656   1.336  19.237   1.400
51327W        W19657   5.827  24.499   1.372
51328W        W19658  13.661  38.829  12.019
51329W        W19659  32.498  41.793  11.963
51330W        W19660  15.788   4.814  13.448
51331W        W19661  15.720  18.548   1.922
51332W        W19662  24.060  41.511  12.072
51333W        W19663  38.430  24.161  10.542
51334W        W19664   8.207  17.679   3.830
51335W        W19665  22.565  10.284  11.577
51336W        W19666   4.928   5.375   1.442
51337W        W19667  27.134   0.265  14.902
51338W        W19668  33.474  23.066  11.375
51339W        W19669   2.295   6.752   0.729
51340W        W19670  18.744   8.385  14.404
51341W        W19671  31.093  16.646   0.334
51342W        W19672  16.293   1.344   0.929
51343W        W19673  21.253  13.600   0.859
51344W        W19674   1.267   0.340   0.931
51345W        W19675  30.058  10.181   2.873
51346W        W19676   0.251  31.090  13.802
51347W        W19677  23.548  30.465  13.038
51348W        W19678  20.240   7.723   9.520
51349W        W19679  14.615  23.634  14.980
51350W        W19680   8.760  18.709  10.934
51351W        W19681  31.988  38.483   4.708
51352W        W19682  37.927   7.673  11.470
51353W        W19683  20.739  37.503  13.421
51354W        W19684   3.389  32.061   3.327
51355W        W19685  31.555  44.005   2.748
51356W        W19686  20.158   7.697  10.988
51357W        W19687  37.531  31.942  12.063
51358W        W19688  32.963   2.786   1.284
51359W        W19689  43.435  35.514   1.401
51360W        W19690  24.592  28.984  12.972
51361W        W19691  29.527  36.015  12.847
51362W        W19692  42.423   5.759  14.409
51363W        W19693  38.409   3.867   4.745
51364W        W19694  20.187  22.720   5.251
51365W        W19695   7.707  35.558   0.951
51366W        W19696  21.061  19.244  10.463
51367W        W19697  26.673  11.844  10.483
51368W        W19698  30.947  34.080  13.380
51369W        W19699   7.200   4.274  13.007
51370W        W19700  31.556  18.232  13.884
51371W        W19701  25.201  21.633  11.570
51372W        W19702  23.616  32.905  13.418
51373W        W19703  23.080   6.266   0.742
51374W        W19704  28.961   3.301  12.823
51375W        W19705  28.954  13.254   4.248
51376W        W19706  34.887  33.438  13.465
51377W        W19707  10.757  43.487   2.851
51378W        W19708  18.630  17.218  12.015
51379W        W19709  15.818   3.894   3.760
51380W        W19710  44.489   4.367   0.437
51381W        W19711  28.098  25.472   1.804
51382W        W19712   4.884  18.546   5.084
51383W        W19713  18.766  42.860  12.969
51384W        W19714   6.269  10.669  12.477
51385W        W19715  33.426  44.457   3.731
51386W        W19716  20.040  21.531   1.909
51387W        W19717  42.290  21.118   2.402
51388W        W19718  29.543  20.100   1.825
51389W        W19719  39.463  10.222  11.605
51390W        W19720  44.792   7.816  11.875
51391W        W19721  31.544  15.619  14.905
51392W        W19722  37.562   5.283   0.397
51393W        W19723   2.462  29.171  12.967
51394W        W19724   9.332   2.770  14.413
51395W        W19725  26.700   0.925  12.912
51396W        W19726  43.413  34.025   2.875
51397W        W19727   6.902  43.765  12.418
51398W        W19728  35.534   7.737  10.594
51399W        W19729  21.049   7.295   0.345
51400W        W19730  32.439   6.388   4.728
51401W        W19731  37.367  32.037   3.286
51402W        W19732   2.345  32.059  12.018
51403W        W19733  34.444  40.962  14.772
51404W        W19734   4.773  33.383   0.945
51405W        W19735  18.579  18.731   1.428
51406W        W19736   7.901   8.383  13.335
51407W        W19737   3.908   9.702   3.387
51408W        W19738  25.048  24.015  12.879
51409W        W19739  34.086   1.447   0.954
51410W        W19740  32.449  30.029   0.925
51411W        W19741  32.048  19.252  12.474
51412W        W19742  34.107  36.023   1.695
51413W        W19743  14.173  25.087   3.843
51414W        W19744  33.427  41.327  14.787
51415W        W19745  44.487  10.735   3.669
51416W        W19746  18.746  21.123   1.275
51417W        W19747  33.419   4.934   0.809
51418W        W19748  36.548  26.585   0.449
51419W        W19749  31.044   8.753   3.647
51420W        W19750  44.835  36.010  13.503
51421W        W19751   8.294  20.193  13.009
51422W        W19752  43.299   4.931  11.972
51423W        W19753  17.244   1.742   3.386
51424W        W19754  28.646  39.851  10.609
51425W        W19755   2.823  29.616   4.232
51426W        W19756  22.622   8.694  14.988
51427W        W19757  41.301  24.581  10.957
51428W        W19758  19.672   9.725  10.482
51429W        W19759  38.355  24.070  12.546
51430W        W19760   7.275   2.843   2.869
51431W        W19761   9.264  41.904   3.672
51432W        W19762  10.140   0.397   3.697
51433W        W19763  14.667  13.222  12.943
51434W        W19764  39.469   7.338   3.337
51435W        W19765  41.829  22.683  12.054
51436W        W19766   5.328   7.895   2.312
51437W        W19767  22.108  35.498   0.362
51438W        W19768  24.524  44.420   2.377
51439W        W19769   2.936  36.990   2.815
51440W        W19770  13.214  23.534   4.777
51441W        W19771  37.979   9.726   0.263
51442W        W19772  11.217  29.948  14.901
51443W        W19773  13.320  41.471  13.534
51444W        W19774   7.750  30.001   2.729
51445W        W19775  19.715  21.744  10.489
51446W        W19776  10.144  42.448   4.134
51447W        W19777   9.798  44.808  10.907
51448W        W19778  38.504  43.465  12.996
51449W        W19779  42.959  39.351  12.555
51450W        W19780  25.095  17.259   4.613
51451W        W19781  40.416  26.997   3.697
51452W        W19782  31.510  16.670   1.927
51453W        W19783  17.212  40.844  14.485
51454W        W19784   5.324  20.739  12.969
51455W        W19785   1.420  31.939   0.850
51456W        W19786  12.699  36.976   0.365
51457W        W19787  41.396  42.401  10.978
51458W        W19788  31.943  30.972   3.634
51459W        W19789  36.514  16.234   1.246
51460W        W19790  31.416  12.302   4.198
51461W        W19791   3.287  41.426  10.123
51462W        W19792  22.007   8.789  12.473
51463W        W19793  21.047  21.174  11.435
51464W        W19794  42.411  19.753   2.686
51465W        W19795  10.763  17.208   0.891
51466W        W19796  35.395  44.964  12.480
51467W        W19797   3.875  21.108  12.562
51468W        W19798  27.651   6.836   2.250
51469W        W19799  31.491   7.820   4.717
51470W        W19800  30.449  22.625  10.563
51471W        W19801   4.881  41.818   4.824
51472W        W19802   5.321  31.548  14.407
51473W        W19803  42.922  32.939   2.758
51474W        W19804  18.071   8.264  13.832
51475W        W19805   1.433   8.243   3.256
51476W        W19806   2.955  34.087   2.280
51477W        W19807  27.165  38.482  14.899
51478W        W19808  37.944   1.843   0.412
51479W        W19809  21.518   6.234   3.797
51480W        W19810  15.625  21.682   3.270
51481W        W19811   6.769   8.327  14.806
51482W        W19812  39.919  39.528  11.372
51483W        W19813   1.898  30.539  10.963
51484W        W19814  39.313  34.088   0.782
51485W        W19815  30.462  30.123  14.905
51486W        W19816  12.119  41.016  13.439
51487W        W19817  33.875  44.487  12.999
51488W        W19818  43.337  18.144  10.533
51489W        W19819  16.744  21.072   0.409
51490W        W19820  30.569  10.308   4.240
51491W        W19821  29.158  10.231   2.888
51492W        W19822  24.481  10.710   2.717
51493W        W19823   9.279  42.474  10.522
51494W        W19824  28.467  27.589   2.321
51495W        W19825  41.931  12.150  12.474
51496W        W19826  12.716  26.202  14.979
51497W        W19827   3.298   5.707   2.366
51498W        W19828  37.874  38.984   1.891
51499W        W19829  23.048  33.531   3.149
51500W        W19830  17.703  13.790  12.531
51501W        W19831  21.053  13.256  13.347
51502W        W19832  21.573  35.506   1.363
51503W        W19833  34.932  37.552  11.108
51504W        W19834  16.174  37.944   1.918
51505W        W19835   4.786  31.047   4.230
51506W        W19836  25.596   3.227   3.306
51507W        W19837  42.501  25.114   0.278
51508W        W19838  41.390  23.108  14.347
51509W        W19839  12.762  24.186  11.943
51510W        W19840  27.654   0.955   3.661
51511W        W19841  25.039  40.815  10.634
51512W        W19842  29.568  42.902   3.804
51513W        W19843  44.827  24.117   2.779
51514W        W19844  23.133  22.108  12.862
51515W        W19845  24.089   2.463   3.660
51516W        W19846  14.215  15.686  13.492
51517W        W19847  21.647  44.371  12.031
51518W        W19848  21.237  19.637   1.345
51519W        W19849  30.151   2.756   1.821
51520W        W19850   6.193  16.726  11.574
51521W        W19851  37.372  34.054   2.338
51522W        W19852  24.067  26.457   0.385
51523W        W19853   7.701  35.467   4.633
51524W        W19854  33.554   9.375  14.032
51525W        W19855   6.418  33.462   3.280
51526W        W19856  24.529  17.707  11.039
51527W        W19857  33.478   8.673   3.860
51528W        W19858   9.347  41.506  12.354
51529W        W19859  42.499   0.474  10.500
51530W        W19860  13.346  44.006   4.793
51531W        W19861  13.643  39.492   4.131
51532W        W19862  26.545  21.701   1.314
51533W        W19863  26.526  26.201   2.317
51534W        W19864  21.210   4.884   3.646
51535W        W19865  39.964  22.019   2.823
51536W        W19866  11.258  24.483  11.082
51537W        W19867  44.838  33.898   4.279
51538W        W19868   4.241   5.777  10.928
51539W        W19869  11.226  35.448   4.699
51540W        W19870  19.075  23.736  12.351
51541W        W19871  42.450  32.448  12.903
51542W        W19872  38.861  30.616  12.387
51543W        W19873  39.361   4.439  13.044
51544W        W19874  30.499  11.155  12.573
51545W        W19875  36.964  40.884   3.749
51546W        W19876  37.942   9.852  12.546
51547W        W19877   0.394  14.291   0.774
51548W        W19878   1.283   7.299   4.276
51549W        W19879   4.806  38.024  11.110
51550W        W19880  14.732  12.696   1.750
51551W        W19881  11.232   3.860  10.547
51552W        W19882  40.362  43.461   1.292
51553W        W19883  37.922  39.847  11.006
51554W        W19884  34.009   5.394  12.007
51555W        W19885  22.194  23.548  11.496
51556W        W19886  38.533  42.386  14.794
51557W        W19887  20.606  44.399  13.476
51558W        W19888  38.954   3.405   3.253
51559W        W19889  23.229  17.563   1.845
51560W        W19890   1.798  16.730   3.213
51561W        W19891   6.230  43.508  14.509
51562W        W19892  11.625  34.077   4.648
51563W        W19893  19.262  21.634   4.722
51564W        W19894  25.028  33.481  11.908
51565W        W19895   0.416  39.384  12.407
51566W        W19896   5.314  38.974   2.384
51567W        W19897  43.329  31.495   1.328
51568W        W19898  15.776   5.810   4.723
51569W        W19899   2.814  12.278   0.425
51570W        W19900  11.304  42.300  12.884
51571W        W19901   4.873  18.755  14.365
51572W        W19902  35.886   8.691   3.364
51573W        W19903  14.650  26.976   0.326
51574W        W19904  11.844   2.455  13.940
51575W        W19905   7.195  21.756   0.399
51576W        W19906  17.065  15.160   9.940
51577W        W19907  20.143  10.873   2.773
51578W        W19908  20.702  10.139   2.368
51579W        W19909  16.170  29.163  14.294
51580W        W19910  13.182   6.902  10.539
51581W        W19911  44.289  44.455   5.159
51582W        W19912   8.236  28.168   4.686
51583W        W19913  18.641   4.802  13.442
51584W        W19914  19.075  44.484  10.645
51585W        W19915   4.705   8.162   1.324
51586W        W19916  41.010  18.129  14.401
51587W        W19917  24.587  27.088   0.294
51588W        W19918  43.330  16.715  10.987
51589W        W19919   5.339  29.491  12.967
51590W        W19920   5.842  15.720   4.314
51591W        W19921  41.887  28.935   5.322
51592W        W19922  28.106   4.835  12.835
51593W        W19923  35.515   9.835  11.592
51594W        W19924   8.353   0.848  12.898
51595W        W19925  30.908   9.769  12.345
51596W        W19926  36.441  16.597  10.531
51597W        W19927   6.857  19.163   1.317
51598W        W19928  30.064  11.371   4.120
51599W        W19929  37.913  21.064  12.009
51600W        W19930  31.970  39.896   3.208
51601W        W19931   3.914  23.066  12.425
51602W        W19932  25.972  14.203   3.865
51603W        W19933  16.800  12.716   3.715
51604W        W19934  39.838  16.237   4.179
51605W        W19935  41.889  24.658  12.993
51606W        W19936  40.941  41.321   3.637
51607W        W19937  43.795  30.051  11.472
51608W        W19938  31.448  24.559   2.192
51609W        W19939  15.183   0.820   1.398
51610W        W19940  24.525  13.156  14.929
51611W        W19941  19.768  20.073   4.722
51612W        W19942  20.585  20.173   1.762
51613W        W19943  33.022  39.436  14.906
51614W        W19944  39.867  40.015   3.738
51615W        W19945  42.871   8.308   1.844
51616W        W19946  43.298  12.258  11.945
51617W        W19947  42.936  39.930  11.069
51618W        W19948   6.341  34.490   0.259
51619W        W19949  14.606  35.524  10.933
51620W        W19950  15.765  28.945  12.523
51621W        W19951  38.031  35.100   4.235
51622W        W19952  23.018  41.319   3.821
51623W        W19953  15.670  26.996  12.844
51624W        W19954  35.073  29.494  13.954
51625W        W19955  17.091  27.089   0.902
51626W        W19956  36.078  17.300   1.276
51627W        W19957  31.956  19.556   0.440
51628W        W19958  33.408  11.326   2.745
51629W        W19959   8.786   6.679  12.520
51630W        W19960   6.205  43.821   4.757
51631W        W19961  25.631  23.161  12.453
51632W        W19962  20.682  15.234  12.536
51633W        W19963  36.548  21.716  14.335
51634W        W19964   9.867  41.923  11.005
51635W        W19965  33.613  43.818  11.405
51636W        W19966  21.658  30.632   3.675
51637W        W19967  36.562   0.475  13.038
51638W        W19968  45.000  34.590   3.754
51639W        W19969  42.390  22.039   0.416
51640W        W19970  42.854  42.346   2.683
51641W        W19971  16.758  43.377   1.928
51642W        W19972  35.444  29.623  12.836
51643W        W19973  40.493  44.998   4.262
51644W        W19974   5.285  27.653  14.951
51645W        W19975   2.797  37.872  14.860
51646W        W19976  43.930  36.424  12.921
51647W        W19977  13.244  33.966   1.842
51648W        W19978  34.871  36.445   0.785
51649W        W19979  25.033  39.880  14.022
51650W        W19980   6.285   5.403   4.283
51651W        W19981   8.834   3.422   3.344
51652W        W19982  43.383   3.775   4.645
51653W        W19983   6.816  21.713   1.414
51654W        W19984   7.867   7.736   1.810
51655W        W19985  26.169  31.625   4.650
51656W        W19986  37.903   1.846   2.349
51657W        W19987   7.715  36.850  10.891
51658W        W19988  11.323  28.941   3.333
51659W        W19989  10.804  33.473  13.331
51660W        W19990  18.761  13.660  12.351
51661W        W19991  25.689   2.916  11.572
51662W        W19992  13.125  42.991  13.308
51663W        W19993   2.280  44.959   1.433
51664W        W19994  35.438  38.959   1.868
51665W        W19995  37.062  44.923   4.177
51666W        W19996  18.700  33.591   4.759
51667W        W19997  39.492  41.001  12.385
51668W        W19998  38.014   6.775  11.063
51669W        W19999  31.537  29.939   4.692
51670W        W20000  11.188   6.404   1.716
51671W        W20001   7.293   7.713  13.941
51672W        W20002  12.318  42.283   1.420
51673W        W20003  44.881  19.062   3.679
51674W        W20004  43.478  31.468   2.282
51675W        W20005   3.266  22.173  11.972
51676W        W20006  44.489  37.991  13.945
51677W        W20007   3.823  41.032   0.761
51678W        W20008  42.873  10.654   2.353
51679W        W20009  15.286  28.654  12.833
51680W        W20010  40.914  26.044  13.335
51681W        W20011   7.409   5.318  10.424
51682W        W20012   4.362  41.040  10.493
51683W        W20013  44.455   6.200  10.952
51684W        W20014  34.492  36.548   2.223
51685W        W20015   0.770  14.626   4.771
51686W        W20016  44.784   3.227  11.389
51687W        W20017  14.611  16.606  10.933
51688W        W20018  32.573  17.692  13.903
51689W        W20019  15.631  37.562  10.509
51690W        W20020  26.596  29.545   1.873
51691W        W20021  25.642   4.892   3.308
51692W        W20022  22.741  39.835  13.845
51693W        W20023  26.580  40.519  13.332
51694W        W20024   4.254  25.968  11.456
51695W        W20025   6.199  41.442   1.269
51696W        W20026   1.382  23.649   2.276
51697W        W20027  14.817  21.115  10.983
51698W        W20028   7.347  33.617  10.959
51699W        W20029  26.980  15.789   1.425
51700W        W20030  41.294  19.556   3.786
51701W        W20031  32.124  26.621   1.339
51702W        W20032   6.387  32.417   3.758
51703W        W20033  38.892   8.751  12.887
51704W        W20034  22.635  23.538  14.362
51705W        W20035  18.619  12.846  14.490
51706W        W20036  44.992  28.661   4.198
51707W        W20037   2.369  27.537   3.209
51708W        W20038  35.457   9.287   3.192
51709W        W20039  13.821  40.801   2.229
51710W        W20040  25.075   2.299  10.567
51711W        W20041  14.229  39.883  10.439
51712W        W20042  33.966  36.878  14.771
51713W        W20043  37.993  40.034   4.293
51714W        W20044  34.479  37.507   1.259
51715W        W20045  11.792  11.838   5.199
51716W        W20046   6.374   9.166   1.326
51717W        W20047  29.987   7.344  13.513
51718W        W20048  23.130  21.230   2.297
51719W        W20049  41.959  15.268  13.901
51720W        W20050  36.426   2.360   4.745
51721W        W20051   0.370  27.521   4.194
51722W        W20052  10.307   7.199   5.090
51723W        W20053   1.785  16.129   3.848
51724W        W20054  13.205  31.463  13.384
51725W        W20055   1.408  38.889   2.711
51726W        W20056  30.930   0.856  13.522
51727W        W20057  44.864  41.842  13.950
51728W        W20058  24.679  43.802   3.212
51729W        W20059   6.246  34.568   4.316
51730W        W20060  24.528  32.614  13.346
51731W        W20061   8.880  35.496  10.984
51732W        W20062  33.063   7.354  10.946
51733W        W20063  15.289  29.473   0.871
51734W        W20064  44.442  34.450   4.243
51735W        W20065  18.156  37.969   4.207
51736W        W20066  10.155  35.079  12.387
51737W        W20067  25.181   0.828  13.474
51738W        W20068  25.148   9.369   1.705
51739W        W20069  10.745  20.699   3.677
51740W        W20070  29.980  14.663  11.996
51741W        W20071  28.595  43.995   2.868
51742W        W20072  43.909  44.857   2.708
51743W        W20073  28.053   1.898  11.533
51744W        W20074  29.150  26.092  14.913
51745W        W20075  17.583  26.963  10.551
51746W        W20076  32.563  18.153   0.295
51747W        W20077  32.439  11.192  11.395
51748W        W20078  30.423   1.797   1.336
51749W        W20079  36.922  13.146   0.339
51750W        W20080  34.058  11.194  11.010
51751W        W20081  20.576  12.738  10.967
51752W        W20082  12.327  41.871   2.729
51753W        W20083   5.438  17.157   2.830
51754W        W20084  13.755  26.984  13.052
51755W        W20085  35.932  26.169  10.610
51756W        W20086  10.174   5.204  14.309
51757W        W20087  37.523  28.932   4.229
51758W        W20088  10.774  10.203   2.769
51759W        W20089  41.806   9.335  13.837
51760W        W20090  11.651  14.106   1.862
51761W        W20091  21.243   4.863   0.308
51762W        W20092  41.891  30.537  12.574
51763W        W20093   5.276  37.085  12.492
51764W        W20094  27.146  15.784   2.877
51765W        W20095  35.585  19.239  14.013
51766W        W20096  34.600  11.202   2.392
51767W        W20097   7.837  19.654  10.111
51768W        W20098  43.322  36.557  14.850
51769W        W20099  30.657  33.026  13.035
51770W        W20100  25.981  23.639   2.280
51771W        W20101  36.367  37.540  12.474
51772W        W20102  37.896  36.923  12.530
51773W        W20103  37.917  43.772  11.953
51774W        W20104   2.392  12.149  13.918
51775W        W20105  11.129  33.534   3.208
51776W        W20106  36.506  25.065  14.440
51777W        W20107  27.125  16.588  11.941
51778W        W20108   6.373  24.138  14.969
51779W        W20109  30.592   3.295  14.488
51780W        W20110   6.806   0.278  11.968
51781W        W20111  11.646  31.471  14.924
51782W        W20112  23.999  38.394  11.564
51783W        W20113  11.827  41.882   3.311
51784W        W20114  12.737  13.190   0.892
51785W        W20115  33.983  25.193   4.605
51786W        W20116  22.044  31.935   0.925
51787W        W20117  40.051  24.994  12.502
51788W        W20118   2.829   8.203   4.618
51789W        W20119  39.503  26.124  12.834
51790W        W20120  14.164  36.532   4.683
51791W        W20121  35.390  20.635  14.894
51792W        W20122  10.375  22.054  11.468
51793W        W20123  43.809  22.161   3.240
51794W        W20124   7.389  44.332  13.537
51795W        W20125  23.122   6.192  12.426
51796W        W20126  17.614  42.423   4.335
51797W        W20127  13.691  40.834   1.849
51798W        W20128  15.145  30.165  10.928
51799W        W20129  26.115   7.803   0.385
51800W        W20130  32.542  15.700   2.804
51801W        W20131  37.934  22.541  10.010
51802W        W20132   9.783  42.294  14.786
51803W        W20133  22.667  17.777  13.462
51804W        W20134  36.501  41.889  11.027
51805W        W20135  30.506  22.008  11.911
51806W        W20136   3.318  17.652  12.406
51807W        W20137  41.373  10.218  11.945
51808W        W20138   3.816  35.484   5.708
51809W        W20139  16.261  19.125  12.417
51810W        W20140  19.560   4.214   1.703
51811W        W20141  43.780  24.205   4.671
51812W        W20142  43.370  36.856  10.541
51813W        W20143  43.296  16.197  14.339
51814W        W20144  25.713   0.926  11.869
51815W        W20145  14.178  34.607   9.951
51816W        W20146  17.111  32.005   2.320
51817W        W20147  31.445  12.324   2.388
51818W        W20148  33.973  16.221   1.438
51819W        W20149   9.201  22.540   4.271
51820W        W20150  42.301   8.338  11.416
51821W        W20151  32.453  37.845   3.640
51822W        W20152  41.990   6.305   2.766
51823W        W20153  41.448  38.430  10.526
51824W        W20154   9.387   7.214   4.744
51825W        W20155  25.693  30.010   3.238
51826W        W20156  33.956  43.351  10.982
51827W        W20157  10.690  36.540  10.579
51828W        W20158  14.634   8.782  10.520
51829W        W20159  39.404  42.815   3.718
51830W        W20160   6.910  12.763   0.808
51831W        W20161  15.593  26.623   0.427
51832W        W20162  30.436  42.487  11.605
51833W        W20163  36.476   9.710  14.779
51834W        W20164  19.591  19.639  11.030
51835W        W20165  28.476   6.912  10.478
51836W        W20166  39.057  32.936  10.500
51837W        W20167  37.549  15.663  12.009
51838W        W20168  16.264  17.774  11.098
51839W        W20169  26.684   1.391  12.048
51840W        W20170  42.489   4.447   0.793
51841W        W20171  28.148  34.956   4.306
51842W        W20172  11.793  19.273  12.493
51843W        W20173   6.224   3.299  14.339
51844W        W20174  36.855  43.823  11.490
51845W        W20175  19.772  18.717  12.579
51846W        W20176  28.470  21.527   1.743
51847W        W20177  38.361  36.422  13.039
51848W        W20178  41.328  32.555  13.837
51849W        W20179  34.594  36.881   4.310
51850W        W20180  10.361   0.949   0.484
51851W        W20181  29.029  27.148  12.070
51852W        W20182   7.235  24.619   0.422
51853W        W20183   0.866   7.180   0.941
51854W        W20184  25.601   1.828  10.578
51855W        W20185  37.362   4.726  12.985
51856W        W20186   2.787  26.684   2.866
51857W        W20187  29.954  35.541   2.205
51858W        W20188   9.217  17.706   3.295
51859W        W20189  19.537  17.592   0.249
51860W        W20190  24.113  34.041   2.898
51861W        W20191  34.600   8.286  11.065
51862W        W20192  41.408  36.970   2.807
51863W        W20193  13.754  41.025   3.821
51864W        W20194   0.360  18.578  10.922
51865W        W20195   4.886   1.422  11.069
51866W        W20196  27.487  19.163   3.653
51867W        W20197  37.950  29.164   3.340
51868W        W20198  18.193  36.490  13.986
51869W        W20199  16.106  19.221   2.232
51870W        W20200  16.162  23.553   5.140
51871W        W20201  25.476  15.680  14.338
51872W        W20202   6.822   4.727  11.403
51873W        W20203  24.526  31.586  14.427
51874W        W20204  17.087  25.149   3.653
51875W        W20205  18.218  32.433   0.291
51876W        W20206  10.144  40.040  14.315
51877W        W20207  30.991  17.197   4.642
51878W        W20208  10.273  21.697   9.942
51879W        W20209  36.023  22.601  11.081
51880W        W20210  42.355  35.411   4.118
51881W        W20211  35.536  30.062  14.487
51882W        W20212  18.755   3.449   0.396
51883W        W20213  38.562  28.184   0.817
51884W        W20214   8.295  44.430  14.368
51885W        W20215   6.237  37.381  10.940
51886W        W20216   6.282  38.524  14.420
51887W        W20217  36.491  21.114   3.720
51888W        W20218  29.645  15.591   2.322
51889W        W20219  17.219  12.133   0.346
51890W        W20220  39.022  42.499  11.597
51891W        W20221  42.360  38.964   2.228
51892W        W20222  43.509  13.254   1.412
51893W        W20223  40.445  29.477  12.047
51894W        W20224  17.728   4.388   3.697
51895W        W20225  22.677   0.914   1.719
51896W        W20226  39.913  35.570  11.511
51897W        W20227  31.644  43.841  10.900
51898W        W20228   2.412  15.200  12.499
51899W        W20229  17.640  38.340   0.921
51900W        W20230  29.632   5.304  14.931
51901W        W20231  18.288  30.527  13.311
51902W        W20232  31.622   0.871  14.352
51903W        W20233   0.908  17.212  10.118
51904W        W20234  34.572  16.644  14.846
51905W        W20235  42.009  10.718   1.423
51906W        W20236  35.456  31.403  12.397
51907W        W20237  35.904  24.629  10.894
51908W        W20238   7.259  30.038  14.961
51909W        W20239  23.614  12.824   3.191
51910W        W20240  25.196  25.559   0.916
51911W        W20241  17.279  27.571  13.852
51912W        W20242  23.221  20.745   3.266
51913W        W20243  33.091  32.995   2.887
51914W        W20244  17.193  38.417   4.216
51915W        W20245  13.653  27.520  12.884
51916W        W20246  13.299  35.416   2.402
51917W        W20247  40.342  29.997  10.948
51918W        W20248   2.731  16.623   4.205
51919W        W20249  19.245  26.054  12.000
51920W        W20250   5.214   2.469   4.781
51921W        W20251   9.805  22.190   2.816
51922W        W20252  10.272  16.098  10.006
51923W        W20253   2.858  44.968  13.512
51924W        W20254   9.378  23.730   5.127
51925W        W20255  11.679  26.023   3.218
51926W        W20256  26.971  31.451   3.164
51927W        W20257   0.865  14.699   0.407
51928W        W20258  36.888   9.262   4.337
51929W        W20259   0.930  33.492   3.802
51930W        W20260  30.653  43.452   1.326
51931W        W20261  19.195   3.774  11.994
51932W        W20262  35.016   9.270   3.256
51933W        W20263  25.536  25.712   2.230
51934W        W20264  14.759  42.885   3.719
51935W        W20265  43.819  35.423   0.426
51936W        W20266  41.989  13.130   4.197
51937W        W20267  41.408   2.752   0.782
51938W        W20268  41.803  26.494  13.953
51939W        W20269  26.990  13.228   2.808
51940W        W20270   1.270  18.243   1.800
51941W        W20271  11.325  29.925   1.758
51942W        W20272  26.192   3.714   1.321
51943W        W20273  10.866  38.532  14.936
51944W        W20274   0.797  20.194  12.077
51945W        W20275  10.735  41.433  11.960
51946W        W20276  38.966  21.521   1.288
51947W        W20277  30.148  23.608  11.493
51948W        W20278  21.209  12.238   0.315
51949W        W20279   1.483  19.210  14.002
51950W        W20280   4.250  29.033  14.844
51951W        W20281  39.324  39.545  14.944
51952W        W20282  26.579  37.891  14.832
51953W        W20283  40.402  34.878  12.882
51954W        W20284  35.569  19.218   0.848
51955W        W20285  13.301  17.766  14.413
51956W        W20286  32.897  37.048  12.417
51957W        W20287  20.710  44.333  13.038
51958W        W20288  24.029  21.574   0.369
51959W        W20289  11.687   6.319  10.417
51960W        W20290  44.502   0.260  13.848
51961W        W20291   9.776  28.994  11.584
51962W        W20292   2.892  17.560  10.495
51963W        W20293  34.589  30.651  14.934
51964W        W20294   9.700  17.690  12.453
51965W        W20295  38.016   5.820   0.966
51966W        W20296   3.753  30.555   2.848
51967W        W20297  11.672  30.138   2.775
51968W        W20298  25.971  38.425   1.327
51969W        W20299   5.833   0.981  14.028
51970W        W20300   4.932  21.236  12.920
51971W        W20301  32.544   9.293   0.334
51972W        W20302  13.712  25.669   1.255
51973W        W20303  21.150  43.922  10.566
51974W        W20304  31.918   8.800   9.951
51975W        W20305  21.598   0.323  13.826
51976W        W20306  14.806  39.896  10.084
51977W        W20307  43.906  13.111  13.473
51978W        W20308  15.166  43.882   0.777
51979W        W20309  17.665  12.721  14.802
51980W        W20310  37.042  23.573   4.797
51981W        W20311   8.364  27.185  13.400
51982W        W20312  35.604  31.581  11.557
51983W        W20313  36.440  18.723   2.864
51984W        W20314  18.137  22.673  11.028
51985W        W20315  37.372  28.671  10.600
51986W        W20316  35.484  37.055  10.554
51987W        W20317  11.347  14.184  12.578
51988W        W20318   2.884  25.561   1.332
51989W        W20319   2.246  19.603   1.919
51990W        W20320   1.904  27.492   0.439
51991W        W20321  20.167  14.803   4.815
51992W        W20322   7.216  17.222   2.736
51993W        W20323   7.385  25.525   4.796
51994W        W20324  16.193  30.616  11.890
51995W        W20325  30.650  38.878   4.275
51996W        W20326  30.507  34.915  11.919
51997W        W20327   6.364  19.538   2.857
51998W        W20328  10.716  39.491   1.833
51999W        W20329  13.117   4.828  13.816
52000W        W20330  13.302  29.946  11.518
52001W        W20331  28.157  44.435   0.963
52002W        W20332  23.728  44.278   3.707
52003W        W20333  26.600  34.051  10.888
52004W        W20334   4.759  35.425   3.300
52005W        W20335  31.967   6.318   4.708
52006W        W20336  37.980  12.121   0.267
52007W        W20337  34.602  14.154   1.863
52008W        W20338  10.170  38.408  14.490
52009W        W20339   4.717  32.134  13.361
52010W        W20340  19.222  42.392  12.968
52011W        W20341  15.653  44.435   3.281
52012W        W20342  15.187  31.545  11.381
52013W        W20343  42.521   1.768  10.458
52014W        W20344  19.594  20.041   1.865
52015W        W20345  30.998   1.925   4.209
52016W        W20346  36.002  41.340  12.430
52017W        W20347   8.168  19.155  13.460
52018W        W20348  36.435  27.613   3.858
52019W        W20349  17.267  35.580   4.163
52020W        W20350  27.997  43.815  12.825
52021W        W20351  28.170  32.469  10.948
52022W        W20352  41.932  28.508  12.878
52023W        W20353   9.705   1.461  11.419
52024W        W20354  18.633  26.983  10.466
52025W        W20355  12.309  21.671   3.703
52026W        W20356  29.431  34.493  11.873
52027W        W20357   5.709   5.310   0.455
52028W        W20358  36.969  41.877  10.981
52029W        W20359  11.222  24.093  12.877
52030W        W20360  29.564  14.772   3.182
52031W        W20361  32.095  27.689  13.890
52032W        W20362  44.487   8.193  13.889
52033W        W20363  10.793  33.581  14.480
52034W        W20364   3.930  24.493   1.436
52035W        W20365  44.367  20.528  14.917
52036W        W20366  38.880   6.858  13.883
52037W        W20367  44.870  28.115   2.881
52038W        W20368  21.221  42.328   2.779
52039W        W20369   0.448  27.150   4.306
52040W        W20370  27.581  23.084   2.250
52041W        W20371  30.026  33.555  14.775
52042W        W20372   0.913  15.594   1.895
52043W        W20373   6.314  41.469  11.610
52044W        W20374  15.631   2.823  12.015
52045W        W20375  44.395   1.255  12.500
52046W        W20376   5.195   7.349  13.966
52047W        W20377  14.623  43.795   1.822
52048W        W20378  39.508   7.857   0.396
52049W        W20379  11.348  27.604  13.020
52050W        W20380  28.060  16.302  13.955
52051W        W20381  33.025  30.464  13.033
52052W        W20382  43.435  34.418   0.839
52053W        W20383  35.398  13.675  10.482
52054W        W20384   9.683   0.814  10.639
52055W        W20385  33.574  37.362   3.658
52056W        W20386  40.459   5.400  14.847
52057W        W20387   4.401  41.334  13.460
52058W        W20388  23.992  42.917  10.036
52059W        W20389  21.216  15.307  11.929
52060W        W20390  19.580  43.767   3.208
52061W        W20391  25.611   1.258   2.850
52062W        W20392  22.674  42.917  12.962
52063W        W20393  21.067  22.669  14.321
52064W        W20394  28.629  34.612   0.918
52065W        W20395  32.075  38.569  10.574
52066W        W20396  38.903  28.515  12.016
52067W        W20397  38.988   7.351   3.712
52068W        W20398  24.980  28.966  10.890
52069W        W20399  30.551   6.286   2.215
52070W        W20400  22.072  25.156   0.321
52071W        W20401  39.482   2.452   2.341
52072W        W20402  31.557  21.176   4.266
52073W        W20403  32.522   3.770   1.794
52074W        W20404  35.886  13.718   3.334
52075W        W20405  21.164   9.865   9.662
52076W        W20406  23.661   2.410   4.608
52077W        W20407   1.899  32.637  12.557
52078W        W20408  29.664  30.147  14.385
52079W        W20409  43.511  23.519  14.980
52080W        W20410  15.735  38.505   2.705
52081W        W20411   7.879   0.384   1.212
52082W        W20412  32.635  36.995  11.082
52083W        W20413  20.194  21.531   3.276
52084W        W20414  12.349  11.141   0.310
52085W        W20415  30.038   8.669   4.207
52086W        W20416  29.542   8.301   4.742
52087W        W20417  15.801  42.967   4.669
52088W        W20418   5.928  21.040  10.934
52089W        W20419  10.822  36.870   4.318
52090W        W20420  40.878  23.673  14.502
52091W        W20421  19.254  38.985   3.233
52092W        W20422  34.517  20.127   4.674
52093W        W20423  23.526  20.625   2.279
52094W        W20424   6.884  38.994  14.980
52095W        W20425  22.635   4.859   5.245
52096W        W20426  23.167  16.127  12.830
52097W        W20427  40.412  32.097  14.996
52098W        W20428  29.972  16.160   2.287
52099W        W20429  30.011  16.729  14.878
52100W        W20430  44.440  25.679   4.642
52101W        W20431   5.847   2.359   2.295
52102W        W20432   0.834   4.249  12.050
52103W        W20433  40.430  23.995  11.382
52104W        W20434  18.618   6.917   3.313
52105W        W20435  22.538  28.552  10.974
52106W        W20436   7.860  37.035   3.799
52107W        W20437  28.448  16.118   1.712
52108W        W20438  17.792  18.544   3.365
52109W        W20439   0.798  13.678   0.869
52110W        W20440  20.029  14.255   1.440
52111W        W20441  43.314  42.326   4.720
52112W        W20442  16.257   8.695   3.764
52113W        W20443   0.976  35.501  10.541
52114W        W20444  33.409   6.713  11.565
52115W        W20445  31.503  13.137   4.208
52116W        W20446  36.926  42.864   2.198
52117W        W20447  14.806  32.522   4.125
52118W        W20448  20.266  28.937   3.307
52119W        W20449  26.632  24.205   1.907
52120W        W20450  30.649   6.348   1.319
52121W        W20451  30.477   9.389   0.755
52122W        W20452  31.568   3.445  11.555
52123W        W20453  38.462  26.054  11.053
52124W        W20454  22.228   3.293   4.785
52125W        W20455   4.343  33.555   2.309
52126W        W20456  42.785  16.584   2.303
52127W        W20457  35.512  19.546   4.794
52128W        W20458  27.143  44.757   3.233
52129W        W20459  33.115  25.584   3.822
52130W        W20460  37.865  11.245  14.292
52131W        W20461  23.143   2.895  12.469
52132W        W20462  13.168  30.478   3.302
52133W        W20463  38.819   6.244   0.362
52134W        W20464  25.116  18.629  11.547
52135W        W20465  25.626  14.284   5.271
52136W        W20466  30.049   0.442   3.765
52137W        W20467  38.361  42.390   4.250
52138W        W20468  14.676   1.814  13.342
52139W        W20469  15.624   1.913   1.266
52140W        W20470   9.258  44.465  12.470
52141W        W20471  22.685  19.633  11.402
52142W        W20472   3.257   8.207  11.476
52143W        W20473  33.468  10.649  14.367
52144W        W20474  16.244  31.984   4.688
52145W        W20475  24.688  31.600  10.925
52146W        W20476  11.685  14.218   5.208
52147W        W20477  39.920  40.392   2.704
52148W        W20478  38.919  28.968  12.951
52149W        W20479  31.561  41.796   1.736
52150W        W20480  30.501  23.094  10.129
52151W        W20481  40.519   9.246   3.830
52152W        W20482   6.210  10.715   0.287
52153W        W20483   2.959   9.359  11.557
52154W        W20484  40.979  39.522   0.921
52155W        W20485   9.707  31.574  14.032
52156W        W20486  33.915   9.841  11.475
52157W        W20487  25.975   4.779  10.912
52158W        W20488  38.943   8.364  14.348
52159W        W20489  27.098   1.844   4.160
52160W        W20490  20.665  34.607  11.050
52161W        W20491   0.948   2.889   0.475
52162W        W20492  18.093  19.217  14.349
52163W        W20493   4.742  36.888  12.069
52164W        W20494  36.468  23.049   0.283
52165W        W20495   9.388   8.811  12.019
52166W        W20496  26.021  16.775  13.398
52167W        W20497  32.616   2.465  10.467
52168W        W20498   7.867  21.067  10.124
52169W        W20499   7.200  38.998  12.935
52170W        W20500  42.825  42.460  14.469
52171W        W20501  16.132  22.079  12.929
52172W        W20502  44.289  23.204   1.307
52173W        W20503   3.292  41.013  11.883
52174W        W20504  22.100   4.717  13.060
52175W        W20505  28.466  19.757  12.932
52176W        W20506  22.251  33.985  13.524
52177W        W20507  21.179  35.534  13.982
52178W        W20508   1.969  40.488   2.196
52179W        W20509  17.679  24.982  13.061
52180W        W20510  11.652  23.602   4.701
52181W        W20511  26.082  23.518  14.390
52182W        W20512  14.182   5.846  12.983
52183W        W20513  17.166  12.660  12.451
52184W        W20514   0.813  13.210  11.604
52185W        W20515  21.048  19.675   4.281
52186W        W20516  17.228  23.568  10.634
52187W        W20517  42.858  44.495   1.857
52188W        W20518  21.571   0.976   4.117
52189W        W20519   4.314  33.995   1.776
52190W        W20520  17.216  34.461  12.841
52191W        W20521   4.862  33.990   2.752
52192W        W20522  18.763  30.596   9.923
52193W        W20523   1.470  10.662  12.095
52194W        W20524   5.873  34.579   1.785
52195W        W20525  41.479  35.537   0.360
52196W        W20526  13.752  30.060   1.804
52197W        W20527  25.143  10.740   0.421
52198W        W20528  21.534  27.143   0.290
52199W        W20529  10.773  17.288  11.611
52200W        W20530  25.515   1.860  12.517
52201W        W20531  16.089  40.348  11.578
52202W        W20532  13.635  14.819   4.727
52203W        W20533  14.125  43.430   4.600
52204W        W20534   0.332   9.375   3.322
52205W        W20535  35.434  14.608   2.808
52206W        W20536  32.989  22.632  13.973
52207W        W20537  40.414  10.697   0.301
52208W        W20538  25.200  10.633   1.407
52209W        W20539  36.412   8.865   0.729
52210W        W20540  31.541  14.704   3.197
52211W        W20541  34.072   5.894   0.827
52212W        W20542   3.453  15.132  13.315
52213W        W20543  33.586  21.724  12.005
52214W        W20544  24.663  40.327  14.872
52215W        W20545  36.868   9.851   1.727
52216W        W20546  34.874  29.996  11.105
52217W        W20547   4.368  36.951  14.461
52218W        W20548  28.149   2.966  12.920
52219W        W20549  23.128  39.966   1.707
52220W        W20550  19.579  38.552  11.927
52221W        W20551  41.398  38.017  12.941
52222W        W20552  14.749   5.305   0.464
52223W        W20553  37.007  38.374   0.313
52224W        W20554   4.344  24.580   1.750
52225W        W20555  28.137  36.896   4.604
52226W        W20556  22.123  16.199   4.203
52227W        W20557  27.185  44.828  10.897
52228W        W20558  33.567  25.692   1.717
52229W        W20559   8.839  44.792  10.632
52230W        W20560  34.488  30.573  11.893
52231W        W20561   5.807  17.235   3.669
52232W        W20562  29.463  37.912   4.310
52233W        W20563   9.781  30.450   4.747
52234W        W20564  32.920  14.111   3.322
52235W        W20565  39.827  32.433  10.424
52236W        W20566  25.148  34.417   2.260
52237W        W20567  20.232  31.993  11.560
52238W        W20568  26.593  36.093  13.398
52239W        W20569  42.475  26.617  10.092
52240W        W20570   0.434   7.773  10.515
52241W        W20571   1.818  24.227  11.894
52242W        W20572  42.827  35.556   4.734
52243W        W20573  11.282  28.131   2.327
52244W        W20574  21.049   8.406  11.988
52245W        W20575  39.454  41.990  11.128
52246W        W20576  13.303  10.310   1.734
52247W        W20577  10.848  41.328  11.464
52248W        W20578   1.261   6.697   1.841
52249W        W20579  24.516  11.206   4.632
52250W        W20580  12.819  20.640   4.758
52251W        W20581   2.343  12.837  13.060
52252W        W20582  28.991  11.714   3.181
52253W        W20583  33.954   9.157  10.453
52254W        W20584  33.130  14.749   3.717
52255W        W20585  15.634  32.401   1.815
52256W        W20586  15.780   6.361  13.006
52257W        W20587   5.410   5.263  10.556
52258W        W20588   2.757  24.224  13.548
52259W        W20589  15.745  33.557  11.463
52260W        W20590  36.969  20.247   4.124
52261W        W20591  27.621  24.160   1.723
52262W        W20592   9.766   8.321   0.385
52263W        W20593  31.090  32.040  14.957
52264W        W20594  40.887  17.151  11.525
52265W        W20595  41.024   6.785   2.669
52266W        W20596  22.056  25.636   4.820
52267W        W20597  40.461  36.060   1.901
52268W        W20598  10.247  17.116  12.567
52269W        W20599   2.378  37.533  10.928
52270W        W20600  37.574  37.919   0.261
52271W        W20601  26.538   8.176   0.361
52272W        W20602  31.475  11.254  11.860
52273W        W20603  25.967  39.536  10.482
52274W        W20604  14.222  18.224  10.410
52275W        W20605  15.291  11.296   0.882
52276W        W20606   7.224  42.786  10.506
52277W        W20607  35.051  18.648   0.746
52278W        W20608  44.306  33.391   4.705
52279W        W20609  14.335  39.394  14.964
52280W        W20610  36.585  18.783   0.378
52281W        W20611  31.948  38.031   0.407
52282W        W20612  31.570  30.537   2.303
52283W        W20613   5.839  10.356   2.356
52284W        W20614  10.174   1.897   4.173
52285W        W20615  38.361  37.069   0.754
52286W        W20616  43.298  21.184   2.257
52287W        W20617  19.078  15.112  13.062
52288W        W20618  20.720  16.749  10.489
52289W        W20619  29.512  31.473   0.759
52290W        W20620  28.074  39.016  10.575
52291W        W20621  16.593  38.884  13.497
52292W        W20622  27.512  35.012   2.662
52293W        W20623  29.175  35.040  13.918
52294W        W20624  33.469  37.379   4.170
52295W        W20625  42.031  44.272   3.742
52296W        W20626   2.924  16.074   4.737
52297W        W20627  25.560   5.737  11.416
52298W        W20628  30.651  32.493   3.812
52299W        W20629   5.850  41.835  13.530
52300W        W20630   4.835  18.234  13.983
52301W        W20631  20.658  37.552  14.355
52302W        W20632  23.553   8.241   3.341
52303W        W20633  37.968  26.050  13.911
52304W        W20634  27.960   8.343   3.633
52305W        W20635  42.316  37.569  12.511
52306W        W20636  13.659  37.986   4.762
52307W        W20637  30.491  23.088  12.454
52308W        W20638  37.460  11.845  11.509
52309W        W20639  26.576   7.265   1.824
52310W        W20640  31.041  14.316   1.933
52311W        W20641  17.711  16.157  14.776
52312W        W20642  24.571  44.440  11.596
52313W        W20643  23.567   6.265  10.582
52314W        W20644  44.909  24.702  13.821
52315W        W20645  25.679   9.680  13.341
52316W        W20646  20.647  41.358   4.792
52317W        W20647  25.135  29.632  14.942
52318W        W20648  11.648   6.299  13.515
52319W        W20649  12.192  17.175  14.378
52320W        W20650   5.219  43.513   1.333
52321W        W20651  40.940  10.276   9.980
52322W        W20652  14.796  10.229  11.880
52323W        W20653  18.141  11.699  13.367
52324W        W20654   8.879   7.763   0.369
52325W        W20655  23.097  18.230   5.776
52326W        W20656  16.257   6.815   1.702
52327W        W20657  22.649   0.901   0.800
52328W        W20658  29.579  19.144  11.037
52329W        W20659  21.573  38.908   1.263
52330W        W20660  13.714  44.341  12.871
52331W        W20661   2.359   2.418   2.718
52332W        W20662  27.079  18.268   1.448
52333W        W20663  31.471   7.349  12.473
52334W        W20664  41.831   0.455  13.852
52335W        W20665  17.147  17.737  13.877
52336W        W20666  20.606   2.802   1.798
52337W        W20667  25.485  41.988  11.421
52338W        W20668  29.127  19.154  14.769
52339W        W20669  29.108  43.428  13.373
52340W        W20670  39.373  11.254  14.769
52341W        W20671   5.281  37.935   9.533
52342W        W20672  28.564   3.807  10.537
52343W        W20673  29.594  18.651   4.203
52344W        W20674  40.377  15.592  11.118
52345W        W20675  20.636  30.078  14.943
52346W        W20676  16.315  40.545   4.790
52347W        W20677   9.857  24.538   4.680
52348W        W20678  40.843  22.007  11.052
52349W        W20679   6.304  36.994  12.535
52350W        W20680  11.333   5.730   3.700
52351W        W20681  12.275  41.010  14.761
52352W        W20682  24.611   1.822   4.675
52353W        W20683  23.998  39.001  11.375
52354W        W20684   5.394  31.647   3.758
52355W        W20685  39.414  40.414  14.025
52356W        W20686  43.972  24.715  14.407
52357W        W20687  30.549  41.926   4.666
52358W        W20688  35.992  43.959   0.338
52359W        W20689  14.278   0.761  13.374
52360W        W20690   1.895  19.635   4.826
52361W        W20691  11.189  11.315  13.835
52362W        W20692   6.328   7.302  13.538
52363W        W20693   7.676  34.574   0.405
52364W        W20694  34.886  43.907  11.414
52365W        W20695  28.664  41.871  12.092
52366W        W20696  10.274   1.859   3.334
52367W        W20697  14.674  29.504  11.467
52368W        W20698  17.739  42.425   0.478
52369W        W20699   4.316  39.392  10.056
52370W        W20700   4.378  38.897  13.323
52371W        W20701   6.801  39.814   4.280
52372W        W20702   8.262  14.191  12.963
52373W        W20703   6.345   2.801  11.477
52374W        W20704   0.883   0.473   3.862
52375W        W20705  24.135   3.238  12.556
52376W        W20706  25.614  41.394   3.198
52377W        W20707  36.089   5.203   4.284
52378W        W20708  21.635   1.286  13.020
52379W        W20709   0.322  22.724  12.438
52380W        W20710  38.470  33.506  10.600
52381W        W20711   5.268   2.255   0.336
52382W        W20712  23.727  37.450   3.744
52383W        W20713  19.192  42.325  11.902
52384W        W20714  17.077   1.455  12.835
52385W        W20715  19.222   7.303   0.918
52386W        W20716  42.285  24.485   3.305
52387W        W20717  31.545   0.396   3.186
52388W        W20718  26.067  24.585   3.303
52389W        W20719  27.161  31.525  11.421
52390W        W20720  18.120  12.733  10.997
52391W        W20721   8.217  32.459   4.684
52392W        W20722   3.289  30.049   3.712
52393W        W20723  25.022  34.953   4.334
52394W        W20724  23.020  15.270  11.126
52395W        W20725  31.407  10.875   3.710
52396W        W20726  13.301  24.711   4.702
52397W        W20727  16.179   6.722  10.568
52398W        W20728  43.817   9.338   2.676
52399W        W20729  21.529   0.917  11.892
52400W        W20730  23.602  43.280   1.806
52401W        W20731  21.159  13.112  12.962
52402W        W20732  18.779  33.614  14.913
52403W        W20733  23.682  33.591   0.746
52404W        W20734   2.234  29.075   3.837
52405W        W20735  42.017   5.243   2.668
52406W        W20736  32.595  22.728  10.471
52407W        W20737   2.332  33.425  10.132
52408W        W20738   0.248  27.500  10.445
52409W        W20739  12.766  39.880  12.090
52410W        W20740  42.317  33.932  13.820
52411W        W20741  30.479  38.464  10.561
52412W        W20742  21.704   7.175  14.896
52413W        W20743  22.688  31.592   3.224
52414W        W20744  15.170  23.052   3.299
52415W        W20745  22.006  42.472   0.745
52416W        W20746  44.762  26.507   1.423
52417W        W20747  21.570  22.584  11.926
52418W        W20748  30.139   9.861   1.445
52419W        W20749   2.902  33.937  11.509
52420W        W20750  28.680  37.883   4.810
52421W        W20751  16.795  26.504   1.373
52422W        W20752  30.148  44.335  11.394
52423W        W20753  33.908  23.644   0.911
52424W        W20754  26.197  10.872   4.598
52425W        W20755  38.822   6.324   1.416
52426W        W20756  14.806  30.936   1.424
52427W        W20757  12.713  15.808   0.848
52428W        W20758  29.496  31.562   3.382
52429W        W20759  29.648  29.091   3.194
52430W        W20760  22.014  21.061   2.881
52431W        W20761  12.137   8.833  10.586
52432W        W20762  25.039  16.682  12.390
52433W        W20763  37.955  25.051   2.418
52434W        W20764  10.316  40.422   4.661
52435W        W20765  13.324  12.759   3.200
52436W        W20766  17.250  40.309  13.889
52437W        W20767  12.665   9.685  11.573
52438W        W20768  22.533  11.821  11.529
52439W        W20769  41.419  18.559  11.398
52440W        W20770  20.039  26.111  11.876
52441W        W20771   8.758  28.606  13.820
52442W        W20772  39.986   8.186  12.394
52443W        W20773   1.261  44.890   2.779
52444W        W20774  28.591  30.150  14.512
52445W        W20775   4.854   7.206  13.790
52446W        W20776  31.422  34.090   0.386
52447W        W20777  34.526   9.767   4.277
52448W        W20778  20.579  25.096   3.852
52449W        W20779  31.119  14.217  10.132
52450W        W20780  33.903  26.054   4.136
52451W        W20781  17.638  25.655   5.697
52452W        W20782   9.356  35.431  14.923
52453W        W20783  12.304  17.288  13.363
52454W        W20784  14.821  28.100   1.392
52455W        W20785  21.180  25.092  13.835
52456W        W20786  23.037   4.402   0.734
52457W        W20787  30.461  14.188  13.963
52458W        W20788  15.610  21.608   4.626
52459W        W20789  24.540  23.127  12.958
52460W        W20790  22.115  39.972   0.364
52461W        W20791   7.864  27.592   2.376
52462W        W20792  29.950  18.203   0.427
52463W        W20793   2.746  43.968   4.826
52464W        W20794  24.624  26.164   4.306
52465W        W20795  26.535  43.313  14.375
52466W        W20796  42.939  10.839  11.449
52467W        W20797  15.668   1.281   2.382
52468W        W20798  44.285  42.499  12.096
52469W        W20799   9.226  19.074   0.341
52470W        W20800  28.531  36.445  13.989
52471W        W20801   4.211  19.590   3.752
52472W        W20802  41.429   6.291   1.719
52473W        W20803  39.058  20.083   4.816
52474W        W20804  32.451  34.408  13.864
52475W        W20805  14.230  30.650   0.430
52476W        W20806  44.488  23.039  11.569
52477W        W20807  19.107  28.058   0.431
52478W        W20808  32.946  21.124  10.468
52479W        W20809   0.440  44.309  13.393
52480W        W20810  32.954  39.490  13.812
52481W        W20811  24.694   8.860   4.700
52482W        W20812  22.601   7.761   1.411
52483W        W20813  18.697  15.585   0.781
52484W        W20814  35.437  32.991  10.463
52485W        W20815  39.896   1.394  13.019
52486W        W20816  20.214  24.688   4.218
52487W        W20817  39.386  18.644  14.005
52488W        W20818   8.292  37.383  10.533
52489W        W20819  31.588  12.294   1.772
52490W        W20820  10.770  29.594  13.912
52491W        W20821  10.738  29.962   4.314
52492W        W20822  12.769  10.327  10.943
52493W        W20823  40.807  44.872  13.992
52494W        W20824  33.588  13.230   3.252
52495W        W20825  20.120   3.315   0.807
52496W        W20826  35.396  25.686   2.190
52497W        W20827  15.115  19.250   1.725
52498W        W20828  39.989   3.757  10.893
52499W        W20829  13.652   8.852  14.772
52500W        W20830  25.129   7.764  14.921
52501W        W20831  31.478  21.632   2.337
52502W        W20832   1.813  14.258   0.822
52503W        W20833  30.514   7.814  13.349
52504W        W20834  10.856   3.798  14.840
52505W        W20835  29.947   2.380   1.708
52506W        W20836  31.988  30.433  14.329
52507W        W20837  23.998  34.986   0.883
52508W        W20838   9.828  39.443  11.387
52509W        W20839  44.368   8.370   2.783
52510W        W20840  25.055  32.439   4.653
52511W        W20841   7.739  19.727  14.851
52512W        W20842  11.707  26.689   3.636
52513W        W20843  38.953  35.011   4.317
52514W        W20844  13.690  20.243   3.156
52515W        W20845  43.862   2.426   4.289
52516W        W20846   2.335  27.095  11.977
52517W        W20847  34.869  32.887  13.041
52518W        W20848  26.467  17.084  12.002
52519W        W20849  11.310  32.614  12.834
52520W        W20850  16.109  22.057   3.672
52521W        W20851  34.899   1.413  12.004
52522W        W20852  10.195  34.998   0.854
52523W        W20853  31.905  32.095   0.898
52524W        W20854  13.677   0.255  11.427
52525W        W20855   6.185  36.524  12.912
52526W        W20856  43.022  17.751   3.654
52527W        W20857  11.369  14.224   2.349
52528W        W20858  40.054   8.815  10.976
52529W        W20859   2.284  35.046   0.429
52530W        W20860  44.754  37.349  12.374
52531W        W20861  31.950  28.519   3.778
52532W        W20862  17.162  34.979   4.326
52533W        W20863  29.953   0.276  12.386
52534W        W20864  17.785  19.270  12.382
52535W        W20865  16.194  39.864   0.260
52536W        W20866   2.446  38.552  11.101
52537W        W20867  33.545  31.947  12.996
52538W        W20868  37.570  43.926  11.482
52539W        W20869   4.433  22.683   2.389
52540W        W20870  24.672  20.673  12.447
52541W        W20871  20.153  31.451   2.780
52542W        W20872  33.416  22.698  11.091
52543W        W20873  11.286   2.259   2.206
52544W        W20874  10.835  14.763   4.782
52545W        W20875  12.853  23.684   2.692
52546W        W20876  14.262  41.822   4.735
52547W        W20877   2.306  15.785   5.310
52548W        W20878  28.976   1.814   2.220
52549W        W20879  42.308  24.136  14.505
52550W        W20880   0.775  16.291   2.869
52551W        W20881  32.507  40.408  12.870
52552W        W20882   7.210   1.918   2.247
52553W        W20883  18.188   6.406   4.710
52554W        W20884  28.931   6.913  11.053
52555W        W20885  23.233  36.959   3.311
52556W        W20886  35.461  24.047   4.117
52557W        W20887  29.018  34.480  14.455
52558W        W20888  40.955  22.027   2.239
52559W        W20889   2.381  29.134  10.594
52560W        W20890  19.544  41.014   2.182
52561W        W20891  26.205   3.789   0.351
52562W        W20892  13.327  42.863   3.657
52563W        W20893  26.607  40.030  11.504
52564W        W20894   1.451  25.639   1.758
52565W        W20895  36.525  17.786   2.819
52566W        W20896  43.979  42.026  12.541
52567W        W20897  22.638  26.468   4.326
52568W        W20898  21.567  38.459   3.814
52569W        W20899  23.661  35.564   0.347
52570W        W20900  22.641   5.438   1.758
52571W        W20901  37.432  19.772  13.795
52572W        W20902  36.867  34.605   3.714
52573W        W20903  32.018  23.232  10.410
52574W        W20904  14.330   3.412   2.214
52575W        W20905   9.799  22.614   2.866
52576W        W20906   8.668  11.716   2.190
52577W        W20907  28.155  29.113  14.370
52578W        W20908  18.201   2.919  13.513
52579W        W20909   8.893   9.323   1.451
52580W        W20910  27.671  41.006   0.817
52581W        W20911  44.009  39.057   0.370
52582W        W20912  26.137  25.705  14.337
52583W        W20913  16.215  41.924  13.054
52584W        W20914   2.358  11.243  14.277
52585W        W20915  33.490  24.988   2.382
52586W        W20916  37.401  13.194  12.555
52587W        W20917  11.350  20.254   3.252
52588W        W20918   2.319  40.805  12.908
52589W        W20919  32.974  13.184  14.032
52590W        W20920  38.920  39.509  14.884
52591W        W20921  16.624  16.088   4.683
52592W        W20922  40.538  38.491   1.831
52593W        W20923   7.832  28.007   5.210
52594W        W20924  11.660  36.047  14.471
52595W        W20925  32.013  40.360  14.440
52596W        W20926  18.566  42.925  12.425
52597W        W20927  39.505  43.480  14.327
52598W        W20928  16.688  30.069  12.867
52599W        W20929   0.799   7.316   1.210
52600W        W20930  38.484  28.088  14.977
52601W        W20931  36.457  28.550   2.723
52602W        W20932  28.022  29.581  10.514
52603W        W20933  14.336  27.493  11.113
52604W        W20934  16.210  21.518  13.877
52605W        W20935  12.775  21.119   2.848
52606W        W20936  20.638  10.780  14.810
52607W        W20937  17.277  36.892   2.845
52608W        W20938   8.871  17.139   1.405
52609W        W20939  24.002   1.472  14.978
52610W        W20940  26.542  18.271   2.872
52611W        W20941  43.834   7.379  11.953
52612W        W20942  20.600  10.383   4.806
52613W        W20943  24.063  15.798  14.825
52614W        W20944   7.355  17.719   0.460
52615W        W20945  12.241   2.233   1.381
52616W        W20946  29.931   8.874  10.432
52617W        W20947  31.902  43.939   4.834
52618W        W20948  11.820  18.556   3.826
52619W        W20949  34.585  21.607  12.922
52620W        W20950  38.361  43.861   2.182
52621W        W20951  15.246  14.817  14.915
52622W        W20952   7.798  40.462   0.305
52623W        W20953  44.897  18.598  12.080
52624W        W20954  32.102   2.299  12.030
52625W        W20955  44.350  37.848  10.973
52626W        W20956  26.495  13.706  12.390
52627W        W20957  14.131   1.797   0.839
52628W        W20958  21.709  31.641  13.322
52629W        W20959  30.629   7.241   1.354
52630W        W20960  33.592   1.769   3.302
52631W        W20961  20.580  24.208   2.249
52632W        W20962  28.474  35.403  12.505
52633W        W20963  15.631  35.908   2.798
52634W        W20964  44.924  13.153  11.954
52635W        W20965  35.975  28.976   2.204
52636W        W20966  34.400  30.489  12.461
52637W        W20967  15.813  39.501   4.838
52638W        W20968  17.767  40.815   2.213
52639W        W20969   7.777  34.514   2.846
52640W        W20970  42.000  35.427   2.360
52641W        W20971  25.083  12.823   1.784
52642W        W20972  22.196  35.538   2.891
52643W        W20973   5.259  18.160   2.225
52644W        W20974   7.287  41.408  14.398
52645W        W20975  11.320  34.478  12.402
52646W        W20976  34.399  34.411  11.987
52647W        W20977  21.150   6.413   4.607
52648W        W20978   9.665  10.804   0.918
52649W        W20979  18.073   1.870   4.655
52650W        W20980  32.473  31.064  14.437
52651W        W20981  29.143  31.139  12.538
52652W        W20982  44.992  43.962   1.834
52653W        W20983  39.324  10.161  10.598
52654W        W20984   7.693  17.639   0.242
52655W        W20985  42.340  43.966  13.915
52656W        W20986  41.472  38.374   1.712
52657W        W20987  36.875  23.688  11.452
52658W        W20988   4.349  19.216  12.575
52659W        W20989  26.144  18.140  14.766
52660W        W20990  21.574   1.347  12.443
52661W        W20991   9.303  19.591  14.505
52662W        W20992  16.138  37.064  12.991
52663W        W20993  27.078  32.047  12.459
52664W        W20994   5.363  31.574  11.038
52665W        W20995  32.959  32.593   1.211
52666W        W20996   1.884  25.614  13.952
52667W        W20997  17.268  36.089  12.385
52668W        W20998  41.410  34.927   1.410
52669W        W20999  36.942  39.319  12.924
52670W        W21000  24.527  11.808   2.357
52671W        W21001  42.011  14.624   3.239
52672W        W21002  41.315  39.441  12.523
52673W        W21003  44.991   8.822   3.676
52674W        W21004  26.662  30.644  13.833
52675W        W21005  38.961  25.002   0.427
52676W        W21006  44.964  18.129   3.364
52677W        W21007  16.296   3.877   3.705
52678W        W21008   9.682  42.499   2.756
52679W        W21009  22.033  39.920   1.374
52680W        W21010   5.784  16.728  12.549
52681W        W21011  39.481  18.624   4.237
52682W        W21012  29.569  16.614  12.972
52683W        W21013   6.187  31.979  10.432
52684W        W21014  15.206  26.692  12.023
52685W        W21015   8.795  21.237  12.065
52686W        W21016  24.507  19.112  11.546
52687W        W21017  25.667  21.527   2.706
52688W        W21018  42.953  29.984   4.159
52689W        W21019  19.282  25.472  14.412
52690W        W21020  41.402   0.337  13.849
52691W        W21021   2.296   1.259  10.463
52692W        W21022  27.628   5.923   4.351
52693W        W21023  15.587   3.255  10.625
52694W        W21024   4.706  25.545   0.452
52695W        W21025  42.003  42.459  12.062
52696W        W21026  10.753  31.936   4.744
52697W        W21027  42.360  20.112   2.821
52698W        W21028  11.693  37.847   3.380
52699W        W21029  13.281  20.227   2.815
52700W        W21030  28.156  24.010  12.940
52701W        W21031  41.851  34.473   1.277
52702W        W21032  13.164  38.030   4.182
52703W        W21033  33.042  13.656  10.473
52704W        W21034  37.876  24.207   1.704
52705W        W21035  16.136  10.238   2.205
52706W        W21036   9.159  41.877   0.875
52707W        W21037  17.718  14.191   2.331
52708W        W21038  11.697  13.627   2.210
52709W        W21039  20.717  17.592  14.442
52710W        W21040  16.217  12.359   2.676
52711W        W21041   8.745  24.723  11.595
52712W        W21042  28.177  42.365  10.147
52713W        W21043   0.256  31.140  11.969
52714W        W21044  32.126  21.704   1.289
52715W        W21045  42.390  20.591  11.014
52716W        W21046  12.132   5.883  11.377
52717W        W21047  25.532  14.278   1.768
52718W        W21048  26.000   7.312  10.623
52719W        W21049  11.847  24.202  11.876
52720W        W21050  40.416  33.970  12.361
52721W        W21051   1.953  30.499   0.309
52722W        W21052   9.206  23.734   2.884
52723W        W21053  41.427  20.596   1.702
52724W        W21054  34.470  39.551   2.876
52725W        W21055   2.438  33.991  13.939
52726W        W21056   8.892  40.042  12.051
52727W        W21057   3.419   2.736   3.315
52728W        W21058  38.998  43.873   2.317
52729W        W21059  40.350   3.820  13.899
52730W        W21060  24.704  28.972  14.323
52731W        W21061  38.888  27.101  13.517
52732W        W21062  28.041  44.830  13.548
52733W        W21063  37.930  26.493  14.784
52734W        W21064  38.448  38.870  13.850
52735W        W21065  31.047  14.165  11.039
52736W        W21066  32.090  29.000   4.161
52737W        W21067  39.964  19.248  11.512
52738W        W21068  36.079  14.315  14.285
52739W        W21069  35.901  20.717  14.772
52740W        W21070  23.122  20.575  11.006
52741W        W21071  44.404   9.836   2.662
52742W        W21072   6.696  20.231  13.369
52743W        W21073   7.172  18.578  14.866
52744W        W21074   0.348  35.958   2.866
52745W        W21075  33.602   6.841  10.622
52746W        W21076  23.043  35.042  12.889
52747W        W21077  29.532  41.398   1.887
52748W        W21078  24.544   1.802   1.917
52749W        W21079  18.555  15.602   1.435
52750W        W21080   2.814   8.765  13.983
52751W        W21081   9.233   3.292  11.417
52752W        W21082  30.613  40.487   3.162
52753W        W21083  31.092  39.317  13.441
52754W        W21084  41.467  42.283   2.343
52755W        W21085   2.310  26.988  10.570
52756W        W21086  35.927  13.755   2.335
52757W        W21087  39.007  41.896   0.748
52758W        W21088   9.856  10.327  14.325
52759W        W21089   3.732  31.086   1.256
52760W        W21090  32.451  15.821  10.621
52761W        W21091  38.387   7.844  11.011
52762W        W21092  18.618  35.940  14.458
52763W        W21093  38.413  31.625   4.625
52764W        W21094  19.196  41.844  13.351
52765W        W21095  36.571  19.269   4.797
52766W        W21096  29.619   9.672   2.834
52767W        W21097  13.673  12.635   0.243
52768W        W21098  27.586   6.770  10.515
52769W        W21099   7.393   9.787   2.793
52770W        W21100  38.401  22.650  12.826
52771W        W21101   6.737   5.378  10.528
52772W        W21102  23.656  17.620   4.621
52773W        W21103  29.017   2.344  11.927
52774W        W21104  28.031  12.155  10.032
52775W        W21105  30.547  44.779   3.839
52776W        W21106   3.870  30.155   0.889
52777W        W21107  10.646  13.136  14.486
52778W        W21108   6.238   0.360   0.313
52779W        W21109  20.048  35.914  13.465
52780W        W21110   4.763   4.853  12.520
52781W        W21111  27.478   7.796  13.989
52782W        W21112  42.889  15.591   0.804
52783W        W21113  13.293   3.714   3.176
52784W        W21114  20.758  44.789   3.631
52785W        W21115  40.967  13.297   4.115
52786W        W21116  25.041   9.825   0.853
52787W        W21117  10.344  15.785  11.099
52788W        W21118  15.095  38.546  10.491
52789W        W21119   4.428  25.516   1.734
52790W        W21120  23.200  28.562  11.950
52791W        W21121   2.748   4.247  11.915
52792W        W21122  41.031  33.896   2.762
52793W        W21123   7.816  28.571  12.412
52794W        W21124  22.227  31.567   1.304
52795W        W21125  35.402  16.658   0.735
52796W        W21126  41.501   7.778  10.610
52797W        W21127  36.892  11.211  12.854
52798W        W21128   0.396   5.385   3.810
52799W        W21129   3.443  21.722   1.284
52800W        W21130  13.257   8.403  13.453
52801W        W21131   7.824   9.235   2.689
52802W        W21132  12.710  35.408   3.226
52803W        W21133  20.749  35.984  13.346
52804W        W21134  26.124  14.135   4.319
52805W        W21135   4.421  42.446   3.291
52806W        W21136  27.130  35.055   3.297
52807W        W21137  20.172   7.326   5.257
52808W        W21138  12.362  25.072  13.926
52809W        W21139  37.853  30.000   1.378
52810W        W21140   7.727  18.180  13.525
52811W        W21141  22.113   2.423   2.746
52812W        W21142  11.188  42.835  10.586
52813W        W21143  26.108  14.647   3.645
52814W        W21144   4.269   6.843   3.759
52815W        W21145  18.563  39.358  11.378
52816W        W21146  29.446  32.412  10.139
52817W        W21147  20.752  24.706  14.353
52818W        W21148   1.320   9.696   1.432
52819W        W21149  17.245  32.903   2.278
52820W        W21150  31.589  30.977  13.338
52821W        W21151   0.915  30.597   3.366
52822W        W21152  25.159  42.432   4.317
52823W        W21153   8.213   3.240   0.840
52824W        W21154  20.764  44.364  11.958
52825W        W21155   8.722  28.972  11.006
52826W        W21156   5.386   1.895  11.040
52827W        W21157  30.147  43.437  12.519
52828W        W21158  36.460  33.022   3.322
52829W        W21159  33.928  33.890  14.886
52830W        W21160  29.946  20.602  12.087
52831W        W21161  27.163  40.952  14.810
52832W        W21162  32.996  27.954  11.419
52833W        W21163   2.244  31.990  13.889
52834W        W21164  34.941  26.513   2.843
52835W        W21165  22.237  18.159  14.849
52836W        W21166  37.072   5.277  13.023
52837W        W21167  37.347   0.850   3.248
52838W        W21168  36.891  24.176   3.847
52839W        W21169  37.946   8.807   3.290
52840W        W21170  21.728  34.994  13.532
52841W        W21171  25.700   5.814  11.900
52842W        W21172  18.286  20.679  14.373
52843W        W21173  31.425  11.248   0.465
52844W        W21174   1.263   2.306  11.992
52845W        W21175  35.510  20.274   0.793
52846W        W21176   8.762  17.077  14.878
52847W        W21177  41.463  21.065   4.605
52848W        W21178  38.997  24.623  14.306
52849W        W21179  43.811  25.032  12.354
52850W        W21180  15.781  15.665   3.748
52851W        W21181  38.336  25.983  11.556
52852W        W21182  43.309  13.242  12.537
52853W        W21183   2.859  15.323   4.825
52854W        W21184  21.578  15.811   0.294
52855W        W21185  23.168  36.884   1.301
52856W        W21186  42.387  14.802   4.253
52857W        W21187  37.496  31.472   3.791
52858W        W21188   3.393   6.320   3.844
52859W        W21189  42.489  31.526   2.205
52860W        W21190  33.380  38.062   4.609
52861W        W21191  44.799  12.152   3.153
52862W        W21192  19.682   1.782  10.499
52863W        W21193  32.081   5.757  13.976
52864W        W21194  41.385  15.122  12.525
52865W        W21195  38.041   1.921   1.877
52866W        W21196  17.227  30.532   5.167
52867W        W21197  35.360  41.490   1.241
52868W        W21198  44.865   3.878   4.771
52869W        W21199  16.802  17.276   0.310
52870W        W21200  11.720   8.862  14.967
52871W        W21201  38.375  44.433   2.305
52872W        W21202  18.091  32.493   2.410
52873W        W21203   2.756  13.804  14.997
52874W        W21204  31.017  12.277  10.553
52875W        W21205  30.421   7.236  14.785
52876W        W21206  10.661  13.349   4.630
52877W        W21207  10.690  39.035   3.335
52878W        W21208   8.827  43.856  11.596
52879W        W21209   7.834  34.866  12.553
52880W        W21210  26.550  28.486  13.499
52881W        W21211  40.400  11.365   0.875
52882W        W21212   1.765  44.320   2.346
52883W        W21213   3.247  30.633  10.497
52884W        W21214  26.178  37.930   2.264
52885W        W21215  42.899  26.483  10.426
52886W        W21216   3.415   7.799  10.599
52887W        W21217  40.798   6.305  11.590
52888W        W21218  15.807  41.900   0.735
52889W        W21219   0.405  22.524  14.407
52890W        W21220  36.907  44.009   0.425
52891W        W21221  40.424  26.665   0.878
52892W        W21222  35.449  43.294  12.042
52893W        W21223  39.984  14.299  14.785
52894W        W21224  38.032  44.899  13.532
52895W        W21225  29.049  21.666  13.375
52896W        W21226  24.656   8.392   0.771
52897W        W21227  41.476  43.292  10.561
52898W        W21228  29.481  30.637  13.446
52899W        W21229  16.296   9.798   1.410
52900W        W21230  13.188  37.935  14.780
52901W        W21231  10.799  19.761   3.792
52902W        W21232  32.995   3.904  11.087
52903W        W21233  44.802   4.410   0.935
52904W        W21234   8.827  27.175   2.843
52905W        W21235  37.086  43.973  14.440
52906W        W21236  34.502  44.279  11.879
52907W        W21237  28.111  29.064   0.942
52908W        W21238  17.195   0.268   5.139
52909W        W21239  38.053  36.550  10.982
52910W        W21240  17.087  12.631   5.107
52911W        W21241  39.825  24.583   4.811
52912W        W21242  23.623  29.088   1.245
52913W        W21243  12.832  41.907  14.484
52914W        W21244  27.029  10.817   3.304
52915W        W21245  20.644  18.652  14.887
52916W        W21246  30.032  34.544  12.373
52917W        W21247   8.356  30.928   1.781
52918W        W21248  23.671  10.199   1.853
52919W        W21249  13.267   1.756  13.537
52920W        W21250  30.445  17.636   0.742
52921W        W21251  24.159  38.928   5.211
52922W        W21252  31.068  33.445   0.445
52923W        W21253  20.137   8.269  10.109
52924W        W21254  30.118  31.100   4.155
52925W        W21255  42.028  37.346   3.353
52926W        W21256  19.690  27.093  14.812
52927W        W21257  29.591  43.778  12.977
52928W        W21258   3.255   6.856   4.345
52929W        W21259  37.560  34.548  13.414
52930W        W21260  39.461  33.416  13.018
52931W        W21261  37.917  38.051   0.317
52932W        W21262   9.342   9.776   3.253
52933W        W21263  24.065  30.572   2.761
52934W        W21264  20.076  30.139   3.231
52935W        W21265   4.832  16.583  10.954
52936W        W21266  38.841  10.336   9.941
52937W        W21267   7.261  21.049   2.390
52938W        W21268  17.226  18.647  11.983
52939W        W21269   3.301  34.548   4.756
52940W        W21270  25.495   8.373   4.745
52941W        W21271  26.508   5.917   3.297
52942W        W21272  19.632  39.349   0.357
52943W        W21273  21.072  32.932   0.744
52944W        W21274  27.508   4.353   1.438
52945W        W21275   4.784   9.257   0.841
52946W        W21276  31.921  20.678  11.112
52947W        W21277  13.176   9.281   3.702
52948W        W21278  16.735  17.120  12.480
52949W        W21279   1.465  22.691  12.373
52950W        W21280  26.600  12.278  11.612
52951W        W21281   3.929  38.405   1.702
52952W        W21282  18.140  39.054  12.026
52953W        W21283  25.710  28.146  10.568
52954W        W21284  31.464  22.622  10.992
52955W        W21285  15.773  44.836   2.760
52956W        W21286  17.620  36.390   3.870
52957W        W21287  25.028  39.941  14.929
52958W        W21288   9.281  19.048   1.878
52959W        W21289  26.110  41.348   2.209
52960W        W21290   8.229  38.539   4.285
52961W        W21291  34.482  21.650  12.492
52962W        W21292  24.977  32.908   2.337
52963W        W21293  21.082  39.539   3.309
52964W        W21294  23.528  39.962  14.979
52965W        W21295  23.599   4.784   2.297
52966W        W21296  42.852   6.704   1.903
52967W        W21297  14.112  30.101   0.859
52968W        W21298   8.297  10.374   2.680
52969W        W21299  31.035  14.244   2.215
52970W        W21300  35.498  32.486  14.355
52971W        W21301  16.136   0.761   2.735
52972W        W21302  17.145   2.431  11.611
52973W        W21303  27.962  41.916  11.936
52974W        W21304  27.062  38.340  11.383
52975W        W21305  30.141  42.309   2.686
52976W        W21306  18.561  14.654   1.711
52977W        W21307   7.894  44.008  14.803
52978W        W21308   8.369  12.732  14.378
52979W        W21309  41.439  11.171   2.313
52980W        W21310   7.202   6.202   2.280
52981W        W21311  12.349  20.669   2.843
52982W        W21312  26.123  43.898   2.897
52983W        W21313  29.559   9.367  11.952
52984W        W21314  17.163  39.837  13.850
52985W        W21315  38.062  30.933   4.600
52986W        W21316  22.042  23.108   1.825
52987W        W21317  14.320  16.273  14.012
52988W        W21318   9.815  23.552   2.884
52989W        W21319  30.155   5.232  14.397
52990W        W21320  19.097   7.264  12.574
52991W        W21321  26.664  25.585   5.102
52992W        W21322  11.806  29.637  13.390
52993W        W21323  16.209  40.351   1.765
52994W        W21324  22.568   9.244  12.413
52995W        W21325  37.426  29.471   1.373
52996W        W21326  20.048  33.385  13.987
52997W        W21327  13.628  28.930   4.203
52998W        W21328  14.669   9.153   2.387
52999W        W21329  33.559  25.188   1.447
53000W        W21330   8.354  16.139  12.383
53001W        W21331  14.166  40.425   3.691
53002W        W21332  20.627  14.132   2.743
53003W        W21333  13.335  17.712   3.372
53004W        W21334   5.211  27.449  12.474
53005W        W21335  43.367  13.351   0.371
53006W        W21336  17.085  15.242   3.670
53007W        W21337  10.697  36.012   4.177
53008W        W21338  11.860  33.402   3.697
53009W        W21339  23.196  34.420   2.365
53010W        W21340  27.606  31.410   1.280
53011W        W21341  23.174  14.753   3.705
53012W        W21342  23.147   6.835  11.934
53013W        W21343  27.646   6.700   4.712
53014W        W21344  23.024  26.139   2.198
53015W        W21345  43.988  18.544  10.955
53016W        W21346   6.342  42.395   4.744
53017W        W21347  13.164  32.393  14.360
53018W        W21348  23.572  38.324   2.683
53019W        W21349  13.154  25.658  13.942
53020W        W21350  23.577   2.311  10.411
53021W        W21351  18.704   0.779  14.782
53022W        W21352  44.500  18.674  13.937
53023W        W21353  10.211  21.633   4.179
53024W        W21354  39.977   4.729   3.765
53025W        W21355   6.766  16.713  11.110
53026W        W21356  27.578   6.793  13.498
53027W        W21357  39.546  43.004  10.512
53028W        W21358  33.491  36.934  10.920
53029W        W21359  16.081  31.448  12.090
53030W        W21360  43.831  15.263   4.355
53031W        W21361  10.383  24.061   1.917
53032W        W21362  40.842   6.379   2.798
53033W        W21363   1.856   2.820  10.628
53034W        W21364  33.576  23.984   2.329
53035W        W21365  25.006   5.855   0.750
53036W        W21366  21.661  20.623  10.593
53037W        W21367   6.196  22.225  13.020
53038W        W21368  35.995  27.145  14.944
53039W        W21369  43.432  27.052   3.192
53040W        W21370  36.052  12.634  14.506
53041W        W21371  20.591  31.599   9.474
53042W        W21372  32.516  20.105  14.278
53043W        W21373  21.172  14.622   3.772
53044W        W21374  14.171  40.527   3.253
53045W        W21375   7.901  39.495   0.876
53046W        W21376   8.738  28.129  13.340
53047W        W21377   3.805  37.478   3.197
53048W        W21378  27.140   9.292  12.463
53049W        W21379  27.671  11.821  10.517
53050W        W21380  42.398   7.279  12.886
53051W        W21381  40.473   5.328   3.327
53052W        W21382  13.277  31.153   1.432
53053W        W21383  35.594  25.137  13.497
53054W        W21384  15.322  37.564  14.339
53055W        W21385  20.617  21.609  12.543
53056W        W21386   7.222  27.100   3.329
53057W        W21387  23.641  44.422   3.301
53058W        W21388   0.305  44.344   1.716
53059W        W21389   5.254  35.860  11.593
53060W        W21390   9.702  16.738  12.058
53061W        W21391  17.156   1.904  13.825
53062W        W21392  41.786   4.903  14.981
53063W        W21393   9.349  23.664   0.294
53064W        W21394  10.653  13.602   3.738
53065W        W21395   7.188  28.502   3.331
53066W        W21396  15.127  33.543   2.875
53067W        W21397  17.691  31.064  11.915
53068W        W21398  17.290  20.708   4.309
53069W        W21399   6.722   5.384  11.909
53070W        W21400  35.504  29.011  10.431
53071W        W21401  14.682  13.269   4.262
53072W        W21402   5.224  22.536   4.263
53073W        W21403   7.911   9.199   4.350
53074W        W21404   4.765  44.380   3.208
53075W        W21405  20.681  19.691   3.648
53076W        W21406  19.760   5.720  11.953
53077W        W21407  10.841  38.958   4.287
53078W        W21408  44.880  41.808   4.168
53079W        W21409  42.337  17.699  13.341
53080W        W21410  12.248   7.670   1.429
53081W        W21411  28.178  21.511   1.318
53082W        W21412  22.052  35.917  11.534
53083W        W21413  35.458   9.677   0.764
53084W        W21414   9.174  27.532   3.245
53085W        W21415  44.462  36.909  11.449
53086W        W21416  29.016  17.667   1.318
53087W        W21417   0.844  13.833   3.319
53088W        W21418  30.131  21.112   1.699
53089W        W21419  38.441  11.205   0.737
53090W        W21420  22.197  33.109   4.318
53091W        W21421  15.677   9.373   5.083
53092W        W21422   7.788  34.099   2.863
53093W        W21423  44.767  16.296  14.886
53094W        W21424   0.776  33.436   0.440
53095W        W21425  18.654  20.247  12.015
53096W        W21426  13.668  21.686  12.969
53097W        W21427  37.456  25.540  12.074
53098W        W21428  25.714  21.622  12.846
53099W        W21429   6.227  13.317   1.275
53100W        W21430  29.456  24.982  13.539
53101W        W21431  23.987  26.170  10.464
53102W        W21432  19.659  16.261   4.266
53103W        W21433  34.979  32.523   3.684
53104W        W21434  33.100  16.090   3.853
53105W        W21435  43.476  12.638  12.830
53106W        W21436  25.110  43.388   4.821
53107W        W21437  38.063  29.100  11.554
53108W        W21438  22.732  43.275   1.747
53109W        W21439  11.808  29.066  13.475
53110W        W21440  14.190  10.326  11.039
53111W        W21441  26.206  12.632  12.563
53112W        W21442  32.603  27.032  12.940
53113W        W21443  40.420  29.523  14.765
53114W        W21444  15.102  27.515   0.261
53115W        W21445  24.685  42.954   4.337
53116W        W21446  12.637  13.331   2.289
53117W        W21447   4.239   7.862  11.440
53118W        W21448  28.544  27.461   1.882
53119W        W21449  28.009  30.520  11.377
53120W        W21450  40.997  22.031   3.667
53121W        W21451  21.051  19.645   5.622
53122W        W21452  27.081  27.126   4.148
53123W        W21453  31.604  11.772   1.220
53124W        W21454  20.550   0.948   3.221
53125W        W21455  32.396  10.734  14.000
53126W        W21456   6.228  27.532  11.885
53127W        W21457  21.559   5.370   3.167
53128W        W21458   4.822  17.745  14.767
53129W        W21459  19.559  29.450   2.252
53130W        W21460   0.406   5.777  11.447
53131W        W21461  18.175  17.150   2.252
53132W        W21462   1.428   1.393   2.798
53133W        W21463  41.365   0.836   0.476
53134W        W21464  37.912  24.554   1.399
53135W        W21465   8.274  15.112   1.245
53136W        W21466  19.607  29.452  14.823
53137W        W21467  14.590   4.257   3.208
53138W        W21468  13.693   9.755   1.391
53139W        W21469   2.394  34.595   3.364
53140W        W21470  39.333  34.561  14.292
53141W        W21471  32.104  14.635  12.450
53142W        W21472  31.527  14.762  14.944
53143W        W21473  44.426  40.931  11.425
53144W        W21474  29.028  33.065  13.429
53145W        W21475  14.322   5.929   2.669
53146W        W21476   5.255   8.825   2.419
53147W        W21477  24.003  38.343  14.772
53148W        W21478  20.524  23.551   3.835
53149W        W21479  25.123  28.019  12.516
53150W        W21480  44.311  38.542   3.367
53151W        W21481  22.514  24.064   3.650
53152W        W21482  22.053  31.545   0.813
53153W        W21483  16.317  22.725  11.008
53154W        W21484   0.364   2.849  13.418
53155W        W21485  17.064   5.864   0.358
53156W        W21486   9.356  33.531  14.454
53157W        W21487  16.262  20.190  13.366
53158W        W21488  35.056  24.692   4.252
53159W        W21489  38.860  38.535   4.268
53160W        W21490  17.201  16.254   2.324
53161W        W21491  31.009  29.946   4.341
53162W        W21492  22.194  30.441   4.794
53163W        W21493  29.078  12.629   4.285
53164W        W21494  35.097   8.390   2.671
53165W        W21495  42.815  19.276  13.316
53166W        W21496  26.190   7.391   1.785
53167W        W21497  44.952   7.830  12.995
53168W        W21498  29.130  24.601   3.332
53169W        W21499  31.625   9.236   0.422
53170W        W21500  16.198  19.243   4.740
53171W        W21501  39.528   3.290   0.263
53172W        W21502  13.149  23.724  13.312
53173W        W21503  25.131  41.403   4.628
53174W        W21504  29.562  22.575   1.295
53175W        W21505  22.096  13.768   3.643
53176W        W21506  19.095  21.214   0.356
53177W        W21507  17.790  12.629  12.433
53178W        W21508  32.437  18.741  14.343
53179W        W21509  33.402  29.930   2.678
53180W        W21510   3.415  20.133  12.483
53181W        W21511  31.936  29.481  14.433
53182W        W21512  21.038  11.198   4.311
53183W        W21513  13.277  31.005   4.715
53184W        W21514  15.108  18.626   4.793
53185W        W21515  25.121  23.706  10.405
53186W        W21516   9.827  35.414  12.359
53187W        W21517   5.809  24.210   2.211
53188W        W21518  32.903   9.206   4.762
53189W        W21519  19.212   6.320  13.001
53190W        W21520  10.850  28.610  13.361
53191W        W21521  27.549  44.473  12.571
53192W        W21522  16.273  31.989   4.211
53193W        W21523  10.357   4.449  11.428
53194W        W21524  25.011  15.676   0.853
53195W        W21525  23.034  37.388   3.200
53196W        W21526   9.382   1.331   0.421
53197W        W21527  11.340  42.424  13.358
53198W        W21528   9.226  26.507  10.049
53199W        W21529  38.422  32.085   4.760
53200W        W21530  33.953  31.919   1.858
53201W        W21531   5.402   6.787  13.397
53202W        W21532  12.165  14.200   3.683
53203W        W21533  34.068  28.648   0.870
53204W        W21534  14.260  10.736   1.238
53205W        W21535  37.524  13.144   4.307
53206W        W21536  41.363  11.199   1.823
53207W        W21537  33.038  17.262   2.737
53208W        W21538   3.761  31.569   1.238
53209W        W21539  16.804  23.987  13.409
53210W        W21540  41.806  28.601   1.254
53211W        W21541  20.150  17.611   2.766
53212W        W21542  34.899  33.483  10.128
53213W        W21543   1.353   5.786   0.957
53214W        W21544  43.271  38.547  11.863
53215W        W21545  20.241  29.450  12.345
53216W        W21546  23.061  41.792   1.319
53217W        W21547  30.095  26.102  12.577
53218W        W21548   8.735  11.228  11.425
53219W        W21549  27.043   2.278   2.707
53220W        W21550  29.996   6.696  14.286
53221W        W21551   4.942  15.713   4.248
53222W        W21552  14.705  42.315  11.576
53223W        W21553  39.436  18.244  10.579
53224W        W21554   4.838  42.809  12.554
53225W        W21555  32.107   3.871   1.237
53226W        W21556  37.832  25.096  11.956
53227W        W21557  35.508   9.202   4.303
53228W        W21558  10.173  20.586  11.941
53229W        W21559   2.346  18.649  11.403
53230W        W21560   6.724  25.626  11.496
53231W        W21561  28.092   1.326  13.906
53232W        W21562  34.414  37.950   1.731
53233W        W21563  31.128  36.886   1.309
53234W        W21564  18.656  40.512  14.956
53235W        W21565   9.265  40.805   1.429
53236W        W21566  41.343  39.505  13.428
53237W        W21567  18.253  17.245   3.210
53238W        W21568  34.059  41.462   1.376
53239W        W21569  29.546  16.271   0.269
53240W        W21570  25.196  33.431   3.835
53241W        W21571  33.127   3.863  11.570
53242W        W21572  38.875   2.358  11.565
53243W        W21573  22.662  41.513   2.870
53244W        W21574  26.067  20.564   2.887
53245W        W21575  38.879   8.894   3.189
53246W        W21576  13.718  20.146   1.370
53247W        W21577   9.252  25.218   2.876
53248W        W21578  11.255  23.002   4.787
53249W        W21579  30.105  35.960  14.369
53250W        W21580  21.166  43.999  12.348
53251W        W21581  16.691  23.497   4.314
53252W        W21582  15.698   1.856  13.385
53253W        W21583  34.903  35.475   3.657
53254W        W21584  18.225   1.244   3.749
53255W        W21585   2.765   9.370  13.314
53256W        W21586  30.560  26.469   2.784
53257W        W21587  10.146   8.733   4.793
53258W        W21588  17.718   5.217   1.258
53259W        W21589  31.636  28.977   1.398
53260W        W21590  30.463  41.839  14.300
53261W        W21591  44.920  26.621  14.940
53262W        W21592  27.646  41.012  12.865
53263W        W21593  36.862  41.981   0.246
53264W        W21594  11.196  41.413   0.908
53265W        W21595  41.533  13.257   0.964
53266W        W21596   6.282  35.562   0.327
53267W        W21597  24.018   0.373  10.613
53268W        W21598  29.583  24.215  11.533
53269W        W21599   2.853  37.002   3.835
53270W        W21600  13.802  44.306  11.027
53271W        W21601   6.246  15.662   1.375
53272W        W21602  33.477  42.874  10.459
53273W        W21603  13.633  33.917  12.836
53274W        W21604  34.396  24.211   0.900
53275W        W21605  22.059  42.295  14.827
53276W        W21606  19.144  11.331  11.069
53277W        W21607  37.851  39.485  12.577
53278W        W21608  32.007   6.733   4.235
53279W        W21609   3.807  10.374  11.391
53280W        W21610  16.317   1.390   1.761
53281W        W21611   3.441  11.284  11.054
53282W        W21612  39.389  28.094  13.307
53283W        W21613  41.292  26.032  13.465
53284W        W21614  12.243  20.663   4.133
53285W        W21615  33.008  30.085  11.928
53286W        W21616  25.011  20.036   4.739
53287W        W21617  29.538  38.022  12.873
53288W        W21618   3.274  29.107  13.336
53289W        W21619  16.137  35.926   3.656
53290W        W21620   1.955  35.854  13.998
53291W        W21621  14.605   9.280  12.852
53292W        W21622   3.807   4.307   3.178
53293W        W21623   4.818  43.905   4.302
53294W        W21624   5.197   8.177   0.481
53295W        W21625  38.571  18.654   3.201
53296W        W21626  44.270  33.387  10.509
53297W        W21627   1.431  18.065  10.458
53298W        W21628  34.596  40.446  13.829
53299W        W21629  31.491  34.382   2.250
53300W        W21630  14.117   9.787  12.386
53301W        W21631  35.104  44.485   0.948
53302W        W21632  10.384   7.193   4.243
53303W        W21633   3.458  26.511   1.346
53304W        W21634  13.329  10.643   1.885
53305W        W21635  17.224  44.318  13.360
53306W        W21636  17.111  14.153   1.440
53307W        W21637   7.746  16.766  11.941
53308W        W21638   3.906  11.830   2.305
53309W        W21639   9.170  35.380   2.735
53310W        W21640  13.619  20.656  11.054
53311W        W21641   2.771  18.772  10.933
53312W        W21642   9.330  16.684  14.298
53313W        W21643  24.691  29.443  10.959
53314W        W21644  24.515   1.417  10.416
53315W        W21645  23.673  38.519  14.895
53316W        W21646   6.878  15.272  14.941
53317W        W21647   2.836  18.563   0.248
53318W        W21648  35.367  41.494  10.482
53319W        W21649  32.104   2.461   5.318
53320W        W21650  38.991  26.542   2.818
53321W        W21651   2.925  29.993   3.822
53322W        W21652  42.789  35.916   0.447
53323W        W21653  24.023  24.656  11.524
53324W        W21654  41.033  35.373  12.074
53325W        W21655  24.721  19.776  11.593
53326W        W21656  24.601  21.546  12.933
53327W        W21657   3.820   3.893  10.469
53328W        W21658  38.525  30.025   4.272
53329W        W21659  12.264  15.172  14.516
53330W        W21660  18.204  13.309   2.771
53331W        W21661  16.707   7.173  11.050
53332W        W21662  14.832  35.091   1.811
53333W        W21663  27.457   7.179  12.025
53334W        W21664  34.084  26.578   2.249
53335W        W21665  26.572   6.902  13.343
53336W        W21666   7.177  19.228  12.464
53337W        W21667   4.937  21.133   2.839
53338W        W21668  18.683  27.568  11.429
53339W        W21669  36.081  37.914  11.487
53340W        W21670  11.362  44.406  13.839
53341W        W21671  27.992  42.431   0.301
53342W        W21672  33.476  27.562   1.315
53343W        W21673   3.924  37.450   2.340
53344W        W21674   9.693  27.153   2.682
53345W        W21675  31.473  44.454   1.766
53346W        W21676  16.607  35.991  12.993
53347W        W21677  15.241  39.513   0.372
53348W        W21678   8.681  44.464   4.787
53349W        W21679  23.497  44.319  12.418
53350W        W21680   9.206  25.620   0.946
53351W        W21681  44.777   7.311  11.459
53352W        W21682  33.554  36.579  12.878
53353W        W21683  39.374  36.351  12.016
53354W        W21684   5.920  28.028   0.327
53355W        W21685  30.016   6.876  12.996
53356W        W21686   8.772  16.633  10.098
53357W        W21687  37.448  34.929   0.871
53358W        W21688  17.568  34.574  11.529
53359W        W21689  23.177  18.291  12.092
53360W        W21690  33.877  43.272   1.367
53361W        W21691  35.040  36.580   4.159
53362W        W21692  23.070   0.871   3.321
53363W        W21693  38.494  32.480  13.934
53364W        W21694   2.815  26.122   3.860
53365W        W21695  38.406  25.593   0.905
53366W        W21696   1.915   9.658   1.389
53367W        W21697  36.071  19.071   0.406
53368W        W21698  29.583  14.164   3.801
53369W        W21699   5.743   6.794  13.062
53370W        W21700  24.644  35.953   0.961
53371W        W21701  20.576  29.017   2.295
53372W        W21702  32.566  34.976   2.862
53373W        W21703   4.327  17.272  14.783
53374W        W21704  28.594  12.803  13.546
53375W        W21705  39.521  39.417   4.245
53376W        W21706   2.866  35.864   2.284
53377W        W21707   0.873  23.194   2.717
53378W        W21708  13.749  36.925   3.273
53379W        W21709   6.783  38.345  14.512
53380W        W21710  44.325  13.694   2.344
53381W        W21711  15.237  33.995   1.292
53382W        W21712  18.692   0.285  10.639
53383W        W21713  20.545  20.736  11.588
53384W        W21714  39.972  19.280   0.253
53385W        W21715   2.336   9.721   1.823
53386W        W21716  14.321  32.490  11.952
53387W        W21717  13.604  44.461  11.902
53388W        W21718  13.751  39.940   4.614
53389W        W21719  31.106  10.646  12.011
53390W        W21720   9.377  11.701  13.477
53391W        W21721  22.113  14.276   2.683
53392W        W21722   4.449  19.213  12.838
53393W        W21723  44.424  17.603  10.503
53394W        W21724   1.862  35.865   1.736
53395W        W21725  21.745  15.726   2.769
53396W        W21726  32.533  33.091  11.898
53397W        W21727  20.633  40.520  10.463
53398W        W21728  13.322  24.993   2.371
53399W        W21729  14.757   0.306   4.136
53400W        W21730  27.510  14.599  13.494
53401W        W21731  41.348   7.775   2.372
53402W        W21732  28.564   4.272   2.860
53403W        W21733   4.816  42.866  10.984
53404W        W21734  28.607   5.733  11.584
53405W        W21735  42.804  33.107  14.764
53406W        W21736  11.635  14.142   0.835
53407W        W21737  30.957  34.890   3.842
53408W        W21738   9.741   3.779  12.836
53409W        W21739  22.744  34.874   4.327
53410W        W21740  33.894  10.288   4.708
53411W        W21741  34.949  39.372   0.458
53412W        W21742  33.622  34.515  14.779
53413W        W21743  18.085  22.022  14.851
53414W        W21744  44.433  24.491  10.527
53415W        W21745  13.616  39.416  11.098
53416W        W21746  27.114  21.243  14.939
53417W        W21747  12.209  20.532   2.219
53418W        W21748   2.372  17.089  11.585
53419W        W21749  34.439  16.116   1.869
53420W        W21750  17.748  11.649  10.446
53421W        W21751   7.728   4.728  13.487
53422W        W21752   8.366  34.907  11.516
53423W        W21753  35.974  41.447  12.998
53424W        W21754   4.438   1.947  13.903
53425W        W21755  41.340  41.990  12.038
53426W        W21756  36.521   6.743  13.351
53427W        W21757  37.898   5.791   2.303
53428W        W21758   0.346  24.536  11.452
53429W        W21759  34.407  30.463  11.073
53430W        W21760  23.988  25.703  11.464
53431W        W21761  14.253  29.087  13.899
53432W        W21762  29.475  20.194   0.452
53433W        W21763  35.374   4.812  12.493
53434W        W21764  36.574  27.154   1.318
53435W        W21765   9.299  38.550  10.619
53436W        W21766  39.316   4.772  11.096
53437W        W21767  16.770   0.765  14.814
53438W        W21768  28.572  22.186  10.441
53439W        W21769  34.410  44.295   2.211
53440W        W21770  31.962   7.216   0.948
53441W        W21771  34.578  32.507   2.323
53442W        W21772  21.056  38.960  13.364
53443W        W21773  27.461  34.515  14.418
53444W        W21774  12.774  26.652  12.340
53445W        W21775   4.207  40.929   2.277
53446W        W21776  23.731  41.970   1.833
53447W        W21777  35.017   4.940  14.447
53448W        W21778   4.361   2.731  10.633
53449W        W21779  36.068  23.558  12.018
53450W        W21780  36.944  39.925   3.629
53451W        W21781  21.648  17.115   9.482
53452W        W21782  42.854  32.634  11.916
53453W        W21783  31.134  42.325   3.327
53454W        W21784   0.449   8.762  10.931
53455W        W21785   3.419  25.601  12.427
53456W        W21786  31.559  15.724   0.464
53457W        W21787  39.489   3.386   1.723
53458W        W21788  41.884  23.042   0.438
53459W        W21789  35.482  44.908   0.387
53460W        W21790  20.176   5.920  11.993
53461W        W21791  43.000  43.511   2.755
53462W        W21792  22.616   8.246  14.895
53463W        W21793  36.048  42.000  14.389
53464W        W21794  39.533   8.690  14.922
53465W        W21795   4.836  12.766  14.783
53466W        W21796  21.101  15.720  11.119
53467W        W21797  28.468  11.836   4.609
53468W        W21798  36.933  30.913  10.965
53469W        W21799   2.354   7.311  10.153
53470W        W21800   5.717  37.843   2.362
53471W        W21801  29.128   1.347  13.032
53472W        W21802  33.475  41.854  10.923
53473W        W21803  37.497  15.749  13.530
53474W        W21804  37.478   6.183   2.337
53475W        W21805  30.979   3.794  12.446
53476W        W21806  15.312  43.341  14.002
53477W        W21807   3.795  16.268   2.727
53478W        W21808  28.148  40.874   1.368
53479W        W21809  23.036  30.024   5.164
53480W        W21810  12.180  21.520   2.739
53481W        W21811  38.909   1.953   0.251
53482W        W21812  29.937  30.988   2.780
53483W        W21813  38.824  17.604  10.980
53484W        W21814  36.854  22.720   1.369
53485W        W21815  36.991  33.610  13.431
53486W        W21816  17.779   7.743   3.685
53487W        W21817  14.601  31.577  11.863
53488W        W21818  40.998  17.075   4.831
53489W        W21819   4.321  32.636  13.943
53490W        W21820  14.298  13.776  12.999
53491W        W21821  21.546  42.813   4.131
53492W        W21822   4.366  44.285  12.516
53493W        W21823  20.056  12.633  14.782
53494W        W21824   5.851  20.545   0.934
53495W        W21825  34.110  31.968  10.413
53496W        W21826  33.023   0.849   4.811
53497W        W21827  33.494  16.265  14.452
53498W        W21828  27.485  24.156  14.009
53499W        W21829  19.589  17.160   2.744
53500W        W21830  10.275  37.366  13.320
53501W        W21831  22.075  29.162  13.438
53502W        W21832  29.926  25.521   4.656
53503W        W21833  21.729  12.686   1.412
53504W        W21834  11.148  18.759   2.793
53505W        W21835  24.138  17.242   3.638
53506W        W21836  32.434  41.949   3.838
53507W        W21837  42.881  39.833  12.828
53508W        W21838  31.044  32.399  12.488
53509W        W21839   9.677  19.250   3.279
53510W        W21840  43.834  24.059   2.226
53511W        W21841   2.844  22.730   0.461
53512W        W21842  14.135  29.557  13.808
53513W        W21843  16.672  18.662   1.819
53514W        W21844  18.293  16.319  11.867
53515W        W21845  32.993   1.473   1.295
53516W        W21846  20.706  37.555   0.774
53517W        W21847  18.250  28.155   1.396
53518W        W21848  14.642  44.892   4.186
53519W        W21849  42.419  19.693   4.655
53520W        W21850  41.972   3.918  13.807
53521W        W21851  32.079  41.523  10.607
53522W        W21852  22.557  27.561  14.363
53523W        W21853  34.575  42.834   0.964
53524W        W21854  36.352   1.978  14.333
53525W        W21855  30.014  27.583  11.944
53526W        W21856  25.056  39.460   4.162
53527W        W21857   5.744  32.996   4.312
53528W        W21858   0.962  21.650  13.478
53529W        W21859  38.943  30.600   4.764
53530W        W21860  22.032  20.098   5.695
53531W        W21861  25.006  21.233  12.949
53532W        W21862  30.026  44.985   2.186
53533W        W21863   8.209  37.088   3.834
53534W        W21864  30.591  32.134   9.929
53535W        W21865  38.449  23.587  12.533
53536W        W21866  35.564  42.818  14.472
53537W        W21867  15.095  23.664   1.357
53538W        W21868   9.224  36.875   0.257
53539W        W21869  38.967   5.923   1.237
53540W        W21870  26.170  20.143   4.763
53541W        W21871  36.527  25.045  10.504
53542W        W21872  31.626   6.717   3.642
53543W        W21873  42.477  35.916   2.891
53544W        W21874  33.941  12.222   0.411
53545W        W21875   2.428  31.961  10.639
53546W        W21876  10.188   6.734   3.321
53547W        W21877   4.907   9.277  14.988
53548W        W21878  44.969   9.764  10.450
53549W        W21879  28.162  12.291  14.855
53550W        W21880   6.237  40.966   4.742
53551W        W21881  32.051   3.301   9.950
53552W        W21882  31.554  25.511  12.834
53553W        W21883   2.372  37.881  11.932
53554W        W21884  27.104  26.145   3.776
53555W        W21885  34.490   4.212   1.217
53556W        W21886  44.913   2.851  14.012
53557W        W21887  25.681   4.372  12.488
53558W        W21888  32.886   6.286  11.095
53559W        W21889   1.427   5.884   4.628
53560W        W21890  34.419  11.679   3.229
53561W        W21891  28.454  20.535   2.880
53562W        W21892  10.719  27.479   0.876
53563W        W21893  38.003  34.101  11.931
53564W        W21894  12.783   5.305  12.036
53565W        W21895  38.568   3.330   2.727
53566W        W21896  32.134  41.433  13.049
53567W        W21897   1.315   7.371  11.011
53568W        W21898   8.266  25.680  12.524
53569W        W21899  43.405  33.515   2.322
53570W        W21900  24.020  34.445   4.340
53571W        W21901  11.683   8.848   0.958
53572W        W21902  33.890  37.551   2.376
53573W        W21903  27.195  23.175   4.213
53574W        W21904  19.182  40.427   2.199
53575W        W21905  22.543  38.533  13.435
53576W        W21906  44.474  15.200   4.760
53577W        W21907  28.640  20.082   2.767
53578W        W21908  23.710  23.559   2.725
53579W        W21909  26.007  23.602   4.833
53580W        W21910  13.300  36.880  11.961
53581W        W21911  17.136  33.600   3.325
53582W        W21912  37.865  40.900   3.355
53583W        W21913  29.169  29.019  13.801
53584W        W21914  34.460   0.419  14.014
53585W        W21915  13.113  33.937   2.887
53586W        W21916  20.199  21.537  11.879
53587W        W21917   0.799  32.414   1.809
53588W        W21918  42.905   4.422   0.778
53589W        W21919  26.495  41.915   1.802
53590W        W21920  20.156  24.989  10.160
53591W        W21921   2.921  17.683  11.955
53592W        W21922  39.500  12.243   2.305
53593W        W21923  41.485  32.958   1.335
53594W        W21924  30.916  42.339  13.934
53595W        W21925  31.555  28.004   0.821
53596W        W21926  23.126  23.556  11.865
53597W        W21927  41.922  13.616   4.163
53598W        W21928  28.069  38.544  14.954
53599W        W21929  23.995  34.928  13.408
53600W        W21930  40.414  37.057   4.600
53601W        W21931  16.747  11.286  14.918
53602W        W21932  12.682  41.948  13.484
53603W        W21933  38.876   8.193   2.875
53604W        W21934  43.924  37.420   2.710
53605W        W21935  31.148  29.560  14.396
53606W        W21936  35.000   5.408   1.914
53607W        W21937  37.440  28.175  14.426
53608W        W21938  13.122  28.015   3.732
53609W        W21939  32.060  28.137  11.548
53610W        W21940   7.218  43.819  13.877
53611W        W21941   0.813  39.847   3.850
53612W        W21942  20.687  26.616   1.882
53613W        W21943  37.955   0.748   2.353
53614W        W21944  27.524  29.447   2.293
53615W        W21945  14.645  27.093  11.984
53616W        W21946  21.557  36.506  13.796
53617W        W21947   0.931  42.977  10.156
53618W        W21948  38.468  42.415  11.500
53619W        W21949  24.610   3.433  11.486
53620W        W21950  41.016  22.741  13.009
53621W        W21951  20.177  19.737  11.979
53622W        W21952  18.614   2.777   0.778
53623W        W21953  43.272  35.973   5.120
53624W        W21954  30.113  33.387   1.429
53625W        W21955  42.287  35.906   4.261
53626W        W21956  34.078   2.748   1.887
53627W        W21957   2.895   1.806  13.898
53628W        W21958  35.084  31.123   1.885
53629W        W21959  35.040   3.343  14.348
53630W        W21960   8.327  14.280  11.908
53631W        W21961  11.311  39.015   1.395
53632W        W21962   0.969  29.667  12.559
53633W        W21963  31.476  16.222  11.476
53634W        W21964  45.000  41.936   1.725
53635W        W21965   0.815  26.499   2.750
53636W        W21966  14.755  26.478   4.327
53637W        W21967  11.837  30.564  14.368
53638W        W21968  37.552  35.876  14.485
53639W        W21969  21.050  41.857   3.688
53640W        W21970  29.556  17.719   3.341
53641W        W21971   7.248  22.634  11.564
53642W        W21972  19.777  25.573   5.638
53643W        W21973  19.544  44.996   4.811
53644W        W21974  12.145   7.216   0.434
53645W        W21975  34.080  17.652   1.234
53646W        W21976  16.657  17.749   1.782
53647W        W21977  38.362  39.945  10.476
53648W        W21978  26.568  17.706   3.700
53649W        W21979   6.757   7.347  11.507
53650W        W21980  23.198  21.529  12.898
53651W        W21981  24.039   7.222   0.816
53652W        W21982   1.325  43.467   2.879
53653W        W21983  32.064  42.329  12.082
53654W        W21984   7.837  13.114   2.373
53655W        W21985  40.402  41.889   4.631
53656W        W21986  34.420   7.404   3.732
53657W        W21987  40.898  21.635  12.890
53658W        W21988  18.202   1.350  11.105
53659W        W21989   9.223  21.049   1.316
53660W        W21990  28.062  23.544  13.382
53661W        W21991  36.589  37.476  13.989
53662W        W21992   9.726   0.342  13.924
53663W        W21993   3.316  25.161   1.807
53664W        W21994  36.857  34.427  12.075
53665W        W21995  20.062  17.108   5.279
53666W        W21996   2.393  33.399   5.132
53667W        W21997  17.127  24.541   4.173
53668W        W21998   2.368  26.958  11.507
53669W        W21999  42.860  31.024  13.794
53670W        W22000  24.698   4.396  11.099
53671W        W22001   8.863  18.783   1.305
53672W        W22002  31.010  43.927   0.735
53673W        W22003  16.300  31.531   2.300
53674W        W22004  27.945  40.841   2.299
53675W        W22005   8.747  18.070  14.897
53676W        W22006  23.211  31.998  10.937
53677W        W22007  30.908  32.559   4.162
53678W        W22008   5.417  32.934  12.836
53679W        W22009   1.774  42.503  12.500
53680W        W22010  13.619   5.258   4.829
53681W        W22011  26.976   4.884   4.207
53682W        W22012  29.440  40.807   3.824
53683W        W22013   8.174  41.875   2.680
53684W        W22014  27.459  15.677  14.819
53685W        W22015  15.267  39.524   1.352
53686W        W22016  41.995  24.586   3.853
53687W        W22017  23.230  41.493  11.928
53688W        W22018  28.474  20.634  11.497
53689W        W22019  28.505  37.347   3.811
53690W        W22020  25.047  30.505  13.335
53691W        W22021  26.586   1.906   3.337
53692W        W22022   5.218  39.338  13.023
53693W        W22023  15.225  32.968   0.869
53694W        W22024  24.989  40.833  11.908
53695W        W22025  32.395  18.191  13.880
53696W        W22026  23.593  13.827  14.013
53697W        W22027   8.175  13.182  11.969
53698W        W22028  16.717  26.568   3.652
53699W        W22029  23.593  29.167   2.245
53700W        W22030  21.161   8.668  14.786
53701W        W22031   9.171  44.959   1.364
53702W        W22032   6.688  28.950   1.822
53703W        W22033  16.278   2.848   0.784
53704W        W22034  40.857  38.499  12.872
53705W        W22035  13.601  10.337   3.679
53706W        W22036  42.805   4.318  12.502
53707W        W22037  32.928  15.313  10.971
53708W        W22038  37.860  28.656  12.344
53709W        W22039   9.374   8.331   4.755
53710W        W22040  16.743  37.047  11.962
53711W        W22041   3.446  10.312  14.497
53712W        W22042  14.697  29.542   3.862
53713W        W22043  26.981  17.165   3.782
53714W        W22044   7.357   6.406  13.059
53715W        W22045  25.618  26.458   0.295
53716W        W22046  13.278  20.631   2.344
53717W        W22047  11.833  16.795   4.337
53718W        W22048   5.272  38.928  10.563
53719W        W22049   4.761  42.967   5.303
53720W        W22050   4.256  40.501   0.853
53721W        W22051  21.065   9.179  12.005
53722W        W22052  23.229  38.877   2.888
53723W        W22053  17.645  25.044   4.781
53724W        W22054  38.521  41.955   1.229
53725W        W22055  28.968   2.315   3.833
53726W        W22056  16.260  19.558   2.871
53727W        W22057   9.651  30.422   3.213
53728W        W22058  20.061  30.098  10.570
53729W        W22059  10.191  35.107  14.311
53730W        W22060  39.433  25.039  13.939
53731W        W22061  21.240  14.127   3.361
53732W        W22062  10.732  13.611   0.282
53733W        W22063  37.992  44.487   0.286
53734W        W22064  25.189  37.959   4.793
53735W        W22065  31.643  16.740  13.843
53736W        W22066  41.890  43.768  11.058
53737W        W22067  25.593  12.161   3.370
53738W        W22068  11.646  33.886  14.834
53739W        W22069  40.877  20.658   4.287
53740W        W22070   3.806  20.072  13.458
53741W        W22071  31.590  10.715  10.935
53742W        W22072   1.793  27.116  10.516
53743W        W22073  36.004  24.130  10.916
53744W        W22074  34.556   4.424   3.858
53745W        W22075  32.950  32.950  14.767
53746W        W22076  26.617   1.733  13.345
53747W        W22077  37.532   0.478  11.926
53748W        W22078  37.358   8.681  13.924
53749W        W22079   9.301   5.227  13.824
53750W        W22080  22.199  19.635   5.156
53751W        W22081  13.133  43.366   4.299
53752W        W22082  35.913   2.848   3.345
53753W        W22083  36.863  42.447   2.360
53754W        W22084  36.917  25.106  11.570
53755W        W22085  12.168  15.644  14.314
53756W        W22086  33.572  13.237  14.797
53757W        W22087  27.942  42.926  12.877
53758W        W22088   7.171   5.218   1.823
53759W        W22089  40.369  29.473  14.415
53760W        W22090  21.230  20.700   3.865
53761W        W22091  41.399  13.234  12.928
53762W        W22092   7.742  23.044   3.240
53763W        W22093   9.767   1.859   3.787
53764W        W22094  37.515  15.691  10.125
53765W        W22095  21.520  21.072  12.374
53766W        W22096  23.717  28.043  11.559
53767W        W22097  29.922  26.099   1.288
53768W        W22098   1.303   7.872   4.612
53769W        W22099   1.878   0.280   3.660
53770W        W22100  22.574  40.888   0.897
53771W        W22101  17.109  10.868  13.919
53772W        W22102  22.136  39.315   3.765
53773W        W22103  27.470  35.420  12.939
53774W        W22104  36.013  33.477   0.284
53775W        W22105  23.692   8.876   4.236
53776W        W22106   6.782  25.118  14.898
53777W        W22107  44.469  41.795   1.884
53778W        W22108  28.142  24.598  10.936
53779W        W22109   7.770  36.064   5.270
53780W        W22110  19.641  42.946   2.238
53781W        W22111  39.854  24.095  13.427
53782W        W22112  29.567  36.046  10.954
53783W        W22113  37.449  14.294   1.296
53784W        W22114  23.122  36.055   1.310
53785W        W22115  18.258  37.015   4.755
53786W        W22116   6.359   4.792   4.730
53787W        W22117   6.256  21.537   4.194
53788W        W22118  15.782  19.685   0.945
53789W        W22119  44.925  16.253  10.945
53790W        W22120  44.782  20.233   2.689
53791W        W22121  20.691   4.797  10.537
53792W        W22122  33.397   1.972   5.295
53793W        W22123   6.689  34.000   0.880
53794W        W22124  15.811  12.676  10.947
53795W        W22125   1.441  37.065   1.303
53796W        W22126  29.613  22.051  14.360
53797W        W22127  19.770  35.989  13.920
53798W        W22128  21.193  13.679  12.574
53799W        W22129  27.958  39.421  10.557
53800W        W22130   8.760   4.347  14.410
53801W        W22131  42.998  39.995   4.304
53802W        W22132  13.662  23.104  10.435
53803W        W22133   4.830   0.338  14.466
53804W        W22134   8.348   5.247  10.948
53805W        W22135  42.367  39.809   3.271
53806W        W22136  28.486  24.022  11.465
53807W        W22137   2.735  28.467  10.457
53808W        W22138   4.254  36.045  13.414
53809W        W22139  25.607   0.256   0.248
53810W        W22140  40.850  17.774  13.442
53811W        W22141  24.026  43.925   2.677
53812W        W22142  16.084  15.085   4.149
53813W        W22143  26.958  15.757  13.924
53814W        W22144  31.966   0.279  14.362
53815W        W22145  34.921  25.045   1.742
53816W        W22146  22.534  36.574   1.342
53817W        W22147   2.901  19.158  13.808
53818W        W22148   0.444  38.040  12.031
53819W        W22149  36.465  42.888  12.899
53820W        W22150  40.868  13.717  13.938
53821W        W22151  31.642  22.163   4.129
53822W        W22152  42.030  42.915  12.564
53823W        W22153  28.019  34.613   1.823
53824W        W22154  40.023  43.008  12.578
53825W        W22155   6.700  28.646   0.378
53826W        W22156   6.806   1.771   2.721
53827W        W22157  30.915   4.776   1.916
53828W        W22158  27.091  17.621  14.369
53829W        W22159  30.940  23.235  13.436
53830W        W22160  28.009  44.448   2.208
53831W        W22161  13.299   7.285   1.797
53832W        W22162  26.622   2.428  11.607
53833W        W22163  34.874   3.790  11.127
53834W        W22164  14.148  35.970   4.700
53835W        W22165  29.991  37.922  12.045
53836W        W22166   1.417  18.613  10.457
53837W        W22167  27.093  33.992   0.384
53838W        W22168  10.353  14.196   4.135
53839W        W22169  10.681   8.199  12.366
53840W        W22170  36.885  13.827   3.214
53841W        W22171   6.361   1.347   2.415
53842W        W22172  18.057  32.043  11.041
53843W        W22173   3.756   0.943   4.122
53844W        W22174  18.117  42.420  11.107
53845W        W22175   7.709  43.920   1.390
53846W        W22176  21.660  27.988  12.343
53847W        W22177  43.005  18.686   3.323
53848W        W22178  15.153  24.215   1.720
53849W        W22179  42.488  29.152   2.390
53850W        W22180   8.846  29.435  13.536
53851W        W22181  31.625   1.919   1.445
53852W        W22182   7.786  19.051  12.493
53853W        W22183  39.892  16.236  11.024
53854W        W22184   6.880  23.175  12.423
53855W        W22185  17.081  36.038   3.262
53856W        W22186  34.081  40.369   1.783
53857W        W22187  14.316  31.907  11.466
53858W        W22188  38.331  26.528  13.812
53859W        W22189  36.361  38.869   0.793
53860W        W22190  24.567   1.438   0.242
53861W        W22191  24.684  28.033  14.936
53862W        W22192  25.151  39.330  14.970
53863W        W22193  32.005  23.161  13.823
53864W        W22194   6.310  29.956   3.270
53865W        W22195  11.130  39.320   0.814
53866W        W22196  10.326  13.132   4.212
53867W        W22197   9.395  44.906   0.483
53868W        W22198  16.731  37.349  11.015
53869W        W22199  32.570  24.036  12.985
53870W        W22200   4.890  23.679  12.089
53871W        W22201  28.447  35.100   2.861
53872W        W22202  21.525   9.158   1.779
53873W        W22203  22.063  33.475  14.788
53874W        W22204  20.127  15.092  10.639
53875W        W22205  17.707  12.714  11.037
53876W        W22206  37.567  44.936   3.840
53877W        W22207   1.353  29.560  13.869
53878W        W22208  18.164  28.951   3.678
53879W        W22209   9.696  12.253  10.618
53880W        W22210   8.774   5.727   3.869
53881W        W22211  13.296  28.582  14.900
53882W        W22212  11.806   1.414  14.466
53883W        W22213  20.671  36.482  10.632
53884W        W22214   3.416  30.054   1.896
53885W        W22215  15.630  37.456  11.079
53886W        W22216  35.367  18.050   3.673
53887W        W22217  30.039  17.656   3.865
53888W        W22218   5.907   1.873  13.412
53889W        W22219   2.232  40.411   4.340
53890W        W22220  11.231  29.634  13.377
53891W        W22221  41.374  42.338   3.843
53892W        W22222  31.118  25.488   0.929
53893W        W22223  31.147  32.991  12.577
53894W        W22224  22.517  34.487  12.971
53895W        W22225  22.075  34.990   3.149
53896W        W22226  29.955  33.519   0.248
53897W        W22227   0.387  41.003  11.548
53898W        W22228  18.614   3.459  14.777
53899W        W22229   8.262  41.024  14.798
53900W        W22230  39.552  28.630  14.336
53901W        W22231  36.576  37.418   2.293
53902W        W22232   4.868  43.940  12.506
53903W        W22233  31.034  36.010  11.910
53904W        W22234  44.268  15.613   5.151
53905W        W22235   2.744  13.823  13.421
53906W        W22236   5.250   3.337   1.350
53907W        W22237  28.166  16.688  14.999
53908W        W22238  27.185  14.216   4.232
53909W        W22239   3.931  12.173   0.310
53910W        W22240  10.313  38.552   2.833
53911W        W22241   4.785  10.644   1.296
53912W        W22242  39.828  14.190  11.973
53913W        W22243  25.181  35.055   3.319
53914W        W22244   6.867  32.113  12.833
53915W        W22245   1.428   9.725  13.999
53916W        W22246  40.542  37.076  14.417
53917W        W22247  31.079  31.630   0.436
53918W        W22248   8.900   4.869   4.169
53919W        W22249  10.196  25.650  11.028
53920W        W22250  32.392  34.512  14.336
53921W        W22251  12.818  27.987   1.254
53922W        W22252   6.689  41.973  11.574
53923W        W22253   3.412  42.838   3.186
53924W        W22254  23.617   3.277   4.599
53925W        W22255   6.363  30.653   2.332
53926W        W22256   2.356  15.183   1.855
53927W        W22257  24.076  13.611   2.197
53928W        W22258  12.678   2.270  12.581
53929W        W22259  42.010  37.417   4.256
53930W        W22260   3.458  12.267  12.523
53931W        W22261  35.491   0.965  13.905
53932W        W22262  23.500  19.631   0.898
53933W        W22263  38.520  23.509   4.675
53934W        W22264  34.537   6.832  12.347
53935W        W22265  44.962  24.509   2.373
53936W        W22266  25.588   4.231  14.029
53937W        W22267  13.159  16.192  14.978
53938W        W22268  42.000  16.234   0.243
53939W        W22269  21.569  33.452  10.926
53940W        W22270  14.760  13.791   4.617
53941W        W22271  19.112  11.834   2.374
53942W        W22272   2.911  39.883  11.443
53943W        W22273   8.370   1.276   1.922
53944W        W22274  21.754  41.460  12.920
53945W        W22275   5.751  30.615   1.755
53946W        W22276  26.623   9.772   0.380
53947W        W22277  42.029  22.688   3.744
53948W        W22278  44.943  37.898   0.931
53949W        W22279  15.767   5.798   0.402
53950W        W22280   3.226   4.388  10.486
53951W        W22281  34.450  32.091  10.983
53952W        W22282  14.188   5.918   2.222
53953W        W22283  17.700  29.551   2.845
53954W        W22284  42.984  14.625   0.437
53955W        W22285  27.969  19.735  14.393
53956W        W22286  42.413  36.996  11.497
53957W        W22287  13.627  33.899  11.992
53958W        W22288  36.083  36.072   0.422
53959W        W22289  23.534  20.737   3.762
53960W        W22290  21.592   9.186   4.823
53961W        W22291  41.834  20.214   4.795
53962W        W22292  19.141  17.631   0.314
53963W        W22293  26.154  41.021   0.260
53964W        W22294  42.306   6.741  11.887
53965W        W22295   2.314  31.042  11.473
53966W        W22296  24.686   6.865  11.388
53967W        W22297  25.654   3.829  10.545
53968W        W22298  16.623  10.313   2.205
53969W        W22299   7.223  15.767   3.364
53970W        W22300  20.649  16.115  12.580
53971W        W22301  37.913   3.893  10.493
53972W        W22302  30.627  37.452   4.817
53973W        W22303  28.580   0.269   1.329
53974W        W22304  41.344   3.859  11.100
53975W        W22305  12.680  20.177  11.989
53976W        W22306  17.135  25.210  14.817
53977W        W22307  30.571  41.485   0.439
53978W        W22308  42.376   9.794  11.034
53979W        W22309  44.390  43.377  13.824
53980W        W22310  30.046   0.902  10.956
53981W        W22311  37.896  36.977   1.697
53982W        W22312  22.550   4.716   1.267
53983W        W22313  27.194  10.255   0.942
53984W        W22314  44.440   1.958   4.183
53985W        W22315  29.476  35.920  14.992
53986W        W22316  27.617  28.995   0.794
53987W        W22317   6.386   6.704   2.263
53988W        W22318  18.743  13.726   2.862
53989W        W22319  14.827  29.642   4.282
53990W        W22320  31.948  33.070   0.895
53991W        W22321  33.476  10.741   0.324
53992W        W22322   6.745   6.213  14.878
53993W        W22323  20.646  32.582  10.470
53994W        W22324  32.078  35.911  14.350
53995W        W22325   4.722   6.397   4.340
53996W        W22326  38.526  23.146  10.986
53997W        W22327   3.286  39.814   2.304
53998W        W22328   2.368  17.140   0.910
53999W        W22329  22.685  27.940  10.643
54000W        W22330  31.497  33.971  14.477
54001W        W22331  19.145  17.608   3.860
54002W        W22332  39.482  23.517  12.839
54003W        W22333  32.609  17.603   3.811
54004W        W22334   9.207  21.534   3.683
54005W        W22335  33.424  29.119   0.849
54006W        W22336  42.498  37.375   0.789
54007W        W22337   3.342  43.369   2.289
54008W        W22338  19.069  17.171   4.678
54009W        W22339   8.747  29.940  11.892
54010W        W22340  21.123   0.907  12.922
54011W        W22341  34.893  31.523   3.202
54012W        W22342  43.429   1.330  12.578
54013W        W22343  39.036  28.988   4.653
54014W        W22344  14.735  35.964   3.317
54015W        W22345  39.536  40.915   4.199
54016W        W22346   9.735  44.398  12.076
54017W        W22347   9.298  16.667  12.405
54018W        W22348  11.835  20.231  11.449
54019W        W22349  20.164   8.710   3.742
54020W        W22350  25.201  26.627   4.713
54021W        W22351   6.396   7.238   3.324
54022W        W22352   8.291  25.079  14.485
54023W        W22353   8.784   4.820  12.403
54024W        W22354  40.817   5.197   3.820
54025W        W22355  23.173  14.803  10.414
54026W        W22356   2.877  15.243   4.131
54027W        W22357  10.841  20.086  11.903
54028W        W22358  16.707  35.055  14.858
54029W        W22359  11.771  34.370  11.485
54030W        W22360  20.727  34.103  10.452
54031W        W22361   9.348  15.724   2.333
54032W        W22362  21.740   2.282   4.772
54033W        W22363  25.210  11.223  13.410
54034W        W22364   9.742  38.873   1.277
54035W        W22365   1.956  14.776   0.314
54036W        W22366  32.109  25.547   4.276
54037W        W22367  19.089  31.934  12.905
54038W        W22368  13.351  35.971   3.844
54039W        W22369  14.291  24.641   2.338
54040W        W22370  42.785  38.946  14.914
54041W        W22371  15.653  27.973  13.915
54042W        W22372   4.397  22.570  12.501
54043W        W22373  42.404  37.053  13.457
54044W        W22374   4.713  16.668   0.951
54045W        W22375  33.570   0.756   3.381
54046W        W22376  44.476  35.093   0.357
54047W        W22377  31.629  23.077   1.323
54048W        W22378  42.825  27.662  12.068
54049W        W22379  32.121  40.450   3.320
54050W        W22380  18.765  43.895   0.418
54051W        W22381   5.220  38.516   2.864
54052W        W22382  38.344   4.259  10.477
54053W        W22383  21.222  25.017   1.428
54054W        W22384   0.295  17.099   1.321
54055W        W22385  37.884   2.752  14.367
54056W        W22386  30.595  39.057   2.828
54057W        W22387   9.158  31.149   1.874
54058W        W22388  38.500   6.911   0.355
54059W        W22389   3.335   4.209   1.364
54060W        W22390  11.164  10.220   1.423
54061W        W22391  39.528  32.513  14.835
54062W        W22392  26.023  36.519  13.526
54063W        W22393  16.129  28.020  11.931
54064W        W22394  40.500  21.256   4.807
54065W        W22395   3.263  15.765   4.273
54066W        W22396  34.521  14.698  14.481
54067W        W22397  25.969  11.324   3.866
54068W        W22398  19.183  39.893  13.823
54069W        W22399  37.453  33.013   4.817
54070W        W22400  22.623  15.168   3.861
54071W        W22401  17.177   2.377   4.184
54072W        W22402  17.727  38.553   4.208
54073W        W22403   8.828  21.111   3.202
54074W        W22404  30.122   0.308   4.264
54075W        W22405  28.436   0.394   4.238
54076W        W22406  24.596  32.013  12.002
54077W        W22407  14.630   3.445   2.856
54078W        W22408  25.488   7.221  14.461
54079W        W22409  12.633  10.288   2.278
54080W        W22410  35.595   0.287   4.233
54081W        W22411   2.403  23.544   4.190
54082W        W22412  40.024  38.534   4.331
54083W        W22413  33.021  35.523  12.478
54084W        W22414  12.282  34.490   0.868
54085W        W22415  30.031  36.945  11.928
54086W        W22416  24.116  10.365   1.210
54087W        W22417   8.767  16.308   4.123
54088W        W22418   6.394  34.491   4.801
54089W        W22419  10.252   2.319  13.930
54090W        W22420  20.577  32.028  14.321
54091W        W22421  43.420  10.848   0.301
54092W        W22422  11.158  23.105  11.487
54093W        W22423  24.037  17.209   2.309
54094W        W22424  10.713  44.804  11.512
54095W        W22425  27.020   2.821  13.894
54096W        W22426  25.498  11.334  10.912
54097W        W22427  43.834  33.463   4.681
54098W        W22428  43.482  42.859   4.303
54099W        W22429  41.386  16.301   0.340
54100W        W22430  10.214  38.043  10.889
54101W        W22431  33.994  22.240  10.575
54102W        W22432  36.002  16.800   0.360
54103W        W22433  13.841   0.292   1.869
54104W        W22434  40.943  19.685  14.440
54105W        W22435  10.749  41.030  11.937
54106W        W22436  21.564  43.285   3.197
54107W        W22437  14.608  12.686   2.789
54108W        W22438   1.448  35.084   3.193
54109W        W22439  36.056  39.917  14.444
54110W        W22440  31.122  32.413  13.965
54111W        W22441  39.980  44.779   3.710
54112W        W22442  38.880  17.164   0.955
54113W        W22443  30.027   9.222   0.348
54114W        W22444  22.611  26.498  10.471
54115W        W22445   5.363  33.098  11.396
54116W        W22446  19.110  22.696   1.250
54117W        W22447  32.568  13.801  12.501
54118W        W22448  40.414   3.260  14.987
54119W        W22449  27.963  31.549  11.084
54120W        W22450  35.505   8.824  13.461
54121W        W22451  34.110  19.048   0.291
54122W        W22452   1.323  26.008  13.016
54123W        W22453  36.872  40.803   1.357
54124W        W22454   9.290   9.659  10.612
54125W        W22455  16.108  18.766  12.503
54126W        W22456  12.143  25.667   4.268
54127W        W22457  34.910  24.158  11.860
54128W        W22458  28.559  22.623  13.388
54129W        W22459  42.442  27.526  10.470
54130W        W22460  40.533  43.020   4.170
54131W        W22461   9.818  41.897   1.344
54132W        W22462  32.585  27.602  11.479
54133W        W22463  28.933   6.760  13.827
54134W        W22464  15.753  32.484  11.547
54135W        W22465  14.174  10.366  10.439
54136W        W22466  12.127   2.888  14.994
54137W        W22467  23.550  32.923   3.696
54138W        W22468  11.211  30.544   3.251
54139W        W22469  34.877  38.429  13.791
54140W        W22470   5.706  31.089  12.535
54141W        W22471  42.477  14.713  12.024
54142W        W22472  40.534  43.292  11.962
54143W        W22473  15.633  26.673  14.437
54144W        W22474   0.937   2.373  13.506
54145W        W22475  32.593  13.607   1.773
54146W        W22476  28.016   0.266  10.631
54147W        W22477   0.869   9.364  10.621
54148W        W22478  32.432  22.205  13.504
54149W        W22479  27.537  31.992   4.290
54150W        W22480  40.490  28.071  12.069
54151W        W22481  18.146   2.283  11.951
54152W        W22482   8.356  14.123   0.306
54153W        W22483   3.821  33.917   2.301
54154W        W22484  35.110  43.484   2.844
54155W        W22485  31.970  13.767   3.168
54156W        W22486  17.189  10.358  13.884
54157W        W22487   8.263  23.152   1.832
54158W        W22488   9.803  13.212   1.425
54159W        W22489  16.587  15.119  12.382
54160W        W22490   1.306  17.706   3.276
54161W        W22491  21.702  35.420  12.404
54162W        W22492  37.902  42.466  14.489
54163W        W22493  31.078  15.651   1.911
54164W        W22494  21.195  22.677  13.858
54165W        W22495  19.203  23.517   3.687
54166W        W22496  39.428  19.658  14.023
54167W        W22497  18.611   9.340   3.729
54168W        W22498  23.574   5.726  14.431
54169W        W22499  28.491  10.671  10.131
54170W        W22500  26.994  35.464  14.302
54171W        W22501  18.615  27.453  12.854
54172W        W22502  14.706  29.456  14.919
54173W        W22503  18.197  17.215  13.982
54174W        W22504  22.200  40.481   2.274
54175W        W22505  24.021   6.326   1.339
54176W        W22506  23.177   5.824  13.812
54177W        W22507  16.090   7.199  12.948
54178W        W22508  35.554  13.154   1.764
54179W        W22509   8.353  16.663   1.332
54180W        W22510  34.865  34.908  11.983
54181W        W22511  18.617  31.114  13.887
54182W        W22512  11.156  23.605  12.945
54183W        W22513  16.714  20.246  12.500
54184W        W22514  26.661  15.628  12.870
54185W        W22515  39.047   7.273   2.838
54186W        W22516  44.405  23.644   4.651
54187W        W22517  33.060  32.107  12.537
54188W        W22518   9.215   2.472  13.895
54189W        W22519   1.472   9.867   4.828
54190W        W22520   5.410  43.425   3.820
54191W        W22521  10.855  14.700   3.276
54192W        W22522  14.239  19.564  13.428
54193W        W22523   0.474  13.137   4.635
54194W        W22524  10.826  25.963   4.816
54195W        W22525  17.286  18.182  14.468
54196W        W22526  16.753  14.227  13.489
54197W        W22527  11.774  40.963   4.185
54198W        W22528  38.857  10.214  10.631
54199W        W22529  42.431  20.176  12.486
54200W        W22530  43.335  27.955  10.919
54201W        W22531   8.732  11.325  11.017
54202W        W22532  10.740  11.202   4.156
54203W        W22533  22.233  18.560  11.382
54204W        W22534  42.011   4.387  13.367
54205W        W22535  40.958  39.057   4.759
54206W        W22536  26.613   8.741  11.578
54207W        W22537  33.554  31.034  13.444
54208W        W22538  22.515   5.896  14.819
54209W        W22539  24.136  28.098   5.146
54210W        W22540  30.456  22.523  11.943
54211W        W22541   6.862   0.882   0.378
54212W        W22542   9.829  16.259  11.865
54213W        W22543  34.036  25.471  14.869
54214W        W22544   0.979   7.800  14.896
54215W        W22545  19.579  40.428   3.178
54216W        W22546  37.853  28.438   4.656
54217W        W22547  28.585   8.710   4.741
54218W        W22548  42.349  25.594  13.973
54219W        W22549  36.390  24.004  13.405
54220W        W22550  44.935  19.201   0.458
54221W        W22551  14.243   4.255  13.404
54222W        W22552  40.826   1.452   1.898
54223W        W22553   7.359  41.408  14.006
54224W        W22554  43.005  35.386  10.559
54225W        W22555  21.587  13.708  13.468
54226W        W22556   3.372  31.041  12.555
54227W        W22557   6.758  42.514   4.627
54228W        W22558  30.506   9.706   4.178
54229W        W22559  27.131   9.195  14.970
54230W        W22560  26.547  16.209   3.859
54231W        W22561  11.171  33.409   4.213
54232W        W22562   9.378   3.303   2.184
54233W        W22563  21.049   7.705  11.073
54234W        W22564  26.582  38.917   4.152
54235W        W22565  37.480  15.238  13.358
54236W        W22566  22.522  40.463  12.528
54237W        W22567  27.071  10.252  12.849
54238W        W22568  41.513  34.871  10.912
54239W        W22569   1.831  13.763  13.033
54240W        W22570  44.981  43.426   3.769
54241W        W22571  25.623   8.180  10.517
54242W        W22572  43.770   1.866  12.902
54243W        W22573  30.089   4.245  13.528
54244W        W22574   2.388  12.225  11.511
54245W        W22575  38.914  44.813   4.628
54246W        W22576  44.307  12.705   1.780
54247W        W22577  43.875  19.145   3.212
54248W        W22578  34.388  35.063   2.718
54249W        W22579  28.969  32.943   4.238
54250W        W22580  32.391   2.272   2.218
54251W        W22581  44.761  21.679  14.912
54252W        W22582  42.019  38.031  11.962
54253W        W22583  18.672  10.803   2.828
54254W        W22584  22.648  23.733  14.877
54255W        W22585  43.810  26.661   0.756
54256W        W22586  28.583  27.162   4.351
54257W        W22587  19.129  20.092  14.373
54258W        W22588  41.448  33.883   0.406
54259W        W22589  29.633  19.609   4.267
54260W        W22590  36.858  25.139   4.211
54261W        W22591  14.595  37.506   0.812
54262W        W22592  18.772  39.983   3.816
54263W        W22593  31.922  44.994   2.419
54264W        W22594  11.661  36.417   4.226
54265W        W22595  15.649  29.028   0.960
54266W        W22596   7.265  10.733   3.304
54267W        W22597  24.661  24.682   4.721
54268W        W22598  26.679  42.436   3.775
54269W        W22599  41.303  37.464   2.271
54270W        W22600  29.918  20.146   4.149
54271W        W22601  21.197  14.629  10.405
54272W        W22602   1.406  21.594   4.615
54273W        W22603   6.344  19.701  14.803
54274W        W22604  35.934   6.383   1.904
54275W        W22605  43.483  33.978  11.106
54276W        W22606  19.596  16.216  14.389
54277W        W22607  41.847  12.620  13.379
54278W        W22608   0.841  23.181  12.364
54279W        W22609  10.141   9.262  11.956
54280W        W22610  36.841  29.549   3.691
54281W        W22611   1.237  38.527   2.896
54282W        W22612  10.362  27.664  12.913
54283W        W22613  44.933  32.619   4.251
54284W        W22614   4.841  12.312  11.112
54285W        W22615  37.970   2.389   0.933
54286W        W22616  32.540  11.866   4.309
54287W        W22617   7.894  37.908   0.851
54288W        W22618   0.757  14.639  14.413
54289W        W22619  19.251   3.390  13.388
54290W        W22620   7.834  38.419   2.287
54291W        W22621  17.161   6.852  14.870
54292W        W22622  37.936  32.632  10.546
54293W        W22623  16.644  25.216   1.800
54294W        W22624  35.989  31.134   2.225
54295W        W22625  41.526  13.189   2.688
54296W        W22626   0.411   3.833  11.569
54297W        W22627  38.365  34.084   4.745
54298W        W22628  42.432  32.591   4.344
54299W        W22629  12.292  25.646   2.697
54300W        W22630  11.227  43.492  13.430
54301W        W22631  42.879   8.779   0.334
54302W        W22632  22.155   7.265   4.168
54303W        W22633  38.432  15.737   3.260
54304W        W22634  14.113  36.547  12.090
54305W        W22635  17.139   3.406   2.222
54306W        W22636  40.509  28.469  14.426
54307W        W22637  36.987  40.809  14.332
54308W        W22638  28.642   7.176   4.598
54309W        W22639  39.515   2.236   0.892
54310W        W22640  36.366  10.759  11.577
54311W        W22641  20.604   6.231   4.127
54312W        W22642  40.814   1.746   0.345
54313W        W22643  27.593  15.804   2.295
54314W        W22644  28.142  42.956   4.167
54315W        W22645   6.691  28.476  12.478
54316W        W22646  39.827   3.317  13.355
54317W        W22647  35.444  11.357   0.283
54318W        W22648  22.250  10.142   9.649
54319W        W22649  32.047  18.659   0.889
54320W        W22650  35.550  25.137   3.836
54321W        W22651  30.039  33.063   3.857
54322W        W22652  17.187  11.294   4.281
54323W        W22653  19.581  14.098  14.933
54324W        W22654   4.305   9.763   0.821
54325W        W22655  11.144   1.338  12.058
54326W        W22656  40.314  15.813   1.346
54327W        W22657  12.222   0.262  10.421
54328W        W22658  42.972   1.731   1.434
54329W        W22659  16.651  19.145  13.475
54330W        W22660  37.547  18.754   3.172
54331W        W22661  29.920  19.120  11.389
54332W        W22662  35.562  17.125  13.055
54333W        W22663  25.657  29.655  11.927
54334W        W22664  22.704  10.750  14.289
54335W        W22665  32.459   5.850  12.899
54336W        W22666  42.353   7.218   2.839
54337W        W22667  28.599  41.881  13.441
54338W        W22668  34.518  42.947  10.065
54339W        W22669  16.756   9.367   1.755
54340W        W22670   4.939  43.909   0.451
54341W        W22671  34.526  23.501  12.926
54342W        W22672  26.117   0.449  10.622
54343W        W22673  12.360  40.379   2.730
54344W        W22674  31.148  16.300   3.753
54345W        W22675  25.515   9.688   9.929
54346W        W22676  11.166  36.446  12.491
54347W        W22677  43.425  17.257   2.858
54348W        W22678  34.919  19.043  12.855
54349W        W22679  39.524  11.777   3.829
54350W        W22680  32.407   5.726   0.397
54351W        W22681  12.639  12.273   3.174
54352W        W22682   6.404  13.770  11.459
54353W        W22683   5.324   3.363  11.567
54354W        W22684   9.170  11.733   0.332
54355W        W22685  11.180  25.984  13.985
54356W        W22686  35.421   0.759   1.743
54357W        W22687  28.999  38.068   4.792
54358W        W22688   2.957  13.253  11.022
54359W        W22689  31.986   5.890   2.290
54360W        W22690  16.697  34.442  12.870
54361W        W22691  27.488  12.824   1.825
54362W        W22692  18.221  44.494  14.769
54363W        W22693   5.343   8.335  12.914
54364W        W22694  37.972  40.496   1.830
54365W        W22695  11.234  28.606  12.575
54366W        W22696  34.582  25.518   2.351
54367W        W22697   8.390  11.356  14.294
54368W        W22698   9.293  32.485  14.353
54369W        W22699  21.736  14.649  13.370
54370W        W22700  13.214   6.720   3.307
54371W        W22701  12.251   0.866  10.905
54372W        W22702  22.182   7.230   0.733
54373W        W22703  26.010  31.471  14.897
54374W        W22704  33.412  10.215  12.391
54375W        W22705  29.646  12.349  12.966
54376W        W22706  10.272  44.268  14.896
54377W        W22707  20.650   6.204  14.349
54378W        W22708  44.448  18.055   1.310
54379W        W22709  18.609   4.782  10.927
54380W        W22710  17.174   0.915  11.386
54381W        W22711  43.933  26.965  10.417
54382W        W22712   9.835  28.943   1.736
54383W        W22713   7.290  12.361   3.286
54384W        W22714  33.472   2.950   3.152
54385W        W22715  22.685  15.715   3.861
54386W        W22716  38.834  40.538   2.859
54387W        W22717   8.229   4.396  14.404
54388W        W22718  25.527  14.255   0.376
54389W        W22719  24.097   8.884   2.333
54390W        W22720  39.389  12.123   3.747
54391W        W22721  36.520  30.443   2.192
54392W        W22722  15.772  38.844   0.752
54393W        W22723   9.780   0.478  14.758
54394W        W22724  41.486   8.737   0.922
54395W        W22725  14.601  43.901  12.524
54396W        W22726  36.498  10.684  13.977
54397W        W22727  28.933  44.413  11.128
54398W        W22728   5.358  15.641   1.720
54399W        W22729  35.409   5.813   0.780
54400W        W22730   0.895  25.676  13.441
54401W        W22731  44.446  33.997   4.723
54402W        W22732  15.778  41.511   3.654
54403W        W22733  41.015   8.754  12.518
54404W        W22734  33.033  14.267   1.752
54405W        W22735  20.212  20.160   1.807
54406W        W22736  16.318  36.412   1.382
54407W        W22737   4.260  24.705   2.682
54408W        W22738  39.927   7.366   1.912
54409W        W22739   6.305   4.391  13.991
54410W        W22740   1.363  21.173   3.191
54411W        W22741  35.546  20.692   4.787
54412W        W22742  12.783  14.250   1.221
54413W        W22743  13.263  17.176  12.973
54414W        W22744  17.105   3.452   0.310
54415W        W22745  28.555  44.311   1.443
54416W        W22746  24.083  12.657   3.228
54417W        W22747  16.264  18.244  14.878
54418W        W22748  39.493   5.270   2.812
54419W        W22749  20.219  26.959   1.411
54420W        W22750   4.275  42.467  14.779
54421W        W22751  39.472  44.993   0.468
54422W        W22752  38.949  18.123   0.749
54423W        W22753  22.567  32.611   1.924
54424W        W22754  43.776  41.948  11.471
54425W        W22755  18.267  38.829   1.383
54426W        W22756  19.151  17.734  11.436
54427W        W22757  33.464  15.241   0.953
54428W        W22758   3.943  27.012   2.772
54429W        W22759   2.916   2.231  10.568
54430W        W22760  24.109   9.782   4.217
54431W        W22761  24.192  36.965  13.956
54432W        W22762  33.408   8.222   0.923
54433W        W22763  18.157  23.221   5.586
54434W        W22764   1.830   9.675   0.281
54435W        W22765  30.941  23.673  12.379
54436W        W22766  32.100  31.086   3.208
54437W        W22767  27.997  43.988   2.419
54438W        W22768  24.226  23.639   4.188
54439W        W22769  32.920  26.035   3.777
54440W        W22770  33.405   3.789   0.823
54441W        W22771  18.271   4.722   2.676
54442W        W22772  24.090   3.427  11.928
54443W        W22773  43.407   1.466   4.166
54444W        W22774  40.476   3.308   3.298
54445W        W22775  29.950  19.241  10.513
54446W        W22776  41.464  39.857   1.890
54447W        W22777   0.973  37.489   0.959
54448W        W22778  15.124  11.208  12.878
54449W        W22779  22.218  33.580   0.874
54450W        W22780   1.408  22.996  11.966
54451W        W22781  30.003  39.327   0.265
54452W        W22782  40.981  41.002  13.991
54453W        W22783  18.737  36.982   1.734
54454W        W22784  14.197  41.926  14.920
54455W        W22785  29.026  23.730  11.908
54456W        W22786  30.458   4.830  11.883
54457W        W22787  26.692  40.448   1.374
54458W        W22788  32.034  36.981   1.769
54459W        W22789  22.199  13.250  14.507
54460W        W22790  13.743  10.356   4.597
54461W        W22791  28.679  13.145  11.417
54462W        W22792   5.424  33.455   3.859
54463W        W22793  27.001   2.322  14.339
54464W        W22794   3.895  42.910   4.147
54465W        W22795  20.274  41.329  10.949
54466W        W22796   1.849  24.713   2.376
54467W        W22797  38.342   7.386  12.528
54468W        W22798  31.959   8.677  11.022
54469W        W22799  25.972  31.591   3.689
54470W        W22800  15.099  35.427  13.019
54471W        W22801  17.105   3.851  13.488
54472W        W22802  17.269  13.621   4.345
54473W        W22803  30.124   0.396  12.866
54474W        W22804  18.053   9.824   0.446
54475W        W22805  36.530  32.397   0.940
54476W        W22806  30.640  40.931   1.795
54477W        W22807  21.211  17.588  13.480
54478W        W22808  32.487  42.822   2.224
54479W        W22809  32.538  40.361  13.955
54480W        W22810  30.093  41.832  12.061
54481W        W22811  18.104  21.539   0.745
54482W        W22812  32.087   0.377   5.187
54483W        W22813   7.247   4.905  12.503
54484W        W22814  32.405   2.778   2.379
54485W        W22815  37.928   7.173   5.615
54486W        W22816  39.868  34.917  14.801
54487W        W22817  41.374  40.958  14.436
54488W        W22818  41.863  44.400   1.217
54489W        W22819  22.531   9.693   3.181
54490W        W22820  38.919  19.546   1.843
54491W        W22821  44.306  26.964   2.365
54492W        W22822  13.280   2.323   3.783
54493W        W22823  11.729  17.741   0.379
54494W        W22824   7.681  27.985  13.918
54495W        W22825  25.542   3.449   1.228
54496W        W22826  36.501  25.473   4.131
54497W        W22827   8.716   7.720   2.757
54498W        W22828  31.592   2.878  13.033
54499W        W22829  22.606  12.288  11.031
54500W        W22830   1.914  41.468  13.351
54501W        W22831  10.153  12.679  11.885
54502W        W22832  18.774  12.341  14.465
54503W        W22833  20.630  35.916  14.382
54504W        W22834  30.597  37.395  12.519
54505W        W22835  31.582  23.998   1.289
54506W        W22836  33.574  16.183  12.363
54507W        W22837  25.004  43.912   4.822
54508W        W22838  28.045  31.115   4.683
54509W        W22839  41.908  35.101  12.523
54510W        W22840  44.475  20.560  11.089
54511W        W22841  12.291  40.470   1.881
54512W        W22842  28.660  14.204  12.022
54513W        W22843   0.272  24.013  13.004
54514W        W22844  19.082  24.182   4.353
54515W        W22845  18.610  40.040  12.463
54516W        W22846  14.765  35.052   5.570
54517W        W22847  15.211   4.869  12.084
54518W        W22848  34.442  25.169   2.860
54519W        W22849  42.436   0.337   0.374
54520W        W22850  44.981  37.340   1.790
54521W        W22851  25.597  42.399  12.021
54522W        W22852   1.843   9.227   0.895
54523W        W22853  36.360   6.312   0.481
54524W        W22854  22.192  28.678  12.960
54525W        W22855  27.977  27.562   3.846
54526W        W22856  24.520  20.255   1.427
54527W        W22857  23.613  41.804  13.870
54528W        W22858  32.601  27.541  10.479
54529W        W22859  25.595  29.156  14.772
54530W        W22860   0.917  23.561   0.338
54531W        W22861  18.652   7.871  12.517
54532W        W22862  12.779  37.486   2.740
54533W        W22863  36.052  34.531   4.831
54534W        W22864  29.588  15.277  11.921
54535W        W22865  19.622  17.259  10.985
54536W        W22866   3.425  31.549  13.950
54537W        W22867   1.480   2.389   4.739
54538W        W22868  41.405  43.416  14.835
54539W        W22869  39.543  41.365  14.419
54540W        W22870  36.368  43.012   1.891
54541W        W22871  34.043   7.182  10.611
54542W        W22872  28.452  34.116  11.481
54543W        W22873   0.364  32.070   1.427
54544W        W22874  40.545  12.676   1.315
54545W        W22875  41.397  19.261  11.514
54546W        W22876  20.139  20.044   5.651
54547W        W22877  17.555  40.334   4.300
54548W        W22878   1.314  34.488   0.353
54549W        W22879   7.274  16.702   0.355
54550W        W22880  10.718  20.255  13.829
54551W        W22881  36.536  12.818   1.309
54552W        W22882  17.274   2.940   1.253
54553W        W22883  21.264  22.653  13.409
54554W        W22884  16.175  42.843   3.175
54555W        W22885  11.216  38.535  10.410
54556W        W22886  21.700  29.002  13.512
54557W        W22887  30.961   1.430   1.890
54558W        W22888  42.421  20.550  10.427
54559W        W22889  36.896  26.171   0.385
54560W        W22890  42.419  42.861  12.558
54561W        W22891  22.132  23.617   4.700
54562W        W22892  13.253  29.169   0.838
54563W        W22893  30.436   2.314   2.354
54564W        W22894  14.777  19.086  12.876
54565W        W22895  34.005   1.438   3.211
54566W        W22896  18.567  19.159  12.374
54567W        W22897   4.698  42.928  11.508
54568W        W22898  16.284  35.466   5.219
54569W        W22899  25.989  11.717   0.398
54570W        W22900   9.391  40.422  10.511
54571W        W22901  38.377  18.096  11.857
54572W        W22902   6.826  42.420  11.433
54573W        W22903  40.988  17.212   2.756
54574W        W22904   1.418  30.614  10.586
54575W        W22905  35.024  18.050   2.303
54576W        W22906  18.082  34.873  11.043
54577W        W22907  27.556  29.952  13.434
54578W        W22908  21.102   2.458  14.889
54579W        W22909   8.291  31.037  10.519
54580W        W22910   4.787   4.388  14.284
54581W        W22911   0.931  35.871  12.041
54582W        W22912   5.763  37.866   1.775
54583W        W22913   7.778  12.810  11.094
54584W        W22914  34.471  17.736   1.279
54585W        W22915  20.055  43.515   3.375
54586W        W22916  25.611   5.348   4.294
54587W        W22917  20.671  42.900  11.558
54588W        W22918  37.839   8.746  14.874
54589W        W22919  12.834  25.131   2.833
54590W        W22920  28.638  12.613   0.309
54591W        W22921  39.904  24.479   3.831
54592W        W22922  35.031   5.274  11.093
54593W        W22923  30.039   1.840   4.167
54594W        W22924  31.081  21.212   1.777
54595W        W22925   1.292  20.701   0.312
54596W        W22926   2.876  13.604   2.774
54597W        W22927   2.919  32.558  12.861
54598W        W22928  44.470   9.696   1.841
54599W        W22929  24.117  21.022   4.621
54600W        W22930  35.865  10.826   4.114
54601W        W22931  44.941   7.311  10.451
54602W        W22932  23.706  40.383  13.967
54603W        W22933  19.056  18.570   9.443
54604W        W22934  11.167  26.129   2.412
54605W        W22935  23.037  28.047  14.833
54606W        W22936  40.879   6.684   5.099
54607W        W22937  25.154  42.896   1.290
54608W        W22938  41.454  15.684  11.464
54609W        W22939   1.397   4.757  12.502
54610W        W22940  34.498  11.229   0.819
54611W        W22941  22.602  38.340  11.537
54612W        W22942  10.311  27.086  11.959
54613W        W22943   1.435   4.286   3.867
54614W        W22944  25.061  27.954  12.838
54615W        W22945  11.679   3.450   3.355
54616W        W22946  32.113   9.877   3.356
54617W        W22947  32.391  34.497   3.715
54618W        W22948  23.609  37.041   1.805
54619W        W22949   5.876  27.588  10.919
54620W        W22950  38.376  16.573   1.365
54621W        W22951  11.844  16.569  14.280
54622W        W22952  29.012  43.926   0.851
54623W        W22953  29.103  37.061  12.553
54624W        W22954  22.177  28.043  11.107
54625W        W22955  12.844  33.965  14.954
54626W        W22956  38.946  23.581  12.349
54627W        W22957  10.362  34.082   1.415
54628W        W22958  44.758  23.093  11.003
54629W        W22959  12.216  26.595  11.891
54630W        W22960  10.683   8.799  12.486
54631W        W22961   4.856  31.131   1.234
54632W        W22962   2.865  19.249   3.740
54633W        W22963  30.162  18.653   1.703
54634W        W22964   3.831   1.340  10.949
54635W        W22965  28.602  30.489   3.652
54636W        W22966  12.783  18.173   3.292
54637W        W22967  22.521  23.712  12.937
54638W        W22968   4.902  34.928  12.441
54639W        W22969  34.961  13.725  13.476
54640W        W22970  18.291   9.261   0.835
54641W        W22971  41.971   4.242  14.022
54642W        W22972  38.376   8.230  14.780
54643W        W22973  32.436  31.519   4.742
54644W        W22974   5.395  14.324   3.647
54645W        W22975  16.299  35.592   4.292
54646W        W22976  14.770  17.715  13.519
54647W        W22977  26.633  25.103  10.968
54648W        W22978  17.624  34.601  12.951
54649W        W22979   6.405  20.167  11.576
54650W        W22980  18.745  29.046   4.209
54651W        W22981  33.510  25.663   2.370
54652W        W22982  42.345  42.793   3.702
54653W        W22983   1.957  28.526   0.430
54654W        W22984   7.812  21.627   2.686
54655W        W22985  36.888  42.878   1.907
54656W        W22986  42.962  16.104   4.239
54657W        W22987  32.030  16.697   1.277
54658W        W22988  42.447   4.934   4.141
54659W        W22989   3.421   3.226  11.997
54660W        W22990   8.254  25.504   1.446
54661W        W22991  13.248   2.873  10.913
54662W        W22992  43.402   8.791   2.857
54663W        W22993  17.286  38.821   1.922
54664W        W22994  28.152  17.236  10.446
54665W        W22995  31.090  34.422   3.659
54666W        W22996  21.733  31.095  13.912
54667W        W22997  43.284   7.744  14.871
54668W        W22998  43.299  36.446   4.240
54669W        W22999  28.659  15.313   0.298
54670W        W23000  19.659  10.701   2.740
54671W        W23001  27.147  32.993  11.540
54672W        W23002   5.424   8.755   1.781
54673W        W23003   6.353  25.556  14.855
54674W        W23004  29.967  31.507   5.772
54675W        W23005  13.209   4.349  11.560
54676W        W23006  13.244  23.611  12.881
54677W        W23007  37.400  23.619  13.925
54678W        W23008   6.250  38.919   5.209
54679W        W23009  29.441   6.218  12.419
54680W        W23010   8.284  24.035  14.939
54681W        W23011  26.637  38.876  14.478
54682W        W23012  23.117   0.346  10.940
54683W        W23013   4.358   6.917  13.484
54684W        W23014  37.048   2.463  12.898
54685W        W23015  31.505  25.712   1.905
54686W        W23016  43.436  38.836   1.260
54687W        W23017  16.140  23.013  12.451
54688W        W23018   7.761  30.524   0.265
54689W        W23019  16.304   8.210   3.377
54690W        W23020  35.097  33.380   4.183
54691W        W23021   3.285  42.017   5.319
54692W        W23022  14.733  30.053  14.006
54693W        W23023  28.480  34.450  14.793
54694W        W23024   9.732  30.022  14.405
54695W        W23025   1.346  16.569   1.722
54696W        W23026  19.081  21.604   0.847
54697W        W23027  19.273  11.860  14.281
54698W        W23028   8.373  23.203   0.481
54699W        W23029  19.658  17.150   2.197
54700W        W23030  28.119  12.302  12.854
54701W        W23031  33.596  16.206   1.771
54702W        W23032  22.564  15.794   2.213
54703W        W23033  40.803   5.877   4.298
54704W        W23034  21.167  24.102   5.320
54705W        W23035  44.313  44.963  12.923
54706W        W23036  14.201  13.255  10.413
54707W        W23037  31.537  13.805   2.227
54708W        W23038  35.965  30.034   1.343
54709W        W23039  14.098  28.112  12.961
54710W        W23040  13.351  44.955  13.454
54711W        W23041  10.153  18.131  13.935
54712W        W23042   4.935  22.093   1.266
54713W        W23043   2.295   8.887   4.131
54714W        W23044  43.367   8.706   3.306
54715W        W23045   7.777  22.034   4.715
54716W        W23046   3.812  23.731  13.500
54717W        W23047  42.784  21.682  14.853
54718W        W23048   5.251   0.471  10.490
54719W        W23049  23.236   9.775   4.124
54720W        W23050  12.614  41.845   5.086
54721W        W23051  39.419  31.507  13.380
54722W        W23052  12.753  29.020   4.806
54723W        W23053  44.766   2.810   2.334
54724W        W23054  43.473  21.697  14.364
54725W        W23055   5.800  26.028   2.854
54726W        W23056  39.840   7.669  12.852
54727W        W23057  30.922  13.283   2.296
54728W        W23058  27.627  17.684   1.350
54729W        W23059   6.817  31.005   2.180
54730W        W23060  23.723   3.416  10.420
54731W        W23061  42.423  32.932   2.699
54732W        W23062  38.448   7.290   4.666
54733W        W23063  23.563   6.385  14.380
54734W        W23064   1.785  41.875  11.380
54735W        W23065   0.477  19.665  13.045
54736W        W23066  43.509   0.748  13.969
54737W        W23067  33.030  18.762  12.561
54738W        W23068  37.016  30.508  12.486
54739W        W23069   9.278   5.236  14.407
54740W        W23070  17.751   9.175  14.022
54741W        W23071  23.207  33.114   3.756
54742W        W23072  29.501  36.994   3.332
54743W        W23073  10.656   5.784  11.471
54744W        W23074  22.516  37.362   0.768
54745W        W23075  18.628  25.059   1.357
54746W        W23076  24.707  31.465   2.839
54747W        W23077  41.796  14.133   1.872
54748W        W23078   6.295  28.623   3.333
54749W        W23079  28.002  33.576   1.809
54750W        W23080  25.196  42.307   1.904
54751W        W23081   7.253  37.353  14.892
54752W        W23082  42.290  18.768   2.848
54753W        W23083  17.239  43.327  12.919
54754W        W23084  34.880  14.704  10.403
54755W        W23085  18.181  23.509   4.621
54756W        W23086  25.085   3.401  11.476
54757W        W23087   9.857  35.533   1.896
54758W        W23088  13.261  23.039   3.358
54759W        W23089   5.863  23.115  11.993
54760W        W23090   5.892  12.354  11.375
54761W        W23091   8.310  37.920   1.431
54762W        W23092  40.397  19.599  14.027
54763W        W23093   6.920  18.144   4.626
54764W        W23094   2.294   4.719   3.772
54765W        W23095  43.477   5.792   3.154
54766W        W23096  14.739  37.567   1.383
54767W        W23097  10.213  11.808  13.960
54768W        W23098   3.930  11.798   1.825
54769W        W23099  13.769  29.079  12.350
54770W        W23100  39.480  18.784   0.957
54771W        W23101  16.792  26.078   1.361
54772W        W23102  37.582  14.224  10.627
54773W        W23103  26.617  36.571  11.957
54774W        W23104  39.476  32.911  11.128
54775W        W23105  15.275  44.801  11.954
54776W        W23106  39.014   1.840   3.322
54777W        W23107   4.881  39.930   0.840
54778W        W23108  18.736  38.428   1.414
54779W        W23109   7.241  43.010   1.763
54780W        W23110  37.343  38.382  10.894
54781W        W23111   4.412   7.835  12.411
54782W        W23112  29.138  32.535   0.823
54783W        W23113   2.363  29.952  13.796
54784W        W23114  28.505  26.651  14.460
54785W        W23115  22.653  31.898   3.156
54786W        W23116  27.998   5.363   4.726
54787W        W23117  15.191  34.039   4.287
54788W        W23118  29.650  21.115   4.798
54789W        W23119  21.159   7.365  13.457
54790W        W23120  38.365  33.397  12.855
54791W        W23121  44.413  33.058  11.968
54792W        W23122  26.975  18.139   4.789
54793W        W23123  35.571  26.512  14.860
54794W        W23124  22.627  16.141  12.368
54795W        W23125  12.344  21.193  10.408
54796W        W23126   7.268  24.652   0.925
54797W        W23127  11.157  24.027   1.865
54798W        W23128  41.896  16.285  11.499
54799W        W23129  24.156  38.891  12.494
54800W        W23130   8.249  25.546  13.819
54801W        W23131  12.847  15.310   1.399
54802W        W23132  29.514   5.712  12.836
54803W        W23133  38.857  38.980  11.471
54804W        W23134   8.680   7.222  13.317
54805W        W23135  37.487  13.756   3.715
54806W        W23136  13.122  34.420   3.220
54807W        W23137  31.524  42.417  10.514
54808W        W23138  32.916   6.229  12.033
54809W        W23139   1.946  42.443  11.097
54810W        W23140  28.636  40.825  14.309
54811W        W23141   9.367   2.278   4.309
54812W        W23142  43.969  15.183   0.314
54813W        W23143   0.450  13.153   0.771
54814W        W23144  23.016   1.884  10.423
54815W        W23145  29.553  21.246   9.555
54816W        W23146  34.965  16.235   1.909
54817W        W23147  12.855  44.400  12.986
54818W        W23148   4.876  39.540  12.485
54819W        W23149  36.866  24.608  11.024
54820W        W23150  41.350  26.477  13.000
54821W        W23151  36.993  38.945   2.747
54822W        W23152  28.134  22.592  10.463
54823W        W23153  17.726  20.032   2.383
54824W        W23154   1.399  28.001  13.872
54825W        W23155  25.115  42.809  11.929
54826W        W23156  32.903  27.115   0.258
54827W        W23157  15.686  12.753   1.389
54828W        W23158  19.545  15.085  10.560
54829W        W23159  42.452   0.882  11.512
54830W        W23160  15.274  25.110  11.483
54831W        W23161   7.847  31.087  11.490
54832W        W23162  28.639  20.689   0.311
54833W        W23163  39.381  13.209   0.284
54834W        W23164  11.741  39.416   4.819
54835W        W23165   6.773  37.581  12.455
54836W        W23166   3.364  38.866  13.446
54837W        W23167   0.855   9.887  11.406
54838W        W23168  40.338   0.796   2.212
54839W        W23169   2.798  31.144   1.737
54840W        W23170  13.338  36.060   1.389
54841W        W23171  41.336   0.399   0.842
54842W        W23172  42.970  34.511   3.155
54843W        W23173   1.803  20.120  12.406
54844W        W23174   1.816  10.166   4.334
54845W        W23175  13.796   0.340  14.507
54846W        W23176   3.731  23.004  12.860
54847W        W23177  34.091  12.689  12.005
54848W        W23178   1.243   0.372   0.252
54849W        W23179  17.093   9.206   2.711
54850W        W23180  17.598  36.075  12.079
54851W        W23181  19.259  21.083  13.527
54852W        W23182  33.957  34.099  14.443
54853W        W23183  37.444  24.197   3.743
54854W        W23184   9.710  26.058   1.727
54855W        W23185  39.335   7.817   9.972
54856W        W23186  23.206  35.964  10.894
54857W        W23187  38.887  10.197  13.037
54858W        W23188  21.046  36.063   4.216
54859W        W23189  18.673  22.719   0.859
54860W        W23190   7.216  19.232   0.868
54861W        W23191  42.842  31.968  13.495
54862W        W23192  14.769  25.708  12.847
54863W        W23193  12.666  37.414  12.008
54864W        W23194   0.796  29.473   5.139
54865W        W23195  16.073  23.559  11.062
54866W        W23196  26.618  36.028  14.448
54867W        W23197  24.092  25.090  11.970
54868W        W23198  29.584  35.012   2.800
54869W        W23199   5.732   3.814  14.948
54870W        W23200  31.088   2.401  13.810
54871W        W23201   3.950  14.692   2.337
54872W        W23202  27.965   2.836   1.360
54873W        W23203  22.040  36.928   1.410
54874W        W23204  27.953  13.150   2.359
54875W        W23205  35.952  37.945   2.896
54876W        W23206  14.766  18.642   0.910
54877W        W23207  34.091  18.695  10.626
54878W        W23208   2.243  13.328   1.293
54879W        W23209   2.913  14.311  14.857
54880W        W23210  33.483  41.472  10.554
54881W        W23211  14.658   9.752   1.425
54882W        W23212  41.358  19.647   2.754
54883W        W23213   1.422  35.857  10.642
54884W        W23214   8.825  11.734  14.410
54885W        W23215  44.437  17.176  10.451
54886W        W23216  30.103  32.556   5.251
54887W        W23217  17.764  38.826  14.489
54888W        W23218   4.898  33.565  14.840
54889W        W23219  22.688  33.455   3.162
54890W        W23220  41.383  43.003  11.560
54891W        W23221   4.838  21.152   5.206
54892W        W23222  40.016  28.671   2.271
54893W        W23223  17.192  22.699  13.882
54894W        W23224  44.429  15.627   0.852
54895W        W23225  42.891  38.522   2.808
54896W        W23226  13.631  43.289  13.999
54897W        W23227  23.659  28.562   3.171
54898W        W23228  11.690  18.278  14.889
54899W        W23229  28.077  35.081  10.132
54900W        W23230   0.488  11.269   0.249
54901W        W23231  31.616  10.807   2.743
54902W        W23232  34.580   8.879  11.406
54903W        W23233  40.525  23.126   3.338
54904W        W23234  32.591  44.487  14.310
54905W        W23235  27.988  42.031   0.871
54906W        W23236  34.428   6.337  14.343
54907W        W23237  29.528  28.562  13.984
54908W        W23238  31.571   4.754  10.444
54909W        W23239   6.237  40.011   4.271
54910W        W23240  43.828  20.611  12.907
54911W        W23241  39.350  31.526   4.820
54912W        W23242  15.120   7.679  12.406
54913W        W23243  28.173  18.232  14.354
54914W        W23244  22.187  40.526   0.883
54915W        W23245   5.373  29.605   3.661
54916W        W23246  20.043  21.235   9.939
54917W        W23247  13.613  37.421  10.927
54918W        W23248  26.517  31.041  13.983
54919W        W23249  10.793  36.938  11.608
54920W        W23250  18.218  30.989  11.125
54921W        W23251  41.834  30.972   3.750
54922W        W23252  10.664  28.555   0.301
54923W        W23253  22.730  42.916   3.316
54924W        W23254  41.814  43.014   5.187
54925W        W23255  11.158  21.262  12.053
54926W        W23256  38.515  38.820   0.866
54927W        W23257  23.098  23.224   1.444
54928W        W23258  34.566   8.248  11.560
54929W        W23259  41.534  40.468   0.391
54930W        W23260   2.803  20.714  12.030
54931W        W23261  22.167  26.203   4.246
54932W        W23262   0.481  26.112  13.820
54933W        W23263   8.877  41.836   0.415
54934W        W23264  24.024  12.671   2.351
54935W        W23265  18.645  41.326   1.704
54936W        W23266  40.465  28.012   4.667
54937W        W23267  10.706   4.254  11.109
54938W        W23268  21.103  43.768  10.945
54939W        W23269   5.748  41.486  11.959
54940W        W23270  15.616   3.451   4.781
54941W        W23271  43.906  29.935  14.011
54942W        W23272  11.664  21.229   3.353
54943W        W23273  33.381  23.517  14.381
54944W        W23274   5.334  22.161  11.067
54945W        W23275  40.547  24.005   3.811
54946W        W23276  18.786  11.301  13.499
54947W        W23277  31.513  35.967  12.843
54948W        W23278  15.244  37.341  10.530
54949W        W23279  43.299  15.282   4.654
54950W        W23280  30.978  41.888   1.241
54951W        W23281  29.988   5.843  12.470
54952W        W23282  29.641  41.883  13.436
54953W        W23283  18.768  43.300   0.480
54954W        W23284  28.022   2.777  13.333
54955W        W23285  31.085  27.520   0.295
54956W        W23286  39.363  20.121   2.334
54957W        W23287  26.624  44.789   0.937
54958W        W23288  10.300  35.507  12.831
54959W        W23289  20.586  28.442   3.783
54960W        W23290  33.477  20.263  10.436
54961W        W23291   4.903  30.020  12.993
54962W        W23292   7.274  22.671   4.655
54963W        W23293  19.668  25.471   2.735
54964W        W23294  34.508  18.706  11.092
54965W        W23295   9.744  38.058  12.494
54966W        W23296  32.422  15.163   4.829
54967W        W23297  10.223  38.377   2.413
54968W        W23298  38.441  44.326  12.882
54969W        W23299  37.425  20.735   1.737
54970W        W23300  13.692  13.600  14.455
54971W        W23301   4.408  22.089  11.103
54972W        W23302  17.658  33.413  11.390
54973W        W23303  35.996  27.451  11.989
54974W        W23304   1.932  39.389   2.340
54975W        W23305  33.625  39.003   3.718
54976W        W23306   2.775   0.838  14.942
54977W        W23307  15.246  17.788   0.750
54978W        W23308  22.095  44.865  12.926
54979W        W23309  38.485  39.441   1.722
54980W        W23310  41.372  35.094  13.466
54981W        W23311  44.992  29.640   2.207
54982W        W23312  34.020  33.398  13.050
54983W        W23313   9.756  11.637  10.597
54984W        W23314   4.730   6.326  14.505
54985W        W23315  21.145  13.610   1.702
54986W        W23316  41.942  44.766   0.405
54987W        W23317   9.816   6.691  14.475
54988W        W23318  36.039  43.482  10.483
54989W        W23319   8.244  44.357   0.301
54990W        W23320  13.345  33.037   4.300
54991W        W23321  23.216  32.124   3.849
54992W        W23322  35.861  38.528   0.888
54993W        W23323  27.940  32.441   2.383
54994W        W23324   8.279   8.208  11.444
54995W        W23325   6.831  28.103   1.928
54996W        W23326  18.088  11.149  13.051
54997W        W23327  18.290  30.460   1.224
54998W        W23328  41.530  20.691   3.782
54999W        W23329  34.457  11.152  12.892
55000W        W23330  41.989  32.030   3.631
55001W        W23331   1.892  24.217  13.807
55002W        W23332  14.747  12.639  13.026
55003W        W23333  32.479  28.451   3.731
55004W        W23334  37.911  26.080  10.975
55005W        W23335  40.314  42.953   4.745
55006W        W23336   0.392  23.643   0.842
55007W        W23337   6.792  18.774   3.384
55008W        W23338  36.044  14.330  14.986
55009W        W23339  29.462  32.497   0.442
55010W        W23340  37.046   7.368  12.971
55011W        W23341  15.220  35.096   2.771
55012W        W23342  32.032   9.277   1.446
55013W        W23343  26.490  29.039   4.673
55014W        W23344   6.410  43.972  14.898
55015W        W23345  41.525  27.470  13.875
55016W        W23346  30.561  24.617   3.348
55017W        W23347   9.308  35.458  13.433
55018W        W23348   8.241  33.892  11.387
55019W        W23349  38.364  19.540  14.483
55020W        W23350  21.699   7.701  13.970
55021W        W23351  14.706  34.601   2.340
55022W        W23352   8.363  23.635   0.921
55023W        W23353   1.931  10.794  12.951
55024W        W23354   5.894  21.594   4.289
55025W        W23355  31.050  12.836   9.989
55026W        W23356  40.976  16.152   2.233
55027W        W23357  41.950  11.142  11.459
55028W        W23358  26.204  29.473  11.119
55029W        W23359   3.239  39.400  12.037
55030W        W23360  27.082  31.921  12.025
55031W        W23361  22.605   0.789   5.182
55032W        W23362  17.559  43.909  13.973
55033W        W23363  25.029  14.720   4.197
55034W        W23364  16.738   6.222   2.352
55035W        W23365  19.587   8.195   4.225
55036W        W23366  33.988  12.798   2.743
55037W        W23367  42.319  25.571   0.876
55038W        W23368  40.900   6.700  11.587
55039W        W23369  30.130  26.655  13.464
55040W        W23370  16.266  27.506  13.466
55041W        W23371  36.063   8.697   0.254
55042W        W23372  21.649  20.052   4.353
55043W        W23373  22.731  19.611   3.822
55044W        W23374   1.951  25.146  11.039
55045W        W23375  36.549  40.913   4.787
55046W        W23376  23.159  29.095   3.753
55047W        W23377   3.951  36.443   5.565
55048W        W23378  44.458  42.485  13.913
55049W        W23379  31.573  22.043  14.446
55050W        W23380  27.514   7.274   3.704
55051W        W23381  14.807  44.418  10.617
55052W        W23382  36.984  22.509   4.829
55053W        W23383  11.648  35.063  13.030
55054W        W23384  10.801   5.927   2.282
55055W        W23385  10.358  42.486   1.290
55056W        W23386  24.528  42.961  13.522
55057W        W23387  34.111  37.488   3.192
55058W        W23388  36.936  42.378  10.960
55059W        W23389   5.848  30.959  13.031
55060W        W23390  25.566  18.282  13.308
55061W        W23391  30.505  17.148   2.783
55062W        W23392  40.921  38.061  13.439
55063W        W23393  19.157   2.873   3.225
55064W        W23394  41.934  23.237  13.943
55065W        W23395  16.261  21.064   1.711
55066W        W23396   8.310  17.209  13.522
55067W        W23397  27.642  35.379  14.295
55068W        W23398  10.749  18.639  11.443
55069W        W23399  20.540   2.323  14.291
55070W        W23400   0.761  13.233  12.033
55071W        W23401   8.827  44.262   3.279
55072W        W23402   3.257  35.883  14.467
55073W        W23403  19.198   1.766   4.669
55074W        W23404   6.257  30.907  14.838
55075W        W23405  43.844  30.619   2.667
55076W        W23406  22.085  10.800   1.854
55077W        W23407  44.350  17.113  13.393
55078W        W23408   6.914  15.087   2.813
55079W        W23409  37.467  42.817  13.969
55080W        W23410  16.728  14.621   3.775
55081W        W23411   7.686  37.922   0.314
55082W        W23412  30.459   4.311   2.692
55083W        W23413  37.532  32.036   1.894
55084W        W23414  12.763   2.832   3.709
55085W        W23415   3.372  33.904   0.743
55086W        W23416  42.906  25.589   3.666
55087W        W23417   9.663  24.060  13.808
55088W        W23418  18.071   9.838   1.286
55089W        W23419   1.285  20.591   4.621
55090W        W23420  16.768  40.838   0.280
55091W        W23421  38.990  25.992  13.792
55092W        W23422   2.238   2.760   0.375
55093W        W23423  31.149  17.155  10.509
55094W        W23424  41.348  26.048  10.465
55095W        W23425  13.698  29.428   4.291
55096W        W23426  43.982  38.463  14.282
55097W        W23427  36.923  21.086  12.075
55098W        W23428  40.021   6.815  12.904
55099W        W23429  32.087  31.942   1.300
55100W        W23430   5.438  21.722   2.379
55101W        W23431   0.347  34.050  14.893
55102W        W23432  16.117  31.981  14.304
55103W        W23433  22.035  16.789  12.079
55104W        W23434  35.430   7.818  11.384
55105W        W23435  26.101   5.845   0.743
55106W        W23436  29.053  13.213   1.431
55107W        W23437  37.555  30.466  10.497
55108W        W23438  15.670  11.690  10.101
55109W        W23439  12.677  18.570  12.404
55110W        W23440   6.744  25.600  12.363
55111W        W23441  28.131  43.355  14.994
55112W        W23442  28.137  16.751  14.415
55113W        W23443  13.173  35.059   4.690
55114W        W23444  20.236   6.906  10.922
55115W        W23445  11.852  13.809  13.494
55116W        W23446  34.069   4.924   2.773
55117W        W23447  32.070  15.694  10.975
55118W        W23448  30.482   9.785   3.270
55119W        W23449  21.101  13.249   1.284
55120W        W23450   6.185  32.596  11.097
55121W        W23451   8.756  33.614   3.293
55122W        W23452  43.402  31.407  10.958
55123W        W23453   6.379  41.467  13.870
55124W        W23454  22.118  19.085   0.366
55125W        W23455  32.030  23.660  14.483
55126W        W23456   5.896   1.795   0.437
55127W        W23457  21.218  12.234   4.773
55128W        W23458  26.971   0.404  13.941
55129W        W23459  12.811  36.963  12.880
55130W        W23460   3.923   7.190   0.826
55131W        W23461  18.252  12.698  11.937
55132W        W23462   1.761  19.209   1.423
55133W        W23463  34.049   6.222   2.361
55134W        W23464  35.359  41.973  12.500
55135W        W23465  17.079  22.527   3.848
55136W        W23466   0.354  21.517  11.894
55137W        W23467  40.918  44.822   1.902
55138W        W23468   9.840  37.544  13.943
55139W        W23469   0.816  26.567  11.566
55140W        W23470   1.781   0.944  14.783
55141W        W23471  33.941  22.034  13.512
55142W        W23472  10.866  32.028  11.487
55143W        W23473  11.144  39.427  13.517
55144W        W23474   6.217  42.837   3.374
55145W        W23475   9.735  24.227   1.914
55146W        W23476   6.915  32.441   2.381
55147W        W23477  19.692  43.979  12.028
55148W        W23478  11.290  24.511   3.821
55149W        W23479  13.150  33.079   0.819
55150W        W23480  38.367   6.237   2.717
55151W        W23481  11.809   5.321  14.280
55152W        W23482  38.399   9.188   1.330
55153W        W23483   0.294  19.697  12.422
55154W        W23484  12.242  14.722  13.946
55155W        W23485  43.856  16.723   2.825
55156W        W23486  24.180  11.154   0.364
55157W        W23487  31.536  30.006  14.382
55158W        W23488   3.823   2.257   4.305
55159W        W23489   6.370  15.771  10.069
55160W        W23490   1.833  43.771   3.158
55161W        W23491   5.268  39.494  12.535
55162W        W23492   9.262  19.232  11.952
55163W        W23493  27.652  28.079   0.363
55164W        W23494  36.876  35.460   2.414
55165W        W23495  31.117  23.687   1.384
55166W        W23496  11.336  40.398  14.790
55167W        W23497  36.473  22.110   2.835
55168W        W23498  43.986  38.496  10.964
55169W        W23499  44.358  40.868   2.669
55170W        W23500  24.982  22.091   4.806
55171W        W23501  28.557  19.137   1.773
55172W        W23502   8.796  41.312   1.287
55173W        W23503  36.061  25.964   0.458
55174W        W23504  31.576   4.242  14.318
55175W        W23505  22.196  30.623   5.107
55176W        W23506   1.298  41.479  11.925
55177W        W23507  42.828  23.674  11.080
55178W        W23508  33.027  12.675  12.928
55179W        W23509  43.466  28.102   3.837
55180W        W23510  40.032  29.513  13.910
55181W        W23511  26.506  14.593  11.881
55182W        W23512  44.391  28.075   2.193
55183W        W23513  37.530  38.043   3.722
55184W        W23514  22.191  10.865  10.937
55185W        W23515  31.082   3.429   1.352
55186W        W23516  39.433  10.156  13.966
55187W        W23517   1.965  16.584  11.466
55188W        W23518  30.044  26.955   0.878
55189W        W23519  31.070  31.619   3.225
55190W        W23520  22.058  12.208   3.711
55191W        W23521   0.840  27.656   2.279
55192W        W23522  32.965  35.887   4.281
55193W        W23523  40.310   4.371   2.349
55194W        W23524  30.590   2.260  14.364
55195W        W23525  27.463  30.136  11.926
55196W        W23526  44.457  15.267  11.417
55197W        W23527  22.523  18.231  10.126
55198W        W23528  14.189   2.358   2.299
55199W        W23529  38.040  18.759  14.297
55200W        W23530  34.499   8.191   4.644
55201W        W23531   6.894  21.536  10.592
55202W        W23532  11.311  31.115   2.378
55203W        W23533   4.395  39.508   9.547
55204W        W23534   6.682  20.097  11.064
55205W        W23535  33.597   4.754  14.357
55206W        W23536  37.055  28.102  14.913
55207W        W23537  13.647  38.425   0.948
55208W        W23538  31.133  24.516   3.260
55209W        W23539  21.705  36.431  12.396
55210W        W23540  33.057   7.828  12.955
55211W        W23541  27.071   0.858   9.967
55212W        W23542   4.719  22.648  10.924
55213W        W23543  15.710  12.131   4.277
55214W        W23544  18.250  32.590  11.938
55215W        W23545   1.392  17.126   1.853
55216W        W23546  39.872  38.549  11.518
55217W        W23547  37.359  31.588  11.554
55218W        W23548  23.223   4.772   2.280
55219W        W23549   0.273  13.291   3.783
55220W        W23550  24.657   6.271   3.846
55221W        W23551  21.657  23.703   0.738
55222W        W23552  14.107   5.398   4.831
55223W        W23553  42.954  41.321  12.356
55224W        W23554  40.884   5.767  13.464
55225W        W23555  20.569   2.319   4.631
55226W        W23556  36.564  42.306   4.821
55227W        W23557  29.484  44.312   2.894
55228W        W23558  30.447   8.836  12.580
55229W        W23559  11.751  27.993  10.911
55230W        W23560  27.495  21.542   4.225
55231W        W23561  35.411   6.854   0.869
55232W        W23562  33.441  21.071   1.726
55233W        W23563  40.918  18.145  13.486
55234W        W23564  32.123  36.912   2.339
55235W        W23565  11.736  44.367  10.415
55236W        W23566  31.920  41.370  10.116
55237W        W23567  42.963  24.121   3.369
55238W        W23568  17.297  44.002  10.950
55239W        W23569  31.134  29.112   4.598
55240W        W23570  14.797  19.211  13.533
55241W        W23571  15.166  27.457   3.318
55242W        W23572  24.026   1.342   4.820
55243W        W23573  36.520  40.861  11.904
55244W        W23574  23.005  41.535   2.821
55245W        W23575  23.722   9.865  13.053
55246W        W23576   3.350  41.363  14.902
55247W        W23577  27.460   9.714   5.168
55248W        W23578  25.177  42.941   0.898
55249W        W23579  25.609  14.672   4.252
55250W        W23580  22.630   6.738  13.019
55251W        W23581   4.264   3.762  12.579
55252W        W23582  27.485  18.722  13.902
55253W        W23583  44.296  32.056   0.332
55254W        W23584  38.505   9.779  11.101
55255W        W23585  15.243  32.504  10.533
55256W        W23586  40.841  15.199   4.599
55257W        W23587  44.969  41.920   2.212
55258W        W23588  18.660  11.326   0.327
55259W        W23589  16.714  27.169  13.383
55260W        W23590  31.538   2.907   1.840
55261W        W23591  35.360  35.047  13.830
55262W        W23592  25.125  29.024   4.833
55263W        W23593  14.809  33.500   0.375
55264W        W23594  21.134   0.887   0.946
55265W        W23595  20.587  38.917  13.955
55266W        W23596  19.265   2.841  12.037
55267W        W23597   5.351  11.142  10.940
55268W        W23598  27.622  27.974  11.516
55269W        W23599  11.777  33.074   4.797
55270W        W23600   8.872   6.236   2.264
55271W        W23601  10.219  21.680   3.327
55272W        W23602   2.914  15.808  12.834
55273W        W23603   0.414  44.266   2.338
55274W        W23604  40.400  38.949  13.808
55275W        W23605  38.565   0.432  13.797
55276W        W23606  17.178   7.684   3.352
55277W        W23607  10.182  28.486  10.638
55278W        W23608  14.263  27.964   3.206
55279W        W23609  38.336  26.479  13.355
55280W        W23610  37.924   9.221  11.906
55281W        W23611  42.916  33.054  12.373
55282W        W23612  43.296   0.426  13.459
55283W        W23613  32.940  20.662   3.786
55284W        W23614  24.125  22.690  12.020
55285W        W23615  25.585  37.509   0.303
55286W        W23616  18.720  18.571   4.791
55287W        W23617  44.399   8.883  12.906
55288W        W23618   6.891  29.000  12.869
55289W        W23619  11.302  42.967   4.330
55290W        W23620  34.502   5.426   1.825
55291W        W23621  26.994  29.477  13.946
55292W        W23622   9.781   2.293   1.783
55293W        W23623  35.901  16.294  14.843
55294W        W23624  21.603  18.183   1.366
55295W        W23625  20.114  19.247   0.953
55296W        W23626  44.418   7.358   3.168
55297W        W23627   7.241  15.603   0.748
55298W        W23628   1.846   4.450   4.187
55299W        W23629  10.777  38.034   3.229
55300W        W23630  21.068  24.532   2.883
55301W        W23631  12.208  38.542  10.623
55302W        W23632  35.536  40.418   2.231
55303W        W23633   1.238   0.476  12.449
55304W        W23634  22.164   9.656   3.667
55305W        W23635  42.782  43.940   2.743
55306W        W23636  39.497  29.095  14.283
55307W        W23637  24.028  37.910  13.493
55308W        W23638  29.158  40.423   0.308
55309W        W23639   6.303  34.485  11.890
55310W        W23640  16.120  17.078   2.848
55311W        W23641  18.765  41.909  10.641
55312W        W23642   1.307   2.302  12.580
55313W        W23643  30.551   7.395   0.475
55314W        W23644   2.289  26.698   0.809
55315W        W23645   5.321  19.253  13.017
55316W        W23646  39.319  12.348  13.901
55317W        W23647  23.159   9.825   2.828
55318W        W23648   7.826  10.144   5.306
55319W        W23649   8.295  26.151   2.678
55320W        W23650  40.468  32.587   0.352
55321W        W23651   6.223  43.400  12.340
55322W        W23652  28.167  21.117  11.385
55323W        W23653  39.361   9.764  12.949
55324W        W23654   2.291   4.435  12.845
55325W        W23655   3.856  17.086  14.879
55326W        W23656  15.152   6.376  11.995
55327W        W23657  35.946  15.274   1.891
55328W        W23658   4.800  12.834  13.857
55329W        W23659  17.102  23.616  14.937
55330W        W23660   3.414  38.405   3.776
55331W        W23661  10.669  29.137  12.368
55332W        W23662   5.770  15.738   1.782
55333W        W23663   7.244  21.728  11.077
55334W        W23664  21.118  43.389  11.005
55335W        W23665  12.133  21.111   3.349
55336W        W23666  14.251  42.351   4.126
55337W        W23667   0.839  38.068  12.419
55338W        W23668  33.540  25.123  12.084
55339W        W23669  35.372  14.787   1.762
55340W        W23670  26.001   5.368   0.964
55341W        W23671   9.715  11.298   4.752
55342W        W23672  27.956  17.254   0.735
55343W        W23673  28.644  40.324  10.561
55344W        W23674  43.505  32.049  12.833
55345W        W23675  20.032  33.082   3.784
55346W        W23676   5.432  26.147   4.737
55347W        W23677  23.606   3.376  12.384
55348W        W23678  22.656  29.111  13.971
55349W        W23679  42.816  17.653  10.961
55350W        W23680  20.722   0.866  13.834
55351W        W23681   5.784  40.032   2.874
55352W        W23682  23.058  42.290  11.532
55353W        W23683  35.987   1.860  11.994
55354W        W23684  34.056  15.795  11.870
55355W        W23685  36.463  40.398  12.388
55356W        W23686  31.997  19.236  11.112
55357W        W23687  33.618  12.737   2.785
55358W        W23688  10.198  13.746  14.344
55359W        W23689  23.995  31.570   1.777
55360W        W23690  44.799  33.035  11.503
55361W        W23691   2.733  25.095  12.853
55362W        W23692   0.314   7.175  12.887
55363W        W23693  13.314   5.282   1.243
55364W        W23694  10.734  13.763  11.523
55365W        W23695  17.668  33.613   0.285
55366W        W23696   5.312  21.258  11.428
55367W        W23697  23.993  43.021   2.854
55368W        W23698  10.812  25.972   1.312
55369W        W23699  29.493   6.896   0.473
55370W        W23700  38.915  22.676   0.882
55371W        W23701  23.707  27.121  12.970
55372W        W23702  18.123   3.417   4.602
55373W        W23703  24.210  22.690  12.567
55374W        W23704  42.315   5.712   1.245
55375W        W23705  42.022  12.159   3.649
55376W        W23706  39.915   9.793  13.483
55377W        W23707  10.725   5.803  14.434
55378W        W23708   6.186  22.166  12.353
55379W        W23709  31.980  33.032   2.707
55380W        W23710  25.515  40.419  11.608
55381W        W23711  19.766  10.272   2.876
55382W        W23712  39.874  10.750   1.400
55383W        W23713  34.903   2.919   4.185
55384W        W23714   1.335  32.091  14.801
55385W        W23715  40.447   7.349   1.337
55386W        W23716  25.472  14.686   0.412
55387W        W23717  31.546  17.129  10.440
55388W        W23718   0.822  19.145  10.575
55389W        W23719   9.190   2.760  14.830
55390W        W23720   6.257  31.626  11.606
55391W        W23721   5.208  17.107   1.302
55392W        W23722   2.337   7.192  14.274
55393W        W23723  36.889  44.466   2.322
55394W        W23724  18.062  25.609   1.394
55395W        W23725   6.898  38.073  12.485
55396W        W23726   0.975  38.383  11.116
55397W        W23727  11.848  18.269   0.844
55398W        W23728  33.423  10.640  11.104
55399W        W23729  12.796  22.163   2.693
55400W        W23730  24.133  26.070  11.579
55401W        W23731   5.409  34.939  10.599
55402W        W23732  33.018  31.005  11.542
55403W        W23733  11.852   0.394   0.940
55404W        W23734  16.148  32.604   2.337
55405W        W23735  41.298  32.590   3.373
55406W        W23736  11.634  34.114  10.930
55407W        W23737  15.292  17.221   1.316
55408W        W23738  23.575   9.658   2.375
55409W        W23739  40.430  44.266   0.331
55410W        W23740  10.272  13.335  13.970
55411W        W23741   5.805  18.229   1.263
55412W        W23742   8.693  24.129  14.283
55413W        W23743  29.020  13.289   2.686
55414W        W23744   7.395  22.608   0.962
55415W        W23745   8.397   2.735   3.334
55416W        W23746  13.209  19.217  11.867
55417W        W23747  35.563  12.748  11.551
55418W        W23748  11.787  11.652  12.390
55419W        W23749  15.773  32.091  10.574
55420W        W23750  38.425  22.631  11.546
55421W        W23751   2.745  22.101   3.806
55422W        W23752  38.531   8.403  10.091
55423W        W23753  25.549   5.325   2.222
55424W        W23754  34.559  29.531  12.540
55425W        W23755  42.997  28.129  12.086
55426W        W23756  20.723  19.774  12.885
55427W        W23757  34.908   2.326  13.969
55428W        W23758  30.160  17.088  14.002
55429W        W23759  14.787  28.950   0.793
55430W        W23760   3.803  21.672  13.795
55431W        W23761  40.025  34.405  14.287
55432W        W23762  26.684  17.749  14.775
55433W        W23763  28.449  42.812   3.728
55434W        W23764  29.546  11.738  13.444
55435W        W23765  42.011  39.969  11.014
55436W        W23766   2.918  11.817  14.294
55437W        W23767   1.466  13.144   4.630
55438W        W23768  40.431  43.814   1.228
55439W        W23769  23.202   8.309  10.423
55440W        W23770  13.170   0.953  13.953
55441W        W23771  24.672  17.579   1.263
55442W        W23772  34.980  23.000  11.933
55443W        W23773  42.953  18.211  12.547
55444W        W23774  35.035  16.714   1.875
55445W        W23775  44.886  41.004  12.887
55446W        W23776  22.682  12.793  11.563
55447W        W23777  31.018  26.583  14.017
55448W        W23778  12.611  36.381  12.494
55449W        W23779  38.415  39.384  12.542
55450W        W23780  31.977  40.480  14.919
55451W        W23781   6.885  30.429   4.786
55452W        W23782  17.621  44.459  13.990
55453W        W23783   8.404  11.827  13.844
55454W        W23784  37.415   1.325   0.906
55455W        W23785  28.121  32.553   0.783
55456W        W23786   7.308  44.007  10.549
55457W        W23787   0.921  17.210   1.767
55458W        W23788   9.707   7.231   1.286
55459W        W23789  16.098  34.447   1.336
55460W        W23790  27.467  15.655   3.797
55461W        W23791   4.347  19.226  11.074
55462W        W23792  28.454  12.686   4.776
55463W        W23793  33.469   7.692   2.343
55464W        W23794  43.371  21.689   4.807
55465W        W23795  41.853   1.967  14.768
55466W        W23796  40.797   5.313  10.572
55467W        W23797  43.962  29.459  14.509
55468W        W23798  11.628   4.784  12.019
55469W        W23799  15.599   0.403   4.749
55470W        W23800   8.824  13.292  11.601
55471W        W23801  35.878  18.145   1.812
55472W        W23802   7.402  37.022   3.356
55473W        W23803  11.308  23.701  10.578
55474W        W23804   5.197  35.440  11.879
55475W        W23805  29.061  37.382   0.275
55476W        W23806  37.486  24.660  12.377
55477W        W23807  22.639  12.298   0.313
55478W        W23808  31.116  27.009  10.620
55479W        W23809   3.247  29.023   0.939
55480W        W23810  42.520   1.341   0.406
55481W        W23811  30.142   5.723  13.059
55482W        W23812   6.810  42.487  12.529
55483W        W23813  44.418  35.938   2.222
55484W        W23814  34.442  17.617   1.890
55485W        W23815  14.117   7.207   2.280
55486W        W23816  17.770  33.023   4.692
55487W        W23817  19.739  20.534   2.354
55488W        W23818  22.006  38.529  12.485
55489W        W23819  24.214  15.661  12.009
55490W        W23820  26.164   8.782   0.852
55491W        W23821  26.117  44.382  11.117
55492W        W23822   7.346  28.040   0.754
55493W        W23823  37.461  10.829  12.371
55494W        W23824  24.488  19.263  10.895
55495W        W23825  24.981  40.960   3.742
55496W        W23826  23.614  34.061  12.521
55497W        W23827  42.896  43.354  12.453
55498W        W23828  39.855   4.436   1.781
55499W        W23829  40.875  34.492   4.662
55500W        W23830  26.668  19.252   2.759
55501W        W23831   1.756  32.631   4.793
55502W        W23832   5.232  35.855   2.389
55503W        W23833   8.228  29.141   4.804
55504W        W23834  25.170   7.831  10.516
55505W        W23835  22.162  42.855   1.694
55506W        W23836   8.863  27.134  10.962
55507W        W23837  13.165   6.767  13.956
55508W        W23838  30.122  22.090  12.038
55509W        W23839  39.051  22.124   1.729
55510W        W23840   6.203   7.235  10.059
55511W        W23841  10.839  41.953   4.650
55512W        W23842  16.777  13.332   3.152
55513W        W23843   7.263   1.351  10.961
55514W        W23844  39.333  26.589  10.947
55515W        W23845  26.470   9.200  15.000
55516W        W23846  38.569   9.835  12.903
55517W        W23847  13.304   9.731   0.926
55518W        W23848  19.633  42.362  12.862
55519W        W23849  18.154  39.456   2.296
55520W        W23850  39.504   7.904   4.621
55521W        W23851  42.398  44.915   0.791
55522W        W23852  12.636  31.109   0.755
55523W        W23853   0.746  18.652   4.263
55524W        W23854  19.653  18.759  11.993
55525W        W23855  41.378  18.566  13.030
55526W        W23856  29.951  42.978  10.518
55527W        W23857   8.755  23.156  11.493
55528W        W23858   1.872   5.405  12.032
55529W        W23859  44.009  13.112  14.419
55530W        W23860  11.848  27.081   4.354
55531W        W23861   9.807  42.486   1.298
55532W        W23862   5.312  23.635   0.404
55533W        W23863   9.176  36.934   1.821
55534W        W23864  44.298   4.413   4.196
55535W        W23865  22.685  42.925   5.260
55536W        W23866  27.555  10.269   4.245
55537W        W23867  27.173  15.128   4.115
55538W        W23868  13.110   1.832  12.415
55539W        W23869  32.919   0.379  11.896
55540W        W23870  27.667   3.852   0.745
55541W        W23871   6.720   0.359   3.180
55542W        W23872  29.978  38.467  11.477
55543W        W23873  29.530   9.348   4.833
55544W        W23874  26.975  35.557  11.455
55545W        W23875   7.879  10.643   3.243
55546W        W23876   0.756  25.476   0.947
55547W        W23877  15.667  38.820   0.278
55548W        W23878  35.584  35.872  13.828
55549W        W23879  36.969  25.977  12.991
55550W        W23880  39.850  24.677  10.921
55551W        W23881  40.893   3.712  11.926
55552W        W23882   6.387  39.337   2.338
55553W        W23883  36.386  37.998  13.368
55554W        W23884   1.475  27.070  14.349
55555W        W23885  28.172  25.489   4.159
55556W        W23886  12.668  33.625   3.812
55557W        W23887  12.332  44.764   3.663
55558W        W23888  17.223  35.867  14.876
55559W        W23889  10.834  16.110   3.827
55560W        W23890  30.607  20.148   4.178
55561W        W23891  39.832  43.810  12.857
55562W        W23892  31.013  17.141   0.446
55563W        W23893  43.282  20.124  13.489
55564W        W23894  30.921  34.882  10.641
55565W        W23895  38.931  18.084  12.957
55566W        W23896  13.820  37.470  12.482
55567W        W23897  37.558  20.709   0.319
55568W        W23898  19.735  41.510  14.357
55569W        W23899  32.053  20.123   2.388
55570W        W23900  13.291  15.805   1.747
55571W        W23901   5.836  41.468  11.474
55572W        W23902  38.964  38.338  13.920
55573W        W23903   3.329  31.552  14.364
55574W        W23904  38.456   7.289  13.048
55575W        W23905  10.844   6.305  10.042
55576W        W23906  43.367  27.162   4.240
55577W        W23907   6.746  36.090   0.849
55578W        W23908  22.615   8.192   2.257
55579W        W23909  17.282   9.354  10.146
55580W        W23910  39.395  37.408   0.330
55581W        W23911  30.989   5.268   1.930
55582W        W23912  19.073  14.796  11.059
55583W        W23913  14.756  42.821  14.440
55584W        W23914   8.701  38.330  10.988
55585W        W23915  15.228  32.540   3.324
55586W        W23916  20.618  36.028  10.932
55587W        W23917  29.921  27.098   2.807
55588W        W23918  44.371  40.032   3.662
55589W        W23919   4.891  42.383  13.874
55590W        W23920  41.935  23.647  12.538
55591W        W23921  19.104  29.022   2.242
55592W        W23922  11.362  20.620  11.504
55593W        W23923  23.626  27.961  13.887
55594W        W23924  33.012  38.824  14.487
55595W        W23925  19.667  29.580  10.949
55596W        W23926  40.954   5.261   2.256
55597W        W23927  35.990  35.855   4.234
55598W        W23928  29.594  11.131   1.342
55599W        W23929  35.071   1.933  14.806
55600W        W23930  20.617  16.753  14.802
55601W        W23931  39.534  41.350   4.760
55602W        W23932  18.094  35.508  12.975
55603W        W23933  43.941  16.108   2.277
55604W        W23934   4.320  22.645   4.129
55605W        W23935  36.891  28.681   2.679
55606W        W23936  19.083  40.459   0.789
55607W        W23937   1.306  13.308  10.982
55608W        W23938  26.497  34.577  12.899
55609W        W23939  36.514   7.255   4.177
55610W        W23940  24.660  13.143  14.294
55611W        W23941  13.351  19.213   2.268
55612W        W23942  12.644   4.901   0.477
55613W        W23943   5.265  24.641   1.325
55614W        W23944  32.589  42.989   4.633
55615W        W23945  26.577  27.527   0.814
55616W        W23946  12.797  39.384   4.280
55617W        W23947  24.600  10.311  11.450
55618W        W23948  24.494  12.150   2.213
55619W        W23949  43.475  35.416   3.261
55620W        W23950  19.728  42.837   3.684
55621W        W23951  24.008  23.198  11.952
55622W        W23952  17.768  40.511   1.243
55623W        W23953  16.182   2.334  11.407
55624W        W23954   1.372  36.438   4.289
55625W        W23955  13.777  43.319   0.301
55626W        W23956  41.842   8.276   1.450
55627W        W23957  21.027  36.506  11.050
55628W        W23958   3.286  36.410   4.650
55629W        W23959  17.076   9.193   3.853
55630W        W23960  30.600  41.016  14.431
55631W        W23961  44.858  32.544  14.774
55632W        W23962   2.427   7.704  12.455
55633W        W23963   7.218   8.191   2.244
55634W        W23964   5.687  14.158   1.918
55635W        W23965   6.197   7.849   3.270
55636W        W23966   4.863   7.739   1.735
55637W        W23967  44.868   9.744  11.537
55638W        W23968  10.845  22.688   4.740
55639W        W23969  20.259  19.201   5.277
55640W        W23970  44.411  25.714   1.230
55641W        W23971  32.120   5.299  13.548
55642W        W23972  16.131  39.037  12.373
55643W        W23973  22.090   1.290  12.366
55644W        W23974  29.155  31.471   9.973
55645W        W23975   2.879  32.630   1.722
55646W        W23976  25.208  22.137  14.965
55647W        W23977  34.567  31.466   2.767
55648W        W23978  23.587  44.427  11.099
55649W        W23979  18.235  15.122  13.343
55650W        W23980  40.892  40.909   1.359
55651W        W23981   3.828  13.671  14.418
55652W        W23982  13.812  42.449   0.857
55653W        W23983  21.074   5.793   5.203
55654W        W23984  25.612  30.102  13.521
55655W        W23985   0.769  19.540  11.539
55656W        W23986  33.073  19.226  12.349
55657W        W23987  37.521   5.424   3.864
55658W        W23988  28.069  37.495   4.329
55659W        W23989   0.441  23.075  13.448
55660W        W23990  21.034  11.211  12.403
55661W        W23991  34.958  13.182   3.825
55662W        W23992  39.324  35.414  12.392
55663W        W23993   3.888  16.743  11.038
55664W        W23994   6.352  10.254   3.813
55665W        W23995  25.489  30.076   2.887
55666W        W23996   8.812  17.764  12.018
55667W        W23997  37.338  40.451  14.365
55668W        W23998  13.343  14.606  13.859
55669W        W23999  39.429  19.042  10.504
55670W        W24000  14.638   0.352   3.179
55671W        W24001  15.723  35.089  12.397
55672W        W24002  43.915  25.636   1.731
55673W        W24003  39.430  22.550  12.936
55674W        W24004   9.286   6.894  14.949
55675W        W24005   2.286  36.462   9.490
55676W        W24006  21.127  39.022   4.825
55677W        W24007  40.027  15.780   4.117
55678W        W24008  16.220  17.688   4.213
55679W        W24009   9.198  23.093  13.877
55680W        W24010  24.032  27.034   1.342
55681W        W24011  22.150  40.491  13.330
55682W        W24012  20.106  16.766   2.811
55683W        W24013   2.419  29.590   4.141
55684W        W24014  25.504   6.427  13.869
55685W        W24015  32.433  20.253  11.081
55686W        W24016  15.181  20.580   0.773
55687W        W24017   8.319  12.650   1.919
55688W        W24018  36.495  16.671  13.357
55689W        W24019  31.469  38.388   1.701
55690W        W24020  14.740  32.548   1.886
55691W        W24021  35.996  34.603  11.913
55692W        W24022  22.506  42.833  10.956
55693W        W24023   2.373   7.259  10.435
55694W        W24024  20.631  14.651  13.540
55695W        W24025  11.635  42.867  11.054
55696W        W24026  43.008  17.587   2.385
55697W        W24027  40.014  13.692  14.288
55698W        W24028   7.298  26.559   3.370
55699W        W24029   9.676  26.160  11.952
55700W        W24030   3.256  29.927   2.208
55701W        W24031  41.519  18.650   3.782
55702W        W24032  25.535  24.540   0.293
55703W        W24033  41.022   2.348   2.752
55704W        W24034   2.743  34.569   1.727
55705W        W24035  26.552  12.184   4.760
55706W        W24036  38.069  18.565   4.205
55707W        W24037  15.142  23.658   2.309
55708W        W24038   6.361  16.776   2.202
55709W        W24039   4.209   9.249  14.434
55710W        W24040  11.281  25.594   0.890
55711W        W24041  23.535  42.866  11.997
55712W        W24042   4.266  11.844   0.247
55713W        W24043  42.995   4.444   3.715
55714W        W24044   1.760  20.705   1.902
55715W        W24045  33.064  22.608   5.214
55716W        W24046  20.603   0.284  13.463
55717W        W24047  29.924  37.513   4.222
55718W        W24048  25.962  12.786  11.916
55719W        W24049  33.028   2.435   3.357
55720W        W24050  37.489  25.546  11.460
55721W        W24051  15.701  23.192  14.820
55722W        W24052   5.238  39.991  14.337
55723W        W24053  12.192   3.220  12.404
55724W        W24054  27.482  27.583   4.624
55725W        W24055  35.931  30.968   0.404
55726W        W24056  42.476  22.568  11.587
55727W        W24057   5.234  38.374   1.835
55728W        W24058  33.953   4.788  10.426
55729W        W24059  15.764  39.973  14.463
55730W        W24060  28.095  40.842   0.366
55731W        W24061  21.552  32.438   0.763
55732W        W24062  10.148   6.185  11.551
55733W        W24063  20.581   8.206   4.707
55734W        W24064   2.466   1.949   4.241
55735W        W24065  18.662  33.502   0.883
55736W        W24066  17.120   2.917  11.549
55737W        W24067   1.745  41.969   5.226
55738W        W24068   5.757  29.978  10.407
55739W        W24069  38.885  30.958   0.931
55740W        W24070  44.996  16.264   3.683
55741W        W24071  16.271  14.305  12.949
55742W        W24072  22.228  14.100  14.799
55743W        W24073   4.213   3.417   1.704
55744W        W24074  10.351   4.204  11.055
55745W        W24075   4.811  36.568   2.887
55746W        W24076  10.766  30.921  11.455
55747W        W24077   1.746  20.158  13.863
55748W        W24078  32.888  27.089  11.974
55749W        W24079  12.624   7.752  11.575
55750W        W24080  33.966  22.724  13.810
55751W        W24081  44.789   2.852  11.906
55752W        W24082  16.586   2.893   3.797
55753W        W24083   6.876  43.297   3.180
55754W        W24084  36.439   4.262  11.042
55755W        W24085  37.499  35.418  10.557
55756W        W24086   4.777   2.248   0.353
55757W        W24087  13.153  13.716   1.381
55758W        W24088  37.897   9.327   1.924
55759W        W24089  29.989   8.283   0.290
55760W        W24090  28.678  15.189  12.078
55761W        W24091  32.601  26.570  14.347
55762W        W24092  44.899  43.326   3.196
55763W        W24093  13.712  26.582  12.519
55764W        W24094  40.313   5.397  12.448
55765W        W24095  26.188  29.597   0.277
55766W        W24096   5.772  23.167   0.770
55767W        W24097  11.252   3.779   2.699
55768W        W24098  11.769  40.424   2.895
55769W        W24099   4.828  25.686  11.974
55770W        W24100  43.296  30.921   2.233
55771W        W24101  12.231  27.518  13.514
55772W        W24102  35.539  11.220   4.306
55773W        W24103  20.716  28.437   0.262
55774W        W24104   5.256  28.979   5.298
55775W        W24105   9.805  11.768  12.550
55776W        W24106  38.905   0.958   4.632
55777W        W24107   8.797  36.481  13.421
55778W        W24108   2.782  37.522   2.312
55779W        W24109  22.618  33.613   0.243
55780W        W24110  11.740  28.501  13.307
55781W        W24111  42.463  12.308   1.877
55782W        W24112  19.691  39.943   0.736
55783W        W24113  25.076  15.150  10.409
55784W        W24114  23.667  19.153   0.374
55785W        W24115  35.937   7.675   2.278
55786W        W24116  17.193   9.757  11.092
55787W        W24117  30.990  36.394  10.414
55788W        W24118   7.745  24.004   4.784
55789W        W24119  39.486  30.545   0.343
55790W        W24120  17.564   0.386   2.353
55791W        W24121  36.087  13.608   3.812
55792W        W24122  24.603  44.758   0.741
55793W        W24123  40.935  27.524   2.722
55794W        W24124  42.502  28.498  13.011
55795W        W24125   5.833  31.537  13.435
55796W        W24126  36.491  33.050  13.318
55797W        W24127  26.485  15.774  10.936
55798W        W24128  41.882  28.555   1.918
55799W        W24129  22.148  19.757  13.506
55800W        W24130  34.517  44.809  14.813
55801W        W24131  29.442  43.515  11.474
55802W        W24132  28.141  29.938   1.247
55803W        W24133  30.545  28.077   4.677
55804W        W24134  20.227  27.486   1.912
55805W        W24135  23.034  15.739  14.838
55806W        W24136   1.392  44.823   4.201
55807W        W24137  13.151   5.878   3.159
55808W        W24138   7.831  20.683   2.807
55809W        W24139  16.727  22.229  14.027
55810W        W24140  22.730  29.522  12.086
55811W        W24141  30.437  43.325  14.968
55812W        W24142  37.904  38.070   2.249
55813W        W24143   8.357  26.545   3.290
55814W        W24144  12.748  30.471  10.508
55815W        W24145  42.910  14.691   3.250
55816W        W24146  30.509  22.525  12.924
55817W        W24147  30.998  12.198   0.253
55818W        W24148   5.235  18.184   1.760
55819W        W24149  38.372  17.584  12.543
55820W        W24150  13.791  37.937  11.549
55821W        W24151  20.044  11.663  11.412
55822W        W24152  21.262  23.612  14.928
55823W        W24153   7.184  15.633  11.906
55824W        W24154   4.372  24.518  10.551
55825W        W24155  18.167  27.557   3.161
55826W        W24156   3.459  29.636   4.116
55827W        W24157  23.066  13.698  10.447
55828W        W24158  26.633  30.036  12.564
55829W        W24159  24.721  19.124   4.287
55830W        W24160  23.190  44.352  11.930
55831W        W24161  23.191   0.901   1.278
55832W        W24162  17.207  36.385  12.450
55833W        W24163   5.689  11.836   0.395
55834W        W24164  23.043  25.207  11.934
55835W        W24165  22.007  18.164  11.915
55836W        W24166   7.389  37.503   2.210
55837W        W24167  37.408  43.320   2.399
55838W        W24168   4.227  18.709  11.385
55839W        W24169   0.266  28.643  13.057
55840W        W24170  16.275  37.025   3.350
55841W        W24171  37.901   6.428  10.024
55842W        W24172  29.029  42.429   1.759
55843W        W24173  41.006  26.147   2.725
55844W        W24174  40.358  10.758  10.940
55845W        W24175  39.838  37.831   2.882
55846W        W24176  40.404  27.137  12.081
55847W        W24177  12.766  29.620   1.736
55848W        W24178   4.396   8.816   3.648
55849W        W24179  42.418  16.149  13.494
55850W        W24180  43.304  35.473   2.885
55851W        W24181  19.099  42.775   3.254
55852W        W24182   1.426  15.233   1.430
55853W        W24183   1.297  22.092  14.759
55854W        W24184  42.820  10.732  14.867
55855W        W24185   3.891  13.709   2.396
55856W        W24186  34.942  28.151  14.909
55857W        W24187   0.872   2.380   2.396
55858W        W24188   7.700  19.091  12.969
55859W        W24189   9.645  27.025   2.341
55860W        W24190  34.370  18.714   4.184
55861W        W24191   2.241  17.255  12.845
55862W        W24192   2.314   4.835   1.319
55863W        W24193  15.643  16.682  10.127
55864W        W24194  21.255  15.169   4.653
55865W        W24195  20.626  31.072  12.856
55866W        W24196  17.287   4.712   3.820
55867W        W24197  13.176  16.666  14.989
55868W        W24198  30.949  36.903   2.802
55869W        W24199  32.423  23.197   0.967
55870W        W24200   3.330  39.390  11.592
55871W        W24201  33.409  36.523   2.193
55872W        W24202  19.694  44.843   3.373
55873W        W24203  29.116   3.950  14.509
55874W        W24204  28.077  40.000   1.763
55875W        W24205  31.474  25.507   1.431
55876W        W24206  32.053  34.009  11.476
55877W        W24207   1.293  21.730   2.900
55878W        W24208  40.527   4.421   0.248
55879W        W24209  39.331  27.116   2.720
55880W        W24210   1.425   2.400   2.743
55881W        W24211  10.299  19.220  14.441
55882W        W24212  33.549   6.215   4.136
55883W        W24213  33.906  30.085  12.901
55884W        W24214  22.608  17.145   0.426
55885W        W24215  38.526  19.590   1.913
55886W        W24216   3.736  38.376   0.900
55887W        W24217   9.165   7.838  13.885
55888W        W24218  29.612  24.705  13.943
55889W        W24219  35.532  30.157  13.040
55890W        W24220  30.034  12.241   4.679
55891W        W24221   6.735  13.279  13.423
55892W        W24222  30.454  12.775  12.856
55893W        W24223  12.282  34.584   4.236
55894W        W24224  36.889  42.434  13.872
55895W        W24225  34.994   5.354  10.579
55896W        W24226   9.337   5.279   3.665
55897W        W24227  11.136   5.778  13.001
55898W        W24228  28.179  43.799  10.447
55899W        W24229  31.903  28.615  11.009
55900W        W24230  32.402   0.928  10.591
55901W        W24231  19.768  22.212   0.463
55902W        W24232   7.868  29.578  12.828
55903W        W24233  10.273  35.964  14.924
55904W        W24234   6.714  17.073   4.181
55905W        W24235  38.521   0.477   4.346
55906W        W24236  22.249  21.263  14.412
55907W        W24237   5.373  36.349   3.715
55908W        W24238  11.312  43.910  14.807
55909W        W24239  41.413  19.225  11.859
55910W        W24240   4.289  43.803   1.763
55911W        W24241  29.519  35.394  14.024
55912W        W24242   0.396  12.324   1.833
55913W        W24243  10.276  34.516   1.407
55914W        W24244  36.467  43.976   4.237
55915W        W24245   1.479  34.979   2.886
55916W        W24246  30.955  11.732  10.891
55917W        W24247  25.205  33.619  10.457
55918W        W24248  39.417   1.742  11.917
55919W        W24249  35.110  24.074  11.373
55920W        W24250  14.111   1.822  12.904
55921W        W24251  24.206  41.345   5.186
55922W        W24252  11.690  30.556  10.016
55923W        W24253  10.649  29.131  13.971
55924W        W24254  43.940  29.098  12.405
55925W        W24255  41.996   7.415   2.190
55926W        W24256  10.371  42.026  14.465
55927W        W24257  23.513  15.701   2.769
55928W        W24258  29.665  16.798   3.233
55929W        W24259   6.280  37.001   0.393
55930W        W24260  36.402   3.824   1.285
55931W        W24261  20.084  28.554  12.986
55932W        W24262  25.106   6.864   1.748
55933W        W24263  14.730  32.548  12.976
55934W        W24264   7.302  20.148  14.470
55935W        W24265  32.997  29.945   3.212
55936W        W24266  17.138  31.038  14.913
55937W        W24267  36.054  10.847  13.965
55938W        W24268  40.548  37.948  13.928
55939W        W24269  26.122  30.547  13.062
55940W        W24270  44.792  40.477   2.281
55941W        W24271  39.921  13.608  11.569
55942W        W24272  21.086  33.562   0.936
55943W        W24273   4.379  41.875   0.847
55944W        W24274  24.128  17.136   4.655
55945W        W24275  30.433  16.167   3.215
55946W        W24276   5.862  15.728   1.310
55947W        W24277  19.601  44.372  12.434
55948W        W24278  12.128  38.408  11.872
55949W        W24279   9.865  30.026   3.364
55950W        W24280  43.410  23.240  12.039
55951W        W24281   5.385  11.309   1.756
55952W        W24282  25.018  23.054  14.454
55953W        W24283  14.250  35.952   0.961
55954W        W24284  27.949  19.212  12.560
55955W        W24285  15.661  39.522   3.286
55956W        W24286   6.781   4.443   4.719
55957W        W24287  38.387  33.089  10.895
55958W        W24288  42.835  37.361   1.381
55959W        W24289  38.024   6.284   1.900
55960W        W24290  32.117  25.003  10.636
55961W        W24291  19.256  36.589  14.393
55962W        W24292  30.505  28.091   1.918
55963W        W24293  10.749  33.969  12.032
55964W        W24294   0.270   9.739   4.756
55965W        W24295  40.438   0.379  10.415
55966W        W24296  27.619  33.428  10.153
55967W        W24297   7.789  24.175  13.982
55968W        W24298   2.385  29.090   0.481
55969W        W24299  18.121  11.726   4.719
55970W        W24300  12.149   2.771   4.744
55971W        W24301  12.629  36.080   0.895
55972W        W24302  31.052  11.254   0.400
55973W        W24303  36.387  43.937  10.551
55974W        W24304  31.982  10.325   0.420
55975W        W24305  43.329   6.421  14.440
55976W        W24306  13.303  29.593  11.914
55977W        W24307  14.111  25.675   2.324
55978W        W24308  37.360  15.781   0.243
55979W        W24309  19.179  37.867   4.232
55980W        W24310  28.610  23.105  14.354
55981W        W24311  13.219   5.328   0.811
55982W        W24312  13.307  28.537   1.845
55983W        W24313   4.852  37.523  11.118
55984W        W24314   9.178   4.412   4.136
55985W        W24315  24.015  41.327  13.861
55986W        W24316  40.897  42.816  11.485
55987W        W24317  26.575  27.080  13.960
55988W        W24318  28.524   8.293   2.286
55989W        W24319  33.445  36.541  10.992
55990W        W24320  19.066  17.763   1.721
55991W        W24321   4.832  33.876  14.417
55992W        W24322  12.790   5.907   2.329
55993W        W24323   8.818  21.666  10.412
55994W        W24324  39.056   5.811   9.477
55995W        W24325  13.219   5.789  12.032
55996W        W24326  22.096   8.202   1.701
55997W        W24327  23.643   8.739  14.324
55998W        W24328  18.564   1.940  10.544
55999W        W24329  12.286  24.519  10.422
56000W        W24330   3.404  31.486   1.338
56001W        W24331  43.323  41.800  10.488
56002W        W24332  24.578  44.949   2.378
56003W        W24333   6.344   7.710   1.229
56004W        W24334  33.567  42.388  11.549
56005W        W24335  34.868  37.508   2.674
56006W        W24336  36.862  19.078   3.157
56007W        W24337  24.681  38.452   1.900
56008W        W24338  19.177  20.588   2.677
56009W        W24339  42.983   1.888   2.863
56010W        W24340  37.450   1.903   0.730
56011W        W24341  31.987   3.753   2.744
56012W        W24342   2.432  13.229  11.428
56013W        W24343  34.389   9.813  10.939
56014W        W24344   3.226  32.534  12.388
56015W        W24345   9.392  36.012   5.277
56016W        W24346  39.518  31.022  14.812
56017W        W24347  40.360  33.615  10.607
56018W        W24348  36.029  20.658   3.369
56019W        W24349  42.346  34.447   3.282
56020W        W24350   9.750   4.424   1.418
56021W        W24351  20.035  42.779   4.642
56022W        W24352  12.777  27.473  11.466
56023W        W24353  44.334  21.117   3.683
56024W        W24354  13.635  15.688  10.578
56025W        W24355  19.248  44.366   3.318
56026W        W24356  36.447   2.355  11.867
56027W        W24357  35.592   5.348   4.745
56028W        W24358  44.889  32.415  13.531
56029W        W24359  22.539  40.485  11.548
56030W        W24360  17.589  41.039   1.890
56031W        W24361  25.035  15.695  12.932
56032W        W24362   4.748  11.751  11.458
56033W        W24363  42.020   0.842  13.858
56034W        W24364  17.200  41.815  10.521
56035W        W24365  35.465   6.331  11.458
56036W        W24366  15.288   6.282  11.104
56037W        W24367  28.496  36.418  14.419
56038W        W24368   9.317   5.912   1.368
56039W        W24369  24.187  43.918   3.661
56040W        W24370   9.755  43.463   2.227
56041W        W24371  25.642   2.733   3.774
56042W        W24372  22.710  24.574  10.583
56043W        W24373   0.406   9.816   3.178
56044W        W24374   1.253  14.591   1.784
56045W        W24375  41.877  30.531  11.879
56046W        W24376   1.328  21.573  11.438
56047W        W24377  31.051  22.096  12.991
56048W        W24378  42.460  35.104  13.316
56049W        W24379  22.648  24.658  14.032
56050W        W24380  39.516  19.739  11.523
56051W        W24381  43.345  11.762  11.027
56052W        W24382   8.173   8.843  14.819
56053W        W24383  28.491  10.304   3.209
56054W        W24384  19.743  11.234  14.884
56055W        W24385  29.464  44.991  14.287
56056W        W24386   0.410  20.695   3.278
56057W        W24387  41.846  16.096  13.906
56058W        W24388   2.774  39.521  14.410
56059W        W24389   7.815   4.296   0.392
56060W        W24390  27.074  36.969   3.380
56061W        W24391  34.419   9.789  12.848
56062W        W24392  23.704  30.530  12.433
56063W        W24393   2.323  37.562   2.405
56064W        W24394  12.770  31.555  11.057
56065W        W24395  38.013  29.072   4.692
56066W        W24396  17.256  10.292  12.551
56067W        W24397  26.619  44.475  13.971
56068W        W24398   0.889  37.853   0.803
56069W        W24399  41.043  31.586   4.697
56070W        W24400  20.033  32.073   0.850
56071W        W24401  40.418  12.158  11.906
56072W        W24402  43.802  20.562  12.356
56073W        W24403  42.800   5.383   0.322
56074W        W24404  22.195   3.944  12.991
56075W        W24405  12.295  32.950   1.329
56076W        W24406  30.969   6.252  13.527
56077W        W24407  37.081  32.467   2.709
56078W        W24408   8.192  31.460   0.379
56079W        W24409  37.954  34.515   1.896
56080W        W24410   9.246  29.455   2.207
56081W        W24411   9.739  21.755  12.006
56082W        W24412  31.473  15.699  13.961
56083W        W24413  13.265   2.354  13.845
56084W        W24414  17.640  20.222  12.441
56085W        W24415  36.988  21.134   3.858
56086W        W24416   6.410  42.785   3.680
56087W        W24417  19.616  22.143   2.711
56088W        W24418  31.495  15.126  11.952
56089W        W24419  23.057  33.988  14.928
56090W        W24420  43.870  17.633  12.508
56091W        W24421  11.371   2.848   0.471
56092W        W24422  26.196   7.227  13.817
56093W        W24423  22.148  38.548   4.152
56094W        W24424  30.109   5.826  14.014
56095W        W24425  25.043  11.819   2.213
56096W        W24426   8.810  43.936  13.335
56097W        W24427  37.514  19.205   0.414
56098W        W24428  22.586  39.830  14.454
56099W        W24429  13.268  34.457   1.267
56100W        W24430   7.908  30.482   2.223
56101W        W24431  19.215  18.681   3.272
56102W        W24432  26.033  37.506  14.998
56103W        W24433   2.877  15.196   2.301
56104W        W24434  18.590  24.074  12.466
56105W        W24435  20.056  40.913  14.346
56106W        W24436  41.318   6.355  12.859
56107W        W24437  16.803  10.267   2.799
56108W        W24438  16.145  32.615  10.497
56109W        W24439   4.806  38.867  12.512
56110W        W24440  43.790  37.864  10.593
56111W        W24441  29.140  40.991   2.881
56112W        W24442  34.407   3.410   3.751
56113W        W24443   4.911  27.993   3.863
56114W        W24444  29.484  25.027  12.932
56115W        W24445   3.309  42.982  12.031
56116W        W24446  24.225  23.713   0.301
56117W        W24447  13.671   9.822   1.792
56118W        W24448  17.650  42.909   1.254
56119W        W24449   9.220   2.271  14.926
56120W        W24450  36.366  16.090  12.998
56121W        W24451  25.688  32.567  13.993
56122W        W24452  19.762  38.331  12.533
56123W        W24453  20.114   5.342   3.722
56124W        W24454   7.793  39.363  13.905
56125W        W24455   4.712   1.975  12.049
56126W        W24456  11.274  22.571   2.367
56127W        W24457   6.842  18.746   4.793
56128W        W24458  23.235  40.407   1.240
56129W        W24459  36.506  10.866  13.454
56130W        W24460  27.135   4.419   4.626
56131W        W24461  40.936  17.629  12.413
56132W        W24462  30.963  43.957   1.438
56133W        W24463  13.121  35.415  11.434
56134W        W24464  31.413  35.485   0.749
56135W        W24465  27.546  30.920   5.647
56136W        W24466  14.286  29.576  14.810
56137W        W24467  42.335  14.095   3.783
56138W        W24468  31.502  19.704  11.106
56139W        W24469  22.165   1.732  14.933
56140W        W24470   0.263   8.185  14.485
56141W        W24471  39.487  28.664  12.048
56142W        W24472  12.786  17.307  13.997
56143W        W24473  16.672  30.080  12.500
56144W        W24474   5.239  35.901   0.360
56145W        W24475  27.620  22.214  10.542
56146W        W24476   6.830  15.212   3.686
56147W        W24477  43.883  20.055  14.456
56148W        W24478  10.264  19.105   5.118
56149W        W24479   0.456  34.563   0.884
56150W        W24480  15.613  11.658  11.457
56151W        W24481   6.859  37.457  13.504
56152W        W24482  30.101  10.275  13.542
56153W        W24483  13.644  35.439   3.324
56154W        W24484  40.333  19.144  14.020
56155W        W24485   3.444   0.295   3.227
56156W        W24486  41.961  39.839   1.227
56157W        W24487  34.497  18.678  14.378
56158W        W24488   3.215  34.426  11.545
56159W        W24489  29.922  43.406  10.503
56160W        W24490  10.845  40.426  11.374
56161W        W24491  10.863  41.471   1.849
56162W        W24492  35.909   7.368   4.251
56163W        W24493   7.815  13.623  12.022
56164W        W24494  38.378   0.835  12.061
56165W        W24495  34.112   8.367  11.496
56166W        W24496  26.634   3.916  12.852
56167W        W24497  28.547  33.050  14.486
56168W        W24498  15.581  36.417  10.911
56169W        W24499  20.249  31.629  11.526
56170W        W24500   0.886  39.994   1.324
56171W        W24501  10.782   8.698   4.680
56172W        W24502  20.214   4.901   0.814
56173W        W24503  17.130  14.645  14.851
56174W        W24504   8.209  10.860   0.298
56175W        W24505  18.782  13.769   0.777
56176W        W24506  14.259  15.606  11.901
56177W        W24507  34.452   4.350   2.897
56178W        W24508  13.817   4.249   4.783
56179W        W24509   1.460  10.844  14.911
56180W        W24510   0.266  35.950   2.274
56181W        W24511   0.794  20.193  11.054
56182W        W24512  33.438  35.985  14.351
56183W        W24513   0.402  37.942  13.937
56184W        W24514  22.714  28.657   4.157
56185W        W24515  30.624  15.095  14.775
56186W        W24516   1.456  11.214  11.114
56187W        W24517  18.182  17.768   2.675
56188W        W24518  31.637   7.338  10.930
56189W        W24519   1.471  26.479  12.531
56190W        W24520  31.052  10.272   4.792
56191W        W24521   3.409   1.381  13.007
56192W        W24522  26.122  22.644  14.313
56193W        W24523  35.409  36.048   0.419
56194W        W24524  18.556  19.557  14.415
56195W        W24525  44.924  11.203  12.373
56196W        W24526  28.981  29.583  12.463
56197W        W24527  21.028   1.928  11.400
56198W        W24528  36.532   3.234   2.256
56199W        W24529  12.802  26.087   0.336
56200W        W24530  13.845  10.250  12.566
56201W        W24531   6.219  19.556  12.538
56202W        W24532   4.882   8.205  13.016
56203W        W24533   1.411  28.956  13.403
56204W        W24534  30.622  19.641   5.272
56205W        W24535   7.313  44.452   0.881
56206W        W24536  12.787  24.650  11.107
56207W        W24537  21.700   3.449  11.944
56208W        W24538  24.172  12.713   0.802
56209W        W24539  39.056  30.144   0.377
56210W        W24540  40.523   2.805  12.567
56211W        W24541   9.887  31.608   1.875
56212W        W24542  20.199   2.324   2.863
56213W        W24543  10.237  40.534   2.238
56214W        W24544  36.959   3.928  10.509
56215W        W24545  32.127  43.931  12.860
56216W        W24546  22.184   1.317  11.878
56217W        W24547  42.932  34.371   3.794
56218W        W24548  37.935  27.502  14.838
56219W        W24549  25.521   5.839   4.794
56220W        W24550  23.551   5.202  11.111
56221W        W24551  16.249  28.947  12.916
56222W        W24552  38.387   3.402  10.609
56223W        W24553  23.129  10.860  11.441
56224W        W24554  35.863  12.260  14.405
56225W        W24555  35.900  11.329  14.335
56226W        W24556  40.806  25.076   3.738
56227W        W24557  29.168  30.927   0.405
56228W        W24558  29.054  31.618   4.805
56229W        W24559  17.671   7.772   0.426
56230W        W24560  16.718  35.863   0.424
56231W        W24561  16.157  39.492  13.883
56232W        W24562  21.549  34.448   0.321
56233W        W24563  24.137  38.896  12.905
56234W        W24564  38.545  25.468   0.273
56235W        W24565  32.935   6.356  14.275
56236W        W24566  44.441  29.978  12.369
56237W        W24567  39.502  40.947   4.717
56238W        W24568  12.218  29.030  11.912
56239W        W24569  30.479  37.576  11.910
56240W        W24570  25.500  20.562  13.914
56241W        W24571   8.380  24.008  12.875
56242W        W24572   6.302  14.242  12.357
56243W        W24573  33.500  32.951  11.449
56244W        W24574  37.448  25.023   2.788
56245W        W24575  12.762  12.347   4.119
56246W        W24576  37.990  11.836  10.533
56247W        W24577   5.907  38.377  14.778
56248W        W24578  11.334  27.137  12.897
56249W        W24579  40.892  13.331  14.972
56250W        W24580  24.988  33.421   0.838
56251W        W24581  43.863  38.999   3.748
56252W        W24582  13.654  27.187   3.158
56253W        W24583  39.433   9.789   1.890
56254W        W24584  24.586  31.093   1.237
56255W        W24585  19.652   4.759  11.578
56256W        W24586  44.830  43.298   0.391
56257W        W24587  42.970   9.375  11.584
56258W        W24588   3.270   1.397   4.347
56259W        W24589  43.939  41.843  13.029
56260W        W24590   0.454  29.156  12.966
56261W        W24591  28.658  11.365   0.359
56262W        W24592  35.054  25.673  14.835
56263W        W24593  26.978  16.180  14.956
56264W        W24594  33.937  10.686  14.786
56265W        W24595   0.789  20.269   4.249
56266W        W24596  22.505  11.764  12.854
56267W        W24597  31.445  12.136   1.232
56268W        W24598   7.828   4.757   0.786
56269W        W24599  33.094  34.106   2.756
56270W        W24600  22.607  39.066  14.759
56271W        W24601   0.407  20.259   4.314
56272W        W24602  22.739  30.971   1.710
56273W        W24603  28.061  30.910  14.830
56274W        W24604  17.211  28.566  11.529
56275W        W24605  44.835  40.801  14.491
56276W        W24606  33.079  35.417   1.809
56277W        W24607  39.479  42.915   2.686
56278W        W24608   8.761  11.852  13.838
56279W        W24609  29.168  18.783   3.728
56280W        W24610  34.018  23.209  14.934
56281W        W24611  14.173  33.577   0.333
56282W        W24612  27.114  42.802   1.234
56283W        W24613  35.092   4.245   4.240
56284W        W24614   6.715  21.186  12.918
56285W        W24615  40.502  31.536   3.326
56286W        W24616  27.969  19.583   4.634
56287W        W24617  18.579  21.080  13.868
56288W        W24618  24.973  36.372  12.849
56289W        W24619  17.184   4.448  11.093
56290W        W24620  27.512   6.759   1.892
56291W        W24621  27.148   4.755   1.822
56292W        W24622  27.178  41.522   4.235
56293W        W24623  38.845  24.481   4.297
56294W        W24624   1.974  41.941   4.191
56295W        W24625   7.324   7.874   0.357
56296W        W24626  10.189  23.992   2.375
56297W        W24627  29.564  13.729   3.677
56298W        W24628   7.355  32.497  11.062
56299W        W24629  43.492  44.882   4.124
56300W        W24630  17.778  38.907   2.903
56301W        W24631   4.391   7.805   1.290
56302W        W24632  44.774  20.069  10.578
56303W        W24633   9.216  23.227  14.815
56304W        W24634  42.455  19.669  13.398
56305W        W24635  21.230  36.903   0.942
56306W        W24636  25.181  25.645   0.343
56307W        W24637  20.132  28.051  12.086
56308W        W24638   0.386  29.527  13.446
56309W        W24639  17.282  15.604  13.443
56310W        W24640  14.189  20.549   2.201
56311W        W24641   2.447   4.824   3.370
56312W        W24642  44.352   3.765   2.341
56313W        W24643  22.092   9.695   5.199
56314W        W24644   9.777  12.201  12.361
56315W        W24645  33.543  38.528   2.690
56316W        W24646  21.251  44.454  14.987
56317W        W24647  11.357   8.882  11.567
56318W        W24648  28.165  10.197   2.860
56319W        W24649  14.723  28.039  11.087
56320W        W24650  40.468  15.616   2.286
56321W        W24651  23.550  15.308  14.785
56322W        W24652  34.890  38.463  11.535
56323W        W24653  16.274  40.307  14.931
56324W        W24654  37.570   0.976   1.924
56325W        W24655   4.726   2.226   1.934
56326W        W24656  23.084   4.906  12.064
56327W        W24657  38.071  30.142  14.850
56328W        W24658  43.784  25.039  12.059
56329W        W24659   5.398  17.689   2.901
56330W        W24660  43.796  39.010   1.387
56331W        W24661  32.439  32.095   2.225
56332W        W24662  22.670  34.424   1.784
56333W        W24663   8.181  22.024   2.375
56334W        W24664  29.176   0.289  11.100
56335W        W24665  37.387  39.862   3.770
56336W        W24666  31.138   9.305  10.544
56337W        W24667  38.823  26.959   4.204
56338W        W24668  23.096  11.810  12.990
56339W        W24669  31.960  10.330  12.002
56340W        W24670  21.050  43.972   1.253
56341W        W24671  12.690  18.228  12.886
56342W        W24672  40.857  32.458  10.619
56343W        W24673   2.290  22.539  11.870
56344W        W24674  18.295  26.019  11.568
56345W        W24675  15.243  16.599   2.821
56346W        W24676  13.322  26.148   4.294
56347W        W24677   9.844  25.570  10.416
56348W        W24678  13.780  27.618  11.055
56349W        W24679  41.960  31.432  10.448
56350W        W24680  23.129  18.648   5.253
56351W        W24681  40.006  17.647   4.338
56352W        W24682  39.061   8.803  11.982
56353W        W24683  25.213  15.207  13.316
56354W        W24684  41.827  36.394   4.345
56355W        W24685  26.604  15.206  11.910
56356W        W24686  38.956   1.770   1.825
56357W        W24687   7.174  23.618  14.781
56358W        W24688  10.794   1.852   4.607
56359W        W24689  27.454   6.869  14.888
56360W        W24690  33.105  16.082  12.890
56361W        W24691  42.306   9.270  13.474
56362W        W24692  37.452  22.682  10.951
56363W        W24693  31.449  11.767   3.232
56364W        W24694  26.192   1.772   4.144
56365W        W24695  10.268   7.239   3.852
56366W        W24696  20.550  12.272  11.898
56367W        W24697  10.243  32.076   2.900
56368W        W24698  32.888  39.970  11.065
56369W        W24699  35.604   1.436  12.096
56370W        W24700  31.420   4.296   0.756
56371W        W24701  14.302   4.891  11.563
56372W        W24702   2.236   7.210   0.745
56373W        W24703  19.120  28.451  12.950
56374W        W24704   9.325  18.607   1.933
56375W        W24705   1.735  33.998  13.910
56376W        W24706  22.686   4.443  13.963
56377W        W24707  26.633  36.440  12.573
56378W        W24708  25.672  16.288  13.856
56379W        W24709   1.340  44.379  14.481
56380W        W24710  27.686  37.998  12.980
56381W        W24711  30.475  39.481   3.689
56382W        W24712  12.202  40.996   1.348
56383W        W24713   0.754  35.852  11.550
56384W        W24714  11.815  38.448   4.130
56385W        W24715  29.463  12.159  13.844
56386W        W24716  27.107  41.399  11.463
56387W        W24717  10.792  20.741  13.830
56388W        W24718   9.246  29.094  11.865
56389W        W24719  28.128   7.391   3.776
56390W        W24720  24.487  14.195   0.951
56391W        W24721  36.951  11.768   1.806
56392W        W24722  39.466  37.553   3.256
56393W        W24723  29.060  16.619  13.916
56394W        W24724  33.907  11.204   1.782
56395W        W24725   9.168  41.338   4.125
56396W        W24726  26.497  31.462  12.566
56397W        W24727   7.714  32.058   3.248
56398W        W24728   6.250   3.315   4.727
56399W        W24729  44.945  37.908   1.214
56400W        W24730  33.522  32.020   0.395
56401W        W24731  41.375  21.159  13.503
56402W        W24732  42.864  25.072  10.479
56403W        W24733  35.395  42.339   1.823
56404W        W24734  40.959   4.718   2.869
56405W        W24735  27.941  35.890   0.874
56406W        W24736  30.482  43.443  11.548
56407W        W24737   4.921  26.166  11.497
56408W        W24738  28.932  15.579  13.405
56409W        W24739  21.188  37.997   4.786
56410W        W24740   9.846  26.689  10.896
56411W        W24741   6.271  14.719   4.138
56412W        W24742  32.025   9.686  12.068
56413W        W24743  15.129  24.529  13.792
56414W        W24744  10.376  21.626   2.336
56415W        W24745  27.517  10.740   0.930
56416W        W24746  20.730  17.217   0.455
56417W        W24747  22.239  27.583  10.589
56418W        W24748   9.887  43.457   4.750
56419W        W24749  27.491   9.792   3.681
56420W        W24750  43.969  43.972   0.360
56421W        W24751  32.064  40.961  13.813
56422W        W24752  24.505  43.412  10.965
56423W        W24753  23.112  36.357  13.947
56424W        W24754  36.361  26.122  13.317
56425W        W24755   2.758  30.586   4.137
56426W        W24756  13.653  23.561  13.436
56427W        W24757  33.418  20.088   5.196
56428W        W24758  44.831  21.149  10.991
56429W        W24759   6.209  14.281   4.773
56430W        W24760  39.556  33.555   4.248
56431W        W24761  37.843  31.049  12.339
56432W        W24762  35.591  25.135  12.353
56433W        W24763  31.455  33.046   4.176
56434W        W24764  39.448  32.515  11.414
56435W        W24765   6.342  21.214   3.862
56436W        W24766  12.636   4.856  14.853
56437W        W24767   1.822  27.647   2.381
56438W        W24768   9.351  10.359   4.226
56439W        W24769  29.516   3.926  10.465
56440W        W24770  31.468  27.174   2.321
56441W        W24771  10.807  38.383   4.279
56442W        W24772  36.845   7.302  14.314
56443W        W24773  18.707  25.014  13.976
56444W        W24774  27.190  30.124   1.256
56445W        W24775  42.367  39.845   0.400
56446W        W24776  31.915  14.165  11.498
56447W        W24777  22.646   4.835   0.883
56448W        W24778  28.057  13.607   0.889
56449W        W24779  40.961  33.078   0.379
56450W        W24780  17.741  44.337   0.414
56451W        W24781  20.040   9.713  13.531
56452W        W24782   7.310  41.968  12.498
56453W        W24783  40.389   6.851  10.906
56454W        W24784  31.540  23.515  12.553
56455W        W24785  27.081  34.405  14.314
56456W        W24786  18.067  20.574   3.287
56457W        W24787   8.794  10.162  12.422
56458W        W24788  36.008  39.339  12.459
56459W        W24789   9.376   7.417   0.730
56460W        W24790  31.092  25.513  12.462
56461W        W24791  42.299  39.511  11.891
56462W        W24792   8.796  41.926   0.773
56463W        W24793   2.858  15.315  12.042
56464W        W24794  27.508   3.833  14.407
56465W        W24795  11.666  11.305  12.343
56466W        W24796   3.788  22.673   1.933
56467W        W24797   7.820  19.722   2.365
56468W        W24798  14.634  13.809  14.320
56469W        W24799  21.680  27.492  11.122
56470W        W24800  25.087  18.707   5.298
56471W        W24801  20.171  34.442  11.073
56472W        W24802  11.836  44.411  11.444
56473W        W24803  23.702  29.948  10.433
56474W        W24804  39.832  44.284  12.996
56475W        W24805  34.438  35.981   4.203
56476W        W24806   7.265  41.508  10.588
56477W        W24807  18.619   3.952  14.478
56478W        W24808  23.129  23.595   4.609
56479W        W24809  22.007  41.334  14.308
56480W        W24810  37.357  17.102   3.700
56481W        W24811  19.638   7.793  10.993
56482W        W24812  13.734  11.194  14.305
56483W        W24813  32.433   0.372  10.555
56484W        W24814  31.896   9.239  10.569
56485W        W24815  38.038  36.504  13.900
56486W        W24816  23.020  40.049   0.433
56487W        W24817  34.113   0.840  11.116
56488W        W24818   6.420  21.543   1.842
56489W        W24819  29.060  15.251   2.866
56490W        W24820  16.073  36.967  14.495
56491W        W24821   2.335  13.609   0.918
56492W        W24822  34.386  29.119   3.273
56493W        W24823  17.707  18.215   0.263
56494W        W24824  40.808  32.503  12.340
56495W        W24825  28.513  24.560  11.899
56496W        W24826  38.888   4.250   2.731
56497W        W24827   9.655  33.877   1.269
56498W        W24828  22.729   5.359   4.151
56499W        W24829  27.676   7.675   1.426
56500W        W24830  30.451  11.640   5.216
56501W        W24831  23.224  14.595  14.982
56502W        W24832   7.903  30.016   3.250
56503W        W24833  10.218  40.853   3.797
56504W        W24834  14.136  13.828   4.678
56505W        W24835  16.611  44.433   0.348
56506W        W24836   0.460  30.445   0.938
56507W        W24837  35.867   2.930   3.827
56508W        W24838  38.503  40.470  12.349
56509W        W24839  25.216  14.726  14.800
56510W        W24840  17.181  42.908  13.043
56511W        W24841  11.204   6.729  11.379
56512W        W24842  22.020  43.019   4.764
56513W        W24843  37.462   1.849   1.889
56514W        W24844  18.208  12.272   4.241
56515W        W24845  26.461  37.991   4.343
56516W        W24846  19.686  14.817  14.442
56517W        W24847  15.798  16.239  13.372
56518W        W24848  10.309  26.633   3.820
56519W        W24849  34.601   4.408   4.230
56520W        W24850  14.289  38.005  13.991
56521W        W24851  31.404   4.357  13.409
56522W        W24852   6.841  31.942  10.634
56523W        W24853  18.221  27.515   1.818
56524W        W24854  19.642   5.289   1.385
56525W        W24855  32.588  38.829  12.831
56526W        W24856  30.424  13.191  10.597
56527W        W24857   1.466  34.614   3.359
56528W        W24858  39.348   7.666   2.867
56529W        W24859  16.199   2.760   3.351
56530W        W24860  24.681  32.919   3.342
56531W        W24861  10.668  21.255   2.698
56532W        W24862   0.431  40.376  13.876
56533W        W24863  37.390  27.958  11.063
56534W        W24864   9.884  44.830   4.608
56535W        W24865  20.650   9.352   5.194
56536W        W24866   1.927  31.104   3.358
56537W        W24867  33.584  10.751   2.352
56538W        W24868  12.681   0.431  13.328
56539W        W24869  19.124   2.232   4.203
56540W        W24870  35.381  43.006  12.377
56541W        W24871   5.876   8.371   0.484
56542W        W24872  24.172  12.138   0.344
56543W        W24873  28.989  43.798   2.787
56544W        W24874  17.074   1.267  13.362
56545W        W24875  40.413  12.129   3.192
56546W        W24876  43.293  26.100   3.328
56547W        W24877  19.706  13.676   1.829
56548W        W24878  38.968  39.887  12.859
56549W        W24879  32.538   0.303   2.707
56550W        W24880  39.344  15.614   3.675
56551W        W24881   5.765   5.864   0.894
56552W        W24882  21.176   5.322   1.732
56553W        W24883  14.099  36.507   2.675
56554W        W24884  24.575  30.931   2.789
56555W        W24885  15.633  33.467   2.694
56556W        W24886  26.691   9.883  14.760
56557W        W24887  33.131  23.062   0.413
56558W        W24888  18.125  33.911  10.952
56559W        W24889   8.368   5.270   4.172
56560W        W24890  19.182  30.951  13.452
56561W        W24891  25.123  41.843  11.382
56562W        W24892   1.410  24.073  14.933
56563W        W24893  24.020  36.996  14.452
56564W        W24894  30.028  37.527  11.971
56565W        W24895  34.035  24.712  14.860
56566W        W24896   0.429  10.308  12.889
56567W        W24897  39.400  25.693  14.815
56568W        W24898  16.103   5.704   0.484
56569W        W24899  22.225  22.734  11.546
56570W        W24900  30.152  40.479  13.390
56571W        W24901  41.398  43.351  12.488
56572W        W24902   4.857  21.263   3.828
56573W        W24903  20.662  16.139   9.933
56574W        W24904  13.128  37.894  12.523
56575W        W24905  17.154  35.997  11.913
56576W        W24906   1.417  13.710  14.807
56577W        W24907  39.830  34.101   4.196
56578W        W24908  40.909  40.471  10.433
56579W        W24909  29.990   3.247  12.834
56580W        W24910   0.798  31.102  11.423
56581W        W24911  25.969   0.308  14.401
56582W        W24912   0.786  11.227  10.425
56583W        W24913  38.074  36.923  14.431
56584W        W24914   7.731  36.474  10.443
56585W        W24915  28.472  33.991   2.315
56586W        W24916   7.721  32.402   2.305
56587W        W24917  25.128  32.001  10.075
56588W        W24918  34.944   4.238  10.441
56589W        W24919  12.673  23.226  12.958
56590W        W24920   4.752   0.343  12.024
56591W        W24921   6.894  23.045   3.253
56592W        W24922  11.217  39.925  14.909
56593W        W24923  10.783  27.525   3.735
56594W        W24924  19.074  43.848  14.854
56595W        W24925  11.280  10.192   3.334
56596W        W24926  10.657  26.021  12.091
56597W        W24927   8.270  41.005  12.020
56598W        W24928  23.043  42.333   4.245
56599W        W24929  20.578  18.563   0.852
56600W        W24930  37.484  27.562  10.517
56601W        W24931  18.662  35.400  14.889
56602W        W24932   8.806  40.514  13.915
56603W        W24933  14.612  14.130   3.303
56604W        W24934  16.809  43.779   1.896
56605W        W24935  22.151  27.545  14.420
56606W        W24936   8.812  31.440  11.510
56607W        W24937  42.443   7.760   4.663
56608W        W24938  35.530  11.137  11.438
56609W        W24939   1.934  24.578  11.033
56610W        W24940  31.425  36.937  11.438
56611W        W24941   7.170  26.122   3.757
56612W        W24942  22.050  25.147   1.410
56613W        W24943  19.771  40.021   3.693
56614W        W24944  31.515   6.216   4.148
56615W        W24945   9.169  19.047  14.398
56616W        W24946  12.171  15.665   0.435
56617W        W24947  21.622  25.207   0.787
56618W        W24948  41.472  33.072   1.788
56619W        W24949   4.705  21.511   2.833
56620W        W24950  38.557  28.648  10.631
56621W        W24951  19.198  17.210  14.342
56622W        W24952  36.032  20.646  12.564
56623W        W24953  17.236  43.816  13.340
56624W        W24954  23.061  25.166  11.500
56625W        W24955  26.691  20.560  10.557
56626W        W24956  14.156   2.452  10.407
56627W        W24957  15.588  38.511   0.933
56628W        W24958  16.200  34.514  14.439
56629W        W24959  42.348  24.178   1.899
56630W        W24960  36.979   2.782  14.404
56631W        W24961  26.146  37.464  14.324
56632W        W24962   7.320  15.211  14.825
56633W        W24963  23.161  17.303   3.249
56634W        W24964   5.906   6.353   1.933
56635W        W24965  32.632  34.453  10.410
56636W        W24966   8.656  19.242   0.784
56637W        W24967  32.503   8.900   3.698
56638W        W24968  30.908  36.481  14.897
56639W        W24969  15.756  29.982   2.370
56640W        W24970  41.499  33.482  12.490
56641W        W24971  43.983   7.715   4.233
56642W        W24972   0.852   1.737   0.737
56643W        W24973   9.680   5.305  13.483
56644W        W24974  13.190  26.051   0.942
56645W        W24975   0.356  16.750  12.850
56646W        W24976  20.035  14.262  10.621
56647W        W24977   2.334   6.849   4.229
56648W        W24978  35.004  18.183  13.938
56649W        W24979  30.919  29.487   4.337
56650W        W24980  36.020  15.822  11.505
56651W        W24981  23.237  11.776  11.573
56652W        W24982  30.933  28.088   4.650
56653W        W24983  16.160  33.612  11.525
56654W        W24984  29.430  36.096   0.949
56655W        W24985  36.394  29.579  13.036
56656W        W24986   4.879  44.421   0.883
56657W        W24987  29.519  25.143   1.433
56658W        W24988  19.214  36.536   1.912
56659W        W24989  21.243  31.459  10.126
56660W        W24990  43.475  38.546  14.803
56661W        W24991  14.111  24.181   3.227
56662W        W24992  10.823   3.829   3.152
56663W        W24993  13.227  39.547  12.543
56664W        W24994  14.813  38.867   1.212
56665W        W24995  22.722  39.047  12.519
56666W        W24996  30.566  26.555  11.908
56667W        W24997  20.054  36.087   0.947
56668W        W24998  38.884  10.184  11.589
56669W        W24999  12.232   8.893  14.844
56670W        W25000   6.794  22.544   1.446
56671W        W25001  37.987  23.594  11.061
56672W        W25002  29.651   4.700   2.330
56673W        W25003  41.989   0.459   4.628
56674W        W25004  18.609  24.091  10.533
56675W        W25005  24.006  23.627   0.749
56676W        W25006  13.829  14.728  12.012
56677W        W25007  10.701   0.960  11.882
56678W        W25008  25.692  43.013   2.901
56679W        W25009  41.822  23.085  10.577
56680W        W25010  24.198  37.013   1.270
56681W        W25011  17.126  18.659   1.391
56682W        W25012  23.581  43.400  12.878
56683W        W25013  42.853  23.108  13.911
56684W        W25014  37.536  41.432   1.697
56685W        W25015  24.221  14.703  11.016
56686W        W25016  43.398  16.748   0.803
56687W        W25017   3.383   2.246   5.143
56688W        W25018   8.288  35.922  10.997
56689W        W25019   2.370  10.357  12.514
56690W        W25020  26.189  40.443  14.446
56691W        W25021  12.697  28.544  11.609
56692W        W25022  15.816  11.690   3.341
56693W        W25023  26.973   1.888   4.710
56694W        W25024  26.026   3.402  11.466
56695W        W25025  15.317  35.099   0.952
56696W        W25026   1.920  17.741  12.085
56697W        W25027  38.543  24.107   2.260
56698W        W25028  41.951  33.874  13.466
56699W        W25029   3.755   1.820   2.287
56700W        W25030  11.271   9.811  13.313
56701W        W25031  33.960  28.532   3.655
56702W        W25032  24.510  18.560   2.379
56703W        W25033  38.421   6.903  13.888
56704W        W25034   3.229  10.279  12.497
56705W        W25035   7.287  15.614  13.456
56706W        W25036  13.229  35.882   2.320
56707W        W25037  26.208   5.357  12.839
56708W        W25038   6.189   3.300  12.474
56709W        W25039  19.552   3.245  12.895
56710W        W25040  16.678  44.325   4.611
56711W        W25041  43.931   6.677   4.800
56712W        W25042  40.395  31.057   3.151
56713W        W25043  31.917  22.022   4.137
56714W        W25044  19.600  17.301   4.720
56715W        W25045  44.412  35.411  12.912
56716W        W25046  27.026  23.575   3.674
56717W        W25047  31.516  25.588  13.536
56718W        W25048   6.381  37.873   4.281
56719W        W25049  27.002   0.910  11.078
56720W        W25050  16.307  31.035  12.058
56721W        W25051   7.285  29.043   3.293
56722W        W25052  27.070  15.589  10.064
56723W        W25053   4.799  36.893   1.283
56724W        W25054  43.319   5.807  13.838
56725W        W25055  25.148  31.095   2.325
56726W        W25056   3.382  44.967  11.936
56727W        W25057  22.666  30.528  14.833
56728W        W25058  10.375  23.196  10.546
56729W        W25059   9.887  22.184  11.418
56730W        W25060   6.865  13.320   0.785
56731W        W25061  27.660  17.264  14.861
56732W        W25062  39.840   6.411   0.279
56733W        W25063  28.976  17.291  10.637
56734W        W25064   9.793  33.571  13.950
56735W        W25065  20.695  42.491   3.637
56736W        W25066  34.572  27.052   0.790
56737W        W25067  37.911   1.477  14.398
56738W        W25068  43.947  15.160  11.442
56739W        W25069  37.953  39.862   4.730
56740W        W25070   8.792   5.691   0.335
56741W        W25071  36.484   8.803  13.431
56742W        W25072  36.018   5.930   3.846
56743W        W25073  42.388   6.256  12.928
56744W        W25074  11.327  19.242  11.472
56745W        W25075  37.547  32.991   3.698
56746W        W25076   8.230   1.415  10.907
56747W        W25077   7.707   1.793   3.714
56748W        W25078  22.162  16.775   5.260
56749W        W25079  41.884  11.225   4.246
56750W        W25080  15.689   2.938  10.558
56751W        W25081  11.295  18.060  13.363
56752W        W25082  37.934  31.459  13.842
56753W        W25083  37.071  34.921  10.901
56754W        W25084  39.877  38.987   0.306
56755W        W25085   0.825  11.755  14.849
56756W        W25086   7.230   1.922  14.340
56757W        W25087  32.437  26.171  11.038
56758W        W25088  16.170   0.850  14.762
56759W        W25089  33.478  40.499   3.254
56760W        W25090  41.484  14.761   2.402
56761W        W25091  24.702  24.717  10.427
56762W        W25092  26.150  11.721  11.007
56763W        W25093  26.691  13.266  14.804
56764W        W25094   6.717  10.189  12.987
56765W        W25095  15.243  36.511  13.801
56766W        W25096   9.798  26.665  13.041
56767W        W25097  20.126  19.101  13.008
56768W        W25098  38.405  35.413   0.753
56769W        W25099   4.436  34.933  13.831
56770W        W25100  14.609   4.285   0.823
56771W        W25101  24.172  34.005  11.484
56772W        W25102  16.605  13.715   2.357
56773W        W25103   6.288   1.362  14.887
56774W        W25104  36.510  29.951   4.722
56775W        W25105  34.402   9.186  10.478
56776W        W25106  29.500  22.012  14.008
56777W        W25107  42.903  13.325  14.776
56778W        W25108  43.504  34.567   1.215
56779W        W25109  34.582  12.296   0.439
56780W        W25110  18.279  23.093   3.362
56781W        W25111  39.850  21.701  12.062
56782W        W25112  22.095  39.012  14.301
56783W        W25113  41.971  35.942  10.578
56784W        W25114  32.124  12.298   0.364
56785W        W25115  33.051   4.446   2.705
56786W        W25116  34.565  23.705   1.700
56787W        W25117  25.605  40.536  14.367
56788W        W25118  44.963  11.333  11.888
56789W        W25119   8.846  25.215   2.199
56790W        W25120   6.212  17.169   2.766
56791W        W25121  27.519  36.411   0.740
56792W        W25122  43.371  16.743  14.416
56793W        W25123  29.943   6.414   4.139
56794W        W25124  25.076  25.031  12.469
56795W        W25125  33.579  14.731   3.235
56796W        W25126  38.371  22.168  13.918
56797W        W25127  16.100   5.860   3.763
56798W        W25128   3.372   2.904   4.656
56799W        W25129  12.285  17.281   3.640
56800W        W25130  31.604   7.197  14.427
56801W        W25131  33.544  42.012   0.318
56802W        W25132   4.718   9.773  10.440
56803W        W25133  20.599   2.900  11.124
56804W        W25134  39.815  16.264   2.344
56805W        W25135  19.606   2.374   1.879
56806W        W25136  10.803   3.262  11.076
56807W        W25137  21.195   9.814  12.074
56808W        W25138  31.134   7.269   0.341
56809W        W25139   0.276  26.052  11.909
56810W        W25140  34.931  33.553  14.942
56811W        W25141  28.564  37.080  14.301
56812W        W25142  20.656  19.741   1.721
56813W        W25143   6.342  21.540  14.283
56814W        W25144  43.809   9.304  13.930
56815W        W25145  17.168  29.145  11.431
56816W        W25146  23.200  34.394   4.204
56817W        W25147  23.125   2.849  14.948
56818W        W25148   5.908  20.063   1.898
56819W        W25149  40.320   0.426  12.389
56820W        W25150   5.716  11.243  14.890
56821W        W25151  44.908  15.172   3.854
56822W        W25152  12.848  23.081  10.443
56823W        W25153   9.358  19.695   0.811
56824W        W25154  40.481  31.403   2.292
56825W        W25155  27.136  29.065  12.062
56826W        W25156  42.911  11.849   2.330
56827W        W25157  12.346   9.356   4.638
56828W        W25158   7.204  36.407   3.196
56829W        W25159   3.246  28.989  11.983
56830W        W25160   7.890  43.789  10.589
56831W        W25161  38.891  29.024  13.820
56832W        W25162  43.515  36.371   0.365
56833W        W25163  28.680  40.460   4.253
56834W        W25164   4.390  44.793   0.347
56835W        W25165  15.092  39.384   3.188
56836W        W25166  10.320   4.741   1.295
56837W        W25167  44.914  23.989   4.772
56838W        W25168   8.205  13.246   3.663
56839W        W25169  17.182  18.760  14.835
56840W        W25170  39.970  33.555   3.659
56841W        W25171  44.764  31.550   1.815
56842W        W25172  30.565  32.978  11.396
56843W        W25173  18.645  11.130   1.720
56844W        W25174  33.449  35.407   5.117
56845W        W25175  33.046  21.611   1.403
56846W        W25176   6.264  18.738   0.726
56847W        W25177  29.593  42.848   4.830
56848W        W25178  27.090   2.415  13.310
56849W        W25179  30.093  22.212   1.236
56850W        W25180  30.565   9.709   2.762
56851W        W25181  32.581  17.731  13.385
56852W        W25182   3.248  10.834   1.395
56853W        W25183  34.601   2.790   1.754
56854W        W25184  29.951  37.892  11.544
56855W        W25185  32.602  18.747  10.514
56856W        W25186   0.980  36.391  12.029
56857W        W25187  12.628   1.462   2.230
56858W        W25188   9.757   2.777   4.131
56859W        W25189  22.647  13.791   1.260
56860W        W25190   3.730   1.792  11.608
56861W        W25191  39.382  24.516  10.445
56862W        W25192   0.295  17.192   2.739
56863W        W25193  15.714  21.692  13.975
56864W        W25194   0.442  39.942  12.340
56865W        W25195  24.221   3.434   3.846
56866W        W25196  23.691   2.314  11.537
56867W        W25197  44.334  15.146   0.392
56868W        W25198   8.172   8.724   1.359
56869W        W25199  27.077  30.908   0.319
56870W        W25200  19.120  41.912  12.568
56871W        W25201   2.422  22.565   2.277
56872W        W25202  24.102  27.084  12.074
56873W        W25203  35.416  15.328  13.347
56874W        W25204  25.692  36.447  11.999
56875W        W25205  19.247  40.519  14.763
56876W        W25206  20.153  32.892  12.936
56877W        W25207  26.618   3.415  11.377
56878W        W25208  21.050   9.186   4.745
56879W        W25209  42.918  29.028  12.445
56880W        W25210   3.829  15.699  11.057
56881W        W25211   0.493  30.537   3.253
56882W        W25212  27.519  39.455  11.029
56883W        W25213   4.867  17.148   1.898
56884W        W25214  18.219  11.689   0.941
56885W        W25215  43.766   1.397   2.342
56886W        W25216  36.903  36.394  10.504
56887W        W25217  40.465  18.680   1.270
56888W        W25218  39.435  34.968   2.263
56889W        W25219  34.917  39.822   3.288
56890W        W25220  35.475  33.943   1.291
56891W        W25221  18.144  16.258   3.251
56892W        W25222   8.267   2.469  11.431
56893W        W25223  11.724  14.807  12.918
56894W        W25224  41.897  26.483  13.307
56895W        W25225   1.934   2.902  14.301
56896W        W25226  38.025  32.993  12.484
56897W        W25227  18.098  13.230   3.742
56898W        W25228   2.845  38.831  12.873
56899W        W25229  11.234  10.199  12.082
56900W        W25230   2.396  33.601  10.506
56901W        W25231  34.967   2.303   4.267
56902W        W25232  19.042  12.640   1.927
56903W        W25233  15.821  10.322   0.743
56904W        W25234   0.440   8.346   0.339
56905W        W25235  37.466   1.953   3.225
56906W        W25236  36.536   5.801  14.388
56907W        W25237  22.574  27.086   0.827
56908W        W25238   7.365  36.024  12.511
56909W        W25239  23.501  29.600  13.525
56910W        W25240  43.513  21.114  14.758
56911W        W25241   5.704  14.116   4.277
56912W        W25242  20.523  37.434   1.714
56913W        W25243   2.322   8.284   1.311
56914W        W25244   3.389  30.645  14.513
56915W        W25245  44.362  12.626  10.103
56916W        W25246  23.498  42.332  12.482
56917W        W25247  44.929  11.628  11.066
56918W        W25248   4.944  14.168  10.071
56919W        W25249  12.196  18.694   2.791
56920W        W25250  43.276  11.193   3.815
56921W        W25251  19.096  34.567   3.296
56922W        W25252  40.521   9.769  12.890
56923W        W25253  25.503  12.813  12.963
56924W        W25254  41.795  21.137   5.227
56925W        W25255  31.017  12.838   4.168
56926W        W25256  15.609  23.023   1.796
56927W        W25257  22.547  38.906  13.015
56928W        W25258   7.265  14.326  14.939
56929W        W25259  12.639  41.465   0.361
56930W        W25260  37.025  19.179   4.622
56931W        W25261  33.522   5.760   2.785
56932W        W25262  16.302  25.203   1.694
56933W        W25263   0.749   7.264  11.437
56934W        W25264  21.565  26.106  11.886
56935W        W25265  39.539   7.864   5.255
56936W        W25266  29.568  16.318   1.346
56937W        W25267  39.954  21.058   2.229
56938W        W25268  34.562  17.570  12.881
56939W        W25269  19.070  11.826  12.938
56940W        W25270  32.121  26.980  12.539
56941W        W25271  44.408  37.494   4.641
56942W        W25272  29.997  40.355  14.967
56943W        W25273   6.307   2.728   4.616
56944W        W25274  43.406  26.583  13.340
56945W        W25275  42.470   3.411  14.937
56946W        W25276  22.169  17.773   3.179
56947W        W25277   1.852  19.080  14.796
56948W        W25278   8.755  40.896  11.030
56949W        W25279  31.455  38.860   2.369
56950W        W25280  15.199  31.101   4.722
56951W        W25281  23.712  16.744  11.613
56952W        W25282  17.225  11.348  11.127
56953W        W25283  27.548   8.340  14.372
56954W        W25284  21.112  28.022   4.197
56955W        W25285  34.880  42.887   3.820
56956W        W25286  27.678  40.499  14.475
56957W        W25287  31.459  27.183   3.722
56958W        W25288  25.075  36.473   1.706
56959W        W25289   7.758  44.995   2.892
56960W        W25290   9.209  30.504   5.156
56961W        W25291  24.043  38.003   4.618
56962W        W25292  39.555  36.919   0.331
56963W        W25293  19.610  15.713  11.906
56964W        W25294  37.872  15.146   3.718
56965W        W25295  25.149   1.473   3.185
56966W        W25296  32.051  40.485   0.393
56967W        W25297  15.285   9.207   0.459
56968W        W25298  39.478  44.955  14.025
56969W        W25299  24.679  20.675  10.523
56970W        W25300  26.955  32.627   2.669
56971W        W25301  19.737  29.937   1.724
56972W        W25302   8.680  42.342   1.404
56973W        W25303  20.702  18.203   1.353
56974W        W25304   5.753  42.442   4.671
56975W        W25305  33.616   9.174   0.956
56976W        W25306  22.741   8.207  11.878
56977W        W25307  17.726  25.495  13.501
56978W        W25308   3.245  34.389   3.658
56979W        W25309   5.232  31.480  11.415
56980W        W25310  21.522  14.745  14.961
56981W        W25311  22.514   6.797  11.410
56982W        W25312  13.618  42.364   0.264
56983W        W25313  13.263  14.326   4.613
56984W        W25314  27.169   3.376   1.272
56985W        W25315  13.721   7.782   3.283
56986W        W25316  42.422   0.298   2.184
56987W        W25317  32.955  16.189  11.878
56988W        W25318  13.289  18.735  14.284
56989W        W25319  21.580  10.766  10.596
56990W        W25320   7.740  28.122  12.906
56991W        W25321  20.029  38.892  14.395
56992W        W25322  31.990  28.035  10.428
56993W        W25323  23.722  14.129   1.363
56994W        W25324  10.313   2.409   4.710
56995W        W25325  30.137   7.254  12.485
56996W        W25326  30.564  16.566   2.811
56997W        W25327  23.036  40.913   1.713
56998W        W25328  26.653   0.878  12.480
56999W        W25329   1.418  24.479   1.868
57000W        W25330  30.534  31.099   3.849
57001W        W25331  34.988  20.753   4.285
57002W        W25332  13.205   0.825   2.792
57003W        W25333  40.827  14.692  12.977
57004W        W25334  44.827  33.558  12.947
57005W        W25335  16.698  16.736  12.971
57006W        W25336  30.641  34.082   3.672
57007W        W25337   4.836   2.440  14.009
57008W        W25338  19.129  19.088  12.490
57009W        W25339   0.980  21.115   3.372
57010W        W25340  12.351  31.644   2.878
57011W        W25341   1.395  38.430   3.820
57012W        W25342  27.197  18.132  14.319
57013W        W25343  14.155  13.784  11.054
57014W        W25344  22.035   3.250   1.928
57015W        W25345   9.205  33.926  10.529
57016W        W25346  42.380  22.530  12.350
57017W        W25347  43.776   4.263  11.996
57018W        W25348   1.929   1.371  10.927
57019W        W25349  12.781  10.735   0.296
57020W        W25350  25.544   1.830   2.688
57021W        W25351  37.002  20.183   1.713
57022W        W25352   6.764  31.605  12.467
57023W        W25353   1.262  41.007   2.752
57024W        W25354  39.028   6.900  12.560
57025W        W25355  18.586   3.376  11.455
57026W        W25356  19.223  17.073   2.289
57027W        W25357  27.976   7.340  12.440
57028W        W25358  32.893   2.737  11.035
57029W        W25359  16.613   6.342  13.527
57030W        W25360   5.927  37.972   3.339
57031W        W25361  44.907   9.679  12.094
57032W        W25362   0.294  42.792  11.859
57033W        W25363  28.530  35.091   0.393
57034W        W25364   3.291  28.134   1.328
57035W        W25365  43.477  25.048   3.739
57036W        W25366  25.201  11.638  11.479
57037W        W25367  13.134  40.939  13.547
57038W        W25368  15.724  27.145  14.818
57039W        W25369   8.771   2.360  12.960
57040W        W25370  25.014  21.050   2.222
57041W        W25371  24.032  24.718  14.430
57042W        W25372   1.368  35.003  13.407
57043W        W25373  33.004  20.576   1.831
57044W        W25374  23.582  32.093  12.519
57045W        W25375  17.064  10.241   4.633
57046W        W25376  23.237  39.968  13.381
57047W        W25377   7.679  28.502  14.398
57048W        W25378  30.558  25.135  13.472
57049W        W25379  22.137  44.400   0.887
57050W        W25380  11.270  42.026   1.772
57051W        W25381  23.089  27.948   4.726
57052W        W25382  39.456  41.311   2.413
57053W        W25383  42.881   6.690   4.291
57054W        W25384  16.249  14.718  12.533
57055W        W25385  21.063   1.421  12.380
57056W        W25386  37.998  10.857  14.879
57057W        W25387  20.056  32.142   0.270
57058W        W25388  12.359  31.596   0.847
57059W        W25389  43.018  42.318   3.305
57060W        W25390  33.383  16.765   1.825
57061W        W25391   2.354  25.536   2.398
57062W        W25392  23.160   4.444   4.185
57063W        W25393  30.980  28.475   3.244
57064W        W25394  17.284  29.130   4.827
57065W        W25395  41.492   1.436   4.732
57066W        W25396   1.350  19.088  14.899
57067W        W25397  42.477   7.682   3.809
57068W        W25398  23.039  13.610  14.367
57069W        W25399  22.573   0.876   3.638
57070W        W25400  32.928   8.397   0.408
57071W        W25401  39.847  25.480   0.762
57072W        W25402  10.292   5.773  11.413
57073W        W25403   9.736   2.850   4.649
57074W        W25404  25.679   8.888  10.027
57075W        W25405  11.223  19.622   3.815
57076W        W25406  22.719   5.305  13.502
57077W        W25407  15.252  18.264  11.593
57078W        W25408  33.501  22.032  11.907
57079W        W25409  20.086  22.741  10.992
57080W        W25410  44.820   3.845  12.083
57081W        W25411  14.318  16.804  11.918
57082W        W25412  31.070  24.987   4.681
57083W        W25413  12.159  23.515  14.381
57084W        W25414  16.219  37.463  14.372
57085W        W25415  33.421   1.965  13.002
57086W        W25416  15.119  40.531  11.406
57087W        W25417  35.443  23.203  14.018
57088W        W25418  26.980  24.985  11.568
57089W        W25419  17.258  22.592  14.360
57090W        W25420   0.963  11.346   1.341
57091W        W25421  41.534   9.292  12.378
57092W        W25422   0.792   9.870  13.902
57093W        W25423  13.827   3.844   3.693
57094W        W25424  11.773   2.458  12.443
57095W        W25425  21.230  25.105   4.245
57096W        W25426  22.676  17.198  14.964
57097W        W25427  21.166  19.187   2.316
57098W        W25428  14.820  41.791  10.591
57099W        W25429  34.103   7.683   4.788
57100W        W25430  38.019  14.730   2.305
57101W        W25431  36.372  20.571  12.474
57102W        W25432  35.549   3.922  13.326
57103W        W25433   3.937  18.242  10.022
57104W        W25434   4.712  10.185  12.902
57105W        W25435  13.788  40.525   3.344
57106W        W25436  37.905  29.631  12.876
57107W        W25437  17.182  40.317  10.139
57108W        W25438  19.115   1.795  11.909
57109W        W25439  12.279  12.327   4.290
57110W        W25440  22.040   2.894   3.184
57111W        W25441  14.304  23.238  11.091
57112W        W25442  22.555   0.840   4.146
57113W        W25443   0.482  15.118   4.334
57114W        W25444  28.968   9.313  14.999
57115W        W25445  32.034  43.336   2.783
57116W        W25446  27.596   8.387  14.827
57117W        W25447  23.989   8.251   2.673
57118W        W25448  19.672  10.826   0.484
57119W        W25449  14.728   2.937   4.171
57120W        W25450  22.575   1.832   3.725
57121W        W25451   6.922  44.461   3.360
57122W        W25452  40.955  25.109  11.584
57123W        W25453  22.176  24.996  11.557
57124W        W25454  12.338   8.793   3.272
57125W        W25455  31.429  35.378  11.884
57126W        W25456  14.738  38.013  14.909
57127W        W25457  33.622   5.264  14.495
57128W        W25458  11.806   4.731   1.379
57129W        W25459  30.653  38.394  11.524
57130W        W25460   0.944  21.545   3.745
57131W        W25461   8.216   1.908   1.805
57132W        W25462   2.280  39.921  14.900
57133W        W25463  32.890   9.751  14.810
57134W        W25464  37.040   0.911   4.230
57135W        W25465  42.823  23.605   1.373
57136W        W25466  28.006  42.024   4.612
57137W        W25467  13.273  23.098   4.756
57138W        W25468  15.779  30.151   0.832
57139W        W25469  42.877  26.020  11.878
57140W        W25470  38.469  39.970  14.021
57141W        W25471  13.301  11.853  12.507
57142W        W25472  42.512  12.272   3.380
57143W        W25473  26.140   8.817   1.814
57144W        W25474  14.181   3.843   3.700
57145W        W25475  10.160   0.359  11.026
57146W        W25476  14.202  14.605  12.940
57147W        W25477   2.334   5.694   3.781
57148W        W25478  17.672  24.499   0.901
57149W        W25479  32.392  26.006  14.304
57150W        W25480  18.708  28.047   3.326
57151W        W25481  11.793  43.793   0.874
57152W        W25482  35.862  35.443   2.713
57153W        W25483  13.830   1.928   4.240
57154W        W25484  44.880   3.255   2.263
57155W        W25485  29.971  39.350  12.998
57156W        W25486  18.202   2.836  11.984
57157W        W25487   9.197  28.177  10.118
57158W        W25488  22.198  32.040  11.559
57159W        W25489  41.835  25.213   1.322
57160W        W25490  42.392  17.725  12.482
57161W        W25491  23.700  17.660   3.730
57162W        W25492  18.547  32.426   1.262
57163W        W25493  17.088   2.306  11.977
57164W        W25494  25.660  33.022   1.811
57165W        W25495  28.148   4.714   1.766
57166W        W25496  32.400  12.722  10.510
57167W        W25497  21.029  23.596  11.065
57168W        W25498  16.716  23.096  14.925
57169W        W25499  25.672  30.137   0.911
57170W        W25500  27.471  29.962  13.821
57171W        W25501  41.370  32.955  14.947
57172W        W25502  15.192   6.888   2.668
57173W        W25503  44.400  23.210   3.786
57174W        W25504  20.634  35.009   1.783
57175W        W25505  25.502   8.390   1.895
57176W        W25506  31.936  29.598   2.210
57177W        W25507  11.133  25.517   2.864
57178W        W25508  12.175   1.417  12.966
57179W        W25509  27.576  42.776   3.326
57180W        W25510  39.977  31.955  11.033
57181W        W25511  12.756  38.360  14.509
57182W        W25512  24.049  40.030   2.781
57183W        W25513  16.743   6.917  12.371
57184W        W25514  18.290  44.828   3.827
57185W        W25515  31.607  33.440   2.228
57186W        W25516  28.649  13.291   3.830
57187W        W25517   4.819  36.394   3.859
57188W        W25518  22.996  12.153   3.659
57189W        W25519  23.224  29.524  10.083
57190W        W25520   8.830  10.289   9.967
57191W        W25521  43.272   5.866   2.862
57192W        W25522  33.584  27.964   0.384
57193W        W25523  25.704  13.216   3.284
57194W        W25524  32.019   5.246  10.603
57195W        W25525  12.246  38.918  11.898
57196W        W25526  35.867  22.650  13.446
57197W        W25527  22.021  12.643   3.294
57198W        W25528  12.737  43.811   1.448
57199W        W25529  37.567  19.596  13.517
57200W        W25530  12.198  41.910   4.828
57201W        W25531  39.815  41.468   0.407
57202W        W25532  32.072  15.771  12.093
57203W        W25533  37.006  29.023   4.791
57204W        W25534  31.632  42.840  14.764
57205W        W25535  11.289   0.457   4.819
57206W        W25536  38.912  13.731  11.869
57207W        W25537  18.276  35.882  14.405
57208W        W25538  41.487   8.392   2.723
57209W        W25539  40.410  13.825  12.073
57210W        W25540  32.434  42.898  12.988
57211W        W25541  25.557   8.807  11.986
57212W        W25542  44.460  21.670  12.844
57213W        W25543  31.529  13.105   1.294
57214W        W25544  20.105  42.950  12.014
57215W        W25545  35.522  28.555   4.810
57216W        W25546   1.392  21.251   5.133
57217W        W25547  12.630  13.302  14.488
57218W        W25548   3.271  36.571   9.463
57219W        W25549  38.390  28.605   1.337
57220W        W25550  40.344  15.132   3.775
57221W        W25551  22.536  18.194  10.613
57222W        W25552   3.371  36.919  14.376
57223W        W25553  16.658   6.701  14.427
57224W        W25554  21.688  20.200  10.091
57225W        W25555  27.629  44.390   4.609
57226W        W25556  12.701   7.300  10.600
57227W        W25557  39.041  44.965   0.355
57228W        W25558   4.838   4.883   4.759
57229W        W25559  28.012   9.689  11.453
57230W        W25560  25.045  10.733   3.833
57231W        W25561  43.437  43.795  10.920
57232W        W25562  15.662  34.886   0.380
57233W        W25563   0.309  30.490   0.363
57234W        W25564  16.162  14.634   3.636
57235W        W25565   3.814  20.157  14.373
57236W        W25566  17.603  43.829   2.301
57237W        W25567  24.691   2.236   0.479
57238W        W25568   1.963  11.265   3.378
57239W        W25569  18.260  10.804  10.458
57240W        W25570  34.980  17.616  10.560
57241W        W25571  34.484   0.813   4.200
57242W        W25572  20.737   3.822  13.343
57243W        W25573  31.039  38.468   3.855
57244W        W25574   9.869  40.543   1.242
57245W        W25575  15.304  25.571  10.905
57246W        W25576  20.083   1.435  14.000
57247W        W25577   5.270  11.639  10.465
57248W        W25578  18.197   6.410  13.462
57249W        W25579  26.011   7.323  14.762
57250W        W25580   7.313  36.400  11.386
57251W        W25581  29.445  38.499   1.771
57252W        W25582   0.349  13.265   3.370
57253W        W25583  13.816  25.099  13.336
57254W        W25584   5.923  37.416   4.655
57255W        W25585   1.300  21.639  10.485
57256W        W25586   3.946  29.428  13.462
57257W        W25587  32.011  44.839   3.149
57258W        W25588  33.567  12.847  13.444
57259W        W25589  28.966  43.802   3.768
57260W        W25590  32.418   9.184   1.306
57261W        W25591  21.676  38.013  11.372
57262W        W25592  32.954  44.503   0.477
57263W        W25593  28.669   1.959  13.540
57264W        W25594  42.924  34.940  12.389
57265W        W25595   4.801  28.950  14.790
57266W        W25596  12.752  40.316  13.356
57267W        W25597   6.366  11.229   2.360
57268W        W25598  36.005   1.776   4.706
57269W        W25599  24.207  11.821  14.997
57270W        W25600  20.189  14.337   3.220
57271W        W25601  18.724  32.420   0.283
57272W        W25602  33.982  30.147  11.949
57273W        W25603  10.189  22.744   3.287
57274W        W25604  17.696  30.949  12.835
57275W        W25605   6.269  40.317   2.688
57276W        W25606  37.498  22.087  11.426
57277W        W25607  42.848  37.881   3.176
57278W        W25608  24.004  21.700  11.086
57279W        W25609   2.915   4.830  13.397
57280W        W25610  39.875  32.465   4.285
57281W        W25611  20.626   0.946   4.810
57282W        W25612  35.861  35.382  10.571
57283W        W25613  39.918  11.340   2.665
57284W        W25614  33.608  26.478   3.830
57285W        W25615   5.289  14.151  10.917
57286W        W25616  26.545  16.258   1.885
57287W        W25617  44.809  39.860  13.538
57288W        W25618  38.381  20.246  14.484
57289W        W25619  29.001  17.068  13.393
57290W        W25620  32.941  11.818   2.812
57291W        W25621  26.068   4.712  14.998
57292W        W25622  31.032   8.765   2.734
57293W        W25623  36.874   2.319   3.231
57294W        W25624  30.474   8.696   1.237
57295W        W25625   9.715  39.544   2.851
57296W        W25626  41.324  26.477   0.777
57297W        W25627  35.928  37.451  13.990
57298W        W25628  34.954  39.355   0.845
57299W        W25629  16.264  17.758   3.733
57300W        W25630  24.637  39.344  13.935
57301W        W25631  42.008   7.269  10.628
57302W        W25632  20.748   5.786   3.247
57303W        W25633  26.103  15.790   3.269
57304W        W25634   1.418  40.483   3.338
57305W        W25635  11.225  38.021  14.787
57306W        W25636  23.680   9.288   1.809
57307W        W25637  23.493  31.521   2.846
57308W        W25638  31.923   6.316   2.356
57309W        W25639  37.904   3.403   3.172
57310W        W25640   0.927  38.560  10.445
57311W        W25641  15.134   8.296  12.034
57312W        W25642  18.104   9.250   1.907
57313W        W25643   9.706  16.777  13.384
57314W        W25644  15.301  13.329   1.247
57315W        W25645  29.479  31.922  10.643
57316W        W25646  15.196  42.984   1.238
57317W        W25647   8.750  42.954  14.840
57318W        W25648  12.796  28.625  13.896
57319W        W25649  21.561  35.370   3.310
57320W        W25650  12.151  19.769   3.726
57321W        W25651  41.808  44.271  10.065
57322W        W25652  20.065   4.844  10.585
57323W        W25653   3.793  22.236   1.843
57324W        W25654  43.002   4.290  13.809
57325W        W25655   3.364  30.938   5.187
57326W        W25656  40.036  39.475  14.980
57327W        W25657  39.328  25.625   4.130
57328W        W25658  32.535  11.668  10.492
57329W        W25659  20.151   2.891  13.496
57330W        W25660  37.421  26.503   2.697
57331W        W25661  32.615   2.265   0.254
57332W        W25662  30.163  12.303  12.895
57333W        W25663  21.179  17.258  11.877
57334W        W25664  17.578  27.082   2.249
57335W        W25665   6.884  25.081   3.758
57336W        W25666  24.105   9.175   0.790
57337W        W25667  24.058  31.077  11.035
57338W        W25668  40.536   1.764   1.229
57339W        W25669  29.647  20.745   9.984
57340W        W25670   3.744  37.512   4.653
57341W        W25671  16.200   7.756  10.585
57342W        W25672   3.752   5.420  11.558
57343W        W25673  32.118   5.267  14.288
57344W        W25674  32.522   0.972   2.667
57345W        W25675  37.413   8.839  14.998
57346W        W25676  16.256  42.893  12.033
57347W        W25677  17.794  38.382   1.331
57348W        W25678  30.596  41.489   1.299
57349W        W25679   9.877  32.472   4.132
57350W        W25680  14.295  43.457   3.736
57351W        W25681  43.008  22.995  11.420
57352W        W25682  19.126   8.760   3.330
57353W        W25683  28.531  12.718   3.246
57354W        W25684  36.384  19.575  13.481
57355W        W25685  44.313   4.908  14.350
57356W        W25686   1.774  34.528   2.303
57357W        W25687  28.661  35.593  14.787
57358W        W25688  29.963  11.819  11.572
57359W        W25689  10.745  31.147  11.071
57360W        W25690  28.612  21.253   3.358
57361W        W25691  38.541  25.187   1.427
57362W        W25692  12.302  15.292   1.838
57363W        W25693   1.893  15.672   4.310
57364W        W25694  36.352  31.517  14.441
57365W        W25695  17.274  31.102   1.774
57366W        W25696   4.881  10.671   5.107
57367W        W25697  37.534  38.461  13.012
57368W        W25698  11.672   0.488  11.385
57369W        W25699   7.679  17.302   3.288
57370W        W25700  43.429  33.063  10.404
57371W        W25701  26.136  30.564  11.997
57372W        W25702  44.822  38.525   1.696
57373W        W25703  33.424  32.032   1.865
57374W        W25704  14.141  35.878   1.381
57375W        W25705  22.071  37.477  12.015
57376W        W25706  31.422  32.029  13.816
57377W        W25707  37.918  35.099   1.345
57378W        W25708  36.436  38.350  14.798
57379W        W25709  12.749   8.888   5.149
57380W        W25710  29.973  32.054   9.997
57381W        W25711  25.983  25.074   4.223
57382W        W25712   8.373  36.397  13.003
57383W        W25713  43.987  24.690   3.227
57384W        W25714  31.912   1.385  12.567
57385W        W25715  15.656  40.998  11.613
57386W        W25716  33.053  44.957   2.728
57387W        W25717  34.544  23.008  14.847
57388W        W25718  21.527  31.482   1.913
57389W        W25719  16.101  22.561  13.860
57390W        W25720   8.891  16.629   2.377
57391W        W25721  25.498   0.315  11.412
57392W        W25722  10.364  12.258   5.183
57393W        W25723   3.830  41.790   4.308
57394W        W25724   0.806   0.420   2.416
57395W        W25725  13.259  12.644   0.484
57396W        W25726  11.790  11.781  13.857
57397W        W25727  24.987  13.249   1.314
57398W        W25728  31.571  22.536  13.923
57399W        W25729  18.774  16.751  13.988
57400W        W25730  43.950  19.534   3.640
57401W        W25731  14.656  26.651  14.511
57402W        W25732  26.565   4.217   2.850
57403W        W25733  10.735   7.202   4.651
57404W        W25734   8.733  28.622  11.547
57405W        W25735  31.622  24.617   1.749
57406W        W25736  16.596  34.966   5.708
57407W        W25737  16.749  21.696   1.901
57408W        W25738  28.489  39.947   4.682
57409W        W25739  37.525  24.175   3.317
57410W        W25740   3.933   8.843  12.563
57411W        W25741  40.500  24.036   4.251
57412W        W25742   7.209  21.177  12.998
57413W        W25743   9.686  31.507   0.303
57414W        W25744  10.668  18.659   1.305
57415W        W25745  22.579  43.983  14.974
57416W        W25746  27.161  33.072   2.821
57417W        W25747  14.819   7.381  14.006
57418W        W25748  34.597  33.930  13.377
57419W        W25749  16.210  34.054  12.048
57420W        W25750   2.319  10.850  10.459
57421W        W25751   9.159   3.235  14.468
57422W        W25752  22.011   6.339   2.859
57423W        W25753  31.457  31.534  14.342
57424W        W25754   2.829  26.642   2.214
57425W        W25755   3.426  40.993  14.937
57426W        W25756   7.827  22.739   4.223
57427W        W25757  32.084   2.882  12.074
57428W        W25758  27.621  34.476   3.818
57429W        W25759  30.456  29.641  14.513
57430W        W25760  34.094   7.690   2.401
57431W        W25761  10.685  44.285   4.692
57432W        W25762  28.004  23.089  11.902
57433W        W25763   6.409   6.724  12.397
57434W        W25764   5.790  31.408   0.455
57435W        W25765  14.327   4.308  11.061
57436W        W25766  42.805  21.538   0.803
57437W        W25767  15.100  29.547   1.885
57438W        W25768  33.906  37.396  14.285
57439W        W25769  17.231  16.678  12.831
57440W        W25770  18.108   3.886  12.994
57441W        W25771  16.788   9.314   3.781
57442W        W25772  14.824  28.019  13.529
57443W        W25773  12.643  38.005  14.000
57444W        W25774  20.526  25.990  10.933
57445W        W25775   7.244  21.545  13.927
57446W        W25776  36.465  16.077   2.822
57447W        W25777  37.882   0.983  11.088
57448W        W25778  15.159   2.384   0.917
57449W        W25779  20.632  13.806   3.770
57450W        W25780  33.522  10.254  13.330
57451W        W25781  30.942  38.394   1.240
57452W        W25782  33.468  43.980  14.846
57453W        W25783  38.038  34.975   4.819
57454W        W25784  20.220  38.500  11.062
57455W        W25785  22.620   3.237  12.523
57456W        W25786   6.901   0.916  13.904
57457W        W25787   8.394  21.156  13.829
57458W        W25788  23.985  35.586  14.849
57459W        W25789  19.269  12.767   2.324
57460W        W25790   2.941  23.536   4.143
57461W        W25791  39.999  41.413   4.331
57462W        W25792  19.133   9.301   3.178
57463W        W25793   4.709  34.463   3.791
57464W        W25794   5.753  43.952   4.757
57465W        W25795  11.680   2.770  13.476
57466W        W25796  18.158  24.608  10.589
57467W        W25797  21.089   8.227  14.978
57468W        W25798  36.018  26.197  14.958
57469W        W25799  12.667  43.842  14.794
57470W        W25800   2.343  30.024  14.934
57471W        W25801   6.827  39.842  11.966
57472W        W25802  26.106   3.904  13.513
57473W        W25803  38.878  23.715   3.173
57474W        W25804  20.614  28.047  10.018
57475W        W25805  12.307  28.007   3.790
57476W        W25806  23.091  19.728   2.211
57477W        W25807  15.748  26.511  13.973
57478W        W25808  28.464   2.857   4.276
57479W        W25809  43.285   2.840  13.854
57480W        W25810  30.656   7.681   0.808
57481W        W25811   3.891  34.451   4.820
57482W        W25812  36.872   7.275   4.783
57483W        W25813  24.037  30.991   4.643
57484W        W25814  16.586  26.019   5.225
57485W        W25815   3.288  42.388  10.925
57486W        W25816   5.299   1.425  11.003
57487W        W25817   4.878   1.788   1.743
57488W        W25818  24.611  23.995   0.935
57489W        W25819   8.222  36.947  14.838
57490W        W25820  10.158  30.506  14.407
57491W        W25821  30.620   9.751  12.009
57492W        W25822   5.241  22.715  13.376
57493W        W25823  24.209  11.864  11.949
57494W        W25824  41.426  13.217  11.011
57495W        W25825  39.951   7.898   0.260
57496W        W25826   8.657  28.119   2.398
57497W        W25827  31.520  35.034  11.099
57498W        W25828  26.536  40.534  12.063
57499W        W25829   9.187  34.455   4.166
57500W        W25830   1.901  19.570  10.599
57501W        W25831  28.507  14.316  14.821
57502W        W25832  37.939  10.361   4.775
57503W        W25833  20.140  10.174  13.927
57504W        W25834  12.120  28.072   4.597
57505W        W25835   3.426  10.772  11.125
57506W        W25836   8.342  38.527   1.757
57507W        W25837   9.258  15.294   1.424
57508W        W25838  36.044  29.942   0.398
57509W        W25839  19.268  24.683   1.431
57510W        W25840  40.033   3.763  13.488
57511W        W25841  41.024   5.823  10.085
57512W        W25842  15.294  22.179   4.126
57513W        W25843  35.575  31.405  12.930
57514W        W25844  33.882  18.142  14.965
57515W        W25845   5.907  18.204  14.765
57516W        W25846  33.385  43.460  14.842
57517W        W25847  24.080  37.549  12.346
57518W        W25848  14.180  14.254  11.973
57519W        W25849  44.807  36.970  12.944
57520W        W25850  43.017  33.534  12.524
57521W        W25851   6.762  42.936  11.011
57522W        W25852  38.027   6.877  12.077
57523W        W25853  18.142  26.513  14.320
57524W        W25854  32.026  28.184   5.143
57525W        W25855   5.737  43.311   2.875
57526W        W25856   9.181  27.003  11.373
57527W        W25857  40.355  17.141  11.051
57528W        W25858  35.900  26.957  10.894
57529W        W25859  38.517  38.490  12.081
57530W        W25860  13.623  20.203   4.716
57531W        W25861  24.988  36.574  11.448
57532W        W25862  43.276   8.856   2.292
57533W        W25863  27.685   5.390  10.548
57534W        W25864  31.470  41.899  12.035
57535W        W25865  15.290  37.451   5.618
57536W        W25866  35.474  41.525  11.903
57537W        W25867  28.030  30.655  14.837
57538W        W25868  38.521   7.243  12.037
57539W        W25869  31.092  11.212   1.275
57540W        W25870   3.770  34.408   1.932
57541W        W25871  21.218  30.622   2.190
57542W        W25872  41.331  30.588  13.886
57543W        W25873  25.502  43.922  12.045
57544W        W25874  16.780  40.439  12.002
57545W        W25875  17.062   7.714   0.265
57546W        W25876  41.934  21.622   3.746
57547W        W25877   1.736  10.153   0.359
57548W        W25878  22.224  32.940   0.426
57549W        W25879  33.509  25.554  12.994
57550W        W25880  19.541   0.804   0.429
57551W        W25881  14.145  25.512  14.424
57552W        W25882  16.111   0.408   4.349
57553W        W25883   1.832  15.612  14.813
57554W        W25884  18.603  11.365   3.235
57555W        W25885  26.176  18.194  14.014
57556W        W25886  32.076  35.444  12.959
57557W        W25887  16.256  13.708   2.354
57558W        W25888  42.338  39.487  13.370
57559W        W25889  26.130  35.580  13.033
57560W        W25890  28.617  12.664   5.620
57561W        W25891  20.633  15.304   4.816
57562W        W25892  14.632  30.163   3.231
57563W        W25893  21.535  23.128  12.010
57564W        W25894  33.021  37.367   0.334
57565W        W25895  14.205   2.951   2.682
57566W        W25896  40.027  39.469  12.463
57567W        W25897  30.621  29.531  11.572
57568W        W25898  31.405  17.561  12.484
57569W        W25899  10.302   1.923  10.634
57570W        W25900   3.217  42.865  14.385
57571W        W25901  18.648  24.539  13.461
57572W        W25902  21.698  21.727   3.238
57573W        W25903   5.924  29.042  14.849
57574W        W25904  25.146  36.539  12.088
57575W        W25905  28.171  14.594   3.778
57576W        W25906  20.597  27.033   1.338
57577W        W25907  20.163  21.200  10.978
57578W        W25908  30.515  34.883   1.828
57579W        W25909  11.147  39.560  13.900
57580W        W25910  18.724  35.403   0.867
57581W        W25911  41.907  38.479   0.306
57582W        W25912  13.637  25.521   2.401
57583W        W25913  29.540   8.742   2.712
57584W        W25914   2.791  28.976  12.578
57585W        W25915  39.517  29.512  11.404
57586W        W25916  10.815   5.240   2.675
57587W        W25917  11.720   9.170  10.889
57588W        W25918  33.511  28.619   2.881
57589W        W25919  13.175  31.927   2.810
57590W        W25920  33.019   3.283   2.360
57591W        W25921  28.632  40.812  11.897
57592W        W25922   8.297  43.980   3.384
57593W        W25923   4.931  17.792   1.279
57594W        W25924  42.011   7.369   3.320
57595W        W25925  11.154   5.863   3.363
57596W        W25926  16.719  14.182   4.608
57597W        W25927   7.884  14.617   3.195
57598W        W25928  33.463   6.890   3.155
57599W        W25929  18.096  30.973   0.365
57600W        W25930  28.047   0.475   0.476
57601W        W25931   8.308  31.134   2.826
57602W        W25932  10.794  37.868   2.243
57603W        W25933  23.147  10.854  12.975
57604W        W25934  14.768  35.893  12.000
57605W        W25935  20.129   3.901   3.813
57606W        W25936  35.946  25.006   1.346
57607W        W25937   9.698  24.611  13.333
57608W        W25938  42.321  33.464  11.404
57609W        W25939  24.137  39.413  13.988
57610W        W25940   2.352  39.970  12.860
57611W        W25941  32.137  41.405  12.531
57612W        W25942  28.974   5.934  11.895
57613W        W25943  12.192  23.631   4.168
57614W        W25944  13.600  40.332  10.962
57615W        W25945  28.943  42.446   3.213
57616W        W25946  41.948  15.757  11.915
57617W        W25947  32.516  17.137  13.523
57618W        W25948  44.960  16.716  10.900
57619W        W25949  20.723  11.682   1.367
57620W        W25950  25.056   2.772   3.699
57621W        W25951  26.204   3.418  10.976
57622W        W25952  25.100  44.817  14.286
57623W        W25953  13.136  17.764  11.469
57624W        W25954  16.084  27.999   2.225
57625W        W25955   5.352  11.245   2.214
57626W        W25956  42.369  34.374  14.420
57627W        W25957   6.863  38.378   4.333
57628W        W25958  28.003  34.114   1.300
57629W        W25959   0.974  32.026   5.257
57630W        W25960  25.004  13.711  11.922
57631W        W25961  22.622  39.480  11.001
57632W        W25962  26.581  13.667   1.811
57633W        W25963  36.591  18.288   0.272
57634W        W25964  25.698  28.992   5.134
57635W        W25965   1.289  14.268  10.445
57636W        W25966  26.177   8.271  11.547
57637W        W25967  31.479  25.602  10.918
57638W        W25968  41.038  43.324   4.674
57639W        W25969  22.009  42.458   0.329
57640W        W25970   0.898   3.772   0.442
57641W        W25971  33.554  40.950   3.639
57642W        W25972  17.788  17.157  10.526
57643W        W25973  40.473  13.781  12.367
57644W        W25974  22.229   7.702   1.827
57645W        W25975  31.006  22.072  14.427
57646W        W25976  10.176  18.660  14.916
57647W        W25977  16.266  44.296  14.360
57648W        W25978   1.856  27.626   2.786
57649W        W25979  14.106  39.051  12.457
57650W        W25980  35.864  23.679   0.323
57651W        W25981  11.196  37.439  14.285
57652W        W25982  43.515  35.503   3.651
57653W        W25983   4.350  11.305  11.974
57654W        W25984  17.278  12.677  13.867
57655W        W25985  15.671  19.145   3.693
57656W        W25986  28.435   3.727  13.505
57657W        W25987  33.491  15.791   9.961
57658W        W25988  25.103  41.523  12.049
57659W        W25989  16.259  36.018   4.671
57660W        W25990  32.041  28.579  14.855
57661W        W25991  17.268  22.522   0.797
57662W        W25992  37.487  40.011   2.237
57663W        W25993  43.499  16.193   4.329
57664W        W25994   4.736  28.142   4.177
57665W        W25995  26.991  41.037  11.470
57666W        W25996  15.591  36.554  12.520
57667W        W25997  18.634  38.883   4.701
57668W        W25998   7.231  43.460   2.412
57669W        W25999   1.350   7.392   0.252
57670W        W26000   5.770  12.343  10.586
57671W        W26001  16.795  38.381   2.859
57672W        W26002  24.094  22.540   4.606
57673W        W26003  22.514   7.889  13.897
57674W        W26004  15.271  44.947   3.266
57675W        W26005   5.824  13.274  10.966
57676W        W26006  14.099  23.519   4.697
57677W        W26007  32.980  13.703   4.597
57678W        W26008   1.864  36.469   3.715
57679W        W26009  23.569   9.151  10.454
57680W        W26010  14.098  43.271  12.418
57681W        W26011  34.991   5.349   4.790
57682W        W26012  26.170  13.201  13.906
57683W        W26013  21.183  14.671  13.844
57684W        W26014  26.523  29.553  13.447
57685W        W26015  43.420   2.271  14.368
57686W        W26016  23.123  23.641  13.837
57687W        W26017  13.754  30.579   0.921
57688W        W26018  42.019  19.114   4.751
57689W        W26019   9.715  34.092   3.760
57690W        W26020   8.370  17.571  12.058
57691W        W26021  24.049  20.556  14.323
57692W        W26022  16.637   1.876  10.895
57693W        W26023  32.140   0.402   3.852
57694W        W26024  40.802  13.833  14.446
57695W        W26025  33.529  32.473   3.677
57696W        W26026  31.108  31.073  13.896
57697W        W26027  32.419  40.855  14.384
57698W        W26028  24.039  41.929   4.303
57699W        W26029  10.749  43.940  13.063
57700W        W26030   9.674  21.712   4.600
57701W        W26031  35.555  36.573  14.997
57702W        W26032   5.764  42.843  12.455
57703W        W26033   4.216   0.458  12.475
57704W        W26034  17.214   7.247   1.335
57705W        W26035  31.042  16.655   1.905
57706W        W26036   0.353  21.638  13.062
57707W        W26037  17.600  14.618   4.285
57708W        W26038  14.247  38.056   0.775
57709W        W26039  15.290  21.726  13.466
57710W        W26040  37.912  34.075  10.606
57711W        W26041  11.209  38.020   3.230
57712W        W26042  41.438  38.341  12.047
57713W        W26043  20.564  13.132   2.391
57714W        W26044  23.197  11.296  10.543
57715W        W26045  41.414   9.691  13.503
57716W        W26046  39.487  30.624   0.935
57717W        W26047  14.781  27.056   3.230
57718W        W26048   0.258  26.991  14.338
57719W        W26049   2.914   9.741  13.924
57720W        W26050  38.460  36.982  13.986
57721W        W26051  43.880  21.692   3.828
57722W        W26052  41.889  20.110  10.890
57723W        W26053  12.207  44.825   2.729
57724W        W26054  39.362  14.113   1.911
57725W        W26055  27.011  36.969   2.897
57726W        W26056  12.818  23.152  14.391
57727W        W26057  21.620  28.973   0.334
57728W        W26058  37.045   7.774   1.891
57729W        W26059  24.678   8.884   2.784
57730W        W26060  16.767   6.333   0.733
57731W        W26061  13.217  16.215  12.983
57732W        W26062   2.395  10.160   2.376
57733W        W26063   1.461   0.407  14.816
57734W        W26064   3.728  17.203   3.810
57735W        W26065  40.925  16.754   3.277
57736W        W26066  27.020  24.525  13.874
57737W        W26067  21.524   9.745   2.814
57738W        W26068  22.194  26.112  12.398
57739W        W26069  39.347   1.389  13.976
57740W        W26070   3.930   2.426   1.262
57741W        W26071  39.473   2.720  12.497
57742W        W26072  36.402  22.546  12.545
57743W        W26073  22.661   0.909  14.942
57744W        W26074  44.495  12.771   3.764
57745W        W26075  24.160  39.330  14.328
57746W        W26076  25.197  40.438   1.852
57747W        W26077   7.665   6.713  14.511
57748W        W26078   3.782   3.232   0.441
57749W        W26079  28.072   6.838   0.756
57750W        W26080  21.076  33.613  13.539
57751W        W26081  25.009  38.986  14.427
57752W        W26082   2.342  39.426   5.796
57753W        W26083   9.275  35.946  11.988
57754W        W26084  21.531   5.730  10.640
57755W        W26085   5.329  43.926  10.507
57756W        W26086  41.926  11.321   2.700
57757W        W26087  43.997   9.166  11.520
57758W        W26088  11.202  17.184  13.907
57759W        W26089   2.728  42.800   5.187
57760W        W26090  17.583  25.180   3.669
57761W        W26091   0.893  23.233   3.796
57762W        W26092  24.977  17.590   4.656
57763W        W26093   5.206  13.120   1.867
57764W        W26094  27.106  10.235  14.834
57765W        W26095  15.671  32.570  10.485
57766W        W26096  34.909  31.938   4.702
57767W        W26097  36.883  15.282   0.886
57768W        W26098  33.986  10.188   3.248
57769W        W26099  39.034  24.688  10.498
57770W        W26100   5.689  25.639   0.310
57771W        W26101   9.279  31.117  12.422
57772W        W26102  19.636  19.118  14.298
57773W        W26103  26.511   3.386   0.391
57774W        W26104  42.489  11.649   2.326
57775W        W26105  23.664   3.253   2.752
57776W        W26106   6.844   9.169   1.784
57777W        W26107   3.396  32.466   4.768
57778W        W26108   3.759   4.915  13.511
57779W        W26109  32.446  34.102   0.908
57780W        W26110  27.566  31.570   5.211
57781W        W26111   8.347  35.091  12.033
57782W        W26112   0.291   2.763   0.302
57783W        W26113  37.959  37.876   1.405
57784W        W26114  29.633  39.817   3.316
57785W        W26115  28.445  35.059  11.517
57786W        W26116   0.919  15.728   3.218
57787W        W26117  17.263  10.843   2.247
57788W        W26118  38.013  24.575  13.897
57789W        W26119  22.629  43.455  14.354
57790W        W26120   5.753   1.839  14.816
57791W        W26121  20.274  11.339  13.993
57792W        W26122  28.609  38.931   3.703
57793W        W26123   1.864   3.780   3.244
57794W        W26124   1.763   8.696  13.537
57795W        W26125  26.583  18.683   2.699
57796W        W26126  34.423  21.710  11.449
57797W        W26127  43.295  40.484   0.732
57798W        W26128   0.866  31.009  13.429
57799W        W26129  28.048  26.089   2.230
57800W        W26130   3.844  25.031   0.764
57801W        W26131  22.650  42.383   4.291
57802W        W26132  27.514  33.571   3.792
57803W        W26133  43.298   7.379  13.476
57804W        W26134  38.019  41.412   4.154
57805W        W26135   7.373  23.996   0.731
57806W        W26136   0.319  21.600   2.729
57807W        W26137  36.551  38.405  12.027
57808W        W26138   7.361   0.374   3.732
57809W        W26139   3.271  19.193   3.864
57810W        W26140  12.142  12.190   0.954
57811W        W26141  40.969   4.357  13.525
57812W        W26142  43.435  24.048   4.784
57813W        W26143   9.673  43.868  13.796
57814W        W26144   4.432  19.552   2.902
57815W        W26145  41.949  33.908   0.295
57816W        W26146   2.245   5.376  11.507
57817W        W26147  29.926  17.774  11.902
57818W        W26148  33.459  15.184  14.864
57819W        W26149  44.292   3.929  11.053
57820W        W26150  36.367  38.000   2.376
57821W        W26151  12.817   2.768  11.917
57822W        W26152  10.808  12.615   3.234
57823W        W26153   1.479  14.151  12.547
57824W        W26154   5.862  36.542  11.431
57825W        W26155  28.525  18.581  12.042
57826W        W26156   6.710  26.575  14.340
57827W        W26157  27.008  34.930  14.470
57828W        W26158  17.613  17.659  10.901
57829W        W26159  16.106  18.119  10.468
57830W        W26160  11.263  10.324  12.356
57831W        W26161  28.656  33.551  12.446
57832W        W26162  44.755  16.152  11.609
57833W        W26163  20.614  43.987   2.822
57834W        W26164  44.425  23.193  13.877
57835W        W26165   7.768  12.145  10.430
57836W        W26166  36.544  34.551  13.453
57837W        W26167   3.450  19.248   4.736
57838W        W26168   1.456  17.622   2.699
57839W        W26169   0.457  32.621   0.291
57840W        W26170  34.041   3.715  12.462
57841W        W26171   5.195  12.614   0.742
57842W        W26172  30.498  32.047   2.213
57843W        W26173  36.443  12.305   2.200
57844W        W26174  38.493   8.315   1.721
57845W        W26175  40.495   4.308  12.570
57846W        W26176  33.475   2.807  11.109
57847W        W26177  40.013   5.424   3.365
57848W        W26178  42.394  31.612  13.064
57849W        W26179  20.598   9.250  13.869
57850W        W26180  22.541   3.283   2.700
57851W        W26181  37.355  35.099  11.972
57852W        W26182  15.631  13.724   4.136
57853W        W26183  13.175  35.052   2.745
57854W        W26184   8.785   9.663  11.961
57855W        W26185  14.318  22.132   2.267
57856W        W26186  19.720  38.392  14.767
57857W        W26187  19.696  22.102  13.873
57858W        W26188  42.955  11.363  11.958
57859W        W26189  40.351  24.486   3.823
57860W        W26190  15.307   2.352  13.939
57861W        W26191  21.081   6.268  12.480
57862W        W26192  24.064  16.667   0.837
57863W        W26193  43.945  29.163  11.894
57864W        W26194   8.388  10.309  14.870
57865W        W26195  22.245  40.887   0.748
57866W        W26196  10.683  19.270  14.332
57867W        W26197  17.680  28.508  14.777
57868W        W26198  42.936  23.692  10.490
57869W        W26199  30.583   6.723   2.771
57870W        W26200   9.703  25.559   1.921
57871W        W26201  27.162  44.461  11.878
57872W        W26202   6.875  17.273  10.505
57873W        W26203  15.664  18.176   3.749
57874W        W26204  39.058  33.960   3.638
57875W        W26205  18.194  34.427  12.451
57876W        W26206  20.155  17.166   3.708
57877W        W26207  40.500  38.907  12.859
57878W        W26208  36.380  41.449   2.720
57879W        W26209   8.262  41.508   4.672
57880W        W26210  25.515  17.063   5.148
57881W        W26211  31.550  39.000  11.472
57882W        W26212   5.425  39.547  13.325
57883W        W26213  11.627   1.447   4.289
57884W        W26214  42.792  39.450   0.885
57885W        W26215  19.677  18.666   0.779
57886W        W26216  35.578  40.826   0.415
57887W        W26217  10.824  21.541   2.701
57888W        W26218  20.098  27.086  13.361
57889W        W26219  30.642  15.811  13.970
57890W        W26220  41.364  15.579   0.371
57891W        W26221  38.549   7.369  14.357
57892W        W26222  37.366  34.966  14.455
57893W        W26223  17.740   4.769  10.019
57894W        W26224  37.029   4.923   2.845
57895W        W26225  35.476   2.354  14.790
57896W        W26226  39.541  37.353  14.850
57897W        W26227  22.103  22.246   2.853
57898W        W26228  40.317  17.751   1.729
57899W        W26229  30.510  28.166  14.506
57900W        W26230  27.535  28.995  12.921
57901W        W26231  24.680  16.286  11.094
57902W        W26232   4.737  21.652  13.359
57903W        W26233   6.696  40.000   2.815
57904W        W26234  16.209   0.918  11.394
57905W        W26235  13.640  12.178   1.871
57906W        W26236   5.301  31.920   0.944
57907W        W26237   8.662  19.591  11.893
57908W        W26238   5.259  26.698  11.416
57909W        W26239  23.097  17.585   1.445
57910W        W26240  35.922  41.483   2.842
57911W        W26241  43.479  11.267   1.882
57912W        W26242  40.341   1.797   4.190
57913W        W26243  12.293  32.608  10.574
57914W        W26244   1.443  42.904  12.091
57915W        W26245  17.796  25.966   5.105
57916W        W26246  35.567  18.728   1.242
57917W        W26247  38.889  43.944  11.488
57918W        W26248   1.799  42.394  13.983
57919W        W26249  33.429  35.598  13.939
57920W        W26250  14.151  31.110   0.345
57921W        W26251  35.508  14.275  14.782
57922W        W26252  34.489  40.915  10.621
57923W        W26253  33.903  39.358  10.582
57924W        W26254  44.367  41.896  12.411
57925W        W26255  20.180   7.673  10.572
57926W        W26256   1.927  16.766   1.411
57927W        W26257  17.211  15.701  12.923
57928W        W26258  16.688  13.643   0.316
57929W        W26259  37.461  41.940   1.904
57930W        W26260  16.764  11.246  11.128
57931W        W26261  23.618  30.093   4.804
57932W        W26262  23.072  37.896   4.328
57933W        W26263  25.523  16.642  10.514
57934W        W26264  35.888  19.742  13.933
57935W        W26265  16.091  10.721  12.429
57936W        W26266  43.478   2.875   1.265
57937W        W26267   0.965  40.310  13.537
57938W        W26268   7.399  22.720  14.008
57939W        W26269  40.851  38.485   0.402
57940W        W26270  16.742  17.298  10.895
57941W        W26271  34.042   2.397   0.459
57942W        W26272  35.535  31.436  10.983
57943W        W26273  24.159  41.918  14.806
57944W        W26274   7.747  37.961  12.966
57945W        W26275   8.224   8.806   2.753
57946W        W26276  33.955  29.162  14.927
57947W        W26277   9.298  44.277   0.916
57948W        W26278  17.232  13.238  11.877
57949W        W26279  13.285  35.868  10.602
57950W        W26280  10.346  16.275  12.040
57951W        W26281  36.360  18.121  11.977
57952W        W26282  40.314  33.385  10.948
57953W        W26283   3.860  23.665  12.429
57954W        W26284  36.076  12.129  11.606
57955W        W26285  22.055   0.401   0.864
57956W        W26286  29.474  30.947  13.014
57957W        W26287  43.922  35.559  10.971
57958W        W26288  13.769  44.313  13.901
57959W        W26289  16.312  10.361   1.796
57960W        W26290  21.616   5.829  13.409
57961W        W26291  32.493  23.153   1.819
57962W        W26292  27.656  33.921  12.391
57963W        W26293  23.505  23.185   3.204
57964W        W26294  23.029   4.339  14.999
57965W        W26295   4.216  30.551   3.261
57966W        W26296  14.183   2.756  13.863
57967W        W26297  17.663  41.861  14.859
57968W        W26298  37.405   6.354   3.685
57969W        W26299  40.933  38.494  11.028
57970W        W26300   3.746  43.825  14.451
57971W        W26301  27.100   8.771   2.259
57972W        W26302  36.380   6.690  11.874
57973W        W26303  32.592   0.253   1.777
57974W        W26304  32.918  26.127   3.245
57975W        W26305   2.887  38.037  12.384
57976W        W26306  17.284  27.076  10.627
57977W        W26307  13.631  17.202   1.917
57978W        W26308  34.923  11.795   3.302
57979W        W26309   3.226  33.914   4.194
57980W        W26310  42.386   3.460   0.272
57981W        W26311  18.258   9.182  13.407
57982W        W26312   3.455  15.294  13.928
57983W        W26313   2.945   7.811  12.936
57984W        W26314  21.694  36.045  13.469
57985W        W26315   1.341  38.069   1.324
57986W        W26316  14.814  30.655  12.507
57987W        W26317  16.681  25.022   3.637
57988W        W26318   6.868  17.612   2.320
57989W        W26319  26.992  39.005   4.317
57990W        W26320  24.705  26.144   2.690
57991W        W26321  28.184  26.665   4.681
57992W        W26322  19.693   7.817  10.130
57993W        W26323  44.962  10.239   4.327
57994W        W26324  25.125  20.173   5.274
57995W        W26325  18.168  28.001   1.775
57996W        W26326   3.430  42.846   2.189
57997W        W26327  38.569   6.374  11.489
57998W        W26328  34.517   9.848  13.830
57999W        W26329  44.960   5.829  12.471
58000W        W26330   5.269  39.013  12.422
58001W        W26331  22.051  12.289   1.253
58002W        W26332  23.003   3.456   4.645
58003W        W26333   8.786  42.968  14.470
58004W        W26334  34.434  20.221   4.256
58005W        W26335  38.522  20.725   3.162
58006W        W26336  39.410  36.541  13.040
58007W        W26337  43.943  41.448  12.351
58008W        W26338  38.366  12.187   0.905
58009W        W26339  34.991  33.100   2.184
58010W        W26340   3.305  41.463   4.341
58011W        W26341  27.066  11.768   0.422
58012W        W26342   2.458  33.059   1.734
58013W        W26343  39.810  22.652   2.254
58014W        W26344  19.615  24.003   4.705
58015W        W26345   3.782  32.928  11.540
58016W        W26346  35.055  34.397  12.551
58017W        W26347  42.422  23.602  12.492
58018W        W26348  27.556  32.625   0.397
58019W        W26349  23.225  12.671   1.226
58020W        W26350  31.581  36.353   1.391
58021W        W26351  25.647   2.372   0.898
58022W        W26352  28.436  18.187   1.245
58023W        W26353  15.149   6.301   4.690
58024W        W26354  19.777  33.063  12.916
58025W        W26355  33.901  27.116  14.855
58026W        W26356  38.432  31.011   3.339
58027W        W26357  17.262  44.002   4.282
58028W        W26358  36.933   9.788  10.975
58029W        W26359   6.332  11.768   4.722
58030W        W26360   9.775  22.711   2.403
58031W        W26361  22.702  36.582   2.815
58032W        W26362  35.981  14.820   1.918
58033W        W26363  38.958  30.588   1.216
58034W        W26364   5.437  25.645   2.366
58035W        W26365  11.360  13.149  10.557
58036W        W26366   4.272   1.897   0.311
58037W        W26367  38.856  31.554  10.517
58038W        W26368  22.633   1.940  13.532
58039W        W26369  32.064   9.184   2.212
58040W        W26370   4.812  30.055   3.811
58041W        W26371   3.742  19.228  11.543
58042W        W26372  32.903  41.296   0.788
58043W        W26373  14.297  32.993   3.787
58044W        W26374  11.276  32.890  12.045
58045W        W26375  37.432  25.203   1.832
58046W        W26376  43.465  12.335  13.501
58047W        W26377  13.203  43.451   0.372
58048W        W26378  42.385  21.737  10.985
58049W        W26379  14.324  21.112   3.815
58050W        W26380  37.976  19.718  10.490
58051W        W26381   7.252  44.273   3.281
58052W        W26382  43.440  27.470   3.764
58053W        W26383  38.361  28.071  11.510
58054W        W26384   2.879  28.166   2.381
58055W        W26385  15.744  29.465  12.406
58056W        W26386  19.741  38.075  13.358
58057W        W26387  14.602  17.212  14.318
58058W        W26388   4.888  27.622  13.535
58059W        W26389  28.961  21.145  14.971
58060W        W26390  18.207  24.089   9.937
58061W        W26391  30.622  39.989  12.566
58062W        W26392  42.831  27.530  14.471
58063W        W26393  19.283  29.163   4.275
58064W        W26394  11.285  16.613   2.285
58065W        W26395  24.212  39.828   0.483
58066W        W26396  43.289   2.279  12.515
58067W        W26397   3.255   2.935  14.468
58068W        W26398   1.240  44.954  12.984
58069W        W26399  19.715  43.500   2.332
58070W        W26400  41.488   0.460  13.450
58071W        W26401  32.999  41.302   0.402
58072W        W26402  36.955  32.440  12.091
58073W        W26403  31.962  27.566   4.273
58074W        W26404   2.744  39.354  12.950
58075W        W26405  38.878  22.060  10.629
58076W        W26406  20.579  34.552   4.605
58077W        W26407   5.276  32.502   3.245
58078W        W26408  41.514  30.911   2.381
58079W        W26409  21.683   4.321   3.220
58080W        W26410  16.174  16.766  14.948
58081W        W26411   4.943   2.388   1.415
58082W        W26412   9.177  10.235   9.989
58083W        W26413  37.049  14.157  13.937
58084W        W26414   4.856  23.100   1.268
58085W        W26415   2.830   6.210  14.968
58086W        W26416  44.317  12.817  12.083
58087W        W26417  41.957  19.662  13.421
58088W        W26418  35.542  22.719  12.359
58089W        W26419   5.825  39.987   4.725
58090W        W26420  14.263  39.507   4.786
58091W        W26421  13.233   8.772  13.851
58092W        W26422  20.555  28.099   0.748
58093W        W26423  24.102  37.378   1.849
58094W        W26424  21.242  35.858   4.689
58095W        W26425  20.721  38.971   1.741
58096W        W26426   0.841  19.232   1.223
58097W        W26427  40.457  22.190  13.928
58098W        W26428   2.261  32.533  11.398
58099W        W26429   6.311  44.405  11.929
58100W        W26430  41.888   0.469   0.759
58101W        W26431  28.520   6.333   3.805
58102W        W26432  17.642  19.779   4.173
58103W        W26433  39.002  34.573   0.890
58104W        W26434  10.694  21.686  12.520
58105W        W26435  27.671  12.251  13.920
58106W        W26436  25.204  38.534   3.149
58107W        W26437  31.591  39.511  13.547
58108W        W26438  34.565  20.236   2.805
58109W        W26439  10.704  36.535   1.715
58110W        W26440   9.669  44.753   1.840
58111W        W26441  17.215  23.720   3.286
58112W        W26442  13.154   1.428  10.520
58113W        W26443  42.931  35.495   1.753
58114W        W26444   7.305   2.775   0.480
58115W        W26445  18.114  25.513   1.854
58116W        W26446  13.150  27.488   4.782
58117W        W26447  36.371  35.397  12.882
58118W        W26448  27.978  24.057   4.675
58119W        W26449  15.739  34.071   4.337
58120W        W26450  33.937  38.503   0.782
58121W        W26451  11.652  43.890  11.121
58122W        W26452  32.612   7.365   2.219
58123W        W26453  23.039  27.157  12.509
58124W        W26454  35.906  33.944  13.538
58125W        W26455   3.413  27.606  10.566
58126W        W26456  20.709   6.747  13.465
58127W        W26457   1.423   5.795  13.053
58128W        W26458  20.661  15.737   4.739
58129W        W26459  18.065  29.169   2.670
58130W        W26460  25.083  26.978  13.989
58131W        W26461  25.076  13.202   0.297
58132W        W26462   4.254  34.886   3.146
58133W        W26463  35.370  35.947  11.047
58134W        W26464  31.646  39.401   3.781
58135W        W26465  14.828  29.446   0.883
58136W        W26466  19.069   4.448  13.829
58137W        W26467   3.390  40.006   9.929
58138W        W26468  15.084  13.703   1.847
58139W        W26469  25.976  33.056   2.346
58140W        W26470  42.324  10.849  11.059
58141W        W26471   3.301  37.853  11.905
58142W        W26472  23.714   0.928  14.429
58143W        W26473  28.627  40.494  11.527
58144W        W26474  13.725   5.400   1.396
58145W        W26475  44.791  38.512   1.282
58146W        W26476  22.233  18.757  14.973
58147W        W26477  21.028  44.364   0.381
58148W        W26478   8.658  17.172   0.836
58149W        W26479   6.798  43.365  10.980
58150W        W26480  35.373  15.767   4.605
58151W        W26481   4.762  34.094  11.072
58152W        W26482   1.970  33.511   0.831
58153W        W26483   4.254  24.555  14.950
58154W        W26484   1.757  26.117   1.442
58155W        W26485  28.187  38.487   3.265
58156W        W26486   3.316  36.379  12.481
58157W        W26487  30.116  20.143   2.279
58158W        W26488  26.128  17.191   0.727
58159W        W26489  40.313  28.465  14.948
58160W        W26490  17.689  30.151  12.442
58161W        W26491   3.730  42.347  13.894
58162W        W26492  34.581   4.799  13.891
58163W        W26493  15.592  17.142   0.316
58164W        W26494  44.401  41.330  13.804
58165W        W26495  32.448  17.571  14.980
58166W        W26496  25.219  38.463   0.782
58167W        W26497  24.672  44.483  14.343
58168W        W26498  43.000   7.211   4.292
58169W        W26499  12.706  17.175   3.329
58170W        W26500  19.678  32.036   1.260
58171W        W26501  21.569  30.140   0.324
58172W        W26502  36.537  27.073   4.607
58173W        W26503  35.419  44.291  13.042
58174W        W26504  22.127  27.020   2.275
58175W        W26505  33.984  31.425  14.818
58176W        W26506  25.140  10.320   0.311
58177W        W26507   7.362   8.707  13.462
58178W        W26508  36.471  10.280  13.530
58179W        W26509  21.723  37.974   4.671
58180W        W26510  39.894  17.095  14.760
58181W        W26511  11.682  26.613   2.884
58182W        W26512   7.879  24.639   1.910
58183W        W26513  41.347  11.797   0.930
58184W        W26514  35.582  34.885  11.048
58185W        W26515  44.498  32.109  11.601
58186W        W26516  28.105  35.383  14.930
58187W        W26517  35.917  39.910   2.328
58188W        W26518   8.793   3.849   1.854
58189W        W26519  36.448  29.128  14.871
58190W        W26520   1.925  27.637   3.845
58191W        W26521  36.576  29.165  10.061
58192W        W26522  22.046  34.019  11.959
58193W        W26523   1.910  22.119  13.914
58194W        W26524  37.466   4.430  10.503
58195W        W26525   8.874  34.116   4.788
58196W        W26526   3.236  20.548   1.716
58197W        W26527  34.045  27.185  11.387
58198W        W26528  22.697  42.859  11.474
58199W        W26529  16.603  30.989   0.864
58200W        W26530  38.035  27.601   3.351
58201W        W26531  40.406  12.831   9.921
58202W        W26532  21.747  26.960  11.032
58203W        W26533  21.142  40.418  10.444
58204W        W26534  22.736  35.443  13.033
58205W        W26535  17.265  39.555  14.800
58206W        W26536  40.484  12.631   4.305
58207W        W26537  20.704  11.305   3.833
58208W        W26538  39.338  17.220  13.978
58209W        W26539  33.506  10.366   1.774
58210W        W26540  38.029  16.753   0.863
58211W        W26541  23.727  21.538  10.449
58212W        W26542  31.989  27.635   1.437
58213W        W26543  35.503  36.562   0.865
58214W        W26544  34.446  44.302  14.765
58215W        W26545  40.968   9.170  11.549
58216W        W26546   4.826  28.030  10.512
58217W        W26547  44.993  25.135   1.218
58218W        W26548  15.625  18.236   4.620
58219W        W26549  36.427  26.516  14.503
58220W        W26550   5.272  39.435   3.178
58221W        W26551   8.240  13.176  11.079
58222W        W26552  10.817  15.164   2.843
58223W        W26553  43.770  25.691   4.302
58224W        W26554  32.419   5.727   4.740
58225W        W26555  41.484   2.905  10.442
58226W        W26556  32.990  27.020   4.255
58227W        W26557  35.889  10.808  12.402
58228W        W26558   5.759  33.061  14.488
58229W        W26559  24.575  36.904  12.916
58230W        W26560   3.459  19.553  10.548
58231W        W26561  35.869  24.029  14.511
58232W        W26562  42.890   4.273   4.134
58233W        W26563  31.642   9.777   4.656
58234W        W26564  36.573  16.093  14.796
58235W        W26565  29.638   2.466  13.498
58236W        W26566  17.184  39.375   2.781
58237W        W26567   9.154   8.711   3.215
58238W        W26568  44.312  42.284   4.199
58239W        W26569  34.599  30.969   1.452
58240W        W26570  16.707  35.029   1.724
58241W        W26571  41.469  32.403  14.323
58242W        W26572  29.931  32.560   5.669
58243W        W26573  30.551  32.467   4.254
58244W        W26574  41.005   9.350   1.908
58245W        W26575   9.674  42.842  11.570
58246W        W26576  35.046  43.502   1.226
58247W        W26577  17.644  32.495  11.471
58248W        W26578  17.659  23.705  11.076
58249W        W26579   2.780  23.585   2.184
58250W        W26580  17.702  44.287  12.863
58251W        W26581  39.043  42.996   3.777
58252W        W26582  21.608  15.803  11.371
58253W        W26583  34.906  21.129  13.490
58254W        W26584   2.453  20.609   1.306
58255W        W26585  13.791  23.236   1.758
58256W        W26586  31.992  21.146  12.046
58257W        W26587  30.139   2.413   1.293
58258W        W26588  39.045  36.553   4.184
58259W        W26589  30.926  21.680  13.318
58260W        W26590  28.547  19.139  12.864
58261W        W26591  30.496   1.848  14.440
58262W        W26592  30.653   5.363   1.242
58263W        W26593   7.321  16.724  11.879
58264W        W26594  32.128  41.038   1.764
58265W        W26595  12.656  17.647   2.882
58266W        W26596  14.179   4.240  12.360
58267W        W26597   7.855  18.175   4.827
58268W        W26598   3.299  42.937   0.351
58269W        W26599  22.679  39.323  14.362
58270W        W26600  26.672   6.721  13.960
58271W        W26601   4.289  23.529   1.715
58272W        W26602  17.605  38.558   3.275
58273W        W26603  29.994   8.258  13.869
58274W        W26604  15.677  18.784  14.500
58275W        W26605   1.460  33.530  12.451
58276W        W26606  11.816   1.845   1.832
58277W        W26607  33.469  16.125   2.668
58278W        W26608  30.163   9.227  11.999
58279W        W26609  29.996  18.769   4.336
58280W        W26610  41.329  16.170   2.685
58281W        W26611   5.197  41.802  14.494
58282W        W26612  34.048   9.847  14.319
58283W        W26613  13.720  32.100   2.285
58284W        W26614  40.400  37.918  12.376
58285W        W26615  21.043  16.723   1.877
58286W        W26616   7.333  32.547  13.333
58287W        W26617  10.317  20.050  11.598
58288W        W26618   0.868  41.937   2.667
58289W        W26619  18.219  25.136  14.500
58290W        W26620  41.440  10.783   0.349
58291W        W26621  13.692  39.555   4.815
58292W        W26622  26.456  29.925  14.478
58293W        W26623  42.412  27.100  10.540
58294W        W26624  42.818  24.707  10.973
58295W        W26625  35.416  40.993   2.224
58296W        W26626   8.724  35.399   2.304
58297W        W26627  11.192  24.214  10.628
58298W        W26628  26.985   9.364   4.189
58299W        W26629   6.724  10.776   1.742
58300W        W26630  31.544  32.938  11.997
58301W        W26631   7.233  32.136  11.973
58302W        W26632  27.152   7.893  12.955
58303W        W26633  18.754  18.712  14.287
58304W        W26634  27.981   6.387   2.796
58305W        W26635  27.584  15.766   3.306
58306W        W26636  21.257   0.424  12.479
58307W        W26637  13.615  41.520  12.942
58308W        W26638  37.522  22.584   2.300
58309W        W26639   1.935  19.746  11.507
58310W        W26640  44.820   8.228   4.636
58311W        W26641   8.845  15.264   0.835
58312W        W26642  44.862  37.343   2.315
58313W        W26643   3.803  25.654  12.358
58314W        W26644  32.509   7.232  10.642
58315W        W26645  14.225   8.665  14.809
58316W        W26646  11.759  14.685   4.130
58317W        W26647   6.811   4.703   2.214
58318W        W26648  17.101  39.852   4.762
58319W        W26649  25.176  18.174   2.303
58320W        W26650   2.838  26.090  10.981
58321W        W26651   7.320  23.227  14.509
58322W        W26652  39.553  33.577   0.824
58323W        W26653  43.978  36.958  11.605
58324W        W26654  34.556  32.079   3.731
58325W        W26655   4.312  36.031   4.140
58326W        W26656  14.821  23.163  13.936
58327W        W26657  13.606   2.333  13.875
58328W        W26658  19.559  34.530  14.499
58329W        W26659   3.374  32.604   5.153
58330W        W26660  13.758  16.309  11.981
58331W        W26661  42.485  41.535   3.348
58332W        W26662  13.762  19.236  14.435
58333W        W26663  42.449  11.839  14.787
58334W        W26664  24.612  18.140   1.852
58335W        W26665   8.335  42.910  11.891
58336W        W26666  26.024   3.293  14.920
58337W        W26667  34.510   7.206   2.745
58338W        W26668  13.708  15.257   2.783
58339W        W26669  14.297  41.489  11.484
58340W        W26670  25.082  41.392   0.757
58341W        W26671  26.011   0.345  13.889
58342W        W26672  20.549  20.547  13.367
58343W        W26673  41.438  12.208   4.235
58344W        W26674  38.860  41.996   3.732
58345W        W26675  18.127  25.597   5.634
58346W        W26676  28.932  24.996   2.696
58347W        W26677   0.975   0.817   4.720
58348W        W26678  20.656  17.756   0.857
58349W        W26679   2.735  27.677   3.318
58350W        W26680  41.529  39.446   3.714
58351W        W26681   2.377  17.769  14.276
58352W        W26682  35.420   7.280   2.753
58353W        W26683  29.635  33.036   3.369
58354W        W26684  40.911  13.756  11.093
58355W        W26685  41.893  13.696  13.480
58356W        W26686   2.791  43.339  10.901
58357W        W26687   9.807  31.445  10.957
58358W        W26688   5.401  30.484  11.485
58359W        W26689  18.551  22.146   2.199
58360W        W26690  19.115   7.789  12.831
58361W        W26691  28.004  33.949  14.818
58362W        W26692  33.906  32.140   3.782
58363W        W26693  27.502  12.328  10.128
58364W        W26694   7.757   2.766   2.777
58365W        W26695  37.872   4.313   1.345
58366W        W26696  28.118  21.745   4.641
58367W        W26697  13.825  37.932   1.332
58368W        W26698  35.601  26.481   0.755
58369W        W26699  40.031  37.990   3.835
58370W        W26700   5.918   4.754  11.379
58371W        W26701   9.286  38.970   0.443
58372W        W26702  41.466  22.066   4.620
58373W        W26703   5.766   9.299   1.216
58374W        W26704   4.712  17.164  13.059
58375W        W26705  21.066   7.787  10.404
58376W        W26706  12.727   9.363   4.791
58377W        W26707   6.691  32.413  12.357
58378W        W26708  42.386  33.090  13.420
58379W        W26709  38.500  26.615   2.229
58380W        W26710  42.891  44.861   4.163
58381W        W26711   9.275  32.127   3.313
58382W        W26712  29.583  30.966  13.916
58383W        W26713   4.211   1.318   3.771
58384W        W26714  10.351  37.069  10.503
58385W        W26715  43.855   8.301   0.260
58386W        W26716  27.645  37.917  11.392
58387W        W26717   4.787   3.444   5.196
58388W        W26718  31.940  15.207   3.235
58389W        W26719  41.310  21.550   3.678
58390W        W26720  35.422  24.205   2.332
58391W        W26721  42.293  27.578   1.344
58392W        W26722  30.965   3.315  13.845
58393W        W26723   9.276   6.708   4.677
58394W        W26724  29.492   6.228  14.831
58395W        W26725   0.954  38.330  14.783
58396W        W26726  24.553  17.646   1.875
58397W        W26727  25.139  35.400   3.829
58398W        W26728   5.693   3.434   3.787
58399W        W26729  16.181  35.981  12.880
58400W        W26730   0.339   6.290  11.573
58401W        W26731  29.023  43.983  14.848
58402W        W26732  24.007   7.878   2.798
58403W        W26733  21.573  11.319  12.459
58404W        W26734   7.185  28.950  14.357
58405W        W26735  17.183  15.608  12.003
58406W        W26736  44.410  16.072   4.126
58407W        W26737   2.447  29.079  14.488
58408W        W26738  14.678  29.969   4.142
58409W        W26739  18.584  29.936   3.372
58410W        W26740  33.062  33.388   2.797
58411W        W26741  34.945  26.051  12.553
58412W        W26742  13.108  42.822  10.621
58413W        W26743  21.107  18.739  13.896
58414W        W26744   5.286  11.349   0.370
58415W        W26745  15.625  33.896   5.316
58416W        W26746   3.865  25.517  12.837
58417W        W26747  38.443   9.690  14.298
58418W        W26748  30.108  26.023  14.763
58419W        W26749  22.724  18.589  11.077
58420W        W26750  20.240  14.199   0.832
58421W        W26751  39.354   3.725   1.282
58422W        W26752  10.300  19.041   0.398
58423W        W26753  22.578  23.229  10.487
58424W        W26754  24.201  16.106  12.426
58425W        W26755  37.569  11.716   0.324
58426W        W26756  43.784   2.824  10.928
58427W        W26757  42.360   9.212   1.255
58428W        W26758  39.426  28.988   2.269
58429W        W26759  25.680  23.689   2.312
58430W        W26760  33.956  19.147   4.827
58431W        W26761  10.723  23.202   0.967
58432W        W26762  33.403  44.786  14.905
58433W        W26763   1.813  21.113   1.758
58434W        W26764  20.229   1.947  13.996
58435W        W26765  39.435  23.639  13.375
58436W        W26766  30.936  15.131   3.324
58437W        W26767  29.128  25.007   4.691
58438W        W26768  20.732  32.469  11.096
58439W        W26769  44.411   3.795   0.360
58440W        W26770  27.451   7.336   4.615
58441W        W26771   0.382  28.980   0.418
58442W        W26772  10.150  39.904   2.366
58443W        W26773  25.175  22.153   1.236
58444W        W26774   7.840  35.914   1.924
58445W        W26775   4.309  16.633  12.497
58446W        W26776   7.690   5.828   2.860
58447W        W26777  27.122   0.884   1.223
58448W        W26778  35.595  36.542  12.528
58449W        W26779  22.626  44.330   0.479
58450W        W26780   9.181  32.014   1.445
58451W        W26781  36.052  32.062   4.345
58452W        W26782  26.966  30.036   0.341
58453W        W26783  15.738  34.608  11.020
58454W        W26784  19.608   6.201  12.060
58455W        W26785   4.329   6.694  11.879
58456W        W26786  30.418  40.463  13.409
58457W        W26787   5.242   0.956   1.833
58458W        W26788   6.823  35.395  11.070
58459W        W26789  29.132  28.441   4.154
58460W        W26790   1.769   0.310  12.499
58461W        W26791  10.321  14.829   2.357
58462W        W26792  14.698  43.999   2.682
58463W        W26793  42.347   2.953   4.597
58464W        W26794  41.359   8.778   5.124
58465W        W26795  27.587  34.560   0.365
58466W        W26796  30.513  30.441  14.790
58467W        W26797  37.012  44.381  10.641
58468W        W26798  38.488  13.173  13.398
58469W        W26799  31.564   4.761   3.385
58470W        W26800   6.299  17.232   2.317
58471W        W26801  39.896   0.383   4.605
58472W        W26802  42.369  28.504   3.213
58473W        W26803  17.641   6.251   4.331
58474W        W26804   3.446  36.854  13.916
58475W        W26805  17.731  37.389  14.008
58476W        W26806  26.515   5.819  13.328
58477W        W26807  12.685   1.963  13.824
58478W        W26808  11.842  17.291   0.299
58479W        W26809  22.714   4.298   3.195
58480W        W26810  40.002  30.091  13.798
58481W        W26811   7.372  28.057  13.386
58482W        W26812  27.129  18.083   2.902
58483W        W26813   1.276  18.132   4.257
58484W        W26814  40.451  15.751   3.336
58485W        W26815   5.756  39.525   3.788
58486W        W26816   0.344  26.979  13.953
58487W        W26817  18.215  22.724  13.030
58488W        W26818  17.785  41.835   4.633
58489W        W26819  44.876  32.944   4.621
58490W        W26820  44.393  25.197  10.472
58491W        W26821  25.495  21.123  14.891
58492W        W26822   7.845  14.640   2.677
58493W        W26823   6.210  25.475   4.182
58494W        W26824  12.132  31.132  14.898
58495W        W26825  12.701  36.874   4.243
58496W        W26826  36.551  29.174  10.466
58497W        W26827  12.853  19.678   1.833
58498W        W26828   8.834   0.898   4.164
58499W        W26829  35.466  12.252   4.792
58500W        W26830   7.795  36.088   2.401
58501W        W26831  14.166  37.067   5.796
58502W        W26832   5.378  41.787   3.862
58503W        W26833   4.399  21.209  10.500
58504W        W26834  16.115  42.365  12.470
58505W        W26835  13.765  33.623  14.962
58506W        W26836  43.455   8.235   2.892
58507W        W26837  31.127  17.069   2.235
58508W        W26838  29.986  30.653   1.448
58509W        W26839  29.513  24.539   3.152
58510W        W26840  21.731  16.703   1.853
58511W        W26841  13.312   5.846   0.482
58512W        W26842   6.428   6.337  13.521
58513W        W26843  16.666  25.197   4.817
58514W        W26844  40.975  38.031   3.846
58515W        W26845  43.947  36.583  12.080
58516W        W26846  12.792  28.016   0.458
58517W        W26847  32.955  44.966  13.315
58518W        W26848  19.588  20.628  14.318
58519W        W26849  13.173   8.828  14.890
58520W        W26850  35.371  36.037   3.790
58521W        W26851  30.598  35.041   2.738
58522W        W26852   7.896  16.164  11.880
58523W        W26853  13.610  30.928  14.282
58524W        W26854   5.269   5.858  10.574
58525W        W26855  31.012   1.419  11.460
58526W        W26856  16.629  43.412  10.419
58527W        W26857  25.505  30.096   1.400
58528W        W26858  38.835   4.250  11.477
58529W        W26859  42.866  21.180   0.287
58530W        W26860  11.656  31.639  10.995
58531W        W26861   4.250  36.084   1.238
58532W        W26862  40.815  26.675   3.226
58533W        W26863  13.709   3.371  12.508
58534W        W26864   9.220  44.792   2.835
58535W        W26865   0.451  33.108  13.939
58536W        W26866  26.497   3.859   1.843
58537W        W26867  32.934   6.834  11.415
58538W        W26868  10.842  37.403   3.670
58539W        W26869  12.686  17.279   2.736
58540W        W26870  35.376  33.979   3.650
58541W        W26871  14.732  11.286   4.697
58542W        W26872  24.113  32.510  12.897
58543W        W26873  17.595   2.426   1.235
58544W        W26874   3.304   1.741  12.381
58545W        W26875  40.982  35.007   1.876
58546W        W26876  41.487  38.561  14.001
58547W        W26877  28.970   0.468  10.404
58548W        W26878   8.370  15.626   2.250
58549W        W26879  25.036  23.604  11.013
58550W        W26880  17.271  40.923   0.729
58551W        W26881  11.795   9.369  13.414
58552W        W26882  33.036  13.639   0.270
58553W        W26883  44.783  35.103  12.970
58554W        W26884  12.213  25.012  13.019
58555W        W26885  31.578  17.274  12.860
58556W        W26886  32.423  19.695   5.266
58557W        W26887   5.714  20.614   1.219
58558W        W26888   5.724   2.348  12.532
58559W        W26889  30.483   6.351   1.801
58560W        W26890  18.095  31.917   5.158
58561W        W26891  13.724  13.348   1.210
58562W        W26892  14.242   0.420  14.943
58563W        W26893  15.215  31.622   3.351
58564W        W26894   9.710  33.893   2.381
58565W        W26895  17.653  34.090  10.454
58566W        W26896  10.849  38.015  12.467
58567W        W26897  24.042   2.350   4.675
58568W        W26898   8.751  37.460   3.346
58569W        W26899  20.249  29.530   5.107
58570W        W26900  30.648  24.994  11.111
58571W        W26901  24.658  32.590   2.808
58572W        W26902  23.636  19.660   2.402
58573W        W26903  24.026  15.176   1.447
58574W        W26904  42.017   4.749   0.758
58575W        W26905  12.815   6.373  10.576
58576W        W26906  18.578  18.145   0.473
58577W        W26907  22.559   6.867   4.299
58578W        W26908  31.572   0.309  14.909
58579W        W26909  10.156  22.514   4.835
58580W        W26910  19.212  16.165  13.847
58581W        W26911  33.395  31.972   4.677
58582W        W26912  18.173  21.028   0.905
58583W        W26913  44.341  42.456   2.709
58584W        W26914  25.500  23.218   1.880
58585W        W26915  24.106  14.308   2.724
58586W        W26916  18.233  33.469  13.918
58587W        W26917  28.951  16.315   4.198
58588W        W26918  24.489   3.271  14.903
58589W        W26919  22.650   2.424   0.466
58590W        W26920  12.271   0.797  13.039
58591W        W26921  36.016  15.649   1.876
58592W        W26922  20.254  28.164  12.866
58593W        W26923  20.154   5.892   0.778
58594W        W26924  33.574  22.056  10.415
58595W        W26925   1.482   9.647  12.414
58596W        W26926   4.885  36.356  11.587
58597W        W26927  35.072  34.863   4.186
58598W        W26928  15.783  13.202   0.872
58599W        W26929   9.193  15.648   1.211
58600W        W26930  32.890  14.243  14.293
58601W        W26931  41.358  23.124   1.359
58602W        W26932  41.472  13.121  10.531
58603W        W26933  41.908  12.146  11.576
58604W        W26934  12.708  14.803  13.029
58605W        W26935   5.311  42.950  12.965
58606W        W26936   4.801  27.960   4.632
58607W        W26937   5.251  16.260  14.950
58608W        W26938   4.383  25.537   0.364
58609W        W26939   7.181   2.904   3.728
58610W        W26940  27.079   7.235   4.797
58611W        W26941  36.548  27.551  14.954
58612W        W26942   0.846  21.186   4.714
58613W        W26943  31.402  20.735  12.509
58614W        W26944  23.704   0.847   2.807
58615W        W26945   5.360  20.031   4.790
58616W        W26946   5.903  26.466  12.869
58617W        W26947  44.478   1.397  13.975
58618W        W26948  25.025  32.955   4.717
58619W        W26949  10.738  32.503   1.317
58620W        W26950  36.387  17.285  12.414
58621W        W26951   1.968  35.404  13.322
58622W        W26952   9.759  27.637   0.479
58623W        W26953   2.726   5.289   1.717
58624W        W26954  37.015  34.390   1.396
58625W        W26955  13.678  41.924   3.356
58626W        W26956  10.725   8.704  11.860
58627W        W26957  17.094  24.720   3.771
58628W        W26958   8.898  34.591  14.971
58629W        W26959  10.849  22.723   4.120
58630W        W26960  31.921  42.411   1.809
58631W        W26961   4.394  36.920   4.319
58632W        W26962  37.363  30.070  13.896
58633W        W26963  17.783  30.428   3.758
58634W        W26964   0.429  39.921  13.948
58635W        W26965  17.156  13.272  13.991
58636W        W26966  38.015  14.189   1.387
58637W        W26967   5.385   3.447   2.337
58638W        W26968  14.607  28.488   0.762
58639W        W26969  18.572  36.060  14.968
58640W        W26970  20.643   7.362   5.295
58641W        W26971   6.247  22.606   1.329
58642W        W26972   5.234  29.491   0.242
58643W        W26973  38.066  13.149   3.712
58644W        W26974  14.720  42.001  12.039
58645W        W26975  15.771   3.785  14.304
58646W        W26976   7.889  15.232  14.442
58647W        W26977   6.833  24.609  11.953
58648W        W26978  34.962  18.640   2.674
58649W        W26979  25.996   8.888   2.880
58650W        W26980  18.238   4.319  10.466
58651W        W26981  43.463  13.740   1.831
58652W        W26982  28.478  14.250  14.496
58653W        W26983   5.851  30.558  10.446
58654W        W26984  19.233  27.578   4.724
58655W        W26985  11.784  27.970   4.143
58656W        W26986  18.210  10.240  13.037
58657W        W26987  11.187  33.590   4.618
58658W        W26988  25.709  18.641  13.525
58659W        W26989   2.418  14.251   0.826
58660W        W26990  30.529  21.080  11.582
58661W        W26991  27.175  37.426  11.028
58662W        W26992  11.142  27.004   3.322
58663W        W26993  16.665  28.461  10.529
58664W        W26994  25.651  31.451   0.363
58665W        W26995   8.226   0.933  12.404
58666W        W26996  38.021   9.776   3.154
58667W        W26997  35.031  44.828  10.430
58668W        W26998  10.870  17.592   1.912
58669W        W26999   9.874  21.031  13.929
58670W        W27000   9.842  44.268  14.781
58671W        W27001   9.832  35.468  14.794
58672W        W27002  24.609  18.580  14.388
58673W        W27003  32.464  37.579   4.343
58674W        W27004  36.016  17.104  14.383
58675W        W27005  29.425   6.352  14.486
58676W        W27006   4.290   0.347  14.885
58677W        W27007   2.238  19.739  10.917
58678W        W27008   3.334  39.931   1.412
58679W        W27009  41.417  18.188   0.730
58680W        W27010  34.943   0.421  13.928
58681W        W27011   9.237  13.272   1.785
58682W        W27012  17.775  12.352   3.733
58683W        W27013  24.689  32.981   2.255
58684W        W27014  13.650   7.340  13.496
58685W        W27015  41.966  39.028  10.888
58686W        W27016  16.602  17.620  12.009
58687W        W27017  26.118   0.305   0.386
58688W        W27018  23.619  20.038  13.402
58689W        W27019   3.734  27.119  13.351
58690W        W27020  28.081   4.376  13.460
58691W        W27021  27.960  18.079  11.937
58692W        W27022  14.737  21.755  13.533
58693W        W27023  22.055  29.594   0.799
58694W        W27024  14.775  13.833  12.847
58695W        W27025   3.285  41.374  11.946
58696W        W27026  10.720   0.474   5.197
58697W        W27027   1.435   1.432   2.358
58698W        W27028  29.502  29.586  12.960
58699W        W27029  30.162  38.503   1.379
58700W        W27030   6.685   6.201   2.252
58701W        W27031  44.325   2.380   1.923
58702W        W27032  29.470  35.408   0.936
58703W        W27033   9.744  39.993   2.385
58704W        W27034   9.733  26.644   4.828
58705W        W27035  39.377   9.226  10.493
58706W        W27036  14.174  30.485   4.164
58707W        W27037  35.520  12.782  14.863
58708W        W27038  31.602  20.249  12.506
58709W        W27039  41.338  11.222   4.343
58710W        W27040   1.442  32.571  11.501
58711W        W27041  16.618   1.249  12.904
58712W        W27042  20.538  33.949   3.205
58713W        W27043  19.205  44.907   1.210
58714W        W27044  22.249   2.464   4.327
58715W        W27045  41.420  41.304   1.259
58716W        W27046  22.690  38.325   3.270
58717W        W27047  19.054  14.636   3.268
58718W        W27048  29.007  27.623  12.501
58719W        W27049  40.979  39.481  14.919
58720W        W27050   7.198   9.705   1.697
58721W        W27051  27.460  19.630  11.518
58722W        W27052  37.532  40.994  12.834
58723W        W27053   3.777  22.506  11.889
58724W        W27054  16.312  36.402   0.945
58725W        W27055  20.163   9.258  10.530
58726W        W27056  19.629   9.710  12.479
58727W        W27057  39.040  14.789  11.553
58728W        W27058  10.853  36.395   4.157
58729W        W27059  35.048  34.890  14.503
58730W        W27060  41.883  33.522  14.002
58731W        W27061  18.050  42.522   1.326
58732W        W27062  23.692  13.195   0.914
58733W        W27063   2.885  21.753   3.286
58734W        W27064  39.439  28.656   2.415
58735W        W27065  21.218  11.757   5.196
58736W        W27066  15.592  36.517  13.988
58737W        W27067  23.673  31.937  10.117
58738W        W27068  28.005  30.434   2.824
58739W        W27069  17.097  26.967  10.913
58740W        W27070  24.094  25.676   3.292
58741W        W27071  38.834  29.055   1.752
58742W        W27072  42.779  42.424   1.899
58743W        W27073  39.966   0.258  14.022
58744W        W27074  30.598  29.067  14.939
58745W        W27075  33.450  11.322  14.760
58746W        W27076   4.276  40.389   1.833
58747W        W27077   5.921  21.665  12.954
58748W        W27078   1.427  27.957   2.260
58749W        W27079  30.466  18.729  13.477
58750W        W27080  22.564  41.324   2.385
58751W        W27081  24.142  28.091   2.401
58752W        W27082  34.454  22.163  14.374
58753W        W27083  26.097  22.742   4.770
58754W        W27084  35.951   3.771   1.305
58755W        W27085  31.939  23.208   3.703
58756W        W27086  30.433   4.774   1.246
58757W        W27087  41.391  14.290  12.856
58758W        W27088   8.875   1.472   4.816
58759W        W27089  44.995   3.813  11.556
58760W        W27090  36.886  38.469  12.869
58761W        W27091  33.452  15.319  12.005
58762W        W27092  17.198   8.807   2.819
58763W        W27093  18.255  24.009   2.816
58764W        W27094  32.925  37.013  14.369
58765W        W27095  33.475  28.967   4.635
58766W        W27096   5.242  16.644   1.391
58767W        W27097   8.717  43.335   3.832
58768W        W27098  10.378  21.151  11.576
58769W        W27099   6.292  29.638  12.028
58770W        W27100  39.936   5.760   5.665
58771W        W27101  41.856  44.477  14.299
58772W        W27102  14.289  23.183   2.793
58773W        W27103  13.303  31.619   1.393
58774W        W27104  20.762  14.659   4.693
58775W        W27105  29.151   2.930   0.929
58776W        W27106  12.245  12.221   1.307
58777W        W27107  15.116  28.996   0.465
58778W        W27108  15.788   6.852   2.188
58779W        W27109  26.133  26.515  14.025
58780W        W27110  32.510   1.846   4.777
58781W        W27111  15.613  39.469   2.389
58782W        W27112  39.924  38.556  14.498
58783W        W27113   2.898  10.344   2.862
58784W        W27114  22.565  23.664   2.897
58785W        W27115   2.942  44.333  11.587
58786W        W27116  19.580  44.401  12.045
58787W        W27117  30.481  13.133  14.983
58788W        W27118  37.439   1.956  10.598
58789W        W27119  16.241  24.582  11.922
58790W        W27120  10.177  23.156   0.395
58791W        W27121  11.759  36.902   1.774
58792W        W27122  19.051  10.844  14.964
58793W        W27123  17.220   6.428   3.162
58794W        W27124  28.005  43.281   3.870
58795W        W27125  28.453  31.060   3.841
58796W        W27126   6.372  43.926  12.407
58797W        W27127   5.274   1.800   2.768
58798W        W27128  44.331  40.304   4.313
58799W        W27129  10.374  29.074   0.470
58800W        W27130  32.416  30.625  14.387
58801W        W27131  41.012  42.347  10.936
58802W        W27132  18.728  22.245  12.380
58803W        W27133  44.375  43.801   9.998
58804W        W27134  24.490   0.493  10.511
58805W        W27135  29.099  33.100   2.702
58806W        W27136   7.254   4.438   1.366
58807W        W27137  17.127  25.054  13.460
58808W        W27138   6.776  15.226  13.519
58809W        W27139  30.436  10.155  12.855
58810W        W27140  22.689  36.069  14.788
58811W        W27141  21.209  42.804  14.288
58812W        W27142  33.947  36.983  11.997
58813W        W27143   9.309   5.204  12.932
58814W        W27144  40.013  31.547   1.742
58815W        W27145   4.378  32.614   3.219
58816W        W27146  25.493  39.016   0.281
58817W        W27147   3.867  23.017  10.977
58818W        W27148  30.120  28.068   2.304
58819W        W27149  11.822  14.283   2.691
58820W        W27150  21.210  16.737  14.865
58821W        W27151  20.690  39.415  12.542
58822W        W27152  17.757  43.957   0.937
58823W        W27153  22.146  43.769   4.671
58824W        W27154  39.322  17.720  13.975
58825W        W27155  39.943  12.320  13.439
58826W        W27156  22.660  29.069  11.024
58827W        W27157   7.722  24.215   3.281
58828W        W27158  25.217   5.908  13.424
58829W        W27159  16.734   8.667  10.930
58830W        W27160  31.034  38.888   2.391
58831W        W27161  14.742  42.797   4.726
58832W        W27162  10.743  30.160  13.394
58833W        W27163  21.671  25.468  13.371
58834W        W27164   8.173   0.390   1.231
58835W        W27165  19.602  32.447  11.382
58836W        W27166   2.732  22.202   0.250
58837W        W27167  38.359  11.775   0.281
58838W        W27168  12.794  11.844   3.745
58839W        W27169  29.970   3.242   4.157
58840W        W27170  36.431  25.596  12.387
58841W        W27171   1.375  26.487   4.694
58842W        W27172  15.748   0.986  14.991
58843W        W27173  21.652  27.662  12.843
58844W        W27174  33.036  12.214   0.409
58845W        W27175   6.831  43.511   0.369
58846W        W27176  16.266  10.208  14.022
58847W        W27177   4.247  11.193  13.806
58848W        W27178  31.466  15.749  12.070
58849W        W27179  43.937  11.308   4.249
58850W        W27180  18.567  22.030  12.963
58851W        W27181  11.695  30.004   1.335
58852W        W27182  43.840  12.647   2.855
58853W        W27183  20.165  36.947   0.483
58854W        W27184  34.572   8.855  13.491
58855W        W27185  39.554   4.775  12.516
58856W        W27186  19.125  36.443   3.632
58857W        W27187  21.532   4.716   3.302
58858W        W27188  42.014  44.424   0.924
58859W        W27189  29.936  37.975  13.858
58860W        W27190  32.005  18.693   3.749
58861W        W27191  20.701  30.484  10.521
58862W        W27192  37.570   0.824   0.804
58863W        W27193  11.793  42.459   1.727
58864W        W27194  28.652   3.951  12.447
58865W        W27195   5.205  18.604  12.488
58866W        W27196   3.716  23.712   1.273
58867W        W27197   8.239  15.822   1.354
58868W        W27198   5.699  42.830   2.731
58869W        W27199  11.813   0.788   4.309
58870W        W27200   6.294  40.489  14.327
58871W        W27201  34.941  15.641  14.030
58872W        W27202   6.187  16.203  13.833
58873W        W27203  18.683   1.361   3.260
58874W        W27204  15.189  35.064   5.603
58875W        W27205  18.619  21.086   4.214
58876W        W27206   3.780  23.564   3.252
58877W        W27207  15.586  24.484  10.924
58878W        W27208   4.301  20.074   0.905
58879W        W27209   6.879  28.132  13.970
58880W        W27210  41.828  35.945   4.179
58881W        W27211   8.870  33.497  14.769
58882W        W27212  11.748  15.732   0.827
58883W        W27213  34.883  38.521   3.347
58884W        W27214  18.293  40.467  13.350
58885W        W27215   2.319  25.641   3.250
58886W        W27216  14.278  34.998   4.309
58887W        W27217   9.645  31.521   3.767
58888W        W27218  39.506  33.563   1.930
58889W        W27219  39.917   3.930   1.704
58890W        W27220  42.326  35.364  11.569
58891W        W27221  14.307   9.290  12.870
58892W        W27222   0.463  10.781   0.917
58893W        W27223  16.201  16.102   0.327
58894W        W27224   9.685  32.589   3.231
58895W        W27225  11.707  32.545  13.435
58896W        W27226  20.527  43.303  12.874
58897W        W27227   1.869  36.357   5.290
58898W        W27228  38.865  36.992   2.282
58899W        W27229  44.927   6.355  13.910
58900W        W27230  39.464  10.684   4.785
58901W        W27231  38.869   9.305   2.180
58902W        W27232  12.125   4.826  11.470
58903W        W27233   3.733  21.731   4.806
58904W        W27234   4.760   3.218  14.484
58905W        W27235  22.093  11.367   2.689
58906W        W27236  38.927   2.931   2.900
58907W        W27237   9.350  14.120  13.381
58908W        W27238  16.601   9.759  11.021
58909W        W27239  13.277  24.062  11.889
58910W        W27240  27.539  28.582  12.826
58911W        W27241   7.365  38.925   2.807
58912W        W27242  39.862   2.258   4.797
58913W        W27243   4.760  14.618  10.541
58914W        W27244  38.378   0.975  13.054
58915W        W27245   3.393  18.164  10.448
58916W        W27246   0.953  23.133  13.463
58917W        W27247  44.461   0.857  14.512
58918W        W27248  11.636   6.319   0.471
58919W        W27249  44.783  23.495  10.987
58920W        W27250  33.025  18.152  11.029
58921W        W27251  37.522  11.212  12.509
58922W        W27252  27.672  34.614  12.838
58923W        W27253  24.483  21.516  10.477
58924W        W27254  31.639  19.165   3.831
58925W        W27255   7.904  44.376  10.581
58926W        W27256  42.984  12.243  12.434
58927W        W27257  20.632  13.206  13.935
58928W        W27258  32.128   7.336  11.016
58929W        W27259  12.672  26.700   2.831
58930W        W27260  21.691  19.275   5.654
58931W        W27261  37.003  31.930  13.425
58932W        W27262  43.379  35.857   0.824
58933W        W27263  40.864  39.880   3.252
58934W        W27264  27.507  13.314  14.473
58935W        W27265  10.203  43.345   3.234
58936W        W27266  39.557  32.138  13.335
58937W        W27267  18.083  39.911   0.386
58938W        W27268   6.771   4.845   0.835
58939W        W27269   1.400  41.531  10.438
58940W        W27270  43.865  21.090   3.729
58941W        W27271   7.241  40.384   3.250
58942W        W27272  40.865  25.643   4.280
58943W        W27273  18.639  14.709   1.434
58944W        W27274  25.595  20.058   3.646
58945W        W27275   8.245  25.168  14.942
58946W        W27276   4.379   1.354   2.324
58947W        W27277  16.739   7.858   2.861
58948W        W27278  29.540  25.205  14.002
58949W        W27279   9.680  18.216   2.818
58950W        W27280  19.766  30.013   4.768
58951W        W27281   7.908  12.288  14.953
58952W        W27282   3.300  39.371   1.843
58953W        W27283  15.133   3.275  10.925
58954W        W27284  12.637  43.022  13.488
58955W        W27285  35.860  18.682   4.343
58956W        W27286  25.693   6.199   3.279
58957W        W27287  20.660  16.578  12.843
58958W        W27288  40.404  36.031  13.362
58959W        W27289  25.164  35.896  13.407
58960W        W27290   8.376   2.798   0.250
58961W        W27291  14.685  32.091  12.390
58962W        W27292   0.810  15.765   2.243
58963W        W27293  39.372  30.084  13.907
58964W        W27294  27.045   3.743  14.017
58965W        W27295  43.330  18.587   2.782
58966W        W27296  41.857   6.691  11.467
58967W        W27297  35.502  18.069  10.976
58968W        W27298  37.073  38.946  13.418
58969W        W27299  44.755  34.895  14.843
58970W        W27300  34.890  13.117   4.325
58971W        W27301  39.869  42.465  13.349
58972W        W27302  15.668   7.341  13.474
58973W        W27303  23.626  28.524   1.334
58974W        W27304  39.334  25.067   3.702
58975W        W27305  14.637  33.008   0.351
58976W        W27306  34.449  35.034   4.757
58977W        W27307  12.791   4.360  13.922
58978W        W27308  17.575  33.414   1.285
58979W        W27309  15.771   9.324   9.959
58980W        W27310   1.341  42.431  10.963
58981W        W27311  25.096  43.800  11.912
58982W        W27312  22.195   4.933  12.029
58983W        W27313  32.968  10.816  14.976
58984W        W27314  39.864  22.705   3.689
58985W        W27315  30.521   9.687  12.957
58986W        W27316  16.700   8.194   0.889
58987W        W27317   3.444  15.212  14.496
58988W        W27318  29.447  18.096   2.284
58989W        W27319  11.801  36.957   1.237
58990W        W27320  27.642  31.037   2.782
58991W        W27321  40.002  43.506   0.341
58992W        W27322   9.329  13.678   2.695
58993W        W27323  14.645  22.193   1.256
58994W        W27324  26.198  38.926   1.381
58995W        W27325   3.221   4.761   5.107
58996W        W27326  33.425  17.123  14.318
58997W        W27327   5.824   5.811   3.312
58998W        W27328  30.941   9.205  12.919
58999W        W27329  11.804   0.920   3.340
59000W        W27330  11.232  17.177  14.842
59001W        W27331  28.572  37.474   0.261
59002W        W27332   0.933  25.017  11.420
59003W        W27333   1.383  22.526   4.649
59004W        W27334  33.582  15.234   4.598
59005W        W27335  13.638  39.541   1.222
59006W        W27336   8.897   7.730  10.958
59007W        W27337  11.322  31.496  14.377
59008W        W27338  23.559   8.159   2.714
59009W        W27339  36.848  16.672   1.268
59010W        W27340  15.149  17.769   2.364
59011W        W27341  14.251  10.197  12.394
59012W        W27342  41.376   5.916   1.364
59013W        W27343  40.991  18.665  12.861
59014W        W27344  31.587   0.485  10.572
59015W        W27345  26.033  27.996   1.251
59016W        W27346   5.848   2.303  14.811
59017W        W27347  44.869  19.117  13.968
59018W        W27348   8.893   8.331  13.802
59019W        W27349   2.458  22.650   1.804
59020W        W27350  12.779  33.566   4.116
59021W        W27351  39.373  23.178   1.242
59022W        W27352  35.082  33.933  14.810
59023W        W27353  42.420   0.954   0.728
59024W        W27354  32.430   3.451  13.055
59025W        W27355  19.128   5.754   3.332
59026W        W27356  15.657  36.863   4.318
59027W        W27357  36.445  36.508  13.991
59028W        W27358  18.601   8.221   0.255
59029W        W27359   7.410  22.164  13.366
59030W        W27360  20.060  14.638   1.391
59031W        W27361   6.424  35.965   1.736
59032W        W27362   7.722   7.358  11.995
59033W        W27363   2.901  21.533  11.521
59034W        W27364   3.811  10.872  11.491
59035W        W27365  23.508   9.218   0.477
59036W        W27366  16.090  12.295   3.308
59037W        W27367   8.366  42.399   0.286
59038W        W27368  10.876  43.002   0.886
59039W        W27369  31.051   7.194   4.344
59040W        W27370  39.954  26.952   1.386
59041W        W27371  29.004  35.866  10.565
59042W        W27372  13.192   5.703  12.894
59043W        W27373  17.776  24.193   1.345
59044W        W27374  15.184  33.553   9.974
59045W        W27375  24.002  26.471   1.817
59046W        W27376   1.296  37.857   2.354
59047W        W27377   6.264   2.228   0.329
59048W        W27378  42.493   5.909   3.199
59049W        W27379  21.584  15.610   0.878
59050W        W27380   1.908  19.705   2.269
59051W        W27381  14.643  40.827   3.383
59052W        W27382  28.537  29.584  10.987
59053W        W27383  33.004  37.455   0.861
59054W        W27384   0.343  36.020   3.328
59055W        W27385  41.463  36.882   3.244
59056W        W27386  38.884   5.294   1.286
59057W        W27387   3.287   8.669  10.428
59058W        W27388  22.539   5.697  13.529
59059W        W27389  13.717  38.894   3.871
59060W        W27390  34.596  20.029   1.407
59061W        W27391  32.918  28.509   0.779
59062W        W27392   9.372  30.491   3.732
59063W        W27393   2.387  23.142   1.781
59064W        W27394  26.536  25.675   4.671
59065W        W27395  31.992  33.457  14.325
59066W        W27396  43.387  22.085  14.005
59067W        W27397   9.392  44.452   9.991
59068W        W27398  37.405  26.098  12.888
59069W        W27399  35.537  36.468   3.178
59070W        W27400  31.052   6.355  11.437
59071W        W27401  19.184   0.362   1.809
59072W        W27402  23.203  24.003   0.410
59073W        W27403  42.438  31.062   0.865
59074W        W27404  31.997  38.488  13.048
59075W        W27405  41.403  13.313   0.246
59076W        W27406  12.231   8.260   3.829
59077W        W27407   5.388  14.809  14.783
59078W        W27408  43.978  20.049  10.644
59079W        W27409   9.244   7.864   4.657
59080W        W27410  11.143  31.435  11.977
59081W        W27411  42.913  33.466   4.352
59082W        W27412  33.920  25.208  14.302
59083W        W27413  11.741  14.238   4.641
59084W        W27414  23.503  26.457   5.278
59085W        W27415  36.855  34.015   1.411
59086W        W27416  36.961  36.440  11.932
59087W        W27417  39.470  27.096   0.840
59088W        W27418  39.044  29.077  11.462
59089W        W27419  16.686  16.752  12.509
59090W        W27420  15.255  31.482   2.354
59091W        W27421  40.386  29.453   2.876
59092W        W27422  36.529  29.438  14.847
59093W        W27423  26.573  25.538   2.668
59094W        W27424  10.233  23.530  14.409
59095W        W27425  17.776  43.931  14.924
59096W        W27426  15.815  24.992   0.442
59097W        W27427  30.959   7.206  11.009
59098W        W27428  37.926   0.400   1.779
59099W        W27429  22.197  43.459  10.540
59100W        W27430  27.663  36.892  10.575
59101W        W27431  24.220  17.199  13.899
59102W        W27432  26.483  30.635  10.491
59103W        W27433   3.818   7.769   3.663
59104W        W27434  17.214  19.716   5.249
59105W        W27435   9.380  29.132  12.432
59106W        W27436  30.459  27.483  13.803
59107W        W27437   5.356  12.292   4.639
59108W        W27438  20.101  19.728   4.218
59109W        W27439  41.952  36.367   0.381
59110W        W27440  32.444  14.168   4.607
59111W        W27441   6.413  10.771   2.375
59112W        W27442   5.337  11.261  13.809
59113W        W27443  33.603  34.545  13.366
59114W        W27444  26.202  44.289   4.702
59115W        W27445   1.907  22.072   2.769
59116W        W27446  42.902  15.314  14.775
59117W        W27447  21.219  18.102   3.362
59118W        W27448  32.469   9.364   4.642
59119W        W27449  26.051   5.930   1.352
59120W        W27450   5.886  26.118  14.362
59121W        W27451  18.574   5.783   3.747
59122W        W27452  43.353  19.744  14.873
59123W        W27453  22.137  36.041  11.893
59124W        W27454   2.803   7.417  13.046
59125W        W27455  19.747  41.009   0.350
59126W        W27456  14.705  35.962   4.250
59127W        W27457   8.737  17.272  11.926
59128W        W27458   7.790   1.931   0.465
59129W        W27459   6.676  16.249  13.455
59130W        W27460  16.721  33.482   2.199
59131W        W27461  33.068  41.811  12.566
59132W        W27462  21.742  25.186   3.200
59133W        W27463  12.142  18.607  11.974
59134W        W27464   2.378  26.112  10.576
59135W        W27465  22.163  30.139   4.316
59136W        W27466  36.539   1.793   4.597
59137W        W27467  44.010   2.777   2.197
59138W        W27468  36.393  29.111   1.791
59139W        W27469  31.937   8.171   0.305
59140W        W27470   0.770   7.269   4.294
59141W        W27471   6.868  30.043  13.494
59142W        W27472  12.723   0.912   2.265
59143W        W27473  16.278  32.578  12.437
59144W        W27474  23.993  31.069   4.148
59145W        W27475  34.404  28.984  13.824
59146W        W27476  16.220  17.264   1.868
59147W        W27477  10.757  13.167  10.999
59148W        W27478   9.314  43.850   1.331
59149W        W27479  13.825   6.190  14.839
59150W        W27480   7.244  15.684  14.347
59151W        W27481  33.968  26.649  12.480
59152W        W27482   5.827   3.735  11.527
59153W        W27483  40.531  31.476  10.638
59154W        W27484  25.548  43.959  12.356
59155W        W27485  18.558  20.601  12.486
59156W        W27486  24.205  20.687   4.260
59157W        W27487  12.277   3.875   3.632
59158W        W27488  23.703  40.865   4.352
59159W        W27489  31.521  29.435  11.403
59160W        W27490  39.346  26.180   4.292
59161W        W27491  43.968   7.874  10.493
59162W        W27492  40.953  19.087  13.547
59163W        W27493   5.321  22.246  11.526
59164W        W27494   1.340  41.951  13.434
59165W        W27495  19.254  16.272   4.146
59166W        W27496  18.181  42.424   1.803
59167W        W27497  17.222  13.749  12.468
59168W        W27498  26.468  42.391  12.015
59169W        W27499  11.637  33.380  14.876
59170W        W27500  11.147  36.074  13.370
59171W        W27501   1.877  23.988  14.812
59172W        W27502   0.385  41.970  11.426
59173W        W27503  29.937  29.045  11.385
59174W        W27504  39.891  14.722   1.348
59175W        W27505  18.765  29.603   0.298
59176W        W27506   1.749  33.991   4.790
59177W        W27507  35.367  38.993  12.029
59178W        W27508  36.850   2.825  11.102
59179W        W27509  30.513  17.212   4.304
59180W        W27510   7.231  37.969   1.294
59181W        W27511  15.744  31.525   2.237
59182W        W27512  18.150  12.836  13.421
59183W        W27513   2.767  13.837   3.805
59184W        W27514  30.477  17.213  10.952
59185W        W27515  32.100   9.334   5.271
59186W        W27516   4.811   4.210   2.837
59187W        W27517  20.582  13.207   1.831
59188W        W27518  14.207  32.423  13.962
59189W        W27519   1.399  21.080   0.441
59190W        W27520   6.406  44.797   4.270
59191W        W27521   7.271   7.795  14.433
59192W        W27522   4.710  39.394  14.365
59193W        W27523  13.808  40.001   1.813
59194W        W27524  26.686  27.131  10.948
59195W        W27525   3.425  20.762  12.341
59196W        W27526  10.284  18.125  10.071
59197W        W27527  19.176  18.063  10.003
59198W        W27528  40.518   3.857   4.641
59199W        W27529  39.547  39.458  12.347
59200W        W27530  31.518  15.117  13.039
59201W        W27531  21.188  36.896   3.728
59202W        W27532  17.307  36.892   0.797
59203W        W27533  15.760  18.567   0.246
59204W        W27534  27.668  36.880   1.914
59205W        W27535  44.849  44.004   3.328
59206W        W27536   1.925  12.712   4.744
59207W        W27537  11.840   4.223  12.559
59208W        W27538  37.886   9.696  11.604
59209W        W27539  38.966   6.821   1.293
59210W        W27540  32.141  34.398  10.972
59211W        W27541  30.631  32.570  13.493
59212W        W27542   5.716  12.138   0.823
59213W        W27543  18.652  29.592   5.156
59214W        W27544  28.662  29.440   4.804
59215W        W27545   5.434  24.609   2.691
59216W        W27546   7.335  36.576   4.729
59217W        W27547   7.876   5.863   0.432
59218W        W27548   9.381   0.267  14.014
59219W        W27549  22.009  42.962   2.264
59220W        W27550  19.738   2.800  14.766
59221W        W27551  32.948  44.879   3.861
59222W        W27552  12.260  39.059  14.827
59223W        W27553  19.272  41.427  13.976
59224W        W27554  36.383  15.789  13.494
59225W        W27555  29.480  41.381   2.691
59226W        W27556   8.859   4.898  14.406
59227W        W27557  35.556  14.662  14.892
59228W        W27558   3.757   0.776  14.302
59229W        W27559  26.584  34.423  10.890
59230W        W27560  28.996   9.181  12.845
59231W        W27561  40.530  26.572  12.971
59232W        W27562  15.602  22.172  10.509
59233W        W27563  25.163  13.765  13.034
59234W        W27564  20.044  14.756   2.198
59235W        W27565  24.131  35.916   2.371
59236W        W27566   8.208  28.483  13.024
59237W        W27567  42.474  10.298  10.920
59238W        W27568   5.194  34.072   4.786
59239W        W27569  26.653  35.502   1.740
59240W        W27570  38.335  18.732   0.839
59241W        W27571  40.844  40.986  11.389
59242W        W27572   3.727  42.886  13.914
59243W        W27573  20.663  33.567   4.783
59244W        W27574  16.756  39.461   4.718
59245W        W27575   8.398   4.364   4.599
59246W        W27576  31.041   2.826   1.317
59247W        W27577  21.141  39.545   2.345
59248W        W27578   5.921  21.079   5.250
59249W        W27579  21.553  43.863   2.292
59250W        W27580  30.147  33.505  10.950
59251W        W27581  23.018   3.874  12.995
59252W        W27582  15.624  18.713  12.881
59253W        W27583   6.294  35.416  13.962
59254W        W27584  25.149  16.770   1.321
59255W        W27585  36.421  30.414   4.797
59256W        W27586  32.130  35.575   3.310
59257W        W27587  36.422  10.644   3.344
59258W        W27588  29.031   9.713  10.584
59259W        W27589   3.255  10.379   1.234
59260W        W27590  14.826  41.335   3.866
59261W        W27591  14.259  28.148   2.397
59262W        W27592  22.654  16.696  13.032
59263W        W27593  21.706  29.560  13.389
59264W        W27594  31.147  39.025  11.093
59265W        W27595  22.558  11.259  10.147
59266W        W27596  32.124  12.729  13.024
59267W        W27597  38.385   0.783  10.441
59268W        W27598   8.673  12.306   3.230
59269W        W27599  11.849  36.988   2.874
59270W        W27600  14.683   1.331   4.683
59271W        W27601  41.037  12.740  13.539
59272W        W27602  38.011   3.735   3.713
59273W        W27603  28.935  33.518   0.799
59274W        W27604   1.900  22.502  10.962
59275W        W27605  35.064   0.416  12.920
59276W        W27606   0.400   1.427   4.795
59277W        W27607  39.340   4.367   4.820
59278W        W27608  29.509  10.646  10.476
59279W        W27609  40.958  44.825   2.401
59280W        W27610  25.577   7.210   1.714
59281W        W27611   2.868  36.524  12.829
59282W        W27612   6.922  41.529   0.791
59283W        W27613  39.963  12.177   2.699
59284W        W27614  17.277  19.161   3.335
59285W        W27615  21.095   6.305   1.922
59286W        W27616  30.517  28.128   1.397
59287W        W27617  43.875   1.301   0.405
59288W        W27618  22.233  30.647   9.972
59289W        W27619  35.370  14.652  12.440
59290W        W27620  28.046  40.989  10.952
59291W        W27621  35.425   8.850  14.025
59292W        W27622  39.392   9.886   0.471
59293W        W27623  22.617  32.396  13.019
59294W        W27624  35.064  32.966  13.900
59295W        W27625  42.419  10.833   1.340
59296W        W27626  39.502  20.760  13.476
59297W        W27627  23.988  39.555   0.795
59298W        W27628  26.035  26.973   4.353
59299W        W27629  43.420  25.544   0.729
59300W        W27630   0.901  39.490  13.819
59301W        W27631  19.086  38.564  14.322
59302W        W27632  15.807  21.607  12.920
59303W        W27633   4.734  23.077   3.634
59304W        W27634  17.112   2.894   4.288
59305W        W27635   2.846   3.797   1.226
59306W        W27636  40.410  10.263  13.023
59307W        W27637  36.564  44.928   4.685
59308W        W27638  22.745  16.660   1.427
59309W        W27639  30.473   7.786  12.517
59310W        W27640   1.865  24.975  13.472
59311W        W27641   6.193  36.359   0.765
59312W        W27642  18.059   8.742   1.934
59313W        W27643  33.112  17.152   4.204
59314W        W27644  34.117   8.311   3.145
59315W        W27645   3.889  16.762   3.630
59316W        W27646  16.218   1.940   2.672
59317W        W27647   0.898  18.285  10.936
59318W        W27648  38.944  36.577   0.779
59319W        W27649  43.321  14.593  12.016
59320W        W27650  22.580  37.059  10.919
59321W        W27651   4.929  37.370   1.442
59322W        W27652  42.932   1.937   3.371
59323W        W27653  27.102   2.399   4.766
59324W        W27654  32.137  21.058  14.886
59325W        W27655  34.885  19.763   4.637
59326W        W27656   2.249  11.153  12.954
59327W        W27657  42.330   2.346   1.441
59328W        W27658   8.385  23.662   2.849
59329W        W27659  11.224   2.266   1.392
59330W        W27660  34.984  30.531   5.239
59331W        W27661  35.582  42.792  13.438
59332W        W27662   7.346   9.325   3.805
59333W        W27663   6.744  16.177   2.860
59334W        W27664  29.534  18.584  12.368
59335W        W27665  15.128   3.365  12.568
59336W        W27666  32.890   2.411  14.456
59337W        W27667   0.382  38.995  14.911
59338W        W27668  15.659  41.969  12.076
59339W        W27669  22.141  20.225   1.382
59340W        W27670  38.946  30.454  11.934
59341W        W27671  43.415  31.473   4.318
59342W        W27672  38.882  34.950   2.734
59343W        W27673  17.128   1.360  12.067
59344W        W27674   7.320   9.842   3.160
59345W        W27675  17.304  24.087   4.158
59346W        W27676  37.467   2.242  13.804
59347W        W27677  35.373  32.073   3.266
59348W        W27678  15.296  11.277  14.847
59349W        W27679  16.253  17.761   1.742
59350W        W27680  31.047  29.939  11.862
59351W        W27681  15.168  22.512   4.247
59352W        W27682   1.282  33.591  13.881
59353W        W27683   6.865  10.821  12.932
59354W        W27684  43.426  35.373  13.483
59355W        W27685   9.672  16.080  13.980
59356W        W27686  36.040  27.481  14.838
59357W        W27687  19.757  25.105   4.665
59358W        W27688  43.964  33.966   3.155
59359W        W27689  24.207  17.083   2.724
59360W        W27690  32.919  21.042   3.365
59361W        W27691  35.976  14.606  12.000
59362W        W27692   4.307   5.761   1.732
59363W        W27693   0.801  26.208  12.965
59364W        W27694  27.617   7.705  11.862
59365W        W27695  43.808  36.548  10.488
59366W        W27696  11.199   6.264   0.465
59367W        W27697  12.790  25.013  12.475
59368W        W27698  19.683  12.261   1.289
59369W        W27699  40.980   0.939   1.867
59370W        W27700   9.650   3.438   1.777
59371W        W27701  36.491  17.560   0.297
59372W        W27702  29.635  25.986  13.894
59373W        W27703  36.377  11.759   0.444
59374W        W27704  37.542  29.598  10.477
59375W        W27705  20.036  32.599   2.286
59376W        W27706   5.401  34.601  13.370
59377W        W27707   7.750  15.639   4.659
59378W        W27708  29.973  21.712   0.435
59379W        W27709  18.272  41.488  12.874
59380W        W27710  39.376  40.458  12.455
59381W        W27711  31.923  11.717  12.908
59382W        W27712   2.936  44.454  12.991
59383W        W27713  27.133   7.828   0.352
59384W        W27714  20.663  44.945  10.597
59385W        W27715   6.796   9.790  14.847
59386W        W27716  31.098   3.351  12.910
59387W        W27717   2.463  18.126   3.769
59388W        W27718  34.920   2.900   0.357
59389W        W27719  23.192   9.339  11.975
59390W        W27720   1.376  43.503  11.891
59391W        W27721  26.999   5.439  10.624
59392W        W27722  12.236  23.515   2.294
59393W        W27723  20.560  20.557   2.691
59394W        W27724  12.289  29.425  12.091
59395W        W27725  26.651  34.077  12.897
59396W        W27726  15.256  27.088   1.418
59397W        W27727  35.404  10.656  13.529
59398W        W27728  12.282  42.880  10.556
59399W        W27729  40.459  36.371   2.693
59400W        W27730  18.148  35.938  10.642
59401W        W27731   6.904  25.088   1.694
59402W        W27732  17.616  26.139   5.784
59403W        W27733   9.760  38.896  14.326
59404W        W27734  33.591  28.178   4.808
59405W        W27735  21.180  32.429   0.909
59406W        W27736  24.149  10.648  11.403
59407W        W27737  14.713  22.603  14.758
59408W        W27738  12.117  32.597   1.404
59409W        W27739  30.593  44.776  12.373
59410W        W27740  41.339   8.346  10.966
59411W        W27741  35.574  25.495  14.830
59412W        W27742  11.267   3.301  13.892
59413W        W27743  31.011  40.950   1.726
59414W        W27744   7.366  42.969  12.532
59415W        W27745  31.932  13.109   4.200
59416W        W27746  19.741  27.084  12.008
59417W        W27747  44.366  23.991  10.012
59418W        W27748  14.263  43.348  10.516
59419W        W27749  30.050  42.428   3.227
59420W        W27750   1.454   9.760   3.815
59421W        W27751   4.857  32.436  11.071
59422W        W27752  20.623  29.011   3.282
59423W        W27753  21.671   3.268   2.730
59424W        W27754   7.781  21.659  13.871
59425W        W27755   4.942  39.926   4.333
59426W        W27756   6.745  22.222  13.330
59427W        W27757  22.121  15.290  12.925
59428W        W27758  16.262   4.394  10.428
59429W        W27759  16.193  18.156   0.741
59430W        W27760   5.881  38.859   3.663
59431W        W27761  23.213  24.064  11.938
59432W        W27762  41.840  38.872  13.326
59433W        W27763   0.787  44.452   2.247
59434W        W27764  30.025  11.684  13.871
59435W        W27765  35.048  16.295  14.912
59436W        W27766  33.064  42.300  13.879
59437W        W27767   3.404   0.361   4.667
59438W        W27768  31.555  40.532  12.030
59439W        W27769  36.916  18.649  12.571
59440W        W27770  28.644  10.271   4.324
59441W        W27771  44.777  35.601  10.527
59442W        W27772  39.922  42.825  12.088
59443W        W27773   7.316  18.088  12.083
59444W        W27774   6.874  26.081  12.835
59445W        W27775  31.945   2.425  14.840
59446W        W27776  10.783   0.347  12.492
59447W        W27777  23.018   1.924  13.353
59448W        W27778   6.352  44.287  10.034
59449W        W27779  18.691   0.397   2.388
59450W        W27780  44.833  21.593   3.224
59451W        W27781  39.460   2.231  11.501
59452W        W27782   5.218  19.203  13.994
59453W        W27783  32.443  16.217   0.790
59454W        W27784  37.835  24.018   2.720
59455W        W27785   0.847  20.118   3.259
59456W        W27786  16.635  38.423   0.406
59457W        W27787  44.862  40.352  14.853
59458W        W27788   8.359  29.622  11.491
59459W        W27789  21.115  20.266  10.637
59460W        W27790   1.780  24.533  13.381
59461W        W27791   1.258  27.502   3.302
59462W        W27792  41.848   7.348   1.732
59463W        W27793  11.160  17.192  10.535
59464W        W27794  14.228  35.537   1.793
59465W        W27795  16.293  37.958   4.707
59466W        W27796  24.102   6.422   0.861
59467W        W27797  42.962  12.246   2.835
59468W        W27798  35.049  21.711  14.409
59469W        W27799   1.444   4.730  13.398
59470W        W27800   7.720  36.509   2.272
59471W        W27801  30.049  21.152  12.499
59472W        W27802  16.253  40.040   2.310
59473W        W27803  14.811   2.377   1.286
59474W        W27804  37.923   4.229   3.185
59475W        W27805  30.957  38.976  14.344
59476W        W27806   5.264   6.315   0.340
59477W        W27807   1.404  30.124  13.910
59478W        W27808  29.921   4.268  10.918
59479W        W27809  41.932  42.991  12.979
59480W        W27810  15.690  37.448   1.777
59481W        W27811  10.301  33.380   4.691
59482W        W27812   4.410   4.330   3.352
59483W        W27813  35.943   9.172  14.402
59484W        W27814  31.896  15.712  12.863
59485W        W27815  20.066  17.593  10.915
59486W        W27816  21.565  12.344   4.830
59487W        W27817  29.048  14.326  11.575
59488W        W27818   2.882  42.288  11.104
59489W        W27819   3.736   0.378   1.449
59490W        W27820  23.543  15.204   4.318
59491W        W27821  17.234  44.906  14.989
59492W        W27822  10.372  39.322  14.870
59493W        W27823  37.432   9.391  14.970
59494W        W27824  37.556  24.524   4.746
59495W        W27825  31.510  32.517   1.894
59496W        W27826  31.073  19.629  11.013
59497W        W27827  21.688   2.263   1.925
59498W        W27828  30.962  18.667   1.892
59499W        W27829  40.919   4.216   4.608
59500W        W27830  40.982  42.777   3.225
59501W        W27831  15.803  38.908  14.382
59502W        W27832  11.705  24.640   1.728
59503W        W27833  17.300  11.284  12.039
59504W        W27834  44.753  34.422  12.855
59505W        W27835  44.383  10.756   2.195
59506W        W27836  29.977  28.045   4.247
59507W        W27837  28.126  25.969   3.322
59508W        W27838  35.411   1.238   0.315
59509W        W27839  44.821  32.551   1.712
59510W        W27840  21.184  20.137  11.884
59511W        W27841  27.940   2.362   2.735
59512W        W27842  21.129  29.601   1.290
59513W        W27843  19.547   9.724  11.608
59514W        W27844  38.966   3.304  13.031
59515W        W27845   5.236  36.873   2.318
59516W        W27846  38.504  25.000   3.728
59517W        W27847   5.845  21.603  14.898
59518W        W27848  41.454  37.401  13.990
59519W        W27849   5.336  22.041   3.642
59520W        W27850  28.068  39.330  12.950
59521W        W27851  27.107  20.145  13.358
59522W        W27852  43.874  13.159  11.091
59523W        W27853  27.124  19.282  12.390
59524W        W27854   1.793  42.925   0.266
59525W        W27855  23.198  26.165   1.879
59526W        W27856  31.549  38.412  13.333
59527W        W27857  22.055  24.991   4.705
59528W        W27858   9.334  32.050   4.683
59529W        W27859  31.640  30.146  11.855
59530W        W27860   3.952  42.031  10.408
59531W        W27861  13.741  19.771  10.939
59532W        W27862  31.058  37.492   1.391
59533W        W27863  28.099  33.966   3.803
59534W        W27864   3.332  22.576   3.328
59535W        W27865  16.266  24.494   4.834
59536W        W27866  34.012  12.154  13.494
59537W        W27867  28.996   2.383  12.981
59538W        W27868  22.248  34.386  12.865
59539W        W27869  41.942  23.659   0.799
59540W        W27870  33.545  12.168   0.316
59541W        W27871  11.842  19.698   3.207
59542W        W27872  20.268   5.840   4.809
59543W        W27873  28.029   8.711   4.346
59544W        W27874  37.349  14.660  14.004
59545W        W27875  37.386   1.754   1.429
59546W        W27876  15.661  19.267   1.439
59547W        W27877  22.241  40.841   2.222
59548W        W27878  44.797  37.942   0.246
59549W        W27879   7.376  17.080   3.242
59550W        W27880  25.190  26.623  13.963
59551W        W27881  43.947  38.955  12.380
59552W        W27882  11.344  17.143  13.424
59553W        W27883  36.591  12.761  10.566
59554W        W27884  36.092  21.040  14.285
59555W        W27885  15.174  30.031  14.464
59556W        W27886   5.850  31.135  11.599
59557W        W27887  42.499  30.041   3.162
59558W        W27888  25.013   8.356  12.012
59559W        W27889   7.803   5.202   0.305
59560W        W27890   6.388   3.330  10.580
59561W        W27891  13.269   6.816  14.282
59562W        W27892  29.962   6.238   1.709
59563W        W27893  34.070  44.380  14.443
59564W        W27894   2.838  31.574   0.792
59565W        W27895  23.160  23.619   2.199
59566W        W27896  25.528  14.146   4.143
59567W        W27897  28.082   9.648   4.301
59568W        W27898  19.753   3.732  13.948
59569W        W27899  10.850  32.456  14.354
59570W        W27900   2.793  33.073   3.191
59571W        W27901  41.873   9.310  13.524
59572W        W27902  17.756  10.279   1.328
59573W        W27903   7.345  25.595   4.123
59574W        W27904  28.980  38.470   1.885
59575W        W27905  30.995   8.239   0.261
59576W        W27906  41.396   0.327   2.258
59577W        W27907  41.328  12.666   4.315
59578W        W27908  42.350   1.761  14.460
59579W        W27909  33.569   0.891  12.947
59580W        W27910  25.151  18.155  11.410
59581W        W27911  30.108  33.494   3.855
59582W        W27912   6.231   1.432   1.391
59583W        W27913  37.030  36.416  13.483
59584W        W27914  30.595  25.187   4.320
59585W        W27915  35.449   6.251  14.332
59586W        W27916  22.552  35.536   0.296
59587W        W27917  25.145  15.122  12.504
59588W        W27918  36.556   0.441   0.736
59589W        W27919  32.521   9.225  11.901
59590W        W27920   5.839   0.350  13.456
59591W        W27921   6.806  31.151  13.918
59592W        W27922  28.993  33.614  13.325
59593W        W27923  41.020  43.829   4.756
59594W        W27924  10.712  28.653  10.959
59595W        W27925  39.003  18.708  10.507
59596W        W27926  14.339  44.003   2.293
59597W        W27927  40.505  21.099  10.146
59598W        W27928  29.078  40.038  12.019
59599W        W27929   0.835  26.469   2.203
59600W        W27930  17.104  16.119  13.812
59601W        W27931  16.171  42.505  11.537
59602W        W27932  13.284  35.457  12.859
59603W        W27933  19.673   4.286  11.411
59604W        W27934   4.829  33.101   4.829
59605W        W27935  37.373  19.631  11.409
59606W        W27936  43.508  34.098   3.722
59607W        W27937   9.252  35.858   0.411
59608W        W27938  13.296  32.557  11.429
59609W        W27939  28.986   8.260   0.874
59610W        W27940  32.485  17.140   1.859
59611W        W27941  42.401  33.568   4.140
59612W        W27942  21.592  19.229   0.317
59613W        W27943  16.181  15.651   2.375
59614W        W27944  36.044  12.320  13.062
59615W        W27945  11.304  41.315  13.846
59616W        W27946  39.831   6.336  14.028
59617W        W27947  22.109  18.770  10.605
59618W        W27948  19.197   1.804  14.461
59619W        W27949  35.076   6.751   2.877
59620W        W27950  38.416  34.876  10.530
59621W        W27951  24.988  29.978  14.940
59622W        W27952  35.948  26.990   0.427
59623W        W27953  34.019  39.967   4.281
59624W        W27954  10.253  41.820  12.541
59625W        W27955  40.395  42.457   2.704
59626W        W27956  18.251   2.881   0.242
59627W        W27957   6.906  40.951  14.469
59628W        W27958   6.722  24.165   2.194
59629W        W27959   3.378  21.066   1.252
59630W        W27960  22.072  13.673   3.296
59631W        W27961  19.106  41.823  12.900
59632W        W27962  35.428  22.014  14.855
59633W        W27963   9.774  44.380  12.542
59634W        W27964  22.607  32.440  11.918
59635W        W27965  42.015   3.439   4.156
59636W        W27966   5.846  16.182  14.024
59637W        W27967  23.675  12.133   4.216
59638W        W27968  40.327  43.000   9.951
59639W        W27969  28.610  23.119   2.894
59640W        W27970  10.352  37.885   3.295
59641W        W27971  30.431  16.299  13.367
59642W        W27972  39.900  12.629  11.881
59643W        W27973  20.140   6.340   1.845
59644W        W27974  10.236  25.066  12.957
59645W        W27975   3.756  28.665  10.572
59646W        W27976   9.782   0.933   4.348
59647W        W27977   8.754  36.364  11.379
59648W        W27978  13.115   7.841  14.503
59649W        W27979   5.752   0.320  10.511
59650W        W27980  11.307  16.309  12.575
59651W        W27981  10.293  39.560  12.935
59652W        W27982  41.497   8.198   0.789
59653W        W27983  23.584  34.961  11.372
59654W        W27984   8.756  20.230  13.536
59655W        W27985   5.336  29.124   3.688
59656W        W27986  40.438  37.342   4.284
59657W        W27987   6.747  33.624   3.326
59658W        W27988  12.257  27.026   0.832
59659W        W27989   3.797   2.229   0.890
59660W        W27990  38.376  17.708  14.023
59661W        W27991  20.673  16.114   5.723
59662W        W27992  10.150   2.883  14.281
59663W        W27993  29.591  39.514  13.428
59664W        W27994  32.552  44.884   0.838
59665W        W27995   4.850  21.683  14.376
59666W        W27996  40.905  19.209   1.386
59667W        W27997   4.277  33.954  10.561
59668W        W27998   6.843  13.838   2.890
59669W        W27999   7.708  10.339   1.743
59670W        W28000  42.382  28.498   1.740
59671W        W28001   2.895  12.713   0.476
59672W        W28002  34.595  35.387  13.353
59673W        W28003   0.419  30.096   0.789
59674W        W28004  41.798  42.400   2.230
59675W        W28005   8.288  26.017   3.645
59676W        W28006  37.565   5.252  13.943
59677W        W28007   3.434  35.584  10.121
59678W        W28008  43.872  16.120   1.370
59679W        W28009   2.790   0.473   4.746
59680W        W28010   8.327  42.911  14.315
59681W        W28011  10.163  21.757  14.288
59682W        W28012  44.862  28.642  13.472
59683W        W28013   6.235  25.494   2.719
59684W        W28014  12.721  14.804   3.659
59685W        W28015  39.986  43.770  11.953
59686W        W28016  42.441  14.725  12.998
59687W        W28017  23.065  27.575  13.378
59688W        W28018  16.664  22.128   4.154
59689W        W28019   1.777  31.426   2.823
59690W        W28020  33.448  40.390  10.935
59691W        W28021   3.255  18.166   1.330
59692W        W28022   8.396  26.606  11.402
59693W        W28023  39.390  23.110  11.532
59694W        W28024  35.037  22.019   1.302
59695W        W28025   9.206  37.465  14.350
59696W        W28026  29.605  39.840   3.661
59697W        W28027  29.134  33.520  11.098
59698W        W28028  32.591  19.185   0.451
59699W        W28029   8.849  22.515  11.393
59700W        W28030  16.149  19.204   1.385
59701W        W28031  19.182  23.233   3.282
59702W        W28032  24.710  16.629   4.759
59703W        W28033  28.000  20.554   4.790
59704W        W28034   6.841  33.540   3.836
59705W        W28035  35.916   7.802   1.294
59706W        W28036  34.473  35.982  14.774
59707W        W28037  28.937  27.524  12.975
59708W        W28038  16.093  10.836  12.069
59709W        W28039   0.849  30.415   1.756
59710W        W28040  23.089  30.065  11.488
59711W        W28041  10.694  20.592   0.268
59712W        W28042  31.003  40.387   2.304
59713W        W28043  38.346  43.926   1.423
59714W        W28044  28.949  27.504   1.227
59715W        W28045  34.937  26.669   1.763
59716W        W28046  14.166   5.271   2.293
59717W        W28047  13.279  11.688  12.028
59718W        W28048  39.327  39.813  12.377
59719W        W28049  25.648   6.732  14.315
59720W        W28050  25.962  28.481   4.221
59721W        W28051  42.823  34.029   2.386
59722W        W28052  12.640  43.867  10.915
59723W        W28053  37.433   5.718   3.207
59724W        W28054  32.591  32.631  12.353
59725W        W28055  36.954  11.694  10.591
59726W        W28056  17.644  28.995   1.752
59727W        W28057  43.274  14.745   0.414
59728W        W28058  23.167  38.854   4.637
59729W        W28059  27.950   3.316   0.483
59730W        W28060   8.661  10.725   3.207
59731W        W28061   5.211  38.449   4.752
59732W        W28062  25.011   7.228   1.752
59733W        W28063  17.138  34.392  10.015
59734W        W28064   9.890  34.938   2.832
59735W        W28065   8.289  24.041   3.238
59736W        W28066  39.062  27.975   1.398
59737W        W28067  32.080  13.676  13.900
59738W        W28068   4.717   8.830  11.000
59739W        W28069  42.898   0.379   1.317
59740W        W28070   5.260  34.588   2.893
59741W        W28071  37.351  37.830  12.027
59742W        W28072  30.057  40.807   2.902
59743W        W28073   3.722  12.298  14.845
59744W        W28074   7.878  27.485   2.663
59745W        W28075  32.067  41.811   3.365
59746W        W28076  27.487  24.688  11.483
59747W        W28077   3.806  34.440  14.353
59748W        W28078  15.302   0.348   0.352
59749W        W28079   7.750  15.735   0.929
59750W        W28080  26.005  31.063  11.510
59751W        W28081  41.406  19.265  13.058
59752W        W28082  39.810  14.600  12.574
59753W        W28083   9.644  40.928   2.246
59754W        W28084  12.339   6.783  14.480
59755W        W28085  39.823  20.579   4.222
59756W        W28086  31.965   4.212  14.931
59757W        W28087  33.530  32.452   2.384
59758W        W28088  11.788  25.505   0.832
59759W        W28089  29.535   4.361   3.800
59760W        W28090   2.341  11.712   1.812
59761W        W28091  37.912   9.179   4.725
59762W        W28092  34.370  19.659  14.795
59763W        W28093  25.528  40.883  14.014
59764W        W28094  27.042  34.378  12.973
59765W        W28095   0.755   0.458   4.794
59766W        W28096  20.230   1.930   1.222
59767W        W28097  22.088  18.115  14.021
59768W        W28098  34.600   1.944   0.460
59769W        W28099  14.233  43.899   1.215
59770W        W28100   9.327  18.721  11.564
59771W        W28101   8.740   6.829   4.269
59772W        W28102  18.563  33.510   3.639
59773W        W28103  20.713  43.278  12.453
59774W        W28104  19.564  16.250  12.550
59775W        W28105  10.378  10.659   4.354
59776W        W28106   7.911  35.970   9.936
59777W        W28107  19.067   8.173  13.862
59778W        W28108   8.239  25.699  14.967
59779W        W28109  42.964  11.654   0.893
59780W        W28110  13.734  29.471   3.212
59781W        W28111  14.265  29.514  12.527
59782W        W28112  14.109  13.217   4.300
59783W        W28113   6.246  12.341   4.747
59784W        W28114   5.694   9.187  12.539
59785W        W28115  35.871   7.387  11.059
59786W        W28116  27.094  30.963   2.345
59787W        W28117  32.499  34.932  10.558
59788W        W28118  26.073   5.746   2.825
59789W        W28119  32.944  10.800  12.550
59790W        W28120  16.583  44.985  14.284
59791W        W28121  36.079  40.415   2.759
59792W        W28122  33.947   5.363   2.313
59793W        W28123  10.252  26.078  13.892
59794W        W28124  44.803  41.355  10.553
59795W        W28125  11.697  26.996   4.797
59796W        W28126  41.933  16.211   0.940
59797W        W28127  43.012  36.874   1.896
59798W        W28128  20.258  28.132  12.538
59799W        W28129  20.529  37.562  10.539
59800W        W28130  42.334  43.349   3.700
59801W        W28131  20.631   1.762  13.481
59802W        W28132  27.075  15.274  11.957
59803W        W28133  24.586  30.635   0.430
59804W        W28134   6.770  30.578   0.818
59805W        W28135  11.776  10.701  14.515
59806W        W28136  33.058   1.451  13.837
59807W        W28137  20.257  10.200  14.824
59808W        W28138  31.610  34.387  14.973
59809W        W28139  43.410   3.432  13.356
59810W        W28140   3.724   7.312   4.801
59811W        W28141  26.457  11.695   0.832
59812W        W28142  25.492  21.198   0.729
59813W        W28143  23.502   8.310  13.482
59814W        W28144  18.094  14.208  10.558
59815W        W28145  28.003  15.276  11.963
59816W        W28146  31.991  34.392  14.995
59817W        W28147  20.138  11.273   3.784
59818W        W28148  19.662  35.388   0.383
59819W        W28149   5.754  42.804   1.292
59820W        W28150  41.995  38.878   0.928
59821W        W28151  35.448   3.443   3.641
59822W        W28152  36.355  43.804   0.267
59823W        W28153  33.382   2.915   2.359
59824W        W28154  18.590  35.534  12.955
59825W        W28155   4.825  18.576  13.824
59826W        W28156  25.015  29.933   4.235
59827W        W28157   1.931   0.936  12.500
59828W        W28158  39.982  15.785  12.897
59829W        W28159  38.819  15.084   3.799
59830W        W28160  18.191  19.178   0.728
59831W        W28161  37.919   4.892  11.478
59832W        W28162  26.603  43.320  13.011
59833W        W28163  30.497  11.767   0.351
59834W        W28164   7.737   6.388   4.779
59835W        W28165  30.541  29.018   2.291
59836W        W28166  30.604  43.790   2.311
59837W        W28167   5.688  31.929  10.086
59838W        W28168  39.913  43.014   1.820
59839W        W28169  36.391  12.711   3.809
59840W        W28170  17.709  15.112   1.773
59841W        W28171  38.974  40.375   0.435
59842W        W28172  17.792  34.955  13.015
59843W        W28173  24.181  33.123  10.592
59844W        W28174   1.378  38.334   0.900
59845W        W28175  25.662   3.449  10.036
59846W        W28176  12.116  39.472  10.633
59847W        W28177  30.449  28.567  12.844
59848W        W28178  21.091  29.541   0.256
59849W        W28179  38.355  38.405  10.972
59850W        W28180  33.587  24.566   3.838
59851W        W28181  25.697  19.673  13.467
59852W        W28182  44.922   2.908  10.419
59853W        W28183  22.179  39.318  11.443
59854W        W28184  40.995   3.259  10.966
59855W        W28185  17.200  29.019  10.046
59856W        W28186  35.859  14.202   0.310
59857W        W28187  27.510   5.359  12.884
59858W        W28188  25.712  16.299   1.254
59859W        W28189  36.372  39.507   4.281
59860W        W28190  20.082  30.608   5.191
59861W        W28191   8.205  37.915  10.500
59862W        W28192  27.008  18.263   0.892
59863W        W28193  34.549  38.405  13.826
59864W        W28194  42.026  38.062   4.350
59865W        W28195  13.607   1.304  13.892
59866W        W28196  10.678  42.022   2.894
59867W        W28197  24.007  43.286   2.698
59868W        W28198   8.167  17.679   1.256
59869W        W28199   9.393   2.762   0.868
59870W        W28200  30.573  13.783   2.382
59871W        W28201  19.663  21.654   4.784
59872W        W28202   5.861  18.220   4.290
59873W        W28203   9.365  14.122   0.442
59874W        W28204  20.574  37.422   9.995
59875W        W28205  27.160  32.996   0.424
59876W        W28206  42.282  17.149  12.547
59877W        W28207  10.330  44.504   4.184
59878W        W28208  11.252  15.323   4.831
59879W        W28209   1.823  25.532   1.259
59880W        W28210  39.863  38.488   3.333
59881W        W28211  25.517   5.861  14.288
59882W        W28212  29.981   2.247  11.070
59883W        W28213  14.818  32.627   4.750
59884W        W28214  22.582   2.328   1.830
59885W        W28215  19.272  14.685  12.830
59886W        W28216  14.598  43.918  11.499
59887W        W28217  19.568  12.734  11.479
59888W        W28218  16.101  39.995  11.875
59889W        W28219  21.112  15.730   0.451
59890W        W28220  21.673  44.803   4.260
59891W        W28221   6.399   7.689  14.030
59892W        W28222  31.612   9.800  12.029
59893W        W28223  44.930  11.205   0.963
59894W        W28224   3.256  38.480  14.405
59895W        W28225   0.303  14.174  11.532
59896W        W28226  36.842  31.136   2.257
59897W        W28227  28.525   1.329  10.592
59898W        W28228   0.425  23.652  12.522
59899W        W28229  35.922  24.224  12.554
59900W        W28230  36.936  10.158  14.417
59901W        W28231  16.604  14.211   3.237
59902W        W28232   1.374   5.406  14.504
59903W        W28233  31.417  17.646  12.005
59904W        W28234   6.340  40.499   4.227
59905W        W28235   5.896  28.675   1.746
59906W        W28236   9.389  34.957   3.733
59907W        W28237  24.609  15.778   4.203
59908W        W28238  14.256  12.630  14.275
59909W        W28239  25.990  13.829  14.010
59910W        W28240  12.693  34.467  10.588
59911W        W28241  10.691  24.679  10.586
59912W        W28242  39.950  27.004  13.510
59913W        W28243  24.100  20.609   3.679
59914W        W28244   3.746  17.111   1.868
59915W        W28245   5.764  12.692   3.742
59916W        W28246   0.493   3.830  11.018
59917W        W28247   2.759  42.380   2.342
59918W        W28248  40.894   0.469  12.887
59919W        W28249   5.421  22.203   2.686
59920W        W28250  33.980  13.343   0.863
59921W        W28251  33.608  10.382   1.324
59922W        W28252  17.793  38.393  11.509
59923W        W28253  15.201  40.483   4.637
59924W        W28254   7.848   2.756  13.956
59925W        W28255   9.860  20.089   2.687
59926W        W28256  36.435  32.053  11.038
59927W        W28257  30.029   6.918   1.733
59928W        W28258   1.365  15.696   3.870
59929W        W28259  28.539  39.386   2.756
59930W        W28260   4.874  22.738   4.297
59931W        W28261  36.508  18.558  13.018
59932W        W28262  23.234  19.208   2.871
59933W        W28263  14.637  19.633   3.356
59934W        W28264  37.925  40.499   1.353
59935W        W28265  41.987  23.494  10.414
59936W        W28266  10.781  38.882  11.027
59937W        W28267  40.373  34.977  10.513
59938W        W28268  24.061  23.551  10.410
59939W        W28269  23.704  28.628   1.696
59940W        W28270  23.492  14.108  11.913
59941W        W28271  11.259  35.854   0.395
59942W        W28272  14.216  36.915   2.691
59943W        W28273  14.264  18.620   2.853
59944W        W28274   2.273  31.077   1.406
59945W        W28275  21.731  29.536  12.978
59946W        W28276  17.079   7.724   1.277
59947W        W28277  24.501  23.178   0.464
59948W        W28278  11.313  40.954  10.565
59949W        W28279  39.913  41.924   0.769
59950W        W28280  13.752  43.318  11.932
59951W        W28281  37.896  40.387  10.417
59952W        W28282  22.530  39.015  13.437
59953W        W28283   6.300   4.730   0.845
59954W        W28284  24.692   6.815   4.275
59955W        W28285  43.380  21.719  13.933
59956W        W28286  39.442  19.071   0.381
59957W        W28287  24.216  13.275   3.724
59958W        W28288  16.171  11.373   0.727
59959W        W28289   5.714  14.827  13.050
59960W        W28290  31.500  40.993   3.766
59961W        W28291  10.828  40.333  12.542
59962W        W28292  31.075  35.072  12.549
59963W        W28293   8.197   5.246   1.804
59964W        W28294  14.740  21.148   5.138
59965W        W28295  21.636   7.364   9.984
59966W        W28296  36.522  33.436   0.325
59967W        W28297  16.774  10.757   4.294
59968W        W28298  34.009   1.473   1.287
59969W        W28299  30.551  38.434  14.514
59970W        W28300  39.397  39.974   1.858
59971W        W28301  12.840  27.657   3.304
59972W        W28302  21.087  13.207  11.516
59973W        W28303  22.234  44.974  12.556
59974W        W28304  37.992  10.659  13.309
59975W        W28305  37.567   2.845   0.435
59976W        W28306  19.100  19.636   4.341
59977W        W28307  16.142  33.104   1.238
59978W        W28308  16.786  10.217  12.355
59979W        W28309   0.854  30.067   2.191
59980W        W28310  27.147  19.231   0.804
59981W        W28311  14.804   1.933   3.740
59982W        W28312  40.036  18.090   3.314
59983W        W28313  37.983  14.275   5.293
59984W        W28314  20.581  22.676   0.868
59985W        W28315  21.048  22.583   4.725
59986W        W28316  32.495  17.234   2.242
59987W        W28317  31.632  35.873   4.822
59988W        W28318  23.543   5.195  13.400
59989W        W28319  27.466  22.141  14.014
59990W        W28320  28.595   4.226  10.597
59991W        W28321  32.615  34.464  12.030
59992W        W28322  23.663   7.716   3.364
59993W        W28323  22.713   2.856   2.839
59994W        W28324  36.886  44.762  14.296
59995W        W28325  37.915  34.549  14.479
59996W        W28326   1.788  41.897  10.567
59997W        W28327  25.704  18.296   0.406
59998W        W28328  40.366  14.170  11.915
59999W        W28329  14.106  14.662  10.474
60000W        W28330  36.348  44.472   3.183
60001W        W28331  16.285  43.473  14.938
60002W        W28332  19.243   4.395   0.784
60003W        W28333  30.958  39.487   2.191
60004W        W28334   1.260  29.937   4.682
60005W        W28335  31.423  26.179   0.790
60006W        W28336  26.099   1.382   0.427
60007W        W28337  26.030  40.413  13.824
60008W        W28338  20.710  17.205  14.325
60009W        W28339  38.999  21.221   4.615
60010W        W28340  38.482  39.347   0.249
60011W        W28341  35.523  16.246  14.903
60012W        W28342  12.182  29.076  12.963
60013W        W28343  36.461  36.386   4.312
60014W        W28344  29.461   2.274   2.807
60015W        W28345  10.381   1.811  13.492
60016W        W28346  27.062   0.314   1.252
60017W        W28347  26.183   7.189  13.050
60018W        W28348  15.277  12.628  12.948
60019W        W28349  19.746  14.138   0.287
60020W        W28350   6.769  18.073  10.427
60021W        W28351   9.169  36.370   0.291
60022W        W28352   7.221  23.220  13.835
60023W        W28353  38.517  17.252   3.771
60024W        W28354  42.522  41.792   3.231
60025W        W28355  23.709  37.557  12.828
60026W        W28356   0.902   0.834  11.043
60027W        W28357  32.029  44.994   3.846
60028W        W28358   6.692  43.419  10.502
60029W        W28359  44.756  41.493   4.629
60030W        W28360  15.251   3.343  10.485
60031W        W28361  14.193   6.849  12.465
60032W        W28362  22.033   6.910   1.882
60033W        W28363  23.205  29.082  12.429
60034W        W28364  43.465  15.650   3.376
60035W        W28365   6.762  30.096  14.001
60036W        W28366  26.012  43.967   1.337
60037W        W28367  29.014  22.017  10.412
60038W        W28368  26.075  17.106  14.959
60039W        W28369  19.676   9.860  13.800
60040W        W28370  22.100  11.784   2.711
60041W        W28371   8.866  15.616  10.894
60042W        W28372  34.054  18.746  11.920
60043W        W28373   0.435  29.136   2.348
60044W        W28374  36.078   4.760   5.171
60045W        W28375  41.455  24.096   1.792
60046W        W28376  35.855  35.446   2.299
60047W        W28377   9.158  44.951  12.493
60048W        W28378  31.601  42.812  10.896
60049W        W28379  20.623  23.101  12.965
60050W        W28380  12.178  42.871   1.348
60051W        W28381  27.655  18.791  14.874
60052W        W28382  33.518   8.660   1.847
60053W        W28383  27.519  40.932  13.410
60054W        W28384  18.219  41.996   3.822
60055W        W28385  22.084   1.329  13.384
60056W        W28386  25.115  37.982   4.344
60057W        W28387  40.314  43.892  11.109
60058W        W28388  13.155  44.442   0.352
60059W        W28389  22.658  21.169  14.832
60060W        W28390  23.696  23.590   0.888
60061W        W28391  10.664  17.731  12.927
60062W        W28392  15.696  22.502   5.130
60063W        W28393  38.492  27.481   2.884
60064W        W28394  27.665  44.884   2.341
60065W        W28395  40.803  44.464   0.796
60066W        W28396  16.651   1.803  11.559
60067W        W28397   4.744  43.331  13.040
60068W        W28398  28.938  29.435   4.199
60069W        W28399  41.482  20.228   3.352
60070W        W28400   1.403  16.102  13.983
60071W        W28401  27.517  29.438  11.978
60072W        W28402  34.556  28.559   2.274
60073W        W28403  25.647   6.755  11.466
60074W        W28404   1.871  41.415   1.342
60075W        W28405  38.944   6.354   0.959
60076W        W28406  31.475   7.767   1.903
60077W        W28407  30.124  34.073   3.633
60078W        W28408  26.611  34.448   2.211
60079W        W28409  23.652   4.880  13.922
60080W        W28410   1.250  32.570   0.247
60081W        W28411  44.913  25.551   0.286
60082W        W28412  14.599  34.380  12.409
60083W        W28413  25.089  14.826   1.265
60084W        W28414   1.929  19.744  11.918
60085W        W28415   3.259  40.916   2.399
60086W        W28416  32.899  43.891  11.403
60087W        W28417  39.860  37.854   2.200
60088W        W28418  25.660  21.615  13.883
60089W        W28419  30.026   8.769  12.489
60090W        W28420  34.914   1.902   3.337
60091W        W28421  20.669  30.969   3.151
60092W        W28422  15.802  13.768   0.389
60093W        W28423  34.055  29.133   4.807
60094W        W28424  38.003   0.364   2.196
60095W        W28425  43.855  24.209   3.764
60096W        W28426  40.490   0.818  12.020
60097W        W28427  20.084  17.789  13.441
60098W        W28428  15.245  22.710  12.364
60099W        W28429  21.216   0.315   2.875
60100W        W28430  24.089  27.619   1.807
60101W        W28431  21.226  22.244  13.035
60102W        W28432   7.686   3.321  12.070
60103W        W28433  12.655  42.371   3.263
60104W        W28434  33.512   3.729   1.324
60105W        W28435  23.080  40.802  13.817
60106W        W28436  26.994  39.439  10.983
60107W        W28437  33.555  22.583   1.261
60108W        W28438  29.439  32.127   4.170
60109W        W28439   4.854   6.280   5.223
60110W        W28440  32.562  33.095  13.353
60111W        W28441   4.355   2.798   1.217
60112W        W28442   6.409  44.335   3.776
60113W        W28443   2.863  39.876  10.573
60114W        W28444   1.396   4.897  11.904
60115W        W28445   0.351  22.094   3.696
60116W        W28446  36.440  33.059   2.251
60117W        W28447  13.781  38.464   3.349
60118W        W28448  26.471   5.702  14.945
60119W        W28449  13.653  12.627   4.614
60120W        W28450   2.252  17.077   3.255
60121W        W28451  23.240  28.673  14.810
60122W        W28452  32.084  16.676  14.832
60123W        W28453  17.261   6.754  12.462
60124W        W28454  34.472  37.847   2.822
60125W        W28455  40.956  10.649  13.443
60126W        W28456   5.354  41.932  11.377
60127W        W28457   8.849  43.436   1.854
60128W        W28458   2.309   9.362   2.814
60129W        W28459  17.284   7.896  14.290
60130W        W28460  39.009   6.194   4.181
60131W        W28461  13.666  33.065   3.822
60132W        W28462  19.070  41.449  14.871
60133W        W28463  28.061  23.039  13.496
60134W        W28464  25.017  11.813  10.979
60135W        W28465  10.847  25.075  13.379
60136W        W28466  29.521  22.043   1.236
60137W        W28467  39.422  26.698   3.374
60138W        W28468  37.454  13.264   3.242
60139W        W28469  14.224  32.042  12.895
60140W        W28470   1.836  21.639   4.314
60141W        W28471   5.382  11.335  13.470
60142W        W28472   6.898   4.246   0.341
60143W        W28473  30.112   7.371   0.962
60144W        W28474  21.050  30.567  10.623
60145W        W28475  41.467  12.118   3.212
60146W        W28476   4.914  28.026   0.799
60147W        W28477  35.478  42.379  12.489
60148W        W28478   0.383  28.968   4.337
60149W        W28479  42.318  29.561   3.705
60150W        W28480  10.716   9.732   2.813
60151W        W28481  16.288  37.503   3.338
60152W        W28482  21.140  23.190   1.799
60153W        W28483   1.341  38.992  10.453
60154W        W28484  27.489  14.731  14.322
60155W        W28485   2.887  18.086  10.955
60156W        W28486  30.096   2.722   4.613
60157W        W28487  36.379   9.794  13.455
60158W        W28488  39.425  42.917  12.058
60159W        W28489  24.118   4.766  10.901
60160W        W28490  33.901  32.113  12.984
60161W        W28491  40.802  35.541   0.818
60162W        W28492  16.688   0.418  14.809
60163W        W28493  37.022  43.473  14.829
60164W        W28494   4.405  36.090  11.870
60165W        W28495  36.589  26.588   2.801
60166W        W28496  41.508   9.179   1.376
60167W        W28497  36.591  40.806   2.318
60168W        W28498  38.897  16.629   1.344
60169W        W28499  41.458  20.171  13.889
60170W        W28500  13.798  13.808  10.437
60171W        W28501  24.163   7.379   1.883
60172W        W28502  26.117  25.653  13.804
60173W        W28503   5.199  15.816  14.516
60174W        W28504  42.868   5.933  14.306
60175W        W28505  17.130  32.397  14.399
60176W        W28506  23.713  12.181   0.742
60177W        W28507  38.998   6.811   5.263
60178W        W28508  35.042   9.213   2.345
60179W        W28509  30.584  26.044  11.027
60180W        W28510  10.634  17.158   4.270
60181W        W28511   4.707  10.840   3.366
60182W        W28512  31.994  30.049  14.896
60183W        W28513  35.063  28.086   0.955
60184W        W28514  31.011  28.016   3.308
60185W        W28515  23.020  11.841  10.420
60186W        W28516  22.092   2.940  14.003
60187W        W28517  39.336  11.184  13.485
60188W        W28518   2.283  12.283   3.715
60189W        W28519  29.997  42.799   2.726
60190W        W28520   1.964  29.499  10.979
60191W        W28521  17.789  21.195   1.274
60192W        W28522  42.305   7.273  13.459
60193W        W28523  31.492  39.472   1.797
60194W        W28524  33.599   9.687  12.565
60195W        W28525  17.289  44.264  11.934
60196W        W28526  11.649  13.810   0.817
60197W        W28527   5.770   7.203   2.347
60198W        W28528   1.971  12.171   0.901
60199W        W28529  25.487  11.227   1.330
60200W        W28530  23.223  34.063   4.158
60201W        W28531  40.440  14.264   3.384
60202W        W28532   4.876  13.276   2.816
60203W        W28533  40.327  14.758  11.029
60204W        W28534   8.682  33.427   0.248
60205W        W28535  39.948  15.734   0.405
60206W        W28536  17.291  34.090  14.858
60207W        W28537  16.647  19.592   1.336
60208W        W28538  40.353  31.564   1.447
60209W        W28539  21.654  12.184   0.830
60210W        W28540  29.460  42.513  11.374
60211W        W28541  43.430   2.434  10.444
60212W        W28542   0.419  43.868  11.521
60213W        W28543   0.862   4.404   1.232
60214W        W28544  11.311  23.528  12.460
60215W        W28545  27.499  12.305  11.975
60216W        W28546   4.721  11.128   3.668
60217W        W28547  23.569  16.809  12.827
60218W        W28548  36.848  43.912  14.773
60219W        W28549  21.118   6.825  14.815
60220W        W28550  13.753  18.547   2.283
60221W        W28551  32.483  12.734   1.321
60222W        W28552   0.887  37.525  10.008
60223W        W28553  10.278  24.070  10.495
60224W        W28554  14.232  21.547   4.695
60225W        W28555   2.918   7.765   1.266
60226W        W28556   3.869  31.948  11.468
60227W        W28557  19.585  20.176   4.216
60228W        W28558  39.315   9.164   5.217
60229W        W28559  32.607  43.441  12.060
60230W        W28560  27.035  27.484  11.599
60231W        W28561  24.492   4.747   4.259
60232W        W28562  25.097   6.912   2.378
60233W        W28563   1.969   8.803   1.278
60234W        W28564  14.669  24.124  13.937
60235W        W28565   0.932   8.844   0.421
60236W        W28566  23.167  32.594   1.331
60237W        W28567  21.024  28.635  11.561
60238W        W28568  38.005  31.030  12.940
60239W        W28569   8.885   8.793   4.787
60240W        W28570  23.606  35.998   4.315
60241W        W28571  41.899  44.299   1.787
60242W        W28572  12.797  43.999  13.439
60243W        W28573  20.148   7.788   4.753
60244W        W28574  34.410  35.889  12.012
60245W        W28575  29.570   7.197  11.925
60246W        W28576  34.437  13.281  12.416
60247W        W28577  16.213  19.232  13.432
60248W        W28578  15.148   2.380  14.799
60249W        W28579  10.763  20.188   4.816
60250W        W28580  25.021  13.148   1.806
60251W        W28581  14.278  39.414  13.937
60252W        W28582  11.185  16.758   1.780
60253W        W28583  34.602  21.171   2.398
60254W        W28584  42.004  14.667   3.849
60255W        W28585  18.559  38.884  14.502
60256W        W28586  21.227  42.023  11.392
60257W        W28587   7.257  15.183  14.307
60258W        W28588  11.216   2.323   3.223
60259W        W28589  27.984  16.806  11.383
60260W        W28590   3.883   4.936   1.760
60261W        W28591   3.331  44.922  12.367
60262W        W28592   1.797  42.466   1.264
60263W        W28593  42.994  27.657  14.011
60264W        W28594  18.637  27.004   3.336
60265W        W28595   3.825  35.584  11.060
60266W        W28596  42.491   3.356  11.394
60267W        W28597  42.870  37.087   3.190
60268W        W28598   2.953  19.585  13.876
60269W        W28599  34.495  40.836   4.784
60270W        W28600   8.705  10.845   0.447
60271W        W28601  37.468  19.619   2.746
60272W        W28602  40.525  24.694   1.297
60273W        W28603   3.783  42.335   1.398
60274W        W28604  41.889  39.383   4.198
60275W        W28605  27.951  20.574  12.354
60276W        W28606  18.288  17.771  12.063
60277W        W28607  24.514  39.380   3.306
60278W        W28608  44.880  12.288  13.372
60279W        W28609  41.016  16.106   0.317
60280W        W28610  33.027  32.396  13.481
60281W        W28611  25.055  21.610   3.165
60282W        W28612  14.634  16.781  12.085
60283W        W28613  27.449  23.053  12.038
60284W        W28614  21.228   1.478  14.357
60285W        W28615  39.979  43.350   4.312
60286W        W28616  24.222  36.022   4.823
60287W        W28617  34.103   2.829  11.044
60288W        W28618  23.132  36.407  10.903
60289W        W28619  31.648  32.077   0.244
60290W        W28620  40.363  14.136   4.719
60291W        W28621  25.190  30.142  11.963
60292W        W28622   5.277  33.407   0.356
60293W        W28623  37.883  26.581   4.824
60294W        W28624  14.657  34.920   3.230
60295W        W28625   1.429  35.463   3.630
60296W        W28626  34.377  38.834  13.941
60297W        W28627  32.060  17.223  10.586
60298W        W28628  18.656  16.278  14.401
60299W        W28629   2.315  34.915  13.356
60300W        W28630  11.624  44.920  11.123
60301W        W28631  33.049  29.640  13.321
60302W        W28632   2.410   2.284   3.150
60303W        W28633   9.735   7.410  14.030
60304W        W28634  20.211  28.942   4.780
60305W        W28635  35.893  43.783   4.716
60306W        W28636  24.534  37.526  12.497
60307W        W28637  25.205  21.061  11.543
60308W        W28638   7.195   1.479  13.958
60309W        W28639  20.030  20.264  12.847
60310W        W28640  20.709  36.964   0.337
60311W        W28641   0.266  15.742   3.856
60312W        W28642  29.973  41.406   1.838
60313W        W28643  12.649  21.107   3.181
60314W        W28644  22.654  25.519  13.380
60315W        W28645  31.419  41.918  13.825
60316W        W28646   4.396  44.974   2.686
60317W        W28647  16.632  13.249  14.393
60318W        W28648  34.955  26.969   2.399
60319W        W28649  15.185  34.867  11.577
60320W        W28650  18.549  36.551   4.689
60321W        W28651  34.548  29.013  10.587
60322W        W28652  27.954  25.612  11.093
60323W        W28653  22.130  22.678  12.570
60324W        W28654  29.004  37.952   3.720
60325W        W28655   3.281  37.929  14.437
60326W        W28656   8.226  27.155   0.839
60327W        W28657  17.649   7.414   4.187
60328W        W28658  28.098  42.009   0.394
60329W        W28659  42.983  31.413  13.834
60330W        W28660  33.129  37.946   2.821
60331W        W28661  27.506  44.780   4.245
60332W        W28662  43.857  25.534   4.621
60333W        W28663   2.773  34.415  11.469
60334W        W28664   2.383  15.176  11.098
60335W        W28665  19.778  24.587  13.908
60336W        W28666  27.469  24.078   4.655
60337W        W28667   6.776  17.176   0.903
60338W        W28668   5.834  40.361   4.348
60339W        W28669   7.416   5.260  11.573
60340W        W28670  42.928   0.417  10.069
60341W        W28671  22.707  30.123  13.456
60342W        W28672  11.709  44.803  14.425
60343W        W28673   0.364  17.737  12.355
60344W        W28674  21.038   7.776   9.947
60345W        W28675   7.301  19.756  11.996
60346W        W28676  36.983  18.733   2.234
60347W        W28677  23.702   1.481  14.360
60348W        W28678   6.395  10.357  12.063
60349W        W28679  35.023  29.454  14.854
60350W        W28680  37.404   3.876  13.460
60351W        W28681  26.586  14.802  11.495
60352W        W28682   8.840  38.879  13.483
60353W        W28683   1.299  42.854   1.277
60354W        W28684   3.260   1.465   0.419
60355W        W28685   7.244  30.953   1.254
60356W        W28686  18.256  41.504  13.465
60357W        W28687  38.905  32.980  12.955
60358W        W28688  15.186  27.104   3.299
60359W        W28689  33.071   3.249   5.298
60360W        W28690  16.113  42.873  10.443
60361W        W28691  32.451  11.153   3.782
60362W        W28692  29.539  35.977   3.346
60363W        W28693  39.382   8.813   4.600
60364W        W28694  10.309  44.988  13.056
60365W        W28695  40.945  28.944  14.843
60366W        W28696  38.953   0.291  10.479
60367W        W28697  20.547  13.140  11.414
60368W        W28698   6.195  18.175   3.152
60369W        W28699   3.913  36.530  12.859
60370W        W28700   3.338  44.982  11.587
60371W        W28701   3.379  18.180  14.419
60372W        W28702  44.963  40.005   2.834
60373W        W28703  20.201  42.506   2.231
60374W        W28704  13.737  29.581   2.902
60375W        W28705  25.711  24.977   2.411
60376W        W28706   2.446  34.056  10.554
60377W        W28707  14.633  18.271   0.817
60378W        W28708  32.531   6.791   0.932
60379W        W28709   4.701   6.907   4.136
60380W        W28710  32.575  38.901   2.762
60381W        W28711  14.335  25.491   5.198
60382W        W28712   9.173  41.954  11.964
60383W        W28713  17.155  24.692  10.598
60384W        W28714   2.861  27.989   1.694
60385W        W28715  38.824  16.273   2.818
60386W        W28716   9.300  13.784   4.675
60387W        W28717   2.239   4.232  13.813
60388W        W28718  30.972  28.590   3.787
60389W        W28719   5.246   9.160  13.840
60390W        W28720   4.384  26.547   1.422
60391W        W28721  14.315  11.267  11.977
60392W        W28722  17.610  21.684  11.005
60393W        W28723  23.021  32.520  11.875
60394W        W28724  30.988  32.097   1.294
60395W        W28725  29.460   4.795   0.804
60396W        W28726  15.730  17.165   2.411
60397W        W28727  24.102   4.408  11.914
60398W        W28728  27.139  18.598   1.237
60399W        W28729  24.073   2.311   2.292
60400W        W28730  38.355  10.781  11.474
60401W        W28731  12.300   7.673  12.073
60402W        W28732  35.429  28.535  14.990
60403W        W28733   0.822   9.325  12.476
60404W        W28734  18.562  27.029  13.804
60405W        W28735  35.465  32.967  11.072
60406W        W28736   3.440  31.555   4.781
60407W        W28737   3.219  43.308  14.764
60408W        W28738  14.296  43.964  12.370
60409W        W28739  40.821  27.447  10.494
60410W        W28740  31.938  34.986  14.834
60411W        W28741  30.423  25.045   2.345
60412W        W28742   5.419  14.144  10.528
60413W        W28743   1.361   9.801  11.934
60414W        W28744  40.874  13.151   2.335
60415W        W28745  15.796  34.574  10.523
60416W        W28746  12.652  32.063   1.276
60417W        W28747  36.401  32.452  11.910
60418W        W28748  24.166  11.135   4.265
60419W        W28749  10.859  33.009   4.246
60420W        W28750  39.354   8.398   4.658
60421W        W28751  37.971  29.997  12.874
60422W        W28752  37.046  17.271   2.861
60423W        W28753  37.874  22.634  11.496
60424W        W28754  18.777   0.262  12.089
60425W        W28755  31.574   3.401  12.923
60426W        W28756  29.444   8.356  13.406
60427W        W28757  36.415  12.348  14.279
60428W        W28758  32.636   1.908  13.036
60429W        W28759  20.723  21.236  14.769
60430W        W28760  19.677  43.946  14.848
60431W        W28761  41.845   3.947  14.837
60432W        W28762  39.524  34.922   3.154
60433W        W28763  28.599  28.678   2.209
60434W        W28764  15.729   4.295  10.120
60435W        W28765  35.101   4.748   3.181
60436W        W28766  18.710  44.423   3.335
60437W        W28767  29.003   5.349  10.479
60438W        W28768  10.150   9.806   4.176
60439W        W28769  31.591  16.162   4.252
60440W        W28770  33.932  13.784   2.834
60441W        W28771  31.635   2.948   3.639
60442W        W28772  26.651   3.789   0.965
60443W        W28773  39.428  32.400  10.903
60444W        W28774  15.767  21.527   3.671
60445W        W28775   3.915  41.514   3.651
60446W        W28776  22.109  41.399   3.812
60447W        W28777  15.802  38.862  13.525
60448W        W28778  12.624  40.495  14.986
60449W        W28779  30.959  20.615   3.239
60450W        W28780  25.006  24.993  10.921
60451W        W28781  14.333   5.774   4.784
60452W        W28782  11.356  18.056   3.752
60453W        W28783  39.540  39.052  11.982
60454W        W28784   7.691  40.944  13.895
60455W        W28785   7.836  17.169  10.039
60456W        W28786  31.036  12.682   1.720
60457W        W28787  40.545  14.746   4.823
60458W        W28788  17.286  34.995   0.841
60459W        W28789  23.580  25.645  12.013
60460W        W28790   7.176  27.467   2.729
60461W        W28791   2.465   4.768  12.899
60462W        W28792   5.918  14.718   3.201
60463W        W28793  31.526  30.073  10.890
60464W        W28794   3.411   5.365   2.707
60465W        W28795  23.730  12.360   4.698
60466W        W28796  17.138  38.560  13.063
60467W        W28797   6.772  27.151   3.866
60468W        W28798  31.063  33.030  11.095
60469W        W28799  43.347  37.520   3.225
60470W        W28800   4.942  10.152   3.156
60471W        W28801  29.161  23.241  10.546
60472W        W28802  15.176   3.930  14.442
60473W        W28803  29.077  27.579   4.319
60474W        W28804  33.507  34.105   4.175
60475W        W28805  38.520  26.485  14.463
60476W        W28806  26.466  18.597   0.932
60477W        W28807   6.729   4.862  14.942
60478W        W28808  34.872  21.603   0.737
60479W        W28809  15.672   6.677   4.150
60480W        W28810   2.801   8.733   1.932
60481W        W28811  23.190  16.619  11.376
60482W        W28812  25.110   7.865   3.795
60483W        W28813  18.634  34.937  13.379
60484W        W28814  23.128  23.700   4.163
60485W        W28815  18.563   9.337   2.282
60486W        W28816  24.009   8.756  10.558
60487W        W28817  20.599  42.006  14.458
60488W        W28818  25.080  32.518  14.937
60489W        W28819  17.161  22.197   2.716
60490W        W28820   7.778  14.667  12.919
60491W        W28821  12.823   3.263   3.244
60492W        W28822  13.796  14.817   0.345
60493W        W28823  12.320  11.740   2.241
60494W        W28824   5.415  43.918  11.467
60495W        W28825   9.754  25.218  13.843
60496W        W28826  20.736   6.864  10.571
60497W        W28827  35.455  13.117   3.783
60498W        W28828  26.691  35.879   3.842
60499W        W28829  40.516   1.958  13.865
60500W        W28830  35.042  13.192  10.452
60501W        W28831  43.376  17.241   3.319
60502W        W28832  16.632  20.700   1.409
60503W        W28833   6.831  13.815  12.467
60504W        W28834   3.790  35.054   0.784
60505W        W28835  14.639  34.956   2.262
60506W        W28836  12.746   2.867  13.937
60507W        W28837  31.495  33.027   2.805
60508W        W28838  19.240  36.581  13.877
60509W        W28839  13.147  21.180  12.035
60510W        W28840  31.509  23.528   1.365
60511W        W28841  31.967   4.879   0.860
60512W        W28842  43.997  18.110  13.347
60513W        W28843   0.331  36.052  13.897
60514W        W28844  19.714  22.655   3.645
60515W        W28845   7.806  19.118   1.826
60516W        W28846  13.646  18.180  11.966
60517W        W28847  32.098  22.047  10.547
60518W        W28848  14.337  18.264  11.089
60519W        W28849  29.152  32.920  10.508
60520W        W28850   5.290  21.060   3.637
60521W        W28851  18.205  11.338   0.759
60522W        W28852  13.300  40.314   3.661
60523W        W28853  25.606  12.625  10.009
60524W        W28854  30.108  38.981   1.374
60525W        W28855  41.461  11.247  14.880
60526W        W28856  32.973  12.703   3.372
60527W        W28857  25.973  29.547  12.995
60528W        W28858   9.744  24.494  12.014
60529W        W28859  34.533  27.962   4.796
60530W        W28860  42.964  42.940  12.032
60531W        W28861  36.890   9.726  11.523
60532W        W28862  10.373  42.525   0.769
60533W        W28863  15.256  10.352  10.978
60534W        W28864  31.008  19.181   5.705
60535W        W28865  38.902   9.745  12.889
60536W        W28866  26.525  31.587  13.818
60537W        W28867  30.952  21.609  14.330
60538W        W28868  16.801  25.688   0.804
60539W        W28869  36.389  27.607   4.689
60540W        W28870   0.356  17.613  11.468
60541W        W28871  41.362  16.712  13.327
60542W        W28872   3.443  27.044   2.262
60543W        W28873   0.968  20.052   0.737
60544W        W28874  39.954  26.551   3.702
60545W        W28875  18.224  17.176  13.055
60546W        W28876  31.456  29.642   4.291
60547W        W28877  39.513  24.009  14.852
60548W        W28878   4.730  41.435   2.238
60549W        W28879  23.660  11.709   3.267
60550W        W28880  13.823  33.022   4.711
60551W        W28881  19.190  42.393  12.503
60552W        W28882  43.767  34.015   0.247
60553W        W28883  29.984  24.188   1.373
60554W        W28884  11.329  42.362   1.318
60555W        W28885  39.951  34.018   3.745
60556W        W28886   8.881   9.820   3.696
60557W        W28887   4.761  43.925   9.971
60558W        W28888   1.392  14.217  13.977
60559W        W28889  17.595   5.273   4.753
60560W        W28890  13.191   5.227   0.476
60561W        W28891   5.361   7.736   3.347
60562W        W28892  20.262  34.877   2.670
60563W        W28893   5.405  34.956  12.883
60564W        W28894  40.442  25.642  13.332
60565W        W28895  16.276  22.162  14.872
60566W        W28896  24.670   9.699   0.256
60567W        W28897  21.582  21.054   0.251
60568W        W28898  32.014   9.751   3.820
60569W        W28899  27.652   6.406  11.448
60570W        W28900  39.358  23.734   2.715
60571W        W28901  11.640  19.271  14.854
60572W        W28902  22.021  43.781  13.904
60573W        W28903  34.423  36.890  11.918
60574W        W28904  31.557  16.073   0.771
60575W        W28905  38.000  24.147   3.755
60576W        W28906  16.667   1.266  11.855
60577W        W28907  10.640  25.079  12.579
60578W        W28908  43.014  34.909   2.404
60579W        W28909   2.785   2.723   3.371
60580W        W28910  29.061  27.531   4.659
60581W        W28911  20.248   1.932  13.456
60582W        W28912  24.111  29.590  12.459
60583W        W28913   3.821  43.021  11.107
60584W        W28914  41.309  13.610   3.806
60585W        W28915  18.060   0.448  11.118
60586W        W28916  33.064  43.349  13.320
60587W        W28917  32.955   8.173   3.312
60588W        W28918  16.184  44.310  11.090
60589W        W28919  27.033   9.343   1.932
60590W        W28920  34.458  29.981   4.150
60591W        W28921   5.290  43.369   1.872
60592W        W28922  36.381   6.807   0.944
60593W        W28923   5.416   1.848   0.958
60594W        W28924  23.627  12.139  12.512
60595W        W28925  13.166  12.846  11.874
60596W        W28926  40.461  17.298  11.549
60597W        W28927  19.610  17.601  13.999
60598W        W28928   8.177  37.409   5.084
60599W        W28929   1.743  33.068  12.532
60600W        W28930  31.964  14.692  14.808
60601W        W28931  39.321  30.469  11.121
60602W        W28932  26.164  36.862  10.457
60603W        W28933  18.597  20.090  14.276
60604W        W28934  36.095  38.895   1.403
60605W        W28935   5.797  32.107  11.026
60606W        W28936  15.662  31.901   1.367
60607W        W28937  10.818  17.280  14.933
60608W        W28938   8.208  37.392  11.547
60609W        W28939  13.175  42.803  12.907
60610W        W28940  37.936  29.479  11.467
60611W        W28941  33.572  25.558   1.350
60612W        W28942  15.260  36.520   3.799
60613W        W28943  24.184   9.863  12.421
60614W        W28944  33.604  21.117   0.425
60615W        W28945  11.143  36.085   3.173
60616W        W28946  15.166  23.577  14.764
60617W        W28947  28.579  18.703   1.779
60618W        W28948  17.779  23.116  14.927
60619W        W28949  43.887  12.303  10.955
60620W        W28950  18.599  24.090  13.042
60621W        W28951  23.011  33.442  14.766
60622W        W28952  32.493  38.455   2.872
60623W        W28953  41.848  23.654  11.445
60624W        W28954  24.048  42.395  13.470
60625W        W28955  34.967  39.379  12.510
60626W        W28956  14.615  24.190  13.475
60627W        W28957   1.440  38.502  14.365
60628W        W28958  32.953  42.971   4.700
60629W        W28959   5.855  25.077  14.869
60630W        W28960  34.918  12.139  10.998
60631W        W28961  18.083  20.203   4.829
60632W        W28962   7.685  36.902   1.262
60633W        W28963  33.050   0.279   1.224
60634W        W28964  25.644  35.931   4.270
60635W        W28965  36.491  20.179   4.278
60636W        W28966  34.041   9.763   3.343
60637W        W28967   7.222  27.611   1.317
60638W        W28968  44.350  42.986  12.055
60639W        W28969   5.419  16.789  14.894
60640W        W28970  21.106  19.772   0.843
60641W        W28971  39.978  40.945  12.341
60642W        W28972  26.196  21.671   1.256
60643W        W28973  32.435   3.743   3.712
60644W        W28974   0.770  41.447  11.446
60645W        W28975  31.956  22.209   5.169
60646W        W28976  20.558  44.331   3.358
60647W        W28977  23.186  19.744  10.504
60648W        W28978  32.453  13.681   3.817
60649W        W28979  25.684  12.207   5.634
60650W        W28980  41.972  26.093   4.255
60651W        W28981  24.590  17.130  13.318
60652W        W28982  26.005  37.428  13.548
60653W        W28983  10.375  30.449  14.781
60654W        W28984  12.825  30.107  14.473
60655W        W28985  16.622  25.034  11.482
60656W        W28986   2.772  29.556   0.453
60657W        W28987  34.039  44.495   1.749
60658W        W28988   9.190   5.716  14.920
60659W        W28989  35.873  18.231  13.397
60660W        W28990  15.315  10.275  11.512
60661W        W28991  34.452  32.569  13.453
60662W        W28992   3.837  37.417  14.935
60663W        W28993   5.932  12.206  13.029
60664W        W28994   2.917  11.366  11.561
60665W        W28995  23.609   6.211   2.768
60666W        W28996  14.821  21.179  12.954
60667W        W28997  12.158  34.009   4.213
60668W        W28998  40.468  25.191   3.295
60669W        W28999  44.991  33.462  10.413
60670W        W29000  43.322  43.964   2.753
60671W        W29001  38.863  38.054   0.929
60672W        W29002   2.291  16.786   4.240
60673W        W29003  20.595  17.063  14.956
60674W        W29004  17.156   8.309   2.719
60675W        W29005  34.450  44.476  13.993
60676W        W29006  36.361  36.912   3.697
60677W        W29007  11.711  39.962   4.836
60678W        W29008  42.794  33.599  13.880
60679W        W29009  14.237  19.253  10.497
60680W        W29010  15.803  36.371  12.988
60681W        W29011  39.014  32.126   2.186
60682W        W29012  14.160  44.425  13.047
60683W        W29013  32.495   6.203  12.357
60684W        W29014  29.516  25.217   2.185
60685W        W29015   5.811   3.412  13.045
60686W        W29016  31.966  12.238   4.633
60687W        W29017  35.038  10.318  14.322
60688W        W29018  35.892  24.016  12.986
60689W        W29019  22.065  27.033   4.351
60690W        W29020  26.041  37.900   4.677
60691W        W29021  23.645  33.386   1.248
60692W        W29022  30.163  30.158  13.350
60693W        W29023  44.283   3.840   1.731
60694W        W29024  11.666  44.928   4.664
60695W        W29025  18.737  18.185  12.876
60696W        W29026   2.257  36.844  12.892
60697W        W29027  27.652  32.973   3.731
60698W        W29028   1.906   3.372  14.851
60699W        W29029  24.716  14.168  14.764
60700W        W29030  29.506  18.755  10.619
60701W        W29031  34.985  43.350   0.410
60702W        W29032  18.142  21.608   4.802
60703W        W29033  22.189  12.135  11.481
60704W        W29034  30.164   9.838  13.478
60705W        W29035  25.687   6.387   2.204
60706W        W29036  18.747   2.235  13.351
60707W        W29037  33.578   6.365   9.985
60708W        W29038  40.425  28.627  10.998
60709W        W29039   2.447  39.432  11.417
60710W        W29040  34.596  34.551   1.931
60711W        W29041  37.565  32.993   2.181
60712W        W29042  30.588   0.399  14.987
60713W        W29043  20.186   7.355  13.878
60714W        W29044  38.368  24.543   2.235
60715W        W29045  11.846  28.020  11.562
60716W        W29046  42.793   0.926   3.199
60717W        W29047  39.022   5.219   2.786
60718W        W29048   0.951   8.694  11.597
60719W        W29049   9.871  44.781  13.002
60720W        W29050  25.059  24.213   1.867
60721W        W29051  17.064  22.147   4.653
60722W        W29052  24.603  25.592  13.909
60723W        W29053  16.669   7.867   0.919
60724W        W29054  19.659  18.140   2.417
60725W        W29055  19.127  22.670   0.318
60726W        W29056  26.464  16.694  14.470
60727W        W29057  15.190  44.320   0.849
60728W        W29058   1.349   8.262   1.437
60729W        W29059  19.663  13.317   4.322
60730W        W29060  16.238   7.180   3.743
60731W        W29061  36.050  11.658   0.426
60732W        W29062  44.896  44.345   0.466
60733W        W29063  24.223  27.587   1.281
60734W        W29064  18.216  43.280   0.292
60735W        W29065  17.758  39.491  11.998
60736W        W29066   2.899  11.663  13.495
60737W        W29067  42.450  21.200   3.681
60738W        W29068  44.938  10.830   0.774
60739W        W29069  39.910  37.995   4.291
60740W        W29070  44.498   0.791   4.280
60741W        W29071  14.639  42.797   1.799
60742W        W29072   3.758   4.344   0.342
60743W        W29073  12.620  40.453   4.164
60744W        W29074   2.901  23.722   0.399
60745W        W29075  23.116  13.711   1.216
60746W        W29076  21.641  16.315  13.531
60747W        W29077  42.993  40.964   0.304
60748W        W29078   4.272  43.875  10.892
60749W        W29079  40.547  38.922   1.757
60750W        W29080  10.843   8.707  13.409
60751W        W29081  37.906  14.683   2.804
60752W        W29082  14.289  30.431   2.689
60753W        W29083  21.074  19.245  13.334
60754W        W29084  17.802  24.177   2.182
60755W        W29085  33.057   7.377   2.793
60756W        W29086  36.888  19.178   3.812
60757W        W29087  10.201  17.230   0.276
60758W        W29088  18.201  22.123   0.412
60759W        W29089  21.581  38.859  11.953
60760W        W29090   9.685  38.999   3.658
60761W        W29091   7.216  18.631  11.583
60762W        W29092  17.782   9.339  11.589
60763W        W29093   4.347   5.235   3.714
60764W        W29094  35.569  43.470   1.732
60765W        W29095  36.890  34.084  12.038
60766W        W29096  37.575   4.296  13.930
60767W        W29097  34.062  29.538  12.926
60768W        W29098  19.182  25.112  13.401
60769W        W29099  37.035   6.402   2.294
60770W        W29100  27.086   9.847   0.928
60771W        W29101  37.832  16.143  13.504
60772W        W29102   7.210  40.843  11.989
60773W        W29103  13.158  11.751   2.377
60774W        W29104  15.247   9.794   2.797
60775W        W29105  37.549  20.271  13.412
60776W        W29106  39.847  30.989  12.856
60777W        W29107   5.265   1.756   3.349
60778W        W29108  16.140  24.687   2.734
60779W        W29109   3.876  17.187   0.741
60780W        W29110   5.425  30.422  14.802
60781W        W29111  18.156  10.237   3.269
60782W        W29112  38.518  11.183  14.850
60783W        W29113  11.669  37.372  12.349
60784W        W29114  26.470   5.816  10.467
60785W        W29115  20.659  13.726  13.307
60786W        W29116  14.704  24.190   4.243
60787W        W29117   9.256  14.238  10.944
60788W        W29118   7.781  20.736  12.899
60789W        W29119   0.920  10.691   1.837
60790W        W29120  21.690  37.964   2.184
60791W        W29121  41.983  35.868   2.766
60792W        W29122  36.999  44.895  10.551
60793W        W29123  31.946   4.888   2.370
60794W        W29124  30.955  18.723  11.891
60795W        W29125  34.002  30.947   4.638
60796W        W29126  30.507  33.421   0.356
60797W        W29127  31.444  38.861  11.970
60798W        W29128  43.019   4.247   2.736
60799W        W29129  22.097  36.469   1.294
60800W        W29130  20.075   8.793   0.376
60801W        W29131   2.277  13.835   1.912
60802W        W29132  44.920  18.620   0.800
60803W        W29133  13.326  27.017   1.275
60804W        W29134  32.571  28.629  14.867
60805W        W29135  20.266  16.288   2.835
60806W        W29136  16.640  43.908  14.799
60807W        W29137  39.371  37.072   0.828
60808W        W29138  19.093   8.775  12.073
60809W        W29139  43.947  23.535  14.907
60810W        W29140  39.359  29.066  12.578
60811W        W29141  33.571  10.774   3.189
60812W        W29142  25.687  19.709  12.905
60813W        W29143  34.530  16.648  12.052
60814W        W29144  21.573  37.446   0.742
60815W        W29145  33.461  24.062  11.962
60816W        W29146  11.819  33.986  12.510
60817W        W29147   5.340  16.773   0.444
60818W        W29148   2.868  38.927   2.842
60819W        W29149  33.523  37.026  11.572
60820W        W29150  40.509  22.632  10.520
60821W        W29151  27.559  38.552   1.370
60822W        W29152  28.984   0.911  12.567
60823W        W29153  36.389  22.162   0.828
60824W        W29154  25.134  28.673   0.276
60825W        W29155  28.051   5.300  12.346
60826W        W29156   4.755  23.062  12.839
60827W        W29157   9.325  34.039   1.405
60828W        W29158  37.434  34.013   1.418
60829W        W29159  17.219   3.432   1.412
60830W        W29160  30.657  12.827  14.381
60831W        W29161   7.335  28.504   4.114
60832W        W29162   7.281  32.454  14.955
60833W        W29163   5.302  26.698  14.826
60834W        W29164  26.632  42.351  10.963
60835W        W29165  26.169  35.990  14.903
60836W        W29166   2.873  33.002   2.884
60837W        W29167  25.984  11.171   1.350
60838W        W29168  32.978  43.940   3.273
60839W        W29169  39.530  18.204  11.491
60840W        W29170  35.923  35.006  13.938
60841W        W29171  23.060  27.467   2.799
60842W        W29172  39.901  17.119   0.326
60843W        W29173  13.326  28.438   1.328
60844W        W29174  22.032  32.034  10.534
60845W        W29175  28.666  38.484  13.478
60846W        W29176  12.314  33.048  10.628
60847W        W29177  11.186   6.303   2.255
60848W        W29178  22.514  12.268   0.801
60849W        W29179  34.921  22.233   2.902
60850W        W29180  11.212  24.193   3.228
60851W        W29181  41.508   6.263  10.591
60852W        W29182  17.239  44.427  14.461
60853W        W29183  33.489  16.289   3.300
60854W        W29184  41.502  39.384   4.170
60855W        W29185  27.084  44.408  10.549
60856W        W29186  39.008  15.124  11.427
60857W        W29187   4.899  15.680   1.891
60858W        W29188   6.682   4.416   2.810
60859W        W29189  13.700  27.484   1.836
60860W        W29190  36.060  16.810  10.892
60861W        W29191   4.262  26.559   3.664
60862W        W29192  36.886  17.684  10.981
60863W        W29193  35.487  30.622  13.820
60864W        W29194  17.774  28.153   3.849
60865W        W29195  22.639  43.492  10.523
60866W        W29196  42.928  30.490  14.987
60867W        W29197  28.548  11.760   2.663
60868W        W29198  22.649  27.522   5.105
60869W        W29199  39.915  39.443   4.814
60870W        W29200  29.933  25.576   0.421
60871W        W29201   9.725  39.961   1.411
60872W        W29202   3.240  33.118   1.813
60873W        W29203   8.207   8.384  13.539
60874W        W29204  13.153  19.747   0.763
60875W        W29205  32.485  16.669   4.829
60876W        W29206  23.492   8.710  11.961
60877W        W29207  23.679  39.399  11.516
60878W        W29208   1.285  18.760   2.772
60879W        W29209  33.095  39.872  12.455
60880W        W29210   1.833  21.680   0.741
60881W        W29211   6.773   0.296   2.872
60882W        W29212  32.109  40.547   1.344
60883W        W29213  10.207  34.498   0.963
60884W        W29214  17.218  24.674   0.468
60885W        W29215  13.794  20.753   2.364
60886W        W29216  35.423  35.513  10.901
60887W        W29217  40.886   8.396  14.856
60888W        W29218  13.341   0.363  10.604
60889W        W29219  15.178   8.838  10.405
60890W        W29220   5.849  15.630  12.972
60891W        W29221   9.804   3.329  11.126
60892W        W29222  18.293  34.455  11.047
60893W        W29223  20.621  26.119  14.920
60894W        W29224  43.924   2.790   4.818
60895W        W29225  35.978  10.849   1.325
60896W        W29226  19.599  19.652   2.713
60897W        W29227  32.994  36.374  14.849
60898W        W29228  27.568   6.228  10.997
60899W        W29229  31.533  25.163   3.359
60900W        W29230  35.578  14.715   1.355
60901W        W29231  37.534   9.279  13.054
60902W        W29232  41.828  36.528  13.940
60903W        W29233   1.836  26.696  12.876
60904W        W29234  16.201  16.160   2.306
60905W        W29235   4.859  41.970  13.964
60906W        W29236  35.073   7.329  13.538
60907W        W29237   2.339  16.161   1.393
60908W        W29238  33.108   2.824  11.896
60909W        W29239  39.430  34.611  12.023
60910W        W29240  41.792  44.282   4.147
60911W        W29241  35.580  40.452   1.701
60912W        W29242   7.715  13.690  11.425
60913W        W29243   0.810   6.866  13.446
60914W        W29244  30.518  41.935   1.215
60915W        W29245  41.919   7.871   2.788
60916W        W29246   5.365  28.545  14.468
60917W        W29247   3.274  17.675   3.741
60918W        W29248   3.427   4.790  11.893
60919W        W29249   8.284  24.678   1.295
60920W        W29250  18.758  32.424  10.996
60921W        W29251  18.126  30.915  14.470
60922W        W29252  23.695  28.013  14.415
60923W        W29253  27.998  40.005   4.324
60924W        W29254  13.284  43.833  10.450
60925W        W29255  17.269  28.676  14.341
60926W        W29256  18.225  10.304  14.331
60927W        W29257  19.672  43.012  10.944
60928W        W29258  40.813  21.722   1.345
60929W        W29259  40.008  17.781   3.751
60930W        W29260   4.889  28.591  13.927
60931W        W29261  25.044   9.371  10.931
60932W        W29262   9.205  29.151   4.164
60933W        W29263  18.246  35.430   4.241
60934W        W29264   5.757  24.067   3.228
60935W        W29265  39.910  16.692   3.696
60936W        W29266  24.132  15.224   2.324
60937W        W29267   0.965  32.962  10.973
60938W        W29268  29.514  35.358  10.591
60939W        W29269  17.155  15.129  13.820
60940W        W29270  16.667  33.938   0.261
60941W        W29271  24.013  15.666  11.543
60942W        W29272  38.043  25.198  14.322
60943W        W29273   4.707  42.851  12.956
60944W        W29274  20.734   8.260  14.515
60945W        W29275  14.829  35.451   3.173
60946W        W29276   5.726   5.825  11.047
60947W        W29277   7.400  39.524   1.740
60948W        W29278  12.754  11.151  12.558
60949W        W29279   2.869  19.099   4.725
60950W        W29280  35.514  26.514  10.513
60951W        W29281  16.155  23.719   1.818
60952W        W29282   0.261  16.611   4.217
60953W        W29283   8.897  25.976  12.047
60954W        W29284   6.838  39.417  10.590
60955W        W29285  16.085   5.833  12.911
60956W        W29286   3.306  16.305  14.952
60957W        W29287  42.869  20.257   4.251
60958W        W29288   3.234  29.633  14.414
60959W        W29289  10.182   9.383  14.891
60960W        W29290  11.626   6.356   2.330
60961W        W29291   7.744  18.258   1.698
60962W        W29292  15.726  39.878  11.534
60963W        W29293  30.980  29.668   0.739
60964W        W29294  11.334  30.596  12.978
60965W        W29295  40.930   5.926  12.465
60966W        W29296   9.182  11.298  11.604
60967W        W29297  36.982  39.842   4.788
60968W        W29298  18.193  36.548  12.874
60969W        W29299   2.744   1.279   2.696
60970W        W29300   9.689  27.979  10.561
60971W        W29301  43.454  42.420  12.388
60972W        W29302  42.928  36.059  12.474
60973W        W29303  32.400  41.822   2.355
60974W        W29304  40.317  39.844  11.117
60975W        W29305  15.282  21.607   4.262
60976W        W29306   2.937   1.240  12.548
60977W        W29307   0.267  35.107   3.288
60978W        W29308  37.895  17.298   0.459
60979W        W29309  30.958  21.088  12.438
60980W        W29310  27.109  16.319   0.413
60981W        W29311  25.136  23.655   4.260
60982W        W29312  16.214  24.597   1.876
60983W        W29313  44.756  36.040   3.712
60984W        W29314  11.671  43.481  14.942
60985W        W29315  17.086  28.476   1.234
60986W        W29316   2.947   5.381  11.532
60987W        W29317  42.505  30.541   1.218
60988W        W29318  29.536  29.028  11.975
60989W        W29319  19.561  37.486  10.968
60990W        W29320   6.739  18.737  11.876
60991W        W29321  36.443  41.856   3.782
60992W        W29322   5.728  11.200   0.773
60993W        W29323   3.732  13.718   2.689
60994W        W29324  14.311   3.716  10.596
60995W        W29325  29.094  21.607   1.320
60996W        W29326  23.137  38.346   4.121
60997W        W29327   1.325  26.467  10.416
60998W        W29328  39.503  13.286  10.911
60999W        W29329  17.608  35.935  13.474
61000W        W29330  39.962  41.425  10.966
61001W        W29331   7.704  34.091   3.833
61002W        W29332  41.410  31.983   3.807
61003W        W29333  38.893   0.890   5.152
61004W        W29334  22.567  14.152   4.700
61005W        W29335  17.705  28.931   1.350
61006W        W29336   4.892  32.543  14.371
61007W        W29337  17.117  10.807  14.798
61008W        W29338  37.381   1.845   3.715
61009W        W29339  40.814   7.772   5.303
61010W        W29340  43.436  11.653   2.745
61011W        W29341   9.727  16.580  13.835
61012W        W29342  12.681  29.927  11.494
61013W        W29343  16.757  20.181   3.666
61014W        W29344   7.737  31.452  10.575
61015W        W29345  40.869  24.580   2.191
61016W        W29346  17.784  17.784   0.290
61017W        W29347  11.857  25.094  13.366
61018W        W29348  13.687  25.016   2.858
61019W        W29349  22.208   6.825  13.490
61020W        W29350  27.519  28.555  14.873
61021W        W29351  24.541   2.927  12.926
61022W        W29352  31.047  21.054   2.206
61023W        W29353  32.056  38.388   2.778
61024W        W29354  27.195   6.268  12.086
61025W        W29355  24.088  20.067  11.098
61026W        W29356   4.361  15.317  11.981
61027W        W29357  22.228  24.210  14.323
61028W        W29358  44.495  30.640   1.792
61029W        W29359  39.993  37.862  14.962
61030W        W29360  26.062  11.179   2.711
61031W        W29361  22.164  17.249   0.804
61032W        W29362   9.685   2.289   4.817
61033W        W29363  16.156   0.465   2.229
61034W        W29364   7.233  40.528   4.797
61035W        W29365  40.428  13.111   3.200
61036W        W29366  13.700  11.623  12.827
61037W        W29367  20.216  33.504  10.633
61038W        W29368  43.388  12.735   5.272
61039W        W29369  12.681  14.606  14.330
61040W        W29370   0.851  12.278   3.256
61041W        W29371  33.084  26.205   1.893
61042W        W29372  31.123   3.220   5.255
61043W        W29373  18.059  44.461   0.899
61044W        W29374  10.658  32.913   3.790
61045W        W29375   9.839  34.884  13.842
61046W        W29376  19.758  15.679   0.815
61047W        W29377  14.761  36.025  12.861
61048W        W29378  16.685  43.291   4.604
61049W        W29379  31.603  37.453   0.254
61050W        W29380  44.294   9.679  12.534
61051W        W29381   6.248   4.790  13.985
61052W        W29382  36.984  41.821   3.704
61053W        W29383   8.669   9.838   2.310
61054W        W29384   2.330  18.079  12.002
61055W        W29385   3.923  16.133  11.963
61056W        W29386   6.400  19.229  12.500
61057W        W29387  42.451  19.127   4.343
61058W        W29388   9.779  22.663  11.474
61059W        W29389   5.357  32.053  14.845
61060W        W29390  21.114   2.425  12.064
61061W        W29391  21.537  32.403  12.933
61062W        W29392  18.729  44.795   4.763
61063W        W29393  18.643   0.927  12.990
61064W        W29394  13.238  19.187   3.822
61065W        W29395  29.006  15.140   3.653
61066W        W29396  27.612  36.384   3.167
61067W        W29397  26.495  44.485   3.701
61068W        W29398  13.194   3.898   1.365
61069W        W29399  25.033  12.690   0.830
61070W        W29400  35.436  39.850   0.347
61071W        W29401  17.786  38.918   0.288
61072W        W29402   2.849  10.353   0.802
61073W        W29403   0.870  15.622   2.791
61074W        W29404   7.269   3.849   3.851
61075W        W29405  25.502  19.272   4.212
61076W        W29406  12.120  43.282   2.874
61077W        W29407  42.890  20.665  14.796
61078W        W29408  28.458   2.819   0.912
61079W        W29409  41.414  21.044  12.010
61080W        W29410  43.329   2.854   1.801
61081W        W29411   8.164  18.275   2.853
61082W        W29412  16.813  14.319   0.393
61083W        W29413  15.662  38.912  13.870
61084W        W29414  16.190  38.043  13.005
61085W        W29415  14.791  12.146  11.996
61086W        W29416  18.768  29.071   3.870
61087W        W29417  31.939  38.502  11.537
61088W        W29418  34.463  24.230   3.751
61089W        W29419  24.191   7.805   4.115
61090W        W29420  21.218  21.116   2.897
61091W        W29421  22.746  11.855  11.944
61092W        W29422   2.390  32.550  12.840
61093W        W29423   2.276  22.033  11.592
61094W        W29424  12.306  22.527   1.888
61095W        W29425  23.679  19.146   0.829
61096W        W29426  41.878  43.867  11.954
61097W        W29427   9.268  27.686   4.726
61098W        W29428  31.493  39.914   4.163
61099W        W29429  42.361  38.396  11.930
61100W        W29430  33.399  35.399  13.547
61101W        W29431   2.787   1.411  14.498
61102W        W29432  40.039  40.914  13.530
61103W        W29433  42.959  31.646  11.991
61104W        W29434  21.149  17.637   1.221
61105W        W29435   6.401  34.468   1.251
61106W        W29436  14.326  43.277   0.864
61107W        W29437  38.567  38.863  12.895
61108W        W29438  32.414  22.236   1.728
61109W        W29439  37.067  10.685  12.921
61110W        W29440  26.608  16.137  12.575
61111W        W29441  31.096   8.736   0.433
61112W        W29442  37.455  24.538   2.728
61113W        W29443  22.510  43.839   0.288
61114W        W29444  31.625  43.287  10.589
61115W        W29445  25.055  39.906  11.868
61116W        W29446  35.903  35.934  14.791
61117W        W29447   1.894  12.787   3.865
61118W        W29448  20.061  26.482  14.304
61119W        W29449  19.759  16.086  11.467
61120W        W29450  29.124  42.320  12.388
61121W        W29451  36.522  25.003   4.143
61122W        W29452   9.234  39.514  13.981
61123W        W29453   4.274  17.745  11.495
61124W        W29454  31.446  33.438  12.051
61125W        W29455  15.314  22.142  12.874
61126W        W29456   8.834  17.183   0.374
61127W        W29457   4.442  26.100   4.829
61128W        W29458  22.090   0.744   4.807
61129W        W29459  33.596  19.131   4.213
61130W        W29460  18.056   1.439   4.688
61131W        W29461  34.085  13.329  14.317
61132W        W29462  28.437   6.755   2.244
61133W        W29463   9.646  24.580   0.272
61134W        W29464  36.019  43.382   1.351
61135W        W29465   1.751  13.265  12.081
61136W        W29466   3.295  12.120   1.834
61137W        W29467  17.259   9.695  10.615
61138W        W29468  15.149  15.661   1.706
61139W        W29469  24.564  24.223  14.317
61140W        W29470  34.981  44.283   5.113
61141W        W29471  33.917  35.532   2.265
61142W        W29472   6.238  13.339  14.496
61143W        W29473  39.896  19.241  13.934
61144W        W29474  42.791  15.124   3.342
61145W        W29475  26.048  43.019  14.483
61146W        W29476   4.264  27.179  10.605
61147W        W29477   2.907  10.168   2.314
61148W        W29478  34.368  21.127   4.154
61149W        W29479  41.295   6.814   0.735
61150W        W29480  40.839  43.907  13.014
61151W        W29481  30.613   2.245   5.165
61152W        W29482  21.663   6.890   2.259
61153W        W29483  33.499  26.003  12.831
61154W        W29484  42.776  37.900  13.541
61155W        W29485  29.033  30.521  11.442
61156W        W29486  24.212  37.050   1.883
61157W        W29487  27.051  41.874  11.519
61158W        W29488  34.403   8.722   2.319
61159W        W29489  13.648  28.049   2.360
61160W        W29490  41.426   1.924  14.029
61161W        W29491  16.787  26.063   0.415
61162W        W29492  39.939  44.342   3.162
61163W        W29493  22.025  41.803  13.993
61164W        W29494  44.006  10.876   0.428
61165W        W29495   4.403   8.891   0.895
61166W        W29496   5.225  20.592  11.883
61167W        W29497   0.967  13.301  10.916
61168W        W29498  29.608  32.072   1.714
61169W        W29499  29.082   4.748  12.432
61170W        W29500  32.572  22.137   4.655
61171W        W29501  37.887  12.772   0.434
61172W        W29502  37.010  17.800  13.501
61173W        W29503  43.423  17.178   2.333
61174W        W29504  30.416  32.534  11.457
61175W        W29505  15.626  37.346  13.033
61176W        W29506   8.833  25.554   0.906
61177W        W29507  23.489   3.281  11.601
61178W        W29508  25.203  16.756   2.291
61179W        W29509  23.624  30.025  13.969
61180W        W29510  32.003  43.864  13.925
61181W        W29511  16.291  43.923   1.424
61182W        W29512   7.830  20.206   1.233
61183W        W29513  36.016   6.405  14.378
61184W        W29514   1.423  37.987   0.303
61185W        W29515  36.985   4.254   0.371
61186W        W29516  17.241  26.659  12.032
61187W        W29517  12.694   4.412  12.453
61188W        W29518  28.454  39.395  12.035
61189W        W29519  42.027   8.350   0.824
61190W        W29520   1.377   7.691  11.055
61191W        W29521  15.252  35.957  14.986
61192W        W29522  28.623  42.431  13.896
61193W        W29523  39.426  34.984   4.661
61194W        W29524  11.810  13.624   4.273
61195W        W29525   3.314   5.311   0.424
61196W        W29526  23.651  42.513  11.409
61197W        W29527  12.807  33.933  11.934
61198W        W29528  22.726  35.540  10.516
61199W        W29529   7.748  19.083   2.821
61200W        W29530  19.660   9.710  11.084
61201W        W29531   5.436  44.960   1.318
61202W        W29532  40.904   6.191  12.067
61203W        W29533  29.959   8.849   3.380
61204W        W29534   8.686   6.879  14.444
61205W        W29535  36.374  15.113   4.251
61206W        W29536  38.510  24.587   1.309
61207W        W29537   6.740  38.327   3.236
61208W        W29538  17.303  42.487  13.543
61209W        W29539  10.856  41.436  13.386
61210W        W29540  35.413   3.744   4.324
61211W        W29541  10.314  13.749  10.572
61212W        W29542  13.122  31.967   3.752
61213W        W29543  26.560  19.042   0.927
61214W        W29544  42.864  14.329  10.622
61215W        W29545   1.741  23.695   1.426
61216W        W29546  15.202  39.865   2.318
61217W        W29547  33.128  35.025   1.328
61218W        W29548   1.273   3.357   0.740
61219W        W29549   1.745   5.217   2.400
61220W        W29550  41.021  38.422   4.722
61221W        W29551  35.052  24.650   2.858
61222W        W29552  33.530  25.145  14.282
61223W        W29553  16.295  36.458   0.385
61224W        W29554  25.490  12.807   9.618
61225W        W29555  26.189  12.677   4.239
61226W        W29556  38.908  19.771  12.033
61227W        W29557  32.888   0.846  10.558
61228W        W29558  19.187  38.342   0.424
61229W        W29559  38.470   5.371   4.656
61230W        W29560  13.307  44.825  10.923
61231W        W29561   9.218  41.333   3.730
61232W        W29562   0.885   3.358   0.369
61233W        W29563  24.047  30.601   3.371
61234W        W29564  31.478   6.261  10.460
61235W        W29565  22.237  26.191   2.897
61236W        W29566  31.014   9.849   0.449
61237W        W29567  14.804   4.746   3.721
61238W        W29568  27.493  35.989  13.923
61239W        W29569  16.702  16.639  14.854
61240W        W29570  39.826  26.960  12.487
61241W        W29571  14.596  34.892   4.267
61242W        W29572  36.057  13.281  14.427
61243W        W29573  38.044   1.915  11.880
61244W        W29574  23.239   3.782   4.316
61245W        W29575   1.778  39.548   4.627
61246W        W29576  31.449  39.850   2.409
61247W        W29577  39.318  44.880   2.344
61248W        W29578  20.666  38.504   0.467
61249W        W29579   2.866  40.383   4.118
61250W        W29580  32.400  27.173  10.577
61251W        W29581   3.355  39.035  14.454
61252W        W29582   5.359  18.758   4.674
61253W        W29583  44.498  12.198   1.234
61254W        W29584  38.564  37.873   1.778
61255W        W29585  40.484   9.768   0.844
61256W        W29586  22.110  28.005   0.954
61257W        W29587  31.605   2.367  13.791
61258W        W29588  20.266  36.526  12.449
61259W        W29589   8.846  42.327   3.319
61260W        W29590   2.450   5.218   3.180
61261W        W29591  36.515  22.088  11.081
61262W        W29592  36.386  34.926   0.797
61263W        W29593  15.801  15.258  14.394
61264W        W29594  20.033  32.580   3.845
61265W        W29595  32.457  30.092  13.922
61266W        W29596  35.963   6.874   0.349
61267W        W29597  28.492  30.093   4.350
61268W        W29598  20.136   2.920   3.642
61269W        W29599  24.022  28.582   3.805
61270W        W29600   6.790  27.042   4.328
61271W        W29601   5.211   9.223   3.172
61272W        W29602  26.458   9.165  10.452
61273W        W29603  36.565  31.622  12.973
61274W        W29604  10.148  17.652   4.808
61275W        W29605   5.225  36.545  14.780
61276W        W29606  22.743  11.179  12.885
61277W        W29607  31.945  37.362   4.156
61278W        W29608   9.874  21.689  14.775
61279W        W29609  21.627  40.544  13.427
61280W        W29610  31.571  10.203   2.375
61281W        W29611  13.291  26.651  14.791
61282W        W29612  13.688  17.148  10.995
61283W        W29613  11.787  30.491   0.464
61284W        W29614  21.556  10.220  11.612
61285W        W29615  24.031  12.776  10.532
61286W        W29616  13.300   5.405   4.172
61287W        W29617  23.494   1.431   1.920
61288W        W29618   9.232  36.587  12.832
61289W        W29619  31.018  44.417  14.392
61290W        W29620  31.446  14.198   3.795
61291W        W29621  35.913   0.251   0.291
61292W        W29622   1.366   4.886   1.727
61293W        W29623   9.684  13.844   3.845
61294W        W29624  44.820  37.041  11.570
61295W        W29625  30.546  27.602  11.457
61296W        W29626   7.679  31.028   1.739
61297W        W29627  39.327  27.976  11.915
61298W        W29628  27.175  31.972   4.774
61299W        W29629   1.743  34.978  13.963
61300W        W29630  36.928  22.587   2.687
61301W        W29631  23.732  21.696   2.669
61302W        W29632  30.111   5.876  13.425
61303W        W29633  16.800  42.427   1.410
61304W        W29634  17.652  21.019  11.541
61305W        W29635  30.494   7.177  12.555
61306W        W29636  37.362  37.407   2.705
61307W        W29637  43.461  17.622  13.312
61308W        W29638  32.028  39.557   0.243
61309W        W29639   7.412  38.544  13.875
61310W        W29640  11.690  42.875   4.142
61311W        W29641  41.451  19.734   3.387
61312W        W29642  42.488  25.602  11.010
61313W        W29643  20.219  34.952   2.331
61314W        W29644  35.884  37.070  13.337
61315W        W29645   6.809  13.842   1.829
61316W        W29646  39.557  14.241   0.387
61317W        W29647  17.220  17.087  10.444
61318W        W29648  27.688   9.364  14.496
61319W        W29649  36.957   3.302   1.696
61320W        W29650  20.558  32.923   0.463
61321W        W29651  22.508  38.028   3.246
61322W        W29652  44.494   1.732   2.828
61323W        W29653  11.220   6.752   0.327
61324W        W29654  15.782  11.186  14.930
61325W        W29655   7.790  15.241  13.483
61326W        W29656  34.902   1.411   4.683
61327W        W29657  30.031  26.578  13.047
61328W        W29658  38.420  26.518   1.737
61329W        W29659  16.743  26.501   0.305
61330W        W29660  31.444  30.135  10.427
61331W        W29661  30.060   7.344  12.858
61332W        W29662  17.071  16.126  11.117
61333W        W29663   7.702  11.315  14.853
61334W        W29664  25.576   9.649   4.748
61335W        W29665   5.429  29.932   4.793
61336W        W29666  32.394  10.818  13.407
61337W        W29667  31.014  15.599  11.043
61338W        W29668  25.073  31.093  14.952
61339W        W29669  21.143   4.818   1.703
61340W        W29670  10.643   4.347   2.864
61341W        W29671  22.124  29.583   1.794
61342W        W29672   3.242  11.768  14.802
61343W        W29673  14.699   8.888   3.345
61344W        W29674   3.751  37.368   0.946
61345W        W29675  21.536  22.127  14.867
61346W        W29676  16.072  30.606  13.456
61347W        W29677  35.560  31.037   3.327
61348W        W29678  25.011  22.139   0.383
61349W        W29679  11.322  34.550  13.516
61350W        W29680  11.185  35.885  10.538
61351W        W29681  27.083  22.058  12.358
61352W        W29682  12.215  13.834  14.361
61353W        W29683  28.987  33.917   1.843
61354W        W29684  44.374  39.891  11.412
61355W        W29685  41.853   0.443   3.228
61356W        W29686  38.998   0.920  14.487
61357W        W29687  25.188   1.915   0.334
61358W        W29688  30.939  21.547  13.970
61359W        W29689  19.764  28.142  12.920
61360W        W29690  17.069   5.881  13.868
61361W        W29691   5.769  40.499   4.672
61362W        W29692  36.450  31.076  14.823
61363W        W29693  13.144  34.040  13.997
61364W        W29694  22.517  33.435   3.631
61365W        W29695  24.150  44.335   5.280
61366W        W29696  42.957  30.480   2.734
61367W        W29697  26.612  11.321   2.181
61368W        W29698   9.288   0.485   1.318
61369W        W29699  22.735   9.202   5.148
61370W        W29700  39.420   9.236   9.675
61371W        W29701  25.967  15.596  12.574
61372W        W29702  26.622   3.953   5.164
61373W        W29703  41.423  10.344   1.927
61374W        W29704   8.366  22.578   2.708
61375W        W29705  33.033  19.129  13.808
61376W        W29706  29.516  25.611  11.877
61377W        W29707  31.921  43.446   3.285
61378W        W29708  32.138   6.766  12.880
61379W        W29709  13.703  14.310  13.375
61380W        W29710  15.686  12.211  13.033
61381W        W29711  32.557  44.001   3.807
61382W        W29712  38.400   6.274  12.551
61383W        W29713  40.471  14.667   1.351
61384W        W29714  24.616  15.692   3.271
61385W        W29715  24.122  43.988   1.452
61386W        W29716  43.876  34.949  13.814
61387W        W29717  29.460  31.102   2.856
61388W        W29718  21.552  16.656   4.735
61389W        W29719  10.875  13.625   2.330
61390W        W29720  29.955  26.013  10.625
61391W        W29721   3.397   1.844  11.383
61392W        W29722   3.369  24.716  12.838
61393W        W29723   0.972  28.036   0.390
61394W        W29724  39.547  29.480  13.922
61395W        W29725   8.818   0.346   3.269
61396W        W29726   9.864  37.411   4.229
61397W        W29727  10.291   7.356   9.948
61398W        W29728   1.896   4.298   2.713
61399W        W29729  34.006  44.273   2.703
61400W        W29730  22.590  20.214  13.796
61401W        W29731  29.986  23.149   1.815
61402W        W29732  17.145  37.867  13.949
61403W        W29733  16.295  25.622  14.968
61404W        W29734   8.775  32.014  11.981
61405W        W29735  24.146  43.482   3.792
61406W        W29736  20.764  24.724   4.334
61407W        W29737   2.911  41.352  14.363
61408W        W29738  22.020  22.211   4.686
61409W        W29739  13.618  31.489  12.944
61410W        W29740  16.703   6.680   0.763
61411W        W29741  25.158  28.456   4.273
61412W        W29742   3.800  11.276  11.560
61413W        W29743  38.862  22.056  11.493
61414W        W29744   0.874  10.779   4.761
61415W        W29745   3.927  39.840   3.182
61416W        W29746   6.749   9.731  13.392
61417W        W29747  24.157  19.231  11.034
61418W        W29748  35.868  31.644   3.684
61419W        W29749   0.847  11.703   5.144
61420W        W29750  41.311  20.613   2.813
61421W        W29751  27.982  41.517  10.601
61422W        W29752  33.999  11.288   3.819
61423W        W29753  39.335  33.530   3.328
61424W        W29754  42.410  23.154   4.829
61425W        W29755  40.438  44.451  14.478
61426W        W29756   3.314  19.559  13.376
61427W        W29757  35.580   2.346  14.436
61428W        W29758  23.011  12.237  13.945
61429W        W29759  40.840   9.285   0.359
61430W        W29760  41.532  24.227  12.832
61431W        W29761  43.971  17.187   3.187
61432W        W29762  28.590  27.962   0.450
61433W        W29763  31.616  26.583  10.911
61434W        W29764   7.783   1.833  11.055
61435W        W29765   1.852  15.305   0.362
61436W        W29766  19.161  23.522   0.865
61437W        W29767   8.244   1.371  12.828
61438W        W29768  12.811  13.705  11.595
61439W        W29769  16.609  27.154   2.880
61440W        W29770  12.229   9.694   2.807
61441W        W29771  44.894   4.284   4.672
61442W        W29772  24.220  28.035  14.980
61443W        W29773  38.992  19.637   4.616
61444W        W29774  26.481  27.107   2.759
61445W        W29775  34.011  17.747   3.705
61446W        W29776  22.561  22.023  14.982
61447W        W29777  12.760  37.867  13.503
61448W        W29778  22.556   8.382  14.295
61449W        W29779   5.883  44.283   1.306
61450W        W29780  12.646  17.082  13.526
61451W        W29781  11.666   0.966  14.318
61452W        W29782  32.088   0.412   0.766
61453W        W29783  27.098  13.133  12.372
61454W        W29784   8.859  30.455   2.830
61455W        W29785   3.436  43.339   3.716
61456W        W29786  17.164  17.205   4.194
61457W        W29787  10.812  38.894   1.414
61458W        W29788  28.469  42.977   1.739
61459W        W29789  41.332   8.818  14.887
61460W        W29790  14.271   1.814   3.235
61461W        W29791  41.000   7.303   9.972
61462W        W29792   2.294  30.608  13.440
61463W        W29793   7.858   9.156  10.458
61464W        W29794  41.370   2.358   4.290
61465W        W29795  27.964  24.530  11.559
61466W        W29796  23.536  23.189   4.708
61467W        W29797  12.637  20.560  14.406
61468W        W29798  24.665  35.532  10.544
61469W        W29799  17.607  44.950   1.883
61470W        W29800  39.406  12.638   0.927
61471W        W29801  17.281  24.990  10.415
61472W        W29802  42.324  44.450  14.489
61473W        W29803  27.604  10.306  10.891
61474W        W29804  37.079   5.768   0.388
61475W        W29805  36.983  11.158   2.892
61476W        W29806  21.696  16.268  14.379
61477W        W29807  16.216  21.224  11.399
61478W        W29808  10.287  42.298  12.453
61479W        W29809  42.397  30.037   0.333
61480W        W29810  43.838  30.946  13.895
61481W        W29811  41.311  24.151   1.366
61482W        W29812  37.038  24.199  14.275
61483W        W29813  28.488   8.350  12.424
61484W        W29814  36.550  31.967  13.942
61485W        W29815   2.909  14.673   3.238
61486W        W29816  36.027   4.394  12.545
61487W        W29817  25.481  40.029   3.854
61488W        W29818   6.789  19.205   2.840
61489W        W29819  28.995  24.709  11.034
61490W        W29820   9.292   1.768   1.923
61491W        W29821  27.137  26.652  10.547
61492W        W29822  29.633  37.935   2.793
61493W        W29823  26.958  12.284   5.115
61494W        W29824  21.591   0.926   2.344
61495W        W29825  11.175  23.237  14.022
61496W        W29826  16.157   9.249   2.770
61497W        W29827  40.456  19.158  10.914
61498W        W29828  18.130  13.844  14.815
61499W        W29829  29.590  18.296   3.763
61500W        W29830  35.983  32.579   4.319
61501W        W29831  14.641  26.959   1.891
61502W        W29832  15.269   7.719  11.556
61503W        W29833   8.870  25.709  14.479
61504W        W29834   4.713   1.772   3.333
61505W        W29835  35.388  13.599  12.490
61506W        W29836  17.763  15.265  13.915
61507W        W29837  41.496  39.533  14.983
61508W        W29838  39.479  11.251   2.847
61509W        W29839  25.125  32.076  12.889
61510W        W29840   7.665  18.296  10.124
61511W        W29841  39.023  27.083   3.641
61512W        W29842  22.211   0.849  11.957
61513W        W29843  23.012  27.538  12.058
61514W        W29844  30.624  29.036   4.138
61515W        W29845  38.053  12.754   3.151
61516W        W29846  21.063  17.186   2.352
61517W        W29847  23.697  17.632  14.512
61518W        W29848  18.267  20.080  11.506
61519W        W29849  22.996  41.405  11.601
61520W        W29850  43.822  18.733   3.200
61521W        W29851  17.741  43.458   3.664
61522W        W29852   6.408  31.572   2.287
61523W        W29853  25.974   1.363   4.161
61524W        W29854  30.978  28.680  11.025
61525W        W29855   0.853  41.824  13.424
61526W        W29856  39.553  24.977   0.853
61527W        W29857  44.826  43.926   0.794
61528W        W29858  35.032  31.409  10.992
61529W        W29859  15.192   6.414   3.658
61530W        W29860  15.592  27.987   3.731
61531W        W29861   0.455  30.453  14.301
61532W        W29862  21.149   5.921   2.282
61533W        W29863   0.428  21.063  10.942
61534W        W29864  37.035  44.369   4.186
61535W        W29865  41.016   6.837   4.330
61536W        W29866  12.327   7.413   4.142
61537W        W29867  15.595   2.317  13.424
61538W        W29868  17.710  18.566  10.474
61539W        W29869  34.447  23.101   3.265
61540W        W29870  38.565  14.648   1.874
61541W        W29871  38.350  15.167   4.611
61542W        W29872   6.857   9.887  11.428
61543W        W29873  20.665  23.529   0.798
61544W        W29874  23.092   7.333  14.768
61545W        W29875  40.022  34.610  10.566
61546W        W29876  18.230  22.620   1.370
61547W        W29877   7.805   6.223  13.932
61548W        W29878  11.235  17.592  14.857
61549W        W29879   2.748  14.694  14.315
61550W        W29880  18.192  37.517  10.514
61551W        W29881  36.479  36.897   3.151
61552W        W29882   6.912  37.947  11.604
61553W        W29883  38.880  37.840   1.881
61554W        W29884  19.696  15.751  11.067
61555W        W29885  26.126   0.485   4.223
61556W        W29886  41.304  22.711   0.309
61557W        W29887  17.765  11.281  12.895
61558W        W29888  19.198  11.644   3.692
61559W        W29889   0.746  41.304   1.269
61560W        W29890  33.995  30.076   2.794
61561W        W29891  40.403  18.194  14.865
61562W        W29892  26.627  33.537  11.505
61563W        W29893  20.700  29.996   1.769
61564W        W29894  32.097  36.844  14.443
61565W        W29895  14.242  24.125  12.916
61566W        W29896  36.074  34.615  13.941
61567W        W29897  27.156  15.670  11.109
61568W        W29898  12.243   9.688  12.464
61569W        W29899  26.490  18.131  14.432
61570W        W29900  38.000  19.208   3.732
61571W        W29901   4.797  26.517  11.929
61572W        W29902  33.530  25.483   4.114
61573W        W29903  28.480  38.932  14.432
61574W        W29904  37.047  22.192   3.808
61575W        W29905  37.575  37.541  11.105
61576W        W29906  14.306  30.096   1.437
61577W        W29907   5.745   6.249  13.401
61578W        W29908  36.434  41.006  12.454
61579W        W29909  34.874  21.663  10.894
61580W        W29910  26.643  14.208  13.002
61581W        W29911  39.481  31.455  11.037
61582W        W29912  23.704   4.892   4.285
61583W        W29913  37.962  24.995  10.599
61584W        W29914  18.063  44.337  13.417
61585W        W29915  34.397   7.820   4.774
61586W        W29916  22.563   0.452  13.859
61587W        W29917  20.150   9.277   4.696
61588W        W29918  31.625  35.553  12.431
61589W        W29919   8.839  37.947   4.197
61590W        W29920  23.616  10.162   1.374
61591W        W29921  11.765  31.127   2.390
61592W        W29922  24.994  22.009   3.190
61593W        W29923  20.028  21.094   2.740
61594W        W29924  17.159  11.843  14.019
61595W        W29925  16.186  12.341   0.260
61596W        W29926  43.008  36.895  11.088
61597W        W29927   9.279   0.417  14.281
61598W        W29928   5.340  42.827  10.933
61599W        W29929  15.240  29.437  12.027
61600W        W29930  31.988  31.626   4.731
61601W        W29931  35.078  26.467  13.361
61602W        W29932  41.965  25.707  10.539
61603W        W29933  41.800  26.501   1.930
61604W        W29934  25.712   3.852  14.958
61605W        W29935  37.566  17.260  11.576
61606W        W29936  44.989  21.122  12.940
61607W        W29937  24.721  11.850   4.611
61608W        W29938  26.661   1.927   2.842
61609W        W29939  16.091  28.542   0.768
61610W        W29940  15.308  30.947   2.195
61611W        W29941  32.930  15.699   2.337
61612W        W29942  12.280  16.149  11.017
61613W        W29943  42.865  42.790   2.737
61614W        W29944  30.009  37.530  13.438
61615W        W29945  19.152  34.592  12.450
61616W        W29946  32.000  21.196  11.430
61617W        W29947   1.900   3.923  11.021
61618W        W29948  15.230  42.854  13.409
61619W        W29949  23.576  41.357   4.200
61620W        W29950  39.366  14.608   3.324
61621W        W29951   4.920   0.862   0.350
61622W        W29952   1.367  23.991   1.428
61623W        W29953  26.206   3.734  12.025
61624W        W29954  29.145   4.286  11.916
61625W        W29955   9.679  37.016  10.937
61626W        W29956  36.411  20.223   4.622
61627W        W29957  27.189  24.121  13.964
61628W        W29958  24.591  28.111  11.552
61629W        W29959   7.776  39.921  10.620
61630W        W29960  36.862  16.771   3.302
61631W        W29961  38.364  18.761   1.778
61632W        W29962   8.873   1.433   0.426
61633W        W29963  14.151  34.041  12.452
61634W        W29964  26.015  36.896   4.211
61635W        W29965   9.169  11.243  11.907
61636W        W29966  37.977  22.184  11.035
61637W        W29967  30.028  16.198   1.301
61638W        W29968  11.864   5.231   9.989
61639W        W29969  36.967  13.654   3.794
61640W        W29970  15.135  17.173  14.506
61641W        W29971   5.220  12.116   1.775
61642W        W29972  31.642  29.632   0.370
61643W        W29973  39.513   0.409  11.945
61644W        W29974  32.612  22.251  13.829
61645W        W29975  10.655  36.888  12.418
61646W        W29976   6.382  43.410  13.945
61647W        W29977   5.764  15.666  11.424
61648W        W29978  30.015  13.220  12.479
61649W        W29979  34.536  18.294   1.440
61650W        W29980  26.664   8.396   1.714
61651W        W29981  17.754  40.482   0.328
61652W        W29982  19.148  22.726   4.607
61653W        W29983  30.044  33.069   0.945
61654W        W29984   1.282  26.005   0.430
61655W        W29985   8.752  28.051  11.440
61656W        W29986   9.264  42.349  13.942
61657W        W29987  26.637  15.792   2.358
61658W        W29988  35.508  37.830   2.370
61659W        W29989  17.201  32.416   1.732
61660W        W29990   2.754  29.098   1.380
61661W        W29991  36.409  37.070   1.710
61662W        W29992  12.156  24.519  11.959
61663W        W29993  11.253  17.156  14.389
61664W        W29994  38.890   1.345   0.332
61665W        W29995   9.790  42.501   3.853
61666W        W29996  21.749  12.746   1.907
61667W        W29997  14.207  10.736   2.681
61668W        W29998   2.736  21.236   3.642
61669W        W29999  37.375  30.940  14.444
61670W        W30000  23.098  24.587  13.007
61671W        W30001  42.778  30.515   2.333
61672W        W30002  23.038  30.597   0.439
61673W        W30003  17.724  14.100  14.907
61674W        W30004  23.536   8.208   4.803
61675W        W30005  30.463  32.923  13.325
61676W        W30006  33.571  36.977  12.868
61677W        W30007  37.380   1.273   2.242
61678W        W30008  11.663   4.746   4.825
61679W        W30009  35.095  20.231   0.252
61680W        W30010  31.424  17.067  14.969
61681W        W30011  22.201  21.254  12.078
61682W        W30012  37.833  33.487  11.912
61683W        W30013  44.284  14.813   3.809
61684W        W30014  32.037  19.533   5.774
61685W        W30015   0.408  22.506   2.190
61686W        W30016  44.421  14.139  10.617
61687W        W30017  16.782  41.367   1.449
61688W        W30018  14.769  17.609   0.966
61689W        W30019  14.669  29.168  11.910
61690W        W30020   8.397  20.092  13.372
61691W        W30021  21.190  26.051  10.628
61692W        W30022  41.440  12.168   1.298
61693W        W30023   0.284  37.866   0.245
61694W        W30024  25.491  44.321  10.553
61695W        W30025  43.960  26.657  11.422
61696W        W30026  44.903  32.440   0.832
61697W        W30027  12.707   9.842   0.301
61698W        W30028   6.699  43.451  11.586
61699W        W30029  13.350   5.695  13.443
61700W        W30030  17.603   8.785   2.671
61701W        W30031  31.456  32.458   2.677
61702W        W30032   2.946  22.122  10.502
61703W        W30033  21.546  42.393   4.341
61704W        W30034  20.106  27.493  14.940
61705W        W30035  11.317  18.638  14.446
61706W        W30036  42.013  13.184   5.201
61707W        W30037   0.266   1.253  14.948
61708W        W30038  11.777  35.405  13.010
61709W        W30039  18.065  19.616   3.345
61710W        W30040  11.228  22.669  14.901
61711W        W30041  43.462  29.126  12.910
61712W        W30042  15.797  11.661  12.935
61713W        W30043  33.937   6.795   4.166
61714W        W30044  35.558   6.764   3.780
61715W        W30045  17.274  44.933  13.031
61716W        W30046   8.293  16.178   4.698
61717W        W30047  30.073   5.816  14.314
61718W        W30048  29.967  21.217  11.518
61719W        W30049   7.342  17.790  12.985
61720W        W30050  10.270   3.380   3.284
61721W        W30051  31.956   4.822  14.869
61722W        W30052  43.893  30.157   1.826
61723W        W30053  21.556  18.088  13.024
61724W        W30054  16.220  36.951   3.743
61725W        W30055  29.580   0.414  14.345
61726W        W30056  17.155   2.468  12.961
61727W        W30057  36.359   5.317  13.812
61728W        W30058  20.035   8.775   4.706
61729W        W30059  24.217  16.114   1.923
61730W        W30060   8.870  21.020   4.354
61731W        W30061  32.542  18.114   4.628
61732W        W30062  17.170  17.092  14.981
61733W        W30063  40.802  13.112   1.219
61734W        W30064  31.575  24.167   3.814
61735W        W30065  30.599  22.549  13.427
61736W        W30066  32.559  36.523   4.352
61737W        W30067  17.578  28.658  11.556
61738W        W30068  28.050  24.537  14.327
61739W        W30069  13.662  42.367   2.411
61740W        W30070  12.138  35.558   0.768
61741W        W30071  25.975  32.502  13.812
61742W        W30072  44.356  10.641   0.841
61743W        W30073  36.448  18.656  13.393
61744W        W30074  25.065   7.747  13.453
61745W        W30075  19.206  21.723  11.015
61746W        W30076  19.158  15.760  10.489
61747W        W30077  40.451  12.717  13.022
61748W        W30078   3.400  18.783  11.058
61749W        W30079  14.767   0.292  11.919
61750W        W30080  26.994  19.610  10.982
61751W        W30081  22.121  31.961   2.702
61752W        W30082  25.483  36.854  10.966
61753W        W30083  32.900  21.590   4.832
61754W        W30084  33.907  15.228   2.812
61755W        W30085   6.294   5.299   4.656
61756W        W30086  16.632  19.656   0.396
61757W        W30087  18.274  24.037   1.920
61758W        W30088  38.934  23.145   2.332
61759W        W30089  25.123  34.010   4.135
61760W        W30090   2.894  44.775   4.625
61761W        W30091  26.094  20.621   4.627
61762W        W30092  26.700  14.318   1.764
61763W        W30093  22.040  34.570   4.322
61764W        W30094  25.614  31.971  12.003
61765W        W30095  40.029  30.520   3.789
61766W        W30096  10.246  15.618   0.303
61767W        W30097  14.337   1.915  12.024
61768W        W30098  23.656  37.392  11.099
61769W        W30099  36.590  19.769   1.828
61770W        W30100  30.051   5.370   2.774
61771W        W30101  22.523  23.627  13.941
61772W        W30102  35.920   6.255  10.947
61773W        W30103  26.024  11.752   3.804
61774W        W30104  43.019  43.411  10.634
61775W        W30105   3.940  11.234   4.638
61776W        W30106  41.363  40.846   2.360
61777W        W30107  18.675  13.187   1.893
61778W        W30108  11.810  37.524   1.775
61779W        W30109  25.614  43.852   4.771
61780W        W30110  29.592  11.252  13.026
61781W        W30111   5.922  18.217   4.837
61782W        W30112  15.227  15.270   1.330
61783W        W30113   8.873  43.878   0.367
61784W        W30114  12.848  32.136   2.324
61785W        W30115  35.423   4.769  11.101
61786W        W30116  27.630  40.998   4.192
61787W        W30117  10.725  43.954  13.494
61788W        W30118   3.240  35.889  10.938
61789W        W30119  11.237  44.359  13.027
61790W        W30120   7.847  27.034  11.488
61791W        W30121  36.069  27.136   3.270
61792W        W30122  30.441   2.429   3.808
61793W        W30123  40.523  41.999   3.186
61794W        W30124  37.371  26.592   0.393
61795W        W30125   5.303  21.540   0.334
61796W        W30126  38.562   3.357   5.308
61797W        W30127  16.093  44.935  10.963
61798W        W30128  43.769  20.527   2.818
61799W        W30129  37.934  15.732   4.126
61800W        W30130   9.168  41.903   2.346
61801W        W30131  44.440  30.537  14.006
61802W        W30132  31.407  39.457  11.004
61803W        W30133  26.062   7.676  12.353
61804W        W30134  33.578  37.423   2.843
61805W        W30135  39.891  16.772  10.571
61806W        W30136   9.689  40.892  14.362
61807W        W30137  28.543  22.663   3.832
61808W        W30138  39.525  41.997   3.726
61809W        W30139   0.322   5.299   2.348
61810W        W30140  31.975  16.809   0.432
61811W        W30141  39.823  11.729   2.691
61812W        W30142  34.972  42.822  12.008
61813W        W30143  31.928  41.917   4.692
61814W        W30144  28.576  31.013   5.274
61815W        W30145  27.552  23.222   2.808
61816W        W30146  27.013  25.010  14.361
61817W        W30147  43.430   2.839  10.464
61818W        W30148  22.141   1.823  11.592
61819W        W30149  32.612  15.641   4.220
61820W        W30150   8.845   6.239  11.406
61821W        W30151  43.774   0.458   1.363
61822W        W30152  11.824  27.614  13.833
61823W        W30153  37.385  16.310   1.918
61824W        W30154  26.992   1.307   3.752
61825W        W30155  26.584  29.507  12.343
61826W        W30156  35.410   2.745  14.356
61827W        W30157  18.086   8.757   2.818
61828W        W30158  17.702  32.574   3.197
61829W        W30159  31.939  27.665   3.229
61830W        W30160  15.167   2.350   1.792
61831W        W30161  25.659  20.137  13.031
61832W        W30162   6.889  22.578  10.450
61833W        W30163  35.524  33.065  14.989
61834W        W30164  17.254  20.650   2.717
61835W        W30165  17.660   5.776   2.205
61836W        W30166  23.007  20.047   3.318
61837W        W30167   4.375   5.276  14.329
61838W        W30168   0.743  32.435  10.917
61839W        W30169   8.219   6.813  12.518
61840W        W30170  19.580  42.994  13.859
61841W        W30171  11.626  43.362   3.218
61842W        W30172  10.213  43.835  13.385
61843W        W30173  28.147  11.751  11.523
61844W        W30174  14.706  39.918   2.752
61845W        W30175  22.616  35.101  10.469
61846W        W30176  31.532  11.735   3.832
61847W        W30177  18.782  11.295  11.094
61848W        W30178  30.975   8.238   4.165
61849W        W30179   0.322  41.010   3.196
61850W        W30180  13.646   3.248  12.949
61851W        W30181  12.195  12.339   3.271
61852W        W30182  36.087  44.262   3.149
61853W        W30183  15.603  13.268   5.199
61854W        W30184  24.719  10.354   2.335
61855W        W30185  31.496  20.202  14.954
61856W        W30186  25.491  22.066   3.184
61857W        W30187  28.015  28.502   3.693
61858W        W30188  24.202  18.152  14.872
61859W        W30189  28.139  25.561   0.374
61860W        W30190  22.642  10.741  13.050
61861W        W30191  14.295  31.912   9.923
61862W        W30192   6.220  26.657  13.526
61863W        W30193  17.292   2.289   0.831
61864W        W30194  14.746   6.424   1.261
61865W        W30195  37.552   2.818  12.066
61866W        W30196  39.848  43.986  13.917
61867W        W30197  11.839  41.879   2.370
61868W        W30198  39.005  26.204  14.276
61869W        W30199  38.826   7.220  12.461
61870W        W30200  25.664  42.476  11.453
61871W        W30201  21.719  39.057  14.421
61872W        W30202   2.363  23.664  12.905
61873W        W30203  21.596  33.430  10.569
61874W        W30204   2.888  41.908   3.259
61875W        W30205  12.682  17.702   3.376
61876W        W30206   1.242  36.886  13.891
61877W        W30207   3.847   0.406  11.989
61878W        W30208  42.921  37.476  13.848
61879W        W30209  37.083  13.139  10.617
61880W        W30210  16.117  27.028   2.805
61881W        W30211  37.078  36.936  13.925
61882W        W30212   3.840  31.067  14.873
61883W        W30213  25.664  15.203   1.859
61884W        W30214  21.191  31.461   9.555
61885W        W30215   7.809  38.431   1.232
61886W        W30216  17.111  20.700  12.899
61887W        W30217  31.143  35.105   4.722
61888W        W30218  11.643  31.590   3.639
61889W        W30219   5.380   1.291  10.474
61890W        W30220  28.466  12.615   1.375
61891W        W30221   3.417  34.570  12.959
61892W        W30222  18.102  41.411   2.897
61893W        W30223  14.696   8.817  14.368
61894W        W30224  12.256   5.393  12.910
61895W        W30225   4.277  17.144  12.510
61896W        W30226  37.422  11.704   0.959
61897W        W30227  41.872  27.988   4.313
61898W        W30228   2.939  11.803  11.876
61899W        W30229   0.305   5.720   2.238
61900W        W30230  22.540  27.945   2.856
61901W        W30231   9.748  31.138  11.392
61902W        W30232  40.004   6.878  13.464
61903W        W30233  11.336  38.062   1.404
61904W        W30234   6.182   5.256   3.185
61905W        W30235   8.206  17.727  12.875
61906W        W30236  36.012   4.913  13.873
61907W        W30237  42.324  24.974   0.752
61908W        W30238   6.915   2.787   2.294
61909W        W30239  34.589  34.588  13.513
61910W        W30240  30.467  15.733   1.915
61911W        W30241   7.682  11.177   1.818
61912W        W30242  16.612  39.966   1.825
61913W        W30243  33.919  41.433  12.993
61914W        W30244   5.315  38.931  12.865
61915W        W30245  14.642  15.310   0.313
61916W        W30246  17.644  29.968   1.311
61917W        W30247   4.860  14.095   0.801
61918W        W30248  19.259  18.575   0.371
61919W        W30249   0.817   9.393  14.514
61920W        W30250   3.443   4.870   1.742
61921W        W30251  30.993   7.206   3.761
61922W        W30252  42.790   8.234   4.686
61923W        W30253  11.623   1.805  13.958
61924W        W30254  13.184  26.003   2.875
61925W        W30255   2.951  14.117   0.284
61926W        W30256  35.565  36.394   3.796
61927W        W30257  33.432  19.721  10.464
61928W        W30258  34.874  26.001   4.150
61929W        W30259  24.173  11.312   1.724
61930W        W30260  28.137  37.373   1.354
61931W        W30261  29.467  28.081   1.830
61932W        W30262  18.157   6.809  14.857
61933W        W30263  25.702  33.435   1.744
61934W        W30264   8.177  43.515  10.629
61935W        W30265  26.153  16.722   1.855
61936W        W30266  28.997   1.294   0.908
61937W        W30267  18.619  19.040  10.429
61938W        W30268  26.203  18.553  11.473
61939W        W30269  12.644  43.965   1.737
61940W        W30270  26.525  14.148   3.362
61941W        W30271  42.359  23.070   1.245
61942W        W30272  25.686  22.114  12.977
61943W        W30273  40.980  28.545   4.824
61944W        W30274  21.522  33.438  13.862
61945W        W30275  15.718  24.605   2.856
61946W        W30276   4.361  26.107   3.333
61947W        W30277  36.441  22.511  10.430
61948W        W30278   4.897  10.658   0.446
61949W        W30279  43.404  39.436   2.820
61950W        W30280  12.657  11.157  14.895
61951W        W30281   8.391  43.390  13.447
61952W        W30282  19.121  24.606  14.386
61953W        W30283  10.270  22.513   0.744
61954W        W30284  24.719  39.315   1.785
61955W        W30285   7.310  24.517   3.870
61956W        W30286  14.309  11.366  13.864
61957W        W30287  44.400  18.278  11.987
61958W        W30288  13.127  44.266   1.264
61959W        W30289  10.783  27.943   2.680
61960W        W30290  16.298  19.231   1.861
61961W        W30291  32.886  24.134   2.374
61962W        W30292   9.377  14.696   4.303
61963W        W30293   8.172  21.193  11.998
61964W        W30294  22.204  19.125  10.632
61965W        W30295  32.051   1.792  11.922
61966W        W30296  15.117  26.971   0.396
61967W        W30297  30.146  37.500   2.774
61968W        W30298  32.083  34.864  11.376
61969W        W30299  31.453   2.829   0.421
61970W        W30300   6.917  29.981  10.482
61971W        W30301  41.538  40.012   2.754
61972W        W30302  25.657  12.612  10.544
61973W        W30303  32.921  40.899  14.868
61974W        W30304  24.522  29.564   2.734
61975W        W30305   5.367  25.115   0.267
61976W        W30306  40.333  26.992  14.872
61977W        W30307   5.789  10.294   3.237
61978W        W30308  29.971  25.552  14.514
61979W        W30309  33.889  21.237  13.919
61980W        W30310  40.885  25.691  12.950
61981W        W30311  38.549  44.840   0.831
61982W        W30312  22.580   3.930  13.517
61983W        W30313  29.601  20.206  12.044
61984W        W30314  30.971  12.149   3.642
61985W        W30315  38.517  35.039  12.575
61986W        W30316  15.680  21.249   4.146
61987W        W30317  16.148  21.549   0.933
61988W        W30318  27.022  37.532  12.911
61989W        W30319  24.119  40.851   4.798
61990W        W30320  33.033   3.830   0.829
61991W        W30321  31.456  39.058   4.258
61992W        W30322  38.904  32.006  12.950
61993W        W30323  24.019  41.839   3.204
61994W        W30324  10.368  17.620   0.382
61995W        W30325  28.999  10.369   0.839
61996W        W30326   2.278  42.924   2.886
61997W        W30327  11.684  36.944  14.304
61998W        W30328   3.407  18.112   3.202
61999W        W30329  40.442  22.011  11.951
62000W        W30330  26.507   7.896  13.035
62001W        W30331  21.555  20.108   0.744
62002W        W30332  39.061  27.594  13.060
62003W        W30333  36.487  43.946  14.776
62004W        W30334  44.844  36.016  13.011
62005W        W30335   1.749   8.226  12.828
62006W        W30336  36.483  36.074  12.369
62007W        W30337  20.634   2.471   1.920
62008W        W30338  43.396   5.213  11.969
62009W        W30339  27.964  44.981   1.236
62010W        W30340  21.686  19.142  14.813
62011W        W30341  30.631  28.971  10.551
62012W        W30342  39.046  30.637   3.344
62013W        W30343  19.200  15.767   2.864
62014W        W30344   9.281  28.098  13.022
62015W        W30345  17.591  39.373   3.869
62016W        W30346  41.948  26.088   3.734
62017W        W30347  26.204  18.572  14.806
62018W        W30348  39.993  39.524  14.513
62019W        W30349  13.246  27.143   1.874
62020W        W30350   7.362  17.293  13.922
62021W        W30351  38.839  39.329   2.718
62022W        W30352  37.562  43.477   4.209
62023W        W30353  30.912  16.637  11.076
62024W        W30354  27.962   9.769   4.627
62025W        W30355  24.685   4.355  11.552
62026W        W30356  13.109   1.278   2.734
62027W        W30357  26.682   8.289  12.837
62028W        W30358  14.212  35.910  14.419
62029W        W30359  24.102   3.714   1.319
62030W        W30360  19.232  39.375   2.281
62031W        W30361  25.485  12.143   4.173
62032W        W30362  16.285  41.854  14.881
62033W        W30363   3.220  23.700  12.849
62034W        W30364  42.469  42.848  14.296
62035W        W30365  34.441  38.044  10.641
62036W        W30366  10.208  13.668   0.953
62037W        W30367  31.508  43.467  11.457
62038W        W30368   7.799   9.268  12.420
62039W        W30369   3.217  18.250  12.842
62040W        W30370  36.550  42.823  10.528
62041W        W30371  11.849  16.271  13.492
62042W        W30372   4.756  11.810  10.962
62043W        W30373  29.670  26.008  13.543
62044W        W30374  15.718  15.777  12.085
62045W        W30375  11.720  24.221  12.560
62046W        W30376   3.370  12.341  14.008
62047W        W30377   5.808  16.197  14.379
62048W        W30378  10.794  25.099  12.992
62049W        W30379  19.255  30.077   3.726
62050W        W30380  29.005   4.777  11.099
62051W        W30381  41.833  15.170  11.445
62052W        W30382  21.033  34.119   2.363
62053W        W30383   2.333   3.431  12.396
62054W        W30384  31.644  34.598  13.346
62055W        W30385  26.624  17.065   2.777
62056W        W30386  23.101  12.657  12.864
62057W        W30387  40.989  38.484   3.381
62058W        W30388   3.935  17.130   0.481
62059W        W30389  36.576   5.801   3.261
62060W        W30390  17.113  40.416   1.838
62061W        W30391  38.407  12.746   3.726
62062W        W30392  25.688  20.637  12.468
62063W        W30393  28.170  34.608  12.530
62064W        W30394  42.843  40.304  12.882
62065W        W30395   5.233  25.070  11.968
62066W        W30396   9.649  41.816  10.488
62067W        W30397   7.196  36.544   0.732
62068W        W30398   9.668   9.180   2.308
62069W        W30399  43.943   3.750   1.442
62070W        W30400  15.589   8.855  13.468
62071W        W30401  18.259  33.489   2.227
62072W        W30402  42.941  19.709   4.162
62073W        W30403  21.063  36.906  13.311
62074W        W30404   6.769  25.679   4.214
62075W        W30405  25.496   2.320   4.318
62076W        W30406  40.433   2.231   2.699
62077W        W30407  26.055  24.046   0.263
62078W        W30408   5.914  21.637  12.013
62079W        W30409  27.978  15.624  12.844
62080W        W30410  25.129  19.773   3.223
62081W        W30411  31.443   2.374   2.235
62082W        W30412   7.893  25.082  14.010
62083W        W30413  30.442  39.813   0.371
62084W        W30414  36.979  10.289   3.687
62085W        W30415  14.653  26.691   1.323
62086W        W30416  17.106  33.569  14.511
62087W        W30417  40.511   5.765  13.012
62088W        W30418  43.995  24.620  13.526
62089W        W30419  42.015  28.663   2.742
62090W        W30420   7.838  26.988  11.097
62091W        W30421  40.436   4.875   4.749
62092W        W30422  10.676  19.577  13.440
62093W        W30423  15.267  29.451  14.307
62094W        W30424  43.967  22.012  10.950
62095W        W30425  16.295  26.113   1.828
62096W        W30426  13.308  34.003   1.411
62097W        W30427  25.651   6.765   1.778
62098W        W30428  27.166  25.131  14.965
62099W        W30429  25.207   6.357  13.872
62100W        W30430  17.680   2.774   4.176
62101W        W30431   8.875  37.835   1.436
62102W        W30432  23.705  27.995  14.835
62103W        W30433  20.545  33.540  12.911
62104W        W30434   6.678  36.369  10.638
62105W        W30435  31.514  14.280   1.782
62106W        W30436  43.782  26.627  14.889
62107W        W30437   6.861   5.240  10.934
62108W        W30438   8.826  33.054  13.943
62109W        W30439  27.117  33.006   2.201
62110W        W30440  22.221  14.655  13.052
62111W        W30441  40.474  21.246  12.367
62112W        W30442  42.431  20.177   4.715
62113W        W30443  37.536  42.849  13.515
62114W        W30444  10.878   2.811   0.945
62115W        W30445  43.359  22.131   3.696
62116W        W30446  21.194  27.995  14.820
62117W        W30447   2.931  16.637   1.328
62118W        W30448  36.503  29.100  12.508
62119W        W30449  41.910  15.266   3.632
62120W        W30450  14.295  43.833   2.686
62121W        W30451  26.630  40.026   2.707
62122W        W30452   7.691   7.301   2.365
62123W        W30453   8.233  12.359  13.933
62124W        W30454   2.235  29.068   4.157
62125W        W30455  30.641  10.817  14.364
62126W        W30456  27.175  27.186  13.380
62127W        W30457   3.823  21.673   0.458
62128W        W30458  11.754   2.368  11.597
62129W        W30459  11.689   9.651   4.303
62130W        W30460  38.467  15.797  12.009
62131W        W30461  24.180  33.527  11.877
62132W        W30462   6.350  18.090  10.537
62133W        W30463  19.764  11.230   1.292
62134W        W30464  14.143   8.315   3.719
62135W        W30465  29.928  15.171  11.919
62136W        W30466  34.414  10.248   4.123
62137W        W30467  43.473  24.210   4.345
62138W        W30468  19.572  10.290  13.440
62139W        W30469  27.080  21.516  14.399
62140W        W30470  36.033  42.417  12.891
62141W        W30471  10.306  24.545   3.761
62142W        W30472  19.729  42.511   4.226
62143W        W30473  16.088  29.151  11.061
62144W        W30474  36.510  13.336  11.052
62145W        W30475  36.986  40.007  11.881
62146W        W30476  44.435  30.508  12.901
62147W        W30477  44.957  10.827  12.947
62148W        W30478  35.106  18.638  14.769
62149W        W30479  26.652   9.206  13.974
62150W        W30480  35.934  11.164  14.946
62151W        W30481  12.847  37.884   3.345
62152W        W30482  29.663  10.813   0.244
62153W        W30483   2.317  18.627   1.913
62154W        W30484  14.268  24.135   4.609
62155W        W30485  31.101  29.545   2.732
62156W        W30486  17.624  21.751   2.838
62157W        W30487  21.610  30.140  11.396
62158W        W30488   4.843  33.902  10.590
62159W        W30489  42.883   8.220  12.070
62160W        W30490  27.079   6.693  13.049
62161W        W30491  43.436  27.588  12.482
62162W        W30492  23.583   6.686   3.328
62163W        W30493  26.156  39.392   4.599
62164W        W30494  44.350   7.741   2.261
62165W        W30495   2.309  12.796   4.291
62166W        W30496  22.127  27.665  11.974
62167W        W30497   3.272   6.884   0.753
62168W        W30498  35.884  43.772   1.768
62169W        W30499   9.734  18.645  13.856
62170W        W30500  33.462  21.168   5.248
62171W        W30501   1.917  21.251   4.288
62172W        W30502  33.979  42.464  12.457
62173W        W30503  41.029   0.476   3.153
62174W        W30504   0.479  32.485  12.491
62175W        W30505  23.187  37.068   2.274
62176W        W30506  39.334  11.305  12.574
62177W        W30507  24.005   2.285   0.779
62178W        W30508  39.917  33.455   3.146
62179W        W30509  18.277  41.427   1.386
62180W        W30510  33.122   1.435  11.496
62181W        W30511  40.311  44.311  13.950
62182W        W30512  43.350  16.273  10.921
62183W        W30513  27.128  25.109   4.353
62184W        W30514  31.501  25.061  12.552
62185W        W30515  41.388  30.603  12.989
62186W        W30516  16.114  40.328  12.518
62187W        W30517  44.946  26.637  10.503
62188W        W30518  23.064  39.042   4.202
62189W        W30519  41.480  33.467   1.720
62190W        W30520  15.747   8.259   4.270
62191W        W30521  25.618  18.097   3.695
62192W        W30522  43.947  27.562  10.444
62193W        W30523  10.855   4.708  10.113
62194W        W30524  12.824  44.488   1.399
62195W        W30525  35.444   6.883   0.246
62196W        W30526  11.811  11.133   2.415
62197W        W30527  31.423  19.157   4.800
62198W        W30528   9.306  25.651   1.248
62199W        W30529   2.895  35.932  14.793
62200W        W30530   7.178  29.666   0.885
62201W        W30531  37.447   7.225  14.765
62202W        W30532  13.689  13.287   2.311
62203W        W30533  44.405  10.857  11.479
62204W        W30534  17.747  42.864  13.382
62205W        W30535   5.314  15.265  13.818
62206W        W30536  26.148  27.488   0.453
62207W        W30537   4.367   2.232  10.965
62208W        W30538  18.723  44.431   2.301
62209W        W30539  13.163  23.031  10.962
62210W        W30540   1.401  27.591   1.899
62211W        W30541  29.501   5.367  11.986
62212W        W30542  11.196  31.120  13.018
62213W        W30543  17.678   8.884  13.518
62214W        W30544   5.847  25.533   4.119
62215W        W30545  16.109   1.376   4.680
62216W        W30546  32.141  44.813  14.275
62217W        W30547  36.468   3.417  10.462
62218W        W30548  43.915   8.803   5.156
62219W        W30549   3.753  28.610  13.831
62220W        W30550  25.172  10.261   2.365
62221W        W30551  29.099  15.696  13.794
62222W        W30552  38.393  25.635   2.351
62223W        W30553  41.296  27.124  11.949
62224W        W30554  13.767  29.144  11.001
62225W        W30555  17.686  38.887   4.294
62226W        W30556  43.901  10.682   3.812
62227W        W30557  18.123  31.974   1.434
62228W        W30558  19.064  14.151  10.921
62229W        W30559   6.338   7.384  14.019
62230W        W30560  25.557  32.531   2.750
62231W        W30561  37.566  38.046  12.417
62232W        W30562  26.465  43.286   1.778
62233W        W30563  26.165  30.479  11.113
62234W        W30564  34.022  36.482   0.309
62235W        W30565  37.969  28.581   3.795
62236W        W30566  13.328  12.321  13.851
62237W        W30567  20.658  18.106   0.942
62238W        W30568   5.821  33.449  13.371
62239W        W30569   3.942  35.045   2.332
62240W        W30570  24.143  34.910  11.520
62241W        W30571  29.578  24.123   4.167
62242W        W30572  18.629   5.727   2.717
62243W        W30573  26.555  28.998   1.717
62244W        W30574   6.394  16.585   3.794
62245W        W30575  28.086  36.566   4.791
62246W        W30576   9.193  17.595  12.359
62247W        W30577  40.954   7.760  13.000
62248W        W30578  32.525  41.459  11.435
62249W        W30579   7.860  29.063  14.290
62250W        W30580  22.744  25.200   0.911
62251W        W30581   7.903  38.052   3.863
62252W        W30582   5.412   3.452  10.638
62253W        W30583  13.829  34.985  11.426
62254W        W30584  12.633  37.519  13.983
62255W        W30585  24.159  43.791  10.984
62256W        W30586   0.448  20.260  14.876
62257W        W30587   2.439   0.795   3.758
62258W        W30588  21.201   5.407  13.360
62259W        W30589  16.229   6.709  11.955
62260W        W30590   0.851   2.374   1.322
62261W        W30591  13.176  35.929  13.990
62262W        W30592  40.910  38.995  13.887
62263W        W30593   7.905   0.790   3.208
62264W        W30594  27.154  38.471   0.482
62265W        W30595  13.345  24.508  11.894
62266W        W30596  34.883  32.113   5.131
62267W        W30597   3.796   5.273  10.477
62268W        W30598   9.287  14.253  12.009
62269W        W30599  14.249   7.765  13.888
62270W        W30600  38.014  27.614  12.013
62271W        W30601  36.360  19.744   3.315
62272W        W30602   1.290  26.674  13.938
62273W        W30603  44.467  41.517  12.091
62274W        W30604  40.954  38.463   0.814
62275W        W30605  12.339   6.812   4.199
62276W        W30606   6.387  13.616   4.693
62277W        W30607  37.963  42.500   1.400
62278W        W30608  19.594   2.875  12.368
62279W        W30609  31.981  41.996  11.384
62280W        W30610  12.275   9.721  13.809
62281W        W30611  16.604   3.414  10.448
62282W        W30612   0.907   5.287  14.950
62283W        W30613   5.709  25.089  10.947
62284W        W30614  15.644  32.563   4.311
62285W        W30615  41.877  44.891   1.736
62286W        W30616  29.954  42.326  12.449
62287W        W30617   4.726  18.057  13.053
62288W        W30618  33.405  23.233  13.507
62289W        W30619  39.863  42.881   1.409
62290W        W30620  33.398  38.915  13.454
62291W        W30621  24.000   7.380   4.695
62292W        W30622  21.717  36.900  11.003
62293W        W30623  44.002   2.752  14.776
62294W        W30624  21.115  26.997   0.348
62295W        W30625  42.962  32.957  13.447
62296W        W30626  43.309  16.284   0.855
62297W        W30627  29.986  28.184  14.478
62298W        W30628  35.993  22.128  12.956
62299W        W30629   9.368  11.234   4.221
62300W        W30630  33.048   9.153   1.264
62301W        W30631  29.965  38.059   3.205
62302W        W30632  23.669  16.573  12.089
62303W        W30633  13.188  25.979  14.842
62304W        W30634  21.525  43.997  14.288
62305W        W30635  38.020  27.165   0.301
62306W        W30636  22.745  36.878  14.856
62307W        W30637  18.592  34.117   2.223
62308W        W30638  31.538  36.904   4.237
62309W        W30639   3.266  12.665  11.531
62310W        W30640  43.354  24.146  14.296
62311W        W30641  32.560  25.148   3.217
62312W        W30642  42.877  40.429   1.401
62313W        W30643  24.154  28.510  11.534
62314W        W30644  24.514  12.804   1.813
62315W        W30645  22.110   5.925  11.893
62316W        W30646  16.193  29.592  12.875
62317W        W30647  24.068  32.997   4.740
62318W        W30648  12.185   5.379   3.235
62319W        W30649   3.786   5.782   2.750
62320W        W30650  39.875  20.054  14.328
62321W        W30651  10.382   4.726   2.823
62322W        W30652  16.770   5.763  14.793
62323W        W30653  26.473  22.182  14.281
62324W        W30654  19.698  24.581   4.601
62325W        W30655  38.349   0.466  14.875
62326W        W30656  43.366  18.761  10.468
62327W        W30657  34.916   8.737   0.411
62328W        W30658  29.535  13.769   4.669
62329W        W30659  36.542  14.328  11.963
62330W        W30660  33.422  36.901   1.920
62331W        W30661  19.725  38.377  10.479
62332W        W30662  32.933  37.461  14.505
62333W        W30663  14.287  31.627   0.332
62334W        W30664  30.987   1.748  14.403
62335W        W30665  17.650  18.135  13.428
62336W        W30666  41.817  28.508   0.404
62337W        W30667  18.712  27.459  13.522
62338W        W30668   3.857  43.407   0.860
62339W        W30669   6.907  36.054   2.381
62340W        W30670  17.228   0.334   4.616
62341W        W30671  14.163  21.715  14.874
62342W        W30672  10.791   8.387   1.788
62343W        W30673  39.362  17.305   3.330
62344W        W30674  37.943   7.853   5.210
62345W        W30675  16.582  33.485   3.161
62346W        W30676  20.571   2.259   0.243
62347W        W30677  16.673  21.594   3.809
62348W        W30678  10.748  16.704  14.896
62349W        W30679  14.763  41.523  13.886
62350W        W30680  17.640  35.533  14.869
62351W        W30681  16.283   5.250   3.790
62352W        W30682   0.875   5.209  11.431
62353W        W30683  39.902  35.516   1.290
62354W        W30684  43.877  34.110   0.902
62355W        W30685  15.581   9.300   2.877
62356W        W30686  34.010  12.614  12.919
62357W        W30687  24.213  29.995   4.303
62358W        W30688   8.900  43.294  12.859
62359W        W30689  13.183  26.681  14.465
62360W        W30690  35.486  38.973  13.310
62361W        W30691   5.845  35.389  12.421
62362W        W30692  42.911  20.219   3.708
62363W        W30693  36.482  33.965   1.859
62364W        W30694  33.382  39.907  13.472
62365W        W30695  24.001  32.042  11.375
62366W        W30696   3.255  34.013  10.556
62367W        W30697  44.376   1.358  10.119
62368W        W30698  12.831  18.699   2.779
62369W        W30699  36.078  17.784  10.460
62370W        W30700  31.083  21.224  14.512
62371W        W30701  25.660  20.762  13.500
62372W        W30702  11.276  16.783  14.978
62373W        W30703  12.713   5.269   0.431
62374W        W30704  42.939  36.054   3.785
62375W        W30705  25.574  42.323   3.762
62376W        W30706  13.791   1.338   2.884
62377W        W30707   6.376   1.437   4.641
62378W        W30708  38.035  37.912  10.493
62379W        W30709  14.702  38.844   9.987
62380W        W30710  21.147  27.006   4.753
62381W        W30711   9.331   0.383  11.403
62382W        W30712  17.777  40.018   1.890
62383W        W30713  35.863   1.908   3.779
62384W        W30714  38.461  34.436  14.384
62385W        W30715  18.674  13.136  10.583
62386W        W30716   2.346  33.010  10.539
62387W        W30717  34.937  30.002  11.995
62388W        W30718  31.617   5.409  14.504
62389W        W30719  32.999   7.369   0.769
62390W        W30720  23.499  20.714  12.846
62391W        W30721  43.788  15.640  11.941
62392W        W30722  30.575  41.952   2.330
62393W        W30723  39.317  27.452  10.921
62394W        W30724  13.166   8.262   1.279
62395W        W30725   7.811  10.239   3.256
62396W        W30726  12.683  44.762  14.796
62397W        W30727  28.462  43.365   3.712
62398W        W30728  37.359  22.664   0.294
62399W        W30729  18.100  25.966  13.813
62400W        W30730  15.728  12.133  14.352
62401W        W30731  44.342  12.725  13.395
62402W        W30732  11.313  17.216   0.316
62403W        W30733  19.114  37.562  10.625
62404W        W30734   6.875  36.976   4.152
62405W        W30735  11.295  15.191  12.837
62406W        W30736  19.084  17.293   1.870
62407W        W30737  31.983  17.799  14.277
62408W        W30738  29.437  21.671  14.290
62409W        W30739  36.919  22.628  10.600
62410W        W30740  29.919  24.480   3.714
62411W        W30741  13.321  33.443  11.393
62412W        W30742  31.990  36.443   0.276
62413W        W30743  36.842   4.374  13.991
62414W        W30744   9.379  32.893   0.401
62415W        W30745  14.237  41.411   4.130
62416W        W30746  15.676  23.674  14.830
62417W        W30747  24.197  34.567  10.925
62418W        W30748  41.042  36.363   0.765
62419W        W30749  14.128  36.913  11.964
62420W        W30750  28.571  32.545  12.023
62421W        W30751  26.156  28.116   1.704
62422W        W30752   9.240   5.368   1.721
62423W        W30753  35.377   8.789  14.311
62424W        W30754  37.936  30.096  14.389
62425W        W30755  41.469   0.904  10.595
62426W        W30756   0.426  24.157  10.898
62427W        W30757  30.451  42.932   0.861
62428W        W30758   9.388  22.115  11.563
62429W        W30759   7.888  19.780   3.741
62430W        W30760   6.829   0.925  14.502
62431W        W30761  26.677  17.159   2.404
62432W        W30762  31.136   2.466   1.262
62433W        W30763   7.904  33.026  14.937
62434W        W30764   0.829  19.568  12.443
62435W        W30765  37.472  27.585  14.368
62436W        W30766   5.340  18.058   0.953
62437W        W30767  34.950   1.270   0.330
62438W        W30768  17.651  19.258  13.536
62439W        W30769  20.187  21.163   1.706
62440W        W30770   6.898   0.769   4.310
62441W        W30771  13.133  44.986   3.371
62442W        W30772  20.178  14.640  12.430
62443W        W30773  31.516  17.194  11.468
62444W        W30774  25.480  43.491  13.012
62445W        W30775  41.919   3.361  13.360
62446W        W30776  30.017  27.514   2.267
62447W        W30777  21.073  12.651  13.919
62448W        W30778  22.143  35.412   4.680
62449W        W30779  18.175  22.211  12.561
62450W        W30780  43.947   1.850  14.766
62451W        W30781   9.725   3.419  12.839
62452W        W30782  41.407  27.653  13.064
62453W        W30783  17.264  17.092  12.951
62454W        W30784  21.094  29.949  11.065
62455W        W30785  27.576  12.228   2.869
62456W        W30786  15.290   8.235  13.816
62457W        W30787  44.425  23.042   2.699
62458W        W30788  43.895  31.991  13.007
62459W        W30789  26.126   2.368   0.326
62460W        W30790  13.158  38.327   3.774
62461W        W30791  42.820  13.351  11.017
62462W        W30792   4.364   8.814   4.322
62463W        W30793  38.542  21.521  14.871
62464W        W30794  17.285  18.618   4.795
62465W        W30795  11.127  35.420   0.460
62466W        W30796   1.749  19.653  14.844
62467W        W30797   7.704   3.299   2.811
62468W        W30798  21.206  31.451   4.333
62469W        W30799  21.707  31.004  13.397
62470W        W30800  33.442  17.117  13.434
62471W        W30801  34.963   4.707   4.136
62472W        W30802  14.648   1.887  14.017
62473W        W30803  41.419  17.724   2.858
62474W        W30804  28.546  41.949   3.328
62475W        W30805  30.536  24.545   1.251
62476W        W30806  18.275  39.005  14.285
62477W        W30807  37.884   8.742  10.468
62478W        W30808   9.269   9.751   1.317
62479W        W30809  29.023  23.653   4.729
62480W        W30810   2.835  43.448   2.813
62481W        W30811   3.378  14.109   4.671
62482W        W30812   0.940  34.027   2.896
62483W        W30813  38.941  30.473  12.988
62484W        W30814   6.319   3.790   4.322
62485W        W30815   1.472   9.273  14.894
62486W        W30816   2.756  19.113  14.386
62487W        W30817  19.763   6.856  14.324
62488W        W30818  39.814  39.364   3.870
62489W        W30819  43.473   1.897  12.552
62490W        W30820  30.101  39.384  11.929
62491W        W30821  24.045  37.901   0.737
62492W        W30822   5.197  17.275   1.812
62493W        W30823  30.568  32.547   0.779
62494W        W30824   3.455  24.617  13.999
62495W        W30825  19.244   3.294   1.341
62496W        W30826  26.996  42.920   0.284
62497W        W30827  40.980  39.821   4.188
62498W        W30828  10.845  43.964   0.734
62499W        W30829  39.402  41.028  14.444
62500W        W30830  36.090  21.719  11.000
62501W        W30831  42.437   2.260   4.685
62502W        W30832  34.908  44.763  14.910
62503W        W30833  15.209  17.275   1.721
62504W        W30834  41.984  15.641   5.088
62505W        W30835  13.774  40.947  10.900
62506W        W30836   8.190  28.025   3.338
62507W        W30837  34.393   0.494  10.512
62508W        W30838  37.449  19.170   3.670
62509W        W30839  37.015  26.491   3.356
62510W        W30840  39.061  39.987   4.756
62511W        W30841   2.867   5.294  10.925
62512W        W30842  32.392  41.816   0.459
62513W        W30843  18.199  21.526  12.083
62514W        W30844  28.626  37.357  12.347
62515W        W30845  26.537  14.317  10.530
62516W        W30846   5.752  26.137  12.497
62517W        W30847  18.159  15.298  11.029
62518W        W30848  40.391   0.457  14.387
62519W        W30849  44.771  35.390   2.846
62520W        W30850   6.329  33.001   0.948
62521W        W30851  44.921  16.588   1.350
62522W        W30852   5.797  21.592   0.948
62523W        W30853  24.096  40.896  12.394
62524W        W30854   5.770  38.941   2.405
62525W        W30855  16.072  34.608  14.001
62526W        W30856  11.350  27.053   0.357
62527W        W30857  38.047   6.214   4.686
62528W        W30858  18.085  21.152   4.302
62529W        W30859  27.188  30.033   4.659
62530W        W30860  10.141  24.986   1.241
62531W        W30861  39.926   7.363  12.393
62532W        W30862   4.944   3.715   1.859
62533W        W30863   4.759   0.908   2.320
62534W        W30864   7.403  35.859   4.145
62535W        W30865  40.900  12.249  11.934
62536W        W30866  29.640  20.649   0.809
62537W        W30867  18.198  21.664   2.331
62538W        W30868  42.913   8.259  10.940
62539W        W30869  42.304  36.424   0.303
62540W        W30870  18.689  20.545   0.304
62541W        W30871   3.720  17.285  13.049
62542W        W30872  40.011  33.495  12.921
62543W        W30873   5.193  23.128   1.400
62544W        W30874  27.179   9.888   2.343
62545W        W30875  19.703   1.352  10.572
62546W        W30876  17.288  39.942   0.434
62547W        W30877  37.437  42.916   3.767
62548W        W30878   4.295  11.273   1.357
62549W        W30879  24.167   6.327   0.404
62550W        W30880  37.836  44.801  12.934
62551W        W30881  27.474  40.839  12.387
62552W        W30882  11.702   7.679  14.005
62553W        W30883  22.728  26.083   3.663
62554W        W30884  26.514  24.711   0.967
62555W        W30885  37.935  17.095   2.293
62556W        W30886  18.628   2.269  11.380
62557W        W30887  11.853  30.002   1.822
62558W        W30888  16.699  13.695  14.827
62559W        W30889  20.530  19.196  14.959
62560W        W30890  29.524  30.626  12.093
62561W        W30891  26.498  27.517   1.259
62562W        W30892  18.557   2.311  14.761
62563W        W30893   1.242  22.179  13.346
62564W        W30894   8.822  33.941   2.356
62565W        W30895  34.871  31.526   2.720
62566W        W30896  42.921   3.400   1.253
62567W        W30897  39.386   8.858   5.678
62568W        W30898   0.822  19.145   2.726
62569W        W30899  27.446  43.986  12.381
62570W        W30900  18.634  15.093   2.339
62571W        W30901  27.514  29.166   3.807
62572W        W30902  22.651  40.889  11.531
62573W        W30903   3.874  31.101  10.622
62574W        W30904  24.172  15.313   1.783
62575W        W30905   9.162  32.400   1.233
62576W        W30906  23.504  29.453   0.824
62577W        W30907  22.724  15.127   3.206
62578W        W30908  19.273  42.857  10.556
62579W        W30909  32.553   0.302  10.926
62580W        W30910   9.731  16.616  12.433
62581W        W30911   4.361  33.454  12.566
62582W        W30912  14.158  15.714  12.883
62583W        W30913  41.374   6.322   0.934
62584W        W30914  26.694   7.228  12.872
62585W        W30915  32.444  29.980   1.742
62586W        W30916  13.806   0.802   3.247
62587W        W30917   8.796  23.236   3.838
62588W        W30918  40.871  40.972   4.218
62589W        W30919  41.010  15.752  10.586
62590W        W30920  14.281  13.651  12.505
62591W        W30921  24.018   3.443  10.982
62592W        W30922  12.616  42.790   1.738
62593W        W30923  42.912  15.684   3.184
62594W        W30924   0.417  13.248  11.591
62595W        W30925  30.614  30.999  11.863
62596W        W30926  43.421  32.626  13.533
62597W        W30927  30.432  36.047  13.458
62598W        W30928  32.474  42.931   0.879
62599W        W30929  18.208  18.056  12.941
62600W        W30930  16.706  20.113  10.936
62601W        W30931   5.750  30.942   2.854
62602W        W30932  40.517  10.776   4.740
62603W        W30933  24.573   2.786   0.284
62604W        W30934  40.910  42.777   0.480
62605W        W30935  26.700   6.300   5.096
62606W        W30936  35.855   7.282  12.987
62607W        W30937   6.919  26.970  11.550
62608W        W30938  12.148   9.814   4.167
62609W        W30939  40.454   5.786  11.573
62610W        W30940  35.930   3.749  13.519
62611W        W30941  12.294  35.457   3.329
62612W        W30942  34.417  18.167  12.076
62613W        W30943  26.556  28.478  12.416
62614W        W30944  34.042  10.844  12.491
62615W        W30945  22.636  32.932   3.761
62616W        W30946  42.288  17.260   1.835
62617W        W30947  28.558   3.357   1.307
62618W        W30948  29.553  14.147   0.373
62619W        W30949   9.174  41.477   2.223
62620W        W30950  20.700  39.546   1.336
62621W        W30951  37.025  12.168  11.039
62622W        W30952  19.569  28.177  11.429
62623W        W30953  30.933  11.255  12.973
62624W        W30954   2.777  17.754  14.945
62625W        W30955  16.148   9.854   2.200
62626W        W30956  23.076   5.722  13.497
62627W        W30957   2.867  36.017  11.956
62628W        W30958   4.211  39.939   0.316
62629W        W30959  27.463  23.659  11.908
62630W        W30960  28.974  21.740  14.862
62631W        W30961  43.931  39.023   4.699
62632W        W30962  14.315  19.164  11.469
62633W        W30963  43.780  24.689  10.536
62634W        W30964  35.058  29.933   0.251
62635W        W30965   3.265  28.144   3.258
62636W        W30966  42.977  18.689   1.869
62637W        W30967  41.791  42.863   1.435
62638W        W30968  14.168  30.065  10.510
62639W        W30969   6.709  11.826   2.251
62640W        W30970  21.644  41.465   5.224
62641W        W30971  40.329  36.376  14.956
62642W        W30972   6.306  41.345   2.395
62643W        W30973  23.098   8.797  13.955
62644W        W30974  21.192  40.969   3.336
62645W        W30975  12.752  32.993   2.284
62646W        W30976  14.734  44.000   4.151
62647W        W30977  31.917  37.343   5.129
62648W        W30978  21.157  22.688  11.102
62649W        W30979  16.648  12.338  11.458
62650W        W30980  40.465  44.811  13.431
62651W        W30981  14.338   2.346  12.948
62652W        W30982  36.426   5.707  12.428
62653W        W30983  27.948  44.877   2.887
62654W        W30984  20.030  42.476  12.882
62655W        W30985   5.218  40.966  11.082
62656W        W30986   0.883  23.529  13.942
62657W        W30987   4.337  23.688   3.199
62658W        W30988  40.883  34.012  13.380
62659W        W30989  28.975  30.028   1.882
62660W        W30990  29.603  30.125   3.673
62661W        W30991   9.267   1.406  13.510
62662W        W30992   6.791   4.425  12.065
62663W        W30993  14.241  23.193   2.349
62664W        W30994  39.457  10.665  10.637
62665W        W30995   6.426  31.569  13.965
62666W        W30996  32.091  15.804   2.858
62667W        W30997  23.023  31.073   4.293
62668W        W30998  21.042  40.961  14.977
62669W        W30999  10.665  44.827   3.658
62670W        W31000  13.339  33.960  11.113
62671W        W31001  43.507   5.781   3.698
62672W        W31002  36.502  36.384  11.425
62673W        W31003  14.277   5.924  10.611
62674W        W31004   6.824  12.134   3.304
62675W        W31005  17.288  40.804  10.098
62676W        W31006  20.091  17.158  12.366
62677W        W31007  12.769  44.875  14.327
62678W        W31008  41.467  28.177  10.586
62679W        W31009  11.321   9.170   1.360
62680W        W31010  24.005  28.072   0.358
62681W        W31011  14.205  24.078   5.125
62682W        W31012  16.779  37.426   3.659
62683W        W31013  31.585   3.322   0.755
62684W        W31014  24.221   9.326   2.725
62685W        W31015  31.065  29.022  14.032
62686W        W31016  11.692  26.567  14.382
62687W        W31017  39.351  26.657  13.842
62688W        W31018  32.422  16.124  10.581
62689W        W31019  18.740  23.694  11.096
62690W        W31020   5.362   1.282   0.949
62691W        W31021  39.512  36.529  14.968
62692W        W31022  17.619  20.192  13.506
62693W        W31023  10.721  43.492  10.620
62694W        W31024  20.154  23.614   4.693
62695W        W31025   5.924   2.935   3.212
62696W        W31026   5.317  36.492  13.043
62697W        W31027  17.560   1.942   0.401
62698W        W31028   7.869  35.014  13.414
62699W        W31029  17.592  14.315   4.828
62700W        W31030  37.937  20.662   1.725
62701W        W31031  28.566  23.724   3.197
62702W        W31032  18.091   2.730   1.423
62703W        W31033   7.398   5.259  10.971
62704W        W31034  15.710  19.558  14.397
62705W        W31035  17.198   7.320  14.336
62706W        W31036  31.084  28.549   4.759
62707W        W31037  12.688  39.046   4.188
62708W        W31038  12.696  34.552  14.509
62709W        W31039  15.742  22.084  12.431
62710W        W31040  32.003  15.126   1.289
62711W        W31041  30.633  23.722  13.060
62712W        W31042  38.557   2.255   0.272
62713W        W31043  13.657   1.244  11.068
62714W        W31044  10.334  36.956   5.282
62715W        W31045   1.848  24.516  11.914
62716W        W31046   0.437  28.169   0.245
62717W        W31047  13.132   8.672   0.286
62718W        W31048   2.841  20.184  12.890
62719W        W31049  18.764  32.011  11.911
62720W        W31050   8.331   5.730   2.236
62721W        W31051  11.743  21.607   1.357
62722W        W31052  24.121  16.199  11.402
62723W        W31053   9.163  12.300   3.844
62724W        W31054  33.109  26.542   0.796
62725W        W31055   9.753  30.585   2.823
62726W        W31056  32.089  16.262   1.357
62727W        W31057  35.067  22.114  11.094
62728W        W31058  39.555  44.868   0.964
62729W        W31059   3.954  25.488   0.304
62730W        W31060  21.041  25.989  11.557
62731W        W31061  41.309  11.348   3.636
62732W        W31062  39.988  14.804  13.884
62733W        W31063  33.461  29.475  12.850
62734W        W31064  41.826  12.151  14.884
62735W        W31065   5.200   7.296   2.695
62736W        W31066  14.294  20.087  12.354
62737W        W31067  39.065  43.290  11.944
62738W        W31068  17.687  20.221  14.028
62739W        W31069  22.025  23.143  12.061
62740W        W31070  20.087  27.195  10.888
62741W        W31071  10.228  34.416  10.076
62742W        W31072   7.757  21.113  13.823
62743W        W31073  15.322   3.845  12.937
62744W        W31074   6.799  40.962  13.823
62745W        W31075  10.195   5.725  14.480
62746W        W31076  24.089  39.066   0.380
62747W        W31077  14.302  28.091   4.718
62748W        W31078   7.195  29.492   0.420
62749W        W31079  11.171  20.588   0.827
62750W        W31080  44.808  24.190   4.253
62751W        W31081   7.295  27.531  13.794
62752W        W31082  20.029  35.868  10.115
62753W        W31083   9.376  21.736  10.425
62754W        W31084  21.574  35.069  10.514
62755W        W31085  18.079  34.441  14.458
62756W        W31086  44.973   0.981  10.450
62757W        W31087   1.319  19.145  12.064
62758W        W31088  16.159  20.686  12.547
62759W        W31089  25.964  24.520  11.898
62760W        W31090  28.501  37.064  10.497
62761W        W31091   1.238  27.463  14.473
62762W        W31092  44.287  27.464   0.452
62763W        W31093  18.589  23.221   2.216
62764W        W31094  32.631  40.799  11.881
62765W        W31095  22.575  17.638   4.340
62766W        W31096  20.245  42.853   1.733
62767W        W31097   3.768  28.983  10.902
62768W        W31098  18.109  32.910  10.449
62769W        W31099  20.702  30.056  11.490
62770W        W31100   7.703  21.516   0.468
62771W        W31101  23.205   8.378  13.992
62772W        W31102   6.207   2.299  12.851
62773W        W31103  24.563   5.391   4.726
62774W        W31104   0.388  38.349  14.964
62775W        W31105  14.222  27.600   0.867
62776W        W31106  38.418  14.235   0.918
62777W        W31107   9.377  19.696  13.370
62778W        W31108  12.744  23.576   0.954
62779W        W31109  13.153  13.247  12.982
62780W        W31110  44.318  16.198  10.018
62781W        W31111   3.858  26.548  14.312
62782W        W31112  39.380  11.151  13.064
62783W        W31113  12.225  43.005   0.878
62784W        W31114  37.535  36.445  13.954
62785W        W31115  39.543   1.791  13.841
62786W        W31116  20.751   7.899  11.879
62787W        W31117  12.350  40.012   1.279
62788W        W31118  26.125  26.004   0.360
62789W        W31119   9.373  21.041  12.855
62790W        W31120  33.595   8.329   3.660
62791W        W31121  24.221   1.825  12.389
62792W        W31122  18.695  12.362   2.390
62793W        W31123  39.846  36.417   1.743
62794W        W31124  35.073   3.330   3.214
62795W        W31125  40.470  25.968  14.911
62796W        W31126  27.049  36.352   0.792
62797W        W31127   1.798  28.518  12.903
62798W        W31128  27.679  10.384   0.479
62799W        W31129  44.944  36.082  10.639
62800W        W31130  39.352   3.398   4.174
62801W        W31131  30.589   7.312  13.473
62802W        W31132  34.070   6.883   0.314
62803W        W31133  36.523  22.578  13.986
62804W        W31134  25.560  23.183  14.994
62805W        W31135   2.732  39.897   4.198
62806W        W31136  20.728  29.656  10.457
62807W        W31137  44.827  43.404  11.954
62808W        W31138  27.011  25.536  13.413
62809W        W31139   1.320  11.373   2.896
62810W        W31140  36.021  33.612  10.438
62811W        W31141  21.217   3.813  11.528
62812W        W31142   5.229  33.899  12.382
62813W        W31143  10.825  38.873   1.928
62814W        W31144  15.609   3.358  12.953
62815W        W31145  26.627  41.873  14.287
62816W        W31146   4.434  26.134  12.401
62817W        W31147   9.773  31.902   0.760
62818W        W31148   1.269   4.717  13.032
62819W        W31149  39.402  37.892  13.928
62820W        W31150   3.277  43.820   0.774
62821W        W31151  29.095  21.527   2.685
62822W        W31152  29.038  37.989  12.900
62823W        W31153   7.818  22.704   1.329
62824W        W31154  20.631   0.437  14.772
62825W        W31155  11.349  11.845  14.796
62826W        W31156  34.484   9.254  12.365
62827W        W31157  41.970  25.619   0.837
62828W        W31158   7.744  34.973   4.261
62829W        W31159  15.218  23.102  10.907
62830W        W31160  27.152  30.941   3.667
62831W        W31161   9.697  44.300  11.606
62832W        W31162  40.986  27.001  11.114
62833W        W31163  28.607  28.538   4.303
62834W        W31164   3.941  20.687   4.146
62835W        W31165  11.301  29.014  10.915
62836W        W31166   6.812  31.447   2.712
62837W        W31167  20.238  27.969   1.241
62838W        W31168  10.851  10.688   1.802
62839W        W31169   0.283   4.822   1.816
62840W        W31170  39.855  33.569   1.308
62841W        W31171  27.171  38.035  12.488
62842W        W31172  40.539  23.727  12.015
62843W        W31173  22.098  31.436  10.620
62844W        W31174  13.681  22.122   0.879
62845W        W31175  33.524  32.082  14.372
62846W        W31176   1.352  19.108   3.723
62847W        W31177  18.719  42.451  14.327
62848W        W31178  28.137  13.694   4.128
62849W        W31179  37.404  21.147   2.868
62850W        W31180   9.334  14.772  12.563
62851W        W31181  38.049   7.861  12.087
62852W        W31182  14.165  25.104  14.288
62853W        W31183  39.880  25.108   4.777
62854W        W31184  37.385  42.351  10.951
62855W        W31185  12.687  33.605   1.756
62856W        W31186  16.294  44.972  14.852
62857W        W31187  31.117  12.855   0.772
62858W        W31188   5.820  32.067  12.500
62859W        W31189  17.107  17.725  12.522
62860W        W31190  40.539  21.109  11.060
62861W        W31191   4.931  42.406   3.358
62862W        W31192  35.559  21.135  12.065
62863W        W31193  10.786  34.450   3.863
62864W        W31194   5.733   9.178   1.734
62865W        W31195   9.349  28.642  12.340
62866W        W31196  30.483  22.043   1.362
62867W        W31197  26.666  19.537   3.146
62868W        W31198  29.660  44.322   3.756
62869W        W31199   9.253  35.994  10.548
62870W        W31200  35.029  25.552  13.938
62871W        W31201  33.894   2.309   1.832
62872W        W31202   3.908  15.123  10.425
62873W        W31203  34.606  16.084  13.505
62874W        W31204  39.851   5.691  12.492
62875W        W31205   0.832   7.838  13.480
62876W        W31206  44.481  38.004  12.518
62877W        W31207  44.833   3.353  12.980
62878W        W31208  31.977  37.971  13.408
62879W        W31209  39.354   6.222   3.199
62880W        W31210  16.095  22.124  14.384
62881W        W31211  24.212  44.829  11.415
62882W        W31212  42.843  37.859   2.781
62883W        W31213   0.819  34.584   5.131
62884W        W31214  30.469  40.022   4.706
62885W        W31215  13.109  36.561  12.982
62886W        W31216  40.497  23.514   4.625
62887W        W31217  32.634  11.832  12.474
62888W        W31218  23.222  34.027   3.697
62889W        W31219  33.080  34.019  12.013
62890W        W31220   1.251  44.263  12.505
62891W        W31221  14.094   4.787   2.766
62892W        W31222   5.757  28.523   0.423
62893W        W31223   6.715  26.701  13.422
62894W        W31224  18.604  43.330  14.864
62895W        W31225  31.582  42.926   1.815
62896W        W31226  39.958  43.000  10.973
62897W        W31227  11.723  41.897   1.247
62898W        W31228  26.190  24.007  11.590
62899W        W31229  31.496  41.871   4.630
62900W        W31230  10.836  37.442   4.220
62901W        W31231  43.990   0.870   4.122
62902W        W31232  20.259  12.827   0.822
62903W        W31233  35.554  18.257  11.944
62904W        W31234  40.399  27.688   1.338
62905W        W31235  34.919   5.759  10.946
62906W        W31236  24.041  28.628   2.261
62907W        W31237   4.732  16.263   1.250
62908W        W31238  23.662  25.045  13.939
62909W        W31239  25.481  25.582   4.317
62910W        W31240  43.337  24.154   1.326
62911W        W31241  17.606   2.840  12.992
62912W        W31242  13.790  26.149   3.795
62913W        W31243  21.144  37.864   4.306
62914W        W31244  11.239  38.344  11.967
62915W        W31245  30.928   4.857   5.178
62916W        W31246  28.673  34.402   1.812
62917W        W31247  22.137   7.335   2.854
62918W        W31248  32.114  19.734   4.156
62919W        W31249  33.089  24.704   2.419
62920W        W31250  32.547  31.641   3.763
62921W        W31251  20.201  34.880   0.740
62922W        W31252  16.307  29.499  10.987
62923W        W31253   9.875  15.156   4.797
62924W        W31254  16.168  10.260   0.286
62925W        W31255  43.269  21.659  12.896
62926W        W31256   0.883  21.025   9.920
62927W        W31257   3.786   4.915  12.558
62928W        W31258   5.389  24.651  13.389
62929W        W31259   7.323  31.019  14.376
62930W        W31260  15.217  44.928   4.259
62931W        W31261  25.635  19.724   0.323
62932W        W31262  34.001  27.661  12.448
62933W        W31263  20.183  13.660  12.497
62934W        W31264  22.172  27.949   1.872
62935W        W31265  37.031  23.615  10.940
62936W        W31266  25.092  26.691  14.785
62937W        W31267  13.250   2.308   1.729
62938W        W31268   5.810  39.507   4.609
62939W        W31269  31.037   2.308   0.351
62940W        W31270   8.336   2.328   4.830
62941W        W31271  10.333   8.192   2.253
62942W        W31272  35.897  37.396   4.786
62943W        W31273  40.385  42.777   0.789
62944W        W31274  22.162  41.007  10.927
62945W        W31275  19.091  30.976  13.882
62946W        W31276   9.226  44.337   1.289
62947W        W31277  23.204   6.823   2.803
62948W        W31278  13.149  43.450  14.302
62949W        W31279  21.133   3.307  10.096
62950W        W31280   1.412   4.721   3.282
62951W        W31281   8.391   5.834  14.946
62952W        W31282  37.911  17.755  12.987
62953W        W31283  22.105  17.254   3.692
62954W        W31284  26.157  36.031   1.449
62955W        W31285  35.365   6.767  10.893
62956W        W31286  29.465   8.743  11.581
62957W        W31287  29.097  14.158   3.679
62958W        W31288  38.986  43.400  14.006
62959W        W31289   9.771   5.295  12.949
62960W        W31290  24.575  43.342   3.201
62961W        W31291   4.796  40.951   3.163
62962W        W31292  18.230  34.469  12.029
62963W        W31293   2.865   2.398  14.457
62964W        W31294  37.358  13.620  12.016
62965W        W31295  27.510  15.230   0.481
62966W        W31296  38.527  38.526   3.354
62967W        W31297   3.311  35.074   1.333
62968W        W31298  37.856  33.906   4.748
62969W        W31299  28.100  44.423   5.086
62970W        W31300   2.795  41.377   4.297
62971W        W31301  44.802  41.383  11.952
62972W        W31302  35.583  10.341  11.533
62973W        W31303  13.132  13.717  13.039
62974W        W31304  17.643  34.395  11.933
62975W        W31305  29.613  19.775  11.923
62976W        W31306  28.608   2.799  12.880
62977W        W31307   5.699  40.004   1.346
62978W        W31308  15.636  15.769  13.413
62979W        W31309   6.724   9.356   1.298
62980W        W31310   1.369  25.570  12.565
62981W        W31311  43.341  10.212   1.321
62982W        W31312  19.192  21.101   3.167
62983W        W31313   1.799  17.628   2.751
62984W        W31314  24.168   5.795   0.294
62985W        W31315  11.691  42.310   0.907
62986W        W31316  11.140  16.248  13.843
62987W        W31317  41.362  24.164   4.291
62988W        W31318   3.817  32.028   0.828
62989W        W31319   3.279  19.554   1.319
62990W        W31320  38.544  14.325   3.779
62991W        W31321  25.135  28.531  12.566
62992W        W31322  26.959  44.920  13.834
62993W        W31323   0.958  20.275   3.762
62994W        W31324  40.455  10.256  13.450
62995W        W31325  19.702  18.663   4.349
62996W        W31326   9.240  27.533  14.006
62997W        W31327  34.468   5.697   2.717
62998W        W31328   8.700  14.630  11.908
62999W        W31329  40.350   4.324  12.997
63000W        W31330   9.659  41.960  11.591
63001W        W31331  25.994  25.681  12.963
63002W        W31332  26.088  30.030   0.446
63003W        W31333  16.691  23.173  10.893
63004W        W31334  10.707   7.236   1.838
63005W        W31335  13.275  39.990   3.717
63006W        W31336  15.692   3.317   2.901
63007W        W31337  43.914   4.410   1.884
63008W        W31338  21.643   6.900   2.849
63009W        W31339  37.893  32.047  11.915
63010W        W31340   3.725  37.580  11.058
63011W        W31341  35.604  42.967  12.003
63012W        W31342   0.788  29.142  12.835
63013W        W31343  21.056  12.749   0.849
63014W        W31344  23.634  15.687  14.816
63015W        W31345  28.174   0.827   0.789
63016W        W31346  40.879  39.034   3.198
63017W        W31347  39.020  32.099  13.431
63018W        W31348   5.855  34.974  12.576
63019W        W31349  43.474   3.761  13.345
63020W        W31350  40.877  30.157  13.000
63021W        W31351  27.127  21.264   0.320
63022W        W31352  15.640  39.529  10.645
63023W        W31353  30.436  16.594   0.461
63024W        W31354   0.378  24.084   2.720
63025W        W31355  15.719  10.852  14.951
63026W        W31356  34.528  35.855  11.465
63027W        W31357   0.967   3.342  14.912
63028W        W31358  32.546  18.213   0.805
63029W        W31359  40.467  29.460   0.729
63030W        W31360  23.055   3.848  10.418
63031W        W31361  39.023   5.811   3.294
63032W        W31362  21.746  28.669   2.287
63033W        W31363   6.814  43.444  13.825
63034W        W31364  34.436   7.749  11.021
63035W        W31365  12.767  22.055   4.157
63036W        W31366  11.252  15.169   2.708
63037W        W31367  13.151  21.039   0.314
63038W        W31368  16.192  38.531   4.702
63039W        W31369   0.389  15.600   1.260
63040W        W31370  33.935  29.924   0.452
63041W        W31371  35.424  28.593   1.762
63042W        W31372  27.141  41.478  12.572
63043W        W31373  23.087  37.547   3.725
63044W        W31374  22.645  21.547   0.891
63045W        W31375  18.631   7.364  12.515
63046W        W31376  27.964  35.457   2.863
63047W        W31377  43.012   4.419  10.959
63048W        W31378  14.736  13.124   2.883
63049W        W31379  19.600  33.129   4.657
63050W        W31380  32.391   6.796  12.459
63051W        W31381  42.963   4.766  14.382
63052W        W31382  18.718  14.223   9.930
63053W        W31383   2.963  32.121  11.861
63054W        W31384  32.421  23.646  14.793
63055W        W31385  41.920  39.963   1.830
63056W        W31386  21.518  16.634  10.030
63057W        W31387  27.107  28.643  13.414
63058W        W31388  14.792  11.274   2.806
63059W        W31389   6.246  16.694  12.552
63060W        W31390  11.321  12.272  10.426
63061W        W31391  40.797   5.911   3.364
63062W        W31392   7.189  11.802  12.954
63063W        W31393  34.441  16.661  14.392
63064W        W31394  24.098  36.049  10.453
63065W        W31395  19.762  43.923   2.765
63066W        W31396  32.137  24.643   3.827
63067W        W31397  24.488  14.719  13.444
63068W        W31398  27.579  35.450   2.765
63069W        W31399  19.137  27.459   3.767
63070W        W31400  39.993  12.733   0.399
63071W        W31401  19.541  15.798   3.166
63072W        W31402  43.336   9.297   3.640
63073W        W31403  17.644   0.432  11.114
63074W        W31404  30.146   0.476   4.754
63075W        W31405  38.882  18.179  11.465
63076W        W31406   8.732   2.363   3.811
63077W        W31407  22.102  30.593   1.879
63078W        W31408   7.700  16.573  12.995
63079W        W31409  14.324  11.302   3.833
63080W        W31410  38.396  22.104  10.491
63081W        W31411  12.217  14.748  14.891
63082W        W31412   9.312   8.778  10.906
63083W        W31413  32.437  10.262   0.330
63084W        W31414  31.490  15.600   2.400
63085W        W31415  39.481  12.738   2.731
63086W        W31416   9.793  15.787  14.947
63087W        W31417  18.588  40.436  12.369
63088W        W31418  44.785  24.546   4.818
63089W        W31419  20.121  38.347  14.447
63090W        W31420  23.013   1.399  13.846
63091W        W31421  44.753  22.721  10.017
63092W        W31422  16.120  25.518  12.091
63093W        W31423  38.039   3.228  13.876
63094W        W31424  43.781  16.641   1.737
63095W        W31425  10.867   2.453   2.248
63096W        W31426  15.288  41.312  13.443
63097W        W31427   7.369  37.540   1.777
63098W        W31428  30.541  24.096   4.194
63099W        W31429   3.764  23.176   0.777
63100W        W31430  20.550  40.012   2.806
63101W        W31431   9.885  43.374  11.888
63102W        W31432  32.503   2.367  13.941
63103W        W31433   9.383  22.623  10.541
63104W        W31434  16.754  27.103  12.368
63105W        W31435  14.276   8.826   2.764
63106W        W31436  12.344   5.877   2.286
63107W        W31437   2.765  42.018   1.284
63108W        W31438  42.366  14.166  14.794
63109W        W31439  15.263   8.389   0.953
63110W        W31440  37.396  18.087  10.612
63111W        W31441  32.026  35.395  11.534
63112W        W31442  36.031   6.278  10.503
63113W        W31443   2.299  21.550  10.603
63114W        W31444  41.949  31.565   1.701
63115W        W31445  41.963  31.978   2.837
63116W        W31446  25.575  40.852  10.558
63117W        W31447   5.193  42.309   3.252
63118W        W31448  12.212  29.162  14.295
63119W        W31449   9.295  13.337  13.538
63120W        W31450  19.718  15.231   4.169
63121W        W31451  15.293  42.362  11.070
63122W        W31452  21.671  10.338  14.982
63123W        W31453  43.990  21.035   0.270
63124W        W31454  28.009  25.635   3.679
63125W        W31455  22.515  26.118  11.929
63126W        W31456  44.388  13.831   9.922
63127W        W31457  39.905  20.154  12.569
63128W        W31458  39.029  11.244  12.428
63129W        W31459  21.544   3.859  10.896
63130W        W31460  25.650  20.130   1.881
63131W        W31461  23.023  43.842  13.472
63132W        W31462   1.741  38.335   2.255
63133W        W31463   7.295   3.257   1.759
63134W        W31464  12.784   7.700  12.032
63135W        W31465  33.942  27.596   1.354
63136W        W31466   5.822  29.144  12.418
63137W        W31467  16.704  34.384  14.436
63138W        W31468  40.538  21.755  12.506
63139W        W31469  30.086  17.798  12.415
63140W        W31470  30.651   1.396   3.690
63141W        W31471  30.490  32.405  11.929
63142W        W31472  32.093  32.992  11.454
63143W        W31473  44.272  27.042   1.231
63144W        W31474  15.209  15.680  11.395
63145W        W31475  34.973  41.511   4.620
63146W        W31476  14.640  26.004  10.436
63147W        W31477  27.993  14.275  11.006
63148W        W31478   9.755   1.834  10.554
63149W        W31479  43.994  34.434  14.311
63150W        W31480  43.479  28.937   0.478
63151W        W31481  34.937  29.551   4.301
63152W        W31482  27.057  16.216  14.342
63153W        W31483  40.458  30.436   4.255
63154W        W31484   6.723  10.242  11.403
63155W        W31485  17.274  26.632  14.421
63156W        W31486  34.424   6.344  11.574
63157W        W31487   4.938  12.229   2.238
63158W        W31488  14.212  44.787  12.012
63159W        W31489  15.710  43.839   2.897
63160W        W31490  28.955  27.165  10.898
63161W        W31491  20.030  38.944  10.020
63162W        W31492  39.441  22.250   4.122
63163W        W31493  21.628  16.246  11.477
63164W        W31494  40.983  19.070  14.474
63165W        W31495   9.293   2.780   2.690
63166W        W31496  28.646  31.402   1.758
63167W        W31497  24.029   8.276  13.037
63168W        W31498  12.149  23.220  11.382
63169W        W31499  31.029  42.848  10.970
63170W        W31500  41.534  41.308  14.441
63171W        W31501  20.115  40.836  12.457
63172W        W31502   7.791  39.373  12.865
63173W        W31503  24.654  31.924   4.692
63174W        W31504  38.433  30.963  13.449
63175W        W31505  39.392  34.495   0.330
63176W        W31506  41.804  39.316   2.691
63177W        W31507  23.080  34.989   0.464
63178W        W31508  33.482   0.456   1.846
63179W        W31509  23.521  30.045   0.951
63180W        W31510  11.643  10.766  13.400
63181W        W31511   1.273  38.413  13.520
63182W        W31512  41.532  31.515   4.692
63183W        W31513   6.405  35.017   1.775
63184W        W31514  27.142  12.775   5.712
63185W        W31515  44.004   8.371   2.793
63186W        W31516  20.095  42.874  13.448
63187W        W31517  15.719  29.089   4.731
63188W        W31518  13.757  38.070   3.186
63189W        W31519  17.771  13.717  11.481
63190W        W31520  16.230  34.870  11.432
63191W        W31521  32.571   3.434  13.842
63192W        W31522   8.173   3.807   1.732
63193W        W31523  37.415  27.125  13.034
63194W        W31524  39.322  24.023   2.202
63195W        W31525  18.603  35.467   2.672
63196W        W31526  13.206  14.176  10.896
63197W        W31527   3.877  30.128   4.725
63198W        W31528  25.122  18.632   2.740
63199W        W31529  42.782  43.840   1.447
63200W        W31530  10.714  20.631   0.858
63201W        W31531  37.376   3.316  14.770
63202W        W31532   8.825  45.000  14.835
63203W        W31533  16.801   1.799  12.395
63204W        W31534   6.398  29.521   2.206
63205W        W31535   6.739  26.177   4.201
63206W        W31536   4.749  35.992  13.915
63207W        W31537  13.630  36.875  14.759
63208W        W31538  17.153  25.511   0.439
63209W        W31539  20.035  16.270   1.815
63210W        W31540  16.695   8.324   1.421
63211W        W31541   3.863  34.490   5.177
63212W        W31542  35.502   6.186  13.403
63213W        W31543  27.109  33.450   9.569
63214W        W31544  30.584  28.481   0.377
63215W        W31545  41.361   5.361   3.325
63216W        W31546   3.942   9.283   0.731
63217W        W31547  28.671  23.616  13.440
63218W        W31548  17.747   8.667  11.545
63219W        W31549  23.587   3.316   4.121
63220W        W31550  32.894  44.764  14.322
63221W        W31551  18.266  11.762  13.880
63222W        W31552   8.346  43.418   2.715
63223W        W31553  21.570  33.068  11.091
63224W        W31554  44.010  33.060  14.872
63225W        W31555  13.643  12.848   0.951
63226W        W31556  38.460   3.923  14.338
63227W        W31557  21.551  31.052   3.321
63228W        W31558   9.336  43.510   3.329
63229W        W31559  37.377  28.137  11.389
63230W        W31560  31.046  20.209  10.636
63231W        W31561  26.489  16.227  11.442
63232W        W31562  36.043  42.345  13.927
63233W        W31563  26.088  18.054   0.797
63234W        W31564  44.773  41.445   0.321
63235W        W31565  37.389  18.767  11.423
63236W        W31566  36.395   5.274   3.180
63237W        W31567  41.373   5.298   1.791
63238W        W31568  36.591  18.269  10.521
63239W        W31569   7.705   3.421   1.854
63240W        W31570  23.230  30.427   2.204
63241W        W31571  13.666  12.292  11.478
63242W        W31572  15.754  32.092   0.363
63243W        W31573  21.744  15.608   1.744
63244W        W31574  26.575  40.505  12.827
63245W        W31575  27.595  39.538  12.917
63246W        W31576  25.105  24.521  12.356
63247W        W31577  15.719  10.148  14.761
63248W        W31578  19.604  36.918  11.554
63249W        W31579  12.660  23.712  10.606
63250W        W31580  36.544  30.573  12.948
63251W        W31581  39.825  11.306  11.558
63252W        W31582  41.436   7.189   1.270
63253W        W31583  16.695  11.319   0.862
63254W        W31584  36.382  27.476   2.404
63255W        W31585  13.806  22.636   0.438
63256W        W31586  39.513   4.716  10.043
63257W        W31587   5.228   7.378  12.856
63258W        W31588  10.336  44.921   0.322
63259W        W31589  33.017  43.313  10.913
63260W        W31590  41.434   1.749   1.885
63261W        W31591   7.375  40.532  12.017
63262W        W31592  21.139  25.132   0.780
63263W        W31593  22.187  42.936   2.843
63264W        W31594  32.439  20.637   1.320
63265W        W31595  12.145  26.687   0.351
63266W        W31596  39.318  44.375   4.715
63267W        W31597  37.533  40.546   1.285
63268W        W31598  20.743  39.821  13.509
63269W        W31599  41.825  44.008   0.810
63270W        W31600  25.182   8.717   0.763
63271W        W31601  44.312  12.136  14.788
63272W        W31602   3.405   4.798  14.838
63273W        W31603  11.185  15.137  11.384
63274W        W31604  33.585  30.115  11.398
63275W        W31605  12.260  17.727   0.472
63276W        W31606  32.429  18.720   4.686
63277W        W31607  29.064  25.989  14.379
63278W        W31608   6.192  21.540  12.349
63279W        W31609  30.923   4.307   4.113
63280W        W31610   6.687  32.057   1.929
63281W        W31611  38.956  27.665  13.854
63282W        W31612  29.474  41.962  11.590
63283W        W31613  34.401  12.271   1.376
63284W        W31614  23.585  21.647  13.494
63285W        W31615   9.753  13.743  12.942
63286W        W31616  19.668  17.595  11.502
63287W        W31617  28.618  24.119   1.700
63288W        W31618  40.797  24.704  10.616
63289W        W31619  42.495  41.984  11.113
63290W        W31620  16.623  24.004  13.884
63291W        W31621  43.975  32.401   0.916
63292W        W31622  41.018  10.338   4.644
63293W        W31623  13.806  22.559   1.926
63294W        W31624  11.696  25.640  12.089
63295W        W31625  19.152  10.365   1.222
63296W        W31626  15.816  26.459   4.697
63297W        W31627  10.285   3.716  14.276
63298W        W31628  43.825  16.681  13.994
63299W        W31629  33.113  16.197   3.263
63300W        W31630  37.831  13.154   0.431
63301W        W31631  22.537  41.854   0.455
63302W        W31632  28.174  11.753   4.243
63303W        W31633  17.754   5.759  12.494
63304W        W31634  29.448  25.643   2.295
63305W        W31635  15.221  40.943   2.362
63306W        W31636  13.123  40.305  11.498
63307W        W31637  12.811  27.138  12.493
63308W        W31638  17.694  32.399   1.262
63309W        W31639  18.679   3.334  12.880
63310W        W31640  14.617   3.272   3.156
63311W        W31641  28.522  14.125   3.169
63312W        W31642  35.029   9.649  12.563
63313W        W31643  13.119  36.899  10.998
63314W        W31644  29.007  35.909  11.455
63315W        W31645  15.633   1.924  13.946
63316W        W31646  40.473   5.410   4.265
63317W        W31647  10.825   2.933  13.520
63318W        W31648  15.579   0.474   3.206
63319W        W31649   3.889  39.961  12.454
63320W        W31650  44.982   8.348  13.063
63321W        W31651   2.424  19.581  11.871
63322W        W31652  30.451  30.163  12.873
63323W        W31653  27.667  12.801   3.783
63324W        W31654   2.792  31.420  13.480
63325W        W31655  18.554  36.410  14.410
63326W        W31656  12.768  12.126  13.521
63327W        W31657  36.358  12.304   0.944
63328W        W31658  25.983  19.272   3.798
63329W        W31659  43.327  14.812  14.963
63330W        W31660  10.242  15.683  12.014
63331W        W31661   2.303  25.531   0.373
63332W        W31662  41.469   9.731  14.018
63333W        W31663  37.346  19.713  12.576
63334W        W31664   6.837  18.629   0.458
63335W        W31665   0.742  17.081   0.280
63336W        W31666  44.306  12.716  11.574
63337W        W31667  28.489  35.989   1.779
63338W        W31668  22.563  38.959   4.199
63339W        W31669   9.822  14.590  14.848
63340W        W31670  16.269  21.623   1.238
63341W        W31671   4.793   2.277  14.985
63342W        W31672  33.465  43.286  11.938
63343W        W31673  10.208  44.503  13.443
63344W        W31674  28.677  31.913   4.267
63345W        W31675  22.570  30.459  12.407
63346W        W31676  36.044  38.958   2.793
63347W        W31677   9.303   7.859   1.413
63348W        W31678  38.436  38.886  11.533
63349W        W31679   8.208  35.472  14.429
63350W        W31680  33.490  27.521   2.195
63351W        W31681  37.401  39.393   1.787
63352W        W31682  42.380  44.412  13.328
63353W        W31683  15.751  17.717   5.147
63354W        W31684  29.957  11.825  14.894
63355W        W31685   0.492  28.673   2.827
63356W        W31686  37.856   3.243   4.310
63357W        W31687  19.076  23.645   2.688
63358W        W31688  42.510  21.164   3.326
63359W        W31689  24.038  21.547   0.755
63360W        W31690  10.733  31.457   3.230
63361W        W31691  20.202  37.576   9.996
63362W        W31692   5.368  11.717   0.318
63363W        W31693  23.066  17.228  14.781
63364W        W31694  22.118  44.882   0.270
63365W        W31695  40.313  14.798  13.830
63366W        W31696  38.382  28.934   3.710
63367W        W31697   4.734  33.102  13.429
63368W        W31698  35.965  39.812   4.634
63369W        W31699  34.008  27.597   1.773
63370W        W31700  42.447  37.475   0.362
63371W        W31701  21.623  14.179  13.396
63372W        W31702  19.110  18.292  11.963
63373W        W31703  36.388  11.354   4.693
63374W        W31704  25.139  12.319   0.441
63375W        W31705  35.426  25.989  11.390
63376W        W31706   1.440  11.675  14.771
63377W        W31707  23.675   3.321  13.892
63378W        W31708  20.082  33.961  13.791
63379W        W31709  31.076   2.445   3.745
63380W        W31710  21.175  29.006   2.357
63381W        W31711  16.569  26.589   0.891
63382W        W31712  43.398  35.378   4.310
63383W        W31713   7.178  39.901  10.600
63384W        W31714  25.192  41.341   3.867
63385W        W31715  42.881  39.028   2.200
63386W        W31716  11.333  11.671   3.795
63387W        W31717   4.788  17.117  12.414
63388W        W31718   0.438  44.955  14.025
63389W        W31719  20.703  39.941   4.250
63390W        W31720  23.198  12.656  12.501
63391W        W31721  30.498   0.415  11.483
63392W        W31722  36.501  27.981   0.294
63393W        W31723   0.422  24.574   3.151
63394W        W31724  13.259  41.918   3.654
63395W        W31725  15.090  10.781   3.857
63396W        W31726   2.940  42.334  13.381
63397W        W31727  17.603   8.881  12.962
63398W        W31728  23.594  38.842  11.449
63399W        W31729  13.648  34.086  10.996
63400W        W31730   5.698  26.081  11.069
63401W        W31731   4.889   6.734  14.958
63402W        W31732  33.927  20.062  14.022
63403W        W31733  43.852  22.665   3.708
63404W        W31734  34.981  33.484   3.275
63405W        W31735  11.156  43.806  13.837
63406W        W31736  20.538  25.611   2.373
63407W        W31737  27.472  10.219  10.406
63408W        W31738  13.164   5.863   4.694
63409W        W31739  43.841  19.204   4.825
63410W        W31740  24.635  11.326  14.903
63411W        W31741  26.505  29.061  11.908
63412W        W31742  34.868  17.287   5.217
63413W        W31743  20.094   8.723  12.458
63414W        W31744  19.258  27.534   4.185
63415W        W31745  41.864   4.383  11.477
63416W        W31746  39.421  32.922   4.158
63417W        W31747  14.801  42.453  10.563
63418W        W31748  24.026   1.961   2.314
63419W        W31749  21.597  19.584  12.372
63420W        W31750  25.085  30.999   4.704
63421W        W31751  14.300  29.640   1.262
63422W        W31752  17.601  23.520   1.774
63423W        W31753  36.351  31.929  10.041
63424W        W31754  11.668   4.430  11.098
63425W        W31755  20.052  40.426   1.883
63426W        W31756  44.768  32.122   2.817
63427W        W31757  10.367  22.101  13.850
63428W        W31758  44.819   3.929  11.079
63429W        W31759   9.843  40.996   0.817
63430W        W31760  42.419   9.373   4.689
63431W        W31761   3.917  38.525   2.255
63432W        W31762   5.305  20.196   4.270
63433W        W31763  12.356  37.487  14.830
63434W        W31764  27.123  38.464  13.380
63435W        W31765  17.765  14.148  12.503
63436W        W31766  40.813  15.586  12.455
63437W        W31767  19.039  26.091   0.753
63438W        W31768  31.593   9.880   1.847
63439W        W31769  17.233   2.323   3.201
63440W        W31770  39.472  41.445   4.167
63441W        W31771  15.799   9.761   1.365
63442W        W31772  17.798  30.619  10.518
63443W        W31773   3.442  17.746   1.233
63444W        W31774  40.904  21.665  10.984
63445W        W31775  28.458  35.994   0.739
63446W        W31776  36.982  36.968   1.314
63447W        W31777  12.818   7.399  11.865
63448W        W31778   7.816  16.704  14.423
63449W        W31779  12.689  32.969   4.778
63450W        W31780  19.050   0.754   1.304
63451W        W31781  11.288  10.659   2.881
63452W        W31782   4.734  12.731   4.819
63453W        W31783   0.380   3.940   1.725
63454W        W31784   2.244  26.159  14.934
63455W        W31785  29.610  11.654   3.282
63456W        W31786  42.398   8.211  13.451
63457W        W31787  12.201  31.587  10.906
63458W        W31788  40.422  21.136   1.375
63459W        W31789  15.625  42.803   4.171
63460W        W31790   4.318  39.502  10.631
63461W        W31791   4.931   4.811   1.919
63462W        W31792   3.261  39.531  10.526
63463W        W31793  41.466  37.974   0.743
63464W        W31794  13.202  30.574   2.199
63465W        W31795  43.789  10.334  13.948
63466W        W31796   3.955  24.088  14.999
63467W        W31797  35.456  23.649   3.294
63468W        W31798  15.248  25.637   4.276
63469W        W31799  26.984  33.616  13.459
63470W        W31800  31.445  22.617  13.426
63471W        W31801  27.196  30.133  12.363
63472W        W31802  44.433  35.963   4.770
63473W        W31803   3.226  13.227   3.155
63474W        W31804  20.619  44.476  14.010
63475W        W31805  42.982  33.561  13.025
63476W        W31806   9.204  20.130   3.319
63477W        W31807  39.041  33.597   2.303
63478W        W31808  26.134  16.778  14.987
63479W        W31809  14.157   3.441  12.921
63480W        W31810   7.326  18.083   0.259
63481W        W31811   3.230  41.941   3.362
63482W        W31812  40.028  40.442  13.798
63483W        W31813  12.333  34.436  13.850
63484W        W31814  18.768  34.871  11.078
63485W        W31815  44.985  35.426  12.359
63486W        W31816  17.240  44.305  13.012
63487W        W31817  34.867  12.139   3.843
63488W        W31818  10.732   5.923   2.706
63489W        W31819  12.327  23.529   0.264
63490W        W31820  12.654  25.537  11.012
63491W        W31821  40.496   3.399   2.391
63492W        W31822  17.164  36.943  14.307
63493W        W31823  23.108  17.784   5.599
63494W        W31824  33.017  33.990   0.744
63495W        W31825  24.600  32.920   4.636
63496W        W31826   8.344  38.069  11.537
63497W        W31827  37.557  23.556  11.591
63498W        W31828  31.004   5.375   2.259
63499W        W31829   6.706  12.216   3.655
63500W        W31830  37.017  37.430   1.746
63501W        W31831   8.822  30.497   0.401
63502W        W31832  25.601  40.540  10.975
63503W        W31833  24.083  40.473   2.894
63504W        W31834  29.508   6.770  11.536
63505W        W31835  18.273  40.900   3.793
63506W        W31836  13.827  31.501  13.378
63507W        W31837  25.137  21.601   4.756
63508W        W31838   5.817  37.546  12.870
63509W        W31839   4.851  35.008  11.941
63510W        W31840  40.479  12.700   1.807
63511W        W31841  30.105  14.210  11.070
63512W        W31842  32.886  14.747   1.753
63513W        W31843   6.731  18.705   0.831
63514W        W31844  30.432  17.603  12.858
63515W        W31845   9.202  29.593   3.174
63516W        W31846  42.919  33.391   5.147
63517W        W31847  16.593   6.848  10.977
63518W        W31848   8.268  35.088  12.534
63519W        W31849  26.577   0.326   3.701
63520W        W31850  13.182  22.609  14.481
63521W        W31851  33.407  32.923  13.998
63522W        W31852  11.627  44.002   1.894
63523W        W31853  24.528   9.688  10.905
63524W        W31854   1.813   8.710  10.984
63525W        W31855   0.825  30.458   5.192
63526W        W31856  26.524  10.160   9.962
63527W        W31857  40.013   2.794   1.343
63528W        W31858  27.197  34.976   0.311
63529W        W31859  35.464  33.922  10.629
63530W        W31860   5.436  15.822   2.384
63531W        W31861  11.867  11.819   3.751
63532W        W31862   2.882  42.339  11.585
63533W        W31863  24.646  42.978   1.707
63534W        W31864  43.936   0.377   3.301
63535W        W31865  32.904  30.954  13.008
63536W        W31866  37.865  37.972   2.843
63537W        W31867  24.574  10.338   1.735
63538W        W31868  41.531  33.890  11.035
63539W        W31869  34.959  21.020   4.765
63540W        W31870  24.672  39.809   0.949
63541W        W31871  38.941  28.021  14.998
63542W        W31872  12.244  27.619   3.214
63543W        W31873  23.048  42.984   3.234
63544W        W31874  22.689  42.847  13.863
63545W        W31875  11.320  10.743  14.340
63546W        W31876  30.540  44.934  11.982
63547W        W31877   3.305  41.394  14.425
63548W        W31878  18.087   5.439   3.286
63549W        W31879  13.142  21.604  10.482
63550W        W31880  36.856   4.399   3.721
63551W        W31881  19.228  16.163  12.971
63552W        W31882  12.263  26.522  11.023
63553W        W31883   9.702  37.902   2.306
63554W        W31884  35.938  15.604   2.405
63555W        W31885  35.915  14.803  13.818
63556W        W31886  42.950   0.461  14.954
63557W        W31887  33.407  30.650   5.245
63558W        W31888   7.186  13.298  14.816
63559W        W31889   4.231  28.586   4.116
63560W        W31890   8.178  23.001   4.781
63561W        W31891  30.949  13.666   0.277
63562W        W31892  28.139  37.484   2.272
63563W        W31893  18.698  36.012   2.797
63564W        W31894  22.620  31.024   3.161
63565W        W31895   8.286  28.149   0.758
63566W        W31896  12.828  44.936  12.515
63567W        W31897  11.765  12.336   2.185
63568W        W31898  42.892  35.092   5.200
63569W        W31899  32.481   7.708   4.238
63570W        W31900  44.436   2.355  12.494
63571W        W31901   4.380   7.841  10.601
63572W        W31902  31.105  12.819   4.711
63573W        W31903  19.164  42.380  13.484
63574W        W31904  15.201  40.350   0.922
63575W        W31905  27.031  24.713  12.842
63576W        W31906   6.854  35.418  14.450
63577W        W31907  33.496  44.376   1.256
63578W        W31908  15.174  43.898   4.144
63579W        W31909  19.756   6.277   3.332
63580W        W31910  12.185  23.108  13.855
63581W        W31911  37.036  30.924  14.024
63582W        W31912  23.051  28.052  10.607
63583W        W31913  34.099  26.173   2.409
63584W        W31914   3.364  29.157  14.964
63585W        W31915   9.723  23.984   2.667
63586W        W31916  35.435  40.859  10.994
63587W        W31917  20.742   7.675   3.715
63588W        W31918  15.673  28.463  14.362
63589W        W31919   1.778  20.214   5.235
63590W        W31920  24.561  44.315  12.401
63591W        W31921  31.935  34.918   5.226
63592W        W31922  22.203  32.429   1.881
63593W        W31923  37.916  19.607   4.748
63594W        W31924   3.347  26.150  13.489
63595W        W31925   5.860  17.279   0.767
63596W        W31926  33.104  26.477   4.159
63597W        W31927  44.303  22.680   0.824
63598W        W31928  29.549  23.643   1.731
63599W        W31929  42.379  12.280  11.484
63600W        W31930  41.502  14.797  13.943
63601W        W31931  11.668  12.214   3.629
63602W        W31932  39.508   2.255  12.995
63603W        W31933  24.069  11.217   3.199
63604W        W31934  20.153  14.626  14.373
63605W        W31935  28.093  13.723  14.936
63606W        W31936   4.899   9.833  12.043
63607W        W31937   1.968  38.923   5.092
63608W        W31938  25.632  25.970   0.777
63609W        W31939   4.370   8.775   0.266
63610W        W31940  31.144   3.813   0.292
63611W        W31941   6.754  13.184   2.696
63612W        W31942  26.006  35.034   3.358
63613W        W31943   7.716  33.023  10.446
63614W        W31944  41.400  20.724  11.526
63615W        W31945  14.335  34.891  10.603
63616W        W31946  15.240  39.420  12.011
63617W        W31947   0.881  10.771  11.028
63618W        W31948  18.568  10.785  11.904
63619W        W31949  21.666  44.494   1.893
63620W        W31950  13.270  20.082  11.075
63621W        W31951  42.894  44.843   4.807
63622W        W31952  20.690   0.868  13.516
63623W        W31953  19.181   4.411  13.399
63624W        W31954  32.992  16.261   1.775
63625W        W31955   4.331  37.534   0.379
63626W        W31956  21.095  21.220  14.857
63627W        W31957  20.699  16.145   2.404
63628W        W31958  19.631  17.623   5.271
63629W        W31959  32.445  37.447   3.200
63630W        W31960  41.320   5.717  14.399
63631W        W31961   0.410  22.684  14.814
63632W        W31962  42.940  11.636   1.366
63633W        W31963  20.233  35.989  11.096
63634W        W31964  12.697  14.733   2.279
63635W        W31965  37.381  24.683   1.879
63636W        W31966   0.864  43.862   2.771
63637W        W31967   2.956  36.531  13.445
63638W        W31968  15.699  14.104   2.240
63639W        W31969  19.057  33.392  13.810
63640W        W31970  41.531  38.931   2.783
63641W        W31971   6.907  34.000   1.421
63642W        W31972   7.827   9.671  10.498
63643W        W31973  41.854   1.740   0.456
63644W        W31974  23.563  22.211   0.959
63645W        W31975  12.848  35.393  12.457
63646W        W31976  31.417   9.848  12.565
63647W        W31977  14.612  26.606   3.666
63648W        W31978  24.989  24.581  13.441
63649W        W31979  37.570  26.557   2.395
63650W        W31980  31.595  29.098  12.377
63651W        W31981   7.184  14.753   0.360
63652W        W31982   0.260  23.510   3.711
63653W        W31983  26.497  18.120  13.045
63654W        W31984   5.688  12.698  12.557
63655W        W31985  35.365  27.583  14.968
63656W        W31986   1.853  20.099   3.259
63657W        W31987   2.858  27.610  11.598
63658W        W31988  42.873   3.386  12.491
63659W        W31989   7.305  37.061   4.214
63660W        W31990   9.729  19.655  14.803
63661W        W31991  16.735   0.319   0.340
63662W        W31992  15.713   5.347   2.848
63663W        W31993  18.700  22.579   3.281
63664W        W31994  25.638  39.535  11.905
63665W        W31995  25.974  12.287   2.396
63666W        W31996  24.695  26.653   4.182
63667W        W31997   5.431   3.833  11.387
63668W        W31998  12.220   9.365   4.262
63669W        W31999  19.090  16.221  11.386
63670W        W32000  35.535  35.424  11.990
63671W        W32001  27.612  36.526   3.710
63672W        W32002  14.142  27.450   1.863
63673W        W32003  19.099  16.697  12.827
63674W        W32004  12.810  38.055  11.589
63675W        W32005  10.825  29.011   4.776
63676W        W32006  22.010   8.276   3.366
63677W        W32007  35.370  12.276  11.104
63678W        W32008   6.344  35.100   1.359
63679W        W32009   1.453  22.502  13.015
63680W        W32010  25.202  13.325   2.417
63681W        W32011   3.725  18.575   4.661
63682W        W32012  24.221  41.440   3.236
63683W        W32013  33.085  10.272  12.921
63684W        W32014  29.442  13.321   2.219
63685W        W32015  31.609  10.165   4.634
63686W        W32016  20.251  37.558  13.376
63687W        W32017   1.801  12.361   1.391
63688W        W32018  26.988  20.238  14.937
63689W        W32019  42.290  30.605  13.961
63690W        W32020   0.978  10.346  10.627
63691W        W32021  16.791   5.885  11.083
63692W        W32022  30.919  36.965   1.699
63693W        W32023  44.776  39.388  13.521
63694W        W32024  39.052  21.550  14.472
63695W        W32025  20.653  22.087   4.728
63696W        W32026  31.631  43.475   3.705
63697W        W32027  27.520  20.231  11.122
63698W        W32028   9.360  27.140   3.354
63699W        W32029  42.867  42.947   1.330
63700W        W32030  28.112   0.981   2.314
63701W        W32031  24.982  20.525   3.212
63702W        W32032  18.614  24.094   1.299
63703W        W32033  17.570  10.223  14.918
63704W        W32034  31.018  31.902   2.810
63705W        W32035  38.388   6.324   3.161
63706W        W32036   1.268  30.995  14.851
63707W        W32037  23.158  41.393  11.051
63708W        W32038  31.945   4.703  14.362
63709W        W32039  35.456  42.964   0.866
63710W        W32040  32.395  13.328   2.366
63711W        W32041  12.126   7.732  14.887
63712W        W32042  25.965  23.014   3.367
63713W        W32043  35.490   1.851   4.661
63714W        W32044  38.476  18.175   0.770
63715W        W32045  22.661  25.146  14.317
63716W        W32046   9.152  43.381   3.651
63717W        W32047  31.922   9.390   1.758
63718W        W32048  34.520  14.827   1.271
63719W        W32049  42.924  41.328  11.105
63720W        W32050  21.124   2.792   0.851
63721W        W32051  14.653  16.118  14.957
63722W        W32052  33.069   9.811   3.768
63723W        W32053  12.166  24.005   2.381
63724W        W32054   0.354  43.488  12.006
63725W        W32055  37.005   8.789   4.816
63726W        W32056  41.015  19.649   1.876
63727W        W32057   1.481   3.713  10.415
63728W        W32058  35.961  28.972   1.368
63729W        W32059   6.756  28.020  13.361
63730W        W32060  20.576  44.299  14.786
63731W        W32061   6.919  34.899   4.236
63732W        W32062   8.743   1.383   2.835
63733W        W32063   2.783   7.226   0.465
63734W        W32064  20.712  11.248  14.341
63735W        W32065  37.511  37.883  14.835
63736W        W32066  29.603   1.374  13.464
63737W        W32067  38.399  43.935  12.561
63738W        W32068  18.250  25.505  11.056
63739W        W32069  30.089  42.955   4.642
63740W        W32070   7.708  39.933   3.831
63741W        W32071  32.414  12.333   2.758
63742W        W32072  20.664  36.992   3.708
63743W        W32073  13.778   9.747  12.999
63744W        W32074  15.100  28.649  10.989
63745W        W32075  17.802  38.444  11.958
63746W        W32076  42.027  10.804   1.770
63747W        W32077   3.226   0.279   1.724
63748W        W32078  33.104   5.213   0.356
63749W        W32079   9.188  16.602   1.713
63750W        W32080  20.562  34.470  11.399
63751W        W32081  22.510   5.828  11.113
63752W        W32082  34.029  26.484   1.851
63753W        W32083  11.675  30.163   3.739
63754W        W32084  15.644  13.662  11.907
63755W        W32085  36.479  18.586  14.925
63756W        W32086  31.436  17.120   2.201
63757W        W32087  33.007  24.490   4.151
63758W        W32088  18.226  15.736  11.919
63759W        W32089   7.372  20.261  12.401
63760W        W32090  17.615  41.538  11.413
63761W        W32091  40.824   0.840   3.860
63762W        W32092  44.361  13.808  14.812
63763W        W32093  30.933  20.224   4.262
63764W        W32094  34.534  19.218   2.876
63765W        W32095  22.702  43.860  11.549
63766W        W32096  22.175  25.701   1.340
63767W        W32097  33.106  43.831  12.963
63768W        W32098  33.992   4.339   2.307
63769W        W32099  12.789   4.225  14.981
63770W        W32100  31.059  26.621   2.849
63771W        W32101   5.841  22.214  11.867
63772W        W32102  15.695  19.244   3.300
63773W        W32103  26.525  23.075  11.931
63774W        W32104  35.386   9.269  14.781
63775W        W32105  24.613  44.926  12.434
63776W        W32106   7.909  42.907   1.432
63777W        W32107  42.936  14.204   0.764
63778W        W32108  44.433  30.144  13.977
63779W        W32109  44.295   1.439   1.925
63780W        W32110  21.112  19.568   1.740
63781W        W32111  13.160   3.436   0.316
63782W        W32112  19.224  26.088   4.813
63783W        W32113  43.387  10.338   2.831
63784W        W32114  22.063  43.294  11.464
63785W        W32115   8.801  37.924  10.985
63786W        W32116  17.699   9.287   4.305
63787W        W32117  37.409  35.893   2.375
63788W        W32118  37.544  39.833   0.365
63789W        W32119  35.582   8.199  10.974
63790W        W32120   9.245  22.710  11.948
63791W        W32121  39.543  18.703  14.438
63792W        W32122  23.079  15.181   2.892
63793W        W32123  44.293  12.350   4.745
63794W        W32124   0.335  30.651  13.839
63795W        W32125  13.145  34.379   2.290
63796W        W32126  26.471  25.149   4.838
63797W        W32127  35.515  35.963   1.384
63798W        W32128  12.333  22.159   4.319
63799W        W32129  38.043  28.588  13.436
63800W        W32130  10.377  40.921  10.477
63801W        W32131   8.188  14.238  14.436
63802W        W32132  14.628  10.201  10.421
63803W        W32133  33.419  29.658   2.848
63804W        W32134  11.267   4.775   0.412
63805W        W32135  37.339  12.830   4.823
63806W        W32136  42.517  15.170   2.840
63807W        W32137  22.076  43.811  13.513
63808W        W32138   6.205  34.380   3.661
63809W        W32139  35.917   5.712  14.445
63810W        W32140   2.965  37.859  12.974
63811W        W32141   6.710  23.530  13.998
63812W        W32142  33.426  11.305  11.421
63813W        W32143  10.148   4.276   0.766
63814W        W32144  22.091  35.049  12.981
63815W        W32145  39.940   0.926   0.869
63816W        W32146   1.421  44.310   4.267
63817W        W32147  35.558   6.687   3.154
63818W        W32148  33.914  44.377  10.499
63819W        W32149  17.676   0.949  11.051
63820W        W32150  40.506   6.906  12.373
63821W        W32151   7.388  35.448  10.985
63822W        W32152  15.705  11.260   4.798
63823W        W32153  34.381  40.038  14.850
63824W        W32154   0.406   2.793   2.750
63825W        W32155  44.435  29.152   3.284
63826W        W32156  16.594   9.855   0.745
63827W        W32157  10.782  17.653  12.007
63828W        W32158  36.906  39.460   3.851
63829W        W32159  14.642   2.429   0.754
63830W        W32160  34.879  15.744  10.468
63831W        W32161  13.158  15.813  10.494
63832W        W32162   6.787  29.532  14.334
63833W        W32163  29.919  20.124   0.261
63834W        W32164  12.178  27.943   1.736
63835W        W32165  20.528  32.412  12.512
63836W        W32166  16.687   2.438  13.506
63837W        W32167  33.097  41.524   2.671
63838W        W32168  29.990  36.901  10.420
63839W        W32169  15.705  27.985  12.487
63840W        W32170  37.939   4.278  12.501
63841W        W32171   3.350  29.924  13.063
63842W        W32172  20.228  22.562   4.661
63843W        W32173  10.784  38.349   0.742
63844W        W32174  43.308  38.493  13.861
63845W        W32175  22.248   0.985  10.576
63846W        W32176  23.194  29.513   4.769
63847W        W32177   7.210  25.598   0.258
63848W        W32178  20.542  19.114   5.158
63849W        W32179  18.748  35.401  10.998
63850W        W32180  43.486  42.913  14.328
63851W        W32181  25.009  22.560   2.281
63852W        W32182  11.633  23.063   2.220
63853W        W32183   3.872   0.980  10.481
63854W        W32184  41.440  20.236   4.797
63855W        W32185  21.690  40.477  12.025
63856W        W32186  25.060  42.459  11.547
63857W        W32187  41.842   0.275  13.538
63858W        W32188  20.248  32.414  12.515
63859W        W32189  13.270  36.877  10.555
63860W        W32190  22.185  42.937  13.925
63861W        W32191  21.112  24.603  11.075
63862W        W32192  28.160   3.888  10.907
63863W        W32193   6.410  26.693  11.596
63864W        W32194  41.007  12.319   0.765
63865W        W32195  21.111  26.661  11.502
63866W        W32196  43.493  34.441  11.501
63867W        W32197  13.330  31.906   9.927
63868W        W32198  32.522  43.940  14.970
63869W        W32199  28.548  28.937   4.327
63870W        W32200  24.088  17.276   5.121
63871W        W32201   7.805  37.460   4.123
63872W        W32202  17.707  43.440   4.174
63873W        W32203  11.314   3.923  10.901
63874W        W32204  32.441   8.863  11.098
63875W        W32205  30.625   0.746   3.809
63876W        W32206  32.893  18.233   0.312
63877W        W32207   9.209  30.500  13.400
63878W        W32208   1.917   1.254   3.667
63879W        W32209  41.344  22.526   2.842
63880W        W32210  34.495  23.567   3.221
63881W        W32211  33.614  12.204  10.562
63882W        W32212  43.765  24.039   0.856
63883W        W32213  29.989   6.739  12.535
63884W        W32214  10.717  28.088   4.195
63885W        W32215  30.592  37.496   2.407
63886W        W32216  32.459  24.178  13.828
63887W        W32217  36.018  12.668   1.817
63888W        W32218   6.309  44.887  11.897
63889W        W32219  23.015   9.326  12.898
63890W        W32220  37.011   1.295  12.447
63891W        W32221   1.911   3.843  12.568
63892W        W32222  13.333  29.918   0.393
63893W        W32223  35.985  32.041  13.531
63894W        W32224  40.049  28.653  13.035
63895W        W32225   0.434  37.917   0.930
63896W        W32226   2.312  21.252   1.266
63897W        W32227  39.394  17.143  14.359
63898W        W32228  18.092  21.728   0.380
63899W        W32229  24.631  10.147  13.424
63900W        W32230   7.726  27.026  14.932
63901W        W32231   4.887  32.402   2.725
63902W        W32232  16.076  38.561  10.966
63903W        W32233  26.160  15.315   4.163
63904W        W32234  34.600  30.949  13.853
63905W        W32235   4.805  24.036  14.995
63906W        W32236  39.925  40.048   1.916
63907W        W32237  11.132  22.687  11.539
63908W        W32238   6.874   5.193  13.411
63909W        W32239  13.251  23.177   2.736
63910W        W32240  13.175  36.511  10.483
63911W        W32241   6.243  35.518   4.827
63912W        W32242  14.637  31.584   0.243
63913W        W32243  26.529  42.807   2.663
63914W        W32244  44.503   4.333  14.432
63915W        W32245  13.335  16.249  11.552
63916W        W32246  28.488  35.858  11.452
63917W        W32247  10.822  42.835   3.821
63918W        W32248  24.583  32.485  10.580
63919W        W32249  31.094  11.292   2.695
63920W        W32250   5.378  10.142  14.869
63921W        W32251  21.587  26.606  11.413
63922W        W32252  16.249  39.481   0.885
63923W        W32253  22.187  36.412  12.081
63924W        W32254  31.973  16.280   3.277
63925W        W32255  11.151  20.114   4.319
63926W        W32256  26.647  32.440   0.901
63927W        W32257  18.183  32.917  13.323
63928W        W32258  32.027  18.081  13.424
63929W        W32259  29.164  13.342   3.631
63930W        W32260  34.567  44.990   4.753
63931W        W32261  10.145   5.912  12.483
63932W        W32262  42.928   7.839  11.514
63933W        W32263  20.186  17.277  14.009
63934W        W32264  29.053   2.850  14.372
63935W        W32265  41.361  42.914  14.364
63936W        W32266   4.857  11.759  13.902
63937W        W32267  29.450  42.291  10.642
63938W        W32268   2.824  27.552  13.987
63939W        W32269  28.012  21.164   2.718
63940W        W32270  34.380  24.542  14.836
63941W        W32271  32.100  44.474  12.341
63942W        W32272   7.881  12.212   1.359
63943W        W32273  11.210  33.464   3.847
63944W        W32274  21.227  30.553  10.087
63945W        W32275  33.009   7.804   3.325
63946W        W32276  36.367  26.112  14.411
63947W        W32277  43.950   4.783   3.175
63948W        W32278  13.821  27.627   4.190
63949W        W32279  12.217  13.689  11.472
63950W        W32280  20.138  43.875   4.754
63951W        W32281  36.460  41.986  12.503
63952W        W32282  28.596   3.319  12.034
63953W        W32283   2.935   0.444  14.937
63954W        W32284  14.787   7.750   1.390
63955W        W32285  29.498   4.416   1.284
63956W        W32286  26.457  18.754  14.758
63957W        W32287  35.481  26.979   4.190
63958W        W32288  16.290  41.026  12.877
63959W        W32289  37.420  17.686   0.769
63960W        W32290  22.512  44.871   2.869
63961W        W32291  23.032  31.453   4.649
63962W        W32292  23.705  37.990   2.389
63963W        W32293  26.594  28.180  12.016
63964W        W32294  17.102  11.283  13.422
63965W        W32295  16.661  17.068   1.831
63966W        W32296  27.472  35.986   4.263
63967W        W32297  13.330  10.855   2.275
63968W        W32298   1.451  43.401  12.529
63969W        W32299  43.770  25.197   3.861
63970W        W32300  37.068  23.094   3.691
63971W        W32301   0.419  11.683  13.791
63972W        W32302  42.434  19.235  13.016
63973W        W32303  15.601   3.714   2.714
63974W        W32304   3.855  28.572   2.224
63975W        W32305  31.960  36.085  11.448
63976W        W32306  44.349  15.672  12.394
63977W        W32307  36.515  23.580   4.272
63978W        W32308   3.925   9.334   2.903
63979W        W32309  38.396  29.525   0.818
63980W        W32310  36.375  14.833  13.890
63981W        W32311  43.417   2.928   2.902
63982W        W32312  25.976  20.241   0.447
63983W        W32313  40.541  43.908   0.253
63984W        W32314  35.927  38.877  10.945
63985W        W32315  32.545  35.875  11.540
63986W        W32316  25.613  17.694  11.886
63987W        W32317  39.908  33.905  14.356
63988W        W32318  24.198   1.275  13.934
63989W        W32319  31.617  13.724  13.905
63990W        W32320  15.297   1.974  13.495
63991W        W32321   7.815  23.115  12.054
63992W        W32322   2.424  32.996  11.934
63993W        W32323   9.811  10.274   2.322
63994W        W32324  12.149  20.089   2.271
63995W        W32325  38.906  14.672   2.893
63996W        W32326  23.006  13.653  12.520
63997W        W32327   3.432  26.102   1.301
63998W        W32328  13.743  36.072  13.874
63999W        W32329   5.819  21.065  12.862
64000W        W32330  41.806  11.298   0.902
64001W        W32331  29.607  36.003  11.540
64002W        W32332  20.158  12.218   3.853
64003W        W32333  35.480  40.824  12.458
64004W        W32334  28.122  27.073  14.341
64005W        W32335  20.149  18.184   1.780
64006W        W32336  40.383  19.142   4.762
64007W        W32337  44.446  27.471  10.041
64008W        W32338  13.112   2.360   3.208
64009W        W32339  30.052  26.648  12.045
64010W        W32340  43.339   1.467   3.314
64011W        W32341  24.002  27.495  11.503
64012W        W32342  38.439  23.186   3.634
64013W        W32343  40.026   8.733   4.817
64014W        W32344   1.256   3.899  12.381
64015W        W32345  36.493  35.048   1.738
64016W        W32346  13.344  30.932   1.734
64017W        W32347  41.302  34.379  14.420
64018W        W32348  11.143   0.359   3.647
64019W        W32349  32.946  34.930   4.781
64020W        W32350  13.835  35.924  13.460
64021W        W32351  35.435  18.052  11.569
64022W        W32352  35.897  15.804   4.778
64023W        W32353  35.372   3.800  12.095
64024W        W32354   1.858  27.549  12.863
64025W        W32355  33.935  22.625   3.150
64026W        W32356  16.711  30.603   1.855
64027W        W32357  17.740  16.190  13.026
64028W        W32358  34.464  43.989  11.517
64029W        W32359  41.297  30.947  11.391
64030W        W32360  26.960  23.109   2.731
64031W        W32361  42.023  11.701  14.958
64032W        W32362   9.812  24.492   4.181
64033W        W32363   6.888  12.358   1.450
64034W        W32364  37.841   1.850  13.330
64035W        W32365  40.334   0.460   4.818
64036W        W32366  35.022  24.089  10.474
64037W        W32367  33.465  16.800  14.819
64038W        W32368   9.233  22.181  12.370
64039W        W32369  12.300  29.922   3.217
64040W        W32370  12.855  30.594   0.885
64041W        W32371   9.223  12.195  13.034
64042W        W32372  43.979  39.413   0.363
64043W        W32373  29.053  17.622   3.806
64044W        W32374  41.320  12.753  13.898
64045W        W32375  19.721   2.344   0.265
64046W        W32376  33.124  32.985  12.538
64047W        W32377  36.961  42.369  14.343
64048W        W32378  40.876   9.742   4.176
64049W        W32379  23.179  29.015   5.265
64050W        W32380  10.762   6.244  12.856
64051W        W32381  44.831  19.050  13.354
64052W        W32382  32.114   6.378  12.577
64053W        W32383  35.900  13.127  10.607
64054W        W32384  38.063  12.288   1.242
64055W        W32385  44.262  15.247  11.126
64056W        W32386  10.654  18.067  14.288
64057W        W32387  33.452   7.822   5.307
64058W        W32388  27.083  36.046   3.867
64059W        W32389  20.757  41.804   3.158
64060W        W32390  23.523  13.160   2.293
64061W        W32391   2.959  22.528  11.548
64062W        W32392  16.128  16.806  13.869
64063W        W32393   4.732  42.408  12.064
64064W        W32394  22.126  28.137  12.908
64065W        W32395  37.352  17.243  13.969
64066W        W32396   9.873  23.072   3.171
64067W        W32397  28.561   0.980  12.529
64068W        W32398  10.307   4.222   2.793
64069W        W32399  38.025  18.773  12.952
64070W        W32400  26.498   3.752  13.790
64071W        W32401  32.404  12.786   2.864
64072W        W32402   8.390  27.476  11.607
64073W        W32403  35.538   8.666   4.342
64074W        W32404   2.734  32.059   0.778
64075W        W32405  14.115   9.339   4.810
64076W        W32406  33.445  10.822   2.671
64077W        W32407   4.448  37.865  12.919
64078W        W32408  33.998  40.467  13.312
64079W        W32409  44.782  22.215  14.775
64080W        W32410  39.949  29.072  12.466
64081W        W32411  40.421  34.107  11.411
64082W        W32412  43.935   6.256  10.940
64083W        W32413  34.912  23.013  11.518
64084W        W32414  16.618  14.219   1.734
64085W        W32415  17.647  38.943   4.682
64086W        W32416   0.770  31.015   3.762
64087W        W32417  23.235  29.469   3.241
64088W        W32418  26.116  20.065  13.447
64089W        W32419   3.758  33.441   4.136
64090W        W32420   0.391  35.458   1.880
64091W        W32421   8.706  38.561   3.862
64092W        W32422  16.252   8.248   2.854
64093W        W32423   8.343  22.180  12.011
64094W        W32424   3.933  22.139  13.889
64095W        W32425   4.783  35.407   2.893
64096W        W32426   0.378  39.410  11.520
64097W        W32427   3.293  29.562   4.618
64098W        W32428  23.186   8.893   1.768
64099W        W32429  20.751  18.774   1.708
64100W        W32430  27.008  32.411   0.834
64101W        W32431  38.848  36.394   3.366
64102W        W32432   7.829   3.268  12.345
64103W        W32433  23.996   5.701  12.859
64104W        W32434  23.650  21.602  14.997
64105W        W32435  36.072  30.163  11.896
64106W        W32436  38.493  35.431   2.180
64107W        W32437  41.509  34.557  11.516
64108W        W32438   4.366   4.765   0.854
64109W        W32439  23.066  25.035  11.001
64110W        W32440  43.454  44.983   3.687
64111W        W32441  30.969  11.857   4.773
64112W        W32442  22.228   2.832   1.930
64113W        W32443  41.378  37.496   0.771
64114W        W32444  36.386  15.200  11.981
64115W        W32445  20.154   0.770  12.512
64116W        W32446  28.005  30.015   3.866
64117W        W32447  27.064  24.651  10.937
64118W        W32448  21.663  11.368   2.819
64119W        W32449  32.110  36.045   1.329
64120W        W32450  37.446  15.104   3.296
64121W        W32451  37.867  40.418  14.467
64122W        W32452  11.682  23.083   1.778
64123W        W32453  15.186   9.304  10.953
64124W        W32454  16.593  39.877   2.859
64125W        W32455   3.904  25.991   0.747
64126W        W32456  16.153  29.627  12.467
64127W        W32457  36.943  42.838  12.096
64128W        W32458  44.436  21.555   2.222
64129W        W32459  14.166  44.417  11.891
64130W        W32460   6.227  40.017  10.579
64131W        W32461  19.687   7.878   0.775
64132W        W32462  29.639  32.495   3.690
64133W        W32463  25.080  10.667   0.785
64134W        W32464  39.449  13.608   2.805
64135W        W32465  36.533   0.276  11.923
64136W        W32466  27.595  24.531  11.027
64137W        W32467  19.177  25.078  11.483
64138W        W32468  41.296  37.504  14.289
64139W        W32469  35.469  19.557  11.537
64140W        W32470  23.072  29.530   1.865
64141W        W32471   4.382  17.716   1.840
64142W        W32472  19.710   5.286   2.305
64143W        W32473   8.307   1.968   3.307
64144W        W32474   8.878  32.439   3.635
64145W        W32475  43.488   5.384  13.483
64146W        W32476   3.281  27.599   4.149
64147W        W32477  29.000  16.781  11.443
64148W        W32478  24.095   1.784   1.241
64149W        W32479  24.026  13.672  14.853
64150W        W32480   8.370  22.125  13.314
64151W        W32481   8.813   8.188   4.669
64152W        W32482  28.450   5.297  12.954
64153W        W32483  20.100  11.204   1.258
64154W        W32484   3.315  31.925  14.353
64155W        W32485  36.493  23.665   2.699
64156W        W32486  28.616  21.523   3.186
64157W        W32487   9.167  35.926  11.504
64158W        W32488  19.105  31.491   3.816
64159W        W32489  26.526  14.746  13.461
64160W        W32490  44.773  24.989   4.144
64161W        W32491  41.475  30.926  12.345
64162W        W32492  20.718  43.380   3.728
64163W        W32493  39.833  26.133   2.707
64164W        W32494  39.867  23.238  11.574
64165W        W32495  18.649   6.844   2.349
64166W        W32496  26.137  40.916  11.922
64167W        W32497  20.171   5.740   3.229
64168W        W32498  19.128  14.312  11.485
64169W        W32499  21.151  16.116  11.067
64170W        W32500  13.834  44.303   1.881
64171W        W32501  32.619  10.261   2.419
64172W        W32502  17.228  10.359   3.672
64173W        W32503  38.886  39.472  13.401
64174W        W32504  17.636   4.255   4.613
64175W        W32505  27.599   2.277   1.216
64176W        W32506  36.009  31.137  10.410
64177W        W32507  20.611   5.863  12.054
64178W        W32508   5.383  40.902   2.341
64179W        W32509  34.014  25.714   2.241
64180W        W32510  33.411  35.537   4.676
64181W        W32511   3.318   4.334   4.682
64182W        W32512  19.739  16.625  14.778
64183W        W32513  25.096  10.189   4.785
64184W        W32514  22.700   2.841  12.436
64185W        W32515  41.919  33.956   2.901
64186W        W32516  42.004  41.014  12.565
64187W        W32517   0.977  32.132  10.599
64188W        W32518  13.149   6.719   0.446
64189W        W32519  12.248   8.725  11.058
64190W        W32520  25.655  34.900  13.520
64191W        W32521  11.323  40.540   4.816
64192W        W32522  27.955  31.985   4.231
64193W        W32523  41.393  26.173  12.483
64194W        W32524  16.678  11.844  13.050
64195W        W32525  21.105   5.194   3.261
64196W        W32526  13.189  20.131  11.510
64197W        W32527  25.088  17.714  12.533
64198W        W32528  20.138  32.551  10.581
64199W        W32529   6.326  36.087  13.527
64200W        W32530  30.155   6.297  11.069
64201W        W32531  36.897  17.171   2.183
64202W        W32532  19.550  23.234   3.838
64203W        W32533  16.796  27.991   4.203
64204W        W32534  19.556  12.135  14.937
64205W        W32535   2.965   6.793   4.160
64206W        W32536  11.232  11.195  13.528
64207W        W32537  19.285  37.051   4.117
64208W        W32538  10.864  36.910   0.346
64209W        W32539  11.296  35.101  10.998
64210W        W32540  38.341  12.235  10.898
64211W        W32541  26.545  17.306  13.041
64212W        W32542  20.095  41.982   0.291
64213W        W32543  22.522   8.317   0.319
64214W        W32544  38.053   0.834  13.998
64215W        W32545   7.298  10.229   0.251
64216W        W32546   5.694   4.438  13.818
64217W        W32547  32.404  21.675  12.900
64218W        W32548  11.326  32.970   4.821
64219W        W32549   6.259  44.418  12.894
64220W        W32550   5.205  28.150   2.256
64221W        W32551  35.512  29.572  13.419
64222W        W32552  35.911   1.365   0.776
64223W        W32553  16.699  36.046  12.473
64224W        W32554  41.814  27.657   3.318
64225W        W32555  11.689   9.236   0.413
64226W        W32556  14.182  26.553  11.871
64227W        W32557  11.173  43.946  11.375
64228W        W32558  10.693   6.233   1.353
64229W        W32559  20.247  16.585  11.860
64230W        W32560  42.446  34.425  11.554
64231W        W32561   0.374  14.602   3.868
64232W        W32562  34.511   3.806   3.679
64233W        W32563  28.490   4.721   1.860
64234W        W32564  32.572  42.399   3.197
64235W        W32565  21.126  39.396  12.948
64236W        W32566   2.232   4.823   4.277
64237W        W32567  17.305  32.953  14.014
64238W        W32568  24.522  26.627  13.918
64239W        W32569  35.449  12.239  14.835
64240W        W32570  30.974  10.330   9.935
64241W        W32571  14.604  26.152   4.231
64242W        W32572  15.801   8.657   0.367
64243W        W32573  36.960   5.793   2.860
64244W        W32574  29.140  21.128   0.432
64245W        W32575  37.863  15.131  12.068
64246W        W32576   4.745  42.941  11.861
64247W        W32577  37.386   1.373  12.533
64248W        W32578  33.130  23.667  13.530
64249W        W32579   3.416  31.449   2.411
64250W        W32580   3.834  11.719   4.692
64251W        W32581  12.619   2.913  12.552
64252W        W32582   9.855  19.282  12.437
64253W        W32583  15.240  27.075   2.738
64254W        W32584  37.419  39.984   1.315
64255W        W32585  11.806  32.395   4.795
64256W        W32586  25.504  14.750  12.550
64257W        W32587  35.041  32.969  10.494
64258W        W32588  12.623  29.649   4.823
64259W        W32589  32.058  19.059   9.966
64260W        W32590  18.055  16.791   1.932
64261W        W32591  39.436  16.314  13.403
64262W        W32592  14.600  29.037  13.973
64263W        W32593   0.440  23.592   1.839
64264W        W32594  35.543  34.926   4.799
64265W        W32595  41.507  43.927   0.392
64266W        W32596  15.139  19.617   1.715
64267W        W32597  12.655  26.467  13.445
64268W        W32598  10.786   6.698  14.306
64269W        W32599   8.766   7.390  10.431
64270W        W32600  38.343   7.327   2.400
64271W        W32601   7.829  26.038  10.455
64272W        W32602  42.285  25.640   2.884
64273W        W32603  25.473  13.233  11.101
64274W        W32604  39.016   5.433   2.408
64275W        W32605  16.080  28.994  12.409
64276W        W32606  33.619  10.850   1.929
64277W        W32607  36.016  38.895   3.869
64278W        W32608  25.637   0.757   3.229
64279W        W32609   7.317  38.385   0.384
64280W        W32610  16.672   0.477  11.046
64281W        W32611  22.082   7.794   2.710
64282W        W32612  12.258  33.498   0.811
64283W        W32613  27.181  11.828  12.876
64284W        W32614   6.676   2.280   3.738
64285W        W32615  37.353  20.103  14.802
64286W        W32616  25.500  12.265  11.889
64287W        W32617  44.975  13.804   1.793
64288W        W32618  22.112  39.045   3.815
64289W        W32619   4.932  16.194   1.855
64290W        W32620  38.067  14.648  13.384
64291W        W32621  29.081  44.384   1.409
64292W        W32622   7.841  39.341  14.380
64293W        W32623  12.268   0.449   3.300
64294W        W32624  25.198   0.431   1.903
64295W        W32625  42.880   9.281   2.874
64296W        W32626  31.112  18.148  13.841
64297W        W32627  19.139  43.893   1.842
64298W        W32628  20.744  13.723   1.249
64299W        W32629   1.269  36.938  14.806
64300W        W32630   6.303  39.985  13.321
64301W        W32631  37.083  42.485  12.381
64302W        W32632   8.365  35.991   4.820
64303W        W32633  44.471  12.761  12.451
64304W        W32634  35.368  27.627  10.416
64305W        W32635  30.652  29.074   0.389
64306W        W32636  25.208   7.881   5.306
64307W        W32637  19.058  21.195  14.431
64308W        W32638   2.287   9.391  13.981
64309W        W32639  41.044  29.096   0.342
64310W        W32640  21.197  30.979  11.889
64311W        W32641  15.802  21.146  11.440
64312W        W32642  44.475   2.720   0.930
64313W        W32643  32.626  39.349   4.172
64314W        W32644   6.321  22.613   0.313
64315W        W32645  19.257  25.023   1.785
64316W        W32646  31.938  44.504   5.295
64317W        W32647   5.785  19.652  10.888
64318W        W32648   0.859  32.412  14.322
64319W        W32649  13.729   2.734   4.242
64320W        W32650   0.818  25.990  11.567
64321W        W32651  18.628  10.242  12.840
64322W        W32652   0.411  34.551   2.403
64323W        W32653  36.392   7.203  13.007
64324W        W32654  26.054  40.968  11.051
64325W        W32655  35.475  15.649   2.789
64326W        W32656  43.927  16.275   0.320
64327W        W32657  28.596  16.672  13.506
64328W        W32658   3.938  17.252  11.999
64329W        W32659   1.788  21.744  13.546
64330W        W32660  42.872  41.416  10.096
64331W        W32661  40.940   7.675   2.418
64332W        W32662  11.637  15.696  10.906
64333W        W32663  11.285  34.613   2.359
64334W        W32664   9.660  16.677   3.832
64335W        W32665   9.784  34.111   3.208
64336W        W32666  19.092  19.654  10.937
64337W        W32667  34.893  37.862   4.772
64338W        W32668  17.578  17.064   3.184
64339W        W32669  18.284   5.211  13.796
64340W        W32670  21.720  35.377  11.017
64341W        W32671   2.745  24.537   2.827
64342W        W32672  15.107  31.065  12.451
64343W        W32673   1.266  39.374  12.004
64344W        W32674  42.014   4.240  10.932
64345W        W32675   5.852   4.217   1.293
64346W        W32676  23.513  11.294   1.393
64347W        W32677  30.578  30.567   4.635
64348W        W32678  19.622  38.558   4.696
64349W        W32679  31.569  29.053   3.863
64350W        W32680   4.408  31.115  12.465
64351W        W32681  20.234   2.352  11.553
64352W        W32682  18.718  36.374   2.303
64353W        W32683  13.632  24.672  12.528
64354W        W32684  44.776  23.133   3.313
64355W        W32685  17.556  33.407   4.272
64356W        W32686  21.216   4.376   1.371
64357W        W32687  11.640  28.079   2.810
64358W        W32688  39.423  38.399   4.677
64359W        W32689   1.335  13.134   2.186
64360W        W32690   2.368  25.194   4.206
64361W        W32691   4.803  30.466   1.741
64362W        W32692   0.964   8.800  13.003
64363W        W32693  44.286  30.483  11.974
64364W        W32694  28.456   2.434  10.631
64365W        W32695  38.049  22.544  13.429
64366W        W32696  44.373  41.968   4.269
64367W        W32697  12.630  16.658   0.840
64368W        W32698  32.131  31.134  14.375
64369W        W32699   6.336  25.614   4.706
64370W        W32700  39.915  34.001  14.993
64371W        W32701  44.932  44.397   2.813
64372W        W32702   1.409  24.525   4.120
64373W        W32703  16.785  43.011   2.323
64374W        W32704  11.822  38.842  10.968
64375W        W32705   1.482  37.465   4.343
64376W        W32706  25.667   0.309   3.838
64377W        W32707  34.390  16.610   4.670
64378W        W32708  35.514   4.809  10.489
64379W        W32709  43.931   5.436   2.392
64380W        W32710  42.808  35.546   3.330
64381W        W32711  32.104  40.306   3.645
64382W        W32712  12.341  22.606  14.454
64383W        W32713  37.906  41.452  12.990
64384W        W32714  43.781  21.134  14.488
64385W        W32715  35.500  42.509   4.144
64386W        W32716  30.478  30.416   4.166
64387W        W32717  14.753   7.217  12.364
64388W        W32718  15.308  19.565  12.428
64389W        W32719  19.559  42.938  14.947
64390W        W32720  10.668   9.179  14.415
64391W        W32721  14.201  34.874   3.241
64392W        W32722  40.535  12.622   2.231
64393W        W32723  34.035  24.147   0.963
64394W        W32724  43.385   8.763  10.981
64395W        W32725  29.130  34.048  12.461
64396W        W32726  35.898   2.817  11.101
64397W        W32727  16.704  22.507   0.332
64398W        W32728  35.049  30.038   4.323
64399W        W32729  43.499   7.258  11.977
64400W        W32730  11.745  40.944   2.222
64401W        W32731   5.926  28.186  13.998
64402W        W32732  35.049  23.645  10.428
64403W        W32733   1.401  12.307   4.619
64404W        W32734   7.708  10.306  12.369
64405W        W32735  37.076  18.081   2.235
64406W        W32736  11.845  18.700   2.792
64407W        W32737  37.338  37.433   4.325
64408W        W32738  13.786   6.428  13.402
64409W        W32739   2.397  25.155   1.759
64410W        W32740  16.080  11.854   3.326
64411W        W32741   1.287  14.101   4.243
64412W        W32742  34.064  11.709  13.354
64413W        W32743  24.145  43.312  10.943
64414W        W32744  16.306  36.080  14.457
64415W        W32745  26.016  35.392  12.471
64416W        W32746  41.465  29.001  11.035
64417W        W32747   4.763   2.230   4.775
64418W        W32748   4.437  31.567   3.322
64419W        W32749   1.869  17.308   5.082
64420W        W32750   5.205  36.993  13.337
64421W        W32751  43.373  28.950  12.025
64422W        W32752  39.333  23.678   1.289
64423W        W32753  26.027  25.619  13.340
64424W        W32754  23.087  31.596   1.211
64425W        W32755  22.014  44.343  11.511
64426W        W32756   5.808  32.954  14.818
64427W        W32757  35.566   9.256   0.827
64428W        W32758  28.517  16.098  12.468
64429W        W32759  26.641   0.409   2.753
64430W        W32760  38.484  44.902  13.378
64431W        W32761  12.768  23.674  13.047
64432W        W32762  31.937  41.812   1.911
64433W        W32763  19.050  32.092  11.019
64434W        W32764  19.659  24.598  13.411
64435W        W32765   8.398   4.445  11.537
64436W        W32766   6.710  20.698   0.736
64437W        W32767  37.347   4.238  14.321
64438W        W32768  37.919  20.558   3.831
64439W        W32769   6.755  44.769   3.787
64440W        W32770   9.688  21.713   2.670
64441W        W32771  42.395   1.287  12.468
64442W        W32772   0.787  23.994   3.632
64443W        W32773  16.181   4.769   4.730
64444W        W32774  10.217  43.999  14.495
64445W        W32775  19.642  22.625   0.333
64446W        W32776   6.398  21.021   1.874
64447W        W32777  22.086   2.227   2.215
64448W        W32778   5.196  15.749  11.950
64449W        W32779  19.077   3.236  10.603
64450W        W32780  39.019  31.539  11.975
64451W        W32781  27.632  25.996   0.439
64452W        W32782  11.793  42.954   3.775
64453W        W32783  21.249   4.741  11.070
64454W        W32784  19.063  15.762  14.871
64455W        W32785  27.458  43.484   1.860
64456W        W32786   3.822   8.827   0.390
64457W        W32787  25.514  26.129  12.399
64458W        W32788  17.576  16.220   0.946
64459W        W32789  22.730  18.205  12.943
64460W        W32790  36.475  35.991   1.428
64461W        W32791  23.061   8.257  10.899
64462W        W32792  22.679  16.616  12.519
64463W        W32793  28.490  40.052  10.924
64464W        W32794  12.849  38.466  13.374
64465W        W32795  34.418  28.961  11.529
64466W        W32796  34.489  26.590   4.334
64467W        W32797  37.060  29.609  10.559
64468W        W32798   5.782   8.711  10.993
64469W        W32799  14.139  25.601   0.873
64470W        W32800   3.894  26.179   2.747
64471W        W32801  10.819  21.177  12.967
64472W        W32802   3.298  42.340  13.893
64473W        W32803   7.871  22.090   1.901
64474W        W32804   3.455   2.231   0.844
64475W        W32805  15.813  16.095   2.325
64476W        W32806  19.222  42.476   1.267
64477W        W32807  29.009  31.433   1.280
64478W        W32808  40.936  40.916  14.891
64479W        W32809   9.805  12.752   3.697
64480W        W32810   1.834  38.362   4.695
64481W        W32811   4.449  40.458   4.293
64482W        W32812  33.957  39.914   1.732
64483W        W32813  40.328  16.611  13.357
64484W        W32814   9.793  26.162   3.381
64485W        W32815  34.075   6.217   2.790
64486W        W32816  34.579   0.869   2.328
64487W        W32817  43.955   6.234   4.622
64488W        W32818  38.535  10.755   4.768
64489W        W32819  21.241   7.808   4.603
64490W        W32820  10.209  28.609  11.611
64491W        W32821  36.049  32.909   0.961
64492W        W32822  23.708  30.495   0.892
64493W        W32823  12.777  40.929  14.950
64494W        W32824   1.354  31.056  13.533
64495W        W32825  34.878  28.074  11.441
64496W        W32826  41.021  18.067   4.196
64497W        W32827  25.482  28.505  12.538
64498W        W32828  23.168  30.083   3.206
64499W        W32829  20.760  21.518  13.473
64500W        W32830  14.666   6.304   3.330
64501W        W32831  30.947  35.422  11.048
64502W        W32832  42.483  27.635   4.676
64503W        W32833  40.525  32.580   3.241
64504W        W32834  43.281  32.912   3.801
64505W        W32835  15.205  27.657  12.925
64506W        W32836  41.810  42.788   0.818
64507W        W32837  32.478  26.135   3.277
64508W        W32838   2.868  44.915  12.510
64509W        W32839  28.113   2.326  12.016
64510W        W32840  41.856  28.585  13.427
64511W        W32841  36.563   0.334  13.428
64512W        W32842  22.217  10.676   4.648
64513W        W32843   2.386  30.542   5.282
64514W        W32844  42.889   2.460  10.455
64515W        W32845  22.704  37.902  10.510
64516W        W32846  15.127  15.729   3.707
64517W        W32847  44.464  35.474  14.871
64518W        W32848  20.746  31.459   0.258
64519W        W32849  12.791   9.168  11.374
64520W        W32850  27.498  38.444   2.898
64521W        W32851   3.394  39.504   5.615
64522W        W32852  19.549   5.316   3.199
64523W        W32853  34.541  13.166   2.265
64524W        W32854   4.816  13.255   1.419
64525W        W32855  11.361  32.503   3.749
64526W        W32856   9.348  34.962   0.265
64527W        W32857  23.108  33.522   2.274
64528W        W32858  24.985  30.587  10.630
64529W        W32859  42.875  32.047   2.373
64530W        W32860  40.314  16.177   1.827
64531W        W32861  35.998  42.009   1.380
64532W        W32862  43.430  31.625   0.331
64533W        W32863   1.763  37.478   1.889
64534W        W32864   7.872  37.966  11.098
64535W        W32865  44.910  44.959  14.891
64536W        W32866  13.127   0.866  14.936
64537W        W32867   6.867   9.816  12.482
64538W        W32868  15.801  10.766   2.368
64539W        W32869   1.449  15.118   0.728
64540W        W32870   5.908   6.901  11.925
64541W        W32871  38.825  27.035   2.319
64542W        W32872  21.689  42.921  11.003
64543W        W32873  37.508  22.196  12.025
64544W        W32874  15.117  33.031  14.991
64545W        W32875  29.586  40.802   1.732
64546W        W32876   0.453  24.040  12.546
64547W        W32877  39.507  35.380   0.306
64548W        W32878  11.255  13.221   1.784
64549W        W32879  26.145  21.613   4.776
64550W        W32880  33.496  29.997  13.320
64551W        W32881   5.832  15.317   2.896
64552W        W32882  13.603   3.315  13.414
64553W        W32883   2.430  38.882  11.941
64554W        W32884  28.446   2.406   2.865
64555W        W32885  12.628  34.492  12.489
64556W        W32886  25.208  24.173   2.828
64557W        W32887  17.182   7.293  13.006
64558W        W32888   4.794   3.795  13.044
64559W        W32889  18.773  32.052  11.385
64560W        W32890  21.517  36.522  13.385
64561W        W32891  38.351   8.657  10.533
64562W        W32892  25.056  30.083  11.435
64563W        W32893  25.665  10.733   3.379
64564W        W32894  10.335  33.541  14.399
64565W        W32895  44.004   8.898   2.382
64566W        W32896  18.107  20.121  12.449
64567W        W32897  26.564  44.358  14.993
64568W        W32898  10.280  24.156   4.239
64569W        W32899  37.464  32.522  13.927
64570W        W32900  37.011  29.546  13.903
64571W        W32901  36.077  43.884   0.841
64572W        W32902  10.691  11.312   2.298
64573W        W32903  28.650  20.219  13.535
64574W        W32904  18.695  44.997   2.757
64575W        W32905   6.416  17.581   2.227
64576W        W32906  19.636   1.354  13.326
64577W        W32907  18.246  33.955  13.861
64578W        W32908   6.187  13.286  11.457
64579W        W32909  41.538  36.041   2.329
64580W        W32910  37.059  27.548  12.932
64581W        W32911  40.879  17.105  12.427
64582W        W32912  32.967  29.134  12.494
64583W        W32913   3.277  39.057   1.384
64584W        W32914  15.765  33.955  12.093
64585W        W32915  25.604  26.994  10.635
64586W        W32916  38.423  30.135   1.405
64587W        W32917  23.070  13.727   4.198
64588W        W32918  12.235  27.665   3.747
64589W        W32919  15.711  11.627  14.467
64590W        W32920   5.260  19.154  13.400
64591W        W32921  35.073  43.383  14.946
64592W        W32922  23.069   8.872   9.611
64593W        W32923  43.405   2.367   2.778
64594W        W32924  32.960  10.787  14.437
64595W        W32925  27.958  26.096  11.071
64596W        W32926  25.213  19.204   4.126
64597W        W32927  28.479  13.804   3.167
64598W        W32928  39.015   6.867   0.859
64599W        W32929  26.581  31.472  11.932
64600W        W32930  32.014   5.920   0.737
64601W        W32931  43.976  32.058  11.096
64602W        W32932   6.341  29.953  10.904
64603W        W32933  21.717  38.482  14.409
64604W        W32934  37.466   9.813  13.952
64605W        W32935   3.782   1.447   1.261
64606W        W32936   5.835  25.036   0.368
64607W        W32937   0.899  33.057  13.822
64608W        W32938   7.792  23.696   9.983
64609W        W32939  22.622   1.755   0.854
64610W        W32940  37.428   4.766  13.409
64611W        W32941  38.995  12.722   0.858
64612W        W32942  37.960   0.289   0.836
64613W        W32943  44.008  20.050   1.934
64614W        W32944  24.046  21.050  10.621
64615W        W32945  21.238  11.210  13.386
64616W        W32946   3.778  16.714  10.532
64617W        W32947  10.161  13.210   3.691
64618W        W32948   5.193  17.067  14.347
64619W        W32949  34.946  10.173   3.735
64620W        W32950  13.258  34.936  12.041
64621W        W32951  43.882  40.859  14.774
64622W        W32952  37.065  15.164   0.419
64623W        W32953  13.199   2.433   0.442
64624W        W32954  21.606  22.212   3.735
64625W        W32955  32.001   8.882   3.344
64626W        W32956  36.973   0.309  12.075
64627W        W32957  32.141  33.043  10.572
64628W        W32958  13.713   2.787  11.941
64629W        W32959  27.013  38.043  13.000
64630W        W32960  31.987  22.030   2.268
64631W        W32961  21.075  37.442   2.261
64632W        W32962   8.266  34.419  14.762
64633W        W32963  41.439  23.984  13.410
64634W        W32964  22.623  11.195  11.480
64635W        W32965  22.632   2.725  12.072
64636W        W32966  16.115  44.805   0.832
64637W        W32967  34.109  17.111   4.172
64638W        W32968  13.725   2.270   2.324
64639W        W32969   5.301  21.024   2.813
64640W        W32970  21.549  19.583   0.283
64641W        W32971  11.189  17.638   1.836
64642W        W32972  31.950  29.649  11.582
64643W        W32973  17.107  36.021   2.325
64644W        W32974   3.786  25.615   3.771
64645W        W32975  35.452  24.701   1.738
64646W        W32976  31.007  27.134   4.821
64647W        W32977  11.729  23.109   0.373
64648W        W32978  33.063  24.644  14.431
64649W        W32979  27.102  24.008  12.419
64650W        W32980  32.397  33.933  11.879
64651W        W32981  39.832  24.121   0.289
64652W        W32982  42.877   2.934  11.443
64653W        W32983  19.052  29.923   3.237
64654W        W32984   0.878  35.416   1.745
64655W        W32985  28.042  36.924  12.084
64656W        W32986  40.392  12.676   0.423
64657W        W32987  10.191  10.346  13.969
64658W        W32988  25.552  33.981   4.684
64659W        W32989  17.104  40.857  10.616
64660W        W32990  38.361  38.558   4.740
64661W        W32991  40.548  42.292  14.885
64662W        W32992  26.205  21.740  10.505
64663W        W32993   7.698  44.978  12.830
64664W        W32994   1.817  24.556   3.321
64665W        W32995  11.347  22.155   1.372
64666W        W32996   3.335   3.712  12.419
64667W        W32997  30.620   4.205   1.339
64668W        W32998   6.342  15.740  13.996
64669W        W32999  41.954  40.924   2.704
64670W        W33000   7.755   8.251  14.801
64671W        W33001   2.919  37.843   0.765
64672W        W33002  43.435   7.298   3.211
64673W        W33003  20.550  24.000  13.046
64674W        W33004   9.355  43.445   1.433
64675W        W33005  41.931  11.667  12.442
64676W        W33006   6.298   8.383  12.960
64677W        W33007  39.370  39.902   2.765
64678W        W33008  21.199   1.774   3.856
64679W        W33009  21.077   0.303   3.284
64680W        W33010  15.718   8.854   4.707
64681W        W33011   5.341  14.312  11.877
64682W        W33012  11.233  19.655  10.587
64683W        W33013  10.254  38.979  13.997
64684W        W33014  37.870  40.378   3.304
64685W        W33015  31.044  23.142   5.786
64686W        W33016   8.857  39.332   0.375
64687W        W33017  34.388  13.324   0.338
64688W        W33018  13.700   7.199   1.916
64689W        W33019  21.158  29.498   2.740
64690W        W33020  24.103  30.510  14.886
64691W        W33021   2.398   3.382   5.108
64692W        W33022  40.861  32.900  12.994
64693W        W33023  34.907  30.547  14.967
64694W        W33024  14.147  27.085   2.747
64695W        W33025  24.650  43.836   4.331
64696W        W33026  13.731  26.620  13.467
64697W        W33027  30.627  17.116   0.279
64698W        W33028  43.453  43.351  11.537
64699W        W33029  29.524  20.122   2.671
64700W        W33030  40.466  15.601   2.839
64701W        W33031  19.730   1.906   0.803
64702W        W33032  38.914  39.401  13.064
64703W        W33033  16.188  37.358  12.516
64704W        W33034  10.201  40.377   5.137
64705W        W33035  39.511  21.246   0.478
64706W        W33036  35.538  42.873   1.705
64707W        W33037  40.488   2.250   1.293
64708W        W33038  43.362  20.126  12.064
64709W        W33039   6.207  24.148  14.407
64710W        W33040  26.702  23.013   4.345
64711W        W33041  24.483  12.691  14.824
64712W        W33042  19.625  33.626  12.549
64713W        W33043   4.376  29.063   3.780
64714W        W33044  40.399  19.659   3.382
64715W        W33045   3.910   3.446  11.930
64716W        W33046  28.501  30.932   0.322
64717W        W33047  32.490  36.387   1.450
64718W        W33048  18.639  20.181  12.580
64719W        W33049   7.364  24.973   0.816
64720W        W33050   0.471   5.349  14.296
64721W        W33051  34.447  17.725   4.685
64722W        W33052  14.154  26.018  14.004
64723W        W33053  43.496  32.975  12.537
64724W        W33054  36.411  20.584   0.391
64725W        W33055   7.686   1.477  14.383
64726W        W33056  17.272   0.288   3.686
64727W        W33057  21.726  15.256   1.296
64728W        W33058  33.929  30.579  13.811
64729W        W33059  37.848  14.298  13.859
64730W        W33060  37.359  18.187  14.810
64731W        W33061  14.197   2.461   5.259
64732W        W33062  15.320   0.782   4.248
64733W        W33063  25.635  14.314   0.908
64734W        W33064   8.707  19.198   0.334
64735W        W33065  20.572  14.811  14.831
64736W        W33066  42.829  24.027  12.498
64737W        W33067  38.432  38.052   1.427
64738W        W33068  30.572  38.996  14.326
64739W        W33069  35.036  13.775  14.796
64740W        W33070   9.335  27.194   0.257
64741W        W33071  35.086  29.019  13.421
64742W        W33072  33.554  12.202  12.033
64743W        W33073  12.217   2.275  10.501
64744W        W33074  33.111  13.350  12.386
64745W        W33075   1.745  33.534  11.034
64746W        W33076  31.902   1.941   2.739
64747W        W33077  11.271   2.773  14.824
64748W        W33078  31.011  30.494  12.879
64749W        W33079   0.746  29.145   2.723
64750W        W33080  31.480  42.303  11.486
64751W        W33081  25.068   9.686   0.257
64752W        W33082  22.617  20.699   1.333
64753W        W33083   1.827  26.519   0.311
64754W        W33084   3.952  22.612  10.150
64755W        W33085  38.413  29.633  13.947
64756W        W33086  13.665  36.910   4.257
64757W        W33087  11.632  20.194   3.829
64758W        W33088  36.093  29.430  12.441
64759W        W33089  44.394  34.999   1.373
64760W        W33090  36.484  12.781   3.150
64761W        W33091  24.558   4.938   0.956
64762W        W33092  28.991  38.990   1.438
64763W        W33093  30.490  23.655  10.578
64764W        W33094  34.942  25.976   0.960
64765W        W33095   2.959   8.197   4.154
64766W        W33096  21.643  33.045  12.993
64767W        W33097  14.760  14.696  13.950
64768W        W33098  15.642  20.618   3.342
64769W        W33099  27.968  33.076  14.813
64770W        W33100  24.988  40.935   0.829
64771W        W33101   5.780  27.565   0.867
64772W        W33102  22.666  26.654   1.744
64773W        W33103  39.358   4.701   0.251
64774W        W33104  32.585  32.094  14.472
64775W        W33105  19.570  27.523  11.450
64776W        W33106  16.090  42.920  14.478
64777W        W33107  37.543   9.667   1.902
64778W        W33108  21.539  16.575  13.044
64779W        W33109  36.386   8.661  13.950
64780W        W33110  32.044  44.776   4.773
64781W        W33111   9.806  16.126   0.770
64782W        W33112  16.095   5.838  12.442
64783W        W33113  29.929   3.427  14.008
64784W        W33114  44.780  16.720  11.898
64785W        W33115   5.333  21.221   4.193
64786W        W33116   6.768  42.842  11.537
64787W        W33117  33.882  40.429  12.949
64788W        W33118  23.015  10.234  13.372
64789W        W33119   0.827   6.216  12.942
64790W        W33120  25.617  14.146   3.326
64791W        W33121  37.527  32.545   1.335
64792W        W33122  18.222   0.833   4.669
64793W        W33123  11.266  12.179  14.293
64794W        W33124  40.999   3.854  14.294
64795W        W33125  42.931  12.621   4.209
64796W        W33126  11.205   0.865  13.905
64797W        W33127   0.939   8.855  12.554
64798W        W33128   4.287   4.779  11.452
64799W        W33129   9.699   1.474   2.319
64800W        W33130   6.428   9.221  11.610
64801W        W33131  44.756   7.380   3.287
64802W        W33132   2.443   4.348  14.475
64803W        W33133  38.519  13.612   1.819
64804W        W33134  29.621   8.710  13.949
64805W        W33135  30.623  13.781   3.310
64806W        W33136  14.681  29.931  11.122
64807W        W33137  36.446  25.574   1.270
64808W        W33138  42.837  44.869  14.958
64809W        W33139  24.068  37.577   4.300
64810W        W33140   9.321  21.060   2.416
64811W        W33141  31.621  14.280   0.483
64812W        W33142  41.475   1.870   3.216
64813W        W33143  12.307   5.207   3.812
64814W        W33144  31.531  14.294  13.518
64815W        W33145  43.278  39.007   2.378
64816W        W33146  30.972  40.976  10.468
64817W        W33147  39.515  15.137   0.734
64818W        W33148  23.543  35.518  10.453
64819W        W33149  27.625  36.023   0.907
64820W        W33150  32.400  40.387  10.614
64821W        W33151   1.807  31.119   2.795
64822W        W33152  35.497  23.598  14.953
64823W        W33153  32.470   4.795   9.972
64824W        W33154   6.314   3.297  10.907
64825W        W33155  11.212   2.804  10.990
64826W        W33156  36.564   1.800  14.944
64827W        W33157   3.905   3.327  14.493
64828W        W33158   8.836   7.243   3.686
64829W        W33159  19.051  24.716   0.968
64830W        W33160  25.212  26.980   3.779
64831W        W33161  10.378  41.518  10.097
64832W        W33162  35.942   2.366   2.209
64833W        W33163  40.885  22.700  11.072
64834W        W33164   1.390  18.284  13.894
64835W        W33165  29.578  17.799   2.692
64836W        W33166  23.538   5.340   0.904
64837W        W33167  12.637  29.022  11.023
64838W        W33168  39.351  10.833   1.913
64839W        W33169  29.001  28.602   0.256
64840W        W33170  25.979   2.881   1.416
64841W        W33171  41.974   2.875   0.852
64842W        W33172  23.176   2.312   4.220
64843W        W33173  11.203   3.814   4.311
64844W        W33174  30.618   2.345   4.265
64845W        W33175  40.002  15.634  13.347
64846W        W33176  27.119  23.535  12.053
64847W        W33177  15.084  40.340   0.258
64848W        W33178  31.096  13.233  11.020
64849W        W33179   8.187  38.881   1.835
64850W        W33180  39.438  26.554  10.594
64851W        W33181  20.662   4.213  11.980
64852W        W33182  27.169  42.433  13.892
64853W        W33183  44.332   5.715   3.364
64854W        W33184  15.611  22.522   4.820
64855W        W33185   9.328  40.019   2.669
64856W        W33186  28.050  42.445   1.405
64857W        W33187  23.731  44.293   2.331
64858W        W33188   9.730   4.449  11.401
64859W        W33189  32.393  31.149   4.615
64860W        W33190   1.354   6.903  12.449
64861W        W33191   7.714  15.788   1.401
64862W        W33192  21.613   3.803   3.345
64863W        W33193  23.067  10.848  11.048
64864W        W33194  28.990  17.587   2.184
64865W        W33195  26.678  29.571   4.643
64866W        W33196  25.664  12.249   4.830
64867W        W33197  31.519  42.448   4.693
64868W        W33198  15.132  43.418   2.705
64869W        W33199  10.843  30.989  12.925
64870W        W33200  38.059  24.516   3.848
64871W        W33201   3.784   2.322  11.058
64872W        W33202  32.055   8.331  12.402
64873W        W33203   1.797  39.886   0.420
64874W        W33204  13.303   1.807   0.750
64875W        W33205  42.424  38.035  14.395
64876W        W33206   3.222  31.075   2.757
64877W        W33207  30.441   1.287  13.350
64878W        W33208  24.064  35.374   1.734
64879W        W33209  11.664   8.280   2.793
64880W        W33210  34.089  14.329   3.644
64881W        W33211  35.576  33.921   3.303
64882W        W33212  30.572   4.871   2.871
64883W        W33213  24.529  39.919   4.834
64884W        W33214   4.841  29.642   0.877
64885W        W33215   1.759  27.973  13.536
64886W        W33216  16.706  23.506   2.783
64887W        W33217  31.641   7.770   0.308
64888W        W33218  34.921  38.878  10.076
64889W        W33219   3.922  15.123  12.916
64890W        W33220   7.208  19.716   2.357
64891W        W33221   2.345   5.419   2.764
64892W        W33222  31.020  13.111  11.931
64893W        W33223  15.164  36.969  14.912
64894W        W33224  43.806  11.672  13.793
64895W        W33225   7.839  42.339  10.519
64896W        W33226  39.412   3.377  11.477
64897W        W33227  30.487  27.133   4.666
64898W        W33228  42.463  38.825   1.788
64899W        W33229  34.003  42.023   1.706
64900W        W33230   3.779  40.399   3.203
64901W        W33231  34.595  36.994  14.462
64902W        W33232   4.814  32.137   4.136
64903W        W33233  31.075  25.501  10.926
64904W        W33234   1.817  24.063   3.303
64905W        W33235  34.059   1.347  11.000
64906W        W33236   0.777  15.763  12.878
64907W        W33237  29.616  23.556  14.279
64908W        W33238  26.539   9.341  13.009
64909W        W33239  29.504   5.872  11.866
64910W        W33240  32.966  21.202   3.767
64911W        W33241  12.823   8.164  13.402
64912W        W33242   2.753  32.460   0.381
64913W        W33243  24.679  36.071   4.639
64914W        W33244  26.084  35.001  10.448
64915W        W33245  32.004  29.523   0.288
64916W        W33246   0.908  35.426  11.918
64917W        W33247   3.444  29.950  12.458
64918W        W33248  31.045   1.825   4.682
64919W        W33249  27.593  15.710   1.928
64920W        W33250  17.776  26.622  11.383
64921W        W33251  16.711  42.495  10.474
64922W        W33252  13.111   2.447   2.188
64923W        W33253  35.529  22.668  14.811
64924W        W33254   9.300  38.385   2.329
64925W        W33255  37.000   4.769   1.376
64926W        W33256  16.621  43.385   3.374
64927W        W33257  26.697   0.408   2.215
64928W        W33258  44.457  11.832   0.367
64929W        W33259  28.113   3.354  14.778
64930W        W33260   2.800   5.260  13.429
64931W        W33261  11.343   6.292  10.614
64932W        W33262  25.663  18.101   3.295
64933W        W33263  16.184   2.470  10.444
64934W        W33264   4.763  41.475  11.079
64935W        W33265  11.284  30.434  13.930
64936W        W33266  29.042  43.393   3.339
64937W        W33267  43.870  11.205  13.445
64938W        W33268  25.597  15.615   2.747
64939W        W33269  34.514  42.977  14.897
64940W        W33270  23.011  33.451  10.482
64941W        W33271  25.180  17.271  14.342
64942W        W33272  35.031  14.163   4.815
64943W        W33273  34.924  35.060  12.556
64944W        W33274  28.617  38.537   0.917
64945W        W33275  15.150  29.059  12.532
64946W        W33276  37.864   1.317   3.271
64947W        W33277  13.741  10.702   3.775
64948W        W33278  40.432  19.652   5.182
64949W        W33279  15.214  30.038   4.759
64950W        W33280   4.873  16.180   4.253
64951W        W33281  28.671  14.296   2.230
64952W        W33282  42.313  41.498   2.772
64953W        W33283  15.278  17.104   3.273
64954W        W33284  19.569  42.019   2.195
64955W        W33285   7.384  11.150  11.429
64956W        W33286  13.215  24.545   4.334
64957W        W33287   4.280   6.361  13.544
64958W        W33288  21.174   2.325  14.498
64959W        W33289   2.763  44.908   0.765
64960W        W33290  28.043   5.854  10.450
64961W        W33291  38.061  28.641   3.311
64962W        W33292  27.518  30.461   2.805
64963W        W33293  33.512  34.982  11.954
64964W        W33294  12.709  15.112  13.804
64965W        W33295  38.458  30.978   2.241
64966W        W33296  32.140  43.837   3.334
64967W        W33297  17.294   9.315  10.498
64968W        W33298  14.150  30.113   4.760
64969W        W33299  18.709  41.462   0.797
64970W        W33300  15.092   8.399  11.606
64971W        W33301  42.813   5.794   9.948
64972W        W33302  12.246   4.868  13.378
64973W        W33303   4.233  40.397   3.833
64974W        W33304   4.206   7.786  10.995
64975W        W33305   2.255  11.622   4.722
64976W        W33306  26.469  30.130  11.406
64977W        W33307  38.489   0.919  13.441
64978W        W33308  42.451  41.908   0.729
64979W        W33309  40.948  23.108  14.464
64980W        W33310  13.686   6.825   3.693
64981W        W33311  28.472  36.477  14.835
64982W        W33312  16.171  24.537  14.339
64983W        W33313   2.929   8.702   4.649
64984W        W33314  25.119  14.656  11.589
64985W        W33315  39.898  26.030  11.063
64986W        W33316   0.458  29.582   3.640
64987W        W33317  41.405  34.387  11.889
64988W        W33318  31.479  35.597   1.350
64989W        W33319   7.397  14.740  11.421
64990W        W33320  30.543  16.314  14.776
64991W        W33321  10.834  12.688  12.520
64992W        W33322   7.739  36.028   0.483
64993W        W33323   7.193  29.148   1.391
64994W        W33324  21.075  31.915  10.926
64995W        W33325  44.294   3.339  14.820
64996W        W33326  19.722  32.611   0.408
64997W        W33327   2.452  36.590  14.312
64998W        W33328  21.563  31.107   2.399
64999W        W33329  39.551  12.752   1.743
65000W        W33330  34.069  31.576   1.311
65001W        W33331  21.704  25.531   3.762
65002W        W33332  23.104  31.454  13.388
65003W        W33333  29.466  32.064   5.753
65004W        W33334   9.756  37.930   4.750
65005W        W33335  13.107   0.883   0.814
65006W        W33336   4.942   6.348   0.323
65007W        W33337  41.316  37.860  13.867
65008W        W33338  41.413   0.298   2.902
65009W        W33339  33.571  17.775   0.916
65010W        W33340  17.729  43.286   2.668
65011W        W33341   2.295  19.627   4.293
65012W        W33342  35.574   7.836   1.269
65013W        W33343  31.550   2.928   4.230
65014W        W33344  15.286  22.101  13.428
65015W        W33345  42.961   4.874   3.359
65016W        W33346   0.317  29.925  11.039
65017W        W33347  17.213  44.879   2.690
65018W        W33348   8.693  26.588  14.020
65019W        W33349  43.766  35.946   3.227
65020W        W33350  14.827  22.184  12.382
65021W        W33351  24.608  42.928  14.779
65022W        W33352  42.427   8.746  12.878
65023W        W33353  41.509  31.424   2.892
65024W        W33354  41.790   1.741   5.255
65025W        W33355  41.490   7.185  11.415
65026W        W33356  27.676  30.981   1.877
65027W        W33357   6.822  30.603  11.971
65028W        W33358  40.943  29.614  12.513
65029W        W33359  21.220  25.145   2.317
65030W        W33360  44.443  15.280   1.319
65031W        W33361  13.236  24.483   3.281
65032W        W33362  38.480   1.938  12.832
65033W        W33363  42.909   1.287  14.358
65034W        W33364  26.013  13.622   4.728
65035W        W33365  14.137   6.184   4.189
65036W        W33366  41.905  35.076   2.710
65037W        W33367   3.257  23.076  12.376
65038W        W33368  14.816   1.363  12.828
65039W        W33369  27.463  16.313  12.374
65040W        W33370   2.852  38.072   1.743
65041W        W33371  20.206   2.226  12.899
65042W        W33372  26.997  11.680   4.317
65043W        W33373  14.124  27.452   0.394
65044W        W33374  12.141   3.443  13.334
65045W        W33375  18.712  32.939  13.937
65046W        W33376  41.375  13.279  12.513
65047W        W33377   0.284  38.849   0.371
65048W        W33378  32.984  14.329   1.277
65049W        W33379  25.965  40.801   0.776
65050W        W33380  37.895  18.078  11.487
65051W        W33381  40.340  23.205   1.872
65052W        W33382  44.755   0.400   2.794
65053W        W33383  26.123  29.028   1.219
65054W        W33384  24.102   6.835  13.981
65055W        W33385   7.388  10.730   4.694
65056W        W33386   5.429  30.950  13.359
65057W        W33387  26.679  39.022  12.096
65058W        W33388  35.974   0.286   4.631
65059W        W33389   7.316  42.841   4.140
65060W        W33390  24.098  42.971  13.982
65061W        W33391  44.322  27.571   2.703
65062W        W33392  42.470  19.216  11.094
65063W        W33393  32.037  21.101  13.339
65064W        W33394   8.176  31.434  11.415
65065W        W33395  35.957  38.955  13.946
65066W        W33396  28.020   7.748   0.367
65067W        W33397   6.263  25.973  13.028
65068W        W33398   9.325   9.863  13.940
65069W        W33399   7.812  14.761  12.398
65070W        W33400  33.527   2.245  14.844
65071W        W33401  42.340  16.762   1.771
65072W        W33402   1.815   1.954   4.684
65073W        W33403  13.797   8.855  13.513
65074W        W33404  37.958  19.259   2.202
65075W        W33405   5.386  16.567  14.479
65076W        W33406  20.637  34.062  12.350
65077W        W33407  12.675   8.326  14.804
65078W        W33408  19.567  31.543   4.681
65079W        W33409  43.848   2.841  12.983
65080W        W33410   3.436  35.020  14.847
65081W        W33411  24.606  12.758   1.236
65082W        W33412  21.210  14.797   2.197
65083W        W33413  36.092  10.864  10.468
65084W        W33414  10.363  10.781  12.941
65085W        W33415  39.313  15.609  14.309
65086W        W33416   6.791  37.993   1.757
65087W        W33417  31.941  25.169   1.912
65088W        W33418  34.513  13.346  10.897
65089W        W33419   3.788   2.389  11.569
65090W        W33420   6.192  14.688  14.920
65091W        W33421  34.007  14.233   4.759
65092W        W33422   4.284   8.178   2.683
65093W        W33423   5.709  35.530  10.594
65094W        W33424  18.271  35.461   1.347
65095W        W33425   3.729   3.338  12.537
65096W        W33426  37.525  31.532   4.308
65097W        W33427  19.554  36.426   1.254
65098W        W33428  31.453  16.653  14.479
65099W        W33429  44.877   8.677   2.281
65100W        W33430  25.710   1.974   0.441
65101W        W33431  41.013  24.005  11.001
65102W        W33432  21.574  27.045  12.487
65103W        W33433  44.462  36.909  14.851
65104W        W33434   4.788  17.145   0.310
65105W        W33435   7.703  18.779  13.980
65106W        W33436  34.099  25.707  12.096
65107W        W33437  33.024  13.346   2.749
65108W        W33438  30.021  25.569  11.548
65109W        W33439  23.609  30.600  13.863
65110W        W33440  44.855  25.133   3.184
65111W        W33441  26.611  28.050   0.270
65112W        W33442  30.480  22.576   4.711
65113W        W33443  18.079  24.049  12.459
65114W        W33444  40.334   6.409   3.856
65115W        W33445  31.639  12.181   2.864
65116W        W33446   0.760  34.946   4.776
65117W        W33447   0.491   4.343   3.769
65118W        W33448   6.324  15.637  10.468
65119W        W33449  20.174  20.751  13.016
65120W        W33450  39.928  10.742  10.413
65121W        W33451   2.771   1.774  13.321
65122W        W33452   7.861  15.102   2.320
65123W        W33453   5.257  42.327  10.504
65124W        W33454  37.920  36.359  13.531
65125W        W33455  10.802  19.587   4.189
65126W        W33456  44.873  30.986   1.908
65127W        W33457   1.259  16.792   4.785
65128W        W33458  42.930   9.842  14.767
65129W        W33459  39.540  25.491   3.735
65130W        W33460  41.308  42.497   0.317
65131W        W33461  32.080  24.518   4.193
65132W        W33462  25.687   4.280   0.770
65133W        W33463  15.705   1.758   3.154
65134W        W33464  42.311  22.585  14.500
65135W        W33465   1.436  21.692  12.379
65136W        W33466  19.738   4.765  11.906
65137W        W33467  41.404  14.290   1.731
65138W        W33468   7.403   4.721  12.034
65139W        W33469  25.121   4.729   2.899
65140W        W33470  30.112  22.065   9.661
65141W        W33471   6.312  24.985  12.502
65142W        W33472  22.172  10.873   0.321
65143W        W33473  32.508  39.336   0.444
65144W        W33474   0.261  17.688   0.462
65145W        W33475  22.026  35.887  14.973
65146W        W33476  24.567  17.165  11.387
65147W        W33477  14.322  40.936   2.224
65148W        W33478  18.207  15.173  12.525
65149W        W33479  40.914  38.973  10.423
65150W        W33480  36.895   5.776  13.911
65151W        W33481   4.418  28.008   0.456
65152W        W33482   4.920   7.771   4.317
65153W        W33483   5.367   7.206  14.338
65154W        W33484   4.380  10.194   3.293
65155W        W33485  21.658   1.747   1.893
65156W        W33486  35.525   8.243   1.219
65157W        W33487  41.927  38.899   2.697
65158W        W33488  40.867  26.031  11.572
65159W        W33489  44.946  14.206   4.659
65160W        W33490  36.368  11.701  14.825
65161W        W33491  17.197   3.395   4.221
65162W        W33492  11.784  37.986  13.377
65163W        W33493  40.820  25.516  11.052
65164W        W33494   6.849  37.426  11.963
65165W        W33495  33.932  11.178  12.939
65166W        W33496  43.413  23.166  13.932
65167W        W33497   7.387  32.439  11.577
65168W        W33498  18.252  31.542   0.769
65169W        W33499  41.918   0.334  11.098
65170W        W33500  26.686  44.948  10.630
65171W        W33501  31.018  19.205  14.876
65172W        W33502  25.687  29.503  11.046
65173W        W33503  14.608  20.167   2.321
65174W        W33504   8.184  38.945  13.057
65175W        W33505  21.609   8.184   0.801
65176W        W33506  44.903  15.639  10.557
65177W        W33507  37.545  25.611  14.030
65178W        W33508  39.354  12.616   4.628
65179W        W33509  30.589  12.845   4.677
65180W        W33510  16.112  44.963  12.478
65181W        W33511  15.810  15.159  13.459
65182W        W33512   1.253  11.190  13.476
65183W        W33513   9.346  40.968   1.836
65184W        W33514   2.318  38.015   1.323
65185W        W33515  35.402  30.579  14.862
65186W        W33516  12.635  44.906  10.524
65187W        W33517  24.206  10.821  14.828
65188W        W33518   2.374  19.604  12.536
65189W        W33519  36.382  18.745   0.831
65190W        W33520  37.039  32.537   0.918
65191W        W33521  18.768  41.019   4.602
65192W        W33522  36.942  26.520  11.862
65193W        W33523  15.800  37.498   0.453
65194W        W33524  19.243  22.202   1.362
65195W        W33525  20.186  15.262  12.438
65196W        W33526  31.900  41.369   2.805
65197W        W33527  29.531  31.061   4.193
65198W        W33528  26.117  36.564  14.511
65199W        W33529  19.245  21.169   1.751
65200W        W33530  37.847  43.811  12.475
65201W        W33531  42.794  37.042  13.924
65202W        W33532  20.524  32.562   0.958
65203W        W33533   2.739  22.724   3.263
65204W        W33534  19.700   4.286   0.421
65205W        W33535   0.382   9.844   2.389
65206W        W33536   2.419  21.044   0.967
65207W        W33537  14.182  20.670  10.955
65208W        W33538  26.510  31.417  14.808
65209W        W33539  21.031   8.303  11.422
65210W        W33540   0.453  38.541   2.893
65211W        W33541  29.975  10.812  13.399
65212W        W33542  36.385  17.184  14.027
65213W        W33543   9.763  11.724   3.228
65214W        W33544  14.157  12.824  12.434
65215W        W33545  29.660  37.980  11.599
65216W        W33546  29.458  27.063  14.942
65217W        W33547   9.793  24.055  14.982
65218W        W33548  22.051  29.617  13.030
65219W        W33549  36.433  12.225   2.738
65220W        W33550  10.330   6.825   1.796
65221W        W33551   6.201  12.339   3.270
65222W        W33552  42.290   1.951  12.047
65223W        W33553  13.682  40.436  10.518
65224W        W33554  15.714  32.466   0.434
65225W        W33555  15.669  44.333  12.913
65226W        W33556  21.085  38.415  14.860
65227W        W33557  27.451  44.979  13.331
65228W        W33558  40.832  26.487  12.405
65229W        W33559  10.230   0.807   2.367
65230W        W33560   2.745  37.865   3.831
65231W        W33561   2.768  24.610   4.717
65232W        W33562   4.315   5.276   4.173
65233W        W33563  18.159  26.078  13.000
65234W        W33564  43.797  36.015   1.364
65235W        W33565  11.135  35.396  14.931
65236W        W33566  38.534  38.569   0.954
65237W        W33567   1.395  39.529  12.529
65238W        W33568  18.576  36.361   1.734
65239W        W33569  28.539  11.203   4.114
65240W        W33570  10.222  22.568  14.439
65241W        W33571  31.497  39.362   2.734
65242W        W33572  37.888  40.854  10.548
65243W        W33573  43.791  25.108   2.260
65244W        W33574  37.971  22.596  12.436
65245W        W33575  28.128  11.224  12.019
65246W        W33576  13.723  42.919  12.526
65247W        W33577  32.534  33.477   3.643
65248W        W33578  26.582  16.178   4.607
65249W        W33579  40.406   3.394  13.842
65250W        W33580  44.300  31.595   3.293
65251W        W33581  24.491  34.983  12.504
65252W        W33582  41.875   3.236  10.602
65253W        W33583   5.419  10.328   0.804
65254W        W33584  13.211  19.043   4.128
65255W        W33585  33.986  43.766   3.239
65256W        W33586  11.343  42.000   0.832
65257W        W33587  34.558  31.519  14.906
65258W        W33588  26.093  24.614   3.662
65259W        W33589   6.313  29.531  11.384
65260W        W33590   8.729  37.026   0.844
65261W        W33591  10.270  43.972   0.959
65262W        W33592   2.937   7.696   2.838
65263W        W33593   9.298   2.307   2.852
65264W        W33594  19.739  38.491   2.815
65265W        W33595  10.656  21.511   2.364
65266W        W33596   9.851   1.296  13.016
65267W        W33597   3.907  32.575   1.881
65268W        W33598  30.455  19.742   4.718
65269W        W33599  41.343   2.957  13.907
65270W        W33600  36.992  29.956  13.018
65271W        W33601  10.150   5.763   0.799
65272W        W33602   7.829   4.246  12.513
65273W        W33603  11.305  40.804   1.226
65274W        W33604   3.954  14.192  13.365
65275W        W33605  18.083  13.206  11.990
65276W        W33606  20.578  16.704   0.462
65277W        W33607  27.134  10.347  14.287
65278W        W33608   6.288   9.700   1.383
65279W        W33609  20.074  41.484   4.120
65280W        W33610   6.370  31.637   4.145
65281W        W33611   1.264  26.959   2.767
65282W        W33612  41.012  22.568   2.861
65283W        W33613  16.125  11.234   2.415
65284W        W33614  38.493  39.824  12.013
65285W        W33615  39.538  26.180   1.379
65286W        W33616  16.223  15.611   4.636
65287W        W33617   3.273   7.746  12.005
65288W        W33618  29.483  11.349  14.352
65289W        W33619  34.991   4.843  13.975
65290W        W33620  19.256  32.969  11.868
65291W        W33621  15.234  30.573  10.562
65292W        W33622  31.531   2.337  11.086
65293W        W33623  11.859   2.923   3.253
65294W        W33624   2.794  39.872   3.355
65295W        W33625  40.429  44.285  12.377
65296W        W33626  29.076  21.722  12.976
65297W        W33627  14.724  24.570   3.633
65298W        W33628   2.967  41.857  14.413
65299W        W33629  27.523  42.285  13.997
65300W        W33630   8.671   4.291  12.893
65301W        W33631  33.000  12.258  12.451
65302W        W33632  34.038  18.614  11.423
65303W        W33633  36.867  43.419   0.243
65304W        W33634  40.478   1.857   3.775
65305W        W33635  29.560  37.976  13.539
65306W        W33636  22.720  41.869  14.413
65307W        W33637  19.584  21.249   3.257
65308W        W33638   6.781   0.318  12.498
65309W        W33639  29.046  23.223   1.718
65310W        W33640   0.928  41.959  10.629
65311W        W33641  25.486  13.791   2.338
65312W        W33642  41.921  35.092  12.995
65313W        W33643   7.268  12.357  14.899
65314W        W33644  44.854  24.621   2.714
65315W        W33645  11.259  24.067  11.003
65316W        W33646  42.340  34.574  13.884
65317W        W33647   2.453  38.997  14.966
65318W        W33648   9.212  20.550  14.955
65319W        W33649  12.625   3.761   4.695
65320W        W33650  28.588  29.610  14.917
65321W        W33651  43.483  41.818   0.775
65322W        W33652  24.033  17.270  12.363
65323W        W33653  38.017  24.160  13.839
65324W        W33654  29.596  32.421  14.486
65325W        W33655  20.675  43.497  10.618
65326W        W33656  19.208   8.254  13.421
65327W        W33657  18.733  37.990  14.854
65328W        W33658   3.287  39.012  11.467
65329W        W33659  11.695  33.594  11.911
65330W        W33660  28.032  38.946  12.880
65331W        W33661  10.819  37.564   3.387
65332W        W33662  14.786  39.425   2.836
65333W        W33663  24.674  39.865  14.290
65334W        W33664   5.264   3.829   1.884
65335W        W33665  40.455  27.502  11.560
65336W        W33666  35.361  31.502  13.803
65337W        W33667   4.401   4.399   3.708
65338W        W33668  41.019  44.760  10.499
65339W        W33669  24.701  27.063  13.310
65340W        W33670  13.228  37.438   9.950
65341W        W33671  36.937  39.932  12.555
65342W        W33672  38.449  42.835   3.684
65343W        W33673   2.958  19.586  11.899
65344W        W33674  35.595  22.225  13.023
65345W        W33675   8.342   0.819  13.369
65346W        W33676   3.369  26.684  10.546
65347W        W33677  11.685  10.177  13.885
65348W        W33678  29.107  26.032   0.739
65349W        W33679  44.975  30.420   0.778
65350W        W33680  41.356  11.366  12.563
65351W        W33681  28.976  33.080   3.815
65352W        W33682   8.717   4.735  11.982
65353W        W33683   7.387  40.992  10.642
65354W        W33684  32.925  21.213  11.915
65355W        W33685   4.246  34.036  11.892
65356W        W33686  23.498   9.336  12.016
65357W        W33687   9.711  19.049  11.949
65358W        W33688   9.673   7.724   0.318
65359W        W33689   9.155  15.748  14.794
65360W        W33690  12.713  23.706   3.205
65361W        W33691   0.844  20.649   2.859
65362W        W33692  23.990  16.143   1.401
65363W        W33693   8.298  18.152   0.243
65364W        W33694  39.446  28.541  14.891
65365W        W33695  21.251  32.616   3.323
65366W        W33696  16.316  20.538  11.448
65367W        W33697   9.170   9.168   1.765
65368W        W33698   4.790  10.294  11.901
65369W        W33699  39.507  26.134  14.866
65370W        W33700  37.428  44.423  14.360
65371W        W33701  11.242  44.857  10.920
65372W        W33702  11.825  33.542  11.387
65373W        W33703  30.480   6.831   4.282
65374W        W33704  33.612  42.928   2.241
65375W        W33705  40.500  30.039   1.877
65376W        W33706  36.593  24.521  10.452
65377W        W33707  33.476  40.045   1.435
65378W        W33708   2.752  21.052  10.560
65379W        W33709   0.835  27.051   0.472
65380W        W33710  28.558  12.301  10.076
65381W        W33711   9.753  25.579  11.592
65382W        W33712  33.000  11.326   3.839
65383W        W33713  41.912  22.503  13.433
65384W        W33714   8.216  30.971  14.457
65385W        W33715  15.806  41.537  12.500
65386W        W33716  36.521   4.416   3.862
65387W        W33717  18.660  12.338   4.700
65388W        W33718  28.044  37.974   4.179
65389W        W33719  21.147  22.224  14.001
65390W        W33720  33.600  10.201  10.006
65391W        W33721  38.827  30.654  13.488
65392W        W33722  10.197  28.441  13.806
65393W        W33723  43.493   2.253   1.839
65394W        W33724  41.860  35.571   2.789
65395W        W33725  12.140  15.110   1.405
65396W        W33726  42.468  18.068  12.572
65397W        W33727  43.489  42.400   2.278
65398W        W33728  13.646  24.531  12.882
65399W        W33729  17.147  22.068   3.195
65400W        W33730  17.119   6.217   1.364
65401W        W33731  26.618  43.372   5.254
65402W        W33732   2.880  29.099   3.650
65403W        W33733  13.743  23.021  11.610
65404W        W33734  11.359  25.608  11.579
65405W        W33735   2.368  30.106   4.169
65406W        W33736   6.896   8.682  11.449
65407W        W33737  26.046  19.647   1.360
65408W        W33738  24.102  10.383   3.235
65409W        W33739  20.547  34.879   3.298
65410W        W33740  41.342  39.898  11.479
65411W        W33741   6.921  26.042   3.632
65412W        W33742  14.793  21.161  10.639
65413W        W33743  19.729   5.694  14.958
65414W        W33744   2.279  42.350   0.955
65415W        W33745  41.347  40.317  10.430
65416W        W33746  34.511  28.608  10.438
65417W        W33747   5.391  19.690   4.744
65418W        W33748  12.307   0.462  12.987
65419W        W33749  42.398  14.273  11.490
65420W        W33750  20.067  25.151  14.947
65421W        W33751  32.058  16.108  12.839
65422W        W33752   3.932  10.363   1.837
65423W        W33753  30.099  10.726  14.850
65424W        W33754  39.548  20.088  13.905
65425W        W33755   7.405  29.463   3.162
65426W        W33756  14.284  32.912   4.213
65427W        W33757  43.444   5.279  14.889
65428W        W33758  24.093   3.747  12.509
65429W        W33759  18.686  12.633   2.785
65430W        W33760  34.432  13.612   2.880
65431W        W33761  16.306  19.743  14.315
65432W        W33762  44.323  39.980   0.882
65433W        W33763   6.677  18.175   1.358
65434W        W33764   8.826   8.322  11.081
65435W        W33765  42.339   7.676  14.902
65436W        W33766   9.649  25.060  11.978
65437W        W33767  13.170   5.394   2.865
65438W        W33768  23.576  35.465  14.347
65439W        W33769  43.291   4.728   2.666
65440W        W33770  10.356  44.812  10.610
65441W        W33771  39.560  43.406  11.451
65442W        W33772   7.408  16.694   1.717
65443W        W33773  33.514  30.074   2.187
65444W        W33774  23.673   9.764   0.355
65445W        W33775  28.454  38.497  10.966
65446W        W33776   4.426  35.517  14.952
65447W        W33777  27.548  28.488   1.858
65448W        W33778  31.429   0.333  11.396
65449W        W33779  22.600  42.897   2.886
65450W        W33780  29.050  40.830   4.639
65451W        W33781  29.623  27.121   4.254
65452W        W33782  11.216  31.613   2.811
65453W        W33783  20.037  32.938  10.542
65454W        W33784  15.122  12.133  12.568
65455W        W33785   6.687  15.236  12.019
65456W        W33786  17.246  11.365   3.316
65457W        W33787  15.638  24.104   4.325
65458W        W33788   6.223  19.731  11.114
65459W        W33789  11.140  23.508   0.478
65460W        W33790  31.905   7.696  14.775
65461W        W33791  14.591  24.632  14.884
65462W        W33792  28.494  42.984   2.734
65463W        W33793  36.020   7.200  13.881
65464W        W33794  37.987  12.814  10.920
65465W        W33795  11.323  22.554  10.585
65466W        W33796  14.797  37.039   5.184
65467W        W33797   0.933  18.133   0.355
65468W        W33798  27.971  22.052   0.351
65469W        W33799  40.891  41.391  14.459
65470W        W33800  29.497  21.708   2.726
65471W        W33801   9.379  18.564  14.029
65472W        W33802  15.129   1.883   1.794
65473W        W33803  14.188   5.699  11.124
65474W        W33804   6.192  23.711   4.319
65475W        W33805   7.266  38.051   0.798
65476W        W33806  40.474  43.817  13.519
65477W        W33807  34.420  37.528   4.780
65478W        W33808  44.848   6.834   0.457
65479W        W33809  20.219  24.653   0.857
65480W        W33810  31.573  12.334   3.688
65481W        W33811  12.129  44.971   1.907
65482W        W33812   3.366   5.858  10.119
65483W        W33813  21.706  44.497   3.649
65484W        W33814  41.916  27.505   4.810
65485W        W33815  31.647   5.211   3.851
65486W        W33816  25.183  33.943   0.324
65487W        W33817  35.053  19.684   3.705
65488W        W33818  30.636  14.291  11.003
65489W        W33819  24.148   7.749  11.882
65490W        W33820   3.947   1.268   1.914
65491W        W33821  39.879  20.120   4.675
65492W        W33822  17.673  36.036  13.952
65493W        W33823  21.211  16.684  14.494
65494W        W33824  33.584  33.442   4.213
65495W        W33825   4.856  38.478   3.688
65496W        W33826   8.719  27.969  12.391
65497W        W33827  35.412   7.713  14.305
65498W        W33828  40.004  13.201  13.314
65499W        W33829  30.018   2.293   0.764
65500W        W33830  29.626  30.918   2.301
65501W        W33831  28.521  41.351  12.049
65502W        W33832   9.291  44.457   3.180
65503W        W33833  18.069  16.580  12.016
65504W        W33834   2.755  37.065   1.311
65505W        W33835   8.691   4.318  14.806
65506W        W33836  34.412  44.467   3.719
65507W        W33837  20.229  17.217   5.597
65508W        W33838   4.918  25.143   1.912
65509W        W33839  29.601   9.837  10.934
65510W        W33840  35.888  35.970  10.438
65511W        W33841  15.782  29.524  10.452
65512W        W33842  27.043  17.765   4.620
65513W        W33843  12.681  34.390   0.899
65514W        W33844  32.569  40.537  11.467
65515W        W33845  21.086  12.843  13.325
65516W        W33846   4.272  30.084  13.998
65517W        W33847  28.129  28.042  14.501
65518W        W33848  32.432  13.153   4.159
65519W        W33849  41.028   4.820  13.320
65520W        W33850   4.394   5.421  14.796
65521W        W33851   2.962  36.447   9.943
65522W        W33852   9.293  38.549  11.021
65523W        W33853  39.891  25.984  14.475
65524W        W33854   0.824  39.066  12.343
65525W        W33855   1.419  33.976  11.500
65526W        W33856   3.450   5.777  11.587
65527W        W33857  23.503  32.894   4.234
65528W        W33858  24.541  25.699   3.236
65529W        W33859   3.872  44.936  13.945
65530W        W33860  21.523  33.112   2.225
65531W        W33861  40.051   8.382   2.248
65532W        W33862  39.869   3.778   0.305
65533W        W33863  34.381   3.804   4.159
65534W        W33864  27.189  12.360   4.797
65535W        W33865   7.733  10.370  14.440
65536W        W33866   5.827  17.726  13.984
65537W        W33867  27.521   2.309  13.044
65538W        W33868  33.599  13.835  14.291
65539W        W33869  28.633  16.268  14.406
65540W        W33870  23.014  38.506   0.847
65541W        W33871  10.297  39.989   1.367
65542W        W33872  31.410  35.920  11.581
65543W        W33873  18.752   9.255   4.711
65544W        W33874   4.777   7.716  10.456
65545W        W33875  13.740  39.967  14.460
65546W        W33876   9.643  19.155   4.736
65547W        W33877  16.219  20.711  11.022
65548W        W33878  38.417  19.681   0.388
65549W        W33879  18.155  43.773   3.755
65550W        W33880  17.685  21.652   3.654
65551W        W33881   6.250  23.595   1.695
65552W        W33882  34.595  43.467  11.065
65553W        W33883  42.010  36.441   2.395
65554W        W33884   2.406  18.597  14.994
65555W        W33885  38.963  15.216   0.802
65556W        W33886  25.568  42.981   1.920
65557W        W33887  39.826  44.274   3.718
65558W        W33888   9.733  42.913   3.150
65559W        W33889  22.555   8.375  10.606
65560W        W33890  16.631  15.221  14.958
65561W        W33891  41.875  14.619   2.246
65562W        W33892   4.929  12.240  14.446
65563W        W33893  10.705  31.140   3.252
65564W        W33894  26.023  19.157   0.372
65565W        W33895   2.843  34.467  14.948
65566W        W33896  32.541  35.446   2.761
65567W        W33897  31.513  22.587   3.363
65568W        W33898  10.753  15.115   0.445
65569W        W33899   0.468  24.685   3.704
65570W        W33900  18.603  16.721  14.858
65571W        W33901  28.595  39.824  14.785
65572W        W33902  14.157  42.300   1.738
65573W        W33903  28.453  41.833  10.580
65574W        W33904  30.605  27.073  11.587
65575W        W33905  26.983  22.701   4.611
65576W        W33906  22.206  44.906  14.443
65577W        W33907  32.620  25.655   3.171
65578W        W33908  23.012  26.044   4.682
65579W        W33909  20.532   9.329  12.002
65580W        W33910   1.885  24.176   1.299
65581W        W33911  20.596  44.009   2.368
65582W        W33912   5.324  35.512   2.271
65583W        W33913  13.837  10.832   3.341
65584W        W33914   0.292  37.529  12.427
65585W        W33915   0.394  11.236   4.351
65586W        W33916  32.412  33.063  11.547
65587W        W33917  25.693  28.039  12.927
65588W        W33918  30.033  14.249   2.784
65589W        W33919   7.293  29.460   1.880
65590W        W33920  10.219  40.510  14.804
65591W        W33921  26.953   5.371   3.630
65592W        W33922  26.548  16.293   2.412
65593W        W33923  41.999  29.644   2.397
65594W        W33924   0.766  33.902  12.945
65595W        W33925  11.769  43.375  11.966
65596W        W33926  24.113  22.693  14.916
65597W        W33927  13.290  30.106   0.938
65598W        W33928  11.691  32.598  12.436
65599W        W33929   5.849  26.483   3.720
65600W        W33930  24.514  16.757  12.832
65601W        W33931  23.526  37.491  13.524
65602W        W33932  17.613  35.514  12.392
65603W        W33933  35.445  21.649   0.748
65604W        W33934  13.184  44.332  11.977
65605W        W33935  20.730  40.470  12.513
65606W        W33936  18.629  39.844   0.339
65607W        W33937  34.014   7.722  14.782
65608W        W33938  25.589  33.081   0.807
65609W        W33939  40.428  36.095  10.629
65610W        W33940  35.098  34.501  10.943
65611W        W33941   3.723   0.859   0.246
65612W        W33942   3.862   2.359  12.027
65613W        W33943  42.440   4.713   2.755
65614W        W33944  27.647   7.345  11.427
65615W        W33945  37.369  28.453   3.640
65616W        W33946  17.753  41.008   4.255
65617W        W33947  20.758  39.051   0.786
65618W        W33948  12.314  25.111   3.675
65619W        W33949  11.798  35.918  10.892
65620W        W33950  35.027  38.358   4.340
65621W        W33951  12.808  19.149  10.612
65622W        W33952  29.995   1.238  12.416
65623W        W33953  17.202  23.225   4.660
65624W        W33954   1.953  43.765   2.820
65625W        W33955  28.128  20.698   2.790
65626W        W33956   3.906   0.351   2.254
65627W        W33957  26.553  33.938   2.860
65628W        W33958  30.506  18.751   3.834
65629W        W33959  12.277  36.945   1.261
65630W        W33960  44.444   7.837   0.735
65631W        W33961  28.644   3.823   1.737
65632W        W33962  44.888  32.529  11.086
65633W        W33963  22.175   3.750  14.871
65634W        W33964   8.269  16.136  14.894
65635W        W33965  36.592  11.679   1.433
65636W        W33966   2.810  13.757   3.265
65637W        W33967   2.302  41.405  14.481
65638W        W33968   9.215   1.736  10.043
65639W        W33969  38.436  34.913  12.994
65640W        W33970  17.616  27.449  14.352
65641W        W33971  44.933  16.297   1.443
65642W        W33972  18.263  24.144  10.614
65643W        W33973  17.209   3.261  12.901
65644W        W33974  17.671  25.522  12.358
65645W        W33975  38.961  29.944   4.633
65646W        W33976   2.392  13.696  11.009
65647W        W33977   0.405  20.549  12.442
65648W        W33978  37.498  30.628   0.934
65649W        W33979  40.878  34.115  11.509
65650W        W33980  39.380   9.815   3.810
65651W        W33981  25.689  12.663   0.243
65652W        W33982  39.390  31.607  10.619
65653W        W33983  37.905  22.670  14.337
65654W        W33984  11.783   5.421   4.714
65655W        W33985  19.557  24.021   2.771
65656W        W33986  20.033  26.091   4.616
65657W        W33987   8.835  35.856  14.938
65658W        W33988  18.553  31.031   2.739
65659W        W33989  10.313  33.500  14.845
65660W        W33990  19.188  36.072  14.771
65661W        W33991  27.189  21.701  13.796
65662W        W33992  24.584  26.647  12.499
65663W        W33993  24.017  15.678   2.807
65664W        W33994  16.139  23.692  12.064
65665W        W33995  11.633   2.262   4.261
65666W        W33996  18.757  44.870  13.001
65667W        W33997  42.315  11.866   1.717
65668W        W33998  24.510  16.740   3.355
65669W        W33999  38.396  33.603   4.759
65670W        W34000  14.303  26.696  13.337
65671W        W34001  10.858  13.224  13.414
65672W        W34002  21.716  33.032  14.763
65673W        W34003  44.757   0.310  11.935
65674W        W34004   7.861  12.708   4.311
65675W        W34005  34.939  28.610  13.872
65676W        W34006  26.198  40.306  12.882
65677W        W34007  31.436  27.943  14.491
65678W        W34008   4.928  34.550   4.161
65679W        W34009  17.297  34.592   0.838
65680W        W34010  13.144   3.751   4.728
65681W        W34011   2.389   6.305   3.856
65682W        W34012  38.872  44.445   0.799
65683W        W34013  29.068  35.538  10.584
65684W        W34014  24.542  16.768   3.845
65685W        W34015   5.816  44.874  14.863
65686W        W34016  31.032  33.413  13.430
65687W        W34017  19.756   9.346   1.745
65688W        W34018   5.802   8.800  11.489
65689W        W34019  26.018  34.426   3.629
65690W        W34020  13.139  20.527  10.551
65691W        W34021  29.040   1.812  12.902
65692W        W34022  17.124  15.120  10.534
65693W        W34023  43.380   7.812  10.925
65694W        W34024  13.125  18.683   1.907
65695W        W34025   0.332  23.563  11.406
65696W        W34026  12.257  17.609  12.427
65697W        W34027  42.457  31.142  12.463
65698W        W34028  21.156  26.511  14.786
65699W        W34029   6.195  25.567   3.225
65700W        W34030   9.838  19.634   1.897
65701W        W34031  20.207   2.766   4.715
65702W        W34032   5.890  13.330   1.835
65703W        W34033  39.047  32.460  11.992
65704W        W34034  28.148   3.416   0.835
65705W        W34035  26.458  14.286   0.869
65706W        W34036  12.695  32.994  11.999
65707W        W34037  37.944  36.385  12.372
65708W        W34038  23.587  39.333  12.869
65709W        W34039  12.134  38.423   0.917
65710W        W34040  40.800  43.417  11.099
65711W        W34041  39.960  22.022  14.353
65712W        W34042  31.949  39.924   2.872
65713W        W34043  12.251  12.282   0.469
65714W        W34044  29.625   1.261  10.929
65715W        W34045   0.362  27.016  13.431
65716W        W34046  21.032  42.911  14.957
65717W        W34047  28.660  10.846   9.627
65718W        W34048  15.289  18.546  12.456
65719W        W34049  17.085   5.365  11.944
65720W        W34050   3.856  22.573  12.397
65721W        W34051  25.559  19.581   5.258
65722W        W34052  36.868  33.516   2.859
65723W        W34053   5.701  27.956  13.438
65724W        W34054  21.578  39.998   3.657
65725W        W34055  42.009  16.298  10.545
65726W        W34056  34.883  11.739   1.400
65727W        W34057  43.306  41.900  14.802
65728W        W34058  16.676  40.375   1.399
65729W        W34059  11.803   6.694  14.365
65730W        W34060   1.736  29.570   2.289
65731W        W34061   4.326   1.834   2.744
65732W        W34062  20.088  20.700  14.892
65733W        W34063  25.467  38.008   2.350
65734W        W34064  43.446  36.990   2.709
65735W        W34065   5.920   4.932  14.404
65736W        W34066  13.741  43.867  12.578
65737W        W34067   1.930  32.549  14.334
65738W        W34068   5.208  15.789  10.026
65739W        W34069   9.299  12.847   0.311
65740W        W34070  18.242  35.963   0.347
65741W        W34071  38.847   9.772  10.558
65742W        W34072  10.228  27.026  13.019
65743W        W34073  14.256  25.214   4.643
65744W        W34074  24.667  30.118   0.370
65745W        W34075  25.993  42.863   4.790
65746W        W34076  34.076  42.925  10.144
65747W        W34077  13.298   1.469  13.470
65748W        W34078  31.923  14.247   3.340
65749W        W34079   0.744  33.379  13.841
65750W        W34080  13.638   9.149  12.833
65751W        W34081  25.985  42.965  10.609
65752W        W34082   7.315   5.905   3.386
65753W        W34083  40.434  16.270  11.869
65754W        W34084  25.972  26.045  12.096
65755W        W34085  19.714  17.697  10.107
65756W        W34086   7.814  22.553  13.335
65757W        W34087  29.502  34.914  11.924
65758W        W34088  24.201   0.445  13.505
65759W        W34089  44.493   4.886   4.687
65760W        W34090  24.077  24.177  13.874
65761W        W34091  40.977   8.372   4.224
65762W        W34092  27.944  34.022   3.245
65763W        W34093  32.955  33.878   1.734
65764W        W34094  29.933  23.516   2.756
65765W        W34095  11.712  28.144   4.661
65766W        W34096   5.690   4.792  12.559
65767W        W34097  37.832  32.615   0.378
65768W        W34098  42.999  36.968  12.932
65769W        W34099  35.088   2.739   2.196
65770W        W34100  37.988  36.387   3.706
65771W        W34101  28.975  41.314   3.656
65772W        W34102   9.672  14.634  14.480
65773W        W34103  19.729  10.855  14.928
65774W        W34104  16.137   3.290  14.480
65775W        W34105  38.927  44.390   1.781
65776W        W34106  37.419  38.554   0.898
65777W        W34107   4.815  14.615   4.317
65778W        W34108   1.731  30.439   2.732
65779W        W34109  29.545  24.086   3.209
65780W        W34110   9.681   1.434   1.899
65781W        W34111  44.969  26.584   3.237
65782W        W34112  36.874  44.355  13.523
65783W        W34113  27.548  42.360  12.995
65784W        W34114  44.326  19.206   0.832
65785W        W34115  18.786   7.264   0.339
65786W        W34116  26.118  30.022   3.236
65787W        W34117  13.808  44.306   0.858
65788W        W34118  35.432  20.074  12.429
65789W        W34119  41.837  40.049  10.532
65790W        W34120  34.050   4.398  13.474
65791W        W34121   5.201  27.040  12.946
65792W        W34122  21.514  35.072   2.830
65793W        W34123   5.827  42.527  13.930
65794W        W34124  42.378  19.080  10.598
65795W        W34125   1.954  20.226  11.450
65796W        W34126  38.501  44.958   3.358
65797W        W34127  33.603  23.678  11.478
65798W        W34128   1.295  15.252  13.960
65799W        W34129   4.387  32.542   0.458
65800W        W34130  37.878   1.313   1.849
65801W        W34131   6.421   7.283   1.212
65802W        W34132  15.288  38.841   2.316
65803W        W34133  37.836  17.099  10.459
65804W        W34134  44.471  28.645   5.218
65805W        W34135  19.562  41.316   2.293
65806W        W34136  25.701  27.569  11.866
65807W        W34137  34.053  32.018  14.900
65808W        W34138  40.857  42.857  14.874
65809W        W34139  28.153  36.380  14.476
65810W        W34140  42.390  44.764  11.947
65811W        W34141   8.371  33.107  10.441
65812W        W34142   9.768  18.160   3.367
65813W        W34143   7.726  13.709  13.856
65814W        W34144  30.969  32.461   3.351
65815W        W34145  44.828   3.457   3.750
65816W        W34146   2.956  24.556   1.751
65817W        W34147   0.934  11.634   2.831
65818W        W34148  25.615   4.916   3.836
65819W        W34149  37.337   0.261   0.736
65820W        W34150  32.945  39.865   1.380
65821W        W34151  13.802   2.853   1.228
65822W        W34152  27.104  10.336   0.422
65823W        W34153  41.449   2.860   2.837
65824W        W34154  22.663  11.347   4.777
65825W        W34155  34.072  29.954   0.937
65826W        W34156  41.292  38.031   3.221
65827W        W34157  26.604  10.742   4.317
65828W        W34158   8.793  31.912  14.408
65829W        W34159  41.492  33.986  13.865
65830W        W34160  38.839  12.314  12.423
65831W        W34161  44.428  23.232  11.872
65832W        W34162  20.220  33.388  11.412
65833W        W34163  16.782  34.064  13.311
65834W        W34164  40.317  11.187  13.418
65835W        W34165  32.469  16.568  12.841
65836W        W34166   6.817  41.017  10.962
65837W        W34167  30.514  41.526   4.239
65838W        W34168  37.864  26.970  11.381
65839W        W34169  10.156   2.741  12.851
65840W        W34170  42.454  31.412   4.161
65841W        W34171  31.119   4.360  12.393
65842W        W34172  38.074  21.603   1.708
65843W        W34173  43.001  30.011  10.904
65844W        W34174  30.099  25.588   0.804
65845W        W34175   4.878  14.736   0.482
65846W        W34176   7.892   6.291  10.925
65847W        W34177  10.146  35.427  11.522
65848W        W34178  44.448  28.445   2.728
65849W        W34179  27.648   8.784  10.951
65850W        W34180   8.765  14.225  10.557
65851W        W34181  15.297  19.244   4.154
65852W        W34182  38.423  39.396  14.804
65853W        W34183   0.340  19.069   1.359
65854W        W34184  42.794  20.734  12.970
65855W        W34185  30.928  15.245  11.577
65856W        W34186  43.349  19.658   3.238
65857W        W34187   5.243  30.517   3.190
65858W        W34188  37.037   6.728   4.277
65859W        W34189  43.393  43.962   4.780
65860W        W34190  18.614  25.133  12.052
65861W        W34191  27.001  19.116  11.416
65862W        W34192  28.964  14.683  14.408
65863W        W34193  19.669  36.883   4.326
65864W        W34194  24.548  12.723  11.020
65865W        W34195  16.234  23.027   3.378
65866W        W34196  27.189  10.168   9.571
65867W        W34197  14.818  31.112  12.096
65868W        W34198  34.889  44.814   3.765
65869W        W34199  44.966   9.816   0.267
65870W        W34200  30.082  31.135  11.975
65871W        W34201   6.680  25.514   1.291
65872W        W34202  20.039  28.972   1.836
65873W        W34203   6.407  14.258  13.464
65874W        W34204  10.860  14.803   0.913
65875W        W34205  41.385  44.941  12.027
65876W        W34206  35.518  38.411   1.921
65877W        W34207  33.493  40.541  13.020
65878W        W34208  23.600   4.819   0.866
65879W        W34209  16.195  34.467   3.750
65880W        W34210  14.783   9.199   1.304
65881W        W34211   7.412  19.621  10.446
65882W        W34212  12.234   2.801  11.974
65883W        W34213  34.591  24.681  10.505
65884W        W34214  28.474   2.240  14.931
65885W        W34215  35.430  17.110   2.392
65886W        W34216  38.353  16.300  11.960
65887W        W34217  28.632  34.117  13.051
65888W        W34218  17.677  10.151   0.742
65889W        W34219  38.365  43.002  10.493
65890W        W34220  34.111  27.678  14.842
65891W        W34221  17.629   3.726  12.964
65892W        W34222  19.245  13.827   0.278
65893W        W34223  38.538   1.365  13.489
65894W        W34224  11.818  32.031   3.306
65895W        W34225  24.986  22.604  10.607
65896W        W34226  21.077  39.918  14.282
65897W        W34227  24.693  23.633   0.309
65898W        W34228  20.123  37.920   3.698
65899W        W34229  44.976  26.577   0.873
65900W        W34230  31.472   7.665   4.189
65901W        W34231  41.914  35.561  14.875
65902W        W34232   8.359  44.378  11.406
65903W        W34233   6.224  38.467   2.400
65904W        W34234  14.592  42.315   4.133
65905W        W34235   4.792  30.647  12.060
65906W        W34236   8.356   6.906   4.223
65907W        W34237  16.240  24.036   0.252
65908W        W34238  15.254  12.702  12.431
65909W        W34239  40.052  39.979  14.895
65910W        W34240  42.805  34.501  10.933
65911W        W34241  26.456   3.269  10.560
65912W        W34242  24.657  15.099  14.818
65913W        W34243   1.435  37.940   0.899
65914W        W34244  19.636   5.282   0.847
65915W        W34245  30.053  37.464  10.603
65916W        W34246   6.333  35.968  14.477
65917W        W34247   0.365  27.182  12.541
65918W        W34248  10.845  20.564  11.045
65919W        W34249  32.985  19.595   1.777
65920W        W34250  17.183   1.309   4.292
65921W        W34251  44.399  12.744   1.406
65922W        W34252   8.684   0.921  12.473
65923W        W34253  32.948   6.762   4.716
65924W        W34254  34.932  17.300  12.914
65925W        W34255  33.887  20.635  14.861
65926W        W34256  41.293  31.436   1.933
65927W        W34257  35.955   9.241   3.840
65928W        W34258  42.893  10.657   4.350
65929W        W34259   8.402   2.296  13.965
65930W        W34260  12.190  22.108   0.749
65931W        W34261   9.360  12.241   4.649
65932W        W34262  16.706   2.448   3.635
65933W        W34263  19.168   9.825  11.595
65934W        W34264  26.055  12.310   4.818
65935W        W34265  23.066   7.199  14.282
65936W        W34266  34.472   5.775   1.875
65937W        W34267  19.099  12.802  11.858
65938W        W34268  28.472   7.801   1.850
65939W        W34269  42.979   2.948  12.086
65940W        W34270   2.239  30.490  12.881
65941W        W34271  43.303  19.123  14.770
65942W        W34272   1.961  17.063   4.270
65943W        W34273  14.780  12.749   0.415
65944W        W34274  31.501   5.293  14.848
65945W        W34275  41.323  37.911   4.693
65946W        W34276  22.553  39.939  12.938
65947W        W34277  11.262  34.936   4.751
65948W        W34278  20.549  29.136  11.055
65949W        W34279  34.508   7.393  11.593
65950W        W34280   2.878  38.529  14.338
65951W        W34281  36.586  42.963  11.035
65952W        W34282   3.334   9.863  11.437
65953W        W34283  14.699  10.659  13.336
65954W        W34284  18.142  13.314  14.919
65955W        W34285  34.904   9.367  11.462
65956W        W34286   4.426   0.857  14.370
65957W        W34287  31.614  33.433   3.671
65958W        W34288  34.024  30.444  14.343
65959W        W34289  15.244  37.409   2.337
65960W        W34290  13.344   2.958  13.398
65961W        W34291  21.724  12.734   4.750
65962W        W34292   6.346   8.241   0.806
65963W        W34293  14.282  36.507   0.740
65964W        W34294  15.100  44.846  14.488
65965W        W34295  39.811  31.897   9.944
65966W        W34296  14.729   9.229  14.784
65967W        W34297  15.116  30.972  10.424
65968W        W34298  31.917  41.302  14.979
65969W        W34299  40.326  39.962   4.663
65970W        W34300  23.186  30.514   4.260
65971W        W34301  30.988  26.077  12.421
65972W        W34302  12.752   8.803   3.191
65973W        W34303  10.294  29.162  11.956
65974W        W34304  25.663   1.347  14.917
65975W        W34305  17.248  36.443   1.273
65976W        W34306  14.670  34.610   5.179
65977W        W34307  27.954  19.214   4.680
65978W        W34308   2.922   9.887   3.686
65979W        W34309   7.718  39.976  10.911
65980W        W34310  28.569  42.839   3.260
65981W        W34311  43.295  33.477  12.980
65982W        W34312  12.344  37.012   0.899
65983W        W34313  12.712   9.682  14.367
65984W        W34314  17.560   6.895  13.544
65985W        W34315   5.332  37.980   4.764
65986W        W34316  28.594  41.374   3.681
65987W        W34317  25.698  39.450   0.766
65988W        W34318   7.212  33.973   1.229
65989W        W34319  27.642  20.724  14.434
65990W        W34320  15.587  42.939  13.425
65991W        W34321  41.858  10.784  13.326
65992W        W34322  35.535  27.013  11.043
65993W        W34323  12.629  23.583  10.946
65994W        W34324  40.463   5.925  11.903
65995W        W34325  44.958  41.503  13.381
65996W        W34326   3.781  26.202  12.057
65997W        W34327  20.206   5.379  12.913
65998W        W34328   6.425   7.886  12.038
65999W        W34329   8.235  23.660   0.324
66000W        W34330  41.536  39.812  11.031
66001W        W34331  29.581   0.486   2.226
66002W        W34332  39.468  10.297  11.070
66003W        W34333  22.569  43.333  13.935
66004W        W34334   0.399  11.670   1.277
66005W        W34335  28.047  35.587   0.277
66006W        W34336  27.491  38.968  11.562
66007W        W34337  29.043   2.932  13.429
66008W        W34338   7.186  13.702  13.959
66009W        W34339  26.187  28.664   4.754
66010W        W34340  40.900  18.616   4.256
66011W        W34341  14.303  21.165   5.204
66012W        W34342  20.661  25.031   1.332
66013W        W34343   4.888   4.795   1.247
66014W        W34344  31.636   6.902  12.023
66015W        W34345  16.567  23.053   4.178
66016W        W34346  22.534   6.914  13.916
66017W        W34347  30.563  16.269  13.866
66018W        W34348  10.697   8.233  10.543
66019W        W34349  25.069  37.466   4.330
66020W        W34350  12.178   4.913   4.310
66021W        W34351  25.572  19.726  14.412
66022W        W34352  11.183  33.392   0.302
66023W        W34353  37.524  41.008  14.346
66024W        W34354   8.390  30.932   4.805
66025W        W34355  36.025  25.145   3.724
66026W        W34356  20.087  34.029   4.653
66027W        W34357  35.946  41.802   4.714
66028W        W34358  35.004  22.135  14.378
66029W        W34359  34.444  10.757  10.523
66030W        W34360  28.439  11.308   3.159
66031W        W34361  28.166  31.084   3.725
66032W        W34362   4.830  24.642  14.851
66033W        W34363  42.436  27.534   0.477
66034W        W34364  30.930  35.957  11.536
66035W        W34365   1.738  27.070  13.412
66036W        W34366  40.942  33.495   2.387
66037W        W34367  17.711  10.639  10.421
66038W        W34368   2.289  24.480   0.763
66039W        W34369  29.957  44.838   3.380
66040W        W34370   9.346   3.356   0.380
66041W        W34371  17.786  13.191   0.410
66042W        W34372  38.889  16.737  12.978
66043W        W34373  31.939   9.181   2.862
66044W        W34374   7.904  39.546  11.099
66045W        W34375  27.535  43.919   2.334
66046W        W34376  34.516  22.505   1.754
66047W        W34377  31.600  13.168   0.814
66048W        W34378  21.596  25.711   2.395
66049W        W34379   1.369  44.335   1.300
66050W        W34380  43.834  29.567   4.639
66051W        W34381  27.460  12.183  11.396
66052W        W34382   0.795  22.502   4.728
66053W        W34383  24.573  29.646  13.868
66054W        W34384  15.759  36.591  14.423
66055W        W34385  13.746  18.171   1.268
66056W        W34386  21.640  43.948  14.971
66057W        W34387  25.061   6.915  11.595
66058W        W34388  38.534   7.200  13.904
66059W        W34389   6.878  29.073   4.230
66060W        W34390   0.260   7.317   1.226
66061W        W34391  27.682  25.525  10.590
66062W        W34392  43.464  39.349   4.800
66063W        W34393   1.868  24.082  13.329
66064W        W34394  22.105  23.702  11.947
66065W        W34395   3.891  35.497  13.886
66066W        W34396  24.679  22.562   1.725
66067W        W34397   3.419   1.476   2.693
66068W        W34398  25.090  31.104   0.872
66069W        W34399  26.085  32.088   0.857
66070W        W34400  41.506  16.254  10.923
66071W        W34401   0.914  22.564  12.486
66072W        W34402  20.701  15.597   1.777
66073W        W34403  21.549  34.121   0.325
66074W        W34404  42.882  20.065  14.941
66075W        W34405  26.464  17.596  13.041
66076W        W34406  32.392   2.418   3.182
66077W        W34407   5.766  38.016  12.861
66078W        W34408  38.997   2.759  12.048
66079W        W34409  30.080  27.989   3.284
66080W        W34410  29.039  42.402   4.332
66081W        W34411  32.033  26.185  12.061
66082W        W34412   8.402  12.661  12.419
66083W        W34413  42.898  27.691   0.262
66084W        W34414  18.151  22.563   3.772
66085W        W34415  29.128  36.354   0.331
66086W        W34416   8.348  16.209   2.390
66087W        W34417  40.985  20.271  12.956
66088W        W34418   6.369   7.877  10.965
66089W        W34419  11.330  16.156  14.505
66090W        W34420  19.178  21.566   0.392
66091W        W34421   1.731  31.914  11.519
66092W        W34422  28.065  24.181  13.975
66093W        W34423  43.425  40.951  10.948
66094W        W34424   0.387   7.180   1.898
66095W        W34425  24.536  28.534  10.468
66096W        W34426  32.121  42.519  11.382
66097W        W34427  24.495  37.895  10.909
66098W        W34428  31.525  17.674   0.954
66099W        W34429  43.296   7.758  12.498
66100W        W34430  22.511  43.332  13.030
66101W        W34431  20.561   6.311   2.193
66102W        W34432  23.154   5.922   3.691
66103W        W34433   6.392  33.430   1.852
66104W        W34434  17.114  40.391   2.771
66105W        W34435   3.766  24.190   1.330
66106W        W34436  10.379  14.340  14.436
66107W        W34437  37.486  41.323  10.128
66108W        W34438   6.383  30.078  13.834
66109W        W34439  26.107  21.190   2.733
66110W        W34440  19.673  31.132  13.392
66111W        W34441  24.202  19.049   0.730
66112W        W34442  35.564  21.727  13.869
66113W        W34443  17.153  22.202  11.565
66114W        W34444  25.591  10.368  11.571
66115W        W34445  30.113  40.873  13.365
66116W        W34446  25.073   0.930   4.666
66117W        W34447  27.009  42.843  14.385
66118W        W34448  40.529  44.002  12.910
66119W        W34449  33.968  35.000  11.608
66120W        W34450  29.497  40.370   3.827
66121W        W34451  26.487  44.828  13.385
66122W        W34452  44.437   8.324   4.661
66123W        W34453  42.888   0.482  11.921
66124W        W34454   4.784  40.019   0.320
66125W        W34455   6.372  25.002   1.744
66126W        W34456   3.879  28.447  13.379
66127W        W34457  15.772  27.688  10.534
66128W        W34458   6.185  35.869  12.996
66129W        W34459  10.194  33.934   3.820
66130W        W34460  39.351  16.617   2.780
66131W        W34461  28.168  29.954  11.564
66132W        W34462  25.678   4.295   4.839
66133W        W34463  16.722  34.412  13.328
66134W        W34464  21.038  37.408  11.382
66135W        W34465   4.730  40.830   0.951
66136W        W34466   4.775  38.541  10.570
66137W        W34467  24.095  13.140   2.306
66138W        W34468   4.698  27.189   2.688
66139W        W34469  21.567   9.293   2.226
66140W        W34470  31.602   9.357   1.918
66141W        W34471  24.655  12.819   4.168
66142W        W34472  40.532  42.484   1.414
66143W        W34473  34.394  36.060  13.862
66144W        W34474  23.546  39.936  13.845
66145W        W34475  20.757  27.692   2.286
66146W        W34476  32.028   5.258   2.763
66147W        W34477  23.643   5.277   3.252
66148W        W34478  19.714  15.091  13.921
66149W        W34479  39.483   9.235   5.612
66150W        W34480  32.119  18.673  11.934
66151W        W34481  35.398   5.246   0.945
66152W        W34482   5.339  27.152   2.348
66153W        W34483  41.421  33.081   4.602
66154W        W34484  14.154   8.296   1.245
66155W        W34485   1.414  41.916  14.842
66156W        W34486  31.505  21.597   4.705
66157W        W34487  14.826  34.042   0.729
66158W        W34488  27.487   9.288   3.826
66159W        W34489   8.385  23.532  14.285
66160W        W34490  11.634  39.042   2.725
66161W        W34491  39.375  13.308   1.364
66162W        W34492  33.596  29.045   2.273
66163W        W34493   9.864  23.124  12.360
66164W        W34494  35.029  44.323  11.892
66165W        W34495  10.352   0.972  12.865
66166W        W34496   4.338  13.682  12.533
66167W        W34497  43.817  14.642   4.603
66168W        W34498  32.432  41.342  11.001
66169W        W34499  33.465  26.192   1.777
66170W        W34500  24.101  19.180   1.853
66171W        W34501  38.434  26.537   1.323
66172W        W34502  36.473   1.939   2.305
66173W        W34503  15.233  42.956   3.386
66174W        W34504  38.526  36.009   2.752
66175W        W34505  43.016  29.928  13.429
66176W        W34506  18.152  11.234   1.911
66177W        W34507  17.604  31.074  14.919
66178W        W34508  22.147  38.904  14.915
66179W        W34509  37.044  10.208  10.485
66180W        W34510  21.747  17.721   4.757
66181W        W34511  15.595  44.806   3.366
66182W        W34512  19.748  16.595  11.563
66183W        W34513  11.773  26.672  13.825
66184W        W34514  16.133  36.033  14.963
66185W        W34515  40.017  32.891   0.383
66186W        W34516  16.305   4.351  12.409
66187W        W34517  14.302  22.144  13.547
66188W        W34518   7.783  42.473  14.465
66189W        W34519  38.535   8.183   2.231
66190W        W34520   6.299  36.944   4.759
66191W        W34521  21.512   3.216   3.150
66192W        W34522  34.019  10.706   4.191
66193W        W34523  38.873  37.009   3.209
66194W        W34524  18.641  15.274  13.390
66195W        W34525  38.463   2.744  14.889
66196W        W34526  25.469  29.573  13.348
66197W        W34527   2.233  16.082  13.946
66198W        W34528  20.674   3.781   1.932
66199W        W34529   3.746  23.633  11.096
66200W        W34530  12.836  16.633  11.027
66201W        W34531  23.109  24.196  14.005
66202W        W34532  34.983   0.839   5.189
66203W        W34533  16.685  19.606  14.291
66204W        W34534  14.183   4.397  14.496
66205W        W34535  16.640  37.363  11.509
66206W        W34536   5.827   3.254   5.130
66207W        W34537  24.096  44.357   4.168
66208W        W34538  42.898  25.028   1.752
66209W        W34539  33.585  14.162  12.859
66210W        W34540  24.664  36.412   4.625
66211W        W34541  26.561  44.496  12.884
66212W        W34542  15.597   1.397  12.879
66213W        W34543   5.814   6.261  12.561
66214W        W34544  29.548  17.557  13.816
66215W        W34545  35.970  18.633   3.146
66216W        W34546  33.929  39.930   0.845
66217W        W34547  38.546  42.312   1.305
66218W        W34548  21.540  16.606  12.395
66219W        W34549  37.875   5.338  13.797
66220W        W34550  11.179  10.310   4.334
66221W        W34551  44.434  23.502  10.601
66222W        W34552  20.166  20.565   0.856
66223W        W34553  31.460  15.215  13.392
66224W        W34554   3.232  37.850   1.720
66225W        W34555  20.723  40.972  13.468
66226W        W34556  15.157   3.415   3.799
66227W        W34557  11.645  13.113  12.498
66228W        W34558  33.442  29.981   0.311
66229W        W34559  29.513  11.682  14.012
66230W        W34560  31.562  24.592   4.304
66231W        W34561  38.569   7.208   2.778
66232W        W34562   9.229  43.487  14.496
66233W        W34563  10.704   9.738  10.961
66234W        W34564  41.003  10.177   0.381
66235W        W34565   7.830  28.113  11.548
66236W        W34566  31.538  42.853  13.369
66237W        W34567  25.124  24.155   0.263
66238W        W34568  10.382  33.034   2.178
66239W        W34569   2.902  29.453  12.857
66240W        W34570   8.318  15.683  12.037
66241W        W34571  44.826  29.433  13.027
66242W        W34572  18.146   2.389   1.766
66243W        W34573  38.407  31.624   1.233
66244W        W34574   2.911  42.436   4.198
66245W        W34575  44.944   3.239  13.984
66246W        W34576   9.708  14.733   2.668
66247W        W34577   6.790  43.468   1.892
66248W        W34578   9.252  34.931  10.584
66249W        W34579  39.967  30.954   1.824
66250W        W34580  20.177  30.439  11.503
66251W        W34581   3.827   2.271  14.349
66252W        W34582   3.851   4.779   3.767
66253W        W34583  31.577   2.259   3.703
66254W        W34584  19.587  18.596   2.696
66255W        W34585   3.880  19.542   5.128
66256W        W34586  28.556   9.290   2.347
66257W        W34587   8.395  25.095  10.981
66258W        W34588  44.469   5.238  11.054
66259W        W34589  27.560  14.210  10.991
66260W        W34590   2.375  28.482   3.640
66261W        W34591  12.753  10.663  14.955
66262W        W34592  41.890  42.409  12.827
66263W        W34593   6.835   8.267   1.429
66264W        W34594  14.691  17.600   4.140
66265W        W34595  33.543  40.465  12.466
66266W        W34596  14.799  21.168   0.763
66267W        W34597  30.460   7.187   4.651
66268W        W34598  30.072   1.326   3.161
66269W        W34599   3.376  34.606  12.480
66270W        W34600  15.328  24.168  14.327
66271W        W34601  19.239   3.381   3.232
66272W        W34602  24.051  20.588   1.426
66273W        W34603   4.246  11.331   1.881
66274W        W34604  13.833  31.086  13.985
66275W        W34605  39.969  21.144   0.741
66276W        W34606  23.640  14.139  13.334
66277W        W34607  38.925   4.437  10.588
66278W        W34608  16.767  27.632   3.252
66279W        W34609   1.963  29.004  14.998
66280W        W34610  37.842  24.613   4.350
66281W        W34611  34.579  32.959  10.480
66282W        W34612  10.852  39.825   3.651
66283W        W34613   2.959   1.840  11.548
66284W        W34614  26.673  33.463  12.874
66285W        W34615  30.082  12.338   4.305
66286W        W34616  43.280  11.680  12.514
66287W        W34617  37.523  44.368  13.056
66288W        W34618  30.637  28.630   2.417
66289W        W34619  19.709  36.009  11.859
66290W        W34620  19.124  41.368   4.742
66291W        W34621   0.834   7.264  12.925
66292W        W34622  41.852  20.220  14.323
66293W        W34623  35.033  22.592   5.292
66294W        W34624  23.170   9.759  13.855
66295W        W34625  44.321  16.572  13.866
66296W        W34626  43.857  31.954  12.451
66297W        W34627   4.274  27.482   4.308
66298W        W34628   9.179  20.702  11.441
66299W        W34629  17.079   9.262   1.347
66300W        W34630   0.948  19.542   1.904
66301W        W34631  26.550  10.691  13.904
66302W        W34632   6.783  20.753   3.166
66303W        W34633  39.857   7.782  12.514
66304W        W34634  34.488  44.894   2.358
66305W        W34635  28.015   4.235  12.859
66306W        W34636  40.417  28.636  13.309
66307W        W34637   7.764  42.344   3.846
66308W        W34638  36.904  17.069   4.191
66309W        W34639   4.422  39.811  14.502
66310W        W34640  18.165  14.270   2.688
66311W        W34641  39.019  12.755   4.262
66312W        W34642  15.190   9.326  14.931
66313W        W34643  13.276  34.076  13.462
66314W        W34644   4.849  39.939  13.387
66315W        W34645  25.196  20.044  10.900
66316W        W34646   2.845  23.215  13.320
66317W        W34647  39.864   3.723   4.796
66318W        W34648  13.171  36.083   0.277
66319W        W34649  42.358  28.679   3.817
66320W        W34650  22.023  21.742   1.817
66321W        W34651  34.892   3.369   0.409
66322W        W34652   0.469  43.465   4.794
66323W        W34653  36.560  43.888  13.530
66324W        W34654  13.687  16.604   0.824
66325W        W34655  25.699   3.948   1.215
66326W        W34656  10.703  43.014  12.433
66327W        W34657  36.566  17.609   3.357
66328W        W34658  39.550  12.644   4.284
66329W        W34659  25.495  18.788   3.737
66330W        W34660  24.642  23.698   3.186
66331W        W34661  38.435  18.243   4.285
66332W        W34662  35.396   6.881  11.899
66333W        W34663  29.113  24.003  13.936
66334W        W34664  21.518  34.038   2.206
66335W        W34665  19.546  21.548   4.276
66336W        W34666  42.963  24.193  13.548
66337W        W34667   4.445  39.382   0.352
66338W        W34668  15.119  25.187  14.915
66339W        W34669  44.443  35.038   4.778
66340W        W34670  11.720  20.541  14.471
66341W        W34671  25.635  16.760   1.790
66342W        W34672  24.485  21.256   3.235
66343W        W34673  41.526   9.673  10.642
66344W        W34674  27.954   3.901   1.392
66345W        W34675   8.369  35.917   3.310
66346W        W34676  13.714   1.429   1.384
66347W        W34677   4.788  37.343   0.849
66348W        W34678  24.544  19.657  12.846
66349W        W34679  31.574   1.800   1.709
66350W        W34680  44.889  17.716  10.419
66351W        W34681   5.866  41.893  12.836
66352W        W34682  30.993  25.065  11.927
66353W        W34683  18.109   0.872   1.918
66354W        W34684  29.613  33.544   0.284
66355W        W34685  44.890  27.457   0.445
66356W        W34686  36.491  33.936   0.961
66357W        W34687  13.698  35.982  10.575
66358W        W34688  17.249  26.593   4.780
66359W        W34689  29.663  16.288   3.247
66360W        W34690  44.502  30.551   3.735
66361W        W34691  32.918  19.749  13.016
66362W        W34692   6.909  32.603   0.906
66363W        W34693  43.867   3.948  10.495
66364W        W34694  44.502  25.122  13.837
66365W        W34695  34.941  28.178   0.292
66366W        W34696   1.903   2.925  12.435
66367W        W34697  38.934   6.338   5.240
66368W        W34698  32.905  35.975   3.280
66369W        W34699   4.208  15.244  10.403
66370W        W34700  14.665  15.185  13.394
66371W        W34701  18.761  25.643   4.785
66372W        W34702   8.769  39.983  10.917
66373W        W34703   7.753  40.375   4.265
66374W        W34704  35.991  23.696  14.983
66375W        W34705  43.383  29.528   4.704
66376W        W34706  37.507   8.802  10.927
66377W        W34707  30.911   2.392   1.810
66378W        W34708   6.758  42.512   2.684
66379W        W34709  26.068   2.428  11.372
66380W        W34710  32.513  32.059  11.050
66381W        W34711  21.142  23.145   3.204
66382W        W34712  28.444  11.188  14.009
66383W        W34713  42.923  34.594  13.464
66384W        W34714   8.377  27.649  11.094
66385W        W34715  44.925  14.134   4.129
66386W        W34716  37.339  42.367   2.339
66387W        W34717   0.975  27.128   3.234
66388W        W34718  23.645  12.684   2.404
66389W        W34719  17.597  28.088  12.906
66390W        W34720  41.840  40.887   1.714
66391W        W34721   7.830  34.046   3.335
66392W        W34722   6.327  26.489   2.391
66393W        W34723  14.699   8.321  10.563
66394W        W34724   4.386  22.193   4.139
66395W        W34725  20.619  36.886  13.344
66396W        W34726  18.182  44.426   4.276
66397W        W34727   1.265  40.322  11.485
66398W        W34728  37.001  26.168   3.345
66399W        W34729  37.549  38.448   2.709
66400W        W34730  15.638  37.893   2.198
66401W        W34731  16.217  37.484  13.891
66402W        W34732  21.660  15.156  12.551
66403W        W34733  39.860  17.204   2.398
66404W        W34734   0.980  22.039   4.149
66405W        W34735  39.861  17.773   4.776
66406W        W34736   1.366   1.849   1.337
66407W        W34737  29.080  13.347   4.785
66408W        W34738  16.305  22.057  12.032
66409W        W34739   2.418  38.012   2.811
66410W        W34740  16.606  17.144  11.530
66411W        W34741  23.490  16.576   3.322
66412W        W34742  11.724  22.010   1.213
66413W        W34743  18.110   2.321   4.809
66414W        W34744  32.912  38.378   0.805
66415W        W34745  19.622  19.591  12.521
66416W        W34746  42.445  38.372   2.350
66417W        W34747  36.358  13.728   4.270
66418W        W34748  42.327  31.532  10.489
66419W        W34749  24.019  14.162  13.521
66420W        W34750  10.840  18.225   1.876
66421W        W34751  29.433  27.993  11.004
66422W        W34752  14.299  11.302  11.558
66423W        W34753   0.339  33.435  10.585
66424W        W34754  13.261  32.012  10.613
66425W        W34755   6.833   9.385   3.255
66426W        W34756  33.035  14.653   2.233
66427W        W34757  37.945  37.555   0.316
66428W        W34758  31.407  25.009  13.458
66429W        W34759   5.774  42.288  12.462
66430W        W34760   1.873  17.179   0.440
66431W        W34761  37.362   1.756   4.798
66432W        W34762  42.418  15.700  13.933
66433W        W34763  27.967  23.614  12.960
66434W        W34764  10.759   2.247  11.375
66435W        W34765   7.373  34.515  11.002
66436W        W34766  29.656  25.593   2.814
66437W        W34767  21.564  42.957  13.791
66438W        W34768   5.408  34.575  14.022
66439W        W34769  20.673  16.668   2.365
66440W        W34770  22.175   5.349   1.341
66441W        W34771  14.609  25.666  14.915
66442W        W34772  44.271   7.867   3.830
66443W        W34773  44.264  27.521   2.357
66444W        W34774  17.257  42.935  11.884
66445W        W34775  21.559   9.666   4.190
66446W        W34776  22.542  30.525   3.668
66447W        W34777  37.835  20.088   0.727
66448W        W34778  19.265   4.818   2.700
66449W        W34779  44.944  38.832  12.354
66450W        W34780  25.667   4.713  10.089
66451W        W34781   6.849  17.063   1.300
66452W        W34782  29.087  15.307   4.246
66453W        W34783  42.351  38.369  13.447
66454W        W34784  34.521  34.087  12.388
66455W        W34785  11.642  20.065   0.322
66456W        W34786   4.936  28.654   3.348
66457W        W34787  20.607  20.132   5.305
66458W        W34788   3.810  34.116   4.630
66459W        W34789   2.759  20.095  13.871
66460W        W34790  16.168  10.771  14.294
66461W        W34791  35.409  37.479  11.056
66462W        W34792  25.613  41.329  14.335
66463W        W34793  23.639  10.790  14.438
66464W        W34794   0.768  20.562  14.801
66465W        W34795  28.445   1.788  11.982
66466W        W34796  38.362  19.662   3.334
66467W        W34797   6.294  16.245  12.085
66468W        W34798  39.994  44.877  13.336
66469W        W34799   7.828  39.978   4.226
66470W        W34800  25.039   3.731  13.351
66471W        W34801   3.255  32.905   0.291
66472W        W34802  34.074  26.115  14.480
66473W        W34803  31.527  26.099   4.325
66474W        W34804   0.983  16.727   3.277
66475W        W34805  14.759  19.276  13.806
66476W        W34806  20.065  38.438   2.214
66477W        W34807  38.014  34.609  11.996
66478W        W34808  13.732  26.995   1.292
66479W        W34809   4.425  26.587  13.346
66480W        W34810  21.663  18.764   3.735
66481W        W34811  40.411  42.415  13.538
66482W        W34812  36.352  34.068   4.147
66483W        W34813  39.460  38.930   4.354
66484W        W34814  21.063  26.017  13.373
66485W        W34815  20.190  16.310  13.996
66486W        W34816  29.091  13.113  12.032
66487W        W34817  15.684  42.032   2.821
66488W        W34818   6.306  34.558  12.911
66489W        W34819   2.765  28.626   4.748
66490W        W34820  40.050  24.678   4.327
66491W        W34821  33.026  29.048  14.844
66492W        W34822  21.110  33.051   4.657
66493W        W34823  42.504  19.545  11.586
66494W        W34824  26.102   0.361   4.729
66495W        W34825  32.391   2.967  14.029
66496W        W34826   4.868   3.712   0.303
66497W        W34827  12.263  23.714   3.704
66498W        W34828   3.411  43.383  10.913
66499W        W34829  12.781   5.422  11.004
66500W        W34830  30.604  40.503  12.528
66501W        W34831   4.717  32.560   4.677
66502W        W34832   9.885  24.118   3.369
66503W        W34833  13.751  39.555   2.837
66504W        W34834  29.639  43.844  11.492
66505W        W34835   3.398   6.843  14.912
66506W        W34836  21.141   8.736  14.369
66507W        W34837   9.765  43.839   2.790
66508W        W34838   2.732  37.340   0.797
66509W        W34839   8.274   3.292  12.544
66510W        W34840  28.151  28.066   0.357
66511W        W34841  11.328  30.632  11.915
66512W        W34842  17.760  39.420   0.267
66513W        W34843  23.634  22.250   3.338
66514W        W34844  38.459  44.358   4.691
66515W        W34845  18.640  32.513  10.644
66516W        W34846  42.431  41.453   1.718
66517W        W34847  37.549   8.170   3.866
66518W        W34848  11.246  33.575  12.095
66519W        W34849  19.279  33.010   1.407
66520W        W34850  44.992  27.962  12.350
66521W        W34851  21.529   0.370  13.412
66522W        W34852  35.102  29.571  12.563
66523W        W34853  41.036  25.663  14.837
66524W        W34854   0.915   6.381   5.272
66525W        W34855  42.022   0.283   3.643
66526W        W34856   2.773  35.860   1.334
66527W        W34857  15.583  36.360   1.302
66528W        W34858   6.313  33.588  14.513
66529W        W34859  32.073  36.927  12.903
66530W        W34860  38.564  41.024  14.776
66531W        W34861  12.125  13.696   2.302
66532W        W34862   3.931  24.489   2.810
66533W        W34863  28.562  30.934  11.858
66534W        W34864  40.390  17.081   0.762
66535W        W34865  43.999  19.276   3.683
66536W        W34866   5.814  18.186  12.087
66537W        W34867  25.650  34.912  12.027
66538W        W34868  43.976  12.700   4.128
66539W        W34869  36.584  21.626   0.883
66540W        W34870  20.246  28.517   1.887
66541W        W34871  29.638  18.642   0.760
66542W        W34872  19.671  11.790   1.904
66543W        W34873  19.638  34.589   1.705
66544W        W34874  25.621   3.457   5.264
66545W        W34875   1.397   7.327   4.829
66546W        W34876  42.518  13.332   4.782
66547W        W34877  16.787   4.916   1.225
66548W        W34878  17.189  41.946  12.890
66549W        W34879  27.524  28.550   1.322
66550W        W34880  33.404  10.679  12.957
66551W        W34881  44.879   6.192   4.646
66552W        W34882  41.898   9.863   0.336
66553W        W34883   7.669  35.063  11.068
66554W        W34884  44.985  34.373   0.425
66555W        W34885  22.702  33.501   4.312
66556W        W34886  24.694  38.832  10.634
66557W        W34887  31.033   5.767  14.030
66558W        W34888  21.157  26.678   4.312
66559W        W34889  38.530  20.032   3.740
66560W        W34890   4.282  28.084  11.407
66561W        W34891  11.298  21.711  14.806
66562W        W34892  35.591  40.834   3.326
66563W        W34893  34.925  24.160   0.414
66564W        W34894  22.073  16.624  13.532
66565W        W34895  11.689   5.343   0.873
66566W        W34896   3.934   4.339   0.879
66567W        W34897   8.691  35.393  14.313
66568W        W34898  24.712  20.159  14.409
66569W        W34899   8.780  32.399   4.189
66570W        W34900  23.539  11.638   4.629
66571W        W34901  23.526   5.276   2.301
66572W        W34902  44.469   6.917   4.777
66573W        W34903  27.470  29.992   0.748
66574W        W34904  35.447   0.435   2.409
66575W        W34905  11.289  42.361   4.653
66576W        W34906   7.796  10.681  10.540
66577W        W34907   5.693  32.517   3.235
66578W        W34908   0.844  20.562  11.961
66579W        W34909  42.318  22.045  11.004
66580W        W34910   3.766  38.344   4.188
66581W        W34911   6.335  33.519  14.769
66582W        W34912   5.885  38.368   1.300
66583W        W34913  35.426   4.311  13.834
66584W        W34914  27.029  26.135   3.285
66585W        W34915  35.043   7.816  13.504
66586W        W34916  34.554  30.030   2.704
66587W        W34917  34.977  37.972  14.334
66588W        W34918  38.468   8.887  13.928
66589W        W34919  29.051  25.186   3.174
66590W        W34920  23.122  38.981   3.193
66591W        W34921  24.125  22.512  14.400
66592W        W34922  37.391  22.666   3.698
66593W        W34923  19.253  30.527   2.245
66594W        W34924   2.236  23.547  10.501
66595W        W34925  38.909   7.696   3.201
66596W        W34926  20.134  41.929  10.966
66597W        W34927  15.327   6.257   2.313
66598W        W34928  14.816   3.320  12.559
66599W        W34929   3.347   5.299  14.307
66600W        W34930   9.729  19.119  10.941
66601W        W34931  34.067   9.190   1.272
66602W        W34932   2.748  44.951   1.854
66603W        W34933  26.666  23.695   2.273
66604W        W34934  34.897  31.989   1.931
66605W        W34935   0.290  33.055   3.831
66606W        W34936  32.565   2.760   2.807
66607W        W34937  30.559  29.485   1.255
66608W        W34938  13.604  41.853  12.364
66609W        W34939  12.132  14.125   0.738
66610W        W34940  29.982  15.728  12.527
66611W        W34941  30.658  42.334  10.461
66612W        W34942  43.820   2.721  10.544
66613W        W34943   5.853   6.857  11.608
66614W        W34944  30.530   9.166  11.588
66615W        W34945  13.799  26.541  11.058
66616W        W34946  31.013  38.929  13.467
66617W        W34947  11.284  28.087   0.943
66618W        W34948  39.368  36.442  13.952
66619W        W34949  19.565   0.954  13.807
66620W        W34950  30.154  27.558  14.464
66621W        W34951  22.515  12.714   5.187
66622W        W34952   6.271  37.969   0.291
66623W        W34953  24.666  24.631  11.896
66624W        W34954  30.430   7.853  12.006
66625W        W34955  43.782  21.032   4.256
66626W        W34956  26.687  44.906   4.716
66627W        W34957   5.350   6.187  13.520
66628W        W34958   5.832  10.263   0.381
66629W        W34959   4.815  38.936   1.702
66630W        W34960  19.718   1.857   2.370
66631W        W34961  22.559   5.256   3.745
66632W        W34962   9.795  34.940   4.343
66633W        W34963  42.282   3.799   4.292
66634W        W34964  30.650  34.949   3.366
66635W        W34965  19.177  24.505   4.801
66636W        W34966   9.322  19.678   3.668
66637W        W34967  43.976  36.379  14.969
66638W        W34968  29.618  19.277  14.879
66639W        W34969  10.291  17.697   2.874
66640W        W34970  28.968   7.323  12.048
66641W        W34971  39.441  26.061  13.816
66642W        W34972  37.482  11.796  13.342
66643W        W34973   4.339  10.159  12.526
66644W        W34974  16.298  28.185  10.485
66645W        W34975  19.165  14.276   4.640
66646W        W34976  24.485  28.121   2.253
66647W        W34977  19.079   2.948  14.307
66648W        W34978  11.200  18.594   1.747
66649W        W34979  35.376  25.012   3.372
66650W        W34980  44.830  15.730   9.975
66651W        W34981  16.784   5.794   3.152
66652W        W34982  41.291  32.114   0.862
66653W        W34983  37.863  21.536   4.759
66654W        W34984  12.145  12.321  11.918
66655W        W34985  34.071  35.521   0.827
66656W        W34986  19.599  28.078   4.141
66657W        W34987  12.152   3.429   3.163
66658W        W34988  25.109  40.997  11.379
66659W        W34989  32.996  36.586  13.902
66660W        W34990  12.720   5.816   2.728
66661W        W34991  26.519  34.023  10.082
66662W        W34992  43.493  37.995  10.511
66663W        W34993   8.368  15.272  12.426
66664W        W34994  18.731  29.581  14.837
66665W        W34995  33.520  26.088  14.505
66666W        W34996   1.844   3.225  10.891
66667W        W34997  41.495  40.335  14.457
66668W        W34998  18.167  43.494   4.649
66669W        W34999  44.323  31.145  10.531
66670W        W35000   1.771   6.838  14.822
66671W        W35001  35.538  26.627   4.729
66672W        W35002  13.259   1.910   1.760
66673W        W35003   7.833  13.789  12.423
66674W        W35004  36.419  35.394   2.229
66675W        W35005  22.627  17.670   4.689
66676W        W35006  40.857  37.403  11.480
66677W        W35007  32.553   3.365  14.761
66678W        W35008  14.715  14.624  12.921
66679W        W35009  19.685  39.030   2.399
66680W        W35010  44.430  21.733   5.280
66681W        W35011   1.340   8.182  12.345
66682W        W35012  43.868  40.907  14.492
66683W        W35013  16.617  42.930   4.217
66684W        W35014  43.765   2.811   1.759
66685W        W35015  26.189  42.523  10.487
66686W        W35016  31.441  10.310  11.027
66687W        W35017  23.685  20.264   2.867
66688W        W35018  42.443   7.863  10.519
66689W        W35019  42.328   9.668   2.750
66690W        W35020  28.028  14.691  10.944
66691W        W35021   1.478  33.008   0.928
66692W        W35022  10.242  12.354  14.440
66693W        W35023  20.586   2.737  14.938
66694W        W35024  39.522   8.241  10.161
66695W        W35025   2.239  23.645   2.386
66696W        W35026  19.152  19.131   0.429
66697W        W35027  11.349  36.967   1.422
66698W        W35028  15.822   8.271  13.020
66699W        W35029  23.504  32.909   3.315
66700W        W35030   5.376  15.228   2.305
66701W        W35031  44.372  37.358  13.407
66702W        W35032   2.343  13.677   3.635
66703W        W35033  27.184  16.812  13.344
66704W        W35034  29.981  18.682   3.330
66705W        W35035  35.401  43.020  14.840
66706W        W35036  13.196  43.921  13.851
66707W        W35037  19.632  43.430   3.780
66708W        W35038  30.495  23.566   3.319
66709W        W35039  34.450  40.811   1.804
66710W        W35040  38.519   5.757   3.254
66711W        W35041  16.114  28.478   0.471
66712W        W35042  29.044  35.017  11.580
66713W        W35043  28.474  39.895   0.790
66714W        W35044  28.435  22.169  14.838
66715W        W35045  32.923   4.284  10.439
66716W        W35046   1.315  42.496   1.433
66717W        W35047  12.297  10.194  11.545
66718W        W35048  23.215  35.908   3.698
66719W        W35049  36.562   1.237   2.402
66720W        W35050  37.991   8.329  14.304
66721W        W35051  21.162  20.272   3.178
66722W        W35052  25.120   8.201   3.210
66723W        W35053   9.278   2.760  11.059
66724W        W35054  18.141  44.411   2.274
66725W        W35055  14.296  33.571   4.635
66726W        W35056  39.958   0.343  11.423
66727W        W35057  41.933  22.709  12.358
66728W        W35058  10.253  23.121  14.452
66729W        W35059  21.619  24.223   0.457
66730W        W35060  33.107  30.486  11.399
66731W        W35061  32.496   7.747   3.268
66732W        W35062  33.086  44.476  14.470
66733W        W35063  43.493  15.118  10.574
66734W        W35064  33.559  14.230  12.004
66735W        W35065  44.337  42.879  11.430
66736W        W35066  27.132  33.610   1.819
66737W        W35067  40.982   2.437  14.359
66738W        W35068   4.279  43.470  12.565
66739W        W35069   8.398   8.819   0.375
66740W        W35070  15.251  44.458  14.971
66741W        W35071  29.964  15.226   4.733
66742W        W35072  14.683  15.744   4.242
66743W        W35073  26.165  40.342   3.160
66744W        W35074  36.496   0.776   4.207
66745W        W35075  37.074  38.422   0.951
66746W        W35076  39.334  26.675   2.871
66747W        W35077  28.103   3.443   4.303
66748W        W35078  14.775  33.450   1.730
66749W        W35079   1.317   7.879  13.830
66750W        W35080   5.914  10.212   1.873
66751W        W35081   9.395  34.505  13.396
66752W        W35082  20.572   1.789   3.816
66753W        W35083  18.651   6.328  10.530
66754W        W35084  39.930   2.727  12.830
66755W        W35085  19.182  10.223  10.568
66756W        W35086  42.785  43.413   1.403
66757W        W35087  42.819  44.355  12.001
66758W        W35088  44.379  43.467   2.190
66759W        W35089  31.482  36.489   4.734
66760W        W35090  34.955  43.347   3.778
66761W        W35091  34.484  34.582   2.234
66762W        W35092  39.529  10.311  14.773
66763W        W35093   4.883  13.192   3.173
66764W        W35094  13.726  14.237   0.430
66765W        W35095  35.411   8.858  12.443
66766W        W35096   3.878  41.834   2.696
66767W        W35097  11.759  32.568   0.279
66768W        W35098   7.242   6.806  13.952
66769W        W35099  28.977  38.444   2.750
66770W        W35100   3.951  39.435   9.511
66771W        W35101  29.947  44.971  14.443
66772W        W35102  15.095  20.041   2.315
66773W        W35103  28.141  27.006  12.463
66774W        W35104  23.062  19.085  10.615
66775W        W35105  36.531   5.331   2.244
66776W        W35106  14.156  32.891  13.891
66777W        W35107  34.943   3.392  12.572
66778W        W35108   2.405  33.584   3.857
66779W        W35109  39.045   3.754   3.644
66780W        W35110  35.446  40.535   1.285
66781W        W35111  25.015  16.701   0.948
66782W        W35112  30.074  41.507  14.792
66783W        W35113   9.373  21.595   3.284
66784W        W35114  21.185  11.657  11.374
66785W        W35115  27.033  20.559   2.842
66786W        W35116  24.036  41.878   4.770
66787W        W35117  10.224   4.784   2.378
66788W        W35118  14.323  25.629  11.422
66789W        W35119  35.436  43.314  11.501
66790W        W35120  25.009   1.334  10.642
66791W        W35121  38.040  30.511  12.397
66792W        W35122   8.395  17.281   4.164
66793W        W35123  32.563  32.466   1.825
66794W        W35124  17.765  11.196  13.432
66795W        W35125  31.980  26.002   2.752
66796W        W35126  19.205  20.258  12.531
66797W        W35127  41.514   3.878   2.668
66798W        W35128  34.997  29.003   2.224
66799W        W35129  42.386  24.189  14.790
66800W        W35130  39.413  28.071  10.896
66801W        W35131   5.282   0.270   0.912
66802W        W35132   2.251  42.475   2.343
66803W        W35133  36.458  36.082  11.584
66804W        W35134  25.962  29.094  11.876
66805W        W35135  42.968  30.555   3.681
66806W        W35136  41.507   9.298  13.414
66807W        W35137   5.830   2.464  13.061
66808W        W35138  39.819  39.820   0.282
66809W        W35139  44.457   2.868   3.325
66810W        W35140  20.692  33.516   0.885
66811W        W35141  11.296  22.694  12.968
66812W        W35142  31.531  30.524  14.291
66813W        W35143  19.203  14.600  12.392
66814W        W35144  32.555   3.825   1.443
66815W        W35145  20.642  39.319  12.912
66816W        W35146   4.725  15.118  11.418
66817W        W35147  37.414  19.681   0.919
66818W        W35148  34.570  36.855  14.782
66819W        W35149  25.644   4.837  13.948
66820W        W35150  44.383   3.440  10.001
66821W        W35151  40.403  15.807  10.101
66822W        W35152  30.648  20.218   1.326
66823W        W35153  33.998  38.072   4.757
66824W        W35154  27.963   9.794  12.017
66825W        W35155  18.628   1.341   4.615
66826W        W35156   6.914  36.569  14.795
66827W        W35157   4.762  15.290   1.786
66828W        W35158  28.589   7.845  14.286
66829W        W35159   7.377  20.620   2.731
66830W        W35160   8.690  21.609  14.006
66831W        W35161  34.060   8.225   1.228
66832W        W35162  30.536   6.694  13.487
66833W        W35163   4.728  24.184  14.322
66834W        W35164  43.011  32.932   0.877
66835W        W35165  28.526  44.396   3.786
66836W        W35166  39.433  42.843  14.903
66837W        W35167   6.330   6.411   3.288
66838W        W35168  20.041  15.084  13.978
66839W        W35169  10.249  41.387   4.726
66840W        W35170  16.224   7.200   0.296
66841W        W35171  40.930  23.490  11.421
66842W        W35172  12.699  29.559   0.840
66843W        W35173  13.650  22.657   3.831
66844W        W35174  27.685  39.418  14.841
66845W        W35175  21.236   5.402   4.269
66846W        W35176   0.265   6.376   1.424
66847W        W35177  35.888  12.662   3.281
66848W        W35178   8.854   0.390  12.403
66849W        W35179   4.289  12.615   0.322
66850W        W35180  34.969  44.770   3.321
66851W        W35181  42.323  29.020  11.092
66852W        W35182  16.097  24.020  13.373
66853W        W35183  39.002   0.428   4.125
66854W        W35184  25.181  14.240   0.957
66855W        W35185   4.912  11.809  11.913
66856W        W35186  10.779  24.079   1.406
66857W        W35187  18.253  16.602  11.561
66858W        W35188   7.746  10.311   9.936
66859W        W35189  42.867   6.374   3.323
66860W        W35190  28.553  25.669  13.452
66861W        W35191   9.289  40.963   3.746
66862W        W35192  39.014  10.825   2.401
66863W        W35193   1.436  14.127  11.532
66864W        W35194  26.533  38.900  14.941
66865W        W35195  24.182  33.471   4.807
66866W        W35196  25.015  27.978  11.392
66867W        W35197  10.687  27.005   2.239
66868W        W35198   0.948  13.278   4.113
66869W        W35199  21.571  43.279  12.475
66870W        W35200  26.188  27.183  12.825
66871W        W35201  15.617   6.918   0.421
66872W        W35202   4.745   4.927  14.973
66873W        W35203  13.799   1.966  14.372
66874W        W35204  29.516  25.482  13.396
66875W        W35205  27.945  16.807   3.167
66876W        W35206  23.610   5.318  14.774
66877W        W35207  43.908  15.131  13.417
66878W        W35208   6.877  35.604   4.825
66879W        W35209  10.787   1.896   3.291
66880W        W35210  39.836  34.566   1.844
66881W        W35211  43.875  28.043  14.017
66882W        W35212  44.848  30.441   3.244
66883W        W35213   8.878  40.506   3.229
66884W        W35214   2.916  24.616  12.919
66885W        W35215  33.409  39.509  14.398
66886W        W35216  27.140   1.862  14.402
66887W        W35217  19.618   7.236  10.121
66888W        W35218  33.874  11.851  13.044
66889W        W35219  27.603  44.365  14.362
66890W        W35220   8.756  29.447  14.837
66891W        W35221  41.533   0.947  14.297
66892W        W35222  43.288   6.905   3.634
66893W        W35223  12.298  19.559   4.832
66894W        W35224  43.453  12.629   0.472
66895W        W35225   2.354  41.824  14.953
66896W        W35226  23.699  18.173   4.252
66897W        W35227  16.086  39.436   2.399
66898W        W35228  20.262  17.132   1.886
66899W        W35229  14.805  19.758  11.538
66900W        W35230  37.551  42.523  12.463
66901W        W35231  31.013  18.145  14.789
66902W        W35232  21.597  18.705  12.449
66903W        W35233   2.807  41.010  11.916
66904W        W35234   8.193  24.991   3.819
66905W        W35235   3.951  24.094   0.946
66906W        W35236  15.189  22.186   2.377
66907W        W35237  33.444   7.850  11.059
66908W        W35238  43.781  21.167  12.884
66909W        W35239   5.811  18.715   0.799
66910W        W35240  44.360  38.548   1.427
66911W        W35241  11.360  29.080  10.441
66912W        W35242  18.671  19.699  11.113
66913W        W35243  26.126  38.383  12.431
66914W        W35244  13.347  31.508   0.417
66915W        W35245  18.212  24.511   0.458
66916W        W35246  12.343  44.260  13.446
66917W        W35247  17.733  26.984   0.423
66918W        W35248  33.920  36.579   2.364
66919W        W35249  12.853  21.167   0.295
66920W        W35250  36.918   3.280   0.471
66921W        W35251  15.317  39.942  14.300
66922W        W35252   4.208  29.492  14.000
66923W        W35253  28.436  21.668   0.310
66924W        W35254  13.130  25.970   3.839
66925W        W35255   9.862  20.587   1.225
66926W        W35256  17.118  29.063  10.501
66927W        W35257  27.144  15.096  10.897
66928W        W35258  13.172  44.810   3.768
66929W        W35259  12.685  25.175  13.913
66930W        W35260  34.500   7.357  13.858
66931W        W35261  39.385  19.634   3.261
66932W        W35262  30.522   8.373  12.037
66933W        W35263   8.223   1.802   2.873
66934W        W35264  30.010  25.648   1.346
66935W        W35265  32.992  36.072   0.474
66936W        W35266   6.794   7.380   3.193
66937W        W35267  34.519  12.656   0.311
66938W        W35268  37.423  28.165  13.845
66939W        W35269  30.122   1.844  14.820
66940W        W35270   3.309  31.947  10.959
66941W        W35271  18.696  13.617  12.912
66942W        W35272  28.605   3.820   4.602
66943W        W35273  21.098  36.086  14.819
66944W        W35274  43.485  11.739   1.711
66945W        W35275   7.902  32.087   2.792
66946W        W35276  36.481  16.178  10.474
66947W        W35277  40.918  28.979  13.486
66948W        W35278  30.087  43.775   0.287
66949W        W35279   3.459   1.477  14.886
66950W        W35280  39.395  32.576   1.874
66951W        W35281   5.757  25.202   3.340
66952W        W35282  41.878  16.628   1.729
66953W        W35283  20.145  36.900   1.732
66954W        W35284  36.974  42.312   0.313
66955W        W35285  43.314   8.265  11.512
66956W        W35286  40.832  27.121   1.409
66957W        W35287  30.571  33.937  10.633
66958W        W35288  17.178  21.519   0.305
66959W        W35289  26.163  16.721   4.328
66960W        W35290  26.198  15.660  14.028
66961W        W35291  31.078  34.377  14.462
66962W        W35292  30.025  31.430  12.462
66963W        W35293   3.950   3.818  12.441
66964W        W35294  12.195  40.882  12.492
66965W        W35295  43.293   1.425  11.067
66966W        W35296   9.680   9.363  14.495
66967W        W35297  13.160   9.224  11.461
66968W        W35298  16.588   9.341   0.926
66969W        W35299  37.337   4.812   2.899
66970W        W35300  29.506  21.534   0.250
66971W        W35301   4.827  37.045   5.776
66972W        W35302  31.469  39.380   2.250
66973W        W35303   9.261  34.560   3.703
66974W        W35304   8.701  26.524   0.871
66975W        W35305  10.156  14.283  12.900
66976W        W35306  16.269  13.755   1.223
66977W        W35307   6.303   9.201   4.330
66978W        W35308  42.352  27.630  13.965
66979W        W35309  37.521  35.538  12.829
66980W        W35310   1.349  15.687  11.540
66981W        W35311  13.115  11.184   4.169
66982W        W35312   1.758  28.172  10.421
66983W        W35313  38.900  31.109  12.835
66984W        W35314  38.518  30.100   1.777
66985W        W35315   5.794  21.150  13.799
66986W        W35316  14.766  15.206  14.928
66987W        W35317  14.223  30.071  13.955
66988W        W35318   6.782  36.392   1.855
66989W        W35319   7.316  39.060  11.521
66990W        W35320  33.570   8.887  14.908
66991W        W35321  36.096  41.524   0.269
66992W        W35322   0.836  17.648  11.529
66993W        W35323   0.440  11.240   2.711
66994W        W35324   8.890  26.647  14.460
66995W        W35325  20.590   5.833  12.857
66996W        W35326  18.643   4.326  14.365
66997W        W35327   2.344  36.964   0.261
66998W        W35328   3.722   5.853  11.584
66999W        W35329  14.105  24.486   2.689
67000W        W35330  26.572   6.736   3.757
67001W        W35331  32.637  43.357   0.754
67002W        W35332  20.745   9.180   4.198
67003W        W35333  10.186  23.577   1.826
67004W        W35334  43.463  17.120  14.989
67005W        W35335  40.339  13.116  13.929
67006W        W35336  35.496  25.683  14.340
67007W        W35337  31.081  42.809  14.512
67008W        W35338  24.189   8.302   4.817
67009W        W35339  41.808   4.431   2.879
67010W        W35340  26.082   3.842  10.551
67011W        W35341  35.497  26.138  12.977
67012W        W35342  29.505  34.956  12.354
67013W        W35343  37.017  29.168  12.067
67014W        W35344  39.915  14.298   3.320
67015W        W35345   7.864  28.941  10.936
67016W        W35346  19.659  27.511   4.807
67017W        W35347  13.642  35.098  13.860
67018W        W35348  41.482  32.590   0.320
67019W        W35349  20.264  24.632  13.843
67020W        W35350  24.001   3.856   3.253
67021W        W35351   2.960  30.070  11.457
67022W        W35352  42.407   7.691  13.466
67023W        W35353  17.732  37.007   3.234
67024W        W35354  38.015  11.172   2.790
67025W        W35355  25.024   1.930   4.161
67026W        W35356  35.926  33.440   3.762
67027W        W35357  40.375  39.379   1.332
67028W        W35358  18.122  17.162   2.857
67029W        W35359   4.791  31.474  14.496
67030W        W35360  33.043  24.223  13.030
67031W        W35361  20.701  34.521   2.353
67032W        W35362  34.416  30.944   4.309
67033W        W35363  33.948   2.867  11.431
67034W        W35364  44.393  35.903  12.498
67035W        W35365  16.278  23.702  14.763
67036W        W35366   0.421  19.640  14.313
67037W        W35367  10.702  22.160   2.811
67038W        W35368   2.794   8.166  13.825
67039W        W35369  27.082  40.543  12.082
67040W        W35370  16.078  26.518  13.857
67041W        W35371  34.892  10.214   3.340
67042W        W35372  33.885  21.657   3.630
67043W        W35373  33.944  17.138   3.792
67044W        W35374  23.137  31.013  11.049
67045W        W35375   3.443  38.030   0.796
67046W        W35376  37.905  39.370  10.634
67047W        W35377  17.788   9.644  11.575
67048W        W35378   8.725   7.698   3.308
67049W        W35379  20.238  10.735  12.375
67050W        W35380  13.790   7.872  14.417
67051W        W35381  12.341   3.405  12.046
67052W        W35382  27.999  21.187   2.305
67053W        W35383  26.988   2.457   0.311
67054W        W35384  14.808  22.593  12.844
67055W        W35385  22.712  18.182   2.234
67056W        W35386  42.424   1.922  12.949
67057W        W35387  35.452  10.725   3.187
67058W        W35388   7.857   7.679   1.235
67059W        W35389  12.288  21.204  11.069
67060W        W35390  14.736   3.412   1.716
67061W        W35391  23.146   8.781   4.599
67062W        W35392  20.123  28.575  13.962
67063W        W35393   7.865  14.222   4.788
67064W        W35394   9.333  19.747  11.374
67065W        W35395  39.411   6.876   4.149
67066W        W35396  41.444  39.484  12.982
67067W        W35397  14.100  29.506   0.936
67068W        W35398  40.475  17.703  14.347
67069W        W35399   8.766  25.104   1.814
67070W        W35400  43.767   4.938   4.719
67071W        W35401  21.152  39.809  13.912
67072W        W35402  33.604  33.431   0.926
67073W        W35403  27.166  20.030  11.571
67074W        W35404  18.107  14.636   0.438
67075W        W35405  32.084  19.728   1.434
67076W        W35406   6.731  33.979   3.285
67077W        W35407  39.491  30.484  13.985
67078W        W35408  30.121  31.642   3.742
67079W        W35409  28.535  20.048  13.055
67080W        W35410  19.706  14.169   5.138
67081W        W35411  21.709   8.847  11.891
67082W        W35412  24.126  27.067  12.907
67083W        W35413  33.921  20.562  12.875
67084W        W35414  36.093   0.377   3.276
67085W        W35415  39.826  25.584   3.789
67086W        W35416  34.377  29.141   2.835
67087W        W35417  22.743  22.067  11.935
67088W        W35418  37.972  44.321  12.994
67089W        W35419  18.782  23.716   2.870
67090W        W35420  15.296  13.159  13.508
67091W        W35421  39.038  39.883   4.240
67092W        W35422  17.768  10.275  13.422
67093W        W35423  30.611  30.050  12.521
67094W        W35424  32.411  35.559   0.409
67095W        W35425  30.118  14.210   0.842
67096W        W35426   8.384   1.274  10.461
67097W        W35427  43.877  43.491  13.949
67098W        W35428  25.193  12.647  13.024
67099W        W35429  21.621  26.490   0.354
67100W        W35430  36.361  15.135  14.955
67101W        W35431  26.084  17.800   1.841
67102W        W35432   2.736  17.185  10.948
67103W        W35433  28.620  40.437   2.266
67104W        W35434  11.243  21.084  11.063
67105W        W35435  36.544  29.490   0.776
67106W        W35436  33.071  21.712  12.897
67107W        W35437  19.196   8.709  12.348
67108W        W35438  25.697   4.869   4.729
67109W        W35439  12.848  21.625  11.522
67110W        W35440  42.912   3.781   1.885
67111W        W35441  24.715  27.654   4.643
67112W        W35442  10.288   1.804   1.823
67113W        W35443   7.393  41.520   4.271
67114W        W35444  23.611  24.667  14.982
67115W        W35445  27.462   2.423  12.436
67116W        W35446  27.972  43.342   4.757
67117W        W35447  27.601  33.610   5.289
67118W        W35448  39.462   7.895  11.089
67119W        W35449  41.840  15.665   4.658
67120W        W35450  21.677  30.640  13.480
67121W        W35451  22.055  21.690  12.829
67122W        W35452  40.516  39.320   3.760
67123W        W35453  20.192  43.377   4.673
67124W        W35454   5.813   6.681  14.825
67125W        W35455  36.592  44.318   4.691
67126W        W35456   3.404  18.187  12.373
67127W        W35457  34.002  26.663  11.579
67128W        W35458  34.511  28.003  11.520
67129W        W35459  40.406  20.255  11.890
67130W        W35460  43.511  31.482   3.173
67131W        W35461  14.604   6.759   1.778
67132W        W35462   2.350  31.072   0.470
67133W        W35463  27.504   6.285  11.861
67134W        W35464   7.844  35.954   0.925
67135W        W35465  41.441   4.842   3.299
67136W        W35466   9.793   2.878  12.520
67137W        W35467   0.468  29.640   1.295
67138W        W35468  17.245  19.613  11.063
67139W        W35469  14.671  15.691  13.333
67140W        W35470  17.741  25.569   1.754
67141W        W35471  34.578  27.086   2.748
67142W        W35472  27.671   5.303   2.896
67143W        W35473   6.718  41.368   1.744
67144W        W35474  26.108  35.015   2.212
67145W        W35475  17.731  14.265  13.043
67146W        W35476  40.001   6.276   0.737
67147W        W35477  36.455  34.427  13.813
67148W        W35478   1.824   5.745   2.675
67149W        W35479  38.835  11.789   3.159
67150W        W35480  28.957  43.768  14.281
67151W        W35481  37.371   8.790   0.911
67152W        W35482  27.061  35.091  14.926
67153W        W35483   4.809  26.032   4.654
67154W        W35484  38.485  44.912   4.601
67155W        W35485  25.004  18.574  10.518
67156W        W35486  19.124   0.333  10.445
67157W        W35487  14.798  18.660  14.359
67158W        W35488  26.989  30.026  13.882
67159W        W35489  40.881  36.961  10.913
67160W        W35490  44.895  41.035  10.455
67161W        W35491  32.126  31.124  11.094
67162W        W35492  36.051  13.234   4.643
67163W        W35493  40.872  15.185  14.334
67164W        W35494  26.151  35.858  12.011
67165W        W35495  19.695  19.284   3.353
67166W        W35496  12.727  39.522   4.761
67167W        W35497  15.151   5.687   4.181
67168W        W35498  12.745  24.071   3.332
67169W        W35499  21.194   8.722  11.944
67170W        W35500  36.051  21.071  12.524
67171W        W35501  30.098  25.058  14.513
67172W        W35502   0.953  26.683   4.188
67173W        W35503  31.105  19.051   1.764
67174W        W35504  20.152   1.291  10.524
67175W        W35505  44.291  35.090  13.034
67176W        W35506  43.916   4.431  13.841
67177W        W35507  43.498  21.026  11.943
67178W        W35508   4.228  23.229  10.515
67179W        W35509  35.016  42.385   1.441
67180W        W35510  35.366   5.754  13.941
67181W        W35511  43.513  43.895  11.481
67182W        W35512  20.611  44.946   2.871
67183W        W35513  26.143   2.242  13.308
67184W        W35514  23.533  40.916  11.065
67185W        W35515  13.784  18.658   4.261
67186W        W35516  22.106   2.288  14.859
67187W        W35517  41.379  18.766  10.430
67188W        W35518  35.923  22.169   4.714
67189W        W35519  11.341  41.326  13.018
67190W        W35520  16.624  40.977  14.965
67191W        W35521  16.762   7.271   4.271
67192W        W35522   8.664   2.851  11.435
67193W        W35523  33.913  16.164  13.806
67194W        W35524  17.722  10.231   4.774
67195W        W35525  38.886  14.244  12.352
67196W        W35526  29.547  16.297  14.902
67197W        W35527   9.257  20.725  12.093
67198W        W35528  37.424   9.381   1.361
67199W        W35529   7.369  23.215  11.399
67200W        W35530  28.666   3.773   2.206
67201W        W35531  32.552  42.505  14.766
67202W        W35532  27.151  23.620  13.328
67203W        W35533   9.236   7.357  11.464
67204W        W35534  11.267  23.174   1.407
67205W        W35535   5.794   3.428   3.295
67206W        W35536  24.071  39.014  13.802
67207W        W35537   0.807   8.366   4.823
67208W        W35538  31.437  19.546  11.544
67209W        W35539  17.711   7.173  14.375
67210W        W35540  22.717  28.079   0.436
67211W        W35541  10.202  27.958   4.806
67212W        W35542  20.078  36.539   4.623
67213W        W35543  24.981  40.390  10.439
67214W        W35544  18.685  25.058  14.784
67215W        W35545  29.944  37.914  11.117
67216W        W35546  10.154   3.259  13.396
67217W        W35547  12.281  29.971  11.550
67218W        W35548  21.080  25.169  11.940
67219W        W35549   8.854  34.026  12.040
67220W        W35550  42.859   3.803   4.667
67221W        W35551  23.041   5.761   0.454
67222W        W35552   5.293  29.073   4.348
67223W        W35553   1.809  23.694  12.579
67224W        W35554  23.039  12.652   0.906
67225W        W35555  14.118  37.867   1.695
67226W        W35556  36.868  16.805   2.684
67227W        W35557  18.624   8.796   2.294
67228W        W35558  34.027  42.966   4.306
67229W        W35559  26.566  33.005   1.786
67230W        W35560   1.356  31.573  13.050
67231W        W35561  15.299   9.694  10.412
67232W        W35562  11.783  38.355  10.059
67233W        W35563  20.206  16.621  11.035
67234W        W35564  12.771  19.695   0.848
67235W        W35565  43.437  35.077   4.119
67236W        W35566  36.062   5.299  13.515
67237W        W35567  19.164  25.703  13.028
67238W        W35568  23.995   1.971   4.831
67239W        W35569  40.530   1.478  13.366
67240W        W35570  36.916   2.898   4.722
67241W        W35571  41.309  23.549   4.149
67242W        W35572  12.264  31.136  13.993
67243W        W35573   3.364  27.622  11.949
67244W        W35574  14.131  14.832   1.389
67245W        W35575  18.114  20.574   2.213
67246W        W35576  28.527  21.725  10.976
67247W        W35577  33.945  34.530   2.272
67248W        W35578  14.273  27.098  14.993
67249W        W35579  14.275   2.304  13.862
67250W        W35580  39.424  30.503   2.310
67251W        W35581  18.222   9.219   3.187
67252W        W35582  43.400  37.515   1.383
67253W        W35583  28.554   5.428   2.321
67254W        W35584  27.623  34.909   4.210
67255W        W35585  38.498  13.636   4.240
67256W        W35586  19.043  43.360   2.350
67257W        W35587   0.829  36.081   4.759
67258W        W35588   4.775  18.135   3.654
67259W        W35589  21.162   2.240   2.721
67260W        W35590   3.425  19.069  12.512
67261W        W35591  18.785  23.490   0.810
67262W        W35592  20.162   6.728  11.931
67263W        W35593  31.543   5.748  14.031
67264W        W35594   1.477  11.265   0.905
67265W        W35595  16.078  31.037   4.137
67266W        W35596  17.729   6.681   1.384
67267W        W35597  26.609   9.863  10.950
67268W        W35598   5.345  13.621   0.884
67269W        W35599  28.035   7.267   4.804
67270W        W35600  43.863  17.597   0.452
67271W        W35601  43.988   2.442   1.308
67272W        W35602  26.685  30.541   2.271
67273W        W35603  22.682  24.069  14.457
67274W        W35604  32.108  23.534  11.597
67275W        W35605  31.590  32.604   0.780
67276W        W35606  38.554  33.051   1.237
67277W        W35607  43.428  16.590  11.968
67278W        W35608   3.252  38.512   1.287
67279W        W35609  28.615   4.836  12.001
67280W        W35610   4.437  12.241   2.276
67281W        W35611  15.733  43.394   2.196
67282W        W35612  30.989  12.305   4.303
67283W        W35613  37.963  38.820   2.185
67284W        W35614   1.844  28.509   3.173
67285W        W35615  11.643  42.957  14.017
67286W        W35616  29.065  43.337   4.617
67287W        W35617   0.353  17.756   1.910
67288W        W35618   3.224   2.836  13.364
67289W        W35619  17.760  30.482  13.004
67290W        W35620  19.692  13.833   2.297
67291W        W35621  42.017  12.337  12.920
67292W        W35622  35.582  36.398   0.290
67293W        W35623  26.021   6.766   1.833
67294W        W35624  37.858  22.586   4.665
67295W        W35625  14.667  11.760   2.771
67296W        W35626  37.444   6.237  14.785
67297W        W35627  15.584   0.429  14.901
67298W        W35628  28.616  27.593   0.747
67299W        W35629  36.587   7.694   1.914
67300W        W35630   5.240   0.813  14.429
67301W        W35631  44.316   7.269  13.522
67302W        W35632  33.610  34.559   3.369
67303W        W35633  32.543  40.398   4.236
67304W        W35634   1.772  10.139   1.396
67305W        W35635  31.577  12.172  13.520
67306W        W35636  41.353   5.401  11.527
67307W        W35637   9.807   5.836   1.832
67308W        W35638  12.824  23.090   1.830
67309W        W35639  23.496  25.173   1.780
67310W        W35640   7.756  42.401  13.469
67311W        W35641  12.135  29.428  11.600
67312W        W35642  13.790  36.077   3.215
67313W        W35643  10.640  19.691   1.397
67314W        W35644  13.107  17.733  13.987
67315W        W35645  17.205  15.256   0.775
67316W        W35646  32.117  23.675   3.291
67317W        W35647  20.033  31.643   0.452
67318W        W35648  29.572  12.805   3.301
67319W        W35649  10.673  30.952  10.458
67320W        W35650   8.772  38.853  10.460
67321W        W35651  32.096  18.092  14.389
67322W        W35652  14.791  12.769  12.022
67323W        W35653   5.759  30.151  14.017
67324W        W35654   5.282  36.400  10.405
67325W        W35655  25.619   1.369   2.250
67326W        W35656  13.155   1.833   1.444
67327W        W35657  43.913  24.194  10.537
67328W        W35658  12.706  38.994   3.289
67329W        W35659  30.957  27.469  14.928
67330W        W35660  30.142   1.970  12.016
67331W        W35661   6.679  30.008  11.600
67332W        W35662   4.371   8.819   3.170
67333W        W35663  39.388  35.557   4.658
67334W        W35664  38.974  12.743   3.816
67335W        W35665  42.352   7.261   4.263
67336W        W35666   9.302   2.441   3.681
67337W        W35667  30.502  22.653   2.789
67338W        W35668  11.863  27.162   2.783
67339W        W35669  14.686  30.570  12.029
67340W        W35670  23.662  17.583  14.880
67341W        W35671  28.571  13.725   1.891
67342W        W35672  14.330   8.771  13.882
67343W        W35673  15.118  12.172  14.980
67344W        W35674  39.923   5.727  11.909
67345W        W35675  11.733  22.676  10.109
67346W        W35676  43.348  22.572   3.299
67347W        W35677  40.936  24.177  11.874
67348W        W35678  21.735  38.437  13.835
67349W        W35679   3.903  24.562  14.508
67350W        W35680  39.037  42.329  13.539
67351W        W35681   1.329  24.192   3.333
67352W        W35682  34.415  26.605   1.261
67353W        W35683  38.921  31.503  10.935
67354W        W35684  44.944   8.224  11.000
67355W        W35685  38.973   1.757   4.145
67356W        W35686  37.354  39.340  13.032
67357W        W35687  33.112  40.014   0.397
67358W        W35688  28.008  31.967   0.883
67359W        W35689  41.918   4.376   4.348
67360W        W35690   0.430  24.604   0.302
67361W        W35691  31.034  42.017  12.931
67362W        W35692  18.593   9.695  12.849
67363W        W35693  12.719  16.112  13.983
67364W        W35694  15.265  39.465   2.867
67365W        W35695  32.462  39.882   3.269
67366W        W35696  44.967   5.252  13.862
67367W        W35697   6.228  13.638   3.341
67368W        W35698   6.301  15.763  11.948
67369W        W35699  32.927  35.074   3.854
67370W        W35700  30.566   3.919   0.763
67371W        W35701  17.724  40.525  12.957
67372W        W35702  35.521  12.205   4.325
67373W        W35703   6.378  36.409  11.915
67374W        W35704  13.189  28.675  13.021
67375W        W35705  38.359   2.262   4.758
67376W        W35706  11.623  35.963   0.810
67377W        W35707   7.367  43.821  12.016
67378W        W35708  34.984   8.832  10.430
67379W        W35709  23.156   0.358   1.749
67380W        W35710  14.622  36.013   2.666
67381W        W35711  32.924  30.417   4.213
67382W        W35712  32.922   2.837  10.578
67383W        W35713  24.177   3.433  10.423
67384W        W35714  20.658  23.704  11.881
67385W        W35715  19.681  25.184   2.883
67386W        W35716  35.437  24.078   2.763
67387W        W35717  10.765  44.954   4.202
67388W        W35718   7.890  24.017   1.423
67389W        W35719  29.067  42.898  12.026
67390W        W35720  16.082  14.121  14.362
67391W        W35721  11.187   4.266  11.987
67392W        W35722  25.047   5.405  11.532
67393W        W35723  27.684  21.151   4.773
67394W        W35724  31.592  12.320   4.720
67395W        W35725  10.149  42.817   4.767
67396W        W35726  12.638  13.715  12.443
67397W        W35727  15.293  30.128   0.887
67398W        W35728  22.028  24.136  12.997
67399W        W35729  15.297  33.939   3.298
67400W        W35730  10.192  21.171   4.667
67401W        W35731  18.693  44.942   2.295
67402W        W35732  35.032   2.424   3.688
67403W        W35733  25.666  36.567   4.287
67404W        W35734  40.012  30.496  13.003
67405W        W35735  16.578   4.894  14.433
67406W        W35736   7.192  45.000  11.068
67407W        W35737  42.868   6.742   0.734
67408W        W35738  34.569  11.277   0.282
67409W        W35739  32.920  22.682  14.388
67410W        W35740  18.673  20.064  12.831
67411W        W35741   6.706  40.329  14.914
67412W        W35742   5.736  40.978  12.945
67413W        W35743   3.923  43.867   2.795
67414W        W35744  17.061   9.720   4.694
67415W        W35745  41.461  28.511   2.840
67416W        W35746  31.911  34.559  13.844
67417W        W35747  11.703  29.034  14.321
67418W        W35748  37.968  42.778  13.920
67419W        W35749  40.367  36.986   3.747
67420W        W35750   6.260  13.767  13.806
67421W        W35751  36.406  12.280   3.669
67422W        W35752  29.465  31.027   3.668
67423W        W35753  40.440  12.231  12.550
67424W        W35754  44.492  36.529  11.465
67425W        W35755  22.698  24.188  12.561
67426W        W35756  26.060  10.744  13.405
67427W        W35757  42.364  24.513  13.901
67428W        W35758  42.337  14.211  12.557
67429W        W35759  36.480  40.047  12.524
67430W        W35760  23.211  27.521   0.759
67431W        W35761  26.561  16.567   4.196
67432W        W35762  44.475  13.113  14.431
67433W        W35763  20.736  24.005   4.682
67434W        W35764  37.982  18.096  14.407
67435W        W35765  21.585  34.062   4.351
67436W        W35766  15.705  26.047   2.258
67437W        W35767   3.943  20.692  14.417
67438W        W35768  24.010  44.938   2.829
67439W        W35769  41.930  25.195   2.306
67440W        W35770  39.051  20.190   3.299
67441W        W35771  39.332   1.763   1.784
67442W        W35772   8.798   3.330   1.282
67443W        W35773  31.618  16.162  12.966
67444W        W35774  23.572  41.538   3.711
67445W        W35775  13.828  31.508   2.380
67446W        W35776  29.521  38.349   2.178
67447W        W35777  39.011  42.945   0.438
67448W        W35778  43.477  10.779   1.333
67449W        W35779  39.443  37.431   0.726
67450W        W35780  35.035  32.126  13.345
67451W        W35781  10.752  40.540  13.011
67452W        W35782   5.706  37.946   4.630
67453W        W35783  34.976   8.338   0.250
67454W        W35784  44.274  44.850  11.860
67455W        W35785  41.456   5.844   2.227
67456W        W35786  34.995  31.491  12.968
67457W        W35787  42.310   5.224  13.396
67458W        W35788  29.436  11.361  11.573
67459W        W35789  35.107  37.053  12.424
67460W        W35790  34.590   0.825  14.332
67461W        W35791  23.215  12.145  13.308
67462W        W35792  44.347   8.841   4.693
67463W        W35793  30.958  44.769   1.258
67464W        W35794  32.608   6.908   2.334
67465W        W35795  21.589  25.160  12.862
67466W        W35796  15.137  44.980   0.395
67467W        W35797  31.073  31.951   0.744
67468W        W35798   2.340  43.951   1.719
67469W        W35799   9.285  38.397  14.955
67470W        W35800  17.693   5.422   2.780
67471W        W35801   1.876  19.627   2.709
67472W        W35802  29.075  18.074  11.600
67473W        W35803  29.167   2.964   4.349
67474W        W35804  23.205  30.554  14.811
67475W        W35805  31.533  35.539   2.784
67476W        W35806  41.805  44.884   2.283
67477W        W35807  13.286   2.961   1.782
67478W        W35808   0.331  14.259   3.749
67479W        W35809  18.734   6.753   1.310
67480W        W35810  35.855  27.015   2.689
67481W        W35811  29.937   4.829   2.389
67482W        W35812  40.397  26.467   3.276
67483W        W35813  17.188  41.003   4.237
67484W        W35814  15.161  20.101  13.438
67485W        W35815  33.601  37.055  14.275
67486W        W35816  25.185  17.789   3.269
67487W        W35817  11.213   8.273   3.327
67488W        W35818   2.863  19.659  12.830
67489W        W35819  21.199  44.901   0.246
67490W        W35820  20.203  36.580   1.345
67491W        W35821   2.938  19.651   2.307
67492W        W35822  37.058  21.523   0.844
67493W        W35823  10.770   4.863  13.864
67494W        W35824  19.161  43.847   3.654
67495W        W35825  34.106  24.185  10.601
67496W        W35826  13.735   4.850  11.066
67497W        W35827  28.961  24.587   1.716
67498W        W35828   3.781  11.271  11.961
67499W        W35829  37.907  32.986   1.736
67500W        W35830  18.129  41.525   1.872
67501W        W35831   0.317  24.533   4.610
67502W        W35832  26.572  37.973  14.296
67503W        W35833  36.506   2.302   1.930
67504W        W35834  33.562  15.577  13.487
67505W        W35835  12.321   6.781   1.794
67506W        W35836  18.780  27.074   2.195
67507W        W35837  20.210  30.006  14.779
67508W        W35838  13.284  32.934  11.417
67509W        W35839   2.409  41.515  12.945
67510W        W35840  27.150   2.945   1.291
67511W        W35841  20.549   6.795   9.599
67512W        W35842  12.617  41.534   4.744
67513W        W35843  18.242   5.393  11.466
67514W        W35844  35.863   5.802   4.324
67515W        W35845  19.618  23.105   1.765
67516W        W35846  15.605   0.825  12.994
67517W        W35847  31.415  23.512   4.717
67518W        W35848  22.664  37.571   3.366
67519W        W35849  22.210  26.029  13.379
67520W        W35850   8.864  35.934   1.295
67521W        W35851  14.689  34.412  13.868
67522W        W35852   4.744  14.158   1.741
67523W        W35853  44.400  36.007   1.432
67524W        W35854  17.762  38.051  11.959
67525W        W35855  42.962  41.384   1.323
67526W        W35856  39.345   5.846  11.113
67527W        W35857  26.967   1.841  12.368
67528W        W35858  41.035  12.288  14.884
67529W        W35859  17.107  18.293  13.814
67530W        W35860  18.292  14.701  10.957
67531W        W35861  43.432  19.132   4.204
67532W        W35862  10.773  10.769   4.206
67533W        W35863  25.482   9.308  12.005
67534W        W35864  18.132  28.973  12.377
67535W        W35865  24.552   0.826  10.960
67536W        W35866   7.286  28.157   0.363
67537W        W35867  12.360  32.006  14.892
67538W        W35868  28.623  17.597   1.328
67539W        W35869  12.188  11.755  12.093
67540W        W35870  43.787  23.533  11.859
67541W        W35871  36.566  44.884  12.422
67542W        W35872  32.908  28.541   0.437
67543W        W35873  19.740  13.772  14.297
67544W        W35874   8.840  37.042   1.417
67545W        W35875   4.416   4.754   0.308
67546W        W35876  18.111   9.858  11.090
67547W        W35877  42.959  37.987  14.400
67548W        W35878   8.228  41.386   1.417
67549W        W35879  42.978  29.077   2.407
67550W        W35880  10.820  35.042  13.955
67551W        W35881  13.672  32.449   2.256
67552W        W35882   4.898  40.800  12.453
67553W        W35883  32.924  19.756   2.195
67554W        W35884  41.297  20.640  11.078
67555W        W35885  29.110  12.672  14.900
67556W        W35886  26.966  23.207  14.842
67557W        W35887  21.053  21.237  10.949
67558W        W35888  31.043   5.813   0.837
67559W        W35889  24.074   1.340  13.533
67560W        W35890  30.607   7.899  12.887
67561W        W35891  34.542  24.042  11.093
67562W        W35892  44.466  31.461  14.813
67563W        W35893  44.381  15.641   3.326
67564W        W35894  36.050  18.156  12.946
67565W        W35895  37.914   3.890   4.294
67566W        W35896  15.273  34.947  14.294
67567W        W35897   9.232  25.054  14.445
67568W        W35898   2.825  18.774  11.432
67569W        W35899  23.035  41.029  14.307
67570W        W35900  14.608  22.540  12.027
67571W        W35901  21.245  30.652  12.464
67572W        W35902  41.318  12.243  12.554
67573W        W35903   4.701  35.964   5.306
67574W        W35904  19.676  26.654  11.608
67575W        W35905  14.648  28.500   1.337
67576W        W35906  14.132   2.806  14.912
67577W        W35907   7.680   8.691   2.326
67578W        W35908  42.974  18.766   1.229
67579W        W35909   7.671  40.417   5.191
67580W        W35910  33.606  21.620   3.385
67581W        W35911  22.218  10.879   4.152
67582W        W35912  26.481  44.789   4.204
67583W        W35913  32.417  22.232   5.297
67584W        W35914   6.427  32.502  12.937
67585W        W35915  40.028  27.492   3.236
67586W        W35916   3.363   7.355   2.312
67587W        W35917  42.500  24.130  10.496
67588W        W35918  26.051  10.712  12.006
67589W        W35919  23.096  44.773  12.481
67590W        W35920  31.957  38.072  10.425
67591W        W35921  31.061  35.939   4.794
67592W        W35922  37.898   3.444  14.854
67593W        W35923  43.474  28.503  14.014
67594W        W35924   6.849  23.192  10.523
67595W        W35925  39.925  23.693  14.834
67596W        W35926  30.160   0.946  14.428
67597W        W35927  29.158  27.126   1.233
67598W        W35928  39.846  37.539   4.800
67599W        W35929  22.697  24.009   0.262
67600W        W35930  35.478  12.833   1.881
67601W        W35931  28.028  32.101   5.109
67602W        W35932  26.159  26.156   1.406
67603W        W35933  21.204  23.149  10.986
67604W        W35934  40.358  30.987   2.386
67605W        W35935  11.678  11.283   0.957
67606W        W35936  11.149  31.617  14.937
67607W        W35937  32.448  18.774   0.734
67608W        W35938   5.366   1.407  11.915
67609W        W35939  26.965  36.515   2.354
67610W        W35940  16.803  20.769  11.039
67611W        W35941  13.635  41.517   2.835
67612W        W35942  31.077   0.880   4.325
67613W        W35943  41.891  23.212   2.801
67614W        W35944  30.472  31.550   0.764
67615W        W35945   9.826  23.095  14.944
67616W        W35946  36.965   0.249   1.717
67617W        W35947   9.867  29.652  11.970
67618W        W35948   0.374  26.209   2.893
67619W        W35949  18.639  26.142  12.403
67620W        W35950  33.082   9.654  12.888
67621W        W35951  37.508  17.265   1.286
67622W        W35952   9.154  17.745   2.814
67623W        W35953  24.226  43.021   4.256
67624W        W35954  19.692  33.036   0.906
67625W        W35955  37.068  18.545   1.910
67626W        W35956  18.639  16.131   3.837
67627W        W35957  15.315  38.010   4.287
67628W        W35958   6.683  12.168  13.357
67629W        W35959  39.546  18.691  11.884
67630W        W35960  11.749  14.749   3.734
67631W        W35961  39.852  13.778   2.359
67632W        W35962  40.975  39.828  11.562
67633W        W35963  20.619  41.025   3.266
67634W        W35964   9.284  13.765  10.917
67635W        W35965  36.077  43.287  14.784
67636W        W35966   3.834  28.177   4.742
67637W        W35967   1.738  20.083   1.354
67638W        W35968  42.021  14.647   0.937
67639W        W35969  38.460   3.380   1.268
67640W        W35970  37.948  23.653   4.640
67641W        W35971  33.023  31.037   2.233
67642W        W35972   6.405  37.495   1.415
67643W        W35973   1.249  12.722  13.889
67644W        W35974  27.551   5.238   1.743
67645W        W35975  14.725  27.519  12.528
67646W        W35976  21.720  33.493   3.798
67647W        W35977  34.870   8.671  10.958
67648W        W35978  32.549  20.595  14.894
67649W        W35979   6.706  32.984   2.739
67650W        W35980  36.495   2.866   2.223
67651W        W35981  18.594  35.445   1.868
67652W        W35982   0.833  10.274  11.406
67653W        W35983  36.437  34.099   2.727
67654W        W35984  18.121  36.448  14.802
67655W        W35985  18.573  19.563  10.543
67656W        W35986  24.125   3.889   4.114
67657W        W35987  20.623  29.451   4.186
67658W        W35988   6.197  35.406  14.401
67659W        W35989  21.170  36.430  11.611
67660W        W35990   9.213  25.209   5.289
67661W        W35991   8.212  41.535  11.033
67662W        W35992   0.837  27.525  12.357
67663W        W35993  41.447  17.130   1.710
67664W        W35994  36.451  31.011  10.615
67665W        W35995   9.381  12.620  10.891
67666W        W35996  25.092  22.545   4.773
67667W        W35997  41.432  30.596   2.865
67668W        W35998  10.197   7.827   3.181
67669W        W35999  27.188   1.329   0.949
67670W        W36000  35.567   1.959  13.935
67671W        W36001  15.265   9.682  13.370
67672W        W36002  29.961  15.212  14.477
67673W        W36003  30.425   7.679  11.550
67674W        W36004   5.330  35.535  11.416
67675W        W36005  44.899  28.090   1.903
67676W        W36006  20.228  10.871   1.413
67677W        W36007  14.834  19.602  12.453
67678W        W36008  38.554  37.877  10.527
67679W        W36009  15.651  41.933  11.528
67680W        W36010  35.027  42.857   1.423
67681W        W36011  16.612   7.672  13.368
67682W        W36012  34.443  28.594   2.687
67683W        W36013  40.943  15.693   1.904
67684W        W36014  22.006  16.220  11.493
67685W        W36015  16.805   4.307  13.505
67686W        W36016  20.620   8.221   4.218
67687W        W36017  28.581  13.109   4.808
67688W        W36018  40.927   2.820   4.332
67689W        W36019   4.851  34.929   0.391
67690W        W36020  27.119   8.738  14.767
67691W        W36021  44.807  13.601  13.001
67692W        W36022  37.875  25.992  13.343
67693W        W36023  23.670  34.103  10.587
67694W        W36024   4.883   1.385   0.375
67695W        W36025  22.238  20.668   1.257
67696W        W36026  19.166  42.469   3.239
67697W        W36027  15.120  30.605   4.272
67698W        W36028   2.432  28.172  12.052
67699W        W36029  31.408  30.994  12.948
67700W        W36030  37.975  22.140  11.548
67701W        W36031   2.781  10.216  11.085
67702W        W36032  32.080  22.515   2.876
67703W        W36033  27.985   7.681   2.199
67704W        W36034   6.690   0.854   3.797
67705W        W36035  28.472  20.629   3.214
67706W        W36036  10.346  28.517   3.686
67707W        W36037  40.990  34.465   3.192
67708W        W36038  43.496  12.816   2.243
67709W        W36039  36.941  13.827  11.104
67710W        W36040  36.391   5.415   4.706
67711W        W36041  27.536   4.799   2.275
67712W        W36042  44.425   5.348  13.379
67713W        W36043   5.810  37.475  12.082
67714W        W36044  44.843  40.383  11.504
67715W        W36045  38.357  36.422  12.447
67716W        W36046   6.834  41.899   4.154
67717W        W36047  33.048  25.580  14.467
67718W        W36048  16.657   0.902  13.818
67719W        W36049  28.124  12.732   3.793
67720W        W36050  23.219  15.323   4.190
67721W        W36051  30.936  28.541  13.942
67722W        W36052  20.249  35.975   1.233
67723W        W36053  12.627  17.171  14.307
67724W        W36054  23.114  23.679   1.913
67725W        W36055  17.565   9.165  10.619
67726W        W36056   2.736  39.829   1.326
67727W        W36057  11.330  25.028   1.421
67728W        W36058   6.866  14.688  11.985
67729W        W36059  29.114  36.975   3.634
67730W        W36060  39.339  33.503   0.305
67731W        W36061  20.579   8.694  13.472
67732W        W36062  35.108  36.864   1.423
67733W        W36063  29.476  11.736   5.276
67734W        W36064  13.335  38.037   0.816
67735W        W36065  28.579  43.877   0.431
67736W        W36066  41.450  33.457   0.812
67737W        W36067  17.762  15.594  12.346
67738W        W36068  19.110  24.529   2.691
67739W        W36069  11.788  17.259  11.536
67740W        W36070  24.064  31.611  13.800
67741W        W36071  20.187   1.785   0.777
67742W        W36072  39.403  38.826  12.838
67743W        W36073  44.946  20.563  14.496
67744W        W36074  23.096  34.925  11.498
67745W        W36075  16.714  34.873   4.753
67746W        W36076  29.142  35.363  13.495
67747W        W36077  34.093  35.064  10.109
67748W        W36078   2.457  30.163   3.178
67749W        W36079  10.863  37.377   1.701
67750W        W36080  20.617   5.245   1.799
67751W        W36081  30.044   0.358  13.398
67752W        W36082   5.799  44.816  11.922
67753W        W36083  10.326   1.747  14.287
67754W        W36084   6.776   7.263  14.878
67755W        W36085   8.692   4.939   4.731
67756W        W36086  34.902   6.770   4.225
67757W        W36087  34.380  12.343   4.114
67758W        W36088  41.926   6.713   2.855
67759W        W36089  18.122  41.438   2.221
67760W        W36090  37.835  38.533   1.885
67761W        W36091  13.293  33.027  12.460
67762W        W36092  35.973  33.479   1.384
67763W        W36093  12.263   0.804  12.514
67764W        W36094  26.164  39.858  12.965
67765W        W36095  25.624   8.886   0.379
67766W        W36096  18.778  21.114  11.022
67767W        W36097  25.066   0.430  10.431
67768W        W36098  13.647   6.677   2.249
67769W        W36099  20.207  26.464   4.233
67770W        W36100   0.450  32.505   3.668
67771W        W36101  38.043  23.180   2.726
67772W        W36102   2.301  16.699   2.706
67773W        W36103  29.445   9.366  14.320
67774W        W36104  14.102   1.393  12.008
67775W        W36105   3.786   1.354   3.287
67776W        W36106   7.190  33.405  13.463
67777W        W36107  12.623  14.726   0.815
67778W        W36108   7.202  39.883   1.829
67779W        W36109  33.454  30.412  12.083
67780W        W36110  39.002  12.619   3.326
67781W        W36111  27.488  42.329   2.290
67782W        W36112   4.752  36.878   4.830
67783W        W36113  18.733  34.515   3.383
67784W        W36114  18.581   0.344   9.957
67785W        W36115  19.638   8.711   0.339
67786W        W36116   4.317  31.133   3.710
67787W        W36117   5.901  42.825  12.879
67788W        W36118  43.829  19.099   2.233
67789W        W36119  40.873  41.809   3.841
67790W        W36120  11.624   8.292  10.051
67791W        W36121  43.913  36.350   0.406
67792W        W36122  22.746  31.916  12.093
67793W        W36123  34.598  38.530  12.455
67794W        W36124  13.256  44.954   2.846
67795W        W36125   9.392   4.736   1.708
67796W        W36126  39.990  32.915  12.340
67797W        W36127  10.797  35.044   3.736
67798W        W36128  34.944  24.077  12.409
67799W        W36129  25.989  21.191   3.221
67800W        W36130   4.825  25.494  14.886
67801W        W36131  22.101  23.651  13.355
67802W        W36132  16.771   8.854   1.375
67803W        W36133  28.637  26.560   2.279
67804W        W36134  27.021  37.990  11.031
67805W        W36135  38.035   2.395   4.663
67806W        W36136  42.397  15.686   0.463
67807W        W36137   9.835  41.291  14.462
67808W        W36138  25.478   9.723  13.967
67809W        W36139  42.357   4.437  11.563
67810W        W36140  14.741  28.651  11.498
67811W        W36141  24.654   9.862  14.847
67812W        W36142  43.274  28.576   3.772
67813W        W36143  28.464  24.156   3.864
67814W        W36144   3.412  10.332  11.431
67815W        W36145  14.251  18.722   5.274
67816W        W36146  14.660  37.034   3.276
67817W        W36147  28.644  39.053  10.617
67818W        W36148  20.682  10.774   1.834
67819W        W36149  28.146   9.679   2.393
67820W        W36150   9.733  13.308   4.683
67821W        W36151  31.422   3.883  14.823
67822W        W36152   1.481   5.736  14.304
67823W        W36153  34.054  12.705   1.729
67824W        W36154   9.276   9.881  12.832
67825W        W36155  37.481   4.374  10.061
67826W        W36156  42.498  29.921   4.737
67827W        W36157  16.268  38.445  13.478
67828W        W36158   9.782  19.269   1.297
67829W        W36159  10.189  17.204   2.871
67830W        W36160  30.926  41.881   3.283
67831W        W36161   7.724   0.944  11.969
67832W        W36162   1.365  17.234   0.481
67833W        W36163  33.063  35.496   0.860
67834W        W36164   1.740  17.216  12.417
67835W        W36165   7.893   0.948   0.281
67836W        W36166   0.341  29.059   0.922
67837W        W36167   2.816   3.279   1.899
67838W        W36168   6.767  37.455   2.761
67839W        W36169  27.141  41.829  14.334
67840W        W36170  41.365   1.478   3.636
67841W        W36171   4.229  34.393  13.806
67842W        W36172  34.973  13.323  12.925
67843W        W36173  10.857  18.764   0.254
67844W        W36174   0.773  18.064   1.353
67845W        W36175  33.961   6.894   1.749
67846W        W36176  40.874  17.269   4.223
67847W        W36177   3.359  36.976   9.675
67848W        W36178   5.912  33.978  10.502
67849W        W36179  36.577  16.663  13.943
67850W        W36180   2.270  26.685  13.510
67851W        W36181  15.648  17.235   2.767
67852W        W36182  39.024  14.699  12.884
67853W        W36183  21.698  30.445   4.727
67854W        W36184   6.283  21.077  10.545
67855W        W36185  29.093  33.934  14.839
67856W        W36186  44.906   4.402  11.549
67857W        W36187  13.285  29.054  10.940
67858W        W36188  40.385  26.034  13.540
67859W        W36189  21.598  31.898   2.718
67860W        W36190  28.947   5.850   0.962
67861W        W36191  21.603   7.283   9.473
67862W        W36192  24.693  17.141   1.359
67863W        W36193  40.380  32.978  14.843
67864W        W36194   2.813  25.993   4.816
67865W        W36195   4.733  18.769   1.697
67866W        W36196  10.291   0.439  11.513
67867W        W36197   8.176   3.901   4.682
67868W        W36198   1.787  23.622  10.595
67869W        W36199  12.845  38.499  11.103
67870W        W36200  42.414   2.347  14.348
67871W        W36201   8.314  27.548   0.738
67872W        W36202  40.493  33.924  11.939
67873W        W36203  34.874   7.779   1.933
67874W        W36204  44.990  15.667   2.249
67875W        W36205  11.862  37.387   4.234
67876W        W36206   6.366  41.010  14.905
67877W        W36207  24.198  36.431  11.586
67878W        W36208   5.902  15.807   3.739
67879W        W36209  14.175  41.439   2.801
67880W        W36210   0.311  19.650   0.909
67881W        W36211  42.363   9.875   3.772
67882W        W36212  25.076  37.932  11.923
67883W        W36213   9.184  42.372   3.271
67884W        W36214   5.193  43.776  12.410
67885W        W36215  27.174  17.634  12.045
67886W        W36216   0.920  17.726   3.724
67887W        W36217  32.987   9.219  13.008
67888W        W36218  23.720  24.980   0.404
67889W        W36219  12.777  23.594   2.407
67890W        W36220  33.049  14.695  14.415
67891W        W36221  25.134   4.355   1.261
67892W        W36222  24.636  33.048  14.027
67893W        W36223  36.989  29.460   2.385
67894W        W36224   2.402  33.942   2.818
67895W        W36225  21.580  37.931  11.034
67896W        W36226   5.276  20.105  10.921
67897W        W36227  11.812   3.412   4.606
67898W        W36228  12.716   9.307  14.901
67899W        W36229  13.245  10.258  14.027
67900W        W36230  29.431  44.405  11.945
67901W        W36231  20.532   5.384   0.278
67902W        W36232   9.282  23.584  10.407
67903W        W36233  35.451  19.547  14.415
67904W        W36234  34.534  24.578   2.708
67905W        W36235  35.930   6.705  10.539
67906W        W36236  10.800  17.087   1.840
67907W        W36237  28.529  44.314  12.354
67908W        W36238   4.806   3.841   2.855
67909W        W36239  20.064  20.131   2.282
67910W        W36240  19.672  30.911  11.102
67911W        W36241  32.886  18.546  11.126
67912W        W36242  29.450  18.097   2.780
67913W        W36243   8.310   0.479  12.459
67914W        W36244   8.395  11.862  11.061
67915W        W36245   0.868  30.976   3.194
67916W        W36246  36.058  13.828  14.308
67917W        W36247  44.994   0.830   4.152
67918W        W36248  33.047  25.058   3.775
67919W        W36249  12.685  21.638   3.633
67920W        W36250  12.181  13.738   1.368
67921W        W36251   7.694  44.404   1.751
67922W        W36252  11.813  24.575  12.576
67923W        W36253   8.843  44.818   1.264
67924W        W36254  33.448  37.531  11.098
67925W        W36255  26.179  22.628   2.297
67926W        W36256  23.610  26.130   3.302
67927W        W36257   1.302  21.620   4.196
67928W        W36258   6.779   4.400   4.234
67929W        W36259  25.149   5.836  11.918
67930W        W36260  30.085  19.619   4.749
67931W        W36261   5.397  18.212  14.954
67932W        W36262  38.943  23.174   1.878
67933W        W36263  34.893  14.133  13.987
67934W        W36264  26.130   3.893   3.776
67935W        W36265  43.007  43.957   2.383
67936W        W36266  25.503  34.565  11.859
67937W        W36267  13.154  41.818   0.863
67938W        W36268   0.902  40.954   0.947
67939W        W36269  39.983   7.887   4.809
67940W        W36270  42.359  34.100   3.765
67941W        W36271   2.860  24.206  14.373
67942W        W36272  26.580  36.487   1.843
67943W        W36273  22.078  25.590   1.918
67944W        W36274   3.728  18.222  10.930
67945W        W36275  31.565  24.122  11.388
67946W        W36276  20.684   6.837   0.251
67947W        W36277  30.146  32.058  11.014
67948W        W36278  18.072  13.776  11.042
67949W        W36279  44.501  21.741   4.281
67950W        W36280  21.191   1.403   4.679
67951W        W36281  11.227  23.617   4.337
67952W        W36282  38.557   5.881   3.752
67953W        W36283   5.292  27.463  14.511
67954W        W36284  25.149  18.154  11.959
67955W        W36285  28.143  14.165  13.848
67956W        W36286  39.899  33.093  14.884
67957W        W36287  29.577  23.071  12.452
67958W        W36288  24.200  23.164  13.058
67959W        W36289  31.529  36.070  10.966
67960W        W36290   1.359  23.001   1.367
67961W        W36291  25.986  26.467  12.088
67962W        W36292  37.035   0.796   1.300
67963W        W36293  33.951   5.760  11.899
67964W        W36294  33.429   7.409  13.331
67965W        W36295   1.844  20.068  12.976
67966W        W36296  43.350   0.828   1.273
67967W        W36297   8.329  23.025  11.418
67968W        W36298  38.840  29.587  12.391
67969W        W36299  28.933  21.668   5.200
67970W        W36300  21.643  44.984   3.773
67971W        W36301   9.338   6.248   3.744
67972W        W36302  25.640  39.910  12.453
67973W        W36303  13.273  32.488   1.415
67974W        W36304  38.965   5.341  11.101
67975W        W36305  19.753  31.071  14.475
67976W        W36306  20.558  17.697   4.325
67977W        W36307   3.420   3.922   4.642
67978W        W36308  31.978  18.648   1.377
67979W        W36309  40.880  16.583   0.912
67980W        W36310  15.180  32.899   1.335
67981W        W36311  19.772   5.325   0.475
67982W        W36312  20.531   2.734   2.280
67983W        W36313   5.239   6.365  11.857
67984W        W36314  18.762   3.814   2.200
67985W        W36315   6.313  15.205   2.334
67986W        W36316  12.249  26.168  10.503
67987W        W36317  21.610  30.111   1.415
67988W        W36318   1.782  17.303  10.420
67989W        W36319  31.442   7.907   2.323
67990W        W36320  13.777  37.528   0.302
67991W        W36321   6.391  41.834  12.535
67992W        W36322  20.114  42.931  11.497
67993W        W36323   8.669  24.019  13.379
67994W        W36324  11.663  30.161  12.836
67995W        W36325  42.475  16.293   0.326
67996W        W36326  17.288  13.348   1.755
67997W        W36327   7.320   6.759  12.422
67998W        W36328   4.319   0.317  14.464
67999W        W36329  11.768  26.555   9.955
68000W        W36330  41.043  38.508  13.420
68001W        W36331  15.746   1.380   1.232
68002W        W36332  22.217  34.532  11.930
68003W        W36333  36.082  16.104   3.656
68004W        W36334  40.374  25.592   3.679
68005W        W36335  22.075   1.811   4.333
68006W        W36336   8.850  43.988   4.784
68007W        W36337  32.476  18.647  13.428
68008W        W36338  29.527  35.365  11.417
68009W        W36339  34.065  34.951   2.331
68010W        W36340  28.623  44.470  13.898
68011W        W36341  11.304  25.105   0.367
68012W        W36342  39.041   9.841   2.722
68013W        W36343   9.673   8.897   1.776
68014W        W36344   1.411  24.993   2.839
68015W        W36345  11.189  30.065   3.295
68016W        W36346  10.669  26.664  13.883
68017W        W36347  31.581  27.174   4.737
68018W        W36348  37.437  12.672  12.482
68019W        W36349  32.496  33.456  14.435
68020W        W36350  44.405  17.572   1.318
68021W        W36351   4.320  25.161   2.680
68022W        W36352  34.427  39.526   0.964
68023W        W36353  15.104  34.403   4.312
68024W        W36354  10.294  27.092   1.278
68025W        W36355  20.086  35.960  14.886
68026W        W36356  26.623  14.834   4.120
68027W        W36357  29.558  36.013  11.875
68028W        W36358  23.627  40.373  14.342
68029W        W36359   2.256  20.675  14.449
68030W        W36360  36.490  21.613   2.711
68031W        W36361   8.869  33.129  10.486
68032W        W36362  43.449   0.259   3.667
68033W        W36363   6.200   0.865  13.036
68034W        W36364  25.577  44.431  12.465
68035W        W36365  31.503   2.266  14.822
68036W        W36366  25.539  30.115   3.857
68037W        W36367  14.817   5.284   1.241
68038W        W36368  33.044  17.714   3.272
68039W        W36369   8.767  14.129   1.756
68040W        W36370  28.181  26.010   2.749
68041W        W36371  44.452  28.668  13.435
68042W        W36372  10.299   6.370   0.962
68043W        W36373  24.613  26.175   1.268
68044W        W36374   2.265  19.670   3.218
68045W        W36375   3.406  37.895   4.299
68046W        W36376  12.666  18.595   3.193
68047W        W36377  10.731  28.497   3.353
68048W        W36378  18.276  12.218   3.802
68049W        W36379  24.705  13.201   2.804
68050W        W36380  43.360  35.959  12.536
68051W        W36381   9.837  12.790   3.252
68052W        W36382   6.274  42.295   3.380
68053W        W36383  26.551   1.820  12.444
68054W        W36384   7.874  25.052   1.698
68055W        W36385   9.235  29.642  14.308
68056W        W36386  17.183   5.703  11.501
68057W        W36387  15.194  17.117  10.593
68058W        W36388  19.585  39.855  13.916
68059W        W36389   7.308  43.928  14.293
68060W        W36390  30.955   9.853   3.369
68061W        W36391  24.034  39.894  10.016
68062W        W36392   2.752  43.966   3.862
68063W        W36393  42.432  15.703  11.075
68064W        W36394  25.136   5.194   0.749
68065W        W36395  40.443  35.587   0.445
68066W        W36396  31.443  42.986   2.300
68067W        W36397  40.963  17.273   0.481
68068W        W36398  40.996  34.949  12.562
68069W        W36399  39.418   7.857   5.757
68070W        W36400  22.743  12.219   2.852
68071W        W36401   7.858  34.444   1.771
68072W        W36402   4.255   3.853   4.683
68073W        W36403  23.080  34.889  12.566
68074W        W36404  23.129  32.024   4.796
68075W        W36405   0.862  26.027   4.160
68076W        W36406  11.175  13.711  11.105
68077W        W36407  17.646  41.306  10.957
68078W        W36408  23.154  28.510   3.179
68079W        W36409   4.741  34.026   2.374
68080W        W36410  22.702  25.628   3.645
68081W        W36411  18.194  14.142  11.578
68082W        W36412  15.172  30.490   2.844
68083W        W36413  13.765  43.278  11.484
68084W        W36414  17.098   4.831   4.336
68085W        W36415  15.253  21.027  10.896
68086W        W36416  14.283  28.945   4.160
68087W        W36417  19.202  22.251  13.951
68088W        W36418  41.361  27.078  11.057
68089W        W36419   0.943   8.320  11.933
68090W        W36420  29.477  35.938   1.403
68091W        W36421  42.779  11.696  13.036
68092W        W36422  21.598  16.806   4.164
68093W        W36423   7.352   7.789  11.026
68094W        W36424  30.084   9.166  11.060
68095W        W36425   5.341  41.447   0.929
68096W        W36426  15.777  35.536   0.899
68097W        W36427  42.969  26.112  14.431
68098W        W36428   5.728  31.987   0.729
68099W        W36429  23.590  10.154   4.819
68100W        W36430  19.256  39.442  12.058
68101W        W36431  25.526  17.562   0.453
68102W        W36432  25.989  42.495  12.401
68103W        W36433  35.493  20.657  12.961
68104W        W36434  26.987   6.676  14.488
68105W        W36435  24.542  30.650  11.031
68106W        W36436   2.720  24.598   1.382
68107W        W36437  10.145  22.579   1.372
68108W        W36438  24.217   5.833  14.487
68109W        W36439  14.255  26.105   1.924
68110W        W36440  26.195   2.309   1.787
68111W        W36441  43.924  19.082  14.914
68112W        W36442  20.733  22.502  13.817
68113W        W36443   7.180  23.550  11.506
68114W        W36444   4.848  38.364  14.410
68115W        W36445  24.223  20.159   3.383
68116W        W36446  29.432  16.637   4.325
68117W        W36447   3.810  27.454  14.496
68118W        W36448  21.258   7.221  14.850
68119W        W36449   0.441   2.945  13.894
68120W        W36450   0.820  35.006  13.896
68121W        W36451  10.239  25.472   2.350
68122W        W36452   2.384  38.469  13.507
68123W        W36453  40.507  15.262   3.189
68124W        W36454  22.007  12.703  13.316
68125W        W36455   1.422  26.110  13.829
68126W        W36456  30.550  33.546   4.151
68127W        W36457  37.947  15.109  11.505
68128W        W36458  37.394  36.035   0.915
68129W        W36459  27.656  19.169  11.054
68130W        W36460  38.525  29.602  11.061
68131W        W36461  26.976  34.571   2.719
68132W        W36462  26.487  18.059   3.186
68133W        W36463  37.418   2.896   0.822
68134W        W36464  42.439  14.772   3.266
68135W        W36465   6.345  28.578  14.872
68136W        W36466  28.152  31.535   0.829
68137W        W36467   9.386  28.185  12.080
68138W        W36468  42.863  24.706   4.669
68139W        W36469   3.832  32.967   1.892
68140W        W36470   5.781  19.618   0.307
68141W        W36471   1.888  40.405  12.046
68142W        W36472  22.117  33.915  14.005
68143W        W36473  30.945  42.421   0.745
68144W        W36474  14.297   1.471  13.955
68145W        W36475   5.254  30.585   1.923
68146W        W36476  22.177   7.343   4.815
68147W        W36477  26.002  28.477  10.897
68148W        W36478  14.168   1.381   2.666
68149W        W36479   5.846  10.718   1.845
68150W        W36480  24.648  36.947  14.425
68151W        W36481  30.430  22.564   0.262
68152W        W36482  22.659  34.602   1.412
68153W        W36483  20.114   4.259  13.805
68154W        W36484  34.916  35.581   0.430
68155W        W36485  23.212   4.905   0.863
68156W        W36486   1.920  13.839   1.720
68157W        W36487   6.265  36.959   1.889
68158W        W36488  15.774  17.590  12.869
68159W        W36489  44.262  37.550   1.318
68160W        W36490  38.421  18.621  10.977
68161W        W36491  27.475   4.398   2.384
68162W        W36492   3.900  36.018  12.042
68163W        W36493  32.119  24.978   4.691
68164W        W36494  13.819  27.183   1.850
68165W        W36495  24.087  26.014   4.192
68166W        W36496   3.273  11.733   2.400
68167W        W36497  23.521  35.053   1.725
68168W        W36498  32.043  11.340  14.291
68169W        W36499  37.523  42.999   4.156
68170W        W36500  37.429  13.271   2.400
68171W        W36501  29.527  14.192   4.288
68172W        W36502  28.506  31.064  12.530
68173W        W36503  22.166  10.832  12.460
68174W        W36504  40.353  19.688   1.743
68175W        W36505  20.560  16.657  11.123
68176W        W36506  24.661  41.431   1.449
68177W        W36507  20.252   1.334  14.378
68178W        W36508  38.405   1.265   0.456
68179W        W36509  10.240  29.547  12.341
68180W        W36510  43.022  35.418   2.384
68181W        W36511   6.906  37.002   0.249
68182W        W36512  23.050  15.221   4.785
68183W        W36513  21.757  30.586  14.948
68184W        W36514  21.621  27.003  10.428
68185W        W36515  42.932  39.815   1.326
68186W        W36516   9.169  21.238   4.332
68187W        W36517   0.858  26.989   2.738
68188W        W36518   9.246  26.503   3.712
68189W        W36519   0.932  41.497   1.711
68190W        W36520  14.284  15.790   3.727
68191W        W36521  23.121  27.072   1.370
68192W        W36522   8.204  18.052  13.982
68193W        W36523  21.605  14.179  10.428
68194W        W36524  36.593   4.847  11.469
68195W        W36525  18.761  13.211   3.745
68196W        W36526   7.741   2.415  14.977
68197W        W36527   2.407   3.350   1.850
68198W        W36528  33.071  30.087  13.479
68199W        W36529   6.754  32.114   0.284
68200W        W36530  19.274  41.815  13.861
68201W        W36531  21.263  23.101   3.684
68202W        W36532  20.182   0.867  14.479
68203W        W36533  36.895  30.064   1.443
68204W        W36534  26.558  12.161  12.084
68205W        W36535  36.569  29.059  12.960
68206W        W36536  43.407   6.768  11.432
68207W        W36537  42.013  36.043  13.418
68208W        W36538   1.845   8.376  14.277
68209W        W36539  13.765   7.860  11.088
68210W        W36540  10.336  33.453  13.951
68211W        W36541  23.543  31.993   3.732
68212W        W36542  23.210   4.883  10.922
68213W        W36543  35.568   5.917   4.644
68214W        W36544  13.698  22.105  10.490
68215W        W36545  31.914  27.452  12.070
68216W        W36546  43.367  40.927  10.568
68217W        W36547   7.278  10.766   2.415
68218W        W36548  22.161  43.336   2.289
68219W        W36549   3.752  14.609  13.530
68220W        W36550  28.974  41.340  13.432
68221W        W36551  40.440  27.592  10.435
68222W        W36552  25.542  39.390   4.153
68223W        W36553   8.171  27.969  12.890
68224W        W36554  32.011   5.356   0.297
68225W        W36555   2.453  16.132   1.855
68226W        W36556   0.270  37.911  12.896
68227W        W36557  14.750  16.254   2.191
68228W        W36558  28.667  32.029   0.336
68229W        W36559  25.468  31.115   3.375
68230W        W36560  34.477  29.920   3.171
68231W        W36561  44.929  22.742  13.367
68232W        W36562  13.237  27.052   0.774
68233W        W36563  39.538  14.139   3.686
68234W        W36564  12.151  25.173  13.482
68235W        W36565  38.350  32.981   2.320
68236W        W36566  39.356   5.702  11.416
68237W        W36567  20.713  14.179   1.359
68238W        W36568  23.555   1.747   0.754
68239W        W36569  13.829  15.158   1.273
68240W        W36570  11.340  13.638   1.323
68241W        W36571   1.331  41.406   4.668
68242W        W36572  36.042  32.578  14.460
68243W        W36573   4.369  17.598  10.607
68244W        W36574  34.029   9.215   4.151
68245W        W36575  18.255  25.969   4.741
68246W        W36576  13.797  37.917   0.402
68247W        W36577  39.924   7.238   3.368
68248W        W36578  25.065   8.731   2.792
68249W        W36579  21.198  38.977  13.039
68250W        W36580  12.239  29.938  12.426
68251W        W36581   1.862  30.105   3.362
68252W        W36582  16.184  33.453   4.222
68253W        W36583  36.850  37.980   0.769
68254W        W36584  24.038  44.422  11.090
68255W        W36585  10.837  31.995   3.273
68256W        W36586  20.636   2.727  14.282
68257W        W36587  40.998  18.091  10.958
68258W        W36588  29.668  19.078   0.893
68259W        W36589  42.908  25.001   3.298
68260W        W36590   3.911   4.323  10.929
68261W        W36591  39.894  21.193  10.889
68262W        W36592   0.777  34.871   2.829
68263W        W36593  24.573  22.545   4.186
68264W        W36594  36.389  30.957   2.364
68265W        W36595  41.343   7.413  13.892
68266W        W36596  10.320  20.049   0.422
68267W        W36597  23.178  22.199   2.208
68268W        W36598  42.825  11.143  14.914
68269W        W36599  33.082  42.896   4.121
68270W        W36600  34.597  13.787   4.146
68271W        W36601  25.492   1.447   4.736
68272W        W36602  42.967  15.265   4.768
68273W        W36603  21.164  12.292   3.727
68274W        W36604  39.388  36.994  14.026
68275W        W36605  13.108  43.907   1.730
68276W        W36606   3.868   1.283  13.477
68277W        W36607  22.741  19.080   3.333
68278W        W36608  35.074   2.746  10.977
68279W        W36609   9.349  14.274   0.892
68280W        W36610  41.306  40.841   4.687
68281W        W36611  37.021  33.560  11.543
68282W        W36612   7.911  32.615  13.337
68283W        W36613  38.824  19.080   3.385
68284W        W36614  15.289  21.178  14.275
68285W        W36615   0.805  11.805   0.952
68286W        W36616  43.843  11.184   1.300
68287W        W36617  20.639  19.064   1.246
68288W        W36618  11.728  11.867   2.219
68289W        W36619  24.704  14.180   3.233
68290W        W36620  23.988   4.893  12.926
68291W        W36621   3.338  37.440   2.800
68292W        W36622  37.845   9.711   1.379
68293W        W36623   3.312   9.170   0.474
68294W        W36624  37.877  31.971   2.287
68295W        W36625   6.710  29.025   1.288
68296W        W36626  26.017  40.972   2.880
68297W        W36627  20.555  36.439  11.026
68298W        W36628  14.103  36.889   0.869
68299W        W36629  16.738  34.068   2.388
68300W        W36630  19.697  35.593  14.419
68301W        W36631  43.328  19.222   3.677
68302W        W36632   9.223  21.095   3.759
68303W        W36633   6.694   5.200   0.782
68304W        W36634   3.308  25.569  11.009
68305W        W36635   7.301  20.662   3.790
68306W        W36636  24.720  30.564  13.037
68307W        W36637  31.989  27.039  13.827
68308W        W36638   6.349   5.208  10.450
68309W        W36639   9.322  32.432  10.621
68310W        W36640  23.089  31.437  12.829
68311W        W36641  13.844  17.773  13.852
68312W        W36642  22.233  27.633   0.438
68313W        W36643  38.528  40.988  12.475
68314W        W36644  26.479  35.603   3.865
68315W        W36645  29.605  24.017  11.081
68316W        W36646  30.000  36.533  11.495
68317W        W36647   9.713  44.473   1.914
68318W        W36648  10.246  24.029   0.417
68319W        W36649  28.132  10.144   3.197
68320W        W36650   5.320  28.487   3.795
68321W        W36651  20.089  38.016  11.606
68322W        W36652   7.704  43.908   2.314
68323W        W36653  31.072  17.192   4.146
68324W        W36654  16.210  38.042  11.105
68325W        W36655  33.098  19.127  10.953
68326W        W36656  17.784  35.472   3.720
68327W        W36657   8.398  42.404   2.817
68328W        W36658  24.599  36.569   1.839
68329W        W36659  23.664  14.706  11.117
68330W        W36660  15.283  16.215  10.492
68331W        W36661  19.575   8.669   2.326
68332W        W36662   0.800  41.812   0.438
68333W        W36663   1.765  40.839  14.894
68334W        W36664  16.662  20.578   2.708
68335W        W36665  25.005  37.067   2.673
68336W        W36666  26.505   0.334   1.867
68337W        W36667  33.951   0.769   1.927
68338W        W36668  24.699  40.853  12.076
68339W        W36669   9.836  30.423  11.476
68340W        W36670  36.419   6.399  13.509
68341W        W36671  28.656  18.641   3.836
68342W        W36672  20.171  40.826   4.233
68343W        W36673  39.931  22.522  11.543
68344W        W36674  35.427  16.729   4.829
68345W        W36675   6.401  23.036   3.723
68346W        W36676  41.362  35.513   3.339
68347W        W36677  13.192  18.249   5.254
68348W        W36678  26.643  17.612   0.830
68349W        W36679  34.399  37.416  13.479
68350W        W36680  43.876  40.460   2.307
68351W        W36681  41.390  23.575  12.076
68352W        W36682  21.027  17.648  11.983
68353W        W36683  16.248  41.968  11.472
68354W        W36684  43.387  42.014   3.790
68355W        W36685  30.952  25.979   1.866
68356W        W36686   9.855  19.122  13.529
68357W        W36687   7.232  21.053  10.601
68358W        W36688  27.966  17.302  12.060
68359W        W36689  12.297  10.177  14.397
68360W        W36690   2.787  36.079   9.634
68361W        W36691  10.327  40.405  13.351
68362W        W36692   2.851  17.662  12.497
68363W        W36693  14.699  37.493  14.934
68364W        W36694  25.638   3.424  11.587
68365W        W36695  14.664  12.654  10.460
68366W        W36696  40.899  16.093  11.520
68367W        W36697  27.117  39.403   2.662
68368W        W36698  37.374  43.452   1.838
68369W        W36699  31.540  24.075  12.837
68370W        W36700  42.858   8.753   3.327
68371W        W36701  29.924  40.429   2.749
68372W        W36702   3.361   4.396  14.370
68373W        W36703  11.694  13.285  14.390
68374W        W36704  18.741  43.009   1.780
68375W        W36705  12.250  14.175  12.061
68376W        W36706  37.528  37.375  11.858
68377W        W36707  21.693   0.447   2.188
68378W        W36708  35.398  31.978  12.503
68379W        W36709   3.886  41.404   4.815
68380W        W36710  11.784   5.203  12.471
68381W        W36711  40.024  21.653  11.088
68382W        W36712  10.246  34.400   4.669
68383W        W36713  22.105  29.146  10.580
68384W        W36714  37.400  27.988   4.697
68385W        W36715   1.863   4.315  11.409
68386W        W36716  22.143  22.509   3.698
68387W        W36717  38.926  13.335   4.137
68388W        W36718  38.466   4.812   3.235
68389W        W36719  23.142   0.920   0.471
68390W        W36720   7.738   5.695   4.146
68391W        W36721   6.294  38.397  13.394
68392W        W36722  12.273   0.315   2.778
68393W        W36723  30.093  44.794   1.376
68394W        W36724  18.683   0.830   1.450
68395W        W36725  21.070   4.776   1.409
68396W        W36726  15.239  25.195   0.900
68397W        W36727  40.496  21.631  10.622
68398W        W36728  35.912  19.727   4.695
68399W        W36729  16.104  21.742   3.281
68400W        W36730  16.707  28.539   0.406
68401W        W36731   4.702  32.916  11.944
68402W        W36732  43.997  40.425   4.281
68403W        W36733  38.912  32.953  14.013
68404W        W36734  34.022   3.815  11.051
68405W        W36735  26.569  10.233  11.590
68406W        W36736  44.787  17.270   1.883
68407W        W36737  20.131  23.005  12.956
68408W        W36738  41.416  14.247  11.057
68409W        W36739   2.781   3.887  13.389
68410W        W36740  31.913  41.435   3.787
68411W        W36741  11.321  26.016  11.522
68412W        W36742  15.278  21.118  10.608
68413W        W36743  26.703  25.137  11.995
68414W        W36744  43.810  16.120   0.750
68415W        W36745  21.088   1.314   0.274
68416W        W36746   8.817  30.582  12.358
68417W        W36747  10.697  31.101   1.411
68418W        W36748   3.332   9.758   1.803
68419W        W36749  41.911   9.307   3.213
68420W        W36750  20.170   4.878  14.873
68421W        W36751   8.214  20.085   0.946
68422W        W36752  26.652  15.111  13.982
68423W        W36753  44.904  14.187   2.780
68424W        W36754  11.850   6.330   4.135
68425W        W36755  32.110  29.952   1.767
68426W        W36756  43.450  15.205   1.222
68427W        W36757  34.983  28.129   2.359
68428W        W36758  29.122  43.280  10.935
68429W        W36759   8.668  36.526   0.336
68430W        W36760  16.714  40.310   1.876
68431W        W36761  29.052  33.452   3.731
68432W        W36762   1.789  26.197   0.367
68433W        W36763  35.909   5.307  11.384
68434W        W36764  21.576  38.921  13.007
68435W        W36765   9.737  21.657  14.346
68436W        W36766  27.618  44.379   1.909
68437W        W36767   6.377  41.953   4.681
68438W        W36768  18.206  17.071   1.393
68439W        W36769  33.572  23.500   1.351
68440W        W36770   9.713  18.589   1.710
68441W        W36771  32.927   6.402   4.813
68442W        W36772  17.113   2.379  12.540
68443W        W36773  35.529  22.168   4.688
68444W        W36774   8.177  28.974   0.956
68445W        W36775  11.806   3.772   0.914
68446W        W36776   6.330   2.421  12.492
68447W        W36777  10.335  33.882  14.407
68448W        W36778  13.712  25.609   4.639
68449W        W36779   9.277  13.181   0.871
68450W        W36780   3.450  33.552   4.211
68451W        W36781  25.004  14.333   1.439
68452W        W36782  22.718  10.645   3.805
68453W        W36783   7.900   4.204   1.354
68454W        W36784  24.137   5.278   0.451
68455W        W36785  40.469   4.898  13.911
68456W        W36786  35.551  28.168   1.696
68457W        W36787  15.753   9.857  12.032
68458W        W36788  27.978  21.542  14.873
68459W        W36789   7.349  26.027  13.883
68460W        W36790  14.712  36.958   5.696
68461W        W36791   9.191  12.775  13.479
68462W        W36792  31.966  11.815   4.298
68463W        W36793   2.265  42.414  14.923
68464W        W36794  39.920  15.686   2.385
68465W        W36795  23.616  29.924   1.399
68466W        W36796  40.891   5.323  14.411
68467W        W36797  39.489  20.647   0.368
68468W        W36798   1.877  37.961   0.279
68469W        W36799  27.940  14.612   2.206
68470W        W36800  30.451  44.452   4.658
68471W        W36801  19.174  17.068  13.473
68472W        W36802   6.267  10.692   1.402
68473W        W36803   6.712  12.757   0.380
68474W        W36804  26.993  11.645   0.889
68475W        W36805  38.033   7.689  14.304
68476W        W36806  20.100  24.481   5.254
68477W        W36807  32.087  31.985  12.364
68478W        W36808  42.471  38.838   1.413
68479W        W36809  44.841  10.381  11.465
68480W        W36810  23.555   6.334   0.946
68481W        W36811  38.821  11.332   0.267
68482W        W36812  33.446   3.358   5.243
68483W        W36813  24.095  37.977   0.304
68484W        W36814  37.570  11.689   2.869
68485W        W36815  42.428  36.411   3.662
68486W        W36816  34.530   5.917   4.262
68487W        W36817   9.880  17.181  12.577
68488W        W36818  21.158  13.660   1.398
68489W        W36819  10.854  37.456  12.022
68490W        W36820  15.303  29.456   2.687
68491W        W36821  31.143  25.056   2.838
68492W        W36822  36.991  35.434   1.926
68493W        W36823  27.085  12.825   4.175
68494W        W36824   6.890  43.775  10.527
68495W        W36825   6.715  24.720  13.400
68496W        W36826   7.676   0.942   2.319
68497W        W36827  41.535  12.299  13.910
68498W        W36828  42.935  11.682  12.085
68499W        W36829  20.101  30.655   4.165
68500W        W36830  16.803  25.604   2.896
68501W        W36831  16.811  44.443  11.435
68502W        W36832   0.324  40.899   2.735
68503W        W36833   4.936  29.973  11.011
68504W        W36834  33.621   8.358  12.577
68505W        W36835  16.750  11.262   3.708
68506W        W36836  28.462   8.752   3.748
68507W        W36837  39.473  22.548   3.767
68508W        W36838  20.256  20.132   2.764
68509W        W36839  31.084  12.744   2.750
68510W        W36840  21.087  41.533   1.727
68511W        W36841  41.294  35.535  10.971
68512W        W36842  24.207   3.234   2.235
68513W        W36843  39.055   2.856  13.043
68514W        W36844  13.290  30.112   3.854
68515W        W36845  29.497   8.731  14.962
68516W        W36846  16.711  34.889   1.429
68517W        W36847  44.345  17.090   3.383
68518W        W36848   0.441  43.453   1.830
68519W        W36849  33.071  36.481  11.958
68520W        W36850  44.345  11.162  14.441
68521W        W36851  42.929  18.051  13.834
68522W        W36852  34.523   6.779  14.016
68523W        W36853  33.472  16.099   4.699
68524W        W36854  37.887  37.944  12.453
68525W        W36855  42.829  10.182  12.581
68526W        W36856   7.856  28.538   0.410
68527W        W36857   2.911  13.838   4.687
68528W        W36858   8.176   3.864  10.974
68529W        W36859   4.827  18.682   0.754
68530W        W36860   8.206  30.024  10.438
68531W        W36861  44.867  30.954  13.540
68532W        W36862   7.376  29.054  10.573
68533W        W36863  31.546  43.951  13.411
68534W        W36864  14.792   9.189   4.686
68535W        W36865  41.454   9.648  12.393
68536W        W36866  14.198  31.497  13.955
68537W        W36867  42.863  40.512  14.851
68538W        W36868  11.154  36.053   3.718
68539W        W36869  15.284  22.033   1.299
68540W        W36870  15.668  30.603   0.324
68541W        W36871  15.586  15.096  10.081
68542W        W36872   2.384  44.989  11.043
68543W        W36873  25.657  43.828   3.173
68544W        W36874  35.001   9.249   4.298
68545W        W36875  30.007   1.823   2.700
68546W        W36876   7.243  36.001  14.465
68547W        W36877  11.316  37.411  11.988
68548W        W36878  38.952   7.294   0.729
68549W        W36879   5.860   1.355   2.373
68550W        W36880  38.932  20.040  13.860
68551W        W36881  38.943  37.925  10.889
68552W        W36882  28.512  40.024  12.870
68553W        W36883  20.695  39.046  11.074
68554W        W36884  38.531  16.287   3.662
68555W        W36885  27.082  24.217  11.459
68556W        W36886  44.272   6.220  14.319
68557W        W36887  14.331  20.628   1.213
68558W        W36888  38.441  17.197   2.827
68559W        W36889  29.513  29.128  12.452
68560W        W36890  11.823   9.887   2.298
68561W        W36891  15.170  25.561   3.757
68562W        W36892  19.097  36.846   0.824
68563W        W36893   7.312  29.961  13.499
68564W        W36894  20.723   9.366   0.936
68565W        W36895   4.899  13.744   4.264
68566W        W36896  14.238  32.117  10.540
68567W        W36897   1.267  34.954   1.699
68568W        W36898  15.304  27.607   4.833
68569W        W36899  25.621   0.437  13.523
68570W        W36900  42.360  36.045   0.811
68571W        W36901  28.950  10.841   0.732
68572W        W36902  44.314  36.851   4.136
68573W        W36903  10.710   5.889   3.208
68574W        W36904  39.526   8.236  11.094
68575W        W36905   3.850  12.122  11.017
68576W        W36906  15.625   6.400   3.851
68577W        W36907   7.347  30.133   4.759
68578W        W36908  32.634  36.363  10.956
68579W        W36909  28.511  22.169  13.001
68580W        W36910  19.186  26.109   1.289
68581W        W36911  40.918   5.816  14.922
68582W        W36912  27.683  34.119   4.819
68583W        W36913   1.865  23.719   2.713
68584W        W36914   4.842   8.873   4.618
68585W        W36915  26.634   8.780  12.824
68586W        W36916  39.855  30.507   1.273
68587W        W36917   8.662   3.943   5.228
68588W        W36918   1.887   8.338   3.830
68589W        W36919  33.918  20.538  13.926
68590W        W36920   5.794  15.799  14.329
68591W        W36921  39.448   1.823   3.761
68592W        W36922  36.922  24.121   1.711
68593W        W36923   3.456  32.080   4.205
68594W        W36924  15.100  37.016   0.301
68595W        W36925   4.262  29.588  11.592
68596W        W36926  31.451  13.312   3.223
68597W        W36927  16.697  32.408  12.495
68598W        W36928  18.196  38.071   0.873
68599W        W36929  19.066  42.839   1.220
68600W        W36930   2.259  42.488   0.348
68601W        W36931   7.343   4.405   0.785
68602W        W36932   8.293  26.570  14.420
68603W        W36933  11.314  19.629   3.251
68604W        W36934  17.112  18.588   5.162
68605W        W36935  11.745   0.322  10.111
68606W        W36936  40.957  36.074  13.033
68607W        W36937  33.095  10.336   0.736
68608W        W36938   2.234  35.933  11.555
68609W        W36939  16.782  31.438   3.782
68610W        W36940  18.770   8.694  13.928
68611W        W36941   0.835  12.685  10.570
68612W        W36942  36.998   5.829  11.964
68613W        W36943  26.975   1.933  13.882
68614W        W36944  42.363   4.826   2.305
68615W        W36945  34.443  32.619  13.004
68616W        W36946   8.405  10.660  13.023
68617W        W36947   4.863  12.684   1.364
68618W        W36948  34.439  23.197   3.657
68619W        W36949  15.783  23.016  10.510
68620W        W36950  27.691  43.434   3.269
68621W        W36951  17.728   4.219  13.044
68622W        W36952  21.044   1.300   2.704
68623W        W36953  17.612  24.994   2.770
68624W        W36954   0.304  42.484   3.328
68625W        W36955   1.369   7.666  11.885
68626W        W36956  41.873  33.061  10.445
68627W        W36957  21.679  22.726  13.423
68628W        W36958   8.231  13.336  14.770
68629W        W36959  12.668  29.665  14.429
68630W        W36960  12.238  40.425   4.233
68631W        W36961  38.391   2.945   3.377
68632W        W36962  34.067   7.248  12.060
68633W        W36963   4.733   5.346  10.541
68634W        W36964  13.843  21.660   4.286
68635W        W36965   4.904  28.654   4.340
68636W        W36966  12.218  19.766  11.055
68637W        W36967   2.912  28.558  11.923
68638W        W36968   0.835  41.962   1.714
68639W        W36969   2.734  39.362   2.666
68640W        W36970  37.469  27.140   3.276
68641W        W36971  37.874  42.488  12.007
68642W        W36972  33.099  39.346   2.790
68643W        W36973   4.207  40.833  12.412
68644W        W36974   8.263   9.284   0.310
68645W        W36975  34.580  26.033  12.556
68646W        W36976  23.054  27.973   1.260
68647W        W36977  43.772  43.502   2.852
68648W        W36978  12.754  30.985  10.460
68649W        W36979  19.281  38.002   3.868
68650W        W36980  21.186  43.476  12.481
68651W        W36981  15.669  12.734   4.311
68652W        W36982  11.324   7.196  11.450
68653W        W36983  35.892  37.468   2.233
68654W        W36984  42.981   9.369   1.289
68655W        W36985  29.046  42.831  10.624
68656W        W36986   5.207   4.375  10.631
68657W        W36987  29.027  10.773   4.283
68658W        W36988   6.405  41.869   1.908
68659W        W36989  25.082  16.773   3.174
68660W        W36990  28.451   2.365   4.204
68661W        W36991  41.977  41.438  13.400
68662W        W36992  17.802  30.919  11.611
68663W        W36993  34.528  40.841   2.806
68664W        W36994  35.952  18.260  12.466
68665W        W36995  13.136  17.236  13.804
68666W        W36996   3.330  29.985  11.597
68667W        W36997   6.232  38.558   4.196
68668W        W36998  21.729   9.793   4.768
68669W        W36999  24.129  19.665  10.983
68670W        W37000  31.536  37.079  11.985
68671W        W37001  22.637   4.356   1.211
68672W        W37002  30.130   9.167   4.296
68673W        W37003  19.709  37.006   0.756
68674W        W37004   4.748  21.194  11.375
68675W        W37005   3.865  33.047   4.199
68676W        W37006  37.956  27.689  10.523
68677W        W37007  37.945  29.001   2.320
68678W        W37008  10.837  25.972  12.826
68679W        W37009   9.685  16.076  10.918
68680W        W37010  27.630  44.892  13.874
68681W        W37011  40.877  15.229  13.797
68682W        W37012  25.712  22.601  11.898
68683W        W37013   0.489   4.281  12.056
68684W        W37014  40.389  39.974  12.998
68685W        W37015  42.296  27.514  11.521
68686W        W37016  35.904  35.519  11.987
68687W        W37017  15.754  40.847  14.031
68688W        W37018  28.021  25.684   4.624
68689W        W37019  31.461   0.306  12.420
68690W        W37020   9.272  22.107  10.444
68691W        W37021  25.700  33.939  13.921
68692W        W37022  44.276  34.484   3.227
68693W        W37023  37.468  16.277  11.437
68694W        W37024  10.877  44.265  12.841
68695W        W37025  22.221  20.064   2.835
68696W        W37026  14.648  19.656  10.037
68697W        W37027  11.229  21.697   0.357
68698W        W37028   1.421  34.020   1.345
68699W        W37029  17.189  16.710   9.981
68700W        W37030  13.157  26.632  10.106
68701W        W37031  25.500  43.342  12.090
68702W        W37032   0.466   4.351  14.999
68703W        W37033  36.998  11.368  11.456
68704W        W37034  37.996  43.336   4.163
68705W        W37035   6.828  43.789  13.525
68706W        W37036  36.006   3.234   4.658
68707W        W37037  31.489  17.262   2.684
68708W        W37038  39.416  17.283  14.758
68709W        W37039  28.517  30.927  10.967
68710W        W37040  14.665  16.629  10.453
68711W        W37041  35.544  22.167   4.353
68712W        W37042  12.354  13.131   3.641
68713W        W37043  13.824  25.046   0.358
68714W        W37044  19.656   6.209   0.862
68715W        W37045   9.356   4.355   3.310
68716W        W37046  37.083   2.947   2.864
68717W        W37047  26.503   6.376   2.352
68718W        W37048   5.255  28.074  12.925
68719W        W37049  31.583  10.638   4.760
68720W        W37050  26.080  31.028  10.482
68721W        W37051   1.269  33.401  10.406
68722W        W37052  11.304  30.524   2.212
68723W        W37053  36.918   0.772  12.904
68724W        W37054  23.710  29.560  11.876
68725W        W37055  29.605  36.995  14.789
68726W        W37056  16.715  25.151  14.975
68727W        W37057  25.593   6.875  12.370
68728W        W37058  34.105  34.928   3.795
68729W        W37059  15.300   0.411  11.908
68730W        W37060  29.593  18.111  13.425
68731W        W37061  22.519  10.368  14.323
68732W        W37062   6.760  42.786  13.958
68733W        W37063  10.638  31.474   0.304
68734W        W37064   3.313   3.912   4.285
68735W        W37065  22.717   3.377   1.363
68736W        W37066  11.728  34.909  11.027
68737W        W37067  38.561  16.790   4.267
68738W        W37068  40.549   0.380   1.216
68739W        W37069  20.115  43.351   1.727
68740W        W37070  19.574  39.557  13.959
68741W        W37071  30.946  37.007   3.865
68742W        W37072   8.709  24.062   4.628
68743W        W37073  39.501  32.922   4.793
68744W        W37074   4.866  32.491  12.892
68745W        W37075  44.994  21.617   2.767
68746W        W37076  27.186   1.803   3.829
68747W        W37077  14.134  11.768  13.408
68748W        W37078  38.413  29.160  11.996
68749W        W37079  35.943   2.346  11.871
68750W        W37080  37.487   1.418   2.875
68751W        W37081  25.124  41.001   4.675
68752W        W37082  27.947   4.865  13.542
68753W        W37083  25.571  23.988   3.857
68754W        W37084   9.248   9.658  14.375
68755W        W37085  10.196  42.976  14.896
68756W        W37086  38.340  11.690   1.332
68757W        W37087  29.113  31.008   4.736
68758W        W37088  31.484  15.150  12.496
68759W        W37089  32.946  34.957  12.827
68760W        W37090  37.927  15.162  12.834
68761W        W37091  20.639  33.088  13.531
68762W        W37092  13.298  15.152  14.360
68763W        W37093  25.089  39.064  11.985
68764W        W37094  38.366   2.400   4.176
68765W        W37095  35.403  17.704  12.474
68766W        W37096  26.122   8.271   1.700
68767W        W37097  32.056  43.935   2.330
68768W        W37098  24.230  29.663  10.012
68769W        W37099  20.588  19.215  11.993
68770W        W37100  35.948  12.294  11.978
68771W        W37101  10.180  32.628  14.775
68772W        W37102  38.010  26.160   4.705
68773W        W37103   1.461  34.420   4.319
68774W        W37104  27.550   3.255  14.411
68775W        W37105  21.625  17.283  11.599
68776W        W37106  20.658  39.429  14.465
68777W        W37107   2.382  25.594  12.076
68778W        W37108  42.817  36.357   0.330
68779W        W37109  34.980   1.886  13.451
68780W        W37110  24.489  42.478  10.443
68781W        W37111  14.785  36.846   2.351
68782W        W37112  22.997  44.953  10.614
68783W        W37113  22.214  11.664   1.344
68784W        W37114   4.341  18.267  14.336
68785W        W37115  12.776  37.569  14.940
68786W        W37116  17.266  17.108   5.281
68787W        W37117  37.386  22.572   2.709
68788W        W37118  30.119  32.099  11.567
68789W        W37119  12.812   9.389  10.636
68790W        W37120  40.439   7.807  13.055
68791W        W37121  39.023   0.437   0.770
68792W        W37122   5.690  23.721   3.256
68793W        W37123  32.419  14.764  14.284
68794W        W37124  24.178  11.866   4.178
68795W        W37125   3.225  26.557   5.226
68796W        W37126   9.235  14.279  10.517
68797W        W37127   3.251   0.288   0.371
68798W        W37128   9.691  11.287   3.668
68799W        W37129  11.176  44.962   1.212
68800W        W37130  11.622  12.262  10.521
68801W        W37131  12.799  17.266   3.838
68802W        W37132  44.278  31.916  12.445
68803W        W37133   8.737   6.388   0.830
68804W        W37134   3.933  36.569   9.498
68805W        W37135  32.406   8.352   1.883
68806W        W37136   3.791  28.638   0.423
68807W        W37137  42.520  13.141   2.360
68808W        W37138  14.723  40.486  12.013
68809W        W37139  12.759   5.422   2.362
68810W        W37140  43.476  36.051  12.894
68811W        W37141  20.259  30.508   1.913
68812W        W37142  38.027  16.299   4.198
68813W        W37143   6.757  32.436   3.803
68814W        W37144  44.350   2.260  13.366
68815W        W37145  28.503  20.587   1.832
68816W        W37146  25.503  21.644  14.360
68817W        W37147  34.412  39.844   3.277
68818W        W37148  40.460  13.172   3.770
68819W        W37149  19.226  14.676   2.830
68820W        W37150   7.862   2.886   0.821
68821W        W37151  43.892  37.891   3.196
68822W        W37152  13.779  26.482  14.957
68823W        W37153  43.843   8.679   1.913
68824W        W37154  37.347  16.280  14.370
68825W        W37155  24.657  35.429   0.474
68826W        W37156  28.564  20.206  11.980
68827W        W37157   0.491   6.333   4.817
68828W        W37158  19.653  32.408   3.827
68829W        W37159  27.459  26.129   2.279
68830W        W37160  20.615  39.028  14.855
68831W        W37161  21.635  31.481  11.088
68832W        W37162  41.999  27.151   3.372
68833W        W37163  24.606   9.700   3.709
68834W        W37164  26.123   1.323  12.521
68835W        W37165  25.169  35.504   2.728
68836W        W37166  25.027   8.719   3.287
68837W        W37167  28.981  23.987   3.662
68838W        W37168  18.765  19.285   0.242
68839W        W37169  10.157  25.082   0.293
68840W        W37170  38.906  16.740   4.245
68841W        W37171  14.296  39.427  11.882
68842W        W37172  41.836  32.526  14.436
68843W        W37173   9.836   1.789  12.426
68844W        W37174  24.008  16.173  14.808
68845W        W37175  12.172  42.857  11.398
68846W        W37176   1.403  20.099  10.612
68847W        W37177  21.525  26.519  13.514
68848W        W37178   7.774   4.902   5.164
68849W        W37179  28.050  31.498   1.916
68850W        W37180  13.736  38.053  12.046
68851W        W37181   0.435   5.387   3.185
68852W        W37182   4.313  12.653  13.508
68853W        W37183  41.990  27.580   4.274
68854W        W37184  22.515  14.124   2.822
68855W        W37185  44.945  41.330  13.050
68856W        W37186  20.174  29.943   2.211
68857W        W37187  12.317  20.627  12.385
68858W        W37188  31.994  40.011  10.495
68859W        W37189  41.916   8.326   2.297
68860W        W37190   2.427  14.228  13.448
68861W        W37191  14.205  22.609  13.325
68862W        W37192  29.663  14.617  13.324
68863W        W37193   5.744  24.508   1.713
68864W        W37194  28.676   5.425   3.692
68865W        W37195  42.415  18.114   0.924
68866W        W37196  25.659  38.877   0.773
68867W        W37197  12.655   1.974  13.433
68868W        W37198  34.378   2.386   4.731
68869W        W37199  32.922  28.608   1.340
68870W        W37200  22.247   7.776  12.087
68871W        W37201   5.378  20.586  11.500
68872W        W37202  34.521  17.568   3.331
68873W        W37203  14.260  12.346   4.626
68874W        W37204   9.777   9.810  11.004
68875W        W37205  38.952  34.545   3.744
68876W        W37206  44.972   9.275  11.929
68877W        W37207   7.375  37.347  13.372
68878W        W37208  25.163  31.025  12.064
68879W        W37209   8.744  27.972   0.890
68880W        W37210  39.457  38.967   3.285
68881W        W37211  41.374  29.515   2.352
68882W        W37212   6.205   9.302   2.779
68883W        W37213  31.631  16.243   0.481
68884W        W37214  30.115  23.652   1.255
68885W        W37215  21.121  21.202  12.956
68886W        W37216   6.753   8.236   3.322
68887W        W37217  40.499  38.898   3.213
68888W        W37218  28.512  14.234  13.792
68889W        W37219  12.182  35.417  12.547
68890W        W37220   4.344  36.851  10.497
68891W        W37221  15.597  31.975   4.177
68892W        W37222  40.384  33.962   2.355
68893W        W37223  38.033   3.384  14.345
68894W        W37224   6.376  16.252  14.914
68895W        W37225  40.987  15.810   2.386
68896W        W37226  30.098  40.009  10.569
68897W        W37227  33.450  34.513   1.437
68898W        W37228   3.357  10.678  11.981
68899W        W37229   4.935  13.763   5.164
68900W        W37230  42.351  28.008  14.009
68901W        W37231   7.374   8.870  10.529
68902W        W37232  43.343  40.524  12.421
68903W        W37233  32.914  44.375   0.769
68904W        W37234   8.662  14.233   0.320
68905W        W37235  36.050  15.272   0.797
68906W        W37236  16.215   0.412   3.162
68907W        W37237  12.225   2.330   4.291
68908W        W37238  34.019  27.595   3.695
68909W        W37239  39.325  42.312   3.720
68910W        W37240  13.111  32.515   4.193
68911W        W37241  20.036   8.834  10.483
68912W        W37242  30.136   2.860  14.988
68913W        W37243  26.956  18.283  14.921
68914W        W37244  44.420  24.698  13.490
68915W        W37245  34.381  29.425  10.469
68916W        W37246   3.326  35.090  10.460
68917W        W37247   8.763  26.682   1.246
68918W        W37248  33.907  13.173   4.728
68919W        W37249  35.386  31.018  13.514
68920W        W37250  32.404  42.421   4.140
68921W        W37251   4.364  17.762   3.729
68922W        W37252   5.222  32.901   1.817
68923W        W37253  20.266  34.586   3.774
68924W        W37254  20.526  25.147   1.871
68925W        W37255  16.316  23.546   0.406
68926W        W37256  36.459   2.841  10.605
68927W        W37257  34.089   0.914   0.464
68928W        W37258  34.491  26.109  10.539
68929W        W37259  28.079  29.512  12.365
68930W        W37260  19.619  30.651  13.530
68931W        W37261  33.934  35.558  12.926
68932W        W37262  37.579  40.800  13.439
68933W        W37263  22.619  19.738   9.962
68934W        W37264   8.854  37.519  11.498
68935W        W37265  36.002  15.162   4.125
68936W        W37266  31.634  25.156  14.019
68937W        W37267  11.866   7.274   3.681
68938W        W37268  27.565   0.850   1.822
68939W        W37269  23.540  19.049  12.443
68940W        W37270  13.277  44.956   1.729
68941W        W37271  26.992  44.460   1.447
68942W        W37272  35.412  38.388   1.273
68943W        W37273  34.433  15.689   0.865
68944W        W37274  31.446   4.835  10.952
68945W        W37275   6.310  21.159   0.263
68946W        W37276  28.590  39.820  12.354
68947W        W37277  33.455  11.634   1.227
68948W        W37278  19.173  42.301  13.824
68949W        W37279  10.726  20.642   2.711
68950W        W37280   0.410   4.791  12.064
68951W        W37281  18.192   2.732  10.990
68952W        W37282  12.702  40.908   2.886
68953W        W37283  42.982  21.237   3.148
68954W        W37284  20.148   0.780  13.345
68955W        W37285  44.473  16.213  11.947
68956W        W37286  24.060  13.224  10.595
68957W        W37287  33.957   3.240   0.815
68958W        W37288   3.404  39.407   5.088
68959W        W37289   9.865  12.255   2.863
68960W        W37290  14.764  25.564   0.405
68961W        W37291  13.240   8.673  11.569
68962W        W37292  27.137   3.394   4.234
68963W        W37293  16.077  33.505   0.351
68964W        W37294   5.929   3.926   1.310
68965W        W37295  11.822  13.608  14.908
68966W        W37296  28.158  13.831   3.357
68967W        W37297   0.813   0.480   0.281
68968W        W37298  35.902  25.642  12.409
68969W        W37299  19.619  10.314  10.482
68970W        W37300  20.614  41.824   2.398
68971W        W37301  42.805  24.193   5.185
68972W        W37302   0.930  28.940  10.576
68973W        W37303  13.261  15.719   3.680
68974W        W37304  40.545  15.260  13.945
68975W        W37305  30.588   6.696   4.779
68976W        W37306   0.277  11.622  12.363
68977W        W37307  38.451  26.074  12.507
68978W        W37308  31.461   8.242  13.387
68979W        W37309  22.655   9.738  13.350
68980W        W37310  27.986  18.611   0.932
68981W        W37311  32.475  23.172   4.203
68982W        W37312  22.212  16.778   4.657
68983W        W37313  33.426  37.011  13.488
68984W        W37314  39.916  19.753  12.900
68985W        W37315  42.368  44.411   3.356
68986W        W37316  12.118  29.654  14.456
68987W        W37317   3.893   8.216   2.881
68988W        W37318  23.624  11.370   1.772
68989W        W37319  20.587   7.847   3.308
68990W        W37320  29.073  19.639   2.755
68991W        W37321  28.539  37.458   2.695
68992W        W37322   8.885   9.275   1.831
68993W        W37323  37.928  37.482   2.764
68994W        W37324  21.755   6.290  12.358
68995W        W37325  10.818  36.383   0.441
68996W        W37326   1.766  44.930  14.791
68997W        W37327  10.708   3.267  14.487
68998W        W37328   9.385  14.771   4.744
68999W        W37329  20.199  28.504   0.747
69000W        W37330  28.104  42.945  11.582
69001W        W37331  38.478  31.060  11.085
69002W        W37332   2.470  37.471  13.514
69003W        W37333  43.292  15.691   0.251
69004W        W37334  27.536  12.184   1.341
69005W        W37335  15.818  10.241   5.240
69006W        W37336   2.332   1.310  13.004
69007W        W37337  40.928  30.020   2.704
69008W        W37338   8.776  41.933   3.275
69009W        W37339  19.258  31.992  13.380
69010W        W37340   5.280  22.511   1.336
69011W        W37341   3.737  31.897   4.168
69012W        W37342  32.573  29.932  12.439
69013W        W37343  32.455  35.104   1.752
69014W        W37344  27.025  30.658  11.436
69015W        W37345  13.738   5.703   2.706
69016W        W37346  41.454  18.053   3.640
69017W        W37347   8.795   1.281  11.948
69018W        W37348  43.916  22.161   1.920
69019W        W37349  24.141  22.074  11.999
69020W        W37350  42.454  10.789   4.836
69021W        W37351  38.983  19.603   3.145
69022W        W37352  44.775  17.281  11.386
69023W        W37353  41.468  21.057   1.814
69024W        W37354  11.712  10.322   3.662
69025W        W37355  23.591  17.698  12.846
69026W        W37356  28.030  19.201   1.288
69027W        W37357  28.518  38.534   2.829
69028W        W37358   1.346  11.276  14.330
69029W        W37359  29.441  33.901   0.301
69030W        W37360  38.389  39.044  11.040
69031W        W37361  42.348  28.598   0.350
69032W        W37362   7.409  24.142   3.832
69033W        W37363  21.753  33.484  11.509
69034W        W37364  34.613  11.820   4.797
69035W        W37365  14.240  16.622   0.810
69036W        W37366  44.289  26.461  10.405
69037W        W37367   0.492   2.804  11.931
69038W        W37368  13.218  20.268  13.881
69039W        W37369  41.033  38.473  14.510
69040W        W37370  25.067  38.391  12.450
69041W        W37371  44.920  22.633  12.534
69042W        W37372  29.458  38.396  13.858
69043W        W37373  28.979  17.689   0.248
69044W        W37374  43.950   8.730  13.885
69045W        W37375  34.570  26.203   4.210
69046W        W37376  15.253  25.689  12.860
69047W        W37377  26.153  22.619  13.841
69048W        W37378   5.716  44.813   2.872
69049W        W37379  10.152  34.452  12.962
69050W        W37380   0.445  44.274  14.478
69051W        W37381   1.783  44.942  12.485
69052W        W37382  37.536   8.289   5.174
69053W        W37383  42.818   7.391   3.807
69054W        W37384  35.468  32.537   1.400
69055W        W37385  37.910   2.280   2.840
69056W        W37386  17.212  22.197   4.211
69057W        W37387   6.834   5.201   2.338
69058W        W37388  13.673   5.210  14.406
69059W        W37389  22.222  26.192  14.870
69060W        W37390   2.811  25.518  10.910
69061W        W37391  31.964  12.697  14.893
69062W        W37392  18.264   8.857  11.101
69063W        W37393  13.707  26.628  11.406
69064W        W37394  21.255  19.752  13.426
69065W        W37395  19.647  39.024   2.833
69066W        W37396   0.821  12.771   1.819
69067W        W37397  26.518   9.794  11.411
69068W        W37398  10.383  31.492   3.870
69069W        W37399   0.371  24.722  10.412
69070W        W37400  28.652   8.861  12.888
69071W        W37401   8.238  11.738  10.418
69072W        W37402   1.861  42.957   4.664
69073W        W37403  44.441  17.295   0.823
69074W        W37404  31.995   3.415  10.469
69075W        W37405  15.243  40.315  10.923
69076W        W37406   3.321  16.583  14.858
69077W        W37407  37.379  12.224   2.403
69078W        W37408  16.101   6.884  11.429
69079W        W37409  27.588   3.272  12.090
69080W        W37410   2.768  17.298  11.937
69081W        W37411  15.631  10.805   0.785
69082W        W37412  37.025  16.753  11.040
69083W        W37413  14.133  11.849   0.441
69084W        W37414   2.786   6.369   3.794
69085W        W37415  26.491  17.134   0.903
69086W        W37416   5.696  40.516   3.687
69087W        W37417  30.017  29.425   1.327
69088W        W37418  13.691   9.816  14.828
69089W        W37419  42.930  36.518   4.338
69090W        W37420  38.065   2.807  12.881
69091W        W37421  21.571  23.674   3.643
69092W        W37422  15.642  26.020  13.471
69093W        W37423   3.385  23.636  14.364
69094W        W37424  31.043  42.404   1.806
69095W        W37425  17.083   4.799   3.274
69096W        W37426  23.031   3.921   0.934
69097W        W37427  15.631  17.638   2.666
69098W        W37428  22.571  18.557   3.792
69099W        W37429  14.239   3.836  11.422
69100W        W37430  13.156   7.314   0.813
69101W        W37431  25.612  11.650  10.076
69102W        W37432  36.056  33.929   0.379
69103W        W37433  20.578  40.368   0.318
69104W        W37434   2.841  21.206   3.239
69105W        W37435  44.467  30.071   3.330
69106W        W37436   9.196  38.412  13.857
69107W        W37437  18.716  10.684  12.390
69108W        W37438  24.033  10.827   4.697
69109W        W37439   9.831  26.632  11.609
69110W        W37440  17.298  18.576   3.169
69111W        W37441  31.414  37.037   1.271
69112W        W37442   1.465  23.012   4.737
69113W        W37443   5.271  24.704   3.727
69114W        W37444  38.982  11.369  11.089
69115W        W37445   9.192   4.818  14.995
69116W        W37446  33.023  40.909  14.290
69117W        W37447  19.175  23.185  13.519
69118W        W37448   1.872  42.909   3.367
69119W        W37449  24.060  13.742   4.802
69120W        W37450  31.138  24.041  12.092
69121W        W37451  30.053  38.415   2.753
69122W        W37452  38.922  19.064   2.338
69123W        W37453  37.575  14.214  14.404
69124W        W37454  25.628  25.088  14.470
69125W        W37455  39.391  16.094   0.289
69126W        W37456  21.634  42.018  12.493
69127W        W37457  22.687  26.636   5.210
69128W        W37458  12.692  41.956  11.038
69129W        W37459  25.555  29.144   4.304
69130W        W37460  26.482  21.713   2.720
69131W        W37461  43.511   4.901   0.746
69132W        W37462  15.796  26.184   3.256
69133W        W37463  23.520   7.389  11.398
69134W        W37464  43.293   4.213  13.328
69135W        W37465  11.151  28.148   4.119
69136W        W37466  21.613  34.524  12.897
69137W        W37467  38.017  12.169  14.371
69138W        W37468  19.237  11.687  14.845
69139W        W37469   8.177  43.889  12.365
69140W        W37470  43.861  27.164   1.313
69141W        W37471  26.955  38.864   2.295
69142W        W37472   6.356   7.340   3.827
69143W        W37473   0.385  36.453   3.327
69144W        W37474  32.931  32.581   0.396
69145W        W37475  43.341  32.900   2.806
69146W        W37476   8.816  22.558   0.423
69147W        W37477   3.739   1.856   4.254
69148W        W37478  18.764  10.825   0.771
69149W        W37479  30.496  43.487  12.909
69150W        W37480  33.904  28.061  10.592
69151W        W37481   2.260   2.329   1.870
69152W        W37482  24.086   8.359   1.748
69153W        W37483  39.875   5.201   1.731
69154W        W37484  42.858  25.970   0.376
69155W        W37485   6.777   6.765   0.337
69156W        W37486  17.288   8.208  13.427
69157W        W37487  34.120   3.262  10.456
69158W        W37488  23.620  30.452   3.655
69159W        W37489   5.903   5.823   4.299
69160W        W37490  34.072  39.993   1.361
69161W        W37491  27.520  31.960   2.817
69162W        W37492  37.359  29.653  11.387
69163W        W37493  25.053  27.581   0.324
69164W        W37494  14.609  12.133  12.494
69165W        W37495  19.556  16.728   9.932
69166W        W37496  37.831   5.854   1.451
69167W        W37497  16.754  41.393   3.706
69168W        W37498   8.842  22.560   2.744
69169W        W37499  13.815   0.778   1.810
69170W        W37500  18.733  25.598  14.926
69171W        W37501  26.184   6.289  12.959
69172W        W37502  39.959  34.572  13.868
69173W        W37503  15.171   4.378  10.944
69174W        W37504  24.028  35.008  14.420
69175W        W37505   1.284   3.861   3.697
69176W        W37506  15.630   6.681  13.461
69177W        W37507  28.182   0.308   2.224
69178W        W37508  28.977  10.809  13.959
69179W        W37509   5.407   8.279  11.011
69180W        W37510  26.499  37.546   0.392
69181W        W37511  21.702  35.088   1.875
69182W        W37512   1.290  10.715   0.397
69183W        W37513   8.871  40.808   2.366
69184W        W37514  27.488  40.967  13.960
69185W        W37515  16.164  21.057  11.883
69186W        W37516  34.924  37.510  11.583
69187W        W37517   5.854  20.070  12.427
69188W        W37518  15.238  37.582   4.725
69189W        W37519  32.067  32.930   3.348
69190W        W37520  22.520  38.477   4.651
69191W        W37521  33.442  40.346  13.983
69192W        W37522  39.479  24.674  14.797
69193W        W37523  10.152  29.018   1.815
69194W        W37524   7.848   3.274  14.798
69195W        W37525  36.589   0.790  10.997
69196W        W37526  36.481  37.945  10.916
69197W        W37527  24.532  32.460   4.807
69198W        W37528  12.620  22.713   1.850
69199W        W37529  29.955  21.107  11.010
69200W        W37530   1.870  31.579  14.009
69201W        W37531  30.521  11.292   2.760
69202W        W37532  14.117  36.899   1.696
69203W        W37533  27.042  30.087   4.323
69204W        W37534  36.854  10.335   1.238
69205W        W37535  32.491  20.031   3.652
69206W        W37536  28.002   4.249  13.802
69207W        W37537   3.933  23.114  11.866
69208W        W37538  40.902  33.382   2.784
69209W        W37539  21.127  38.457  11.528
69210W        W37540  26.582  26.686   1.917
69211W        W37541  29.597  18.613  10.902
69212W        W37542  26.156  12.342   9.933
69213W        W37543  42.986  15.212   2.821
69214W        W37544  19.541  36.514   3.779
69215W        W37545   8.204  25.118   4.241
69216W        W37546  26.653  24.685   4.722
69217W        W37547  10.226  30.988   3.748
69218W        W37548  44.769   3.343  12.006
69219W        W37549  39.891  27.955   3.281
69220W        W37550  24.227  11.697   2.722
69221W        W37551  19.639  26.508  10.016
69222W        W37552  12.125  19.263   1.707
69223W        W37553   3.888   3.817  13.894
69224W        W37554  41.822  22.736  10.952
69225W        W37555   9.361  28.017   4.208
69226W        W37556   3.937  33.907  11.373
69227W        W37557  36.019   7.860  11.994
69228W        W37558   4.888  38.920   2.883
69229W        W37559  22.634  29.108   5.081
69230W        W37560   2.432  21.718   0.886
69231W        W37561  35.894  28.016  11.068
69232W        W37562  38.838  38.002  12.955
69233W        W37563  35.888  24.545  11.879
69234W        W37564  33.472  13.265  13.405
69235W        W37565  14.665   4.799   4.626
69236W        W37566   1.244  35.069  14.900
69237W        W37567  15.280  39.445  12.979
69238W        W37568  13.775  17.766  11.939
69239W        W37569   2.433  25.113   0.261
69240W        W37570  18.062   7.730   0.465
69241W        W37571  34.570  32.511   4.812
69242W        W37572   3.422  31.145   3.824
69243W        W37573   4.441  11.645  14.020
69244W        W37574  15.603  44.843  13.055
69245W        W37575  31.495  20.181   2.888
69246W        W37576   0.459  35.453  12.418
69247W        W37577  13.671  37.961  12.929
69248W        W37578  12.622  33.484  11.056
69249W        W37579  43.510   2.334  11.955
69250W        W37580  42.364  25.675   2.371
69251W        W37581  44.326   2.290  11.864
69252W        W37582  44.481  16.096   1.335
69253W        W37583  39.024  37.419   0.849
69254W        W37584  22.197  41.474   1.324
69255W        W37585  43.935  12.215  11.903
69256W        W37586  10.312  10.204   4.777
69257W        W37587  39.346  44.466  10.636
69258W        W37588  34.068  14.678  13.362
69259W        W37589  27.449  11.204   3.842
69260W        W37590  36.907  26.021  10.405
69261W        W37591  27.633   5.763   2.756
69262W        W37592  37.391  18.129  12.977
69263W        W37593  37.863  44.348  12.555
69264W        W37594   1.442  44.806   3.291
69265W        W37595  43.797  44.285  11.601
69266W        W37596   8.698   2.437  10.433
69267W        W37597  22.604  12.668  13.396
69268W        W37598  17.798  38.909   1.919
69269W        W37599  25.199  43.862   0.812
69270W        W37600  40.975  28.599   1.805
69271W        W37601  22.149  20.156   4.167
69272W        W37602   0.837  41.789  14.382
69273W        W37603  26.970  35.929   4.721
69274W        W37604  25.636  17.688   2.843
69275W        W37605  15.121  16.215   3.311
69276W        W37606  11.626  10.161  11.424
69277W        W37607  33.395  30.001   1.368
69278W        W37608   9.885  13.735   1.920
69279W        W37609  20.608   8.655  14.888
69280W        W37610  21.045  40.471  11.114
69281W        W37611   0.392  19.233  10.545
69282W        W37612  28.052  40.979  13.506
69283W        W37613   3.409   8.272  12.919
69284W        W37614   9.278  38.881  12.578
69285W        W37615  34.515  10.372  12.891
69286W        W37616   8.686  24.479   0.441
69287W        W37617  20.713  31.119  10.059
69288W        W37618  32.975  35.577   3.846
69289W        W37619  42.364  29.519  11.441
69290W        W37620  42.808   5.290  14.379
69291W        W37621  28.076  44.985  12.935
69292W        W37622   9.248  39.473  11.495
69293W        W37623  38.833  28.648   3.356
69294W        W37624  29.489  39.388   2.359
69295W        W37625  32.508  34.085  13.846
69296W        W37626  23.510  31.500   4.682
69297W        W37627  27.189  13.710   3.653
69298W        W37628  27.565  11.190  11.565
69299W        W37629  43.872  30.529  11.000
69300W        W37630  23.665   8.237  14.896
69301W        W37631  19.228  41.450   2.231
69302W        W37632  28.554  31.459  10.062
69303W        W37633  44.303  22.026  12.991
69304W        W37634  37.339  27.538   4.741
69305W        W37635  16.117  18.673   0.417
69306W        W37636   8.270  16.713  11.391
69307W        W37637  12.302  28.534  12.087
69308W        W37638  25.646  27.522  13.426
69309W        W37639  12.783  20.552   3.155
69310W        W37640   9.747  15.222  14.419
69311W        W37641  25.214  33.549  11.414
69312W        W37642   3.415   0.378  14.377
69313W        W37643  18.281   9.348  11.458
69314W        W37644   5.932  38.518  12.096
69315W        W37645  42.956  13.325   3.675
69316W        W37646  40.459  13.219  11.941
69317W        W37647  31.026  17.195  14.026
69318W        W37648   4.881  22.516  10.583
69319W        W37649  27.971  25.089   4.163
69320W        W37650  18.126  13.105  12.851
69321W        W37651   9.754  34.580  11.025
69322W        W37652  43.473  37.997   1.365
69323W        W37653  42.345   8.313  14.839
69324W        W37654  44.004  19.580   3.370
69325W        W37655  42.522   0.872   1.407
69326W        W37656  42.824  31.516   1.876
69327W        W37657  13.298  26.693   0.803
69328W        W37658  25.585  13.230   1.281
69329W        W37659  19.247   1.975   0.275
69330W        W37660  23.000   4.339  13.041
69331W        W37661  11.200  11.341   1.345
69332W        W37662   4.794  21.037   4.147
69333W        W37663  22.245  33.596   4.708
69334W        W37664  27.604  40.989  10.514
69335W        W37665  23.143  24.706   0.331
69336W        W37666  13.323  17.165   1.881
69337W        W37667  41.411  20.576  14.930
69338W        W37668  37.510  14.281   4.702
69339W        W37669  14.617   2.317  11.081
69340W        W37670  14.779   6.680   0.780
69341W        W37671  44.329  29.067   2.680
69342W        W37672  33.019   0.272   2.722
69343W        W37673   9.699   3.934  12.386
69344W        W37674  41.848  34.375  13.839
69345W        W37675  32.126  39.438  12.877
69346W        W37676  28.612  28.642   1.300
69347W        W37677  37.361   6.867  13.405
69348W        W37678  16.119  16.581   4.805
69349W        W37679  40.393   5.751   5.204
69350W        W37680  30.620  37.959  12.361
69351W        W37681  42.996  14.235   1.803
69352W        W37682  11.672  33.131   1.261
69353W        W37683  33.880  31.910  12.554
69354W        W37684  17.197  25.030  10.890
69355W        W37685  39.929   8.814   0.855
69356W        W37686  16.161   6.292  10.540
69357W        W37687  21.721   8.312  11.554
69358W        W37688  28.646  33.394   5.192
69359W        W37689   5.834   8.835  12.853
69360W        W37690  25.187  11.766  12.069
69361W        W37691  38.980  28.437   3.662
69362W        W37692   4.385   3.896  14.309
69363W        W37693  29.584   1.926  14.761
69364W        W37694   7.364   0.305  14.794
69365W        W37695  41.358   0.363   4.824
69366W        W37696  27.956  22.636  11.927
69367W        W37697   2.843   9.388   1.356
69368W        W37698  15.220  28.639   1.832
69369W        W37699  26.491  40.430   0.900
69370W        W37700  30.975   7.672   2.278
69371W        W37701  22.200  29.550   3.641
69372W        W37702  17.726  18.090   0.871
69373W        W37703  32.986  16.659  14.364
69374W        W37704   2.812  43.501   2.368
69375W        W37705  20.191  31.997   1.723
69376W        W37706  39.428  27.468   1.729
69377W        W37707   9.882  32.119   5.121
69378W        W37708  25.481  17.078   2.336
69379W        W37709   5.727  21.233  11.482
69380W        W37710  36.537  22.027   3.199
69381W        W37711  17.644   1.461   4.722
69382W        W37712   7.834  43.832  13.917
69383W        W37713  42.409   1.301  10.453
69384W        W37714  34.922  34.112  12.993
69385W        W37715  25.658  43.306  13.459
69386W        W37716   1.911  43.289  10.904
69387W        W37717  23.704  10.724   1.402
69388W        W37718   8.269  40.449  12.371
69389W        W37719  37.447  36.573   2.295
69390W        W37720  23.633  30.157   0.355
69391W        W37721  39.978  42.026   1.449
69392W        W37722  27.686  20.721   3.743
69393W        W37723  22.186   9.345   3.367
69394W        W37724  32.491  19.719  13.372
69395W        W37725  40.936  43.951  14.761
69396W        W37726  11.661  43.912  13.846
69397W        W37727  31.061  43.421  12.911
69398W        W37728   6.203  30.024  12.440
69399W        W37729  17.139  23.006   1.829
69400W        W37730  11.653  10.871  12.553
69401W        W37731  30.581   9.868  13.318
69402W        W37732   3.331  34.118   3.334
69403W        W37733   5.834   4.844  10.623
69404W        W37734  27.006  29.000  10.565
69405W        W37735  27.560  21.661  10.935
69406W        W37736   6.242  30.418   3.347
69407W        W37737  22.995  36.497   0.759
69408W        W37738  20.647  42.980   1.832
69409W        W37739  22.545  14.243   9.988
69410W        W37740  17.735  37.415   5.289
69411W        W37741  39.051   5.426  13.034
69412W        W37742   7.261  33.081   3.256
69413W        W37743  20.741   1.896  14.298
69414W        W37744  27.103  33.590   3.269
69415W        W37745  20.227  20.667  12.418
69416W        W37746  16.596  21.564  14.859
69417W        W37747  30.044  25.687  13.400
69418W        W37748   6.909   1.295   3.665
69419W        W37749   9.869  37.559   1.815
69420W        W37750  29.512  17.080   3.180
69421W        W37751  16.204  35.358   0.473
69422W        W37752  38.857  19.543   4.226
69423W        W37753   7.687  23.189  13.401
69424W        W37754  29.998  11.787  13.318
69425W        W37755  44.831   4.920   2.771
69426W        W37756   1.970  30.641   3.322
69427W        W37757   1.822   5.714  12.482
69428W        W37758  15.135  11.783  12.972
69429W        W37759   3.844  35.915  12.978
69430W        W37760  30.990  42.842   4.246
69431W        W37761   0.252   0.797   1.292
69432W        W37762  22.039  21.247   0.817
69433W        W37763  26.528  40.971  12.504
69434W        W37764   8.237  15.202  14.346
69435W        W37765  32.633   5.220   2.198
69436W        W37766  31.927  29.532   5.229
69437W        W37767   4.434   9.190   3.336
69438W        W37768  36.472  37.508  12.900
69439W        W37769   1.362  11.142  13.914
69440W        W37770   4.737  19.107   4.619
69441W        W37771  17.186   9.848  14.330
69442W        W37772   1.932  32.417  11.457
69443W        W37773  19.554  14.194   0.897
69444W        W37774   5.805  34.954   0.253
69445W        W37775  40.358  34.466   0.250
69446W        W37776   2.842  18.096  14.413
69447W        W37777  26.466  35.485  11.533
69448W        W37778  27.553  14.240  12.372
69449W        W37779  39.958  28.170  12.857
69450W        W37780  33.556  42.457   3.301
69451W        W37781  19.220  26.183   2.674
69452W        W37782  44.896  29.581  12.445
69453W        W37783  11.225  21.178  14.372
69454W        W37784   3.422  32.060  13.382
69455W        W37785  21.216  30.105  14.881
69456W        W37786  20.756  12.762   2.344
69457W        W37787   0.814   8.780  10.637
69458W        W37788  42.949  30.601   1.278
69459W        W37789  44.363  37.526  12.000
69460W        W37790  35.400   3.850  14.961
69461W        W37791   7.817  32.052  10.494
69462W        W37792  15.085  34.490  14.430
69463W        W37793  11.842  26.978   0.941
69464W        W37794  31.433  17.664   4.252
69465W        W37795   3.436  24.083   3.753
69466W        W37796   3.783  29.638  11.879
69467W        W37797  39.825   1.781  12.419
69468W        W37798  16.214  12.303  13.946
69469W        W37799  20.568  31.145   1.306
69470W        W37800  19.589   7.392  13.867
69471W        W37801  20.120   4.708  11.524
69472W        W37802  40.873  23.036   4.669
69473W        W37803  32.429  27.673   4.677
69474W        W37804  23.033  32.514   0.378
69475W        W37805   5.925   5.918   1.929
69476W        W37806  27.110   8.723   4.244
69477W        W37807   6.223  37.500   4.151
69478W        W37808  42.026  25.635   3.775
69479W        W37809  24.140  33.387  13.508
69480W        W37810  42.999   0.783   2.771
69481W        W37811  14.280  26.481   1.878
69482W        W37812  39.048  28.606  13.937
69483W        W37813  16.592  26.028  14.831
69484W        W37814  37.458  18.092   3.337
69485W        W37815  15.651  37.571   0.775
69486W        W37816  42.776  27.510  13.317
69487W        W37817  33.033  14.183   4.700
69488W        W37818  18.149  23.540  13.870
69489W        W37819  43.384  24.074  11.115
69490W        W37820  15.777  38.414  12.850
69491W        W37821   6.833  10.301   0.306
69492W        W37822  31.135   4.856   0.316
69493W        W37823  12.812  30.124  14.812
69494W        W37824  26.997  11.283   2.292
69495W        W37825  41.304  28.655   3.197
69496W        W37826  39.821  31.533   3.225
69497W        W37827  29.525  17.127  10.011
69498W        W37828  28.005   3.448  11.437
69499W        W37829  44.918   1.948  13.043
69500W        W37830  18.659  30.599   1.382
69501W        W37831  37.059   3.733   1.288
69502W        W37832  43.951  34.914   3.812
69503W        W37833  24.984  38.976   0.426
69504W        W37834  41.967  11.306  12.947
69505W        W37835   9.202  36.347   2.388
69506W        W37836  34.409   8.719   1.371
69507W        W37837  22.653  29.447   4.309
69508W        W37838  42.493  10.766  12.010
69509W        W37839  14.163   4.222  11.570
69510W        W37840   0.987  19.048   4.738
69511W        W37841  21.198  30.138  12.911
69512W        W37842  12.772  29.144   0.853
69513W        W37843   5.341  17.197   4.655
69514W        W37844  18.646   7.693   0.278
69515W        W37845  41.009  18.596   4.733
69516W        W37846  27.476  39.823   1.797
69517W        W37847  10.179  32.430  13.059
69518W        W37848  43.310  20.746   3.647
69519W        W37849  23.507  17.710   0.816
69520W        W37850  23.597  23.015  11.949
69521W        W37851  21.158  24.045   4.761
69522W        W37852   0.457  22.055   1.710
69523W        W37853  21.744   9.695  10.101
69524W        W37854  40.902  42.300  12.473
69525W        W37855   7.743   8.252  10.903
69526W        W37856  11.196  38.447   1.276
69527W        W37857  44.396  42.970  14.378
69528W        W37858  14.152   0.832   5.170
69529W        W37859  16.176  13.609  10.408
69530W        W37860  43.270  25.111   1.828
69531W        W37861   5.826   0.493   4.151
69532W        W37862   9.244  24.997  10.476
69533W        W37863  33.569  41.420  10.996
69534W        W37864  16.256   3.219   4.814
69535W        W37865  25.155  41.879   1.419
69536W        W37866  43.974  12.142  11.543
69537W        W37867  17.110   3.230  13.341
69538W        W37868  27.649  30.627  11.980
69539W        W37869  14.275  15.322  13.327
69540W        W37870  41.926  10.278   0.295
69541W        W37871  37.976  41.787  14.891
69542W        W37872  41.806  22.596   5.220
69543W        W37873  35.407  36.966   1.914
69544W        W37874  37.955  14.329   4.612
69545W        W37875  10.382  37.968   0.359
69546W        W37876  13.664  41.336   3.809
69547W        W37877  43.306  36.931   1.345
69548W        W37878  15.120  11.345  10.949
69549W        W37879   5.766  27.599   3.657
69550W        W37880  18.228  20.258   0.308
69551W        W37881   2.247  11.667   4.322
69552W        W37882  28.096  18.244   0.299
69553W        W37883  34.070  18.246   3.702
69554W        W37884  17.723   3.355  11.084
69555W        W37885   0.273  21.080   1.730
69556W        W37886  25.047  33.432   3.309
69557W        W37887  10.234  41.325   0.335
69558W        W37888   7.741  40.417   4.599
69559W        W37889  41.470  21.067   0.947
69560W        W37890   3.880  10.271  12.092
69561W        W37891  36.873   6.337   4.179
69562W        W37892  34.607   0.964  14.936
69563W        W37893   7.670  42.362  13.838
69564W        W37894  29.976  21.731   2.751
69565W        W37895  33.475  41.872  10.490
69566W        W37896  32.486  38.881   2.204
69567W        W37897  33.379  31.475   2.874
69568W        W37898  16.658  38.922  12.519
69569W        W37899  37.885  43.308   2.815
69570W        W37900  18.147  36.989   1.929
69571W        W37901  19.767   5.846   1.405
69572W        W37902  24.111  28.490  14.839
69573W        W37903  37.514  28.674  14.017
69574W        W37904   7.778  21.542  12.351
69575W        W37905  40.892   1.899  13.004
69576W        W37906  43.771  41.998  14.275
69577W        W37907  14.767   5.907   0.874
69578W        W37908  20.729   1.765  12.518
69579W        W37909   8.176  34.555   0.359
69580W        W37910   5.880   4.858   1.873
69581W        W37911  25.583  24.125  10.958
69582W        W37912  23.495  16.702  14.861
69583W        W37913  32.450  15.189  12.881
69584W        W37914  24.074  44.794   0.248
69585W        W37915  19.753  12.167   3.221
69586W        W37916  38.541  39.538  10.436
69587W        W37917  24.655  20.531  12.059
69588W        W37918  27.093  13.351   0.334
69589W        W37919  17.206  25.978   0.374
69590W        W37920  23.667  30.074   3.264
69591W        W37921  41.949  33.521  14.321
69592W        W37922  42.358   6.247  14.309
69593W        W37923  37.085  38.925   3.838
69594W        W37924  39.412  37.417  11.911
69595W        W37925  18.582  16.668   3.162
69596W        W37926   7.289  19.589   2.726
69597W        W37927  25.086  10.236   5.157
69598W        W37928  23.494  17.580   0.451
69599W        W37929  22.165  36.944  11.952
69600W        W37930  42.325  33.008  11.427
69601W        W37931  22.009  11.135  12.915
69602W        W37932  17.639  25.022   2.214
69603W        W37933  40.485  10.321  11.405
69604W        W37934   6.703  14.311   4.600
69605W        W37935  26.537  32.071   4.629
69606W        W37936  15.302   6.392   1.376
69607W        W37937  29.602   4.716  13.813
69608W        W37938  31.560  35.060  12.442
69609W        W37939   2.869  44.395   0.404
69610W        W37940  14.802  16.196  12.426
69611W        W37941  35.018   7.367  12.825
69612W        W37942  10.139   1.891  12.363
69613W        W37943  34.032  38.387   1.239
69614W        W37944  13.250  24.995   0.474
69615W        W37945  13.164  19.684  11.543
69616W        W37946  24.111   8.729   2.784
69617W        W37947  29.964   1.769  12.394
69618W        W37948  43.462   4.228  12.465
69619W        W37949  31.093  21.647  10.985
69620W        W37950  21.648  37.430  10.079
69621W        W37951  16.211  39.422  11.889
69622W        W37952  34.425   0.259   3.705
69623W        W37953  12.352  34.985   1.252
69624W        W37954  22.143  12.214  13.815
69625W        W37955  33.573  31.470   3.696
69626W        W37956   7.414  29.113   3.756
69627W        W37957  10.705  26.973  10.430
69628W        W37958  23.080  31.115   0.409
69629W        W37959  17.123  22.612   5.146
69630W        W37960  18.070   8.762  13.522
69631W        W37961  22.221  14.614   1.421
69632W        W37962  41.444   3.814   3.643
69633W        W37963   7.390  27.553   3.148
69634W        W37964   3.847  34.003   0.424
69635W        W37965  38.839  13.325  12.464
69636W        W37966  34.385  19.687  12.455
69637W        W37967  22.116   8.318   0.844
69638W        W37968  40.048  34.064   1.724
69639W        W37969  43.345  35.509  14.994
69640W        W37970  43.997  41.028  13.430
69641W        W37971  30.553  10.729   0.298
69642W        W37972  16.685  38.429   3.707
69643W        W37973  16.725  40.054   4.683
69644W        W37974  12.699  16.285   0.922
69645W        W37975   1.446  15.232  11.373
69646W        W37976  38.018   9.853   2.356
69647W        W37977  26.968   1.342   3.188
69648W        W37978  33.057   2.804  13.813
69649W        W37979  10.835   5.763   1.363
69650W        W37980  28.602  28.629  13.825
69651W        W37981   6.844  10.331  13.330
69652W        W37982   0.796  32.552  12.847
69653W        W37983  19.621  33.009   0.353
69654W        W37984  34.892   2.787   3.867
69655W        W37985  29.013   9.236   0.928
69656W        W37986  32.576   5.220   4.695
69657W        W37987  26.693   0.792  11.096
69658W        W37988  32.635  13.260   2.716
69659W        W37989  27.595   0.907  11.037
69660W        W37990  42.841  25.012  12.419
69661W        W37991   3.299  43.856   4.256
69662W        W37992   9.343  33.540   0.914
69663W        W37993  35.098  23.207  10.893
69664W        W37994   9.285  28.942  14.307
69665W        W37995   9.208  35.050  11.570
69666W        W37996  23.063  26.506  14.329
69667W        W37997  41.791  39.408  10.457
69668W        W37998   1.315   3.293   3.241
69669W        W37999  12.291  39.064   2.902
69670W        W38000  23.212  34.910  10.632
69671W        W38001  26.603  25.694  13.847
69672W        W38002  19.560   7.183   5.164
69673W        W38003   5.284  35.485   4.240
69674W        W38004  10.657  40.972  14.821
69675W        W38005  10.796  24.214  14.020
69676W        W38006  41.424  32.045   1.879
69677W        W38007   5.231   8.228   4.184
69678W        W38008  27.994  40.373   3.170
69679W        W38009  24.146  23.592   2.205
69680W        W38010  39.401  34.914  14.987
69681W        W38011  17.073  35.955   5.154
69682W        W38012  24.127   4.765   0.883
69683W        W38013  14.271  29.469   5.245
69684W        W38014   2.453  20.740  13.371
69685W        W38015  37.084   8.385  13.528
69686W        W38016  19.200  10.240  13.364
69687W        W38017  40.398   2.351  10.518
69688W        W38018  38.922  13.679   3.740
69689W        W38019  30.563  27.589   4.608
69690W        W38020   3.869  28.548   4.238
69691W        W38021  29.668  36.942   1.818
69692W        W38022  25.977  35.478  13.793
69693W        W38023  41.804   3.848   0.851
69694W        W38024  10.832  24.174  11.050
69695W        W38025  34.481  33.028   0.737
69696W        W38026  13.233  12.634   1.412
69697W        W38027  30.111  18.603  11.043
69698W        W38028  42.780   2.736   1.828
69699W        W38029  42.949  38.456   3.379
69700W        W38030  40.476  27.157   2.792
69701W        W38031  42.948   4.345  10.047
69702W        W38032  40.840  27.990  12.882
69703W        W38033  38.522   2.897   4.773
69704W        W38034  35.057   2.367   4.633
69705W        W38035  26.159  14.155   1.311
69706W        W38036   8.836  26.038  14.334
69707W        W38037   0.322   9.704  11.014
69708W        W38038   0.291   6.360  10.609
69709W        W38039  20.153  38.837  12.556
69710W        W38040  34.045  31.067  10.644
69711W        W38041  24.482  42.302  12.422
69712W        W38042  25.080   0.357   3.780
69713W        W38043  10.750   0.483  11.537
69714W        W38044  37.885   9.208  14.944
69715W        W38045  39.058  25.128   4.316
69716W        W38046   1.748   7.410   0.877
69717W        W38047   7.677  28.633  11.989
69718W        W38048  23.078   5.423  10.925
69719W        W38049  14.095   8.193   2.759
69720W        W38050  30.908  23.014  11.047
69721W        W38051   5.350  19.572   2.210
69722W        W38052  21.735  25.201   2.187
69723W        W38053  19.061  43.343  13.325
69724W        W38054  34.036   3.242   4.129
69725W        W38055  10.778   5.393   3.262
69726W        W38056  23.724  33.017  11.886
69727W        W38057  43.815   8.680   0.317
69728W        W38058   6.761  15.811   4.310
69729W        W38059  13.186  21.122   2.245
69730W        W38060  24.552  32.125  14.779
69731W        W38061   0.249   1.480  12.359
69732W        W38062  28.077  14.299  14.365
69733W        W38063  18.175   1.300  11.928
69734W        W38064   7.748  12.741   2.358
69735W        W38065  14.780   7.224   4.778
69736W        W38066  31.013  27.019  13.527
69737W        W38067  35.959  28.633  10.427
69738W        W38068  21.684  14.689   2.885
69739W        W38069   2.266  41.033  12.510
69740W        W38070  22.604  19.717  13.037
69741W        W38071  42.776  43.932  14.968
69742W        W38072  23.714  11.746   0.354
69743W        W38073  16.112  14.302   0.752
69744W        W38074   8.817  33.118  10.991
69745W        W38075  29.553  10.160  14.984
69746W        W38076   1.736   0.922   0.272
69747W        W38077  16.697  30.042   4.795
69748W        W38078  10.761  29.564   2.832
69749W        W38079  12.836   4.436   3.685
69750W        W38080   7.301  36.055   2.300
69751W        W38081  31.065  20.135  12.859
69752W        W38082  22.238  22.178   0.403
69753W        W38083   2.454  42.826  10.016
69754W        W38084  31.628  34.053  14.762
69755W        W38085  36.871  28.594   1.790
69756W        W38086  12.705  29.072   3.386
69757W        W38087  32.473  18.639  11.871
69758W        W38088  43.506  38.532   0.940
69759W        W38089  35.507   5.912  10.447
69760W        W38090   9.723  40.503  14.390
69761W        W38091  33.926   7.689  13.063
69762W        W38092   1.953   4.916   3.804
69763W        W38093  14.193  23.219  13.052
69764W        W38094  36.562  26.594  14.826
69765W        W38095   7.291   5.866   1.785
69766W        W38096  24.134  10.326  13.403
69767W        W38097  20.058   9.187   9.537
69768W        W38098  16.139  11.331  14.432
69769W        W38099   1.475  24.553  11.946
69770W        W38100  24.116   1.470   2.742
69771W        W38101   1.941  35.039  14.314
69772W        W38102   7.180   2.894  13.052
69773W        W38103  21.162  21.543  13.862
69774W        W38104  35.979  15.193  14.934
69775W        W38105  19.081  18.281   0.874
69776W        W38106  12.153  26.517   2.351
69777W        W38107   1.901   2.307  11.603
69778W        W38108  25.535  28.061  13.924
69779W        W38109  21.518  11.762   0.469
69780W        W38110   5.237  17.784   4.330
69781W        W38111   7.191  10.680  13.469
69782W        W38112   7.789  20.081  11.008
69783W        W38113  37.034  41.310  13.448
69784W        W38114  35.905   9.851  11.112
69785W        W38115  33.491   4.900  10.057
69786W        W38116  19.775  20.047   3.716
69787W        W38117  15.091  37.919   5.797
69788W        W38118  24.576  35.902   1.424
69789W        W38119  35.050  29.595   1.246
69790W        W38120   3.915  22.644   3.733
69791W        W38121  10.301   3.292   4.335
69792W        W38122   0.850  26.183   1.927
69793W        W38123  36.980  42.903   2.684
69794W        W38124  14.272  10.724   1.793
69795W        W38125  20.679  31.069  11.956
69796W        W38126  26.047  24.087   3.158
69797W        W38127  33.975  21.526   0.284
69798W        W38128  38.841  15.128  13.982
69799W        W38129  30.969  16.787  14.488
69800W        W38130  25.498  34.981   1.739
69801W        W38131  19.721  25.646  12.055
69802W        W38132  24.543  16.216  10.576
69803W        W38133  15.212   6.817  14.358
69804W        W38134  33.031  13.160   3.823
69805W        W38135   9.152  22.149   3.645
69806W        W38136  32.550  25.672   4.210
69807W        W38137  26.479  33.876   0.358
69808W        W38138  11.149  25.517  13.444
69809W        W38139  11.654  35.541   1.770
69810W        W38140  10.145   4.319   1.378
69811W        W38141   0.805  43.985   3.819
69812W        W38142  27.018  13.211  12.036
69813W        W38143   4.900  31.410   0.323
69814W        W38144   1.851  20.135   2.887
69815W        W38145  22.011  34.382  14.495
69816W        W38146  44.847   5.689  14.455
69817W        W38147  21.140  35.532  12.084
69818W        W38148  43.470   3.236  14.029
69819W        W38149   5.895  14.145   1.430
69820W        W38150  26.633  12.720   2.701
69821W        W38151  26.089   3.772   1.699
69822W        W38152  23.075   8.292   1.832
69823W        W38153  34.940   9.726   2.812
69824W        W38154  31.112  38.924  14.927
69825W        W38155   0.975  37.955   3.648
69826W        W38156  10.169   4.440  14.363
69827W        W38157  33.057   5.372  13.347
69828W        W38158  17.589  38.435   1.864
69829W        W38159   2.939  41.450  12.938
69830W        W38160  28.672  33.386   2.370
69831W        W38161  35.599  34.415   2.315
69832W        W38162  43.372  18.289   4.833
69833W        W38163   8.771   4.823   1.440
69834W        W38164   3.451  12.134   3.274
69835W        W38165   9.766   6.183   2.317
69836W        W38166  25.595  25.994   0.347
69837W        W38167  13.292  10.664  10.413
69838W        W38168   4.846  25.150  12.860
69839W        W38169   0.461  18.612  11.577
69840W        W38170  37.860  23.595   3.320
69841W        W38171  35.559  23.221   3.165
69842W        W38172  20.534  17.664   1.372
69843W        W38173  17.605  15.279   4.781
69844W        W38174   7.782   9.692  11.924
69845W        W38175  42.022  43.513   4.603
69846W        W38176  17.703  27.089  12.876
69847W        W38177  13.661  15.142   0.930
69848W        W38178  44.263  17.749   0.477
69849W        W38179  20.624  38.555   0.770
69850W        W38180  19.186  31.547   1.338
69851W        W38181  13.660  25.109  12.879
69852W        W38182  12.840  23.005   0.287
69853W        W38183  38.394  10.860   1.409
69854W        W38184   6.913  44.989  14.880
69855W        W38185   4.748  17.203   1.215
69856W        W38186  22.596  34.058  11.053
69857W        W38187  14.260  39.968  14.880
69858W        W38188  18.077  31.025  13.877
69859W        W38189  32.587  39.881   1.439
69860W        W38190  31.426  33.453   4.312
69861W        W38191  40.024  40.907  12.934
69862W        W38192  43.337  31.444  10.645
69863W        W38193  13.107   6.688   2.301
69864W        W38194  35.098  31.596   0.863
69865W        W38195  26.209  10.226  12.535
69866W        W38196  23.692   4.878   0.266
69867W        W38197   9.666  14.187  12.001
69868W        W38198   5.388  25.656   4.239
69869W        W38199  17.107  30.088   2.195
69870W        W38200  42.299  28.016  13.339
69871W        W38201  24.986   2.289   2.212
69872W        W38202  23.517  28.006   1.873
69873W        W38203  12.693  35.951   2.664
69874W        W38204  12.327  44.362   3.673
69875W        W38205  39.990   6.885   2.238
69876W        W38206   1.317  21.604   0.933
69877W        W38207   1.376  19.129   2.694
69878W        W38208   9.360   4.232  10.638
69879W        W38209  13.237  30.081   3.193
69880W        W38210   1.920  42.498   2.811
69881W        W38211  27.491  17.626   1.701
69882W        W38212   6.191  29.126   3.695
69883W        W38213  18.738  11.779   3.816
69884W        W38214   5.785   4.358   4.644
69885W        W38215  22.703  13.250  11.494
69886W        W38216   8.698   6.887   0.883
69887W        W38217   4.280  18.095  13.951
69888W        W38218  32.028  12.690   3.322
69889W        W38219  27.457  31.567  13.439
69890W        W38220  23.624  42.336  11.893
69891W        W38221  25.216   1.840  12.543
69892W        W38222  20.077  41.458   2.410
69893W        W38223  14.623  17.698  10.501
69894W        W38224  20.686  17.264   1.225
69895W        W38225  18.767   3.904   2.719
69896W        W38226  28.022  30.617  12.014
69897W        W38227  10.292  30.573   4.640
69898W        W38228  16.639  36.946   4.345
69899W        W38229   6.201  17.063   1.413
69900W        W38230   7.233  12.247   4.769
69901W        W38231  23.594  21.033   0.391
69902W        W38232  40.315  36.938   2.216
69903W        W38233  42.366   3.942  10.560
69904W        W38234  13.252   3.260   2.243
69905W        W38235   0.250  12.727  11.607
69906W        W38236  21.649  10.169   3.633
69907W        W38237  22.111  44.962  12.002
69908W        W38238   5.759   2.758  13.876
69909W        W38239   8.693  40.355   2.211
69910W        W38240  26.028   3.865  14.790
69911W        W38241   1.893  43.990   1.842
69912W        W38242  43.013  36.049  11.401
69913W        W38243  15.801   5.719   3.729
69914W        W38244  44.768   2.945  13.327
69915W        W38245  18.254  29.488   0.906
69916W        W38246  22.684  28.934   1.376
69917W        W38247   7.298   3.216  12.411
69918W        W38248   3.320  10.716   4.163
69919W        W38249  10.682  27.535   3.245
69920W        W38250   5.220   7.282  11.402
69921W        W38251   3.783   0.252   3.176
69922W        W38252  32.957  11.782   4.199
69923W        W38253  14.235  19.677  11.399
69924W        W38254   1.425  39.352   2.221
69925W        W38255  43.306  28.593  14.432
69926W        W38256  13.730  29.095  14.485
69927W        W38257  20.184  27.577   2.892
69928W        W38258  12.283  38.825   2.237
69929W        W38259  44.793  39.981  12.094
69930W        W38260  21.081  18.173  10.496
69931W        W38261  19.704  31.947   4.122
69932W        W38262  39.051   0.294  13.860
69933W        W38263  11.741   0.758  10.624
69934W        W38264  28.467  21.159   4.665
69935W        W38265  25.974  39.907   1.864
69936W        W38266  33.952  32.978  14.464
69937W        W38267  37.402  35.047   0.393
69938W        W38268  38.490   9.194   0.939
69939W        W38269  17.248  12.839   4.742
69940W        W38270  22.582   6.231   1.731
69941W        W38271  22.718  24.526  11.396
69942W        W38272   6.679  39.054  12.989
69943W        W38273  18.186  44.913   0.402
69944W        W38274   2.310  33.120   0.439
69945W        W38275  36.918  31.528   3.297
69946W        W38276  25.188  39.444  10.916
69947W        W38277  36.893  27.196   2.856
69948W        W38278  37.043  44.319   1.429
69949W        W38279   2.903  22.565  14.911
69950W        W38280  35.562   0.986   2.198
69951W        W38281  14.202  17.154   3.226
69952W        W38282  14.683  40.826   4.165
69953W        W38283  10.173   1.343   4.272
69954W        W38284  22.238   0.408  12.359
69955W        W38285   5.852  32.073   4.754
69956W        W38286  17.225   8.344  13.850
69957W        W38287  24.076  25.620   4.281
69958W        W38288   9.772  11.681   4.188
69959W        W38289  16.715  11.795   3.756
69960W        W38290  43.799  24.648   4.306
69961W        W38291  24.601  30.585   1.392
69962W        W38292  17.654  11.843   2.885
69963W        W38293  36.525  28.067   1.798
69964W        W38294  31.438  30.138   2.213
69965W        W38295  10.725  43.465   4.718
69966W        W38296  44.494  21.240  13.861
69967W        W38297   2.795   0.464   2.850
69968W        W38298  34.510  38.894  12.954
69969W        W38299   8.400  19.602   1.374
69970W        W38300  28.976  39.370  14.441
69971W        W38301  11.806  23.223   4.696
69972W        W38302  35.960  38.872   1.737
69973W        W38303  42.383   9.814   1.887
69974W        W38304  23.044  30.078  12.944
69975W        W38305  41.417  44.781  12.492
69976W        W38306   3.822  29.500  10.454
69977W        W38307  23.729  30.499   1.796
69978W        W38308  36.494  27.993  14.867
69979W        W38309  36.483   9.725  11.526
69980W        W38310  21.089   2.926  14.462
69981W        W38311   7.230  41.958  13.451
69982W        W38312  24.485  39.006   2.238
69983W        W38313  38.992  23.516  14.513
69984W        W38314  20.699  44.792  14.016
69985W        W38315   6.231  28.668   1.873
69986W        W38316  28.479  35.871   0.364
69987W        W38317   3.271   9.832   3.234
69988W        W38318   4.234  40.043  13.471
69989W        W38319  43.767  31.041   1.322
69990W        W38320   3.275  44.990   1.913
69991W        W38321  27.119   6.804   2.812
69992W        W38322  26.035  29.145  12.427
69993W        W38323  15.238   2.805   3.212
69994W        W38324  39.548   8.369  12.948
69995W        W38325  35.006   6.801  12.437
69996W        W38326  22.117  43.005  10.006
69997W        W38327  16.802  16.315  12.925
69998W        W38328  22.562  27.690   4.252
69999W        W38329  24.693  32.606   1.345
70000W        W38330  18.561   9.782   0.862
70001W        W38331   2.890  37.370  13.438
70002W        W38332  21.251  25.625   5.086
70003W        W38333   1.344  36.870   0.746
70004W        W38334   9.653  27.013  11.610
70005W        W38335  11.816  34.980   4.738
70006W        W38336  22.550  43.486  12.494
70007W        W38337  10.696   4.724   0.274
70008W        W38338   4.871  22.173  14.359
70009W        W38339  24.542  22.217  10.951
70010W        W38340  32.631   2.886  10.438
70011W        W38341  15.705  29.603  11.441
70012W        W38342  15.189  23.607  11.004
70013W        W38343  35.916  33.573  14.782
70014W        W38344  22.253  12.238  11.001
70015W        W38345   6.687   9.222   2.881
70016W        W38346  41.895  26.148  10.452
70017W        W38347  25.003  44.882   2.245
70018W        W38348  38.396   9.311  11.561
70019W        W38349  26.690   2.820   3.150
70020W        W38350   2.472  34.507  12.031
70021W        W38351   3.261   5.425   3.303
70022W        W38352  32.125  34.044  11.934
70023W        W38353  44.838  39.346  11.022
70024W        W38354  27.473  33.999   1.916
70025W        W38355  25.636  23.042   4.273
70026W        W38356  10.141  19.706   1.886
70027W        W38357   4.375   3.713   2.335
70028W        W38358  13.637  40.928  13.812
70029W        W38359  13.172  37.379   4.175
70030W        W38360  17.269  28.108  11.070
70031W        W38361  14.803  22.104   0.913
70032W        W38362  36.362  41.385  14.450
70033W        W38363  37.565  27.942   1.922
70034W        W38364  39.832  23.241  14.416
70035W        W38365  43.942  18.078   2.334
70036W        W38366   0.855   3.814  11.439
70037W        W38367  34.885  33.120   3.681
70038W        W38368  23.727   3.364   2.239
70039W        W38369  43.764  39.493  10.571
70040W        W38370  43.503   9.339   0.477
70041W        W38371  31.503  39.031   3.261
70042W        W38372   0.902  31.620  12.451
70043W        W38373  35.552  37.912  14.310
70044W        W38374  11.777  22.232   0.285
70045W        W38375   0.253  33.984   3.705
70046W        W38376  40.528  39.425   2.724
70047W        W38377   9.777  35.583   0.444
70048W        W38378  32.885  35.425   4.311
70049W        W38379  12.820  39.559   2.312
70050W        W38380  35.890  37.884  10.584
70051W        W38381   3.372  38.562  10.463
70052W        W38382  38.975  44.390  13.547
70053W        W38383   9.340  40.541   4.334
70054W        W38384  28.042  17.725   1.741
70055W        W38385  25.705  21.568   1.380
70056W        W38386  14.270  32.475   0.917
70057W        W38387  19.099  16.094  10.947
70058W        W38388   8.402  17.745   2.208
70059W        W38389   0.813   0.493  12.067
70060W        W38390  33.887   5.267  10.929
70061W        W38391  36.950  33.076   2.298
70062W        W38392  39.338  28.440  10.955
70063W        W38393  28.043  20.075   3.201
70064W        W38394  36.006  17.611   3.730
70065W        W38395  15.718  25.637   5.185
70066W        W38396   1.433  34.970   4.764
70067W        W38397  20.238  12.281   4.740
70068W        W38398  25.012  11.144   4.347
70069W        W38399  32.594   3.779   0.280
70070W        W38400  16.660  13.702   0.946
70071W        W38401   3.401  38.373  12.525
70072W        W38402   0.394  16.719   2.891
70073W        W38403  42.869  36.960  11.505
70074W        W38404  13.341  18.176   2.389
70075W        W38405   4.901   5.428  13.490
70076W        W38406  34.490  41.820   1.259
70077W        W38407  27.154  42.355  10.639
70078W        W38408  15.238   8.291  12.876
70079W        W38409  11.748   3.379   0.952
70080W        W38410  43.500  39.882  11.442
70081W        W38411  24.624  20.176   3.195
70082W        W38412   9.772  25.595  12.039
70083W        W38413   9.185   9.250   1.301
70084W        W38414   6.404  23.543   2.189
70085W        W38415   1.949  28.159  11.373
70086W        W38416  24.593   6.378   2.356
70087W        W38417   5.847  41.960  14.425
70088W        W38418  37.983  37.942  11.904
70089W        W38419   1.827  43.934  11.505
70090W        W38420  41.291  21.566  13.338
70091W        W38421   0.326  23.108   2.222
70092W        W38422  42.438  14.751   0.338
70093W        W38423   6.379  34.521  11.590
70094W        W38424  10.764  31.488   1.358
70095W        W38425   4.294  24.129   3.820
70096W        W38426  24.586  15.128  12.023
70097W        W38427   9.724  32.624   1.419
70098W        W38428  38.411  14.302   5.215
70099W        W38429   9.865  42.372  12.413
70100W        W38430  26.500  24.096   0.817
70101W        W38431  11.811  29.007   0.899
70102W        W38432  35.444  17.063  11.460
70103W        W38433  26.156  13.621  13.497
70104W        W38434   8.835  11.374   4.327
70105W        W38435  37.444  12.131  11.021
70106W        W38436  34.611  24.031   1.442
70107W        W38437  22.092  13.605  10.892
70108W        W38438  42.939  24.985  11.545
70109W        W38439  14.228  21.185   0.435
70110W        W38440  33.877  31.119   0.929
70111W        W38441  16.601  30.455   3.733
70112W        W38442  28.573  17.113   1.400
70113W        W38443  14.231  14.325   2.385
70114W        W38444  18.153  19.238   1.740
70115W        W38445   1.794  37.863  10.088
70116W        W38446   2.263  44.322   1.397
70117W        W38447  12.164  33.943  11.409
70118W        W38448  44.394  44.870   0.373
70119W        W38449  22.211  37.402   1.821
70120W        W38450  23.568  36.537   1.378
70121W        W38451  17.787  25.158   4.353
70122W        W38452  11.649  26.558   3.237
70123W        W38453  30.149  27.170  12.499
70124W        W38454   8.197  32.958  14.506
70125W        W38455  17.245   3.773  11.602
70126W        W38456  42.890  18.224   1.352
70127W        W38457  44.291  33.449   3.345
70128W        W38458  20.032  40.524   2.777
70129W        W38459  14.822  14.131   2.208
70130W        W38460  11.169  14.339   1.402
70131W        W38461   6.702  38.867  10.518
70132W        W38462   6.901  38.495   0.440
70133W        W38463  17.276  16.663   0.846
70134W        W38464  32.110   5.400  11.052
70135W        W38465  14.599   6.750  14.340
70136W        W38466  14.289  24.542   3.241
70137W        W38467  29.925  23.220  10.923
70138W        W38468  23.221   6.862  11.461
70139W        W38469  20.546  10.670  14.499
70140W        W38470   0.372   1.790   3.794
70141W        W38471   6.287  17.220  10.430
70142W        W38472  10.785  35.009   2.886
70143W        W38473  19.610  18.228   1.246
70144W        W38474  13.286   9.293   0.342
70145W        W38475  13.791  35.954   0.886
70146W        W38476   3.838  44.267  10.912
70147W        W38477  27.500  29.633   2.782
70148W        W38478  20.048  34.448  12.382
70149W        W38479   7.803  17.707  14.395
70150W        W38480   2.304  26.037   0.958
70151W        W38481  33.991  39.505   2.411
70152W        W38482  10.727  29.559  12.538
70153W        W38483  40.848  20.598  13.016
70154W        W38484  36.516  20.757   3.247
70155W        W38485  30.957  32.575  14.826
70156W        W38486   5.294   3.779   4.645
70157W        W38487   1.820   7.707  11.047
70158W        W38488  23.012  19.120  11.122
70159W        W38489  20.528   0.297  13.877
70160W        W38490  18.739   7.412   4.311
70161W        W38491  42.794  28.475   2.261
70162W        W38492  36.522   6.855   3.670
70163W        W38493  23.670   9.731  14.878
70164W        W38494  43.794  42.843   4.352
70165W        W38495  39.507   1.743  11.542
70166W        W38496  33.505  23.549   3.821
70167W        W38497  34.502  19.274  10.641
70168W        W38498   3.389  16.194  13.377
70169W        W38499   1.358   2.887   3.741
70170W        W38500  34.994  27.512   0.435
70171W        W38501   8.728  37.979   2.786
70172W        W38502  13.806   8.272  12.469
70173W        W38503  15.251  19.751   2.242
70174W        W38504  38.048  42.504  10.639
70175W        W38505   3.722  13.762   3.862
70176W        W38506  15.286  21.518  14.309
70177W        W38507  12.850   6.395  13.880
70178W        W38508  39.063  36.372   0.341
70179W        W38509  44.934  14.192  10.539
70180W        W38510  25.651  24.666  14.310
70181W        W38511   2.870  25.689   0.826
70182W        W38512  38.826  18.573   3.751
70183W        W38513  38.068  28.553   1.778
70184W        W38514  13.779  39.527  14.322
70185W        W38515  29.593  16.703  12.557
70186W        W38516  25.496   9.350   0.859
70187W        W38517  25.555  19.633  14.969
70188W        W38518  18.196   4.801   0.832
70189W        W38519  13.806  27.617   2.827
70190W        W38520  11.645  39.415  12.947
70191W        W38521   9.393  20.703   1.861
70192W        W38522  20.137  25.138   5.131
70193W        W38523  39.881  37.503   0.776
70194W        W38524  14.114  17.196   3.741
70195W        W38525   1.411   5.319  12.888
70196W        W38526  19.718  20.544  12.998
70197W        W38527  14.771  28.626  10.583
70198W        W38528   3.444  16.744  11.463
70199W        W38529  38.407  25.078  13.337
70200W        W38530  25.673   7.758  14.921
70201W        W38531  25.673  30.142  12.085
70202W        W38532   3.816  39.004   3.260
70203W        W38533   1.302   7.677   0.422
70204W        W38534  16.082  31.937  13.049
70205W        W38535  18.736  12.170  10.476
70206W        W38536  25.536  44.891  10.558
70207W        W38537   2.228  15.171   0.477
70208W        W38538   4.873  24.216   0.245
70209W        W38539   5.200  34.436  11.537
70210W        W38540  14.786   5.214  11.107
70211W        W38541  27.131  34.018   5.574
70212W        W38542  33.453   8.171  10.927
70213W        W38543  16.699   5.899   0.295
70214W        W38544  31.059   6.203   1.775
70215W        W38545  18.598  26.011  11.453
70216W        W38546   6.319  38.924  12.386
70217W        W38547  15.124  11.810  12.347
70218W        W38548  10.152  37.904  12.398
70219W        W38549  18.593   3.292  13.880
70220W        W38550  42.356  36.569   2.687
70221W        W38551  44.349   1.754   1.442
70222W        W38552   1.953  25.641   1.716
70223W        W38553   8.761  31.062  10.499
70224W        W38554  31.480  12.626  11.982
70225W        W38555   2.799  31.112  13.062
70226W        W38556  36.450   9.703   4.743
70227W        W38557  24.187   5.715   4.292
70228W        W38558  37.982   8.781   2.892
70229W        W38559  40.307  22.115   4.348
70230W        W38560  44.806  10.656  10.913
70231W        W38561  22.139  40.320   3.164
70232W        W38562  26.171   6.406  11.515
70233W        W38563  14.645  35.020   9.591
70234W        W38564  41.316  27.459   2.223
70235W        W38565  10.368   7.273  12.564
70236W        W38566  11.795   7.321  13.014
70237W        W38567  30.634   3.308  14.920
70238W        W38568   1.369   2.297   3.320
70239W        W38569  15.249  25.474   3.344
70240W        W38570  44.868  15.642  14.901
70241W        W38571  36.012  30.625   2.866
70242W        W38572  12.155  36.954  14.019
70243W        W38573  27.960   3.946  14.024
70244W        W38574  33.602  13.748  14.870
70245W        W38575  10.191  22.092  14.863
70246W        W38576  14.107  37.969   5.260
70247W        W38577   5.398  10.737   2.856
70248W        W38578  17.180  43.459  10.568
70249W        W38579  37.943  25.594   2.755
70250W        W38580  11.144  42.367   3.853
70251W        W38581  42.791  35.928  13.950
70252W        W38582  37.541  33.546   1.445
70253W        W38583  38.418  42.832   3.366
70254W        W38584   8.360  15.659  12.955
70255W        W38585  37.992  27.942  12.923
70256W        W38586  12.158  22.144   4.819
70257W        W38587  40.484   7.757  14.906
70258W        W38588   9.813  32.487  12.847
70259W        W38589  12.257   0.318   0.312
70260W        W38590  10.342  12.326   3.822
70261W        W38591   7.827   7.254   0.317
70262W        W38592  35.106   2.950   2.765
70263W        W38593  23.698  43.384   3.716
70264W        W38594  25.073  44.317   0.881
70265W        W38595   3.284   1.324  11.868
70266W        W38596   5.269  44.897   0.931
70267W        W38597  16.217  13.284   2.375
70268W        W38598  24.480  31.021  11.117
70269W        W38599  26.186   3.216   4.326
70270W        W38600  31.076  31.138  11.005
70271W        W38601   8.673  22.688  11.891
70272W        W38602  28.517  27.475  12.461
70273W        W38603  42.368  12.830   0.883
70274W        W38604  17.168  14.187  12.983
70275W        W38605  43.500  44.856  14.342
70276W        W38606   1.939   6.912  13.409
70277W        W38607   2.361  10.860   2.181
70278W        W38608  19.675  13.631   0.944
70279W        W38609  14.292  29.619  13.500
70280W        W38610  11.147   4.245   2.387
70281W        W38611  15.260  12.842  11.919
70282W        W38612   2.763   2.788  13.927
70283W        W38613  36.041  17.787  13.939
70284W        W38614  32.066  18.592   2.675
70285W        W38615  28.487  31.026  13.983
70286W        W38616  25.670   3.454   4.253
70287W        W38617  22.200  38.406   2.860
70288W        W38618   1.852  18.586  13.021
70289W        W38619  14.281  21.255   2.287
70290W        W38620   4.415  43.325   2.858
70291W        W38621  21.624  11.632  10.525
70292W        W38622  10.872  17.622  11.007
70293W        W38623  39.326  35.499  10.491
70294W        W38624  39.445   8.839  11.530
70295W        W38625   3.798  19.547   3.325
70296W        W38626  21.036  35.898  12.989
70297W        W38627  10.201  23.028   4.318
70298W        W38628  10.859  40.800   4.255
70299W        W38629  28.066  31.105  11.117
70300W        W38630  17.137  26.167   1.291
70301W        W38631   4.739   0.952  14.469
70302W        W38632  35.386  24.984   1.730
70303W        W38633  14.657   1.894   2.760
70304W        W38634  15.762  15.598  13.812
70305W        W38635  12.174   6.839  13.352
70306W        W38636  25.626  19.140  13.929
70307W        W38637  44.791  41.877  11.025
70308W        W38638   8.203  31.901   2.769
70309W        W38639  23.178   3.803  11.972
70310W        W38640  40.950   3.250   2.705
70311W        W38641  44.395  14.300  11.602
70312W        W38642  10.307  30.059   4.745
70313W        W38643   4.382  29.663   4.698
70314W        W38644   6.329  30.965   2.327
70315W        W38645  39.454  28.993  13.963
70316W        W38646  34.972  25.629   0.806
70317W        W38647  41.003  34.941   1.214
70318W        W38648  12.776   2.348   4.817
70319W        W38649  11.370   9.650  13.980
70320W        W38650  34.082  26.054  10.955
70321W        W38651   5.248  44.884   4.689
70322W        W38652  16.205   2.912   2.412
70323W        W38653  40.888   5.748  11.394
70324W        W38654  21.685   5.688   1.735
70325W        W38655  28.547   0.320   0.831
70326W        W38656   7.404   4.388   2.334
70327W        W38657   6.721   3.914   0.460
70328W        W38658  29.514  32.537   2.303
70329W        W38659  43.952   4.913  11.523
70330W        W38660  33.879   3.223  14.985
70331W        W38661  25.711  36.861   1.754
70332W        W38662  21.557  35.949   4.609
70333W        W38663  44.932  23.041   0.405
70334W        W38664  26.474  23.721  10.104
70335W        W38665  20.078  18.278   2.849
70336W        W38666   6.385  30.162   0.771
70337W        W38667  16.617  23.041  10.513
70338W        W38668  22.062  34.075  14.416
70339W        W38669   4.827  23.200  14.315
70340W        W38670  28.126  27.160   0.305
70341W        W38671  23.635  31.059   0.761
70342W        W38672  13.736   9.785  10.621
70343W        W38673  24.642  11.268  13.424
70344W        W38674  15.285  19.593  12.841
70345W        W38675  24.715  43.791   2.261
70346W        W38676   7.183  23.618  10.968
70347W        W38677  30.008  35.979   2.769
70348W        W38678  40.876  40.975   3.319
70349W        W38679  32.038  21.706  14.015
70350W        W38680  30.117  30.950  13.983
70351W        W38681   5.727   1.741  10.429
70352W        W38682  44.915  15.612  11.444
70353W        W38683  24.562  42.437   4.661
70354W        W38684  41.824   2.778   2.334
70355W        W38685  38.929   9.854  14.911
70356W        W38686  32.930  28.018   2.358
70357W        W38687  35.542  33.454  14.454
70358W        W38688  35.457  39.839   4.674
70359W        W38689  29.531   3.359   1.704
70360W        W38690  27.945  39.853  14.456
70361W        W38691  15.295  36.873   3.277
70362W        W38692  36.089   2.727   1.714
70363W        W38693  17.063   4.857   0.774
70364W        W38694  16.574  14.636   0.404
70365W        W38695  36.044   4.883  10.918
70366W        W38696  17.653  24.088  11.966
70367W        W38697  24.620  24.621  14.414
70368W        W38698  36.483  22.613   3.236
70369W        W38699  43.443   3.241  11.052
70370W        W38700  13.331  37.582   1.878
70371W        W38701  17.730  40.010   4.831
70372W        W38702  20.712  38.888  12.952
70373W        W38703  20.107  16.185   3.283
70374W        W38704   9.252  40.519  14.390
70375W        W38705   1.256  42.805   2.299
70376W        W38706  17.199  34.894  13.326
70377W        W38707  41.860  12.169   4.332
70378W        W38708   2.757   0.889   4.806
70379W        W38709  10.377   6.307   3.724
70380W        W38710  42.937   0.855  11.028
70381W        W38711  36.927  24.581   3.237
70382W        W38712  27.942  22.660   3.213
70383W        W38713  26.015  29.961   3.633
70384W        W38714  34.515  42.519  10.619
70385W        W38715  40.956   6.714  10.412
70386W        W38716  11.135  15.150   2.212
70387W        W38717  27.174  13.732  11.564
70388W        W38718  11.233  16.766   4.654
70389W        W38719  36.392   3.797   0.893
70390W        W38720  44.868  44.863   4.689
70391W        W38721  19.197  16.137   0.313
70392W        W38722  19.564   2.895  11.055
70393W        W38723  11.753  22.110   1.737
70394W        W38724  20.193  35.981  14.343
70395W        W38725   7.237  17.801   1.791
70396W        W38726  10.821   1.276  12.874
70397W        W38727  22.066  10.177   5.253
70398W        W38728   1.807  35.853  11.947
70399W        W38729  42.435  16.257   0.735
70400W        W38730  30.089  34.099   3.319
70401W        W38731  22.170   2.467   4.734
70402W        W38732  18.146  28.158  11.551
70403W        W38733  18.751  43.456  12.494
70404W        W38734  25.678   2.797   4.346
70405W        W38735  14.628  24.077   2.251
70406W        W38736  25.170  15.606  14.881
70407W        W38737  35.022  35.924   0.771
70408W        W38738  34.599   6.721   1.875
70409W        W38739  11.281  20.719  14.288
70410W        W38740  41.971   3.840   1.231
70411W        W38741  32.455  12.250   3.322
70412W        W38742  43.926  29.519  12.521
70413W        W38743  44.505  27.473  13.452
70414W        W38744   3.294   6.695   4.816
70415W        W38745  38.976  13.260   2.308
70416W        W38746  17.632  11.130   2.731
70417W        W38747  22.995  10.211  13.008
70418W        W38748  28.063  12.235  13.503
70419W        W38749   7.403  25.997   0.375
70420W        W38750   6.760  25.188  11.123
70421W        W38751  41.428  19.602  14.413
70422W        W38752  39.541  29.541   4.122
70423W        W38753   3.457  24.077  10.512
70424W        W38754   1.278  24.112   2.401
70425W        W38755  36.909   0.935  14.020
70426W        W38756   9.290   1.296  12.473
70427W        W38757  29.106  34.540   5.262
70428W        W38758   3.954  14.727   3.261
70429W        W38759  36.950  16.755   1.723
70430W        W38760  41.898  36.099  12.580
70431W        W38761   9.320  43.892  11.472
70432W        W38762  41.983   7.668   1.877
70433W        W38763  18.252  41.022   2.395
70434W        W38764   7.702  15.133  10.464
70435W        W38765  26.987  34.036  11.478
70436W        W38766   8.898  18.082   3.773
70437W        W38767  43.449  41.042  14.410
70438W        W38768  21.192  31.425  11.888
70439W        W38769  40.345  39.438   0.944
70440W        W38770   5.712  13.650   1.410
70441W        W38771  17.721  13.144   3.256
70442W        W38772  23.649  12.211   3.799
70443W        W38773   3.284  30.431   3.691
70444W        W38774   8.213  30.927  13.997
70445W        W38775   4.773  15.681  12.418
70446W        W38776  41.858  29.121   4.738
70447W        W38777   2.766   3.835  12.911
70448W        W38778  24.619  42.379   2.251
70449W        W38779  26.171  29.624  12.398
70450W        W38780  13.616   7.782   4.294
70451W        W38781   0.840   8.817  14.896
70452W        W38782   0.391  14.255  12.411
70453W        W38783  23.679  39.970   3.149
70454W        W38784  28.991   5.834   0.359
70455W        W38785  11.232  31.604   1.874
70456W        W38786  27.079  13.201   5.189
70457W        W38787  40.048   3.267  14.017
70458W        W38788  18.252  17.727   1.754
70459W        W38789  16.158  44.463  13.320
70460W        W38790   6.771  31.437  14.275
70461W        W38791  34.509  27.085  10.468
70462W        W38792   2.358   1.777  10.518
70463W        W38793  24.553  37.976   2.721
70464W        W38794   6.792  12.298   2.419
70465W        W38795  10.785  12.613   4.283
70466W        W38796  34.892  24.604  14.970
70467W        W38797  10.825  29.163   3.730
70468W        W38798  33.969  22.242   1.893
70469W        W38799  44.292  24.983   3.222
70470W        W38800   3.788  32.057  14.403
70471W        W38801  22.058  30.096  14.997
70472W        W38802  42.317  39.355   4.744
70473W        W38803  11.698  17.165  10.558
70474W        W38804  41.955  36.945   4.618
70475W        W38805  25.066  23.633   0.451
70476W        W38806  25.039  35.453  14.483
70477W        W38807  37.993  37.850  10.967
70478W        W38808  38.898   7.841   5.784
70479W        W38809  31.038   5.346   4.280
70480W        W38810  34.093  22.073   4.798
70481W        W38811   6.367  35.022  10.010
70482W        W38812  15.709   3.726  14.880
70483W        W38813  22.741  14.720  14.772
70484W        W38814  38.883   0.314  13.043
70485W        W38815   1.239  19.731  12.510
70486W        W38816   4.417  34.947  10.614
70487W        W38817  36.885   2.464  12.570
70488W        W38818  21.193   8.775  13.461
70489W        W38819   2.357  12.714  11.557
70490W        W38820  25.565  19.552   4.642
70491W        W38821  24.637  24.487  13.817
70492W        W38822  19.548  22.124   4.802
70493W        W38823  30.979  19.233   3.692
70494W        W38824  38.909  38.841  10.418
70495W        W38825  25.484  44.755   4.697
70496W        W38826  28.974  35.527   1.377
70497W        W38827  24.171  15.094   4.645
70498W        W38828  15.667  38.527  10.587
70499W        W38829  30.548  25.210  11.967
70500W        W38830  40.309  16.205  13.839
70501W        W38831  17.725  14.104  10.939
70502W        W38832  41.894  33.127  11.934
70503W        W38833  11.647  14.140  11.445
70504W        W38834   9.757  10.736  10.997
70505W        W38835  28.672  10.202   5.616
70506W        W38836  43.366  43.843  12.501
70507W        W38837  15.711  22.237   0.873
70508W        W38838  34.531  21.081   5.132
70509W        W38839  42.366  34.582  11.041
70510W        W38840  13.600  30.114   2.392
70511W        W38841  17.555  10.761   0.958
70512W        W38842  23.604   5.916   4.788
70513W        W38843   7.817   4.890   4.727
70514W        W38844  37.026  16.279   1.262
70515W        W38845  24.671   7.910   2.271
70516W        W38846  27.571  15.668   2.743
70517W        W38847  15.742  17.640  11.049
70518W        W38848  35.499  30.040   3.373
70519W        W38849  40.940  30.001  12.377
70520W        W38850  13.178  10.675  14.806
70521W        W38851   7.294  25.469  10.442
70522W        W38852  41.984  17.620  14.031
70523W        W38853  21.606  41.924   0.770
70524W        W38854  40.014   1.837   2.195
70525W        W38855   6.734  30.572   1.360
70526W        W38856  44.840   3.758  13.054
70527W        W38857   5.771  40.329  11.870
70528W        W38858  23.664  29.006  11.065
70529W        W38859   5.282   2.942  14.909
70530W        W38860  43.497  38.963  11.985
70531W        W38861   6.348  27.131  12.913
70532W        W38862  26.631   7.757  10.914
70533W        W38863  25.075  16.246  10.640
70534W        W38864  33.462  16.601   2.825
70535W        W38865   7.710   6.240  14.841
70536W        W38866  43.474  27.652  11.117
70537W        W38867   3.709   5.347   2.809
70538W        W38868  15.793  29.070   1.765
70539W        W38869   8.294  41.835   0.413
70540W        W38870   8.870  44.471   0.350
70541W        W38871  34.904  14.678  14.501
70542W        W38872  18.775  44.414  12.887
70543W        W38873  23.711  19.061  14.843
70544W        W38874  38.830   5.781   2.201
70545W        W38875  16.578  33.014   2.325
70546W        W38876  40.349  35.522  10.577
70547W        W38877  18.104  23.539   5.661
70548W        W38878   0.833   4.803  14.876
70549W        W38879  34.492  42.888   1.289
70550W        W38880   2.819   2.937   1.277
70551W        W38881   4.447  39.513  12.492
70552W        W38882  29.470  13.769  14.384
70553W        W38883   1.930  36.579   2.227
70554W        W38884  20.247  38.560   3.290
70555W        W38885   1.342  30.978  11.521
70556W        W38886  15.138   2.428  11.096
70557W        W38887  16.304  23.993   4.767
70558W        W38888  37.479  16.163  12.050
70559W        W38889  20.035   6.213  14.886
70560W        W38890  19.255  35.952  11.961
70561W        W38891  11.692  15.774   4.251
70562W        W38892  19.084  12.195   0.920
70563W        W38893  34.383  40.306   4.283
70564W        W38894   2.254   6.398   0.243
70565W        W38895  10.684  19.549  14.493
70566W        W38896  22.594  15.293  14.288
70567W        W38897  42.921  34.024   3.350
70568W        W38898  43.504   8.285   3.665
70569W        W38899  14.127  21.018  10.042
70570W        W38900  17.561  17.232  13.813
70571W        W38901  29.016   5.748  13.449
70572W        W38902  42.333  35.916  11.926
70573W        W38903  14.184   8.381  14.472
70574W        W38904  12.307  36.023  11.875
70575W        W38905   2.924  10.278   4.300
70576W        W38906  21.216  16.638   1.397
70577W        W38907  31.069   0.818   1.711
70578W        W38908  36.425  39.433   3.335
70579W        W38909  13.722  26.482  10.588
70580W        W38910  25.702  38.503   3.868
70581W        W38911  18.207   8.666   3.680
70582W        W38912  32.617  24.497  11.878
70583W        W38913  42.836  23.205  10.497
70584W        W38914   9.655  35.050  11.932
70585W        W38915  38.916  41.493  13.915
70586W        W38916  39.511  24.974   4.175
70587W        W38917   6.282  38.508  12.915
70588W        W38918  11.132  23.637  14.453
70589W        W38919   5.895   6.714   0.834
70590W        W38920  15.280   1.447  13.983
70591W        W38921   1.862  14.815  10.630
70592W        W38922   1.386  20.548   1.745
70593W        W38923  15.261  10.773  14.930
70594W        W38924  42.958  40.343   1.702
70595W        W38925  33.936   4.274   3.205
70596W        W38926   5.401  30.967   1.420
70597W        W38927   3.754  37.879  11.065
70598W        W38928  10.667  36.463   3.304
70599W        W38929  18.089   1.264  14.814
70600W        W38930  23.710  12.345   2.692
70601W        W38931  14.615  32.064   0.929
70602W        W38932  43.917  21.714   4.122
70603W        W38933  40.384  41.887  13.458
70604W        W38934  41.966  23.560   4.694
70605W        W38935  10.344   6.835   4.664
70606W        W38936  10.353  41.871  11.017
70607W        W38937  23.209  27.521  11.609
70608W        W38938  31.015  27.595   1.281
70609W        W38939   9.663  31.901   2.275
70610W        W38940   4.787  20.629  13.916
70611W        W38941  14.623  39.319  11.090
70612W        W38942  30.622  13.240   1.368
70613W        W38943  28.611  25.107  11.013
70614W        W38944  24.660   8.739   1.867
70615W        W38945  35.915  33.997   3.362
70616W        W38946  16.074   2.429   2.274
70617W        W38947  42.432  20.061  13.494
70618W        W38948   7.699  44.448   0.748
70619W        W38949  27.526  26.669  10.119
70620W        W38950  40.025  37.083  14.480
70621W        W38951   6.372   0.356   2.861
70622W        W38952  28.493   0.907  10.917
70623W        W38953  14.306  12.637  10.554
70624W        W38954  34.055  36.963   4.757
70625W        W38955   2.462  19.676   5.289
70626W        W38956  38.531   1.752  13.499
70627W        W38957   5.389  18.247  14.371
70628W        W38958   6.361  12.624   4.125
70629W        W38959  37.071  40.430   4.795
70630W        W38960  29.129  23.540  11.387
70631W        W38961   6.321  12.614  11.876
70632W        W38962  30.141  17.566  14.847
70633W        W38963  30.931  13.651   3.700
70634W        W38964   6.749  31.547   3.667
70635W        W38965  23.647  27.680   1.293
70636W        W38966  18.595  23.516   3.292
70637W        W38967   8.329  14.094   3.701
70638W        W38968  13.330  10.232  11.490
70639W        W38969  34.042  39.473  11.974
70640W        W38970  16.288  42.861  13.413
70641W        W38971  36.472  36.068   3.346
70642W        W38972  28.152  30.417   1.267
70643W        W38973   2.869  20.599   0.896
70644W        W38974   1.342  18.586  12.400
70645W        W38975  29.596  12.773   2.665
70646W        W38976  41.894  37.570   2.843
70647W        W38977  13.295  33.551  13.407
70648W        W38978  28.087   1.254   2.366
70649W        W38979  32.115  17.756   0.844
70650W        W38980  31.586  37.925   3.184
70651W        W38981  14.610  42.815  11.997
70652W        W38982   9.792  13.812  11.953
70653W        W38983  10.143  27.578   2.730
70654W        W38984   1.961  22.703   2.404
70655W        W38985  35.036  44.937  13.852
70656W        W38986  29.943   5.873  11.496
70657W        W38987  39.338  22.008   2.709
70658W        W38988  43.415  11.802   3.790
70659W        W38989  10.708  33.593  10.484
70660W        W38990  33.492  20.095  13.908
70661W        W38991  31.483  18.715  11.984
70662W        W38992  35.507   1.873  12.446
70663W        W38993  29.463  10.864  12.831
70664W        W38994  23.050  37.046  14.276
70665W        W38995  10.730  43.283  11.563
70666W        W38996   3.406  19.572   3.803
70667W        W38997   5.921  38.070  14.444
70668W        W38998  37.867  38.505   2.662
70669W        W38999  25.057  37.962   1.288
70670W        W39000  14.155   9.171  11.004
70671W        W39001   9.290  44.871   2.276
70672W        W39002  33.955  30.477   0.916
70673W        W39003  16.613  34.374   0.771
70674W        W39004  36.867   9.369  12.022
70675W        W39005   2.893  36.363   0.291
70676W        W39006   2.248   8.677   1.838
70677W        W39007  13.193  30.480  13.373
70678W        W39008   7.673  23.620  12.016
70679W        W39009  35.463   7.827   3.669
70680W        W39010  13.748   7.870   2.333
70681W        W39011  40.529   1.448  14.511
70682W        W39012   4.444  15.639  10.525
70683W        W39013  39.916   5.359  13.042
70684W        W39014   0.746   3.771  13.001
70685W        W39015   4.290  16.238   1.723
70686W        W39016   2.875  41.425   2.724
70687W        W39017  12.665  15.732   2.704
70688W        W39018   5.197  15.636  11.573
70689W        W39019   9.277   1.976  14.849
70690W        W39020  44.995  15.582  12.396
70691W        W39021  43.818  31.110   4.687
70692W        W39022   1.890  25.037   4.236
70693W        W39023  11.322  27.619   2.786
70694W        W39024  20.679   1.325   2.315
70695W        W39025  22.013  26.464  13.914
70696W        W39026   4.450  28.634  11.457
70697W        W39027  21.691  28.997  11.910
70698W        W39028  26.524  43.280   2.747
70699W        W39029  15.697  43.019   3.368
70700W        W39030  24.137  16.785  14.415
70701W        W39031  43.935  37.049   2.717
70702W        W39032   2.873  17.183  11.569
70703W        W39033   3.809  11.794   3.365
70704W        W39034  43.393  22.182  11.000
70705W        W39035   9.875  21.033  11.959
70706W        W39036  11.282  38.019   0.398
70707W        W39037  41.329  36.520  13.986
70708W        W39038  21.131  21.715   1.883
70709W        W39039  23.696  35.442   3.155
70710W        W39040  12.125  36.066   0.376
70711W        W39041  44.962  35.565  13.532
70712W        W39042   7.362  39.960   0.776
70713W        W39043  35.948  22.649  14.919
70714W        W39044  16.138   5.217   2.299
70715W        W39045   3.216  34.972   3.310
70716W        W39046  17.753  40.373   0.897
70717W        W39047  36.379  18.694  11.032
70718W        W39048  40.448   8.371  12.368
70719W        W39049   4.794  37.993  12.558
70720W        W39050   6.790  13.253   3.302
70721W        W39051  22.693  16.285   2.295
70722W        W39052  28.664   3.231  13.327
70723W        W39053  37.566  33.418   3.259
70724W        W39054   0.281  15.149  11.486
70725W        W39055  10.306   8.281  10.537
70726W        W39056   7.861  11.817  13.446
70727W        W39057  18.684   0.391  12.951
70728W        W39058   0.832   9.868  13.350
70729W        W39059  41.523  34.508   2.849
70730W        W39060  11.790  16.686  12.895
70731W        W39061  25.038  41.956   2.875
70732W        W39062  37.487  43.009   0.455
70733W        W39063  30.507  26.176  13.890
70734W        W39064  42.898  27.153  10.550
70735W        W39065  42.031   7.276   0.939
70736W        W39066  22.048  26.072  12.015
70737W        W39067  12.330   4.270  13.933
70738W        W39068  22.707  34.976   0.744
70739W        W39069  27.523  37.532  11.943
70740W        W39070  42.011  29.614   1.319
70741W        W39071  31.143   2.794   1.839
70742W        W39072  10.659  32.994  12.391
70743W        W39073  28.093  38.936   3.260
70744W        W39074  14.749  25.197  10.044
70745W        W39075  35.551  34.465  10.628
70746W        W39076  41.938   9.330  11.986
70747W        W39077   3.400  28.531  10.447
70748W        W39078  34.933  42.958   0.852
70749W        W39079  32.001  43.888  10.964
70750W        W39080   2.323  24.095   3.149
70751W        W39081  12.829  42.357  13.443
70752W        W39082  26.198  17.080  14.434
70753W        W39083  29.036  29.166   4.314
70754W        W39084  36.875   4.393   4.288
70755W        W39085  12.140  26.105  13.927
70756W        W39086  25.509  33.011  13.064
70757W        W39087  26.966  15.222  12.393
70758W        W39088  39.404  35.503   2.209
70759W        W39089  33.408   2.330   0.365
70760W        W39090   4.445  38.561   2.233
70761W        W39091  12.778  43.897   4.732
70762W        W39092   3.431  42.981   2.812
70763W        W39093   4.736  29.003  10.147
70764W        W39094   9.644   6.384   4.663
70765W        W39095  32.494  40.012   0.302
70766W        W39096  16.603  20.729   3.748
70767W        W39097  32.542  37.434  13.841
70768W        W39098  19.568  17.632   3.713
70769W        W39099   9.311  23.206   2.292
70770W        W39100   4.218  32.612  12.577
70771W        W39101  24.081   8.357  10.578
70772W        W39102  13.168   4.912   1.863
70773W        W39103  44.411  33.098   2.812
70774W        W39104  31.493  22.995   9.468
70775W        W39105  36.509   6.747  14.411
70776W        W39106  38.991  27.668  12.504
70777W        W39107  28.461  43.332  11.454
70778W        W39108   6.854   9.288   4.167
70779W        W39109  15.633  37.874  13.497
70780W        W39110  42.492  15.702   1.772
70781W        W39111  15.810  38.955   4.806
70782W        W39112  44.983  40.472   4.207
70783W        W39113  17.269  39.967   1.890
70784W        W39114   3.222  17.667   4.304
70785W        W39115   6.407   8.829  11.005
70786W        W39116   6.764   2.888  13.410
70787W        W39117  18.661  13.827  13.471
70788W        W39118  18.670  34.388   0.851
70789W        W39119  19.206  37.012   1.241
70790W        W39120  22.196  21.177   4.113
70791W        W39121  19.577  11.810   3.650
70792W        W39122   1.839   8.391   1.729
70793W        W39123  36.444  27.136  14.285
70794W        W39124   2.390  34.411   1.834
70795W        W39125  42.507  14.757   1.756
70796W        W39126  22.724   6.892   5.304
70797W        W39127  38.013   1.453   0.932
70798W        W39128  27.025  11.856  10.445
70799W        W39129  33.936   1.268  10.639
70800W        W39130  38.898  17.693   3.261
70801W        W39131  10.220  39.033   1.398
70802W        W39132  29.636  42.288   0.777
70803W        W39133   9.192  23.536  11.486
70804W        W39134  32.024  15.738   4.679
70805W        W39135   0.829  33.540   1.305
70806W        W39136  20.226  29.967   3.735
70807W        W39137  30.502  27.460   2.728
70808W        W39138   0.322  16.073  12.524
70809W        W39139  23.512  15.320  12.342
70810W        W39140  38.350  33.921  12.367
70811W        W39141   6.417  24.575  14.006
70812W        W39142  15.203  34.490   1.905
70813W        W39143  26.048   9.853   4.634
70814W        W39144   1.857  12.693   2.379
70815W        W39145  33.496   8.781   2.370
70816W        W39146  41.988  37.456  12.444
70817W        W39147  31.647  31.525   0.902
70818W        W39148  39.319   9.846   4.221
70819W        W39149   5.878  23.731  14.486
70820W        W39150  19.171   3.338   0.475
70821W        W39151  30.933   9.170   3.736
70822W        W39152  30.462  17.647   3.807
70823W        W39153   0.259  25.094   2.326
70824W        W39154   8.381  28.670   3.162
70825W        W39155  33.522  14.280   9.932
70826W        W39156  30.639  30.515  10.933
70827W        W39157  30.562  30.919  13.978
70828W        W39158  29.548  20.557   2.374
70829W        W39159  28.586  13.840   1.331
70830W        W39160  22.519  43.394   0.768
70831W        W39161  28.034   0.759   1.931
70832W        W39162   7.699  22.696   5.147
70833W        W39163  35.975  18.615   3.766
70834W        W39164  29.475  31.598   1.239
70835W        W39165   4.882  29.614  13.840
70836W        W39166  25.096  38.516   0.309
70837W        W39167  22.722  22.238   4.350
70838W        W39168  32.991  44.935   4.720
70839W        W39169  18.747  17.165   3.722
70840W        W39170  36.922  27.603  11.421
70841W        W39171   6.706  39.865   0.928
70842W        W39172  11.281   7.409  12.968
70843W        W39173  29.944  20.205  10.479
70844W        W39174  28.576  35.500   2.412
70845W        W39175  33.399  17.774   3.274
70846W        W39176  23.502   3.270   0.341
70847W        W39177  13.139  25.565   1.347
70848W        W39178  33.926  18.748   1.857
70849W        W39179  33.973  18.629   3.856
70850W        W39180   0.491  26.477   2.850
70851W        W39181  40.835  44.276  13.318
70852W        W39182   8.184   9.229  13.394
70853W        W39183  17.221  16.783   3.657
70854W        W39184  26.561  11.691   0.419
70855W        W39185  42.033  41.344   1.777
70856W        W39186  39.902  17.153  10.488
70857W        W39187  31.516  37.538   1.884
70858W        W39188  39.391  21.649  10.420
70859W        W39189  37.471  19.280   2.339
70860W        W39190  32.903   8.721   0.826
70861W        W39191  31.004  20.678  11.868
70862W        W39192  29.640  33.118  11.009
70863W        W39193  40.512  40.432   2.307
70864W        W39194  23.209  24.696   2.202
70865W        W39195  19.282  20.754   1.353
70866W        W39196  32.085  38.854   1.305
70867W        W39197  22.732  36.955   0.785
70868W        W39198  27.646  28.125  13.983
70869W        W39199  11.318  11.217   3.804
70870W        W39200  21.068  15.747  11.855
70871W        W39201  14.294  29.469  10.459
70872W        W39202  40.340  13.711  12.868
70873W        W39203  28.495  23.107  13.924
70874W        W39204   4.358   1.255  12.838
70875W        W39205  17.187   7.365  12.430
70876W        W39206  38.338  35.951  14.029
70877W        W39207  24.057  39.525  10.552
70878W        W39208   4.427  14.625  12.880
70879W        W39209   7.863  32.637   4.118
70880W        W39210   3.844  21.697  13.443
70881W        W39211  20.199  26.600   3.782
70882W        W39212  17.637  41.538  12.527
70883W        W39213  16.211   8.321  14.923
70884W        W39214   2.852   7.191  13.889
70885W        W39215  14.649  27.943  13.911
70886W        W39216  10.376   0.399   2.372
70887W        W39217  27.483   0.827  10.634
70888W        W39218  27.577  11.285   2.740
70889W        W39219  30.514  36.416  14.027
70890W        W39220  33.434  12.303  14.297
70891W        W39221  14.221   1.260   3.245
70892W        W39222  40.938  25.072   0.888
70893W        W39223   1.337  33.059  14.827
70894W        W39224   8.335  15.257   1.907
70895W        W39225  36.053  23.020   3.320
70896W        W39226   0.297  43.790  14.761
70897W        W39227  20.202  17.708  14.901
70898W        W39228  41.358  21.205   3.774
70899W        W39229  40.542   7.695  10.467
70900W        W39230  11.788   5.355   0.328
70901W        W39231  29.510   0.276  10.527
70902W        W39232   9.797  23.105  12.840
70903W        W39233  17.240   5.786   4.184
70904W        W39234   9.165  34.981  11.894
70905W        W39235  16.232  41.975  11.113
70906W        W39236  30.065  28.989   2.270
70907W        W39237  19.541  42.911  13.010
70908W        W39238  36.982  29.985  10.643
70909W        W39239  12.298  31.486   3.702
70910W        W39240  39.911  20.745  11.079
70911W        W39241  35.876  16.218   1.917
70912W        W39242   6.724  38.914   3.266
70913W        W39243  22.145  16.689  11.453
70914W        W39244  21.082  33.040   2.903
70915W        W39245  21.537  39.454  13.855
70916W        W39246  14.775  26.644  14.977
70917W        W39247   4.222  20.236  13.456
70918W        W39248  10.275  29.989  14.903
70919W        W39249  31.506   7.398   4.682
70920W        W39250  27.964  35.393   1.235
70921W        W39251   2.870  37.401   5.315
70922W        W39252   8.214  32.068   4.802
70923W        W39253  12.233  11.358  14.423
70924W        W39254  24.129  38.431   0.915
70925W        W39255  17.180  18.559   0.342
70926W        W39256   6.194  26.080   4.664
70927W        W39257   7.332   8.871   3.272
70928W        W39258  21.261  16.204   1.763
70929W        W39259  18.236  30.050   1.411
70930W        W39260  29.545   5.400   4.808
70931W        W39261  23.511  26.590   0.927
70932W        W39262  16.795   2.779  14.976
70933W        W39263  38.960  12.259   3.673
70934W        W39264   1.834   4.882   2.321
70935W        W39265   0.793  25.163  14.475
70936W        W39266  39.886  34.394  14.907
70937W        W39267   2.332  22.027  14.351
70938W        W39268  24.201  26.016  14.916
70939W        W39269   6.409  18.735  13.878
70940W        W39270  20.041   2.943  10.600
70941W        W39271   9.818  27.082  14.398
70942W        W39272  29.447  20.570  14.426
70943W        W39273  35.945  32.922  12.522
70944W        W39274  24.608  18.761  12.556
70945W        W39275  27.955  27.050   0.904
70946W        W39276  22.071   4.207  10.570
70947W        W39277  23.572  24.184   2.783
70948W        W39278  40.447  20.598  14.448
70949W        W39279  44.966  24.671   0.383
70950W        W39280  30.120   1.876   0.447
70951W        W39281  32.886  24.037  11.559
70952W        W39282  33.417  43.991  10.416
70953W        W39283   2.420   1.390  14.341
70954W        W39284  22.641  29.618  10.450
70955W        W39285  19.552   3.817  14.476
70956W        W39286  11.707  37.416  10.929
70957W        W39287  23.095  24.020  11.421
70958W        W39288  10.370   5.784   0.468
70959W        W39289  38.544  20.613  13.016
70960W        W39290  37.997  11.839  14.454
70961W        W39291   6.317   9.311  11.892
70962W        W39292  14.703  10.199  14.308
70963W        W39293  40.040  36.419   1.414
70964W        W39294  44.759  27.125   0.742
70965W        W39295  25.555  29.063  10.107
70966W        W39296  41.793   9.842  13.400
70967W        W39297  31.457  10.796  11.440
70968W        W39298  28.611  15.295  11.433
70969W        W39299  31.531  17.567   1.832
70970W        W39300  36.032   6.862  13.502
70971W        W39301  13.721  29.167   0.418
70972W        W39302   9.734  17.582   1.422
70973W        W39303   1.779  28.438   4.797
70974W        W39304  31.638  25.210  12.970
70975W        W39305  12.644  24.007   1.339
70976W        W39306   2.754  22.087  12.825
70977W        W39307   2.280  14.270  13.892
70978W        W39308   5.754  32.488  14.330
70979W        W39309   8.174  27.630   4.283
70980W        W39310   6.771   6.880   4.221
70981W        W39311  34.610  22.126   4.178
70982W        W39312  42.316  39.834  13.807
70983W        W39313   5.309   0.398   0.327
70984W        W39314  41.855  40.902  11.574
70985W        W39315   0.490  37.976  13.396
70986W        W39316  12.191  36.496   3.333
70987W        W39317   5.200  11.819  11.116
70988W        W39318  17.610  43.968  10.905
70989W        W39319  19.618  23.594  10.033
70990W        W39320  18.650  24.089   4.751
70991W        W39321  44.817  15.625   5.145
70992W        W39322  31.634  25.485   2.410
70993W        W39323  27.019  32.607  12.867
70994W        W39324  10.811   8.337   4.306
70995W        W39325  38.510  36.050  11.924
70996W        W39326  29.449  20.048  14.000
70997W        W39327  35.508  42.922   0.419
70998W        W39328  19.127   3.268  11.556
70999W        W39329  42.993  30.583  10.079
71000W        W39330  18.055  11.774  12.000
71001W        W39331  26.673  29.946  10.929
71002W        W39332   8.363  23.696  10.435
71003W        W39333  14.695  14.764  13.325
71004W        W39334   5.927   6.839   2.853
71005W        W39335  40.016  44.787   1.901
71006W        W39336  36.551  43.512   2.846
71007W        W39337  30.612  34.582   0.356
71008W        W39338  26.545   9.359  12.530
71009W        W39339  34.412  26.529   3.276
71010W        W39340  39.332  27.643   1.213
71011W        W39341  27.164  25.480   4.687
71012W        W39342  21.540  28.024  10.572
71013W        W39343  44.363  14.646   1.781
71014W        W39344  12.228  15.227  11.492
71015W        W39345  21.204  18.748  14.768
71016W        W39346  10.696  30.484  11.389
71017W        W39347  39.503  40.467   1.336
71018W        W39348  20.123  33.051   1.423
71019W        W39349   3.275   5.243  10.994
71020W        W39350  25.471  11.661  11.496
71021W        W39351  26.545  19.179   4.300
71022W        W39352  28.619  34.925   3.222
71023W        W39353  26.964   1.883  12.072
71024W        W39354   4.436  44.387   3.344
71025W        W39355  43.348   7.716  13.510
71026W        W39356  44.272  38.372   3.681
71027W        W39357   5.841  13.745   3.744
71028W        W39358   2.920   3.327   3.689
71029W        W39359  42.499  13.781   3.823
71030W        W39360   4.445  27.598  14.811
71031W        W39361  31.148  31.979  12.533
71032W        W39362  10.799   7.217   0.963
71033W        W39363  24.636   6.241  10.438
71034W        W39364  31.984  28.588   0.735
71035W        W39365   9.172  40.811   4.743
71036W        W39366  32.455  28.455  14.469
71037W        W39367  22.543  28.105  11.605
71038W        W39368  28.079  10.250   5.091
71039W        W39369   8.681  34.608  12.421
71040W        W39370  11.348  27.985  12.487
71041W        W39371  22.127   5.382  10.587
71042W        W39372  37.028  26.589   4.334
71043W        W39373  18.600  24.650   0.478
71044W        W39374  30.004  14.235  11.922
71045W        W39375  11.310   7.732   4.211
71046W        W39376   8.342  12.828   2.667
71047W        W39377  42.297  11.330   1.389
71048W        W39378  42.280  12.644  14.795
71049W        W39379  17.290  10.778  11.092
71050W        W39380  20.072   5.759  14.459
71051W        W39381  18.576  24.207  13.430
71052W        W39382   9.744  23.113   2.789
71053W        W39383  24.587  32.565   3.669
71054W        W39384   8.730   4.923  11.398
71055W        W39385  19.778   9.647   4.229
71056W        W39386  40.817  26.139  10.904
71057W        W39387  10.275  32.435   1.775
71058W        W39388  30.938  29.920  14.821
71059W        W39389  40.415  12.851  11.888
71060W        W39390  32.601  35.905  10.890
71061W        W39391  21.258  43.801  11.435
71062W        W39392   1.964  20.152  10.525
71063W        W39393  20.266  40.915   4.682
71064W        W39394  11.209  36.959  10.550
71065W        W39395  30.111  29.460   0.412
71066W        W39396  17.689  38.461  11.106
71067W        W39397  40.963   2.844   3.296
71068W        W39398  20.034  12.815   3.281
71069W        W39399  27.599  38.537  11.376
71070W        W39400  12.685   7.195   3.745
71071W        W39401  24.648  27.614  13.496
71072W        W39402   3.271  25.486   1.310
71073W        W39403   0.918   7.330   1.820
71074W        W39404  35.068  11.639  13.956
71075W        W39405  15.789   6.898  11.394
71076W        W39406  22.587  44.961  12.005
71077W        W39407   4.873  33.922  12.509
71078W        W39408  44.760  37.930   3.833
71079W        W39409  26.121  36.889  10.930
71080W        W39410  12.625  38.876  15.000
71081W        W39411   7.770   5.384  10.933
71082W        W39412   6.900  41.963   1.832
71083W        W39413  26.526   1.371  11.452
71084W        W39414  41.969   8.883  12.456
71085W        W39415  42.381   9.865  12.914
71086W        W39416   4.776  38.516   2.888
71087W        W39417  33.386   4.218  14.855
71088W        W39418  27.084   3.284   2.696
71089W        W39419   0.395  12.289   3.656
71090W        W39420  14.179  35.504  10.552
71091W        W39421   2.275  37.910   3.666
71092W        W39422  44.306  26.526   4.185
71093W        W39423  33.915  27.192  11.058
71094W        W39424  12.775   5.867   1.912
71095W        W39425  12.777  34.377  14.015
71096W        W39426   6.352   1.459   1.803
71097W        W39427  10.228  12.219  11.462
71098W        W39428  39.040  20.101  11.950
71099W        W39429  11.134  15.208   0.303
71100W        W39430  37.989   3.917  13.802
71101W        W39431  19.620  42.285  13.866
71102W        W39432  34.415   3.301   1.231
71103W        W39433  37.869  23.133   4.598
71104W        W39434  33.893  13.789   3.382
71105W        W39435  44.493  16.088   2.415
71106W        W39436  17.580  14.203  13.389
71107W        W39437  37.011   6.222   0.803
71108W        W39438   1.329  15.711   2.716
71109W        W39439  27.623  22.727  10.517
71110W        W39440  12.661  31.057  14.814
71111W        W39441  24.152  11.139   1.326
71112W        W39442  41.037   9.217  13.924
71113W        W39443  24.604  42.897   2.735
71114W        W39444  37.370   3.241  10.546
71115W        W39445  16.788   4.760  13.350
71116W        W39446  25.497  18.127  12.572
71117W        W39447  25.665  31.038  13.542
71118W        W39448  28.589  33.896   1.285
71119W        W39449  42.856   6.362   1.853
71120W        W39450  33.057   5.320   4.815
71121W        W39451  43.779  28.656  11.494
71122W        W39452  18.279  44.309   4.725
71123W        W39453  20.124  32.606   0.268
71124W        W39454  22.718  34.534   4.640
71125W        W39455  33.573   0.860   2.870
71126W        W39456  28.556  11.798   3.309
71127W        W39457  12.300  17.108   2.279
71128W        W39458  39.339  43.328   1.312
71129W        W39459  19.201  18.203   5.085
71130W        W39460  19.145  29.555   0.331
71131W        W39461  28.449   6.284  12.952
71132W        W39462  31.936   8.849   0.896
71133W        W39463  32.085  13.349  10.624
71134W        W39464  43.306  30.123  14.775
71135W        W39465  15.244   4.876   4.839
71136W        W39466   7.822  22.219   3.256
71137W        W39467  17.144  22.713   0.319
71138W        W39468   4.211  11.698   0.868
71139W        W39469  29.496   4.944   9.982
71140W        W39470  17.081  43.453   3.190
71141W        W39471  43.940  14.644  11.573
71142W        W39472   4.919  40.450  10.933
71143W        W39473   6.710  37.488   3.719
71144W        W39474  38.837  25.215  13.996
71145W        W39475  13.817  32.601   3.257
71146W        W39476  40.453  33.590  12.035
71147W        W39477  44.873  11.209   1.236
71148W        W39478  12.834  14.597   4.223
71149W        W39479  36.419  10.811   0.254
71150W        W39480  10.266  13.788  12.458
71151W        W39481  40.382  27.655   2.873
71152W        W39482  43.430  24.157  11.894
71153W        W39483  16.179   0.357   0.261
71154W        W39484  43.846  26.533  14.275
71155W        W39485   2.247  39.490  12.998
71156W        W39486   9.851  25.653  13.545
71157W        W39487  24.717  18.555  11.055
71158W        W39488  19.204  37.460   0.760
71159W        W39489  37.479   8.280   3.319
71160W        W39490   7.711   7.340   1.797
71161W        W39491  22.095  31.632   4.318
71162W        W39492  24.725  15.689  13.342
71163W        W39493  23.639  25.582   1.695
71164W        W39494  14.301  20.576   3.808
71165W        W39495  33.039  40.353  14.458
71166W        W39496  38.920  27.476   2.415
71167W        W39497  36.966  34.417  10.536
71168W        W39498  29.003   9.716  12.886
71169W        W39499  15.256   3.839   2.368
71170W        W39500   8.392  28.950   1.819
71171W        W39501  33.050  26.565  13.395
71172W        W39502   2.926  26.964  14.808
71173W        W39503  17.642  19.106   3.385
71174W        W39504  42.469  12.833   2.769
71175W        W39505  24.078   3.722   1.812
71176W        W39506  38.991  19.112   1.405
71177W        W39507  23.578  44.353   0.800
71178W        W39508  11.280  34.428   1.396
71179W        W39509  13.207  32.985  14.499
71180W        W39510   4.792  44.394  14.326
71181W        W39511  29.097  23.005   0.378
71182W        W39512  19.279  22.089  11.498
71183W        W39513  28.987   5.263  13.496
71184W        W39514  28.517  12.182   4.646
71185W        W39515  21.643  33.471  12.864
71186W        W39516  12.677  41.490   3.818
71187W        W39517  14.166  40.828   1.369
71188W        W39518   6.424  30.633  14.850
71189W        W39519  41.895  41.506   3.335
71190W        W39520   9.852  44.313  13.450
71191W        W39521  10.329   2.332   0.874
71192W        W39522  14.707  11.757   3.757
71193W        W39523  26.479  43.973  13.013
71194W        W39524  32.635  36.884   4.646
71195W        W39525  16.113  30.000   4.722
71196W        W39526  37.375  28.154  13.496
71197W        W39527  43.421  33.889   2.184
71198W        W39528  15.213  11.767   4.273
71199W        W39529  44.446   5.687  13.048
71200W        W39530  16.271  17.260  12.433
71201W        W39531  38.536  26.480   4.745
71202W        W39532  29.646   6.899  10.956
71203W        W39533  36.378  42.843  11.501
71204W        W39534  38.389  36.024   0.350
71205W        W39535  28.956  29.089  12.476
71206W        W39536  24.658  12.642  12.491
71207W        W39537  36.412  42.779   4.165
71208W        W39538  10.757  16.147  10.584
71209W        W39539  44.464  40.037  12.015
71210W        W39540  35.922   3.359  11.524
71211W        W39541   0.947  13.260   2.419
71212W        W39542  33.874  36.886   0.786
71213W        W39543   1.284  31.634  10.560
71214W        W39544  20.768  43.479  14.774
71215W        W39545   0.266  40.999   0.456
71216W        W39546  11.273   6.406  12.957
71217W        W39547   2.261   0.806   4.711
71218W        W39548   0.982   4.874  11.967
71219W        W39549   6.788  21.681  13.980
71220W        W39550  21.561   5.294   0.431
71221W        W39551  19.603  32.970  11.101
71222W        W39552  35.040   5.408  13.963
71223W        W39553  17.590  25.199  11.127
71224W        W39554   0.398  40.348  13.424
71225W        W39555  18.199  29.557  11.948
71226W        W39556  38.462   5.239   1.920
71227W        W39557  15.283  44.467   2.302
71228W        W39558  13.171  26.077   4.709
71229W        W39559  22.055  15.128   3.837
71230W        W39560  23.194  20.031  12.077
71231W        W39561  17.653  31.921   4.318
71232W        W39562  17.297  12.738  10.586
71233W        W39563  27.552   6.237   0.900
71234W        W39564  36.849  29.597  12.907
71235W        W39565  37.924   4.231  14.975
71236W        W39566   4.835  41.805   1.387
71237W        W39567  41.957  36.493  12.835
71238W        W39568   3.271  11.335   0.457
71239W        W39569  37.359  10.864  11.931
71240W        W39570  40.986  19.633   0.946
71241W        W39571  23.011  31.456  14.975
71242W        W39572  31.507  23.999  14.987
71243W        W39573  23.037   0.959  12.497
71244W        W39574  30.449  12.302   4.777
71245W        W39575  43.975  42.459   4.789
71246W        W39576  35.093  21.757   0.452
71247W        W39577  38.501  23.603  11.457
71248W        W39578  34.440  14.246   4.141
71249W        W39579  43.920  25.473   1.416
71250W        W39580   7.802  22.031  11.518
71251W        W39581   6.726  21.611  14.452
71252W        W39582  16.087  32.013   0.952
71253W        W39583  27.154  11.759  13.863
71254W        W39584  25.180  37.490   0.399
71255W        W39585  17.640  23.636  14.781
71256W        W39586  26.548  34.418   0.761
71257W        W39587  18.575  31.138   4.119
71258W        W39588  25.508  14.302  11.376
71259W        W39589  24.647  40.472   0.867
71260W        W39590  11.293  34.560   0.321
71261W        W39591  44.910   1.448  13.936
71262W        W39592  31.917  34.526   1.402
71263W        W39593  15.140  36.523   3.318
71264W        W39594  14.119  17.728   2.895
71265W        W39595  44.886  32.990   3.690
71266W        W39596   8.757  15.710   4.637
71267W        W39597  20.153  32.098  13.792
71268W        W39598  30.003  29.465  13.928
71269W        W39599  39.840  29.471  10.634
71270W        W39600   9.676  40.024   2.902
71271W        W39601  23.202  20.640  14.462
71272W        W39602  14.281  24.626   0.898
71273W        W39603  41.940  21.711  13.528
71274W        W39604  23.197  35.465   3.817
71275W        W39605  35.541  16.236  11.399
71276W        W39606  37.420  23.622   1.820
71277W        W39607  32.577  10.200  11.534
71278W        W39608  21.728   2.412  10.408
71279W        W39609  10.770  18.650   4.324
71280W        W39610  36.548  27.054  14.885
71281W        W39611  38.545  43.909   0.918
71282W        W39612   9.793  27.181  10.586
71283W        W39613  43.489  11.826  13.427
71284W        W39614  42.474   5.252  12.452
71285W        W39615  41.344  30.630   2.376
71286W        W39616   8.734  28.493   4.804
71287W        W39617  28.033  11.148   1.902
71288W        W39618  12.830   6.818  13.860
71289W        W39619  17.557  26.482   3.650
71290W        W39620  41.026  42.979  10.536
71291W        W39621  44.753  19.539   1.376
71292W        W39622  24.553  35.527   4.708
71293W        W39623   2.250  40.893  13.430
71294W        W39624  35.380   0.969   1.329
71295W        W39625  20.553   6.261   1.415
71296W        W39626  21.719   1.841   0.891
71297W        W39627  21.158   0.745   2.712
71298W        W39628  21.564  10.754  11.442
71299W        W39629   4.306  36.883   1.219
71300W        W39630  26.006  38.361  11.924
71301W        W39631  33.387  28.602   0.423
71302W        W39632  37.464  25.678   3.659
71303W        W39633  34.452  32.528  11.489
71304W        W39634  36.032  34.592  14.349
71305W        W39635  15.722  32.910  12.987
71306W        W39636  14.791   7.252   5.315
71307W        W39637  30.413  29.091  12.962
71308W        W39638  21.161  13.642   2.874
71309W        W39639  19.632  35.430   1.907
71310W        W39640  41.323  18.117   3.367
71311W        W39641  23.064  11.158   0.855
71312W        W39642  40.823   3.856   0.907
71313W        W39643  14.683  24.070  11.052
71314W        W39644  40.807  32.444  13.543
71315W        W39645  34.521  25.494   3.845
71316W        W39646  27.482  41.493  11.450
71317W        W39647  36.888  38.547  10.443
71318W        W39648  27.479  31.474  12.403
71319W        W39649  12.648   3.893   2.682
71320W        W39650  14.313   2.931   0.407
71321W        W39651  24.182  28.995   1.807
71322W        W39652  29.505   7.771  11.609
71323W        W39653  21.029  16.649   3.702
71324W        W39654  19.156  38.891  12.876
71325W        W39655  25.537  37.064   4.731
71326W        W39656  31.151  30.639   1.271
71327W        W39657  16.773  28.168  11.565
71328W        W39658  28.172  41.833   3.857
71329W        W39659   9.771   6.711   1.825
71330W        W39660  27.487  42.415  13.350
71331W        W39661  30.970  28.062   0.844
71332W        W39662  26.615  35.516  13.445
71333W        W39663  28.606  26.189   1.320
71334W        W39664   8.305  31.417   4.660
71335W        W39665   7.251  25.678  13.020
71336W        W39666  21.515  12.812   2.877
71337W        W39667   1.762  20.761   2.694
71338W        W39668   3.834  18.761  10.550
71339W        W39669  28.123   7.743  11.039
71340W        W39670  31.933  35.963  14.023
71341W        W39671   9.250  38.383   4.785
71342W        W39672  23.732  39.967  12.085
71343W        W39673   2.462  37.508   0.956
71344W        W39674   5.888  28.049  10.570
71345W        W39675  12.279  35.897   0.756
71346W        W39676  41.805  16.740  11.991
71347W        W39677  44.342  39.481   2.201
71348W        W39678  18.727  29.476   4.803
71349W        W39679  44.440  16.078   2.873
71350W        W39680  16.316  23.124   4.158
71351W        W39681  14.193  41.513   2.342
71352W        W39682  20.551  25.501   4.115
71353W        W39683  26.048  38.846   3.744
71354W        W39684  36.869  40.529  14.775
71355W        W39685  42.469  39.866   4.690
71356W        W39686  11.815  34.458   4.151
71357W        W39687  32.038  12.812  13.511
71358W        W39688  15.193  23.614  12.891
71359W        W39689  38.528  34.413  11.071
71360W        W39690  24.640  15.242  10.450
71361W        W39691  25.495   5.296  14.858
71362W        W39692   9.785  24.578  11.544
71363W        W39693  34.004  33.939  11.011
71364W        W39694   4.213   3.388   4.716
71365W        W39695   4.709  29.154   4.323
71366W        W39696  17.683  41.347  14.328
71367W        W39697  14.180  36.877   4.834
71368W        W39698   4.233  39.438  14.508
71369W        W39699  43.798  19.048   0.298
71370W        W39700  38.368  30.919   1.880
71371W        W39701  15.624   3.390   0.309
71372W        W39702  38.374  41.313   1.371
71373W        W39703   5.740  22.181  13.308
71374W        W39704  12.761  25.084  13.354
71375W        W39705  36.534  21.646   4.695
71376W        W39706  29.090  15.216  12.833
71377W        W39707  25.050  26.070   2.748
71378W        W39708  17.183  17.723  13.450
71379W        W39709   6.341  13.162  12.062
71380W        W39710  39.426  31.481  11.945
71381W        W39711  19.670   2.417   4.810
71382W        W39712  20.723   4.929   0.369
71383W        W39713   8.847  17.093  12.880
71384W        W39714  35.885  24.991   4.268
71385W        W39715  18.572  38.415   3.203
71386W        W39716  14.226  42.302  11.984
71387W        W39717  21.124   7.272  12.082
71388W        W39718  43.432  27.177   1.844
71389W        W39719  36.392  20.729   2.415
71390W        W39720   7.392  25.565  10.899
71391W        W39721   1.467  34.548  12.498
71392W        W39722  33.397  15.747   4.838
71393W        W39723  21.718  42.297  14.293
71394W        W39724  20.673  36.357  13.804
71395W        W39725   9.867  36.355   2.671
71396W        W39726  41.023   6.408   0.730
71397W        W39727  27.107  41.423  12.005
71398W        W39728  32.007   0.300   2.342
71399W        W39729  30.480   5.417   1.723
71400W        W39730  43.979  41.305   0.247
71401W        W39731  11.369  10.244   2.870
71402W        W39732  41.889  10.873   4.821
71403W        W39733  44.847   9.680  13.502
71404W        W39734  43.879  43.358  10.925
71405W        W39735  23.620  41.509  12.051
71406W        W39736  24.111  34.046   4.803
71407W        W39737  38.894  20.607   3.685
71408W        W39738  14.335  19.534   1.216
71409W        W39739  29.426  24.646  12.960
71410W        W39740  20.043  17.280  14.980
71411W        W39741  40.845  36.454   2.301
71412W        W39742  14.807  44.294  12.565
71413W        W39743  30.981  19.186   3.288
71414W        W39744   3.392  33.927   2.265
71415W        W39745  36.867  20.610   0.774
71416W        W39746  20.126  41.433  14.469
71417W        W39747  26.614  22.031  10.154
71418W        W39748  27.954  19.250  14.027
71419W        W39749  29.520  24.722  11.963
71420W        W39750  40.968  17.292  14.403
71421W        W39751  32.436  20.125  10.424
71422W        W39752   1.776   1.758  12.407
71423W        W39753  22.162  12.847  14.393
71424W        W39754   7.855   0.916   0.743
71425W        W39755  44.400  38.348   2.751
71426W        W39756   5.273  12.718   3.841
71427W        W39757  40.926  42.301   1.848
71428W        W39758  30.111  42.322  11.957
71429W        W39759   5.399   4.247   0.752
71430W        W39760  14.662  37.464  10.538
71431W        W39761  10.671   5.851  13.438
71432W        W39762   5.873   8.306   3.767
71433W        W39763   6.342   2.302   2.308
71434W        W39764  39.405  38.364   2.675
71435W        W39765  18.064  11.812   1.760
71436W        W39766  39.464  31.630   0.280
71437W        W39767  23.497  44.291   1.401
71438W        W39768  18.237  39.827   2.362
71439W        W39769   1.873  44.984  12.844
71440W        W39770  18.067  24.576  11.566
71441W        W39771  10.694  23.126   0.468
71442W        W39772  22.090   9.798  11.987
71443W        W39773   1.791  13.206   2.685
71444W        W39774  10.789  16.640  12.883
71445W        W39775  29.654  33.944   1.436
71446W        W39776  40.469   7.814  11.612
71447W        W39777  26.995   8.270   3.326
71448W        W39778  33.076  24.501  13.791
71449W        W39779  15.731  22.612  13.495
71450W        W39780  39.968   9.728  14.902
71451W        W39781   7.747  23.060   4.199
71452W        W39782  29.134  16.225   4.611
71453W        W39783  13.599  19.216  11.434
71454W        W39784  41.312   6.354  12.356
71455W        W39785  40.951   7.911  13.510
71456W        W39786  35.363  39.987   4.166
71457W        W39787   6.856  13.194  11.095
71458W        W39788  30.918  34.910   1.825
71459W        W39789  31.079  39.510   4.625
71460W        W39790   3.297  31.568   2.807
71461W        W39791   1.834  30.536  12.003
71462W        W39792  13.305   3.762  13.511
71463W        W39793  28.969  24.493  13.876
71464W        W39794  10.873   2.754  10.931
71465W        W39795  26.593  22.530  12.825
71466W        W39796  37.971  28.942  12.844
71467W        W39797  33.906   1.873   0.834
71468W        W39798   9.279  24.595  10.476
71469W        W39799  12.266   2.828   3.147
71470W        W39800  39.555  10.844  12.997
71471W        W39801  29.952  16.133  13.852
71472W        W39802  33.546  43.403   0.864
71473W        W39803   1.378  10.664   3.286
71474W        W39804  10.216  29.070   2.325
71475W        W39805  25.664   1.784  14.291
71476W        W39806   9.707  34.101  11.095
71477W        W39807  40.972  19.245  11.970
71478W        W39808   6.422   4.698   2.408
71479W        W39809   5.817  38.979   4.752
71480W        W39810  16.237   1.246  13.505
71481W        W39811  31.636   8.216   1.769
71482W        W39812  27.679   8.769  11.932
71483W        W39813  32.528   5.845  12.354
71484W        W39814  33.070   7.905   2.769
71485W        W39815   8.865  15.258   2.802
71486W        W39816  27.152  26.535   0.856
71487W        W39817  41.993  16.218   2.178
71488W        W39818  22.584  25.571   4.700
71489W        W39819  28.529   1.414   2.184
71490W        W39820  29.591   4.230  11.054
71491W        W39821  40.968  39.840   0.775
71492W        W39822  28.649  32.100  13.909
71493W        W39823  22.628  27.472  13.990
71494W        W39824  42.787  33.951  14.893
71495W        W39825   3.298   4.406   1.785
71496W        W39826   7.761  38.914   0.859
71497W        W39827  22.717  25.591  14.014
71498W        W39828  40.331  20.616   2.189
71499W        W39829  43.513  27.130   2.867
71500W        W39830  44.352   0.336  11.406
71501W        W39831   8.276  28.459  13.498
71502W        W39832   4.809  37.362  12.544
71503W        W39833   9.870  43.323   0.349
71504W        W39834   2.958   5.905   2.246
71505W        W39835   8.901  25.667   2.824
71506W        W39836  33.560  15.124   3.313
71507W        W39837  15.106  43.824   3.323
71508W        W39838  10.790  19.201  12.494
71509W        W39839   0.932  31.554   4.174
71510W        W39840  31.480  20.699   4.694
71511W        W39841  24.694  11.829   4.152
71512W        W39842  16.222  12.734   3.750
71513W        W39843  15.283  12.732   4.705
71514W        W39844  25.660  40.526  12.564
71515W        W39845  16.619  18.219   2.206
71516W        W39846  17.737  23.017  10.978
71517W        W39847   0.791  15.162   3.648
71518W        W39848  21.577  13.185  14.951
71519W        W39849  29.436  15.233   3.845
71520W        W39850  31.982  15.640   3.636
71521W        W39851  18.243  25.189   9.932
71522W        W39852  34.037  37.972  11.077
71523W        W39853  28.009  25.138  14.491
71524W        W39854  24.170  11.178  10.119
71525W        W39855  27.594  14.605   1.920
71526W        W39856  22.503   9.155   2.334
71527W        W39857  28.174  38.403  10.489
71528W        W39858  33.099  39.449   0.866
71529W        W39859  10.655  30.093   1.827
71530W        W39860  31.015  16.140  11.047
71531W        W39861  13.736   3.276   3.261
71532W        W39862  34.471  26.587  12.949
71533W        W39863  37.893  31.469   1.313
71534W        W39864  35.424  30.956   2.332
71535W        W39865  17.200  39.994  13.022
71536W        W39866  18.121  20.246  14.451
71537W        W39867  40.468  24.585  11.119
71538W        W39868   7.311  41.402  13.529
71539W        W39869  44.754  29.961  11.052
71540W        W39870  18.697   2.941   4.727
71541W        W39871  27.485   6.221   2.783
71542W        W39872  10.658  27.496  11.991
71543W        W39873  37.961  25.102   4.798
71544W        W39874  26.542  36.551   2.855
71545W        W39875  40.862  14.248   0.909
71546W        W39876  14.301   7.769   3.716
71547W        W39877  44.814  25.161  14.434
71548W        W39878  36.446  30.516   3.643
71549W        W39879  12.191  11.728  13.803
71550W        W39880  37.045  14.154  14.875
71551W        W39881   9.279  39.883   4.676
71552W        W39882  17.677  32.056  13.446
71553W        W39883   6.271  36.399   4.313
71554W        W39884  29.512  39.932  13.035
71555W        W39885   3.869  28.096   3.360
71556W        W39886   2.406  41.945  14.503
71557W        W39887   6.262  17.658   0.909
71558W        W39888  35.963   0.758  14.910
71559W        W39889   1.423  39.948   0.475
71560W        W39890  40.352   6.836   2.240
71561W        W39891   6.809  14.108  11.422
71562W        W39892  35.524  29.442   0.348
71563W        W39893   5.362  37.403   0.282
71564W        W39894  34.869  27.081  14.338
71565W        W39895  41.933  32.436   3.268
71566W        W39896  44.285  26.504  11.032
71567W        W39897  31.030   1.290   1.368
71568W        W39898  43.342   5.224   1.252
71569W        W39899  11.284  22.039   2.750
71570W        W39900   9.819  16.100  11.453
71571W        W39901  33.992  19.659   3.289
71572W        W39902  41.378  18.185  14.904
71573W        W39903  12.751   2.359   3.864
71574W        W39904  44.770  23.509  12.057
71575W        W39905  10.383  17.241  11.063
71576W        W39906  15.187  26.544   5.084
71577W        W39907  24.132  36.043   1.345
71578W        W39908  13.620  20.087  14.451
71579W        W39909  15.751  12.134  10.923
71580W        W39910  31.576  11.830  12.017
71581W        W39911  26.203  19.250  11.593
71582W        W39912  25.106  20.769   1.357
71583W        W39913   3.336   5.272   1.246
71584W        W39914  43.999  34.604   0.300
71585W        W39915  24.179  44.259  11.982
71586W        W39916  31.916  34.545   3.726
71587W        W39917   2.357  43.849   2.743
71588W        W39918   6.290  44.490  10.533
71589W        W39919  24.722   2.791  13.495
71590W        W39920  27.513  14.281  10.570
71591W        W39921  19.068  21.654   1.358
71592W        W39922  14.335  21.544   3.289
71593W        W39923  14.706  14.737  14.348
71594W        W39924  10.840  34.914  13.413
71595W        W39925   5.838  35.872   1.411
71596W        W39926  21.603   3.876  14.431
71597W        W39927   5.851  10.305   4.223
71598W        W39928   1.452  42.815  13.489
71599W        W39929  42.378  16.625  14.307
71600W        W39930  10.770  34.037   2.805
71601W        W39931  44.449  22.198   3.794
71602W        W39932  11.738  37.924  10.600
71603W        W39933  35.496  26.693   2.331
71604W        W39934  10.144  27.952   5.137
71605W        W39935  10.722  42.338  14.486
71606W        W39936  21.663  36.995   1.260
71607W        W39937  12.296  33.078   4.682
71608W        W39938   5.931  23.031  12.464
71609W        W39939  36.940  37.845  14.903
71610W        W39940  33.085  12.684  10.554
71611W        W39941  37.533  12.194  11.976
71612W        W39942  14.267  42.986  12.089
71613W        W39943  17.142  36.462   0.775
71614W        W39944  44.407   0.845   1.789
71615W        W39945   5.789  35.594   3.691
71616W        W39946  38.841  40.960  13.028
71617W        W39947  34.117  20.534   2.883
71618W        W39948  22.702  14.698  12.516
71619W        W39949  18.783  43.276  11.941
71620W        W39950  16.623  28.127   1.264
71621W        W39951  41.398   4.353   4.635
71622W        W39952  14.161  40.518   2.265
71623W        W39953  13.731  31.051  14.895
71624W        W39954   8.291  36.373   3.147
71625W        W39955   9.682   5.842   2.347
71626W        W39956   7.892   5.821   1.697
71627W        W39957  10.217  42.411   4.603
71628W        W39958   5.746  15.091  10.455
71629W        W39959  43.492  38.059  13.820
71630W        W39960   8.281  16.118   0.809
71631W        W39961  44.999   4.410  11.899
71632W        W39962  32.423  17.801   2.184
71633W        W39963  28.126   8.654  12.540
71634W        W39964  30.133   3.838   4.740
71635W        W39965  25.659   3.952  14.340
71636W        W39966  34.386  43.886   0.452
71637W        W39967  21.173  43.479  10.563
71638W        W39968  23.725  44.775   2.342
71639W        W39969  21.151  17.084   1.416
71640W        W39970  32.887  39.925   3.168
71641W        W39971  29.564  38.975  14.940
71642W        W39972  41.817  36.988  12.979
71643W        W39973   3.731  42.003   0.411
71644W        W39974  11.366  37.984  12.469
71645W        W39975  22.691   9.221   2.825
71646W        W39976  20.209  17.075  14.326
71647W        W39977  26.071  36.921   0.803
71648W        W39978  38.520  30.042  14.484
71649W        W39979   7.179  42.431  11.575
71650W        W39980  20.121  31.628  13.906
71651W        W39981  10.139   6.182  13.449
71652W        W39982  13.672  44.988   3.737
71653W        W39983  25.656   9.178   0.338
71654W        W39984  41.896  34.939   2.394
71655W        W39985  10.202  19.084   4.682
71656W        W39986  21.605  30.521  13.933
71657W        W39987  15.702  44.505   0.440
71658W        W39988  13.836   6.824   0.385
71659W        W39989   5.911   0.850   3.841
71660W        W39990  40.472   9.384   1.829
71661W        W39991  21.144  38.921   3.325
71662W        W39992  44.365  41.428   9.965
71663W        W39993  44.996   7.764  10.606
71664W        W39994  30.965  40.810  14.936
71665W        W39995  25.988   4.205  12.505
71666W        W39996  28.986  31.991  12.969
71667W        W39997  15.093  35.369   3.710
71668W        W39998  25.118  13.727  14.460
71669W        W39999   7.292   5.418   4.274
71670W        W40000   7.887  20.226  13.492
71671W        W40001  34.894  21.515   4.651
71672W        W40002  23.564  44.482  12.070
71673W        W40003  14.281  42.376  14.305
71674W        W40004  16.133  35.547   0.937
71675W        W40005  38.906  21.699   0.895
71676W        W40006  25.542  29.521  14.767
71677W        W40007   1.806  34.478   1.845
71678W        W40008  26.673   4.230  12.994
71679W        W40009  25.677  24.573  10.473
71680W        W40010  32.018  10.702  10.534
71681W        W40011   7.713   8.257   2.359
71682W        W40012  13.636  21.022  11.088
71683W        W40013   2.384  40.890   4.754
71684W        W40014  19.631   2.742   2.795
71685W        W40015  28.997  22.148   1.411
71686W        W40016  15.124  14.663  13.892
71687W        W40017  20.272  43.300  10.460
71688W        W40018  38.016  29.541  13.468
71689W        W40019  30.076  17.177  11.437
71690W        W40020  25.154   8.202  12.480
71691W        W40021  21.257  20.201  12.498
71692W        W40022   8.708  13.193  14.464
71693W        W40023  18.632  44.288   1.289
71694W        W40024  28.464  34.477  13.047
71695W        W40025  14.258  21.226  14.382
71696W        W40026   3.219  40.046  11.552
71697W        W40027   5.251  26.046  11.021
71698W        W40028   2.240  39.047   4.265
71699W        W40029  29.423  25.000   1.781
71700W        W40030  32.104  21.569   4.708
71701W        W40031   7.842  44.260   3.797
71702W        W40032  29.495  26.470   4.612
71703W        W40033  23.054  10.760  14.006
71704W        W40034  28.437  39.415  14.758
71705W        W40035  14.242  10.184  14.869
71706W        W40036  36.008  31.088   1.289
71707W        W40037  39.995   3.228   2.713
71708W        W40038  33.940  22.635  11.000
71709W        W40039  33.508   1.482   4.270
71710W        W40040  42.518  35.565   0.249
71711W        W40041  35.094  34.409   1.308
71712W        W40042  25.115  17.732  14.470
71713W        W40043  29.922  41.881   2.301
71714W        W40044  11.859  29.456   5.126
71715W        W40045  33.977  23.628  12.485
71716W        W40046  20.185  40.380  11.559
71717W        W40047  38.872  10.730   2.705
71718W        W40048  38.967  22.079  12.526
71719W        W40049  15.304  13.226   2.258
71720W        W40050  23.168   8.240   2.233
71721W        W40051   6.848  38.501  14.794
71722W        W40052   9.358  17.802   1.765
71723W        W40053  28.120  42.885  12.512
71724W        W40054  38.569  25.982   4.344
71725W        W40055  20.221   2.964   1.738
71726W        W40056  27.628  25.714   2.228
71727W        W40057   8.295  39.042   1.321
71728W        W40058  17.080  14.094   0.429
71729W        W40059  31.595  42.032  13.518
71730W        W40060  10.179  18.137  12.947
71731W        W40061  13.839  22.525  14.840
71732W        W40062   9.830   8.698  13.858
71733W        W40063  18.740  17.261  12.925
71734W        W40064  28.034  20.718   1.369
71735W        W40065  32.958  11.146   4.710
71736W        W40066  26.588   4.879  10.410
71737W        W40067  31.031  30.478   5.314
71738W        W40068  29.646  39.453  10.498
71739W        W40069  32.459  24.063   3.870
71740W        W40070  33.885  19.223  14.790
71741W        W40071  39.474   5.362  11.938
71742W        W40072   9.890  28.450   4.166
71743W        W40073  12.235   3.227  11.526
71744W        W40074  25.602  32.579   1.797
71745W        W40075   7.338   7.910   5.230
71746W        W40076  16.731  15.207   3.840
71747W        W40077  37.382  39.474  13.361
71748W        W40078  26.464  33.568   1.306
71749W        W40079   7.677  27.579  13.046
71750W        W40080  22.744   3.405  11.592
71751W        W40081  43.316  24.633   0.787
71752W        W40082  37.390  21.081   4.346
71753W        W40083   6.765  20.107  13.846
71754W        W40084   8.795  21.064   2.669
71755W        W40085  15.325  37.361  14.022
71756W        W40086  39.966  10.240  13.493
71757W        W40087  15.084  38.557  12.555
71758W        W40088  29.556  36.029   2.669
71759W        W40089  23.574   4.910   2.776
71760W        W40090  26.969  33.045   3.258
71761W        W40091  19.140  43.798  13.509
71762W        W40092  38.553  19.180  12.871
71763W        W40093  20.256   4.784  10.044
71764W        W40094  31.027  33.395  12.970
71765W        W40095  28.521  30.540   2.364
71766W        W40096   8.319  23.071  14.823
71767W        W40097  34.883  14.252   1.724
71768W        W40098  18.613  27.671   4.804
71769W        W40099  27.663  23.719  14.983
71770W        W40100  32.594  33.395  13.327
71771W        W40101  40.356  18.593   2.830
71772W        W40102   2.367   7.292   3.633
71773W        W40103   4.287   5.879  13.484
71774W        W40104  12.777  40.311   2.868
71775W        W40105  14.698   6.912  12.908
71776W        W40106  24.024   7.343   2.812
71777W        W40107  14.598   4.808  12.563
71778W        W40108  26.045  44.959  14.780
71779W        W40109  30.421  32.104   3.659
71780W        W40110  26.115  36.584   2.324
71781W        W40111   1.329  16.707   0.742
71782W        W40112  36.476  33.619   2.232
71783W        W40113   0.492  35.368  12.906
71784W        W40114  12.700  40.518   0.960
71785W        W40115  39.981  15.309  11.560
71786W        W40116  33.547  17.208   0.311
71787W        W40117  13.302  38.044   3.678
71788W        W40118  29.668   9.840  11.988
71789W        W40119   7.794   2.771  10.606
71790W        W40120  20.223  13.154   1.265
71791W        W40121  12.142  23.094   2.668
71792W        W40122   2.872   8.386  14.760
71793W        W40123   2.391   5.753  12.959
71794W        W40124   4.730  23.573  14.781
71795W        W40125  41.981  11.151  10.506
71796W        W40126  33.046  38.502   4.722
71797W        W40127  40.043  26.475   3.366
71798W        W40128  18.268  41.417   4.741
71799W        W40129   0.339  27.497   2.235
71800W        W40130   6.915   3.789  12.469
71801W        W40131  37.995  10.354  11.049
71802W        W40132   2.413  37.965  14.926
71803W        W40133   0.345   0.274   4.254
71804W        W40134  11.638  15.823   2.680
71805W        W40135  35.086  30.086  13.991
71806W        W40136  21.545  39.349   4.192
71807W        W40137  44.259  38.999  13.350
71808W        W40138  23.987  34.478   4.615
71809W        W40139  11.767  23.588  11.941
71810W        W40140  14.230  42.437   3.308
71811W        W40141   0.329   7.720   0.328
71812W        W40142   3.331  11.246  14.978
71813W        W40143   9.863   2.266  13.953
71814W        W40144  36.918  13.299  12.409
71815W        W40145  20.669   3.947   1.374
71816W        W40146  26.183   5.694  14.953
71817W        W40147  26.169  13.316  14.914
71818W        W40148   9.710   4.844   4.786
71819W        W40149  41.885   3.861   1.757
71820W        W40150  42.881   2.789  10.440
71821W        W40151   8.731   7.296  13.870
71822W        W40152  14.755  20.260  13.542
71823W        W40153  25.633   2.875   0.755
71824W        W40154  19.634  16.265  13.019
71825W        W40155  17.104  37.444  10.020
71826W        W40156  18.258   8.202   2.301
71827W        W40157  35.985  43.021   0.469
71828W        W40158  11.793  35.068   3.779
71829W        W40159  39.997  37.023   0.793
71830W        W40160  40.837   6.731   5.649
71831W        W40161  29.527  35.396  12.565
71832W        W40162  33.445  21.624   0.321
71833W        W40163  39.929  35.380  14.782
71834W        W40164  16.272  38.367  11.458
71835W        W40165  14.601  10.171   3.246
71836W        W40166  14.189   9.837   4.311
71837W        W40167  28.447  30.462  12.951
71838W        W40168  38.867  13.804  13.318
71839W        W40169  17.152  44.302   0.850
71840W        W40170  35.478  41.926   3.696
71841W        W40171   6.869   4.282   1.268
71842W        W40172  24.175  17.171   1.434
71843W        W40173  20.695  14.245   0.916
71844W        W40174  24.494  16.284  11.378
71845W        W40175  36.416  35.441   1.278
71846W        W40176  32.993  22.149   0.363
71847W        W40177  32.575  25.691   0.375
71848W        W40178  34.610  14.597  10.594
71849W        W40179   2.775  26.541   0.305
71850W        W40180  36.435  26.477  14.022
71851W        W40181   0.934  28.044  10.020
71852W        W40182   3.372  21.069   2.190
71853W        W40183  34.389  17.794  12.498
71854W        W40184  37.870  23.191  13.804
71855W        W40185   0.926  38.420   4.651
71856W        W40186   3.237  27.099  10.486
71857W        W40187  32.913   8.657  11.961
71858W        W40188   8.404  27.960   1.411
71859W        W40189  17.617   0.368   1.778
71860W        W40190  32.557  12.175  14.983
71861W        W40191  24.534  18.250   2.329
71862W        W40192  35.366   6.828  14.894
71863W        W40193   2.291  38.039  10.032
71864W        W40194   8.794  43.396   4.784
71865W        W40195  12.249  12.164  12.445
71866W        W40196  26.677  16.112   2.720
71867W        W40197  12.857  42.781   4.623
71868W        W40198  40.411  42.876  13.856
71869W        W40199   0.932   4.221   2.842
71870W        W40200  20.649  42.438   2.417
71871W        W40201  35.063  32.514   4.649
71872W        W40202  29.015   4.888   2.371
71873W        W40203  25.980   1.298  13.048
71874W        W40204  24.974   4.280   2.408
71875W        W40205  40.832  34.936   2.777
71876W        W40206  16.149  33.947   0.279
71877W        W40207   7.405  15.723  14.801
71878W        W40208  29.944  33.114  12.406
71879W        W40209  35.567   2.736  14.004
71880W        W40210  28.071  40.434   2.407
71881W        W40211  18.082   3.402  11.536
71882W        W40212  18.665  42.426   0.919
71883W        W40213  23.145  37.071  11.964
71884W        W40214  31.013  35.380   4.739
71885W        W40215  37.546  21.675   4.773
71886W        W40216  21.521  29.059  14.281
71887W        W40217  33.075  23.142   3.273
71888W        W40218  29.968   1.320  11.013
71889W        W40219  18.234  36.528   1.881
71890W        W40220  37.507  29.971  11.509
71891W        W40221  23.683  26.094  13.890
71892W        W40222   0.879  21.047  13.868
71893W        W40223   5.293  42.911  12.063
71894W        W40224  12.157  13.606   1.837
71895W        W40225  32.459  44.474   3.373
71896W        W40226  11.268  15.243  14.364
71897W        W40227  19.040   2.930  13.420
71898W        W40228   9.298  32.014   0.748
71899W        W40229  13.273  30.037  10.895
71900W        W40230   4.828  41.297  11.387
71901W        W40231  17.735  23.229   0.336
71902W        W40232  32.068   3.290   0.864
71903W        W40233  38.478   8.821  14.452
71904W        W40234  31.513  26.647   0.893
71905W        W40235  36.071  18.634  13.449
71906W        W40236   0.357  33.097   4.656
71907W        W40237   3.239   0.744   1.717
71908W        W40238   3.242  34.406  14.405
71909W        W40239   6.379   5.311  14.308
71910W        W40240  15.800  40.536  10.941
71911W        W40241  32.071  13.315   5.269
71912W        W40242  43.431   7.174   3.690
71913W        W40243  33.606  28.606   0.893
71914W        W40244  10.352  31.975   2.217
71915W        W40245  36.889  15.162   3.690
71916W        W40246  32.595  26.958   2.774
71917W        W40247  34.023  21.083   1.272
71918W        W40248  20.713  21.221   3.279
71919W        W40249  10.758  11.189   3.838
71920W        W40250  42.291  12.299   0.937
71921W        W40251   7.761  23.161   2.395
71922W        W40252  40.022  36.994  11.068
71923W        W40253  17.629  10.161   1.711
71924W        W40254  17.091  33.008   1.847
71925W        W40255  37.957  15.752  11.107
71926W        W40256  42.459  29.598   2.389
71927W        W40257  24.159   7.904  11.019
71928W        W40258   9.828   6.688  10.481
71929W        W40259  16.294  39.407  13.307
71930W        W40260  41.508  18.213   1.792
71931W        W40261  36.465  29.979   3.148
71932W        W40262  19.074  19.573  10.421
71933W        W40263  42.305   3.890   1.734
71934W        W40264   3.398  38.036   4.836
71935W        W40265  42.008  25.080   3.658
71936W        W40266  22.251   0.834  11.557
71937W        W40267  17.297  31.077   0.308
71938W        W40268  17.716  12.303  13.432
71939W        W40269  11.196  43.310   0.420
71940W        W40270  18.610  13.202   2.773
71941W        W40271  31.900  36.861  10.485
71942W        W40272  21.591  30.453   9.544
71943W        W40273  32.114   0.869  14.406
71944W        W40274  20.091  25.667   5.232
71945W        W40275  20.032  33.511  14.326
71946W        W40276  41.527  29.942   2.848
71947W        W40277  33.562  21.254   3.205
71948W        W40278  38.531  37.392   4.215
71949W        W40279  44.444   5.835  11.412
71950W        W40280  44.260  31.526  11.053
71951W        W40281  17.706  44.470   4.311
71952W        W40282  44.944  41.914   3.659
71953W        W40283  26.015  31.977  14.909
71954W        W40284  11.342  20.556   2.398
71955W        W40285   7.284  12.684   4.749
71956W        W40286   4.840  18.074  11.378
71957W        W40287  21.578  27.483  14.423
71958W        W40288  21.686  21.734  12.906
71959W        W40289  14.668  25.058  14.006
71960W        W40290  29.629  27.640   4.256
71961W        W40291  32.973  12.126   0.844
71962W        W40292   8.212  21.246   1.274
71963W        W40293   7.705  24.687  13.499
71964W        W40294  21.713  36.476  13.041
71965W        W40295   3.436  13.782  13.800
71966W        W40296  34.474  41.350  13.336
71967W        W40297  10.344  32.522   2.705
71968W        W40298  44.455  24.620   4.210
71969W        W40299  22.114  23.220   3.863
71970W        W40300  14.635   3.219   3.700
71971W        W40301   7.269  35.104  14.286
71972W        W40302   0.421  18.597   1.360
71973W        W40303  20.642  35.956  12.067
71974W        W40304  23.652  27.596  12.090
71975W        W40305  17.593  36.457   4.825
71976W        W40306   6.878  40.461   1.244
71977W        W40307   3.949   5.377  11.859
71978W        W40308  15.150  31.133  14.386
71979W        W40309  20.639  32.902   2.183
71980W        W40310  17.576  10.819   2.672
71981W        W40311  16.753  19.721   4.830
71982W        W40312  13.827  37.851   4.240
71983W        W40313  21.207  42.484  14.344
71984W        W40314   8.794  16.687   2.671
71985W        W40315   9.168   8.775  11.564
71986W        W40316  32.054  35.579  10.516
71987W        W40317   4.918  16.245  11.488
71988W        W40318   8.406  33.586   1.229
71989W        W40319   3.918   1.956   0.940
71990W        W40320  39.007  36.430   1.934
71991W        W40321  12.619   3.260  10.974
71992W        W40322  19.049   3.291  14.901
71993W        W40323  21.602   9.299   0.914
71994W        W40324  37.478  31.064   0.425
71995W        W40325  30.984  37.897  13.008
71996W        W40326  32.102  42.776   1.848
71997W        W40327  39.505  32.138   0.476
71998W        W40328  34.047  39.343   1.905
71999W        W40329  27.182   3.892  11.512
72000W        W40330  20.203  16.298   3.824
72001W        W40331  19.723  44.939   0.964
72002W        W40332  19.623  13.186  13.852
72003W        W40333  35.588  22.547   4.605
72004W        W40334  12.697  25.972   2.803
72005W        W40335  20.164  16.787  14.031
72006W        W40336  24.725  41.483  14.903
72007W        W40337  11.762   3.352   2.901
72008W        W40338  30.084   3.297  11.990
72009W        W40339  25.638  20.622   2.804
72010W        W40340  25.987  10.665   0.761
72011W        W40341   6.773  25.021   4.294
72012W        W40342  31.065  12.781   3.240
72013W        W40343  31.467  20.675  14.905
72014W        W40344  17.673  15.298   0.967
72015W        W40345  43.512  17.284  12.048
72016W        W40346   1.306  13.257   1.350
72017W        W40347  31.437  33.588  11.492
72018W        W40348   4.702  37.551   3.169
72019W        W40349  10.747   7.309  14.900
72020W        W40350   6.743  22.203   1.806
72021W        W40351  13.170  16.789   1.773
72022W        W40352  18.259   0.270   4.719
72023W        W40353  25.074  21.053  14.491
72024W        W40354   0.490  16.803  14.286
72025W        W40355  15.581  12.723  11.560
72026W        W40356  10.215  16.130  13.503
72027W        W40357  31.426  38.364  10.951
72028W        W40358   5.218   4.921   0.907
72029W        W40359  13.258  34.010   4.242
72030W        W40360  15.265  13.674   2.773
72031W        W40361  19.767   2.231  14.404
72032W        W40362   7.827  26.534  11.029
72033W        W40363   7.771   6.803  10.527
72034W        W40364  22.725   0.877  11.477
72035W        W40365   7.400   3.939   3.226
72036W        W40366  42.524   9.388   1.900
72037W        W40367  11.754   9.792  10.929
72038W        W40368  27.461   2.392  13.498
72039W        W40369   3.871  30.621  13.823
72040W        W40370  38.825  17.233   3.358
72041W        W40371  20.609  12.825   0.324
72042W        W40372  13.143   5.744  14.959
72043W        W40373  10.194  29.628   2.866
72044W        W40374  30.548   2.866  12.097
72045W        W40375  15.819   5.379   4.236
72046W        W40376  23.688  34.573   2.821
72047W        W40377  41.939  35.547  11.404
72048W        W40378  24.537  17.782   4.817
72049W        W40379  27.677  37.418   0.383
72050W        W40380  21.227   4.915  12.553
72051W        W40381   3.216   1.975   1.398
72052W        W40382   5.346   0.751   0.859
72053W        W40383  44.984   1.750  11.092
72054W        W40384  32.458  44.921  14.023
72055W        W40385  18.274  13.208   1.775
72056W        W40386  23.132  26.109  14.341
72057W        W40387   7.324  31.968   1.796
72058W        W40388  15.602  20.266   4.209
72059W        W40389  33.012  14.277   0.307
72060W        W40390  24.057   7.877   3.322
72061W        W40391  13.306   1.248  14.883
72062W        W40392  15.681  29.104   1.446
72063W        W40393  21.058  26.625   4.776
72064W        W40394  38.064  22.142  14.303
72065W        W40395  27.571  21.685  13.403
72066W        W40396  18.678  36.852  12.928
72067W        W40397  11.301  35.583  13.837
72068W        W40398  20.733  10.150  10.013
72069W        W40399   9.884  33.463  11.478
72070W        W40400   7.889  26.961   2.752
72071W        W40401  30.034   3.849  14.873
72072W        W40402  14.745  13.762  13.364
72073W        W40403  43.431   3.254  11.980
72074W        W40404  40.444   2.917   0.874
72075W        W40405  33.131  24.711   0.921
72076W        W40406  19.107  27.688   1.253
72077W        W40407  35.880  13.843  13.472
72078W        W40408   6.342   4.758  12.885
72079W        W40409  10.271  25.057   3.149
72080W        W40410  23.174   9.644  11.590
72081W        W40411  28.674  30.070   3.811
72082W        W40412  36.501   9.818   2.180
72083W        W40413   7.877  21.254   1.880
72084W        W40414  42.295  15.616   2.306
72085W        W40415  38.820  32.622   3.259
72086W        W40416  21.647   4.800  14.019
72087W        W40417   9.234  44.964  13.908
72088W        W40418  25.970  15.671  12.008
72089W        W40419  16.710  28.568  11.875
72090W        W40420  19.067  39.361  13.940
72091W        W40421  24.032  13.717  10.571
72092W        W40422  41.984  17.236   5.086
72093W        W40423  42.785  25.071   1.360
72094W        W40424  12.248  12.778   1.377
72095W        W40425  39.996  12.840   1.798
72096W        W40426  10.292  19.539   3.181
72097W        W40427  31.131  25.997  14.341
72098W        W40428  17.644  21.029  10.582
72099W        W40429  23.541   8.708   1.827
72100W        W40430  17.120  13.247   4.213
72101W        W40431  20.086  33.412  11.970
72102W        W40432  13.840  21.615  11.595
72103W        W40433  10.690   7.877   2.782
72104W        W40434   5.332  19.180  11.107
72105W        W40435  20.030  30.476  10.609
72106W        W40436  25.173   3.431   3.201
72107W        W40437  20.244  23.586   0.854
72108W        W40438   6.397  23.540   0.726
72109W        W40439  16.781   3.312  14.857
72110W        W40440   4.909  29.434  11.930
72111W        W40441  22.552  17.229  13.315
72112W        W40442  14.262  43.295  13.866
72113W        W40443  23.202  12.733   4.757
72114W        W40444   5.288   6.746   4.156
72115W        W40445  19.226  36.369  12.892
72116W        W40446  11.745   5.812  12.028
72117W        W40447   6.690  30.513   1.903
72118W        W40448  32.631  19.692   0.333
72119W        W40449   9.156  16.117  14.435
72120W        W40450  26.024   5.400  12.572
72121W        W40451   9.299  30.070   3.699
72122W        W40452   3.951  15.244   3.234
72123W        W40453   1.891  32.967  14.416
72124W        W40454  34.467  39.422   4.206
72125W        W40455   4.355   4.748  11.125
72126W        W40456  23.672  31.040   1.229
72127W        W40457  40.966  32.115  12.364
72128W        W40458  10.832  29.065  11.461
72129W        W40459  19.133  41.862   0.809
72130W        W40460  15.278  16.808  14.375
72131W        W40461  40.359  13.125   0.914
72132W        W40462  41.979  41.364  11.591
72133W        W40463   4.216  15.646   9.947
72134W        W40464  14.799  18.759  13.964
72135W        W40465  42.443  25.049   4.323
72136W        W40466  13.344  19.714  12.886
72137W        W40467  16.781   4.222  12.470
72138W        W40468  37.866  27.163  10.464
72139W        W40469  27.605  17.133   1.449
72140W        W40470  11.298   9.323  13.880
72141W        W40471  27.606  32.960  11.000
72142W        W40472  29.930  21.702   1.272
72143W        W40473  18.078  38.028  13.451
72144W        W40474  11.665  10.300  11.900
72145W        W40475  44.439  44.325   4.747
72146W        W40476   1.285   5.826  11.094
72147W        W40477  30.924  41.814   4.172
72148W        W40478  24.588  37.335  13.864
72149W        W40479  25.476  13.732   3.746
72150W        W40480  44.011  38.428  13.808
72151W        W40481   3.808   7.385  14.355
72152W        W40482   1.747  15.710  11.408
72153W        W40483  37.499  36.011  10.627
72154W        W40484  40.429  27.132   0.289
72155W        W40485  29.937  38.855  11.074
72156W        W40486   3.878  12.838   4.125
72157W        W40487  10.685  44.448   0.925
72158W        W40488  16.258  23.058   3.663
72159W        W40489  29.630  29.452  13.933
72160W        W40490  12.181  31.627  10.578
72161W        W40491  13.647  18.189  14.318
72162W        W40492  39.956   9.211  14.794
72163W        W40493  44.921  16.736   1.890
72164W        W40494  10.687  26.604   2.383
72165W        W40495  34.882  29.107   5.319
72166W        W40496  24.091   9.166   3.169
72167W        W40497  11.219   9.182   0.355
72168W        W40498  43.785   2.404  13.023
72169W        W40499   3.434   2.794  14.978
72170W        W40500  14.772  32.081  10.974
72171W        W40501   6.697  41.834  14.018
72172W        W40502  15.279  11.631   1.728
72173W        W40503   3.348  13.325  11.377
72174W        W40504  35.094  43.969   3.291
72175W        W40505  27.676  11.266   1.725
72176W        W40506  10.714  44.343  13.434
72177W        W40507  36.064  35.980   2.403
72178W        W40508  31.511  38.989   2.687
72179W        W40509  41.034   7.199  13.012
72180W        W40510  13.260  36.550   3.787
72181W        W40511  29.664   8.246   2.688
72182W        W40512  24.094  29.947  13.350
72183W        W40513  11.724   9.156  11.466
72184W        W40514  33.082  15.581  14.864
72185W        W40515  16.150  18.183   4.805
72186W        W40516  39.455  28.666  12.971
72187W        W40517  31.037  27.458   0.734
72188W        W40518  34.450  30.615  10.482
72189W        W40519  44.358  14.120   1.833
72190W        W40520  11.274   6.805  12.925
72191W        W40521  38.915   6.813   3.375
72192W        W40522  19.646  26.587  10.538
72193W        W40523  33.598  26.589   2.884
72194W        W40524  13.162  10.807   4.283
72195W        W40525  19.090  32.442  12.954
72196W        W40526  10.879  31.610   4.629
72197W        W40527  20.244  28.540   9.993
72198W        W40528  16.145  19.591  10.438
72199W        W40529  14.237  14.675   5.241
72200W        W40530  14.603   2.766  10.495
72201W        W40531   5.923   2.856   4.180
72202W        W40532  33.985  25.688   0.407
72203W        W40533  37.494   7.756   3.272
72204W        W40534  14.267  39.826   3.827
72205W        W40535  24.648   0.412   4.252
72206W        W40536   6.404   5.433   0.884
72207W        W40537  31.626  40.913   2.800
72208W        W40538  44.863  11.288   2.337
72209W        W40539  44.911   3.357   2.785
72210W        W40540  14.811  33.544  12.392
72211W        W40541  15.247  12.254   3.767
72212W        W40542  15.142  12.792  14.404
72213W        W40543   3.751  20.235  11.389
72214W        W40544  22.559  41.434  12.505
72215W        W40545  34.495  38.985  13.326
72216W        W40546  21.055  17.253   2.794
72217W        W40547   1.465  38.066   2.773
72218W        W40548  25.094  38.950  12.575
72219W        W40549  18.224  27.456   0.472
72220W        W40550  11.150   0.286   1.789
72221W        W40551  43.778   1.737   1.711
72222W        W40552   9.281  42.884   4.280
72223W        W40553  19.260  30.078   5.174
72224W        W40554   5.902  23.705   2.766
72225W        W40555   3.300   4.827  13.052
72226W        W40556  12.789  43.801   3.303
72227W        W40557  21.733  15.783  12.866
72228W        W40558  13.308  14.170   4.228
72229W        W40559  27.571  26.544  12.845
72230W        W40560  39.434  38.981  10.900
72231W        W40561  29.172  14.785   4.666
72232W        W40562  20.032  35.501   3.726
72233W        W40563   8.248   6.281  12.450
72234W        W40564  32.493  14.640   2.252
72235W        W40565  38.429  37.951   3.841
72236W        W40566  16.305  29.923   1.826
72237W        W40567  40.910  35.438   1.804
72238W        W40568  35.892  29.033  14.969
72239W        W40569  16.318  41.407  14.462
72240W        W40570  31.418   2.732   3.229
72241W        W40571  28.962  42.300   1.415
72242W        W40572  10.774  20.271  14.405
72243W        W40573  21.183  37.534  10.981
72244W        W40574  19.060  14.640  10.579
72245W        W40575  41.532   1.427  11.425
72246W        W40576  30.051  32.971   5.158
72247W        W40577  10.270  35.400   1.855
72248W        W40578  17.615  26.702  13.826
72249W        W40579  10.354  29.049   3.852
72250W        W40580  32.575  38.959  10.892
72251W        W40581  39.994  42.457  13.997
72252W        W40582   1.433  17.234  11.869
72253W        W40583   0.987  11.331  13.792
72254W        W40584   2.795  40.515  14.325
72255W        W40585  27.501   7.407   4.344
72256W        W40586  38.050  16.179   2.333
72257W        W40587  30.111   8.269  14.285
72258W        W40588   6.814  16.649   3.291
72259W        W40589  26.139   7.297   0.895
72260W        W40590  23.163  36.908  12.511
72261W        W40591  38.056  39.356  14.950
72262W        W40592  22.513   4.221   2.412
72263W        W40593  37.836  30.432   2.356
72264W        W40594  33.512  24.720   0.887
72265W        W40595  16.747  40.481   2.857
72266W        W40596  42.407  38.018   0.242
72267W        W40597  16.799  31.583  10.633
72268W        W40598   0.744  33.579   3.185
72269W        W40599   4.811   1.955  14.335
72270W        W40600  37.912  17.228   0.831
72271W        W40601  30.135  19.148   3.265
72272W        W40602  27.068  30.996  11.864
72273W        W40603  23.646  28.509   4.238
72274W        W40604  15.116  41.829  13.977
72275W        W40605  37.933  10.187   3.725
72276W        W40606   5.787  18.056  13.913
72277W        W40607  39.446  15.608  13.866
72278W        W40608  15.727  27.676  13.421
72279W        W40609  44.867   8.300  10.436
72280W        W40610  29.426  22.654  12.003
72281W        W40611  28.007  41.787  13.535
72282W        W40612  29.665  30.056  14.798
72283W        W40613  20.248  37.036   3.819
72284W        W40614   7.708   6.404   4.350
72285W        W40615   4.242  44.407  11.946
72286W        W40616  15.149   1.255   0.449
72287W        W40617  10.186   6.218   4.174
72288W        W40618  44.486  20.604  12.892
72289W        W40619  36.414  29.122   0.727
72290W        W40620  31.990  19.611  12.060
72291W        W40621   4.428  41.799   1.429
72292W        W40622  39.995  44.768   0.253
72293W        W40623  21.056  24.628  11.892
72294W        W40624  27.085   9.664  14.992
72295W        W40625  30.415   0.884  11.030
72296W        W40626  32.936  31.981   1.298
72297W        W40627  17.268  21.688  11.911
72298W        W40628   9.823  21.727   3.709
72299W        W40629  13.826   5.822   4.208
72300W        W40630  26.623   4.905   3.165
72301W        W40631  37.500  23.653  11.066
72302W        W40632  29.160   2.320  12.389
72303W        W40633  21.696  17.172   3.324
72304W        W40634  42.463  35.381   3.665
72305W        W40635  29.152   0.806  13.352
72306W        W40636  22.122  35.544   4.232
72307W        W40637   6.357  23.586   1.427
72308W        W40638  41.867   1.320  12.048
72309W        W40639  39.931  37.488   0.296
72310W        W40640  32.036   3.767  14.015
72311W        W40641  42.497  11.150   4.677
72312W        W40642  40.376  29.930  13.800
72313W        W40643  22.674  20.240   5.177
72314W        W40644  26.002  26.027   4.146
72315W        W40645  12.137  33.966   1.915
72316W        W40646  43.797   7.734   2.201
72317W        W40647  18.685   9.741   3.706
72318W        W40648  30.159  33.052   9.647
72319W        W40649   8.168  27.513   2.371
72320W        W40650   4.945  43.495  14.479
72321W        W40651  42.872  22.165  12.847
72322W        W40652  43.832  34.106  13.027
72323W        W40653   9.178  32.942   2.836
72324W        W40654  29.510   5.401  13.431
72325W        W40655   6.722  29.496  13.798
72326W        W40656  26.656  20.635   1.785
72327W        W40657  34.116  13.154   3.172
72328W        W40658  39.015  13.656  12.579
72329W        W40659  13.273  25.035  12.428
72330W        W40660  40.304  38.923  14.866
72331W        W40661   4.347  42.886  13.310
72332W        W40662   4.437   3.380  13.355
72333W        W40663  32.919   4.876   4.178
72334W        W40664  39.010  11.716   4.122
72335W        W40665  25.042   5.843   1.703
72336W        W40666  30.421   8.167   1.277
72337W        W40667  10.802   3.299  12.077
72338W        W40668  37.338   7.743   1.770
72339W        W40669  25.680  28.178   1.232
72340W        W40670   7.360  22.236   2.852
72341W        W40671   4.206  38.051  10.968
72342W        W40672  18.068   6.725   2.818
72343W        W40673  41.787  23.608   2.770
72344W        W40674  22.022   9.386   1.267
72345W        W40675  33.623  13.251   1.295
72346W        W40676  28.186  23.099  12.395
72347W        W40677  20.269  37.483   0.418
72348W        W40678   9.220  22.609  11.568
72349W        W40679  38.873   6.851  14.791
72350W        W40680  39.957  12.229  14.361
72351W        W40681  14.631  39.063  14.780
72352W        W40682  39.816  33.911   2.710
72353W        W40683  29.160  20.625  12.909
72354W        W40684  26.612  11.223  13.044
72355W        W40685  36.937  35.492   4.170
72356W        W40686  26.506  30.165   3.230
72357W        W40687  22.085  12.617   4.165
72358W        W40688  29.152   1.455   2.244
72359W        W40689  12.361  34.046  10.893
72360W        W40690  32.561  24.018   1.877
72361W        W40691  28.440  36.358  10.550
72362W        W40692   1.280  15.707  13.037
72363W        W40693  31.422  35.931   1.929
72364W        W40694  29.124   4.848  10.590
72365W        W40695  27.095  37.400   3.342
72366W        W40696  26.481  34.000   0.860
72367W        W40697   9.200  22.038  11.092
72368W        W40698  33.571  10.777  11.523
72369W        W40699  42.889  23.055   2.245
72370W        W40700  13.641  44.938   3.157
72371W        W40701  31.919  19.680  11.575
72372W        W40702  22.556  33.580  14.335
72373W        W40703  20.532  27.116   3.729
72374W        W40704  38.505  17.685   3.846
72375W        W40705  43.407  42.008  12.925
72376W        W40706  37.335  42.417   0.444
72377W        W40707   1.891  23.727   4.170
72378W        W40708   7.362  10.725   0.415
72379W        W40709  41.815   6.828  14.895
72380W        W40710  32.472  14.196  14.350
72381W        W40711  30.504  29.550   2.867
72382W        W40712   3.875  37.028   3.177
72383W        W40713  18.603  12.298   2.897
72384W        W40714  30.023  40.031  12.890
72385W        W40715   4.757  31.135   4.617
72386W        W40716   7.278  38.885  13.441
72387W        W40717  41.402  44.322   3.221
72388W        W40718  36.057  34.018  10.968
72389W        W40719  25.102  15.628   3.669
72390W        W40720  32.624   9.705  12.022
72391W        W40721  17.589  10.762   2.196
72392W        W40722  15.657  14.340  10.501
72393W        W40723   4.767  19.200   2.685
72394W        W40724  43.917   7.710  12.845
72395W        W40725  37.542  18.131   3.745
72396W        W40726  11.750  41.919  10.618
72397W        W40727   7.219  19.623  14.440
72398W        W40728  20.567  40.844  11.441
72399W        W40729  36.916   8.281   2.303
72400W        W40730  30.634  44.477  13.808
72401W        W40731  26.041  15.104   3.792
72402W        W40732   2.760  10.668   4.293
72403W        W40733   8.861   9.857  13.403
72404W        W40734  20.098  35.087   3.674
72405W        W40735  39.877   3.790  12.977
72406W        W40736  11.700  26.575   1.443
72407W        W40737  16.284  44.376   2.691
72408W        W40738  13.139  23.688  11.494
72409W        W40739  35.944  24.984  11.104
72410W        W40740  40.997  14.812   3.690
72411W        W40741  16.159  20.166  10.926
72412W        W40742  39.455  42.458  14.883
72413W        W40743  20.225  15.807   3.368
72414W        W40744  42.957  33.899  11.081
72415W        W40745  11.280  15.163  10.457
72416W        W40746  37.845  35.871   3.630
72417W        W40747  12.310   4.402   3.849
72418W        W40748  20.725  10.722   1.244
72419W        W40749   3.788  16.112   4.823
72420W        W40750   5.334  43.398  10.627
72421W        W40751  18.168  10.305   1.407
72422W        W40752  37.981   2.254  12.001
72423W        W40753  21.552   7.684   0.383
72424W        W40754  29.149   2.260   0.892
72425W        W40755   7.795  20.066   3.321
72426W        W40756  26.459  20.636  12.913
72427W        W40757   8.862   0.865  11.907
72428W        W40758  34.541   9.241  12.941
72429W        W40759  40.541  40.498   0.784
72430W        W40760  19.579  18.732   5.773
72431W        W40761  40.974  34.022   3.634
72432W        W40762  29.469  43.019   5.153
72433W        W40763  17.771  24.681  11.462
72434W        W40764   7.405  22.031  11.058
72435W        W40765  34.029  15.586  13.939
72436W        W40766  39.878   0.321  14.440
72437W        W40767  29.027  16.736   4.236
72438W        W40768  31.465  22.059   0.905
72439W        W40769   9.681  38.349   1.760
72440W        W40770  32.958  26.031   2.387
72441W        W40771  28.072   3.755  12.541
72442W        W40772  20.259  43.929  14.791
72443W        W40773  32.630  22.504   3.333
72444W        W40774  44.833  40.382   3.354
72445W        W40775  38.900  23.576  11.913
72446W        W40776  29.666  42.498   1.709
72447W        W40777   1.752  15.582   1.737
72448W        W40778   4.283  24.111   0.424
72449W        W40779  29.067  33.480  13.858
72450W        W40780  34.591  26.133  14.335
72451W        W40781   3.256  19.077   3.251
72452W        W40782  20.576   3.311   4.837
72453W        W40783  25.467  44.804   4.148
72454W        W40784  31.988  31.010   0.371
72455W        W40785  33.957  43.948   2.207
72456W        W40786  15.087  13.190   4.777
72457W        W40787  42.808  11.356  10.919
72458W        W40788  27.539  43.498  11.408
72459W        W40789   0.435  19.092   4.689
72460W        W40790  35.991   4.912  12.007
72461W        W40791  31.004  24.491   2.214
72462W        W40792  13.164  21.128  10.517
72463W        W40793  22.077  33.456   3.333
72464W        W40794  17.180  26.120   5.768
72465W        W40795  28.542  18.705  12.343
72466W        W40796  23.231  42.856   2.864
72467W        W40797  35.470  33.443  12.470
72468W        W40798   3.275  18.615   0.388
72469W        W40799  36.058   1.859  14.918
72470W        W40800  40.318  10.235  13.987
72471W        W40801  32.090  10.745   0.752
72472W        W40802  37.046  19.066  12.439
72473W        W40803  28.019   1.315   1.315
72474W        W40804  23.185  39.959  14.472
72475W        W40805  19.065   5.319   1.221
72476W        W40806  39.834  43.310  14.981
72477W        W40807  39.322  28.576   3.253
72478W        W40808   7.225  19.066  12.851
72479W        W40809   7.785   1.334   1.451
72480W        W40810  37.516  36.389   4.655
72481W        W40811  27.087  32.900   4.737
72482W        W40812  20.568  44.003  14.866
72483W        W40813  36.386  44.879   2.713
72484W        W40814  19.646  13.137   3.739
72485W        W40815  31.069  30.635   4.224
72486W        W40816  17.232  36.923   0.243
72487W        W40817  40.848  36.527   4.346
72488W        W40818   9.159   9.306   4.170
72489W        W40819  25.003  12.804   4.130
72490W        W40820   5.711  36.420  12.038
72491W        W40821  38.936   3.390   1.429
72492W        W40822   1.440  35.511  11.409
72493W        W40823  33.063  30.430   1.855
72494W        W40824   8.794  18.598  13.956
72495W        W40825   6.767  41.822   3.676
72496W        W40826  37.907  20.718   3.252
72497W        W40827  33.095  14.117   2.787
72498W        W40828  35.523  20.169  11.445
72499W        W40829   1.443   3.267   4.750
72500W        W40830   7.734  18.788  13.512
72501W        W40831  17.668   8.353  13.797
72502W        W40832  27.096   6.819   4.351
72503W        W40833   4.232  17.622  14.991
72504W        W40834  33.101  32.123  14.353
72505W        W40835  38.430  16.163   2.749
72506W        W40836  20.270  19.126   1.787
72507W        W40837  23.142  23.014   3.185
72508W        W40838  32.132   0.252  10.631
72509W        W40839   0.805  42.914  13.326
72510W        W40840  34.998  11.318  11.567
72511W        W40841  37.853  35.407   1.451
72512W        W40842  38.559  24.678   4.660
72513W        W40843  19.672  38.971  13.422
72514W        W40844  16.591  28.595  14.384
72515W        W40845  18.657  17.105   2.689
72516W        W40846  35.863  33.010   3.223
72517W        W40847  40.314  26.046   4.808
72518W        W40848  19.205   3.364   4.705
72519W        W40849  17.214  19.763  13.357
72520W        W40850   2.418  24.530  10.975
72521W        W40851  20.593  20.101   3.296
72522W        W40852   8.859  38.399   0.465
72523W        W40853   8.667  38.059   1.778
72524W        W40854  41.996  32.542  11.512
72525W        W40855   8.229  21.141  12.429
72526W        W40856  20.115  40.041   4.195
72527W        W40857  40.849  25.086   1.330
72528W        W40858  26.547  23.610  10.484
72529W        W40859  19.640  21.226   4.296
72530W        W40860  41.933   4.284  10.481
72531W        W40861  11.724  22.212   4.734
72532W        W40862  14.651  31.490  10.922
72533W        W40863  40.381  41.999  11.970
72534W        W40864  41.790  43.409  14.024
72535W        W40865  21.170   9.214  14.962
72536W        W40866  37.924   1.336  13.526
72537W        W40867  13.634  33.087  12.496
72538W        W40868  37.563   3.878   4.605
72539W        W40869  37.997  18.554  13.434
72540W        W40870  35.447   7.382  10.526
72541W        W40871  28.046   9.377  10.958
72542W        W40872  14.719  15.778   2.257
72543W        W40873  15.590   5.883  11.011
72544W        W40874  28.983  32.130   3.756
72545W        W40875  23.199  43.785  10.459
72546W        W40876  21.164  30.545   4.727
72547W        W40877  13.643  34.062  13.968
72548W        W40878  43.859   6.805  12.855
72549W        W40879  24.174  35.567   4.313
72550W        W40880  25.059  31.147  14.427
72551W        W40881   3.372  26.160  13.960
72552W        W40882  22.560  38.075   9.962
72553W        W40883  10.826  10.175  10.916
72554W        W40884  41.945  18.580   4.801
72555W        W40885  31.419   1.267  10.417
72556W        W40886   1.843  34.982  13.062
72557W        W40887  25.202  10.295  10.999
72558W        W40888  23.221  14.258   1.751
72559W        W40889  12.673   5.802  12.577
72560W        W40890  29.608  20.268   5.756
72561W        W40891  15.687  28.503  11.606
72562W        W40892   4.873   3.389  12.541
72563W        W40893  20.178  32.560  11.882
72564W        W40894   7.911  25.579  13.036
72565W        W40895  12.260  39.034   0.440
72566W        W40896  25.086   4.309  13.976
72567W        W40897  31.090  39.352  11.547
72568W        W40898  17.703  32.905   3.817
72569W        W40899  40.880   0.786  12.941
72570W        W40900  28.175  14.815   3.214
72571W        W40901  24.112  23.194   4.209
72572W        W40902   6.694  41.812  14.973
72573W        W40903  11.190  34.938  14.997
72574W        W40904  26.669  37.411  13.981
72575W        W40905  16.675  44.881   0.766
72576W        W40906  44.987  14.814   3.384
72577W        W40907   9.873  28.128   4.662
72578W        W40908  44.304  13.334  11.088
72579W        W40909  10.681  12.832  14.277
72580W        W40910  19.556   0.416   1.215
72581W        W40911  28.487  18.178  14.969
72582W        W40912  24.108  29.586  11.033
72583W        W40913  15.228  21.017  14.880
72584W        W40914  32.516  14.209  13.861
72585W        W40915  11.764   3.915   2.768
72586W        W40916  23.684  20.561   1.431
72587W        W40917  23.238   4.238  10.541
72588W        W40918  15.212  37.846   9.445
72589W        W40919  20.592   5.305  11.893
72590W        W40920  13.759   0.284   4.835
72591W        W40921  29.640  36.061   5.316
72592W        W40922  22.017  13.694   1.699
72593W        W40923  37.571  11.626   3.638
72594W        W40924  41.533  20.756   2.346
72595W        W40925  29.061   5.284   1.348
72596W        W40926  30.138  40.342   1.786
72597W        W40927  33.567  34.587   0.850
72598W        W40928  37.514  29.094   1.833
72599W        W40929  13.185  25.024   0.895
72600W        W40930  26.557   0.822   5.086
72601W        W40931  20.759   2.906   2.853
72602W        W40932  42.497  23.660   4.308
72603W        W40933  26.005  21.135  12.530
72604W        W40934   4.206   9.218  13.326
72605W        W40935  35.050   4.342   2.898
72606W        W40936  36.978  27.495   2.262
72607W        W40937   8.824  18.732  11.510
72608W        W40938  26.098  43.773   4.133
72609W        W40939   4.296  15.147   4.155
72610W        W40940  43.809  23.509  10.571
72611W        W40941  32.392  35.062  13.995
72612W        W40942  42.323  29.651  14.462
72613W        W40943  32.010  20.134   3.162
72614W        W40944  27.535  28.155   4.229
72615W        W40945  28.547  11.788   1.277
72616W        W40946   7.693  10.687   0.815
72617W        W40947   0.476  44.836   0.958
72618W        W40948  22.542  44.893   0.347
72619W        W40949  36.953   9.680  14.973
72620W        W40950  27.011  24.051  14.292
72621W        W40951   4.420  29.446   0.887
72622W        W40952  33.053  23.599  12.965
72623W        W40953  24.124  12.797   4.710
72624W        W40954   2.443  20.118   3.201
72625W        W40955  25.208  17.259  12.981
72626W        W40956  41.492  11.150  11.874
72627W        W40957  20.175   4.782   2.274
72628W        W40958  16.177  43.774   0.957
72629W        W40959  33.524  20.156  11.933
72630W        W40960  14.641  30.536   0.320
72631W        W40961   6.340   5.898   1.428
72632W        W40962  38.495   7.826   3.854
72633W        W40963  25.997  14.680  10.515
72634W        W40964   6.423   3.327   5.188
72635W        W40965  11.252   9.355  14.875
72636W        W40966   4.706  32.979   3.149
72637W        W40967  27.487  18.743  14.461
72638W        W40968  24.197   3.908  11.969
72639W        W40969  16.580  32.981   2.753
72640W        W40970   9.805  18.622   2.870
72641W        W40971   8.797  36.570  11.035
72642W        W40972   5.286  36.031   4.306
72643W        W40973   2.894  40.542  10.585
72644W        W40974  19.215  40.969  11.554
72645W        W40975  26.140  10.695  10.941
72646W        W40976   7.301   5.353   3.291
72647W        W40977  29.658  17.708   4.772
72648W        W40978   8.775   6.382  10.989
72649W        W40979  41.935  17.091   1.776
72650W        W40980  30.516  14.819   2.206
72651W        W40981   7.743  31.954   0.349
72652W        W40982  25.059  24.194  13.858
72653W        W40983   3.363  19.763   0.894
72654W        W40984  31.001  27.508   2.265
72655W        W40985  29.582  36.572  10.437
72656W        W40986   6.681  25.985  11.926
72657W        W40987   2.833  24.051   0.305
72658W        W40988  14.740  18.552   3.273
72659W        W40989  30.414   0.471   2.378
72660W        W40990   6.728   4.431  11.411
72661W        W40991   3.894  41.003  12.900
72662W        W40992  12.132  25.980   4.187
72663W        W40993  44.881  40.493  10.456
72664W        W40994  20.767   6.341  13.980
72665W        W40995  27.944  19.732   1.417
72666W        W40996  40.478  33.566  11.560
72667W        W40997   8.261  36.849   0.314
72668W        W40998  22.065   2.837   4.643
72669W        W40999  36.893  31.926   1.291
72670W        W41000  30.022  11.341  12.937
72671W        W41001  15.197  25.471   0.366
72672W        W41002  27.009  27.653  13.881
72673W        W41003  40.497  41.399  10.028
72674W        W41004  42.333  26.506   1.452
72675W        W41005  43.404  28.670  12.073
72676W        W41006  39.060  11.826   2.764
72677W        W41007  39.880  15.802  13.799
72678W        W41008  33.075   3.387  14.973
72679W        W41009   3.410  38.359   2.272
72680W        W41010  34.050  30.595   1.710
72681W        W41011   1.950  18.160   3.370
72682W        W41012  12.170  42.969  13.377
72683W        W41013  16.188   6.260  13.466
72684W        W41014  18.679  24.585  13.963
72685W        W41015  28.086  33.039   4.257
72686W        W41016   9.772   5.928  14.456
72687W        W41017  15.722  27.132   1.440
72688W        W41018  36.028  42.387  10.578
72689W        W41019  31.111   9.791   4.619
72690W        W41020  27.646  27.515   2.775
72691W        W41021  31.536  28.568   4.185
72692W        W41022   3.934  11.669   2.844
72693W        W41023  20.077   6.851   3.731
72694W        W41024   7.894  44.891  11.375
72695W        W41025  18.707  15.630   1.800
72696W        W41026   1.904  13.175   1.438
72697W        W41027  27.991  23.722  13.942
72698W        W41028  18.666  11.713  14.911
72699W        W41029  23.675   2.764   0.916
72700W        W41030   3.764  13.695  13.966
72701W        W41031  34.919  30.995   3.848
72702W        W41032  11.203   5.326   2.193
72703W        W41033  33.412  33.893   1.297
72704W        W41034  37.529  43.274   3.783
72705W        W41035  43.305  40.463   1.828
72706W        W41036  21.670  24.503  10.995
72707W        W41037  42.839  13.254   0.805
72708W        W41038   3.773  26.135  13.384
72709W        W41039   3.313  22.043   4.838
72710W        W41040  12.146  21.220  13.485
72711W        W41041  28.031  31.520  10.546
72712W        W41042  11.730   0.267  10.983
72713W        W41043  12.348  44.827   4.145
72714W        W41044  28.456   1.914  10.608
72715W        W41045  18.120  38.438  11.092
72716W        W41046  14.167   7.817  12.934
72717W        W41047  34.042  35.953  12.026
72718W        W41048   4.803  24.518  12.852
72719W        W41049  27.026  19.705   1.423
72720W        W41050   9.667  41.987  14.816
72721W        W41051   5.286  21.056   0.297
72722W        W41052  13.820  20.749  10.542
72723W        W41053   4.343   4.869   1.934
72724W        W41054  27.005  13.166   1.926
72725W        W41055  43.471  19.129   3.228
72726W        W41056  14.270  24.094   4.264
72727W        W41057   1.761  35.910   5.298
72728W        W41058   1.425  17.240  13.953
72729W        W41059  12.772  30.490  11.484
72730W        W41060  22.201   8.401  13.311
72731W        W41061  18.149  22.543   5.152
72732W        W41062  20.708  17.622   5.190
72733W        W41063   1.337  34.033  10.902
72734W        W41064  43.341  29.920  11.070
72735W        W41065   0.437  32.498   1.277
72736W        W41066   0.785  42.370   2.402
72737W        W41067   7.272  27.123   0.945
72738W        W41068   4.380  36.915  13.507
72739W        W41069  40.463   5.369   0.266
72740W        W41070  14.709   1.876   9.965
72741W        W41071  37.574  40.488  13.345
72742W        W41072  23.564  32.902  11.523
72743W        W41073  28.175   8.739   1.803
72744W        W41074   4.317  34.398   4.163
72745W        W41075   7.342  25.962  10.460
72746W        W41076   3.859  16.157  13.993
72747W        W41077  39.383  35.924   3.261
72748W        W41078   5.929  38.373   2.181
72749W        W41079   2.292  31.420  11.094
72750W        W41080  18.590   2.907  13.805
72751W        W41081   2.336  14.770  12.403
72752W        W41082  42.893  26.047   0.877
72753W        W41083   3.444  22.708   4.326
72754W        W41084  25.527  27.144  11.499
72755W        W41085  24.112   0.962   3.288
72756W        W41086  30.143  40.331  12.558
72757W        W41087  16.161  41.304  14.822
72758W        W41088  29.520  32.974   4.171
72759W        W41089   1.766  35.936   1.415
72760W        W41090  11.213  31.126  14.949
72761W        W41091  37.449  39.924   4.214
72762W        W41092  37.550  36.082  12.051
72763W        W41093  26.114  16.144   3.761
72764W        W41094  18.646  37.477  11.074
72765W        W41095  15.700   8.690  11.509
72766W        W41096  21.131  21.649   2.737
72767W        W41097  27.662  19.607   3.169
72768W        W41098  26.644  35.485  12.004
72769W        W41099  14.271  32.094   3.343
72770W        W41100  20.575   8.239   1.929
72771W        W41101   7.255   8.210   3.670
72772W        W41102  18.633  15.721   4.663
72773W        W41103  37.016  38.969  11.441
72774W        W41104  25.045  35.890  14.371
72775W        W41105  22.677  14.212  13.355
72776W        W41106  15.675  30.048  11.067
72777W        W41107   0.315  39.028  10.487
72778W        W41108   5.407  28.505   2.319
72779W        W41109   4.377   8.250   2.394
72780W        W41110  40.041  26.498   4.674
72781W        W41111  31.087  24.171   3.789
72782W        W41112  44.758   9.728   2.346
72783W        W41113  19.154  25.114   9.545
72784W        W41114  33.076  18.791  12.914
72785W        W41115  36.929  12.793   2.238
72786W        W41116   4.871  31.421  11.058
72787W        W41117   6.920  26.466   4.761
72788W        W41118  18.236  28.091  12.492
72789W        W41119  18.665   2.897  13.007
72790W        W41120  36.366  11.646   4.802
72791W        W41121  30.998   0.813  11.431
72792W        W41122  16.685   7.750   4.781
72793W        W41123  42.300  32.085   2.384
72794W        W41124  24.625  28.042   4.348
72795W        W41125  36.050  44.372  13.397
72796W        W41126  19.081  28.148  13.491
72797W        W41127  28.133   9.745  13.913
72798W        W41128  14.601  40.536   1.776
72799W        W41129  23.642  28.973  13.495
72800W        W41130  21.666  24.101  13.863
72801W        W41131   9.849  29.141  11.987
72802W        W41132   5.710  16.768   3.791
72803W        W41133  25.555  30.003   4.155
72804W        W41134  20.682  38.486   3.688
72805W        W41135  28.570  10.837  12.990
72806W        W41136  19.135  29.623  11.877
72807W        W41137  32.992  33.395   0.878
72808W        W41138  40.422  38.479  12.043
72809W        W41139  40.530  10.691   1.340
72810W        W41140  35.452  10.346  13.860
72811W        W41141   5.401  41.940   1.426
72812W        W41142   0.906  36.405   3.673
72813W        W41143  38.885  32.127  11.110
72814W        W41144  26.556  26.146  13.889
72815W        W41145  40.450  37.372  13.907
72816W        W41146  42.315  39.517  13.969
72817W        W41147  35.425  34.393   1.747
72818W        W41148  28.651   5.831  15.000
72819W        W41149  29.523   8.887   4.185
72820W        W41150   0.443  24.633   2.262
72821W        W41151   4.359  19.154   2.831
72822W        W41152  35.040  30.018  12.486
72823W        W41153  35.557  44.416   4.355
72824W        W41154  44.854  24.212  10.560
72825W        W41155  30.511  31.501  12.838
72826W        W41156  33.074   5.228  13.851
72827W        W41157   9.713  37.023   1.288
72828W        W41158  24.663  17.706   2.814
72829W        W41159  23.682   5.742  13.816
72830W        W41160  44.790  43.908   2.754
72831W        W41161   7.303  13.779   1.788
72832W        W41162  44.374  27.477   1.876
72833W        W41163  35.993  16.744   4.117
72834W        W41164  14.712  24.627   1.751
72835W        W41165  31.098  25.196   3.632
72836W        W41166  31.055  27.157   0.380
72837W        W41167  33.874  34.415  12.536
72838W        W41168  29.965  19.600  11.881
72839W        W41169   1.775  43.388  10.569
72840W        W41170  42.837  35.526  13.539
72841W        W41171  18.167   5.785  14.276
72842W        W41172   6.751   1.398   4.819
72843W        W41173  28.086  37.998   2.316
72844W        W41174  15.766  18.178  11.975
72845W        W41175  39.382  44.295  14.011
72846W        W41176  23.127   2.389   0.896
72847W        W41177   3.873  41.029   3.200
72848W        W41178  12.631  21.155  10.500
72849W        W41179  37.552  28.960   3.769
72850W        W41180  38.903  29.162   2.788
72851W        W41181  26.598  35.106  12.073
72852W        W41182   3.822  17.243  14.512
72853W        W41183  42.451  42.916   4.125
72854W        W41184  29.563  13.742   2.683
72855W        W41185  14.816  31.505   4.660
72856W        W41186  33.522  14.791  11.402
72857W        W41187  38.496  19.105   2.211
72858W        W41188  38.563  41.977  13.844
72859W        W41189   6.842   8.791  13.829
72860W        W41190  13.105  16.719   4.700
72861W        W41191   0.311  40.979  14.842
72862W        W41192   3.754  21.194   1.262
72863W        W41193  25.604  33.922   3.774
72864W        W41194  36.002  19.774  10.466
72865W        W41195   4.767  28.494  12.911
72866W        W41196   0.329  28.179  10.591
72867W        W41197   7.804   9.311   3.382
72868W        W41198  11.167  33.038   0.362
72869W        W41199   4.790  36.096   4.233
72870W        W41200  15.311  40.442  10.625
72871W        W41201  12.689   8.860   0.935
72872W        W41202  14.108  15.585   2.323
72873W        W41203   1.787  12.145   4.654
72874W        W41204  34.435  11.703  12.092
72875W        W41205  33.616  18.287  14.478
72876W        W41206  26.015  34.471  10.637
72877W        W41207  39.532  26.011  14.432
72878W        W41208  18.665  11.173   4.600
72879W        W41209  17.785  30.140  13.375
72880W        W41210  29.994  12.852  10.573
72881W        W41211   1.379  39.928   4.313
72882W        W41212  36.875  11.313  12.034
72883W        W41213   9.731  18.072   1.929
72884W        W41214  41.532  36.065   0.733
72885W        W41215  23.518  26.526  12.988
72886W        W41216   2.723  29.999   2.374
72887W        W41217  29.539   9.278   2.773
72888W        W41218  29.011   8.726   4.222
72889W        W41219  15.300   0.319   0.842
72890W        W41220  10.344  21.655   0.932
72891W        W41221  26.972  22.528   1.770
72892W        W41222  24.549  24.006  13.876
72893W        W41223  11.645  22.086  10.603
72894W        W41224  25.091   9.369   0.870
72895W        W41225  19.243  37.537   2.702
72896W        W41226  32.460  32.981   4.730
72897W        W41227  40.055  29.170   0.391
72898W        W41228  20.534  27.609  11.880
72899W        W41229  11.722   1.432   1.385
72900W        W41230   1.256  22.664  13.811
72901W        W41231  26.199  44.435   9.944
72902W        W41232  30.031  41.492   1.344
72903W        W41233  22.238  37.505  10.906
72904W        W41234  34.393  10.288   1.401
72905W        W41235  16.784   2.230  10.419
72906W        W41236  38.011  16.079  10.554
72907W        W41237  23.046  11.329  11.879
72908W        W41238  21.255   5.744  10.889
72909W        W41239  26.620  19.560  11.981
72910W        W41240   0.965  26.072  13.862
72911W        W41241  40.528   8.830   0.471
72912W        W41242  37.416   3.243   1.340
72913W        W41243  25.198  21.149   3.789
72914W        W41244   7.264  42.322   0.857
72915W        W41245  35.449   6.410   4.226
72916W        W41246  29.608   8.374  13.938
72917W        W41247  40.499  34.383  12.412
72918W        W41248  20.136   0.315   0.366
72919W        W41249  14.134  12.649   0.884
72920W        W41250  36.969  24.047   1.257
72921W        W41251  10.157  22.091   0.933
72922W        W41252  14.306  28.156  11.574
72923W        W41253  32.029  33.945   3.705
72924W        W41254   4.759  39.850  14.411
72925W        W41255   1.275   6.405   1.788
72926W        W41256  21.142  36.588   0.477
72927W        W41257  21.148   2.914   1.824
72928W        W41258  40.373  19.725   4.637
72929W        W41259  34.946  19.649  10.142
72930W        W41260  39.429  37.057   3.196
72931W        W41261  11.366  36.462  14.368
72932W        W41262   8.224  28.947  13.454
72933W        W41263   8.754  12.319   4.677
72934W        W41264  34.554  34.574  10.456
72935W        W41265  40.312  33.477  14.483
72936W        W41266  26.564  41.529   2.285
72937W        W41267   3.232   9.211  10.890
72938W        W41268   7.314   4.413   4.327
72939W        W41269  34.602  36.582  11.604
72940W        W41270  35.589  37.486   4.116
72941W        W41271  26.122  24.693  11.042
72942W        W41272   3.313  22.188  10.921
72943W        W41273  32.436   2.777   4.241
72944W        W41274  23.040  40.360  13.937
72945W        W41275  25.683  17.081  10.593
72946W        W41276  33.505   3.887   9.962
72947W        W41277   5.733  29.175   4.643
72948W        W41278  39.501  15.787   2.804
72949W        W41279   1.368   1.400   3.262
72950W        W41280  40.339  38.345  14.012
72951W        W41281  33.546  16.794  11.572
72952W        W41282   8.370  30.962   2.374
72953W        W41283  11.275   7.835  12.982
72954W        W41284  21.074  40.999  13.473
72955W        W41285   5.691   8.700   1.328
72956W        W41286  21.515  43.853   0.432
72957W        W41287  12.286  29.985  14.492
72958W        W41288  41.038  35.889  11.609
72959W        W41289  40.966  33.904  12.565
72960W        W41290  24.558   6.756  14.806
72961W        W41291   5.393  16.722  10.504
72962W        W41292  26.976  37.047   4.835
72963W        W41293  28.622  25.202   0.893
72964W        W41294  21.577  43.449  13.476
72965W        W41295  36.043  41.012   4.692
72966W        W41296  24.544   6.300  14.856
72967W        W41297  36.875  14.249   3.694
72968W        W41298  29.052  39.927  14.983
72969W        W41299   0.756  31.975   4.755
72970W        W41300  42.324  20.071  10.506
72971W        W41301  21.669  15.632   1.383
72972W        W41302  29.492  22.532   2.813
72973W        W41303  24.600  25.018  11.590
72974W        W41304  43.273   0.783  10.985
72975W        W41305   1.890   6.379  13.388
72976W        W41306  44.263  13.831  13.982
72977W        W41307  36.404  18.187  11.490
72978W        W41308  23.194  35.428   2.685
72979W        W41309  21.534  35.418  13.314
72980W        W41310  27.615   5.908  13.466
72981W        W41311   6.916  38.884   1.302
72982W        W41312  20.622  10.735   2.686
72983W        W41313   2.956  23.602   0.862
72984W        W41314  33.600   9.208   2.798
72985W        W41315  39.877  19.198   4.332
72986W        W41316   0.428  25.013  13.339
72987W        W41317  29.485   5.284   3.789
72988W        W41318  32.576  18.264  11.568
72989W        W41319  36.394   8.234  14.364
72990W        W41320  28.616  34.455  11.461
72991W        W41321  38.019  28.510  14.839
72992W        W41322   2.414  19.563  14.939
72993W        W41323  16.739   2.444   3.379
72994W        W41324  18.107  19.570  14.339
72995W        W41325   3.939   1.416  12.028
72996W        W41326   6.227  36.431  13.374
72997W        W41327  22.118  29.016   1.920
72998W        W41328  20.068   2.237   3.365
72999W        W41329  18.732   3.925  13.909
73000W        W41330   5.435  34.489   4.276
73001W        W41331   7.304  31.004  14.931
73002W        W41332  14.682  32.941   3.297
73003W        W41333   7.880  29.503  10.595
73004W        W41334  21.036  38.913  10.596
73005W        W41335  11.656  23.013  11.013
73006W        W41336  22.506   5.273  12.902
73007W        W41337  34.056  33.908  11.579
73008W        W41338  37.046  11.866   4.674
73009W        W41339   7.686  12.140   0.931
73010W        W41340  38.963  23.532   0.369
73011W        W41341  39.834   8.876  14.464
73012W        W41342  16.176  42.475  13.902
73013W        W41343   6.262  22.642  11.100
73014W        W41344  38.559   2.237   3.854
73015W        W41345   3.275  17.253  10.576
73016W        W41346   0.843  21.624  14.363
73017W        W41347  42.792  31.102   2.869
73018W        W41348  32.566  44.367   4.765
73019W        W41349  15.696  30.146  10.449
73020W        W41350   4.241  37.054  13.870
73021W        W41351   8.387   1.360   2.732
73022W        W41352  21.741  16.101   1.405
73023W        W41353  30.111  21.522   5.776
73024W        W41354  38.357   3.261  14.017
73025W        W41355   4.295   5.859  14.991
73026W        W41356  28.099  10.283   4.260
73027W        W41357  39.968  31.022  10.564
73028W        W41358  10.786  41.939   0.962
73029W        W41359  31.982  28.455   1.904
73030W        W41360  14.330  44.407   2.308
73031W        W41361  16.206  33.061  11.946
73032W        W41362  34.035   8.335  13.814
73033W        W41363   5.420  42.792  12.388
73034W        W41364  43.879  18.176  14.789
73035W        W41365  29.573  40.381   4.295
73036W        W41366   5.355  36.392   5.672
73037W        W41367  35.881  26.536   1.858
73038W        W41368  36.083  27.162  11.893
73039W        W41369  26.047  23.225  12.825
73040W        W41370  29.629  10.353   4.135
73041W        W41371  16.122  29.635   2.366
73042W        W41372  38.019  39.441  14.323
73043W        W41373  21.213  21.100   4.822
73044W        W41374   4.828   6.224   1.853
73045W        W41375   2.911  41.949  12.043
73046W        W41376  10.358  43.504   5.109
73047W        W41377  28.515  41.372   0.936
73048W        W41378  20.619   5.363   3.351
73049W        W41379  43.016  10.795  11.105
73050W        W41380  21.735  16.775   2.320
73051W        W41381   5.767  16.269   4.831
73052W        W41382  39.950  18.764  13.023
73053W        W41383   4.398   9.228  14.951
73054W        W41384  25.994  43.851   0.284
73055W        W41385   3.217  28.107  12.428
73056W        W41386  23.569  18.172   0.313
73057W        W41387  40.316   3.738   4.190
73058W        W41388  14.654  29.075  10.978
73059W        W41389  32.544  12.144   0.400
73060W        W41390  21.173   6.385  14.516
73061W        W41391  44.448  34.498  10.603
73062W        W41392  28.056  36.471   2.834
73063W        W41393  33.975  28.047  12.973
73064W        W41394  42.455   6.866   3.745
73065W        W41395  18.140  43.894  10.477
73066W        W41396   8.185  36.900   2.291
73067W        W41397  36.531  12.646  14.286
73068W        W41398  25.061  29.170  14.859
73069W        W41399   8.668  12.147  12.512
73070W        W41400  20.733   0.350   4.802
73071W        W41401  29.590   4.278  13.338
73072W        W41402  12.691  18.204   1.332
73073W        W41403   6.756  36.992   4.736
73074W        W41404  37.053  40.375  10.472
73075W        W41405  24.552  41.438   2.416
73076W        W41406  42.373  42.312  10.614
73077W        W41407  18.695  32.632   3.705
73078W        W41408   5.232  26.687  13.449
73079W        W41409  11.651  11.749   3.334
73080W        W41410  12.757  19.586  10.556
73081W        W41411   8.757  23.153   2.738
73082W        W41412  16.775   2.415  14.415
73083W        W41413  41.973   7.371  14.854
73084W        W41414  16.080  42.830  13.855
73085W        W41415   4.735   9.846   2.295
73086W        W41416  12.240  32.888   1.839
73087W        W41417   8.659  38.568  13.539
73088W        W41418  23.490  23.012  13.419
73089W        W41419   0.424  38.343   1.792
73090W        W41420  18.066  42.331   2.670
73091W        W41421  19.203   0.809   3.316
73092W        W41422  44.773   7.340   2.738
73093W        W41423  27.028   4.313  10.475
73094W        W41424  26.552  39.947   3.363
73095W        W41425  22.700  22.084   2.853
73096W        W41426   7.747  10.789  12.828
73097W        W41427  16.233  11.745   0.324
73098W        W41428  17.191  41.397  14.413
73099W        W41429  27.010   4.856   2.391
73100W        W41430   9.820  44.761   2.203
73101W        W41431  10.700  33.965   4.672
73102W        W41432   8.858  25.071   0.866
73103W        W41433  21.549  44.777  13.060
73104W        W41434  20.092  33.598  10.116
73105W        W41435  40.531  11.146   2.243
73106W        W41436  40.502   9.822   2.880
73107W        W41437  28.976  38.954  11.547
73108W        W41438  39.878   8.700   2.343
73109W        W41439  25.013  10.721  11.058
73110W        W41440  31.635   3.257   1.887
73111W        W41441  33.476  37.878  14.394
73112W        W41442  40.492  40.543   0.435
73113W        W41443  43.849  26.552   4.326
73114W        W41444  10.325  16.155   4.225
73115W        W41445  35.412  31.041  10.586
73116W        W41446   9.877  16.223  10.536
73117W        W41447  39.814  18.666   3.693
73118W        W41448  19.216  41.931  12.096
73119W        W41449  15.720  42.387  13.402
73120W        W41450  11.684  18.629   0.928
73121W        W41451  11.686  23.222  14.943
73122W        W41452  36.916  17.240   3.262
73123W        W41453   5.858   4.916  13.525
73124W        W41454  36.965  17.565   2.786
73125W        W41455   3.808  13.243   3.650
73126W        W41456  38.540  11.216  14.490
73127W        W41457  18.767  18.757   3.801
73128W        W41458  38.965  17.155   2.257
73129W        W41459   3.879  33.045  10.411
73130W        W41460  32.080  18.166   4.313
73131W        W41461   1.385  27.478  13.311
73132W        W41462  38.823  34.556   1.884
73133W        W41463  27.522   2.347  11.995
73134W        W41464  35.896  15.670  11.890
73135W        W41465  16.754  29.447  14.986
73136W        W41466  43.345   6.360  11.500
73137W        W41467  43.888  15.107   2.333
73138W        W41468  11.337  44.432  13.446
73139W        W41469  28.516  29.561  13.528
73140W        W41470  29.446   2.900  10.961
73141W        W41471  43.862   0.776  13.424
73142W        W41472   0.349  20.760  14.870
73143W        W41473  24.128  16.791  13.833
73144W        W41474  34.120  21.163  11.961
73145W        W41475  30.535   6.277  10.616
73146W        W41476  22.241  41.351   0.368
73147W        W41477   8.791  32.994  11.594
73148W        W41478  27.658   4.772   3.165
73149W        W41479   4.369   5.729   0.355
73150W        W41480  39.330  44.003  11.516
73151W        W41481   2.861  30.414   2.773
73152W        W41482  19.670  12.230  14.278
73153W        W41483  41.799  40.388   0.750
73154W        W41484  32.123  37.384  11.899
73155W        W41485   7.888  34.395   5.157
73156W        W41486  16.231  18.234  11.558
73157W        W41487  39.412  34.031  13.366
73158W        W41488  34.465  35.523  13.927
73159W        W41489   6.789  33.388  10.468
73160W        W41490  34.437   1.427   4.285
73161W        W41491  20.180  24.600  14.275
73162W        W41492   5.748  25.583   2.747
73163W        W41493  40.054  41.946   3.272
73164W        W41494  19.078  24.068  10.454
73165W        W41495  39.453  34.378  14.901
73166W        W41496  10.245   1.795  10.148
73167W        W41497   7.234  28.480   4.599
73168W        W41498  44.339  15.733  13.546
73169W        W41499  34.965  18.091  10.038
73170W        W41500  28.464   0.476   1.718
73171W        W41501  25.688  28.575   2.685
73172W        W41502   0.440  37.504   4.142
73173W        W41503  19.127   6.283   2.355
73174W        W41504  13.619  28.555   2.700
73175W        W41505  39.443  34.026  12.433
73176W        W41506   7.390  37.835   1.705
73177W        W41507  30.462  34.483   0.841
73178W        W41508  15.578  34.956   3.213
73179W        W41509  11.720  16.107   1.358
73180W        W41510  15.698  19.246   1.809
73181W        W41511  35.410  43.820  12.973
73182W        W41512  44.307  43.851  12.064
73183W        W41513  18.625  34.488  14.911
73184W        W41514  26.523   0.897   2.709
73185W        W41515  14.817   5.364  13.841
73186W        W41516  10.762  39.392  14.479
73187W        W41517   1.936  38.433   4.187
73188W        W41518  28.591  36.511   2.734
73189W        W41519  27.959  36.090  11.907
73190W        W41520  42.011  10.786   0.431
73191W        W41521  16.093  10.706   4.243
73192W        W41522  20.088  29.130   2.266
73193W        W41523  30.132  21.600  12.413
73194W        W41524  38.870  28.153   0.807
73195W        W41525  41.841   8.678   0.282
73196W        W41526  18.751  34.074   4.834
73197W        W41527  17.789  22.531   3.832
73198W        W41528  26.616   1.958   0.806
73199W        W41529  20.058  13.336   4.761
73200W        W41530   1.359  39.920  12.892
73201W        W41531   1.833   7.231  14.010
73202W        W41532  16.568   3.369   3.326
73203W        W41533   9.798  18.287  14.454
73204W        W41534   9.795  36.886  12.028
73205W        W41535  43.500   0.284  14.861
73206W        W41536  18.626  32.006   1.875
73207W        W41537  41.806  11.630  13.500
73208W        W41538  16.702  42.984  13.331
73209W        W41539  35.889  39.542   2.845
73210W        W41540   6.713  15.710  13.881
73211W        W41541   3.335   6.241  13.336
73212W        W41542  19.725   8.879  12.450
73213W        W41543  28.185  34.891  12.470
73214W        W41544  38.994  11.190  13.799
73215W        W41545  41.525  10.221  14.032
73216W        W41546  38.394  33.900   4.335
73217W        W41547  39.973  13.649  10.495
73218W        W41548  19.683   3.745  11.898
73219W        W41549  23.724  12.666   0.286
73220W        W41550  37.341  33.117  14.854
73221W        W41551  44.342  15.245   2.275
73222W        W41552  34.426  21.221   3.866
73223W        W41553  41.447  43.411   4.181
73224W        W41554  23.584  43.319   1.354
73225W        W41555  18.155  31.577   1.798
73226W        W41556  34.952  31.490  14.001
73227W        W41557  38.457  23.101  11.869
73228W        W41558  19.106  22.134  14.874
73229W        W41559  15.823  32.013   5.242
73230W        W41560  40.847  27.554   0.459
73231W        W41561  13.606  42.340  11.096
73232W        W41562  25.187  35.555   2.213
73233W        W41563  26.107   7.824  11.909
73234W        W41564  42.884   4.714  10.574
73235W        W41565  32.569  21.116  14.910
73236W        W41566   5.750   5.259   4.266
73237W        W41567  25.116  18.140   1.718
73238W        W41568   8.393   3.233   3.263
73239W        W41569  31.932  17.188   5.145
73240W        W41570  24.145  35.037  12.370
73241W        W41571  33.082  13.108   1.418
73242W        W41572  26.104   3.369  10.604
73243W        W41573  42.287  26.527  12.829
73244W        W41574  43.324  34.914   2.842
73245W        W41575   3.406  33.462   0.440
73246W        W41576  28.489  30.506  14.361
73247W        W41577  44.778  20.127  11.960
73248W        W41578  27.575   1.777  11.476
73249W        W41579   8.876  30.080   0.807
73250W        W41580  15.213   7.906   2.749
73251W        W41581  11.308  33.566  14.883
73252W        W41582  25.123  38.973   5.201
73253W        W41583  43.837  33.574   0.413
73254W        W41584  23.185  41.963   0.406
73255W        W41585  28.170  16.781   0.748
73256W        W41586  15.730  19.216  14.027
73257W        W41587   5.296   8.835  14.277
73258W        W41588  30.025  28.477   4.693
73259W        W41589  43.308  10.156  12.028
73260W        W41590  44.997  24.025  14.454
73261W        W41591  36.854  41.800  13.965
73262W        W41592   9.163  14.140   3.178
73263W        W41593   7.335   2.839   4.204
73264W        W41594  43.942  23.563   4.344
73265W        W41595   4.821   5.209  13.823
73266W        W41596  23.538   4.776   3.363
73267W        W41597   4.925  41.999  14.978
73268W        W41598  32.444  41.380  10.567
73269W        W41599  36.365   1.295  12.027
73270W        W41600   8.302   4.839  12.923
73271W        W41601  24.553  37.940  12.498
73272W        W41602   6.277   1.976   1.907
73273W        W41603  34.578  40.919   0.267
73274W        W41604  42.026   3.342   0.305
73275W        W41605  32.569  31.601   0.930
73276W        W41606  36.590  36.049  12.085
73277W        W41607   3.393  36.077   2.829
73278W        W41608  11.134  31.921   4.190
73279W        W41609  25.192  17.296  10.428
73280W        W41610  16.664  38.960   2.721
73281W        W41611  37.908  18.742   3.371
73282W        W41612  31.438   1.281  12.437
73283W        W41613  40.967   6.857  11.125
73284W        W41614  26.654  21.253   2.321
73285W        W41615  25.204  20.036   2.723
73286W        W41616  37.455  29.622   2.227
73287W        W41617   0.378  38.052  11.522
73288W        W41618  19.770  12.338  11.001
73289W        W41619  43.301  38.350   2.739
73290W        W41620  41.423   4.724   2.847
73291W        W41621   9.347  16.182   2.312
73292W        W41622  38.344   3.385   3.750
73293W        W41623  43.808   5.309  11.498
73294W        W41624  44.001  14.805  10.413
73295W        W41625  17.263  15.145  10.981
73296W        W41626   4.867  42.310  13.417
73297W        W41627  14.620  33.498  11.041
73298W        W41628   2.390  34.958  10.151
73299W        W41629  14.284  22.149   4.648
73300W        W41630  27.055   2.965   4.615
73301W        W41631  29.148   0.423   0.940
73302W        W41632  22.030  10.704   3.335
73303W        W41633  29.983  23.020  10.488
73304W        W41634   9.715  39.506   1.334
73305W        W41635  20.688  19.118  10.024
73306W        W41636  12.125   5.898  12.501
73307W        W41637   8.842  16.208   0.910
73308W        W41638  18.640  27.668   1.906
73309W        W41639  30.497  34.589   3.732
73310W        W41640  29.440  21.092   3.264
73311W        W41641   9.181  25.593   2.827
73312W        W41642   5.388   9.303  12.022
73313W        W41643  14.236  14.264  12.982
73314W        W41644  13.651  34.508   2.766
73315W        W41645  41.902  11.842   4.703
73316W        W41646  22.062  31.037  14.506
73317W        W41647  26.541  13.768   0.757
73318W        W41648  33.509  21.111  10.586
73319W        W41649   5.438   2.853  13.914
73320W        W41650  14.327  44.966  11.060
73321W        W41651  42.406  19.063   2.416
73322W        W41652  13.296  37.495  11.890
73323W        W41653  42.962  24.203   0.737
73324W        W41654  30.433  30.152   2.692
73325W        W41655  43.444   3.886   2.227
73326W        W41656  20.057  25.670  13.046
73327W        W41657   8.248  12.838   3.775
73328W        W41658  36.457  31.640  12.004
73329W        W41659  14.278   0.323   1.251
73330W        W41660  19.585  18.053   3.229
73331W        W41661  30.055   4.249  12.900
73332W        W41662  39.008   2.285   4.830
73333W        W41663  26.465   2.325   0.402
73334W        W41664  35.499   8.756   2.762
73335W        W41665  10.312  14.653   3.653
73336W        W41666  23.552  24.159  11.385
73337W        W41667  21.723   5.814   1.446
73338W        W41668  17.249  28.030   9.923
73339W        W41669   0.421  41.298  10.547
73340W        W41670   2.862  29.041   4.834
73341W        W41671  44.811   1.332  11.494
73342W        W41672  16.188  44.422   1.747
73343W        W41673  30.441  38.916  13.897
73344W        W41674   1.922  16.120  10.575
73345W        W41675  26.685  21.671  14.011
73346W        W41676  30.976  37.474   5.158
73347W        W41677  19.212  33.497  12.476
73348W        W41678   1.446  11.227   0.394
73349W        W41679   9.790   2.883  14.327
73350W        W41680  14.220  28.568   2.339
73351W        W41681  21.555  22.681   0.873
73352W        W41682  32.087  32.898  14.787
73353W        W41683  35.946  37.915  12.554
73354W        W41684  26.684  17.086   5.254
73355W        W41685  15.088   7.413   4.220
73356W        W41686  22.741  11.269   2.886
73357W        W41687  33.924  35.062   3.162
73358W        W41688  44.468  29.602   0.436
73359W        W41689   9.847  38.455  14.295
73360W        W41690  10.251   8.309  13.494
73361W        W41691  32.125   3.933   2.363
73362W        W41692  23.120  38.977  14.816
73363W        W41693  36.977  38.822   2.302
73364W        W41694  34.973  12.852   3.867
73365W        W41695  19.063   9.236  12.995
73366W        W41696  13.645  31.980  12.880
73367W        W41697  42.904   5.373   4.354
73368W        W41698  13.192   0.895  11.024
73369W        W41699  14.147   9.817  14.343
73370W        W41700  21.609   6.725  12.019
73371W        W41701  14.760  12.664   2.312
73372W        W41702  42.832  16.623   1.914
73373W        W41703  10.839  31.907  12.876
73374W        W41704  29.076  25.695  12.493
73375W        W41705   5.316  42.351   2.750
73376W        W41706  17.562  43.276   3.368
73377W        W41707  35.419  21.689  13.041
73378W        W41708  36.942  23.693  13.345
73379W        W41709   8.302   7.797   4.600
73380W        W41710  38.364  12.159  12.960
73381W        W41711  26.478  32.018   1.301
73382W        W41712  11.285  24.661  12.027
73383W        W41713  32.399  44.332   2.221
73384W        W41714  13.205  36.404  11.603
73385W        W41715  29.961  40.866  11.875
73386W        W41716  44.457  15.230  10.085
73387W        W41717  10.336  30.539  13.986
73388W        W41718  19.068   2.726   1.275
73389W        W41719   0.941  23.661  12.397
73390W        W41720  43.487   9.287  11.550
73391W        W41721  14.162   6.863  10.478
73392W        W41722  41.922  25.075  10.023
73393W        W41723   4.247  42.405  11.855
73394W        W41724   4.373  24.978   4.191
73395W        W41725  13.311  38.345  10.605
73396W        W41726  32.122   2.722  14.414
73397W        W41727  19.079  19.042   1.248
73398W        W41728   0.898  39.924  10.143
73399W        W41729  21.068  15.233   0.249
73400W        W41730   9.644  24.099  12.905
73401W        W41731  44.854   9.268  12.347
73402W        W41732  24.524  13.776  11.117
73403W        W41733   3.243  11.347   4.600
73404W        W41734  31.906   8.312  14.326
73405W        W41735  43.831  30.078   0.284
73406W        W41736   9.832  11.631  12.895
73407W        W41737   5.695   4.835   3.641
73408W        W41738  16.660  29.150   0.345
73409W        W41739  28.591   5.908  11.922
73410W        W41740  14.620  28.031  13.004
73411W        W41741  27.622  24.069   2.794
73412W        W41742  44.309   4.353  13.991
73413W        W41743  18.091   9.298  11.865
73414W        W41744  40.978  33.028   2.196
73415W        W41745  31.501  10.182  13.511
73416W        W41746   9.292  30.453  12.557
73417W        W41747   6.904  42.370   2.357
73418W        W41748   4.795  40.534  10.644
73419W        W41749  29.617  33.890  13.362
73420W        W41750  21.525   1.391  12.004
73421W        W41751   3.265   2.749  11.990
73422W        W41752  31.988  38.867  10.451
73423W        W41753  30.951  22.573   1.353
73424W        W41754  34.512  12.345   1.841
73425W        W41755  44.002  25.204  12.861
73426W        W41756  12.240  40.046   3.346
73427W        W41757  12.659  28.940   1.745
73428W        W41758   2.759   8.883   0.263
73429W        W41759  12.221   1.918   2.866
73430W        W41760  35.541   0.771  13.355
73431W        W41761  41.339  39.033   1.926
73432W        W41762  29.548   6.339   2.221
73433W        W41763  40.497  22.627  13.360
73434W        W41764  33.594  37.961   3.730
73435W        W41765  37.871   0.798   4.219
73436W        W41766  35.930  26.651   3.304
73437W        W41767  20.113   1.268   2.880
73438W        W41768   5.833  18.732  13.315
73439W        W41769  39.317  40.355  14.352
73440W        W41770  14.604  44.452   0.955
73441W        W41771   4.316  37.855  13.464
73442W        W41772  34.518  35.471  12.561
73443W        W41773   5.354   1.854   0.271
73444W        W41774  28.644  40.880  10.588
73445W        W41775  30.113  28.466   2.837
73446W        W41776   0.299  16.710   0.799
73447W        W41777   3.955  16.812  14.393
73448W        W41778   7.221  15.673  12.914
73449W        W41779   2.389  27.532   2.781
73450W        W41780  25.202  41.889   4.232
73451W        W41781  38.971  42.516   0.475
73452W        W41782  24.494  21.199   2.409
73453W        W41783  39.363  43.919  14.763
73454W        W41784  39.991  37.973   3.371
73455W        W41785  37.504  13.835  11.438
73456W        W41786  37.886  38.512  13.910
73457W        W41787  13.292  44.485  14.859
73458W        W41788  18.781  16.302   4.801
73459W        W41789  23.160  32.950   4.288
73460W        W41790  29.521  32.142   3.767
73461W        W41791   9.358   4.816  10.472
73462W        W41792  28.511   0.751  11.983
73463W        W41793  37.849  33.946   3.791
73464W        W41794   8.276  27.043   1.428
73465W        W41795  21.118  10.292   3.183
73466W        W41796  33.480  18.209   2.289
73467W        W41797  26.641  23.100  14.489
73468W        W41798   4.216  27.150  11.471
73469W        W41799   8.378  17.655   2.767
73470W        W41800  36.848  29.948   4.206
73471W        W41801  12.755  36.480   1.891
73472W        W41802  19.157  28.126   3.292
73473W        W41803   5.389  43.445  12.490
73474W        W41804  15.114  16.711  13.842
73475W        W41805  17.754  25.138  10.619
73476W        W41806  10.225  20.652   2.662
73477W        W41807  16.163  37.564  10.137
73478W        W41808   1.939  28.105   2.838
73479W        W41809  34.950  39.050  14.761
73480W        W41810  15.590  35.064   5.182
73481W        W41811  14.259  42.856   1.738
73482W        W41812  26.582  19.648  12.854
73483W        W41813  10.318   9.643   3.177
73484W        W41814  28.681  44.965   1.220
73485W        W41815   3.814  30.028   4.214
73486W        W41816   6.346  10.338  12.353
73487W        W41817  16.204  20.126   2.844
73488W        W41818  26.539  15.615   3.659
73489W        W41819  12.207  34.981   3.685
73490W        W41820  22.203  28.646  14.485
73491W        W41821   8.778   1.848   0.302
73492W        W41822  27.985  41.428   0.836
73493W        W41823   0.265  10.309  10.967
73494W        W41824  33.061  24.078  13.342
73495W        W41825  22.168  32.540  11.029
73496W        W41826   6.368  39.434   1.296
73497W        W41827  31.555  40.850  14.978
73498W        W41828  25.657  30.961  10.920
73499W        W41829  42.896  36.977   0.243
73500W        W41830  44.373  12.228  12.395
73501W        W41831   5.728   3.343   1.335
73502W        W41832  28.555  43.768  14.839
73503W        W41833  13.716  35.919   0.355
73504W        W41834  14.176  38.064   3.311
73505W        W41835  42.516   4.311   3.708
73506W        W41836  24.191  33.063  13.800
73507W        W41837   5.731  29.638  10.548
73508W        W41838  29.564  21.749   2.181
73509W        W41839  39.926  13.245   0.825
73510W        W41840  32.460  29.664   1.240
73511W        W41841   4.908  18.564   3.777
73512W        W41842   8.339   6.252  14.469
73513W        W41843  15.142  37.337   3.802
73514W        W41844  19.778   5.714   3.163
73515W        W41845   7.295   7.694  13.417
73516W        W41846  38.975   3.240  13.378
73517W        W41847  31.581  14.676  11.969
73518W        W41848  12.709   6.342   1.902
73519W        W41849   5.706  15.298  11.521
73520W        W41850   5.804   6.320  11.997
73521W        W41851  10.702  21.156  11.391
73522W        W41852  20.534   3.901  10.455
73523W        W41853  13.205   8.861   3.198
73524W        W41854  31.502  37.534   1.321
73525W        W41855  14.675  11.365  11.989
73526W        W41856  20.057  11.280  10.485
73527W        W41857   6.226  27.486  11.086
73528W        W41858  28.141  29.522   2.239
73529W        W41859   3.278  36.466  10.093
73530W        W41860  20.704  23.667   4.274
73531W        W41861  28.127  18.295   2.246
73532W        W41862   9.350  11.318  13.801
73533W        W41863  17.288  44.321  14.953
73534W        W41864   2.466  10.152  13.379
73535W        W41865  13.247  37.452   0.858
73536W        W41866  14.622  21.703  10.488
73537W        W41867  26.549   6.678   1.762
73538W        W41868  32.508  31.534  10.482
73539W        W41869  26.552   2.797  11.001
73540W        W41870  19.624  31.623   2.695
73541W        W41871   7.698  38.056   1.446
73542W        W41872  35.515  17.714   4.211
73543W        W41873  22.711  40.500   5.320
73544W        W41874   7.861   6.843  11.491
73545W        W41875   2.386   4.256   1.439
73546W        W41876   0.778  28.160   4.751
73547W        W41877  14.144  23.046  14.322
73548W        W41878  11.152  10.677  12.933
73549W        W41879  36.977  40.482   1.861
73550W        W41880  29.011  20.666   4.221
73551W        W41881  32.975  14.225   0.757
73552W        W41882  44.402  33.526  13.912
73553W        W41883  33.072  43.356   2.782
73554W        W41884  16.149  13.127  13.892
73555W        W41885  24.148  39.017  11.947
73556W        W41886  39.547  33.895   4.661
73557W        W41887  12.779  16.721  11.405
73558W        W41888  12.753  29.952   2.375
73559W        W41889  18.143  12.683   3.180
73560W        W41890   7.346  35.975   2.679
73561W        W41891  43.943   3.430   1.360
73562W        W41892  28.150  27.613  11.891
73563W        W41893  39.879  26.960  14.025
73564W        W41894   9.741  43.785  14.305
73565W        W41895  37.417  23.489  12.343
73566W        W41896  25.568  33.587  13.522
73567W        W41897  28.666  30.938  14.999
73568W        W41898  18.232  22.063  10.912
73569W        W41899  31.531  22.204   1.895
73570W        W41900  44.785  12.119  13.809
73571W        W41901  10.232  10.684   2.693
73572W        W41902  38.905  31.585   3.147
73573W        W41903   7.393  13.292   1.761
73574W        W41904   8.879  14.156  13.902
73575W        W41905  17.084  37.399   3.366
73576W        W41906   4.701  15.165   0.789
73577W        W41907  33.896  35.570   1.334
73578W        W41908  41.369  39.365  10.459
73579W        W41909  15.117   5.396   1.449
73580W        W41910  11.262  31.568   2.388
73581W        W41911   2.832  41.451   3.822
73582W        W41912  31.151  25.646  11.858
73583W        W41913  18.588  40.524   0.820
73584W        W41914   8.162  35.559   4.766
73585W        W41915  10.865   4.801   4.328
73586W        W41916   8.176   0.308   1.737
73587W        W41917   3.376  22.685   0.729
73588W        W41918  37.939   5.272  10.922
73589W        W41919  28.130  25.211   4.650
73590W        W41920  28.024  26.528   5.105
73591W        W41921  10.751  18.105   0.424
73592W        W41922  20.146  30.468   0.742
73593W        W41923  17.253  35.007   4.834
73594W        W41924  40.324  39.971  13.499
73595W        W41925  13.653  13.127  11.991
73596W        W41926  14.679  11.269   3.313
73597W        W41927  36.438   6.846  14.005
73598W        W41928  27.662  20.128  14.000
73599W        W41929   2.886  43.804  11.539
73600W        W41930  36.490  12.640  12.027
73601W        W41931  39.449  16.647  12.536
73602W        W41932  21.035  13.612   3.258
73603W        W41933  13.294  25.103  14.895
73604W        W41934  33.482  39.495  14.906
73605W        W41935  24.510  29.075  11.612
73606W        W41936   2.368  11.201  13.463
73607W        W41937  38.882   4.289   2.331
73608W        W41938  35.432  11.150  10.462
73609W        W41939  28.496  17.701  10.924
73610W        W41940   0.813  39.910  12.890
73611W        W41941  18.274  13.107   1.371
73612W        W41942  41.900  41.874  12.408
73613W        W41943  28.167  39.832  11.572
73614W        W41944  25.551  34.517   4.635
73615W        W41945  12.244  31.632  12.967
73616W        W41946   8.171  19.707   3.145
73617W        W41947  14.795  19.640   1.842
73618W        W41948   3.716  14.669  11.408
73619W        W41949  20.534  37.849   2.276
73620W        W41950  19.768  39.489   1.377
73621W        W41951  33.534  10.287   3.646
73622W        W41952   8.179  16.769  12.453
73623W        W41953  26.469  27.685   1.911
73624W        W41954  22.228  40.409   3.842
73625W        W41955  36.943   4.221  11.055
73626W        W41956  12.289  20.533  13.916
73627W        W41957  37.841  30.976  11.865
73628W        W41958  28.633  28.095  13.455
73629W        W41959  10.652  30.597  14.472
73630W        W41960   5.747   9.349   3.189
73631W        W41961  11.812  33.004   0.738
73632W        W41962  44.864  31.639  12.435
73633W        W41963  11.797   3.816   1.378
73634W        W41964  14.109   6.332   0.960
73635W        W41965  11.815  20.047   4.213
73636W        W41966  16.276   6.702   4.633
73637W        W41967  17.619   9.305   3.224
73638W        W41968  37.474   9.250  11.475
73639W        W41969   7.878  39.029  13.001
73640W        W41970  30.009  20.095  11.452
73641W        W41971   1.312   0.408  13.416
73642W        W41972  38.397  13.168   1.328
73643W        W41973   6.237  31.041   4.302
73644W        W41974  36.036  10.300  12.031
73645W        W41975  15.283   7.285   3.349
73646W        W41976  23.710  43.936   3.204
73647W        W41977   9.386  44.007  10.571
73648W        W41978  13.134  10.188  12.848
73649W        W41979  43.402  22.741   2.858
73650W        W41980  10.808   2.416   4.195
73651W        W41981  16.244  27.081   4.613
73652W        W41982  14.612  33.395  11.888
73653W        W41983   6.737  20.704  14.937
73654W        W41984  32.633  37.050   3.827
73655W        W41985  17.668  32.001   2.828
73656W        W41986   3.386  18.686   4.315
73657W        W41987  12.225  29.977  13.981
73658W        W41988   3.950  35.865   1.729
73659W        W41989  35.959  14.323  10.597
73660W        W41990  12.280  41.347   1.244
73661W        W41991  38.876  12.346  11.871
73662W        W41992  29.049  15.259  12.518
73663W        W41993   5.889  14.130  13.353
73664W        W41994  27.951  34.470   2.301
73665W        W41995  34.391  43.280   4.146
73666W        W41996  35.872  20.151   3.782
73667W        W41997  18.784  25.548   2.210
73668W        W41998  34.419  31.427  13.399
73669W        W41999  26.074  30.097  12.503
73670W        W42000  35.003   8.699  12.402
73671W        W42001   2.321  16.648   3.289
73672W        W42002   9.815  12.276  13.457
73673W        W42003  43.376  39.819  13.437
73674W        W42004  26.640  31.136  14.355
73675W        W42005   2.754  14.131   3.705
73676W        W42006  12.712  42.427  12.947
73677W        W42007  38.910   4.932  11.560
73678W        W42008  38.453   5.859  13.424
73679W        W42009   0.885  28.130  10.592
73680W        W42010  12.750  37.967   1.427
73681W        W42011   8.841   4.352  13.531
73682W        W42012   3.800  13.185   0.415
73683W        W42013   1.304  33.523  11.002
73684W        W42014  35.542  40.366   2.733
73685W        W42015  27.482  21.179   0.340
73686W        W42016  12.796  34.500   0.270
73687W        W42017  17.176  19.238  12.961
73688W        W42018   4.782  36.876   9.548
73689W        W42019   5.315  37.357  12.456
73690W        W42020  15.814   3.727   1.383
73691W        W42021  28.159  14.098   0.948
73692W        W42022  30.081  32.518  12.339
73693W        W42023  15.259  25.024  11.013
73694W        W42024  28.625   4.378   4.203
73695W        W42025  26.987  22.611  12.839
73696W        W42026  19.576   3.842  11.522
73697W        W42027   2.778  27.158   4.604
73698W        W42028  10.236   3.232   5.228
73699W        W42029  22.507  42.946  12.075
73700W        W42030  34.103   4.721   0.342
73701W        W42031   8.784   2.912  12.075
73702W        W42032  28.593  12.665  14.467
73703W        W42033  25.184  16.158   1.786
73704W        W42034   2.850  30.625  11.587
73705W        W42035  34.498  13.658   1.339
73706W        W42036  31.608  18.733   0.306
73707W        W42037   4.841  13.627   0.346
73708W        W42038  31.921   7.253  10.609
73709W        W42039  43.499  44.492   9.936
73710W        W42040  27.559  13.716  13.425
73711W        W42041  23.618   1.330  10.540
73712W        W42042  44.361   3.346  10.596
73713W        W42043  43.010   0.397  10.504
73714W        W42044  10.637   1.443   1.352
73715W        W42045   0.395  22.579   1.404
73716W        W42046  41.908  43.314  12.511
73717W        W42047  33.483  39.316   1.327
73718W        W42048   5.260  32.941  13.369
73719W        W42049   8.274  11.226   2.741
73720W        W42050  40.432  12.758   5.213
73721W        W42051  27.045  11.852   2.743
73722W        W42052  16.652   3.794   4.162
73723W        W42053  26.533  20.065  11.978
73724W        W42054   9.882   2.340   4.266
73725W        W42055  43.363  10.852  13.517
73726W        W42056   3.227  30.580   1.348
73727W        W42057  42.871  32.468   3.312
73728W        W42058   5.830  33.044   3.635
73729W        W42059  39.830  37.488  10.578
73730W        W42060  15.628   8.367   4.770
73731W        W42061  39.017  11.201   1.405
73732W        W42062  31.454  34.926   2.877
73733W        W42063  24.041  26.149   2.372
73734W        W42064  27.008  12.798  12.468
73735W        W42065   0.315   7.694  13.398
73736W        W42066  33.506   3.414  12.865
73737W        W42067  31.951  33.545  13.966
73738W        W42068  40.308  16.308   2.377
73739W        W42069  36.490  28.124  11.424
73740W        W42070  34.030  23.182  14.435
73741W        W42071   7.819  17.597  11.607
73742W        W42072  22.747  12.767   3.320
73743W        W42073   1.414  19.537   3.669
73744W        W42074  27.103  12.804  14.392
73745W        W42075  40.531  34.926  13.412
73746W        W42076  11.757  28.613   2.701
73747W        W42077  25.087  21.682  12.924
73748W        W42078  21.146   1.819  14.429
73749W        W42079   2.243   1.792   3.831
73750W        W42080  34.872  19.631  10.927
73751W        W42081  17.682  32.084   4.720
73752W        W42082  18.065  26.062   9.552
73753W        W42083  40.835   8.762   4.623
73754W        W42084  35.060   3.792  14.287
73755W        W42085  19.641  34.868   2.252
73756W        W42086  13.109  33.558  12.858
73757W        W42087  44.364  29.514   3.275
73758W        W42088  28.066  12.265  14.515
73759W        W42089   1.738  14.749  11.936
73760W        W42090  12.801  23.042  11.997
73761W        W42091   3.272   6.193   0.961
73762W        W42092  28.624  43.839  13.956
73763W        W42093  31.146  43.938   1.898
73764W        W42094  42.884  37.957   5.297
73765W        W42095  28.662  19.592   0.791
73766W        W42096  15.823  29.155  13.476
73767W        W42097   8.751  13.730  12.457
73768W        W42098  44.349  39.031   1.745
73769W        W42099  11.277   4.714   3.201
73770W        W42100  44.311  26.057   3.210
73771W        W42101  21.625   6.724   1.406
73772W        W42102  29.118  20.643   5.672
73773W        W42103  17.274  34.906  13.895
73774W        W42104  20.769  39.985   1.345
73775W        W42105  17.594   6.235  10.438
73776W        W42106  18.248  15.662   4.297
73777W        W42107  13.328  31.464   0.903
73778W        W42108  24.481  40.348   2.901
73779W        W42109  14.649  17.647   2.309
73780W        W42110  30.415  25.969  14.812
73781W        W42111  31.627  20.157   4.236
73782W        W42112  14.203   9.667  11.105
73783W        W42113   6.690  25.562  13.484
73784W        W42114   0.365  17.109   0.392
73785W        W42115  20.752   3.711  12.451
73786W        W42116  20.250   7.200   2.188
73787W        W42117  36.906  30.989   0.474
73788W        W42118  41.362  38.457   3.171
73789W        W42119  24.198  33.431  10.424
73790W        W42120   4.296   6.228  14.418
73791W        W42121   6.410  11.848  12.966
73792W        W42122  33.007  18.241  13.311
73793W        W42123  35.591  24.216  13.964
73794W        W42124  44.427   9.347  12.506
73795W        W42125  37.948   2.956   1.902
73796W        W42126  24.132   3.813  13.833
73797W        W42127  28.964  39.022  12.857
73798W        W42128  35.491  42.377  13.352
73799W        W42129  40.904  31.100  13.396
73800W        W42130  39.317  44.846   3.379
73801W        W42131  20.628  31.995  14.853
73802W        W42132  30.593  31.601   1.294
73803W        W42133   2.343  16.123  11.858
73804W        W42134   3.842  40.537  14.497
73805W        W42135  26.070   6.295  10.534
73806W        W42136  18.791  39.981   1.369
73807W        W42137  12.118  21.043  10.146
73808W        W42138  23.632  29.139  10.570
73809W        W42139  39.036   9.200   3.849
73810W        W42140  37.060   4.937  10.457
73811W        W42141  30.618   5.786  14.286
73812W        W42142  14.217  19.691  13.837
73813W        W42143   5.706  11.838  11.968
73814W        W42144  13.162  10.240  13.507
73815W        W42145  26.974  33.576   2.764
73816W        W42146  20.045  42.807   5.307
73817W        W42147   3.726  30.991  11.003
73818W        W42148  18.195   5.389  14.469
73819W        W42149  26.624  20.145  11.539
73820W        W42150  36.503  18.217   4.164
73821W        W42151  19.744  29.933   2.843
73822W        W42152  10.774  39.029   0.862
73823W        W42153  41.028   6.320  12.875
73824W        W42154  30.604  11.345  10.556
73825W        W42155  25.468  43.959   1.934
73826W        W42156  33.916  23.665  12.981
73827W        W42157  35.431   4.330   0.398
73828W        W42158  28.469  35.589  14.449
73829W        W42159  24.035  10.350   5.294
73830W        W42160  12.355  34.100   0.439
73831W        W42161  28.023   3.255  13.988
73832W        W42162  33.962  20.560   0.316
73833W        W42163  38.371  20.128  14.775
73834W        W42164  30.656  30.472   3.227
73835W        W42165  27.622  31.959  14.850
73836W        W42166   9.707  28.616  11.089
73837W        W42167  19.681  18.623   1.275
73838W        W42168  11.647  13.108  11.042
73839W        W42169   6.688  20.126   1.323
73840W        W42170  43.981  39.063  14.881
73841W        W42171  36.379  37.029  11.892
73842W        W42172   7.186  32.407  14.012
73843W        W42173  19.765  11.324   3.837
73844W        W42174  18.197  41.520   3.165
73845W        W42175   2.766  37.378  12.990
73846W        W42176  19.682  21.578  11.557
73847W        W42177  22.636  26.042   4.606
73848W        W42178  36.047  24.578   1.237
73849W        W42179  38.377  24.533  13.355
73850W        W42180   5.300   2.754   2.401
73851W        W42181  17.282  38.937  11.053
73852W        W42182   9.347   0.481   1.852
73853W        W42183   2.799  44.850   2.718
73854W        W42184  20.606  26.557   0.303
73855W        W42185  31.005   0.315  10.953
73856W        W42186  16.800   8.333  11.048
73857W        W42187  10.677  38.378  11.528
73858W        W42188  22.557  16.296  14.365
73859W        W42189  11.247  29.669  10.941
73860W        W42190  31.119   8.320   3.303
73861W        W42191  11.132   6.784  11.924
73862W        W42192  38.569  14.228  13.860
73863W        W42193  35.459  15.103  13.050
73864W        W42194   2.862  40.888  12.520
73865W        W42195  13.205  39.990  12.518
73866W        W42196  29.601  24.603   4.825
73867W        W42197  40.916  27.990  14.301
73868W        W42198  23.167  16.276  10.537
73869W        W42199   8.298  43.288  12.081
73870W        W42200  15.316  31.095  11.468
73871W        W42201  26.142  35.987   3.762
73872W        W42202  42.933  33.383  14.349
73873W        W42203  22.532   2.472  11.433
73874W        W42204  24.653  26.672  11.924
73875W        W42205   4.734  39.883  12.057
73876W        W42206  19.625  37.952   2.284
73877W        W42207  41.343  19.655  11.436
73878W        W42208  24.719  43.883   1.371
73879W        W42209   7.872   6.386   5.314
73880W        W42210  23.166  38.509  13.343
73881W        W42211  29.015  17.574  12.449
73882W        W42212  25.667  41.803   3.338
73883W        W42213  42.494  28.966  14.027
73884W        W42214  15.636   5.332  12.341
73885W        W42215   3.360  34.065  14.490
73886W        W42216  24.591  23.645  11.494
73887W        W42217  10.181  43.809   1.442
73888W        W42218  14.128  15.763   4.754
73889W        W42219  17.557   5.884   3.718
73890W        W42220   6.304  27.082  11.553
73891W        W42221  26.644   3.771  12.429
73892W        W42222  34.424   3.819   2.817
73893W        W42223   9.194   9.848  11.857
73894W        W42224  25.589  25.039  10.416
73895W        W42225  21.712   6.335  10.581
73896W        W42226   9.760   9.216  12.479
73897W        W42227  29.500   6.904  14.473
73898W        W42228  10.205  33.478   0.311
73899W        W42229  28.597  28.604  10.607
73900W        W42230  44.386  28.107   4.307
73901W        W42231  22.512  28.037   3.249
73902W        W42232  29.169  35.495  14.411
73903W        W42233   0.980  25.500  13.034
73904W        W42234   6.288  30.467  14.347
73905W        W42235   6.290  37.496  10.512
73906W        W42236  28.042  24.661   0.924
73907W        W42237  41.872   9.734   3.351
73908W        W42238  26.559  21.752  11.603
73909W        W42239  15.818  31.598   4.689
73910W        W42240  24.130  42.402  13.864
73911W        W42241  38.010  24.690  14.414
73912W        W42242   9.861  38.853  13.865
73913W        W42243  43.975  11.851  13.062
73914W        W42244   9.246   8.838   5.309
73915W        W42245   2.800   2.788   1.819
73916W        W42246  37.998   5.417   1.856
73917W        W42247  17.590  38.375  10.534
73918W        W42248   3.302   0.866   2.782
73919W        W42249  37.447  30.415  11.058
73920W        W42250  18.623  25.604  10.951
73921W        W42251  37.513  41.526  10.472
73922W        W42252  34.384   2.760   2.850
73923W        W42253   7.349  11.733  10.642
73924W        W42254  36.852  31.452   2.239
73925W        W42255  13.728  14.825   3.371
73926W        W42256  22.597   2.905   0.912
73927W        W42257  15.302  41.460  12.038
73928W        W42258  33.565  39.322  12.386
73929W        W42259  20.703  17.208  13.512
73930W        W42260   6.812  10.154   3.770
73931W        W42261  14.319  41.522  14.999
73932W        W42262  34.414  39.422   3.374
73933W        W42263   3.743   8.862   1.920
73934W        W42264  16.810  12.347  14.459
73935W        W42265  22.534  30.089   4.819
73936W        W42266  30.066  44.926   3.863
73937W        W42267  39.827   8.319  10.512
73938W        W42268  33.549  38.977   4.200
73939W        W42269  19.749  30.608   3.706
73940W        W42270  31.583  10.269  14.983
73941W        W42271  33.576  17.783   9.969
73942W        W42272  21.027   7.213   3.820
73943W        W42273  37.963  44.853   3.713
73944W        W42274  13.776   6.275   1.709
73945W        W42275  25.037  41.329  11.375
73946W        W42276  34.988  22.565  13.062
73947W        W42277  34.874  41.501   5.302
73948W        W42278  42.446  27.634  13.496
73949W        W42279  13.764  30.483  10.547
73950W        W42280  21.030  33.531   5.087
73951W        W42281  26.014  35.463   3.688
73952W        W42282  14.250  43.786   4.276
73953W        W42283  25.534   1.320  14.302
73954W        W42284   4.380   0.378   4.752
73955W        W42285  26.130  40.308   3.655
73956W        W42286  31.645  10.363   3.215
73957W        W42287   3.425  28.601   2.814
73958W        W42288   3.353  40.337   2.834
73959W        W42289  17.651  40.863  12.826
73960W        W42290  26.109   6.711  13.983
73961W        W42291  13.639   0.974   3.759
73962W        W42292  18.630  11.281  14.356
73963W        W42293   7.899   4.205  11.567
73964W        W42294   4.404  28.560   0.961
73965W        W42295   1.876   5.316  10.601
73966W        W42296  23.596  41.324   0.743
73967W        W42297   7.284  15.784   0.480
73968W        W42298  30.605  19.255  11.984
73969W        W42299  21.671   4.337   0.474
73970W        W42300  32.426  22.126  10.530
73971W        W42301  33.902  13.832  14.435
73972W        W42302  28.132  12.655  14.008
73973W        W42303  22.165  33.033   2.235
73974W        W42304  24.213  24.642  12.470
73975W        W42305  39.999   6.256   2.863
73976W        W42306  29.538  23.722  11.962
73977W        W42307  10.356  11.187  11.931
73978W        W42308   9.872  14.693  12.363
73979W        W42309  25.028  37.520  10.542
73980W        W42310  26.628  25.065  10.626
73981W        W42311   2.371  13.195   2.747
73982W        W42312  26.156   1.314  10.905
73983W        W42313  27.040  20.063  13.879
73984W        W42314  29.491  12.163  10.904
73985W        W42315  15.584  16.809  14.840
73986W        W42316   2.424  17.715  13.901
73987W        W42317  22.146   8.873   0.842
73988W        W42318   9.719  42.029  12.509
73989W        W42319  26.653  25.096  14.306
73990W        W42320  20.753   5.841   1.334
73991W        W42321  12.637   8.848  10.600
73992W        W42322  32.408  13.627  12.907
73993W        W42323   6.698   7.840   0.840
73994W        W42324  37.994  34.557  13.799
73995W        W42325  20.661  16.312  11.586
73996W        W42326  20.218   5.199   0.735
73997W        W42327  28.940  41.961  13.325
73998W        W42328  39.491  42.787  14.450
73999W        W42329  13.760   0.795  13.512
74000W        W42330  20.048   3.927  14.339
74001W        W42331  17.197  21.702  11.061
74002W        W42332  31.427   4.878   2.843
74003W        W42333  29.668  31.410  11.881
74004W        W42334  26.049  12.615   1.384
74005W        W42335  16.247  11.843   0.833
74006W        W42336   9.238  11.656   0.936
74007W        W42337  31.527  10.739  14.423
74008W        W42338  21.186   4.345  12.924
74009W        W42339  16.688  14.676   1.736
74010W        W42340  42.027  25.079   3.168
74011W        W42341   1.304  22.240  11.998
74012W        W42342  42.491  12.335   4.157
74013W        W42343  27.517  40.999   0.404
74014W        W42344   0.304   8.726  11.579
74015W        W42345  10.643  25.517   4.256
74016W        W42346  10.229   7.905   2.193
74017W        W42347  33.569  23.722   0.267
74018W        W42348  14.703  33.020   2.365
74019W        W42349  10.787  27.948  13.937
74020W        W42350  26.609  33.543   5.088
74021W        W42351  27.033  35.496  13.406
74022W        W42352  21.577  12.773   3.267
74023W        W42353  37.351   7.336  10.453
74024W        W42354  32.976  13.342  11.888
74025W        W42355  31.550  12.850   1.748
74026W        W42356  15.694   8.331  12.522
74027W        W42357  14.135   6.693   0.811
74028W        W42358   9.782   3.338   0.831
74029W        W42359  16.591  27.678   2.385
74030W        W42360  33.891  39.505  12.458
74031W        W42361  13.663  30.622   4.715
74032W        W42362  43.006  16.727   2.795
74033W        W42363  26.155  25.645  14.959
74034W        W42364   7.758  36.347   0.785
74035W        W42365  14.629  26.494  13.338
74036W        W42366  32.613  38.412  14.976
74037W        W42367  13.640  24.601   2.735
74038W        W42368   6.282   8.186   3.353
74039W        W42369  22.609  15.643  11.897
74040W        W42370  27.970  15.598  11.899
74041W        W42371  22.155   2.844   4.294
74042W        W42372  44.927  33.906  10.458
74043W        W42373  35.987  21.247  10.531
74044W        W42374   8.901  24.576  10.971
74045W        W42375  15.773   6.339   0.261
74046W        W42376  21.756  32.454   2.218
74047W        W42377  35.550   1.289   3.795
74048W        W42378  23.517   8.330   1.927
74049W        W42379  15.112  17.772  12.579
74050W        W42380  39.483   4.927   2.191
74051W        W42381  27.061   5.301   2.862
74052W        W42382  32.005  43.435  13.894
74053W        W42383  23.729  23.621  11.112
74054W        W42384  15.644   2.951  12.389
74055W        W42385  38.543  39.369   1.233
74056W        W42386  23.735  16.310  14.278
74057W        W42387  12.172  25.106   1.210
74058W        W42388   2.318  34.097   0.744
74059W        W42389  14.708  15.268  12.554
74060W        W42390  32.585  30.123  11.053
74061W        W42391   7.748  29.653   0.878
74062W        W42392  40.851  27.506   3.862
74063W        W42393  42.006  21.251   2.674
74064W        W42394  35.101  39.423   1.720
74065W        W42395   6.731  11.206   3.633
74066W        W42396  19.676  37.359   5.256
74067W        W42397   6.721  33.494  11.995
74068W        W42398  40.859   7.798  11.073
74069W        W42399  35.983  32.625  11.528
74070W        W42400  18.705  40.890  11.984
74071W        W42401  27.030  28.169  13.404
74072W        W42402  15.270  17.572  10.615
74073W        W42403  29.593  38.555   0.943
74074W        W42404  12.301  32.424  13.893
74075W        W42405  10.307  42.363  11.511
74076W        W42406  32.993   8.316  14.836
74077W        W42407  21.535  11.306   0.320
74078W        W42408  16.193  42.877   0.805
74079W        W42409   9.366  44.325   0.293
74080W        W42410  30.633  16.194   0.349
74081W        W42411  28.076   2.435   3.718
74082W        W42412   4.753   2.423   2.721
74083W        W42413   5.755   4.866   2.664
74084W        W42414   8.874  13.630  11.108
74085W        W42415  24.541  14.124   4.116
74086W        W42416  29.009   6.895  11.387
74087W        W42417  26.611  37.373  13.347
74088W        W42418   2.858   3.337  14.285
74089W        W42419   5.252  40.416   0.343
74090W        W42420  22.641  17.173   3.240
74091W        W42421  15.213   2.350  11.481
74092W        W42422  13.680  27.975  14.826
74093W        W42423  25.180  34.919   2.409
74094W        W42424   2.757  24.517  11.380
74095W        W42425  37.871  14.286  10.505
74096W        W42426  12.770   9.375   0.885
74097W        W42427  29.095  12.307   0.794
74098W        W42428  32.518  37.844   3.344
74099W        W42429  26.138   7.730  11.576
74100W        W42430   0.767  35.867  10.566
74101W        W42431  12.157  11.262  13.791
74102W        W42432  19.589  44.864   4.250
74103W        W42433  16.139  15.238  14.479
74104W        W42434  18.695  20.224   4.296
74105W        W42435   6.890  23.525   4.599
74106W        W42436  43.906  42.399   0.452
74107W        W42437  22.605  24.697  10.917
74108W        W42438  28.075  38.007   1.240
74109W        W42439  16.269   6.191  12.083
74110W        W42440  12.339  11.675   1.872
74111W        W42441   5.763   3.307   2.800
74112W        W42442  26.999  24.511  11.963
74113W        W42443   5.858   8.758  13.390
74114W        W42444  31.640  26.569   4.775
74115W        W42445  22.163  24.202   1.339
74116W        W42446  33.514  12.626  12.418
74117W        W42447  22.109   9.777   3.180
74118W        W42448  25.967  21.701  14.875
74119W        W42449   1.459  31.111   0.398
74120W        W42450  10.862  25.209  10.409
74121W        W42451  40.345   7.780  13.462
74122W        W42452  42.312  24.106   1.340
74123W        W42453  16.694   8.245   2.265
74124W        W42454  28.984  41.326   0.918
74125W        W42455  44.455  40.506  13.029
74126W        W42456  28.138  37.489   3.299
74127W        W42457  22.067  27.029   4.819
74128W        W42458   2.283  32.410  11.087
74129W        W42459  15.169  35.479  14.973
74130W        W42460   3.300   4.399  12.542
74131W        W42461  10.308  14.115   0.388
74132W        W42462   0.388  14.295   1.317
74133W        W42463  26.481  21.702  10.990
74134W        W42464   7.242  20.122   3.338
74135W        W42465   5.205  15.822  12.556
74136W        W42466  24.534  34.959  10.482
74137W        W42467  35.431  30.647   2.236
74138W        W42468  37.925  25.614  14.353
74139W        W42469   5.264  12.640  11.459
74140W        W42470  38.894  37.997   2.714
74141W        W42471   1.312  18.696   0.920
74142W        W42472  36.017  38.366   0.481
74143W        W42473  39.550   2.837   0.929
74144W        W42474  36.452  42.376   0.278
74145W        W42475  41.963  29.034  11.582
74146W        W42476  16.618  36.035  14.488
74147W        W42477  44.915  28.562   3.341
74148W        W42478  14.605   4.870  13.316
74149W        W42479  30.422  39.065   9.927
74150W        W42480  41.419   9.262  10.489
74151W        W42481  14.290  23.032   0.318
74152W        W42482  21.748  12.627   5.190
74153W        W42483  12.807  19.737   3.242
74154W        W42484   9.770  42.314  11.552
74155W        W42485   7.881  17.573  12.859
74156W        W42486   6.278  25.984   1.314
74157W        W42487  11.678  16.596   1.771
74158W        W42488  36.543  10.379  14.379
74159W        W42489  34.480  27.043   4.649
74160W        W42490  28.544   0.376   0.477
74161W        W42491  14.134  42.792   2.775
74162W        W42492   4.770  39.020   0.921
74163W        W42493  26.022   1.240  13.426
74164W        W42494  26.054  29.651  11.996
74165W        W42495  12.670  16.263  11.610
74166W        W42496  37.374  25.057   3.843
74167W        W42497   4.717  36.461   3.265
74168W        W42498  30.565  11.723  13.924
74169W        W42499  14.259  33.110   4.761
74170W        W42500  39.823  43.476   2.776
74171W        W42501  10.643  34.440   4.739
74172W        W42502  28.664  17.632   3.675
74173W        W42503  21.149   7.200  10.614
74174W        W42504  24.993  31.503  10.632
74175W        W42505  23.007  22.200   1.377
74176W        W42506  40.834  21.136  14.920
74177W        W42507   6.195   8.244   3.681
74178W        W42508  37.438  26.674   3.150
74179W        W42509  19.555  40.525  11.538
74180W        W42510   0.252  32.515   4.656
74181W        W42511   6.885  34.452  10.904
74182W        W42512   7.817  10.224  11.421
74183W        W42513  42.324  10.691  14.021
74184W        W42514  26.015   3.399   2.380
74185W        W42515  43.993   2.896  12.459
74186W        W42516  29.156  20.249   5.568
74187W        W42517   9.287   6.281   2.399
74188W        W42518  12.654  43.956   0.765
74189W        W42519  33.097  24.178   2.869
74190W        W42520  34.116  25.591   1.835
74191W        W42521  16.083  29.031   2.265
74192W        W42522  38.857  36.089   3.788
74193W        W42523  16.785  37.882   9.661
74194W        W42524  14.769  30.561  10.558
74195W        W42525  30.581   9.313   0.268
74196W        W42526  42.778   1.443   3.240
74197W        W42527  13.709  29.472  13.458
74198W        W42528   8.658  10.347  12.008
74199W        W42529  25.087   8.775   4.663
74200W        W42530  16.721  25.661   1.252
74201W        W42531  33.535   1.783  14.826
74202W        W42532  23.651  27.066  10.944
74203W        W42533  41.846  39.520  14.492
74204W        W42534   8.330   2.882  11.990
74205W        W42535  41.874  40.335  14.294
74206W        W42536   7.218   4.271  11.972
74207W        W42537  10.695  41.864   1.270
74208W        W42538  11.143  13.820  10.634
74209W        W42539  28.488  16.127   0.409
74210W        W42540  44.469  39.353   1.929
74211W        W42541  16.587   3.247   1.701
74212W        W42542   5.327  38.868  11.898
74213W        W42543  10.780  26.485   1.386
74214W        W42544  12.779  43.482  10.453
74215W        W42545  22.731   5.242  11.119
74216W        W42546   4.379  44.318   2.196
74217W        W42547  28.172  17.128   1.302
74218W        W42548   9.176  11.706   4.282
74219W        W42549   0.356  24.033   1.785
74220W        W42550  23.102  21.081   1.393
74221W        W42551   7.170   7.197   1.804
74222W        W42552  25.583  16.217   3.293
74223W        W42553  42.938  23.633   3.748
74224W        W42554   8.354  26.065  12.555
74225W        W42555  25.090  20.066   0.742
74226W        W42556  36.510  15.139  14.276
74227W        W42557  43.919  38.004   1.762
74228W        W42558  43.514  42.802  12.520
74229W        W42559  41.856  19.226   1.881
74230W        W42560  14.098  12.828  12.036
74231W        W42561  27.681  20.753  12.933
74232W        W42562   5.341  39.852   0.760
74233W        W42563  21.160   8.250   5.275
74234W        W42564   3.947  41.412   2.390
74235W        W42565   0.932  15.281   0.446
74236W        W42566  11.674  43.390  14.468
74237W        W42567  11.250   6.841  14.821
74238W        W42568  28.123  37.006  14.929
74239W        W42569  10.795   3.762  10.914
74240W        W42570  12.840  39.336   3.802
74241W        W42571  11.178  10.783  11.971
74242W        W42572  23.233  14.108   3.792
74243W        W42573  35.034  38.856   2.708
74244W        W42574  22.551   4.753   2.304
74245W        W42575  15.659  21.119  10.641
74246W        W42576  16.741  29.647   2.314
74247W        W42577   5.352  23.671  14.920
74248W        W42578  11.167  43.439   2.286
74249W        W42579   4.428   1.291   0.357
74250W        W42580  10.204   9.358   1.433
74251W        W42581  11.834  35.390   0.831
74252W        W42582  10.786   1.909   1.353
74253W        W42583  25.194  35.046   1.744
74254W        W42584  37.962  14.267   2.754
74255W        W42585   7.244  40.936  14.802
74256W        W42586  16.292   7.289  10.488
74257W        W42587  26.123  32.963   3.243
74258W        W42588  34.433  31.419   4.738
74259W        W42589   5.839  17.566   0.396
74260W        W42590  40.337  35.399   4.205
74261W        W42591  40.333   8.351  10.606
74262W        W42592  41.905  33.473   4.751
74263W        W42593  16.656  42.437   4.630
74264W        W42594  30.510  43.482  13.865
74265W        W42595  13.744   1.374  12.383
74266W        W42596  25.681  33.592   1.425
74267W        W42597  35.385  35.387   2.244
74268W        W42598   2.964  43.448  12.554
74269W        W42599  39.376  42.932  13.455
74270W        W42600  42.849   1.742  14.898
74271W        W42601  10.363  36.388   0.863
74272W        W42602  22.072  18.077   0.843
74273W        W42603  28.969  17.797  10.415
74274W        W42604  20.737  19.137   5.792
74275W        W42605  23.223  38.506   2.718
74276W        W42606   8.259   7.869  13.546
74277W        W42607  12.705  36.005  13.847
74278W        W42608  21.102   3.713  10.625
74279W        W42609  18.687  11.324  12.509
74280W        W42610  38.917  35.456  14.479
74281W        W42611  22.710  19.583   0.922
74282W        W42612  43.493  40.331  13.307
74283W        W42613   1.399  10.289   2.382
74284W        W42614  29.158  35.429   4.215
74285W        W42615  38.508  36.943  11.557
74286W        W42616  41.435   3.868  12.850
74287W        W42617   2.864   4.781  10.587
74288W        W42618   2.867   0.756  13.312
74289W        W42619  40.947  14.706   1.761
74290W        W42620   2.774   0.819   0.786
74291W        W42621   2.885   8.214   1.400
74292W        W42622  38.997  32.521   0.738
74293W        W42623  38.868  26.175  12.883
74294W        W42624   6.742  24.606   4.726
74295W        W42625   9.835   0.977   2.413
74296W        W42626   3.233   0.922   0.311
74297W        W42627  34.520  28.153  13.377
74298W        W42628  34.468  15.625  10.912
74299W        W42629  43.346  31.053   1.920
74300W        W42630  43.966   5.877   4.622
74301W        W42631  42.827  34.398  12.848
74302W        W42632  12.718  24.058   4.234
74303W        W42633  26.136   7.348  11.593
74304W        W42634  37.074  26.182  12.425
74305W        W42635  20.667  39.420  13.308
74306W        W42636  35.008  37.395   3.753
74307W        W42637  26.031  44.984  10.638
74308W        W42638   2.822   6.702  10.493
74309W        W42639  36.444  20.681  13.373
74310W        W42640   3.922  31.037   4.743
74311W        W42641  10.144  17.268  12.094
74312W        W42642   6.383  25.181  12.835
74313W        W42643   0.917  23.142  14.454
74314W        W42644  23.015  38.350   3.366
74315W        W42645  29.951  17.084   1.309
74316W        W42646  41.921  12.677  14.473
74317W        W42647  35.542  22.663  11.917
74318W        W42648  27.489  40.369  12.832
74319W        W42649  28.129  10.646  13.006
74320W        W42650  33.926  17.713  11.402
74321W        W42651  34.066  39.884  12.895
74322W        W42652  24.973   6.739  14.023
74323W        W42653  22.066  33.436  12.555
74324W        W42654  13.772  36.559  10.621
74325W        W42655  44.369   6.311   3.261
74326W        W42656  38.328  33.120  14.808
74327W        W42657  24.113  44.409  10.026
74328W        W42658  16.698  34.382   5.260
74329W        W42659  12.665  13.832  11.870
74330W        W42660  28.587  26.632   1.805
74331W        W42661  33.911  20.738  11.520
74332W        W42662  19.208  18.078  10.982
74333W        W42663   5.715  11.625   3.169
74334W        W42664  15.296  29.451  12.947
74335W        W42665  41.317   7.806   3.379
74336W        W42666   8.840  33.487   5.183
74337W        W42667  22.624  19.605   5.285
74338W        W42668  38.381  40.048  12.852
74339W        W42669  34.872  37.015  13.316
74340W        W42670  38.535  21.726  11.463
74341W        W42671   9.789  22.115  11.974
74342W        W42672  23.027  28.595   2.722
74343W        W42673  25.489   3.240   0.836
74344W        W42674  21.140  14.265  10.138
74345W        W42675  30.158  32.986   4.828
74346W        W42676   7.677  31.983  11.981
74347W        W42677  32.996  27.458  14.284
74348W        W42678   2.445   8.188  14.362
74349W        W42679  11.311  34.871   2.212
74350W        W42680   8.296   2.340   0.760
74351W        W42681  11.716  40.901   1.345
74352W        W42682  30.043  42.336  13.846
74353W        W42683  28.130  17.597   0.469
74354W        W42684  33.879  25.484  11.604
74355W        W42685  25.000  31.140   4.190
74356W        W42686  18.547  32.084  11.005
74357W        W42687  29.045  37.471   3.661
74358W        W42688   7.715  19.745  11.582
74359W        W42689  32.577  19.651  12.095
74360W        W42690  43.348  31.419  13.497
74361W        W42691  24.990  39.879  13.477
74362W        W42692  30.014  16.309  10.565
74363W        W42693  15.728  30.140   1.281
74364W        W42694   8.269  33.968  13.822
74365W        W42695  35.907   2.279  11.473
74366W        W42696  31.029  10.871   3.151
74367W        W42697  14.330   3.835   4.723
74368W        W42698  39.371   4.210   4.329
74369W        W42699   5.771  31.557  14.784
74370W        W42700  26.203   5.418   2.217
74371W        W42701  38.964  27.059   2.745
74372W        W42702  13.765  29.976   1.382
74373W        W42703  10.321   1.352   3.817
74374W        W42704  34.370  41.956   2.213
74375W        W42705  14.665  23.606   4.173
74376W        W42706  15.111  39.970  10.945
74377W        W42707  37.369   7.355  12.078
74378W        W42708  38.976  16.102  10.588
74379W        W42709   7.801  40.312  12.000
74380W        W42710   1.413   1.905  12.082
74381W        W42711  11.242   3.303   3.336
74382W        W42712   5.749  27.094   1.335
74383W        W42713  25.590  39.924   2.245
74384W        W42714   0.320  28.996   3.712
74385W        W42715  42.900  27.131  12.402
74386W        W42716  29.575  25.663   3.206
74387W        W42717  32.012   5.253   4.620
74388W        W42718   9.721   2.249  12.380
74389W        W42719  22.548  29.108   9.952
74390W        W42720  43.345  34.959   3.186
74391W        W42721   5.892   1.862   3.156
74392W        W42722  19.560   1.267   0.384
74393W        W42723   6.384  23.159  11.507
74394W        W42724  24.623  43.380  12.351
74395W        W42725  42.795   5.830   1.699
74396W        W42726   8.835   5.876  10.955
74397W        W42727  20.136  16.807  13.007
74398W        W42728   6.825  25.189  13.058
74399W        W42729   9.889  11.180  11.540
74400W        W42730   9.332   1.423  13.957
74401W        W42731  14.610   1.873  12.007
74402W        W42732   1.742   6.885   2.328
74403W        W42733  22.135  37.071  11.076
74404W        W42734  20.586  31.502   4.254
74405W        W42735   1.923  11.774  13.841
74406W        W42736  30.501   1.843  10.634
74407W        W42737  24.100   8.236  12.042
74408W        W42738  34.458   5.318   0.907
74409W        W42739  10.312  23.992  11.394
74410W        W42740   8.706   5.344  14.381
74411W        W42741  15.639  33.604  14.973
74412W        W42742   3.779  13.243   0.889
74413W        W42743   9.375  12.658  10.624
74414W        W42744  34.061  10.716  10.531
74415W        W42745  37.551   1.319   4.741
74416W        W42746  15.234  37.936   1.442
74417W        W42747  41.992   6.904  10.932
74418W        W42748  44.881   0.489   3.336
74419W        W42749  31.635  43.500  13.046
74420W        W42750  26.681   2.848  13.926
74421W        W42751  37.950  25.093  14.904
74422W        W42752  27.504  35.888   2.817
74423W        W42753  27.532  37.910  14.974
74424W        W42754  28.575  21.550   2.684
74425W        W42755   0.981  23.607  11.529
74426W        W42756  21.207  21.021   1.883
74427W        W42757  42.818  15.613   1.443
74428W        W42758  39.876  37.968  14.295
74429W        W42759  14.747  18.611  13.042
74430W        W42760  39.052   8.210   5.774
74431W        W42761  30.441  13.742  10.480
74432W        W42762   8.302  39.349   2.236
74433W        W42763  17.730  20.724  14.305
74434W        W42764  41.376  11.837   1.911
74435W        W42765  39.443  23.671   3.684
74436W        W42766  38.896  22.566  13.915
74437W        W42767  13.159  18.744  12.532
74438W        W42768  23.572   1.343   0.744
74439W        W42769  21.033   7.178   9.974
74440W        W42770   1.360  17.176  14.926
74441W        W42771  24.570  44.855   3.743
74442W        W42772   9.738  17.114   2.741
74443W        W42773   5.207  43.494   0.250
74444W        W42774  28.156  35.503  10.554
74445W        W42775  22.238  26.482   0.817
74446W        W42776  41.447  13.140  11.510
74447W        W42777   0.326  41.333   2.200
74448W        W42778  42.315   6.868   4.216
74449W        W42779  17.753   6.313   1.309
74450W        W42780  17.598   0.777  12.404
74451W        W42781  39.903   7.812  10.907
74452W        W42782   0.297   8.886  13.362
74453W        W42783  40.452  37.447  11.513
74454W        W42784  10.830   2.372  14.958
74455W        W42785  39.057  43.287   2.837
74456W        W42786  16.770  30.027   3.176
74457W        W42787   7.283  24.998  14.891
74458W        W42788  41.342  25.218  11.123
74459W        W42789   1.441   8.708  12.395
74460W        W42790  36.975  31.938  11.002
74461W        W42791  39.932  31.115   2.705
74462W        W42792  24.531  31.054  11.516
74463W        W42793  14.314  26.649  14.506
74464W        W42794   8.810  17.716  13.937
74465W        W42795  23.617  10.266   2.362
74466W        W42796  44.473  37.472  13.795
74467W        W42797  28.120  21.182   4.667
74468W        W42798  28.460   7.830  10.996
74469W        W42799  12.321  42.884  12.480
74470W        W42800   6.771   2.941  14.383
74471W        W42801  34.439  36.354  11.898
74472W        W42802  43.341  37.509  12.885
74473W        W42803  39.535  29.570   0.912
74474W        W42804  27.680   4.814  12.047
74475W        W42805  41.485  21.197  12.557
74476W        W42806  20.727   8.775   0.967
74477W        W42807  11.226  21.659   3.737
74478W        W42808  21.254  16.246  10.484
74479W        W42809   2.305  43.016  11.470
74480W        W42810  26.619   3.716  11.958
74481W        W42811  30.931  32.102   9.981
74482W        W42812  38.448  29.533   1.267
74483W        W42813  37.924  41.902  11.962
74484W        W42814  35.075  44.919  13.530
74485W        W42815  10.839  20.711  13.489
74486W        W42816  34.070   8.283  13.528
74487W        W42817  15.201  22.635  11.476
74488W        W42818  21.227  24.496  14.877
74489W        W42819  34.111  41.915   3.166
74490W        W42820  21.180  28.140  11.114
74491W        W42821  37.867  23.546  13.307
74492W        W42822  35.562  27.534  10.998
74493W        W42823  30.514  24.089  13.393
74494W        W42824  33.884  34.022   4.735
74495W        W42825  17.147  37.438   5.121
74496W        W42826  25.496  41.990  10.590
74497W        W42827   9.253  34.112   2.877
74498W        W42828  25.180  40.844  12.389
74499W        W42829  37.889  13.243   3.349
74500W        W42830  34.436   2.290  13.915
74501W        W42831  13.826  44.489   4.814
74502W        W42832  17.186  37.062   9.657
74503W        W42833  42.881   9.668  12.991
74504W        W42834  11.676  10.281  14.406
74505W        W42835   2.339  15.284   3.787
74506W        W42836  37.879  15.244  13.809
74507W        W42837  31.922  24.180  13.422
74508W        W42838  34.397  12.328  14.011
74509W        W42839  14.137  12.311   0.818
74510W        W42840  13.719   7.374   2.856
74511W        W42841  33.521   4.220   0.438
74512W        W42842  44.901   9.305  13.837
74513W        W42843   4.845   3.293   4.605
74514W        W42844  16.145  18.273  12.363
74515W        W42845  42.362  23.060   3.779
74516W        W42846  23.003  42.413  13.793
74517W        W42847  14.188   0.951   2.259
74518W        W42848  30.962  43.957  10.529
74519W        W42849  43.015  25.102   3.752
74520W        W42850  19.215  12.847   0.387
74521W        W42851   6.307  16.700  14.865
74522W        W42852  36.486  17.169   0.771
74523W        W42853  22.031   1.806   2.214
74524W        W42854  28.607   9.728   1.389
74525W        W42855  19.256  44.848   0.869
74526W        W42856  26.466  10.229  14.367
74527W        W42857   8.171  39.332   0.817
74528W        W42858  41.516  20.210  11.378
74529W        W42859  40.359  41.503   3.198
74530W        W42860  32.480  18.704   2.272
74531W        W42861  15.801  22.120  10.157
74532W        W42862  36.407  10.240   0.348
74533W        W42863  43.797   5.243   0.383
74534W        W42864  41.312  30.157  12.938
74535W        W42865  12.137  15.647   4.209
74536W        W42866  30.107  27.608   0.780
74537W        W42867  16.687  20.750  12.823
74538W        W42868  23.012  13.833  11.425
74539W        W42869   8.197  18.551   0.916
74540W        W42870  14.660  34.054   4.252
74541W        W42871  25.108  17.666   3.667
74542W        W42872  31.113   3.389   4.193
74543W        W42873  19.192  21.588  14.461
74544W        W42874   7.890  35.541  12.570
74545W        W42875  10.755   1.363  12.475
74546W        W42876   6.248  17.763  12.852
74547W        W42877   8.847  34.610  13.062
74548W        W42878  16.223  14.812   2.285
74549W        W42879   6.688  32.531   3.358
74550W        W42880   7.681  32.893  14.291
74551W        W42881   5.377  10.192  13.425
74552W        W42882   0.474  25.636  11.112
74553W        W42883   1.932   7.893  10.576
74554W        W42884   2.963  17.086   3.804
74555W        W42885  44.471  39.837  11.017
74556W        W42886  43.444  13.813   3.701
74557W        W42887  36.472   3.854   4.655
74558W        W42888  19.242   2.750   4.820
74559W        W42889   3.904  31.087  12.577
74560W        W42890   2.450  15.739  12.844
74561W        W42891  41.910   1.433   4.621
74562W        W42892  36.506  21.158  12.580
74563W        W42893   7.248  39.849  14.883
74564W        W42894  33.039   4.706  11.982
74565W        W42895   0.494   1.439  12.862
74566W        W42896  37.024  30.418  11.050
74567W        W42897  26.126  17.625   0.753
74568W        W42898   8.678  27.019  11.398
74569W        W42899   8.243  32.951  13.917
74570W        W42900  26.041  36.392   3.679
74571W        W42901  36.366  11.137   3.737
74572W        W42902  10.811   3.276   4.135
74573W        W42903  25.507  42.362   2.377
74574W        W42904  44.999  17.561  14.477
74575W        W42905  25.709  23.588  12.038
74576W        W42906  36.391   0.807   0.322
74577W        W42907  44.874  13.745  12.031
74578W        W42908  35.486  19.538   1.741
74579W        W42909  27.050  34.962   2.213
74580W        W42910   9.655   0.800   1.814
74581W        W42911   4.340   0.959  11.516
74582W        W42912  20.767  27.022   1.883
74583W        W42913  38.384  24.665   3.202
74584W        W42914  14.257  41.381  13.956
74585W        W42915  27.682  21.630   2.328
74586W        W42916   0.882  37.531  12.951
74587W        W42917  18.564  30.613  13.017
74588W        W42918  43.798   8.296   0.924
74589W        W42919  23.634  37.504   3.243
74590W        W42920   8.715  20.655   3.275
74591W        W42921  21.161  30.614   3.831
74592W        W42922  25.477  10.281   0.879
74593W        W42923  23.601  17.098  14.497
74594W        W42924  11.300  14.143   0.840
74595W        W42925  17.794  21.612   2.276
74596W        W42926  30.031  32.998  10.969
74597W        W42927   7.733  40.539   3.693
74598W        W42928  39.455  33.609  11.030
74599W        W42929  44.398   5.432  10.465
74600W        W42930  37.873  13.843   0.854
74601W        W42931  39.416  34.474  12.395
74602W        W42932  31.997  29.579   1.247
74603W        W42933  33.579  18.547   4.159
74604W        W42934  29.428  32.042  13.016
74605W        W42935  43.318  23.159  11.567
74606W        W42936  30.605  23.636  14.316
74607W        W42937  43.506   3.945   2.807
74608W        W42938  18.251  29.451   3.777
74609W        W42939  17.801  26.552  12.517
74610W        W42940  16.193  12.284  12.943
74611W        W42941  41.438  43.341  12.892
74612W        W42942   3.846  14.204   1.335
74613W        W42943  27.633   4.933  14.928
74614W        W42944  21.192  27.009   1.727
74615W        W42945  23.493  26.173   2.748
74616W        W42946  10.339  29.476  11.523
74617W        W42947   5.332   3.367  12.902
74618W        W42948  29.043   5.303  11.548
74619W        W42949   2.885  39.377  10.640
74620W        W42950  11.754   9.711  10.107
74621W        W42951  21.719   1.786  11.611
74622W        W42952   1.434  42.507   3.746
74623W        W42953  10.323  34.588  13.930
74624W        W42954   2.457   9.212  10.512
74625W        W42955  30.968  37.344  14.772
74626W        W42956   5.334  13.633  12.557
74627W        W42957  26.500  34.003  12.449
74628W        W42958  15.093   5.709   1.214
74629W        W42959   3.308   5.710   3.159
74630W        W42960  12.356  36.561  11.873
74631W        W42961   2.244   1.861  14.452
74632W        W42962  32.930  12.270   1.235
74633W        W42963   1.826  28.503  11.127
74634W        W42964   9.779  29.961   2.206
74635W        W42965  26.608  41.382  14.402
74636W        W42966  20.081  19.153   4.214
74637W        W42967  22.700   2.277   4.258
74638W        W42968   9.686   0.283   4.701
74639W        W42969  44.419  39.812   4.257
74640W        W42970   0.319  40.352   2.677
74641W        W42971  32.059  26.169   0.321
74642W        W42972  37.517   3.832  12.397
74643W        W42973  42.349  32.015   2.790
74644W        W42974  26.543   6.259   1.337
74645W        W42975   2.362  27.616  12.075
74646W        W42976  15.217  43.765  10.523
74647W        W42977  18.593   6.711   0.365
74648W        W42978  26.199  15.147  12.474
74649W        W42979  12.739  39.926   2.337
74650W        W42980  44.456  19.051   1.295
74651W        W42981  40.513  32.903  10.937
74652W        W42982  34.939  31.902  12.370
74653W        W42983  32.425  17.666   0.310
74654W        W42984  19.747  12.636   0.284
74655W        W42985   4.815  31.646   1.901
74656W        W42986  41.295  15.107  14.359
74657W        W42987  29.490   9.214  11.546
74658W        W42988  36.035  10.255   4.171
74659W        W42989  38.882   7.804  11.891
74660W        W42990  23.710  25.170   0.731
74661W        W42991  27.957  33.108   3.743
74662W        W42992  28.014   9.814   3.241
74663W        W42993  29.146  41.322   2.262
74664W        W42994   4.277  23.608  11.095
74665W        W42995  21.156  20.624  11.880
74666W        W42996  43.933  28.036  11.090
74667W        W42997  40.449   0.345  14.862
74668W        W42998   8.723  41.793  14.458
74669W        W42999  41.464  40.364  14.828
74670W        W43000   9.666  15.159  13.539
74671W        W43001  15.624  23.169   4.136
74672W        W43002   3.843   7.376   2.792
74673W        W43003  35.065   6.326  13.031
74674W        W43004  20.082  41.316   5.209
74675W        W43005  11.787   6.863  12.898
74676W        W43006  26.479  14.798  12.377
74677W        W43007  18.546  36.084   1.326
74678W        W43008  13.605  23.223   3.765
74679W        W43009  12.268  14.266   5.280
74680W        W43010  42.808  23.137  13.368
74681W        W43011  18.654  34.920   4.827
74682W        W43012  24.057  22.066  12.977
74683W        W43013  21.079   6.274   4.333
74684W        W43014  40.407  35.524  12.922
74685W        W43015  30.123  11.317   3.661
74686W        W43016   8.251  36.076  14.292
74687W        W43017   2.411  38.507   2.377
74688W        W43018   2.897  37.010   4.728
74689W        W43019  31.605  31.537   3.262
74690W        W43020  20.228   0.464   4.764
74691W        W43021  19.095   3.716  11.572
74692W        W43022  17.295   0.445  10.046
74693W        W43023  16.244  20.750  10.597
74694W        W43024  13.333  37.996   2.817
74695W        W43025  42.297  44.341  12.416
74696W        W43026   9.687  29.984   0.783
74697W        W43027  27.183   9.690  12.040
74698W        W43028  18.244  35.042   3.227
74699W        W43029  10.197  20.542   0.843
74700W        W43030   9.794  37.008  14.304
74701W        W43031  26.516   8.161   4.754
74702W        W43032  40.961  40.304  11.971
74703W        W43033  11.283  22.028   3.209
74704W        W43034  38.422  20.702  14.369
74705W        W43035   4.844   6.908  10.538
74706W        W43036  11.625  36.397   3.169
74707W        W43037  44.305  39.004  10.459
74708W        W43038  43.904  11.846   2.771
74709W        W43039  38.017  41.946   1.925
74710W        W43040  41.361  41.425   1.757
74711W        W43041  32.119   1.751  11.530
74712W        W43042   3.357  32.905  14.966
74713W        W43043  36.468  28.542  13.808
74714W        W43044   3.809  19.223  10.466
74715W        W43045  34.952  41.338  13.392
74716W        W43046  30.452  26.020   4.182
74717W        W43047  15.317  25.140  13.887
74718W        W43048  31.455   3.951  11.452
74719W        W43049  22.183  16.674  14.919
74720W        W43050  36.420  35.564   3.310
74721W        W43051  19.595  25.205   1.379
74722W        W43052  10.873  18.626   3.275
74723W        W43053  10.247  11.625  10.604
74724W        W43054  36.358  26.529  12.021
74725W        W43055  12.356  20.632   3.325
74726W        W43056  30.605  15.139  11.498
74727W        W43057   5.212  27.950   4.246
74728W        W43058  21.025   8.782   2.715
74729W        W43059   7.867   8.758   3.260
74730W        W43060  11.781   0.486  14.944
74731W        W43061  27.665  40.825  14.998
74732W        W43062  25.501  23.661  10.438
74733W        W43063  42.287  21.220  13.978
74734W        W43064   6.919  42.477  13.811
74735W        W43065  11.706  24.667   2.720
74736W        W43066  12.241  24.041  13.939
74737W        W43067  38.042  15.211  12.443
74738W        W43068  20.092  32.537   0.926
74739W        W43069  27.599   4.279  13.900
74740W        W43070   9.705   1.944   2.405
74741W        W43071   0.258  31.030  13.442
74742W        W43072  14.673   0.367  12.526
74743W        W43073  10.294   9.670  10.598
74744W        W43074   5.207  32.551   2.342
74745W        W43075   7.701  12.782   2.861
74746W        W43076   5.787  17.070   2.192
74747W        W43077   5.260  28.131  13.996
74748W        W43078  37.379  14.217  12.856
74749W        W43079  44.010   3.916  13.802
74750W        W43080  34.387  29.595  11.982
74751W        W43081  44.431   2.362  13.995
74752W        W43082  22.633  39.423   4.832
74753W        W43083  32.449   7.274  13.802
74754W        W43084  16.646  40.956  13.415
74755W        W43085  27.973  23.113  13.040
74756W        W43086  23.586  24.183   4.706
74757W        W43087  29.067  35.940   3.810
74758W        W43088  25.008   0.770  14.975
74759W        W43089  40.466  43.297  14.920
74760W        W43090  11.666  22.011  11.498
74761W        W43091  28.941  37.891  14.478
74762W        W43092  31.451   7.371   4.298
74763W        W43093  37.830   8.810  13.445
74764W        W43094  26.686  16.173  14.354
74765W        W43095  18.229  41.361   3.767
74766W        W43096  17.737  15.688   3.760
74767W        W43097  23.574  39.871  11.107
74768W        W43098  17.680  36.038   4.643
74769W        W43099  12.767  31.997   0.893
74770W        W43100  21.677  15.124   0.833
74771W        W43101   6.261  32.039   0.344
74772W        W43102  20.106  15.649  11.457
74773W        W43103  30.954  38.477  12.886
74774W        W43104   8.748  23.646  10.475
74775W        W43105  37.463  33.496  13.309
74776W        W43106  37.550  23.136  12.047
74777W        W43107  16.159  32.415  13.880
74778W        W43108   5.346  33.458  11.452
74779W        W43109  17.161  21.568  13.820
74780W        W43110  28.172  32.436  12.089
74781W        W43111  34.106  41.482  14.288
74782W        W43112   4.281  15.257   1.837
74783W        W43113  42.786   7.274   1.818
74784W        W43114   6.829  35.411   3.663
74785W        W43115  41.995  31.621   4.172
74786W        W43116  30.134  27.009  10.428
74787W        W43117   8.833  22.099   4.203
74788W        W43118  17.790  33.547  14.886
74789W        W43119  41.927  30.991   2.780
74790W        W43120  15.600  42.831   2.757
74791W        W43121  34.070  42.845  10.579
74792W        W43122   4.715  13.731   3.307
74793W        W43123  16.306  15.663  13.979
74794W        W43124  31.127  28.059  10.962
74795W        W43125   6.322  12.637  10.513
74796W        W43126  11.850   1.813  14.954
74797W        W43127  12.189   7.251  13.986
74798W        W43128  27.072  37.930   2.295
74799W        W43129  20.740   6.325  10.967
74800W        W43130  14.601  11.235   2.390
74801W        W43131  38.013  24.599   2.739
74802W        W43132  17.201  40.341  10.442
74803W        W43133  12.710  37.369  10.159
74804W        W43134  19.147  12.191   0.357
74805W        W43135  37.538   7.243  14.499
74806W        W43136  29.609  20.588  11.572
74807W        W43137  10.764  16.092   4.759
74808W        W43138  28.066  23.589  14.925
74809W        W43139   2.357   2.395  13.521
74810W        W43140  25.032  18.789  11.980
74811W        W43141  28.576  28.511   0.919
74812W        W43142   6.691   4.409   2.201
74813W        W43143   1.373  21.150   0.762
74814W        W43144  20.114  28.022   4.694
74815W        W43145  27.579  33.072   0.966
74816W        W43146  21.221  37.462   1.924
74817W        W43147   7.182   2.896  14.890
74818W        W43148  39.446   7.365  10.539
74819W        W43149  37.471  29.667   3.839
74820W        W43150   5.824  16.702   0.805
74821W        W43151  10.278   4.858   1.797
74822W        W43152  28.169  16.730   4.744
74823W        W43153  35.001   9.383   1.831
74824W        W43154  34.957  23.636  13.001
74825W        W43155  14.133  23.642   4.132
74826W        W43156  33.933  20.105  13.012
74827W        W43157  11.259  44.984  14.420
74828W        W43158  27.104  21.596  14.939
74829W        W43159  19.706  21.649   0.963
74830W        W43160  39.006  42.483  11.066
74831W        W43161  34.369  23.620   4.738
74832W        W43162  26.180  31.995  13.006
74833W        W43163  38.384  29.936  13.799
74834W        W43164  44.496  11.693   1.932
74835W        W43165  44.470  18.279  10.077
74836W        W43166  21.627   7.400   5.706
74837W        W43167  43.287  21.619  13.434
74838W        W43168  23.688  29.554  12.363
74839W        W43169  21.540   8.855  14.816
74840W        W43170   4.212  41.342   4.605
74841W        W43171  36.846  10.238   3.253
74842W        W43172   9.850  23.638   2.296
74843W        W43173   9.829  35.360   2.270
74844W        W43174  32.058  37.885   1.729
74845W        W43175  13.699  38.466   1.440
74846W        W43176  29.453  11.357   2.340
74847W        W43177  26.042  35.918  12.506
74848W        W43178  44.855  40.319   3.637
74849W        W43179   4.412  23.530   4.786
74850W        W43180  10.325  24.707   0.423
74851W        W43181  41.787  14.804   0.431
74852W        W43182   3.425  28.995   2.232
74853W        W43183  34.484  19.074  14.018
74854W        W43184  20.689  18.247  14.405
74855W        W43185  21.716   4.719   1.841
74856W        W43186   8.230  18.709  14.003
74857W        W43187  17.151   1.438  12.543
74858W        W43188  13.792   0.914  13.885
74859W        W43189  11.660  31.502   1.254
74860W        W43190  31.924  37.578  14.385
74861W        W43191  15.308   3.219   4.313
74862W        W43192  29.438   7.676   2.323
74863W        W43193  22.643  43.498  13.325
74864W        W43194  14.617  23.112   1.416
74865W        W43195  31.402  19.273   2.345
74866W        W43196  38.418  27.113   4.710
74867W        W43197  17.659   8.259   3.281
74868W        W43198  41.859   4.783   4.285
74869W        W43199   2.804  28.972   3.300
74870W        W43200   6.289   4.771  14.345
74871W        W43201  42.804  24.679  12.932
74872W        W43202   9.671   9.882   3.770
74873W        W43203   8.891  17.192  12.353
74874W        W43204  41.386   2.416  13.324
74875W        W43205  23.730  25.986   1.705
74876W        W43206  34.611   5.324   0.398
74877W        W43207  19.618  31.120   0.965
74878W        W43208  18.676  41.425  11.520
74879W        W43209   6.250  25.211   2.236
74880W        W43210  36.074   0.804   3.379
74881W        W43211  22.518   3.807  11.381
74882W        W43212  11.261   7.754  10.982
74883W        W43213   4.714  36.967   4.232
74884W        W43214  26.600  39.484   2.357
74885W        W43215   4.215   0.431   3.385
74886W        W43216  39.416  38.054   0.922
74887W        W43217  34.501   3.747   1.252
74888W        W43218  30.645  38.007   3.272
74889W        W43219   8.900  11.853  11.476
74890W        W43220  16.625  16.576  11.581
74891W        W43221   6.750   2.410  13.061
74892W        W43222  22.656  13.230  12.081
74893W        W43223  12.346  31.575  14.299
74894W        W43224  44.427  29.561  11.408
74895W        W43225  31.141  19.237   1.365
74896W        W43226  16.748  44.776  12.839
74897W        W43227   0.788  13.622  10.474
74898W        W43228  42.447  35.082   0.261
74899W        W43229  28.144  28.493   2.901
74900W        W43230   2.775  18.237  10.577
74901W        W43231  29.104  21.613   3.732
74902W        W43232  44.405  29.164   2.369
74903W        W43233  17.697   8.268   3.784
74904W        W43234  41.952  12.800   2.361
74905W        W43235   1.471  31.117   3.864
74906W        W43236  23.148  18.291   1.905
74907W        W43237  22.534  35.549   0.937
74908W        W43238  33.595  41.873  13.868
74909W        W43239   8.206  10.316  13.937
74910W        W43240  33.533  30.115   3.867
74911W        W43241   0.839  17.722  10.895
74912W        W43242  22.220  14.324   0.354
74913W        W43243   9.705  11.815   0.926
74914W        W43244   7.884  30.493  13.937
74915W        W43245  28.608  21.253  10.055
74916W        W43246   5.835  34.568   2.774
74917W        W43247  39.046  42.346   1.297
74918W        W43248   9.346   2.895  12.838
74919W        W43249  30.557   4.725   3.728
74920W        W43250  41.905   8.712  11.029
74921W        W43251  28.438  26.154   2.678
74922W        W43252   7.284  25.574   2.856
74923W        W43253  24.998   5.353  14.834
74924W        W43254  38.902  17.269  11.577
74925W        W43255  26.100  17.798  10.539
74926W        W43256  36.938  13.751   1.907
74927W        W43257  25.675  32.589  12.082
74928W        W43258  13.760  22.180  14.830
74929W        W43259  12.848  27.475   2.286
74930W        W43260  44.983  26.600  11.074
74931W        W43261   8.752  27.684   1.817
74932W        W43262  44.383  42.027   0.303
74933W        W43263  19.654  40.309   1.734
74934W        W43264  36.942  37.042   1.806
74935W        W43265  32.397  16.135  12.989
74936W        W43266  27.596  23.160  13.905
74937W        W43267  43.011  23.608  13.885
74938W        W43268   9.889   4.362   2.835
74939W        W43269  21.141  18.240  14.943
74940W        W43270  31.595  21.563   4.236
74941W        W43271  19.625   6.777   1.723
74942W        W43272  39.520  22.239   2.295
74943W        W43273  35.596  10.711  10.585
74944W        W43274  30.447  14.193   1.849
74945W        W43275  32.588  35.029   1.304
74946W        W43276  16.313  36.023  10.912
74947W        W43277  26.202  18.769   1.378
74948W        W43278  41.971  36.883  14.362
74949W        W43279  42.377  43.901  11.982
74950W        W43280  20.225   3.823  11.596
74951W        W43281  14.110  29.937  14.882
74952W        W43282   4.273  25.646  10.987
74953W        W43283  13.160   3.856   0.921
74954W        W43284  13.712   7.243   3.831
74955W        W43285  32.491  39.370   2.290
74956W        W43286   8.213  25.525  14.333
74957W        W43287  21.635   2.380   1.285
74958W        W43288  23.702  36.554   4.664
74959W        W43289  35.598   3.740   4.799
74960W        W43290  17.176   0.983   3.224
74961W        W43291  20.099  23.143  14.821
74962W        W43292  27.194  40.304   2.800
74963W        W43293  40.452  25.983   1.426
74964W        W43294  27.505   9.315  12.030
74965W        W43295  20.088  23.506  10.591
74966W        W43296  11.819  44.778   1.851
74967W        W43297   7.314  15.141   0.915
74968W        W43298   8.710  38.412   2.716
74969W        W43299  34.910  44.906  12.437
74970W        W43300  15.686   7.862  11.123
74971W        W43301  27.667   0.820   0.428
74972W        W43302  28.019   1.238   4.302
74973W        W43303  40.461  31.622  10.995
74974W        W43304  22.601  41.858  11.061
74975W        W43305  20.560  38.029   4.702
74976W        W43306  14.133   8.232   2.220
74977W        W43307   6.407  27.485   2.346
74978W        W43308  12.345   6.783  12.092
74979W        W43309   2.912  17.253  14.828
74980W        W43310  24.690   7.770   4.268
74981W        W43311  12.811   1.952   3.777
74982W        W43312  41.311  22.590  11.037
74983W        W43313  33.448   9.831   0.255
74984W        W43314  27.650  23.157   0.410
74985W        W43315  25.111  14.609  13.031
74986W        W43316  34.541  37.546  10.095
74987W        W43317   5.357  18.225  11.029
74988W        W43318  15.607  33.615   1.404
74989W        W43319  12.813  36.049   1.793
74990W        W43320   5.896   3.809  11.022
74991W        W43321  21.541  32.544   1.833
74992W        W43322  28.932  37.473  12.090
74993W        W43323   9.698  24.123  14.470
74994W        W43324  17.172  39.471   1.319
74995W        W43325  35.523  11.674  12.959
74996W        W43326   7.889  30.011  14.509
74997W        W43327   8.697  20.640   9.980
74998W        W43328  16.171  23.591   4.632
74999W        W43329  38.497  12.742  11.032
75000W        W43330  14.687  36.922  10.951
75001W        W43331  35.503  37.899   1.757
75002W        W43332   5.387  43.850   4.172
75003W        W43333  42.854   8.888  14.903
75004W        W43334   1.829   2.829  13.345
75005W        W43335   0.939  16.664   2.418
75006W        W43336   6.823   8.383   1.837
75007W        W43337   4.723  44.436   3.712
75008W        W43338  11.852  33.478   1.322
75009W        W43339  38.906  24.655   4.615
75010W        W43340  10.213  35.861  10.404
75011W        W43341  16.592  14.126  14.284
75012W        W43342  10.349   8.296  14.995
75013W        W43343   5.421  10.139  10.039
75014W        W43344   1.737  31.946   2.279
75015W        W43345  33.887  38.531   0.263
75016W        W43346  21.572  26.071  10.643
75017W        W43347  28.476  30.551   5.231
75018W        W43348  18.072  13.667  12.463
75019W        W43349  34.108  29.979  13.999
75020W        W43350  33.087   1.805  11.093
75021W        W43351  27.154  34.445  12.384
75022W        W43352  43.841  30.048  12.538
75023W        W43353  21.594   6.824  11.042
75024W        W43354  26.954  43.915   0.748
75025W        W43355  39.044  39.870  14.868
75026W        W43356   1.388   5.874   1.323
75027W        W43357   4.234  44.385  13.450
75028W        W43358  15.171  44.477  12.479
75029W        W43359  26.973   9.257  11.038
75030W        W43360  17.266  32.113  13.476
75031W        W43361  41.348  19.278  14.317
75032W        W43362  15.126  34.989  12.938
75033W        W43363  15.677   4.936  10.531
75034W        W43364   4.863  31.041   3.869
75035W        W43365  21.055   8.822   1.840
75036W        W43366  17.131   3.436  13.849
75037W        W43367  24.083  44.366   1.707
75038W        W43368  22.604  34.389   0.275
75039W        W43369  17.784   5.244   3.271
75040W        W43370   8.327  33.462  11.113
75041W        W43371  32.018  21.669   1.857
75042W        W43372  14.596  37.917   9.582
75043W        W43373  27.166  27.684  11.955
75044W        W43374  34.595   8.251   1.934
75045W        W43375  30.935  18.216   1.710
75046W        W43376  29.586  20.686  13.993
75047W        W43377  22.593  36.882   3.792
75048W        W43378   9.802  32.051  13.348
75049W        W43379   9.800  22.015  12.437
75050W        W43380  13.351   4.936  14.772
75051W        W43381  37.004  18.163   3.808
75052W        W43382  37.467  41.965  12.842
75053W        W43383  37.561  10.205  13.358
75054W        W43384  24.685  23.538  12.415
75055W        W43385  13.159  18.763   2.284
75056W        W43386  43.471  44.997  10.596
75057W        W43387  19.174  30.994  14.997
75058W        W43388  24.623  14.613   1.220
75059W        W43389  29.655  15.795  12.053
75060W        W43390  37.500   6.908   3.351
75061W        W43391   2.943   2.943   0.967
75062W        W43392  42.995  11.195   2.728
75063W        W43393  17.600  29.511   3.790
75064W        W43394  20.241  21.725  11.064
75065W        W43395  42.342  16.252   3.157
75066W        W43396   8.752  12.208  13.375
75067W        W43397  24.179  16.593   4.790
75068W        W43398  33.392  39.033   0.357
75069W        W43399   9.262  21.596   2.385
75070W        W43400   3.316  24.672  12.565
75071W        W43401  34.964  26.472   0.394
75072W        W43402  41.849  38.836   4.163
75073W        W43403  29.583  15.088  14.993
75074W        W43404  44.789  31.959  10.643
75075W        W43405  38.499  21.231  14.854
75076W        W43406  16.733   0.827  12.346
75077W        W43407  24.600  42.505  14.466
75078W        W43408  36.411  11.727  11.475
75079W        W43409  42.493   2.922   1.276
75080W        W43410   2.378  33.480   2.250
75081W        W43411   0.300  25.530   2.330
75082W        W43412  40.814   8.355  12.361
75083W        W43413  42.776  31.566  14.467
75084W        W43414  43.454  30.643  14.902
75085W        W43415  15.685  29.963   0.335
75086W        W43416   2.773  36.461   3.348
75087W        W43417   3.337  21.532   4.620
75088W        W43418   9.649  10.165   3.660
75089W        W43419  10.798  23.094   3.170
75090W        W43420   2.808  38.391   3.226
75091W        W43421  42.406  27.611   3.280
75092W        W43422  12.294  36.045   3.864
75093W        W43423  19.067  20.713   4.702
75094W        W43424  19.533  27.003  10.914
75095W        W43425   2.856  18.707  13.021
75096W        W43426  43.382  34.023  13.991
75097W        W43427   7.872  25.109  13.364
75098W        W43428   5.246  29.080  10.514
75099W        W43429  31.041  25.048  12.883
75100W        W43430  28.503  29.146  12.358
75101W        W43431  23.598  28.576  14.285
75102W        W43432  35.986  24.174  14.762
75103W        W43433   5.850  29.594  12.081
75104W        W43434  43.769  24.085  14.499
75105W        W43435  18.696  34.047   1.825
75106W        W43436  10.803   4.741   2.386
75107W        W43437  43.294   1.852  13.415
75108W        W43438  36.997  23.690   0.806
75109W        W43439  43.775  39.047   2.834
75110W        W43440  11.233  20.614  13.842
75111W        W43441   3.382   8.867  10.968
75112W        W43442  37.542  17.301   5.252
75113W        W43443  16.209  29.083   3.794
75114W        W43444  26.619  12.197   4.176
75115W        W43445   2.267  41.828  13.393
75116W        W43446  42.471  12.237   1.247
75117W        W43447  11.686  21.124  13.992
75118W        W43448  29.643   8.756  12.367
75119W        W43449   6.277  37.988  11.412
75120W        W43450  30.044  18.769   4.704
75121W        W43451  29.620  10.200   0.799
75122W        W43452  15.303  23.586   1.777
75123W        W43453  41.385  44.345  14.389
75124W        W43454   9.751  11.358   4.271
75125W        W43455  43.802  14.256  11.497
75126W        W43456  11.813  12.248  11.013
75127W        W43457   0.806  24.989   0.862
75128W        W43458  29.935  36.407  13.487
75129W        W43459   5.269  41.910   2.334
75130W        W43460  34.503   7.233   1.845
75131W        W43461   5.913  35.570  11.880
75132W        W43462  43.450  32.955   0.293
75133W        W43463  30.963   0.801  10.990
75134W        W43464  26.685  38.536  14.286
75135W        W43465  29.001  37.508  14.777
75136W        W43466  17.161  39.466   3.738
75137W        W43467  30.610  25.514  13.416
75138W        W43468  29.033  17.123   4.189
75139W        W43469  17.641   1.754   4.307
75140W        W43470   7.800  27.966  11.116
75141W        W43471  13.795  12.279   3.798
75142W        W43472  16.606  12.306   4.231
75143W        W43473  40.507  24.126   4.768
75144W        W43474   7.742  39.493  12.023
75145W        W43475   5.258  37.882   1.783
75146W        W43476  18.701  21.675   4.156
75147W        W43477  37.887  33.608   0.802
75148W        W43478  13.290  22.683  12.855
75149W        W43479   2.282  22.053   2.731
75150W        W43480   1.783  23.553  14.306
75151W        W43481  29.973  35.544   1.315
75152W        W43482   2.238   3.437  12.845
75153W        W43483  27.986  44.418   3.869
75154W        W43484  30.614  36.396  13.047
75155W        W43485  25.187   1.800   1.331
75156W        W43486   5.691  31.001  13.852
75157W        W43487   2.394  26.608   1.336
75158W        W43488  35.400  10.660  14.450
75159W        W43489  13.767   4.301   0.739
75160W        W43490  19.148  19.222   1.764
75161W        W43491  26.130  21.651   3.208
75162W        W43492   7.348   0.365   2.293
75163W        W43493  27.097   0.419  10.953
75164W        W43494  34.875  22.653  14.848
75165W        W43495   0.760  42.415  12.533
75166W        W43496  35.525  38.031   3.824
75167W        W43497   6.897  35.086  13.910
75168W        W43498  30.985  18.650  12.830
75169W        W43499  37.560  36.016   1.752
75170W        W43500  17.116  43.862  11.907
75171W        W43501  41.422  41.333   3.225
75172W        W43502   1.833  21.136  12.834
75173W        W43503  24.201  10.780  11.910
75174W        W43504  40.353   6.206   1.355
75175W        W43505  12.205  43.970  10.600
75176W        W43506  16.792  37.967   0.479
75177W        W43507  16.615   9.889  10.640
75178W        W43508  38.357  23.558   4.280
75179W        W43509   8.808  11.230   1.426
75180W        W43510  35.977  39.442  13.970
75181W        W43511  16.716  20.647  14.841
75182W        W43512  43.362  26.583   3.863
75183W        W43513  13.298  29.071   4.774
75184W        W43514   1.382  38.015   3.671
75185W        W43515   9.196  17.678   4.136
75186W        W43516  13.788  10.197  12.927
75187W        W43517  23.539   7.258   0.952
75188W        W43518  37.389  37.898   4.157
75189W        W43519  18.285  15.119  12.854
75190W        W43520   9.340   9.381  12.055
75191W        W43521   5.720  14.793   2.221
75192W        W43522  44.952  37.047  11.113
75193W        W43523   3.304  31.054  11.451
75194W        W43524  23.032  26.692   4.218
75195W        W43525  38.023  14.221  13.358
75196W        W43526  33.914  28.540   2.888
75197W        W43527  22.672  35.515   1.732
75198W        W43528  28.016  42.431   3.378
75199W        W43529  28.526  29.115  10.927
75200W        W43530  10.797   2.342  14.515
75201W        W43531   0.903  34.565   2.362
75202W        W43532   6.242  21.738  11.072
75203W        W43533  31.916  42.987   3.719
75204W        W43534  21.174  35.385  10.949
75205W        W43535  23.086   1.431   4.327
75206W        W43536   6.766  40.022  10.582
75207W        W43537   6.234   7.269   0.385
75208W        W43538  43.895  26.111   3.666
75209W        W43539  38.560  12.201   4.614
75210W        W43540   2.894   0.940   2.207
75211W        W43541  35.389  31.427   3.721
75212W        W43542  15.317   3.908  11.507
75213W        W43543  14.709  17.161   0.825
75214W        W43544  17.195  20.270   3.353
75215W        W43545   4.360  42.407   2.259
75216W        W43546  20.091  38.428  12.879
75217W        W43547  26.460  13.295  11.053
75218W        W43548   0.903  20.190   2.780
75219W        W43549   8.197  40.426  13.017
75220W        W43550  28.056  12.674   2.672
75221W        W43551  11.249  15.689   0.385
75222W        W43552  10.178  26.591   5.136
75223W        W43553   1.374  30.107   0.761
75224W        W43554  36.462   8.255  11.004
75225W        W43555  31.499  18.134  12.964
75226W        W43556   2.350  33.011  13.009
75227W        W43557  33.553   7.395  13.886
75228W        W43558   1.735  33.402   3.312
75229W        W43559  13.248  15.594   2.800
75230W        W43560  16.098  26.164  11.898
75231W        W43561  30.561  41.788   0.461
75232W        W43562  36.071  18.743  14.464
75233W        W43563   7.816  33.885  12.095
75234W        W43564  17.102  14.097   5.183
75235W        W43565  35.410  34.421  13.365
75236W        W43566  13.745  41.527   3.281
75237W        W43567  30.011   6.870  11.887
75238W        W43568  12.653   3.746  13.479
75239W        W43569  41.007  26.498   3.818
75240W        W43570   8.809  23.725  14.768
75241W        W43571   1.281  24.589  14.759
75242W        W43572  42.501  17.141   1.259
75243W        W43573  36.459  11.261   1.352
75244W        W43574  11.689  24.484   4.694
75245W        W43575   2.800   7.248  11.906
75246W        W43576   1.863   9.784   3.150
75247W        W43577  41.831  36.852  13.401
75248W        W43578  39.323  21.538  14.019
75249W        W43579  38.514  12.139   3.339
75250W        W43580  43.289  20.194  10.948
75251W        W43581  38.437  43.379  12.557
75252W        W43582  29.574  32.084   0.453
75253W        W43583  36.414  19.747  14.764
75254W        W43584  20.043  23.591  11.546
75255W        W43585  25.039   0.854   2.877
75256W        W43586  39.836  43.899   3.791
75257W        W43587  36.963  18.265   4.275
75258W        W43588   6.739  44.847   4.745
75259W        W43589  29.923  37.940   2.178
75260W        W43590   0.753  29.447  10.519
75261W        W43591  38.565  18.546  12.902
75262W        W43592  39.408  16.763  11.907
75263W        W43593  35.959  18.677  13.963
75264W        W43594  17.140  44.910  13.460
75265W        W43595   2.288  37.936  12.443
75266W        W43596  33.403  31.412  13.991
75267W        W43597   4.732  35.402   5.126
75268W        W43598  40.331   8.894  12.395
75269W        W43599  40.865  43.818  10.508
75270W        W43600  22.051  10.324   5.723
75271W        W43601  42.822  35.432  12.546
75272W        W43602  38.841  12.148  14.413
75273W        W43603  43.966  10.842   3.344
75274W        W43604  44.493  34.976  13.912
75275W        W43605  32.006   1.327  14.370
75276W        W43606  20.658  38.965   1.219
75277W        W43607  36.562   8.256   1.300
75278W        W43608   2.462   0.255   0.914
75279W        W43609  25.011  40.033   3.850
75280W        W43610  16.281  34.119   2.793
75281W        W43611   0.408  23.099  14.449
75282W        W43612  40.872  12.744  12.845
75283W        W43613  43.296  26.657   4.326
75284W        W43614  31.516  26.525  12.885
75285W        W43615   2.831  20.587  14.288
75286W        W43616  13.321  28.151  10.010
75287W        W43617  19.181  21.698   4.134
75288W        W43618   5.335  30.444  13.438
75289W        W43619   0.319  36.854  13.447
75290W        W43620  26.574  32.574  14.954
75291W        W43621  19.213  20.070   3.634
75292W        W43622  18.635  33.518   2.864
75293W        W43623  35.041  30.518   4.803
75294W        W43624  44.853  34.091   0.778
75295W        W43625  33.095  13.799  11.564
75296W        W43626   5.394  11.168  11.888
75297W        W43627  23.622   2.360   2.368
75298W        W43628  38.910  15.776  11.108
75299W        W43629  31.095  28.124  10.608
75300W        W43630  17.752  16.630   4.706
75301W        W43631  40.031  20.193  14.830
75302W        W43632  10.779  16.311  14.444
75303W        W43633  30.090  27.447  12.907
75304W        W43634  21.661  31.104   5.758
75305W        W43635   9.645   0.941   4.817
75306W        W43636   0.811  10.320   1.742
75307W        W43637  31.036  11.366  14.277
75308W        W43638  13.320  39.922  14.358
75309W        W43639   1.839  31.477  10.593
75310W        W43640  37.353  38.880   0.479
75311W        W43641  13.131  15.759   1.326
75312W        W43642  11.715  43.778   2.189
75313W        W43643   6.833  32.553  12.938
75314W        W43644  20.034  16.633   1.297
75315W        W43645  20.580  14.101   3.161
75316W        W43646  36.404   6.807  13.049
75317W        W43647  42.008  12.705  14.819
75318W        W43648  17.200  43.830  13.870
75319W        W43649  20.638  23.159   0.812
75320W        W43650   4.732  29.072  11.096
75321W        W43651  36.508  16.650  12.858
75322W        W43652  19.244  27.023  13.537
75323W        W43653  30.607  28.472   3.178
75324W        W43654  21.222  22.661  14.772
75325W        W43655  16.726  15.161   2.259
75326W        W43656  23.085   7.749  13.487
75327W        W43657  29.669   1.823  13.432
75328W        W43658  29.937  28.996  12.421
75329W        W43659  16.078  13.132   0.320
75330W        W43660  41.911   1.469  12.957
75331W        W43661  30.076   2.434  13.375
75332W        W43662  29.512   1.813  12.867
75333W        W43663  17.709  37.528  11.433
75334W        W43664  15.721   0.398   0.413
75335W        W43665  11.152   6.348  12.576
75336W        W43666  10.167  32.580   4.717
75337W        W43667  35.895  27.518  10.619
75338W        W43668  19.125  26.674   2.882
75339W        W43669  20.572  19.723   5.154
75340W        W43670  11.166   6.387  11.004
75341W        W43671   6.704  28.530  11.562
75342W        W43672   7.263  43.885   1.798
75343W        W43673  43.914  31.471   3.681
75344W        W43674  21.218  21.189  13.818
75345W        W43675  29.601   0.288   1.846
75346W        W43676  41.443  15.665   4.679
75347W        W43677  14.657  32.012  10.516
75348W        W43678  31.447  15.624   3.814
75349W        W43679  27.019   1.932  14.998
75350W        W43680  27.626  12.218  14.365
75351W        W43681  20.150   8.284   1.382
75352W        W43682  10.873  22.581  13.543
75353W        W43683   6.331  14.721   3.170
75354W        W43684   0.323  44.872  10.539
75355W        W43685  10.229   1.321   3.304
75356W        W43686  27.459  15.679   4.756
75357W        W43687  44.321  13.107   3.866
75358W        W43688  21.560  11.338   0.785
75359W        W43689  37.433  18.063  11.964
75360W        W43690  28.099  40.829   3.734
75361W        W43691  44.314   8.694  12.072
75362W        W43692  30.084  11.362  14.337
75363W        W43693  31.995  16.263   0.371
75364W        W43694  31.534  17.709  10.521
75365W        W43695  28.441   8.898   1.742
75366W        W43696  19.215  21.260   2.804
75367W        W43697  44.460  18.674  13.430
75368W        W43698   2.822  30.462  11.863
75369W        W43699  19.130  12.724  13.811
75370W        W43700  35.048   9.313   4.640
75371W        W43701  12.756   2.406   0.832
75372W        W43702  36.348  23.147   1.826
75373W        W43703  33.980  12.286   4.178
75374W        W43704   4.865  44.480  11.016
75375W        W43705  40.512  23.043  13.432
75376W        W43706  30.078  40.348  14.338
75377W        W43707  12.852  42.799  12.879
75378W        W43708  18.248  15.165   2.762
75379W        W43709  22.209  17.182  11.977
75380W        W43710  28.471  31.611   9.436
75381W        W43711  29.557  36.977   0.343
75382W        W43712   6.323  35.489   2.211
75383W        W43713  32.495  16.745  11.456
75384W        W43714  39.330  16.719   3.279
75385W        W43715   4.869  37.837   2.416
75386W        W43716  14.327  15.251  12.535
75387W        W43717  11.269  34.924  12.970
75388W        W43718  29.470  18.166  11.977
75389W        W43719  15.688  33.607  12.966
75390W        W43720  35.560  39.865  11.416
75391W        W43721   8.386   9.794  12.890
75392W        W43722  16.080   2.438  12.916
75393W        W43723  12.253  12.622  12.423
75394W        W43724  25.028   3.953  10.478
75395W        W43725  22.569   5.713   2.698
75396W        W43726   0.435  41.871  10.959
75397W        W43727  35.392  10.878  13.893
75398W        W43728  15.289  15.772   2.410
75399W        W43729  26.022   0.774  14.836
75400W        W43730  15.613  22.247  14.443
75401W        W43731  18.712  40.351  14.347
75402W        W43732  43.847  40.432  11.124
75403W        W43733  10.253  12.276   0.440
75404W        W43734  32.066   8.255   2.388
75405W        W43735  26.636  11.770   1.732
75406W        W43736  40.995   7.778   4.222
75407W        W43737  39.990  26.590  12.465
75408W        W43738  32.093  33.880  14.378
75409W        W43739   3.714   5.743   0.294
75410W        W43740  23.610  43.997   1.751
75411W        W43741  41.404  40.356  13.319
75412W        W43742  17.120   0.907  11.968
75413W        W43743  43.400   8.670   1.726
75414W        W43744  28.176  37.933   4.603
75415W        W43745  43.506  43.513   2.843
75416W        W43746  38.893  15.140  10.946
75417W        W43747  22.201  11.826  13.515
75418W        W43748  42.836  41.434   4.655
75419W        W43749  24.038  30.094   1.291
75420W        W43750  37.984  38.999   2.832
75421W        W43751  37.064  28.622  10.521
75422W        W43752  14.160  23.130   4.819
75423W        W43753  38.382   8.901  12.011
75424W        W43754  11.728  41.847  14.416
75425W        W43755   4.440  34.519  10.521
75426W        W43756  13.225  23.562  10.055
75427W        W43757  37.362  29.561   3.340
75428W        W43758   6.190  24.640   4.351
75429W        W43759   0.371   9.389   4.772
75430W        W43760  33.385   3.376  12.042
75431W        W43761  26.692  23.726   0.406
75432W        W43762  19.733  42.839   0.936
75433W        W43763   3.860  36.377   4.220
75434W        W43764   2.364  13.745   2.894
75435W        W43765  19.048   3.765   1.925
75436W        W43766  32.909  44.274   4.697
75437W        W43767  20.103  18.614  10.526
75438W        W43768  34.527  25.218  14.370
75439W        W43769  25.148   0.489  12.352
75440W        W43770   6.809  43.468  14.327
75441W        W43771  23.550   0.884  13.837
75442W        W43772  42.820   0.878   0.831
75443W        W43773  35.008  19.640   0.867
75444W        W43774  26.667  22.616  14.515
75445W        W43775  34.511  44.343   3.216
75446W        W43776   0.277   4.721  11.067
75447W        W43777   2.342  44.273   5.265
75448W        W43778  40.828   5.887   1.866
75449W        W43779  26.661   8.742   1.420
75450W        W43780  26.110  25.615   0.864
75451W        W43781   0.911   3.320   2.244
75452W        W43782  27.998  34.601  12.041
75453W        W43783  19.667  21.135   1.736
75454W        W43784  41.484  12.720   1.718
75455W        W43785   5.294  29.653   2.254
75456W        W43786  39.861  40.029  12.411
75457W        W43787  16.791   3.825   0.274
75458W        W43788  12.737  35.577  14.863
75459W        W43789  10.856  32.928   1.729
75460W        W43790   0.398  30.155   0.384
75461W        W43791   3.317  36.912   2.847
75462W        W43792  35.897  40.437   1.868
75463W        W43793  18.605   4.354   1.695
75464W        W43794  19.570  26.624  14.015
75465W        W43795  40.544   4.781   2.857
75466W        W43796  37.425  42.026  10.627
75467W        W43797  42.297  21.689   0.276
75468W        W43798   7.357  26.203  12.998
75469W        W43799   8.655  20.124  11.936
75470W        W43800  25.132  29.436  13.437
75471W        W43801  32.097  25.198   3.295
75472W        W43802  39.816   2.448  11.009
75473W        W43803  16.318  32.464  11.416
75474W        W43804  25.594  17.653   3.298
75475W        W43805   2.738   7.718   3.808
75476W        W43806  39.415  17.776  10.581
75477W        W43807  35.883  34.056   4.771
75478W        W43808   9.715  44.383   3.353
75479W        W43809  41.862  13.224  11.982
75480W        W43810   8.339   0.877   2.256
75481W        W43811  36.571  18.252   4.814
75482W        W43812  43.372  27.159   4.830
75483W        W43813  16.618  37.883  10.528
75484W        W43814  11.856   2.390   2.770
75485W        W43815  42.472  21.580   2.303
75486W        W43816  26.089  30.010   1.779
75487W        W43817  15.264  13.774   1.241
75488W        W43818  20.628  26.601   5.161
75489W        W43819   2.299  38.410   0.832
75490W        W43820   4.772   4.758  14.316
75491W        W43821  17.287  10.229  13.063
75492W        W43822  31.515  14.711  12.461
75493W        W43823  41.452  11.237  13.870
75494W        W43824  31.107  10.713  13.933
75495W        W43825  37.883  33.436  12.366
75496W        W43826  41.536  30.544   4.812
75497W        W43827  38.865   2.923  13.346
75498W        W43828  31.136  16.168  12.413
75499W        W43829   6.711   6.708   1.742
75500W        W43830  36.395  41.387  12.872
75501W        W43831  24.006  10.343  14.325
75502W        W43832  38.517   2.803  10.532
75503W        W43833  11.257   8.735   3.744
75504W        W43834  14.209  39.534   3.769
75505W        W43835  34.389  25.011  10.896
75506W        W43836  33.514  43.452  13.058
75507W        W43837  18.703  44.327  12.350
75508W        W43838   2.458  21.692   0.399
75509W        W43839  31.945  36.347   2.807
75510W        W43840   3.789  43.880  11.878
75511W        W43841  23.650   3.381   3.671
75512W        W43842  11.280  44.421   4.697
75513W        W43843   6.903  28.553  14.771
75514W        W43844  10.340  21.739   2.814
75515W        W43845   5.742  30.928  10.973
75516W        W43846  21.046  33.389  11.441
75517W        W43847  10.379  34.974  13.971
75518W        W43848  43.451   2.760  12.449
75519W        W43849  10.722   7.791   3.319
75520W        W43850  28.131  34.062  10.599
75521W        W43851  31.510  10.190   2.753
75522W        W43852  27.152  13.245  11.492
75523W        W43853  17.731   9.171  10.940
75524W        W43854   9.266   6.287   1.788
75525W        W43855  24.202  32.449   0.746
75526W        W43856   0.839  44.460   1.809
75527W        W43857  12.198  15.252  12.572
75528W        W43858  24.491  34.995  12.086
75529W        W43859   9.294   3.396  12.418
75530W        W43860   4.348  31.641   2.377
75531W        W43861  41.431  15.696  13.345
75532W        W43862   9.222  35.028   3.216
75533W        W43863  12.833  35.568   0.749
75534W        W43864  44.990   2.404  13.516
75535W        W43865   4.713  28.462  10.066
75536W        W43866   0.489  18.682   1.735
75537W        W43867  14.267  34.540   2.287
75538W        W43868   8.859  26.130   2.219
75539W        W43869  44.907  18.665  12.353
75540W        W43870  40.347  21.641  10.925
75541W        W43871   0.331   5.756  13.462
75542W        W43872  28.096   9.348   4.336
75543W        W43873   1.368  27.016  11.602
75544W        W43874  11.160  42.287   0.363
75545W        W43875  37.940   2.741  12.515
75546W        W43876  41.968  16.119  14.454
75547W        W43877  38.519  25.683  11.389
75548W        W43878   5.726   3.259  13.447
75549W        W43879  19.730  27.550  14.464
75550W        W43880  27.473  16.581  10.623
75551W        W43881  33.453   9.262   1.292
75552W        W43882  39.004  29.055  12.406
75553W        W43883  34.932  22.692   2.418
75554W        W43884  38.866  24.684  13.996
75555W        W43885  28.461  39.824   1.434
75556W        W43886  11.287  37.457  12.969
75557W        W43887   0.939  36.387   3.221
75558W        W43888  19.591  10.307  14.920
75559W        W43889  36.912   8.291   4.642
75560W        W43890  36.403   9.310   3.762
75561W        W43891  43.433  41.483  11.936
75562W        W43892  12.129  20.188  11.868
75563W        W43893  14.677  22.524   9.970
75564W        W43894  27.181  44.278   0.906
75565W        W43895  21.617  36.060  10.493
75566W        W43896  39.020  44.417   4.139
75567W        W43897   1.873  15.678   9.980
75568W        W43898  18.267   3.309   1.915
75569W        W43899  19.095  32.553  14.904
75570W        W43900  16.090   8.292  13.014
75571W        W43901   1.336  18.617   0.324
75572W        W43902   3.349  19.666  14.338
75573W        W43903  23.552  15.165  11.911
75574W        W43904  19.715  11.224  11.867
75575W        W43905  26.013   0.784  11.048
75576W        W43906  21.106  26.536   1.887
75577W        W43907  11.717  43.850  14.331
75578W        W43908  16.274  30.494   0.407
75579W        W43909  39.954  22.056   0.258
75580W        W43910  20.604  18.234  14.933
75581W        W43911  19.083   0.931  14.914
75582W        W43912   3.220  20.270   2.220
75583W        W43913  41.301  16.306  13.913
75584W        W43914  24.106  29.613   1.911
75585W        W43915  21.162   2.905  11.991
75586W        W43916  14.812  33.007  11.403
75587W        W43917  21.668  24.133  10.420
75588W        W43918  37.935  11.784   0.917
75589W        W43919  28.509  35.526   4.346
75590W        W43920   2.244  37.086  14.795
75591W        W43921  40.456  20.665  12.026
75592W        W43922  24.649  37.860  11.463
75593W        W43923  15.760  29.483  13.914
75594W        W43924  20.696  12.201   4.819
75595W        W43925  35.532   9.746   2.902
75596W        W43926  44.991  35.975  11.992
75597W        W43927   2.752  43.909   1.217
75598W        W43928   5.895  18.247  10.424
75599W        W43929   2.268  20.165   2.197
75600W        W43930  44.356   7.224  14.896
75601W        W43931  24.705  13.632  13.520
75602W        W43932  14.678   1.239   1.374
75603W        W43933  25.992  16.770  13.919
75604W        W43934  21.255   8.346   1.224
75605W        W43935  16.612  28.015  13.800
75606W        W43936   4.216  35.020   3.653
75607W        W43937   4.863  40.400   1.809
75608W        W43938   0.404  17.070   4.176
75609W        W43939   5.906   8.780  14.350
75610W        W43940  25.126  34.022  12.067
75611W        W43941  32.077  17.065  13.508
75612W        W43942  26.041  31.114  13.835
75613W        W43943  12.835  33.945   3.157
75614W        W43944  24.174  44.977   4.243
75615W        W43945   7.777  20.669  11.558
75616W        W43946  38.394  19.562  11.967
75617W        W43947   4.360  10.646   2.301
75618W        W43948  22.624  22.117   4.710
75619W        W43949   4.785  40.476   4.744
75620W        W43950  17.777  34.401   2.763
75621W        W43951   7.355  20.226  12.931
75622W        W43952  37.833  27.585   2.213
75623W        W43953   6.733  29.114  10.616
75624W        W43954  38.007  43.302  10.983
75625W        W43955  22.537   2.228  10.955
75626W        W43956   7.879  22.067   0.369
75627W        W43957  24.122  36.096  10.973
75628W        W43958  24.550  28.942  12.551
75629W        W43959   1.384  26.607  13.383
75630W        W43960  24.003  17.663  12.427
75631W        W43961  38.882  39.516   0.764
75632W        W43962  18.702  37.535  12.347
75633W        W43963  30.504  41.407   1.841
75634W        W43964  19.251  31.063  10.984
75635W        W43965  43.348  41.984   4.645
75636W        W43966  12.343  43.463  11.488
75637W        W43967  28.144  33.073  13.312
75638W        W43968  23.990  13.168  12.837
75639W        W43969  30.537  25.512   3.146
75640W        W43970  19.554  36.011   3.217
75641W        W43971   3.337  28.535  13.494
75642W        W43972  10.302  25.157  10.088
75643W        W43973  30.996   0.248   1.837
75644W        W43974   7.224  24.019  13.977
75645W        W43975   4.320  40.958  11.505
75646W        W43976  21.528  38.911  13.479
75647W        W43977   5.238  22.535  11.125
75648W        W43978  27.633  12.201  11.078
75649W        W43979  41.501  12.238  14.831
75650W        W43980  42.826   2.758   4.643
75651W        W43981  44.943  14.779   1.834
75652W        W43982   7.277  14.226   4.781
75653W        W43983  18.231  23.190  14.438
75654W        W43984   6.326  25.207  11.610
75655W        W43985  12.750  33.515  14.864
75656W        W43986  35.909  44.917  10.478
75657W        W43987  43.902   8.303   3.361
75658W        W43988  37.960  32.994   2.345
75659W        W43989  16.104  44.319   4.303
75660W        W43990   8.747  26.071   3.844
75661W        W43991   3.253  25.543   1.781
75662W        W43992  31.129  19.207  12.525
75663W        W43993  39.059   4.738   5.122
75664W        W43994  14.735  43.331   1.418
75665W        W43995  40.416   6.827   1.285
75666W        W43996  10.724  14.657  14.898
75667W        W43997   4.766  25.675   3.155
75668W        W43998  26.509  22.564   2.284
75669W        W43999  10.271  38.474   3.795
75670W        W44000  16.285  28.436   2.710
75671W        W44001   3.303  19.717  11.480
75672W        W44002  12.824  13.139  11.125
75673W        W44003  12.675  25.673   4.265
75674W        W44004  37.383  38.384   4.328
75675W        W44005  27.648  35.372   4.667
75676W        W44006  11.167  42.940  11.487
75677W        W44007   1.436  12.285   2.274
75678W        W44008  38.479  29.456  12.008
75679W        W44009  38.930  44.934   1.266
75680W        W44010  43.383  42.320   1.262
75681W        W44011  35.059  28.534   4.665
75682W        W44012  13.741  35.486  10.457
75683W        W44013  11.203  29.012   3.747
75684W        W44014  24.676  28.549   3.192
75685W        W44015  37.448  35.997  12.481
75686W        W44016  37.045  14.767  10.521
75687W        W44017  30.095  42.780  12.970
75688W        W44018  36.965  34.582  14.985
75689W        W44019  38.996  39.406   2.240
75690W        W44020  12.163  43.465   3.293
75691W        W44021  17.215  20.217  12.479
75692W        W44022  14.323  10.195   0.288
75693W        W44023  16.710  12.139   1.935
75694W        W44024   1.422   8.677   3.192
75695W        W44025  29.962  36.880   1.801
75696W        W44026  12.793  11.819   0.770
75697W        W44027  32.119  31.563  12.892
75698W        W44028   2.873  38.492   1.379
75699W        W44029  43.514  11.369  13.960
75700W        W44030  32.942  37.499  13.989
75701W        W44031  19.726  16.728   5.131
75702W        W44032  18.576   4.844   1.403
75703W        W44033  37.065  25.633   4.174
75704W        W44034  35.080  37.035   4.788
75705W        W44035  36.523  43.465   1.294
75706W        W44036  31.075  29.056  14.968
75707W        W44037  15.308  24.987  12.933
75708W        W44038   5.709  35.516  12.874
75709W        W44039  15.317  31.574   0.364
75710W        W44040   5.410  13.258   1.420
75711W        W44041  30.412  27.026   0.467
75712W        W44042  43.936  34.952   4.327
75713W        W44043   6.828  17.223   3.154
75714W        W44044  38.933   6.200  11.390
75715W        W44045  43.922  32.580   2.320
75716W        W44046  29.154   2.256  14.858
75717W        W44047  13.248  23.098   1.335
75718W        W44048  38.426  36.469  11.122
75719W        W44049   4.902   6.205  13.856
75720W        W44050  26.624  16.190  11.000
75721W        W44051  21.131  14.600  14.911
75722W        W44052  36.487  31.962   4.750
75723W        W44053  18.291   6.712   3.767
75724W        W44054   2.466   6.392  14.505
75725W        W44055   9.800  25.561  14.840
75726W        W44056  20.630  38.468  14.873
75727W        W44057  32.958  18.582  14.869
75728W        W44058   2.304  35.567   4.183
75729W        W44059  19.106  33.611   3.656
75730W        W44060  43.444  10.222   9.944
75731W        W44061  31.562   2.735  10.412
75732W        W44062  33.397   2.845  11.592
75733W        W44063  19.695  20.731  11.050
75734W        W44064  41.351  43.837  14.852
75735W        W44065  34.480  17.240   1.723
75736W        W44066   5.210  11.757   3.274
75737W        W44067   6.749  13.106  12.892
75738W        W44068  44.399  29.535   0.726
75739W        W44069  35.572  38.371   2.755
75740W        W44070  25.185   0.440   3.161
75741W        W44071  30.097  30.125   3.221
75742W        W44072   9.807   9.719   1.856
75743W        W44073   0.413  17.696  14.314
75744W        W44074  40.953  17.261   0.862
75745W        W44075   8.888  38.838   0.881
75746W        W44076  29.429  33.501   3.850
75747W        W44077  22.551  31.588  10.981
75748W        W44078  42.430  43.812   3.276
75749W        W44079   3.781  42.387  11.015
75750W        W44080  38.072   1.367  11.886
75751W        W44081  38.333   6.742   2.812
75752W        W44082  32.512  42.363  12.524
75753W        W44083  23.661  26.469  12.485
75754W        W44084   1.841  44.296  13.831
75755W        W44085   0.789  17.691   4.703
75756W        W44086  33.926  31.578   2.662
75757W        W44087  19.710  31.478  14.294
75758W        W44088  11.659  44.455  12.878
75759W        W44089  23.066  19.054  12.943
75760W        W44090   4.748   7.768  13.050
75761W        W44091  17.119   6.324  13.982
75762W        W44092   2.812  34.961  10.502
75763W        W44093  41.925  33.545  12.018
75764W        W44094  10.313  28.502  13.409
75765W        W44095   3.307  37.343  12.974
75766W        W44096  29.155   6.695  12.357
75767W        W44097  37.972  32.983   0.823
75768W        W44098   6.732   1.300   0.463
75769W        W44099  44.474  31.482   0.450
75770W        W44100  38.055  44.782   4.700
75771W        W44101  24.106  43.881  14.975
75772W        W44102  38.005  28.945   2.769
75773W        W44103  17.650   1.255  10.599
75774W        W44104  40.519   7.907  11.882
75775W        W44105  34.610  18.623   3.779
75776W        W44106   9.360   2.452  11.991
75777W        W44107  30.984  18.171  11.987
75778W        W44108   8.780  42.895   2.383
75779W        W44109  14.609  43.454  13.379
75780W        W44110  16.599  25.620  14.342
75781W        W44111  23.656  22.041  11.489
75782W        W44112  17.061  29.069  14.957
75783W        W44113   7.796  20.232   0.244
75784W        W44114  40.019  20.200   0.358
75785W        W44115  19.691  10.852   2.367
75786W        W44116  38.530   3.892  14.766
75787W        W44117  32.929  42.503   1.747
75788W        W44118  40.548  27.536   2.400
75789W        W44119   7.750   6.238   1.885
75790W        W44120  11.326  15.683  12.015
75791W        W44121  14.241  40.482  10.929
75792W        W44122  10.363  38.451   0.801
75793W        W44123  29.601   7.215  13.806
75794W        W44124  10.153  35.483   2.321
75795W        W44125  22.618  20.120   2.700
75796W        W44126   4.910   2.404   3.251
75797W        W44127   3.919   2.887  13.381
75798W        W44128   0.291  31.514   4.792
75799W        W44129  44.773  14.779   4.342
75800W        W44130   4.748  25.588  13.889
75801W        W44131   7.209  11.693  11.447
75802W        W44132  38.908  33.957   4.227
75803W        W44133  40.043   3.260  11.974
75804W        W44134   2.858  41.014  10.416
75805W        W44135  44.339  17.114  11.022
75806W        W44136   5.402   0.413  12.049
75807W        W44137   0.479  42.283  14.298
75808W        W44138  31.942  18.263   0.949
75809W        W44139  33.990  37.934   3.683
75810W        W44140  21.708  17.094   1.283
75811W        W44141  36.878  13.261  11.468
75812W        W44142  44.787  19.691   2.355
75813W        W44143  41.497  13.231   4.684
75814W        W44144  40.945  22.131  12.988
75815W        W44145  10.322  14.698  13.407
75816W        W44146  29.509  20.056  13.449
75817W        W44147  15.205  14.093   2.306
75818W        W44148   8.810   8.302   3.648
75819W        W44149   7.896  38.338  13.321
75820W        W44150  22.556  29.014  12.502
75821W        W44151  23.696  41.402   0.304
75822W        W44152  11.227  14.679  12.976
75823W        W44153  26.021  29.117   4.731
75824W        W44154  25.071  17.268   0.300
75825W        W44155  36.414  36.439   4.775
75826W        W44156  31.999  16.686   2.793
75827W        W44157  18.607  17.757  13.940
75828W        W44158  34.579  21.567  12.006
75829W        W44159  24.051  18.739  11.980
75830W        W44160  15.205   8.673  12.004
75831W        W44161  41.977  37.393   0.408
75832W        W44162  29.015  18.234   0.290
75833W        W44163   4.271  38.468  13.064
75834W        W44164  44.841  26.147   4.695
75835W        W44165  22.515  32.961   0.379
75836W        W44166   6.326  36.453   3.279
75837W        W44167  16.221  43.981   3.155
75838W        W44168   2.768  25.611   4.267
75839W        W44169  19.117  29.502   2.363
75840W        W44170   0.769   6.704   0.891
75841W        W44171  21.688  15.781   5.221
75842W        W44172  33.414  14.301   3.259
75843W        W44173   9.742  44.278  12.893
75844W        W44174  32.071  13.729   3.785
75845W        W44175  31.505  17.800   4.817
75846W        W44176  44.007  30.561   1.887
75847W        W44177  32.936  35.519   1.260
75848W        W44178   5.272  15.580   0.402
75849W        W44179   9.149  24.705   1.344
75850W        W44180   6.396   7.769   2.750
75851W        W44181   1.900  32.087  14.420
75852W        W44182   2.804  10.640  10.997
75853W        W44183  19.055  34.402  11.911
75854W        W44184   9.326   0.431  11.964
75855W        W44185  33.386  24.643  10.981
75856W        W44186  29.607  44.272   2.264
75857W        W44187  39.975  27.964   4.232
75858W        W44188  22.063  32.096  12.341
75859W        W44189   4.228  32.462  11.124
75860W        W44190   8.847  26.203   3.241
75861W        W44191  30.481   2.955  10.574
75862W        W44192  36.011  39.033  13.012
75863W        W44193  10.314  12.658  10.612
75864W        W44194  18.773  18.215  10.590
75865W        W44195   1.341   6.362  12.048
75866W        W44196  32.000   5.775   3.857
75867W        W44197  11.226  22.242  14.463
75868W        W44198   1.245  42.333  13.536
75869W        W44199  17.250   7.335  12.035
75870W        W44200  38.367  34.432  13.002
75871W        W44201  21.109   5.734  11.498
75872W        W44202  26.501  21.632   2.238
75873W        W44203  24.641  15.693   0.821
75874W        W44204  18.685  12.684  10.489
75875W        W44205  23.006  34.474  14.809
75876W        W44206   2.280  11.141   0.860
75877W        W44207   0.365  15.227  14.958
75878W        W44208  12.665  17.724  14.424
75879W        W44209  15.786   4.721   3.658
75880W        W44210  39.956  31.134  11.445
75881W        W44211  34.460  27.197   2.365
75882W        W44212  33.478  37.570   0.873
75883W        W44213   8.322   1.807  13.861
75884W        W44214  16.733  41.350   0.357
75885W        W44215   1.340  40.871  13.388
75886W        W44216   0.849  11.284  11.015
75887W        W44217  10.852  43.384   1.714
75888W        W44218   6.407   5.860  14.424
75889W        W44219  28.522  19.202   0.479
75890W        W44220  40.839  42.525  14.868
75891W        W44221  15.118   7.408  10.928
75892W        W44222  43.507   0.479   4.648
75893W        W44223  32.036  31.458  14.508
75894W        W44224  25.978  23.120  10.617
75895W        W44225  20.638  13.741  11.393
75896W        W44226  17.305  28.935  13.996
75897W        W44227  35.404  10.837   1.914
75898W        W44228  19.042  27.025  11.035
75899W        W44229  25.516   4.386   1.428
75900W        W44230  44.483  43.466   1.377
75901W        W44231  43.906   5.734   3.323
75902W        W44232  13.693  19.170   2.246
75903W        W44233  42.968  22.072   1.787
75904W        W44234   1.354  36.864  10.452
75905W        W44235  41.888  26.585  12.901
75906W        W44236  35.467  35.437  13.013
75907W        W44237  22.140  28.006  10.469
75908W        W44238  33.562   8.891  14.503
75909W        W44239  18.715   8.823   1.770
75910W        W44240  28.591  16.272  11.101
75911W        W44241  21.568  19.717   3.739
75912W        W44242   4.700  23.108  12.355
75913W        W44243  10.157  40.958   4.662
75914W        W44244  19.553  25.644  14.355
75915W        W44245  16.703  35.460   3.338
75916W        W44246  41.319  10.217   0.767
75917W        W44247  16.738  21.112  10.001
75918W        W44248  21.195   1.905   4.153
75919W        W44249  25.693  41.424   4.270
75920W        W44250   1.334  18.203  10.911
75921W        W44251  22.226  29.496  12.425
75922W        W44252  24.162  38.874  13.335
75923W        W44253  18.610  37.989  10.579
75924W        W44254   7.296   3.761  13.902
75925W        W44255   8.273   8.290   4.307
75926W        W44256  19.206   1.871  14.784
75927W        W44257  24.582  44.280  13.313
75928W        W44258  23.644  41.918  12.427
75929W        W44259   9.678  38.387   3.237
75930W        W44260  31.052  14.785   2.337
75931W        W44261  30.467   8.859  10.565
75932W        W44262  41.927  39.943  14.496
75933W        W44263  29.441   3.889   2.828
75934W        W44264  42.422  41.456  13.369
75935W        W44265   8.672  30.557  11.423
75936W        W44266   3.412  25.143   2.360
75937W        W44267  26.066  30.949   1.925
75938W        W44268  23.209  18.281   0.857
75939W        W44269  41.323  39.957   3.237
75940W        W44270  27.126  13.694  11.957
75941W        W44271  19.275   9.151   1.288
75942W        W44272   3.790  16.223  12.502
75943W        W44273  18.767  36.869  14.971
75944W        W44274   4.815  29.659   4.195
75945W        W44275  37.891   1.282   2.795
75946W        W44276  23.506  29.029  12.435
75947W        W44277  10.798  16.595  13.943
75948W        W44278  44.780  25.615  11.381
75949W        W44279   3.953  32.068  13.370
75950W        W44280  28.538  27.962  11.002
75951W        W44281  22.054  28.940   2.673
75952W        W44282   6.274  43.807  11.894
75953W        W44283  41.850  43.509   1.294
75954W        W44284  28.571   6.208   0.346
75955W        W44285   1.824  35.011   1.398
75956W        W44286   3.745  38.385  14.503
75957W        W44287  21.123  10.825   5.307
75958W        W44288   4.764  19.120  13.817
75959W        W44289  31.437  19.229   1.882
75960W        W44290  33.041  23.633  14.786
75961W        W44291  13.211  11.203   2.207
75962W        W44292  24.155  13.824   3.741
75963W        W44293  43.945   5.418   3.146
75964W        W44294  29.093  35.511   4.690
75965W        W44295  29.475  19.052   1.906
75966W        W44296  35.082  36.074  10.899
75967W        W44297  19.649  12.812   0.840
75968W        W44298   8.214  24.007   3.747
75969W        W44299  42.409  20.726   2.354
75970W        W44300  41.473  32.084  11.903
75971W        W44301  23.985  12.766   0.340
75972W        W44302  36.867   2.413   2.828
75973W        W44303   8.264  15.253   2.395
75974W        W44304  37.425   4.331   3.780
75975W        W44305  22.662  10.801  14.858
75976W        W44306   8.688  32.407   1.296
75977W        W44307  29.583  21.180  11.053
75978W        W44308  27.449  30.463   0.957
75979W        W44309   6.759  36.390  11.061
75980W        W44310  38.037   7.256   1.829
75981W        W44311   1.897  32.549   3.742
75982W        W44312  44.433   7.673   2.841
75983W        W44313  40.905  42.483   2.842
75984W        W44314  39.977   2.307  14.476
75985W        W44315   4.944  22.570   3.695
75986W        W44316  28.577  13.112  14.516
75987W        W44317   4.751   5.198  12.444
75988W        W44318   3.886  43.013  12.925
75989W        W44319   2.272   4.860   2.811
75990W        W44320  28.467  32.926   9.922
75991W        W44321  44.482  10.646  12.928
75992W        W44322  20.132   3.218   3.303
75993W        W44323  16.755   9.670   4.650
75994W        W44324  20.713   7.841   0.381
75995W        W44325  14.772  28.051   1.930
75996W        W44326  20.667   4.846   0.782
75997W        W44327   5.919  33.595   0.748
75998W        W44328  10.674  26.962   3.311
75999W        W44329  18.767   1.471  11.476
76000W        W44330  35.384  17.092   2.804
76001W        W44331   0.805  42.027  12.454
76002W        W44332  10.745  40.053  13.503
76003W        W44333  21.164  35.529  11.505
76004W        W44334  36.006  19.538   1.705
76005W        W44335  28.490  37.912   2.240
76006W        W44336  42.847  41.343  14.989
76007W        W44337  40.840  19.250   0.438
76008W        W44338   6.870  40.847   2.206
76009W        W44339  24.625  15.602   2.419
76010W        W44340  16.227  27.616   0.896
76011W        W44341  19.150  27.027   2.294
76012W        W44342  23.050  33.018  14.885
76013W        W44343  10.718   9.307   3.630
76014W        W44344  30.050  10.876   0.390
76015W        W44345  18.213  39.352   2.768
76016W        W44346  30.446  17.069  12.372
76017W        W44347  39.060  18.131  10.419
76018W        W44348   2.864  24.518  10.643
76019W        W44349  32.558  37.536   1.705
76020W        W44350  21.202  42.357   0.797
76021W        W44351  36.470  36.016   4.278
76022W        W44352  38.521  13.784   0.254
76023W        W44353  24.607  22.011   4.834
76024W        W44354  29.549  17.197   5.138
76025W        W44355  38.391   7.325   9.983
76026W        W44356  20.101   5.897  13.818
76027W        W44357  28.140  34.885  14.785
76028W        W44358   4.283   8.835  13.891
76029W        W44359  34.888   6.303  11.885
76030W        W44360   2.954   3.451   2.681
76031W        W44361  26.694  16.665  13.540
76032W        W44362  20.590  10.184  11.532
76033W        W44363  19.756  30.043  14.433
76034W        W44364  34.609   2.882   1.436
76035W        W44365  36.516  36.540   0.379
76036W        W44366  24.549  16.743  13.483
76037W        W44367  20.157   6.310  14.409
76038W        W44368  27.025  27.155  10.931
76039W        W44369   7.860   5.757   1.269
76040W        W44370  24.220  22.685   1.440
76041W        W44371   9.732  41.375  13.388
76042W        W44372  36.054  40.352  11.378
76043W        W44373  10.759  24.067   3.288
76044W        W44374  15.662   9.353   3.709
76045W        W44375  38.454  26.638   0.888
76046W        W44376  24.017  19.069  12.925
76047W        W44377  34.116   6.356   0.293
76048W        W44378   0.980  39.468  11.513
76049W        W44379   1.824  37.943  10.588
76050W        W44380  18.760  24.049   0.798
76051W        W44381  21.085  42.319  12.392
76052W        W44382  20.634  18.779   1.218
76053W        W44383  28.992  38.855   3.823
76054W        W44384  22.203  36.364  11.054
76055W        W44385  22.067  22.129  14.902
76056W        W44386  28.061   7.745   5.247
76057W        W44387   9.742  30.439  10.630
76058W        W44388  35.890  41.448  14.831
76059W        W44389  44.761   9.728   3.211
76060W        W44390  10.660  14.800   3.696
76061W        W44391   7.398  28.497   1.318
76062W        W44392  37.015   1.910  14.981
76063W        W44393   0.828  17.590  14.833
76064W        W44394   2.228  27.048   3.380
76065W        W44395  43.889  20.667  10.420
76066W        W44396  39.423  15.151  10.498
76067W        W44397   4.885  14.164   1.300
76068W        W44398   0.826  35.453   4.215
76069W        W44399  25.580  35.408   1.925
76070W        W44400  26.978  20.161  14.307
76071W        W44401   9.172   5.934  10.581
76072W        W44402   9.850  15.681   1.903
76073W        W44403  11.675  43.910   2.855
76074W        W44404  31.557  40.827  13.018
76075W        W44405  17.286  12.207  13.015
76076W        W44406   2.960   8.671  10.452
76077W        W44407  41.297   2.265   2.177
76078W        W44408  26.998  40.409   1.703
76079W        W44409  11.238  16.597   3.233
76080W        W44410   5.344  26.096  13.516
76081W        W44411   4.823  15.676   0.849
76082W        W44412  33.011  14.106   4.200
76083W        W44413  44.755  29.023  11.578
76084W        W44414   2.833  17.175   3.155
76085W        W44415  34.580  28.680  12.028
76086W        W44416   8.673  34.901   4.148
76087W        W44417  25.978  29.004  10.959
76088W        W44418  40.851  37.904   1.774
76089W        W44419   0.791  39.932  10.543
76090W        W44420  13.605  35.414  14.903
76091W        W44421  10.167  33.943  13.002
76092W        W44422  33.025  11.792  14.791
76093W        W44423   1.778  18.070  12.514
76094W        W44424   7.416   5.826  10.894
76095W        W44425  23.553  34.091  12.069
76096W        W44426  10.725  25.097  11.087
76097W        W44427  35.984   3.253  13.313
76098W        W44428  26.987  35.595   0.876
76099W        W44429  23.236  30.085   4.644
76100W        W44430   8.794  39.496  13.042
76101W        W44431   9.180  33.464   2.211
76102W        W44432  37.548   7.730  10.045
76103W        W44433  37.957  42.876  10.407
76104W        W44434  31.604   5.886  14.762
76105W        W44435  30.520   2.769  12.468
76106W        W44436  39.534  20.588   1.866
76107W        W44437  44.811  43.011   1.351
76108W        W44438  26.962  13.771  12.912
76109W        W44439  27.458  31.913  10.535
76110W        W44440   0.789  42.908  10.502
76111W        W44441  25.963  26.505   3.381
76112W        W44442  31.516  15.226   1.299
76113W        W44443  34.375   1.762  11.576
76114W        W44444   0.846  40.429   2.258
76115W        W44445  25.582  17.758   0.924
76116W        W44446  35.488  16.637  13.915
76117W        W44447  42.907  33.987  11.981
76118W        W44448   9.335   3.353   2.816
76119W        W44449  33.552  21.739  13.976
76120W        W44450  29.139  27.636  10.969
76121W        W44451   2.226  29.574   9.987
76122W        W44452  14.614  32.399   2.379
76123W        W44453  23.696  13.351  12.866
76124W        W44454  29.424  32.628   4.194
76125W        W44455  19.605  15.802  14.768
76126W        W44456  27.016  28.960  14.860
76127W        W44457  20.754  11.673   0.894
76128W        W44458  42.420   3.422   0.763
76129W        W44459   3.754  39.464   0.926
76130W        W44460   6.341  10.183  15.000
76131W        W44461  30.616   8.741  14.858
76132W        W44462  44.889  20.228   4.172
76133W        W44463  40.472  15.792   0.770
76134W        W44464  22.211  32.476   4.174
76135W        W44465  26.038   9.656  11.089
76136W        W44466  36.077   6.859   1.396
76137W        W44467  35.512  29.079   4.813
76138W        W44468  43.435   1.752  11.023
76139W        W44469   9.164  40.342   2.806
76140W        W44470  18.056  13.743   2.362
76141W        W44471  30.492  27.063  14.824
76142W        W44472   0.265  34.956  14.797
76143W        W44473  30.042  23.532  13.533
76144W        W44474  31.542   7.694   2.710
76145W        W44475  18.201   6.279  10.905
76146W        W44476  13.760  40.309   0.740
76147W        W44477  27.002   9.320  12.053
76148W        W44478  24.579   3.380   1.923
76149W        W44479  16.286   7.296   4.275
76150W        W44480   1.884  19.769  12.455
76151W        W44481  23.047  11.304   2.208
76152W        W44482  43.905  38.060   3.834
76153W        W44483  41.011  28.609   0.245
76154W        W44484  12.820  32.530   2.737
76155W        W44485   5.836  34.477  14.903
76156W        W44486  42.009  24.517  11.059
76157W        W44487  37.462  36.983   2.745
76158W        W44488  20.152   0.368   2.218
76159W        W44489  41.021  25.513   1.791
76160W        W44490   7.394  13.701  14.900
76161W        W44491  35.573  33.525   1.258
76162W        W44492  22.698   3.337  10.441
76163W        W44493  20.759  33.033   1.844
76164W        W44494  29.433  39.440   0.934
76165W        W44495   7.175   7.370  11.417
76166W        W44496  38.912  37.032  12.027
76167W        W44497  36.478  42.018   3.279
76168W        W44498  14.301  38.842   4.175
76169W        W44499  27.076  14.111  14.341
76170W        W44500   4.258  28.532   4.791
76171W        W44501  34.372  39.916   0.418
76172W        W44502  27.514  30.456  11.022
76173W        W44503  10.317  19.569  12.363
76174W        W44504   3.396  38.506   5.127
76175W        W44505  31.914   1.348   4.253
76176W        W44506  16.685   6.347  13.826
76177W        W44507  35.994   2.784   0.370
76178W        W44508  10.263   1.407  14.483
76179W        W44509  12.227   4.733  14.925
76180W        W44510  30.600  17.119  13.366
76181W        W44511  14.748  35.990  10.948
76182W        W44512  24.716   7.172   3.224
76183W        W44513  30.935  33.936   4.605
76184W        W44514  15.315   9.813  12.916
76185W        W44515  18.692  37.566   4.308
76186W        W44516  21.169  43.808   3.826
76187W        W44517  38.883  17.076   4.758
76188W        W44518  33.033   6.920   4.229
76189W        W44519  22.217  22.533  11.081
76190W        W44520  35.986  21.256   0.268
76191W        W44521  24.519  35.387   2.181
76192W        W44522  38.957  37.008   4.138
76193W        W44523  27.073  31.617   5.577
76194W        W44524  43.383  25.685  11.871
76195W        W44525  18.275  19.214   2.301
76196W        W44526  12.291  10.851  10.474
76197W        W44527   6.756  34.951  12.385
76198W        W44528  40.428  30.921  12.545
76199W        W44529   9.311  14.281   4.147
76200W        W44530  16.110  44.753  12.963
76201W        W44531   4.724  21.663  12.838
76202W        W44532  20.576  26.008  12.471
76203W        W44533   0.914   0.822   0.832
76204W        W44534  32.411  41.411   2.722
76205W        W44535  11.294  23.587  14.970
76206W        W44536  43.900  12.621   4.803
76207W        W44537   2.433  19.194  12.861
76208W        W44538  42.475   5.305   0.788
76209W        W44539  34.999  11.252  13.043
76210W        W44540  28.953  11.705  14.761
76211W        W44541  10.790  28.992   3.349
76212W        W44542   2.389  10.664  12.416
76213W        W44543  11.284  32.499  14.407
76214W        W44544   7.736   9.392  14.025
76215W        W44545  16.134  40.986   3.699
76216W        W44546  12.119   3.916   0.765
76217W        W44547  38.887  40.921  13.336
76218W        W44548  18.633  28.646  12.037
76219W        W44549   6.368   8.686  12.354
76220W        W44550  10.822  36.561  13.457
76221W        W44551  29.554  40.320   3.381
76222W        W44552  31.403  14.117  10.520
76223W        W44553  30.160  28.940   0.448
76224W        W44554  22.181  20.548   3.273
76225W        W44555  33.477  32.952   4.226
76226W        W44556  39.018  24.714   1.436
76227W        W44557  35.579  23.659  11.945
76228W        W44558  39.347  29.651   4.768
76229W        W44559  15.764   0.802   3.795
76230W        W44560  11.140  23.694  13.383
76231W        W44561   9.680  20.105   0.943
76232W        W44562  37.072  42.370   1.934
76233W        W44563  24.619  39.513  11.607
76234W        W44564  34.453  15.161  14.811
76235W        W44565  12.298  24.016  11.499
76236W        W44566  34.607  24.060  10.606
76237W        W44567  37.381  25.539   0.334
76238W        W44568  32.555  21.026   0.325
76239W        W44569  10.338  25.025  14.280
76240W        W44570  19.090   5.308  12.410
76241W        W44571  17.605  19.605   0.482
76242W        W44572  21.227   5.693  13.804
76243W        W44573   2.959  10.803   0.462
76244W        W44574  23.574  34.940  13.384
76245W        W44575  10.843  35.978   0.252
76246W        W44576  27.491  22.522  11.532
76247W        W44577  23.016  39.948   0.816
76248W        W44578   8.784  42.012  11.541
76249W        W44579  27.678  15.161  10.893
76250W        W44580  29.946   4.268   0.903
76251W        W44581  41.309  34.943  12.064
76252W        W44582   9.658  43.415  11.029
76253W        W44583  24.065  16.620   2.840
76254W        W44584  19.230   7.178   4.174
76255W        W44585  22.098  18.557   2.685
76256W        W44586  29.485  37.453  13.935
76257W        W44587  38.360  39.897  10.962
76258W        W44588  20.271  20.057   0.367
76259W        W44589  28.485  11.361   9.997
76260W        W44590  22.176  43.284   1.327
76261W        W44591   9.696  29.600   3.780
76262W        W44592  13.639  15.181   3.794
76263W        W44593  18.685  39.877   4.295
76264W        W44594  12.614   7.314   2.196
76265W        W44595  38.359  34.927   4.166
76266W        W44596  13.712  35.526   9.523
76267W        W44597  16.161  43.303  10.939
76268W        W44598  42.993  14.338   4.791
76269W        W44599  20.239  28.562   1.450
76270W        W44600  19.074  31.949   2.708
76271W        W44601  21.682  15.740  13.796
76272W        W44602   1.808   7.246   3.666
76273W        W44603  24.621  42.015  12.088
76274W        W44604  40.039  42.337  12.973
76275W        W44605  40.891  16.738  10.485
76276W        W44606  37.527   2.786   2.269
76277W        W44607  13.259  38.938  12.832
76278W        W44608  34.495   4.932  12.837
76279W        W44609  35.969  42.832   1.709
76280W        W44610  26.497  38.473   3.337
76281W        W44611   6.695  30.121  11.021
76282W        W44612  16.761  27.532   1.769
76283W        W44613  19.110  29.454   1.813
76284W        W44614  24.488  13.804   1.901
76285W        W44615  39.905  37.477  13.824
76286W        W44616  27.068  36.372  12.400
76287W        W44617   7.862   0.771   2.860
76288W        W44618  22.666   9.149   3.869
76289W        W44619  19.641  33.510  10.621
76290W        W44620   0.338  43.402   2.701
76291W        W44621  15.313  37.086   4.674
76292W        W44622   6.733  34.119  13.376
76293W        W44623   5.273  44.276   1.821
76294W        W44624  43.272  19.568  12.572
76295W        W44625   7.672  20.635  10.938
76296W        W44626  22.246   3.742  13.514
76297W        W44627  32.974  22.168  11.416
76298W        W44628  16.156  27.146  11.504
76299W        W44629  16.708  29.581   4.800
76300W        W44630  21.025  14.289  12.854
76301W        W44631  13.703   0.430  12.540
76302W        W44632  11.188   4.861  12.354
76303W        W44633  30.145  22.225  14.373
76304W        W44634  19.609  14.760   0.748
76305W        W44635   4.363  19.739  14.989
76306W        W44636  20.662  29.483  11.563
76307W        W44637  20.049  10.236   3.221
76308W        W44638   8.772  27.172   4.782
76309W        W44639  21.695  33.074  13.979
76310W        W44640  22.561  23.702   0.395
76311W        W44641  30.078  31.539   9.667
76312W        W44642  28.963  26.699  11.415
76313W        W44643   7.853  28.963   2.326
76314W        W44644  25.578  12.625   1.765
76315W        W44645  24.685  16.112   4.215
76316W        W44646  39.326  24.584  11.859
76317W        W44647   7.324  30.973   2.781
76318W        W44648  17.713  21.726   4.175
76319W        W44649  12.762  12.163  11.553
76320W        W44650  20.727  21.732  10.429
76321W        W44651  37.395  12.759   2.698
76322W        W44652  39.521   1.483  12.494
76323W        W44653   4.810  30.417  10.950
76324W        W44654  22.159  36.860   4.719
76325W        W44655  24.709  36.940  11.462
76326W        W44656  22.027  28.528   9.957
76327W        W44657  16.227  28.131   0.767
76328W        W44658  18.100  32.617  11.581
76329W        W44659  19.092  24.656  11.070
76330W        W44660  31.536  41.034  13.542
76331W        W44661  38.835   2.411  11.968
76332W        W44662  35.882  32.143  14.827
76333W        W44663  43.906  26.153   2.332
76334W        W44664  43.274  12.317  10.591
76335W        W44665  30.454   8.750  13.309
76336W        W44666  30.647  21.052   1.433
76337W        W44667  29.985  37.563  11.417
76338W        W44668  40.332   9.298  14.284
76339W        W44669   1.954   5.720   1.261
76340W        W44670  39.951  14.663  14.992
76341W        W44671  34.987  39.499  11.008
76342W        W44672  27.941   5.888   0.369
76343W        W44673  24.021  43.502  11.508
76344W        W44674   6.229  42.491  11.876
76345W        W44675   9.267  37.469  12.965
76346W        W44676  34.411   7.889  14.987
76347W        W44677   5.723   4.861   4.196
76348W        W44678   2.738  22.244   4.301
76349W        W44679  33.533  22.177   2.197
76350W        W44680   6.860  14.244   2.413
76351W        W44681  10.813  22.183   1.395
76352W        W44682   2.953  19.683  14.859
76353W        W44683  20.651  34.425   3.329
76354W        W44684  36.849   3.838  11.397
76355W        W44685  32.981   1.479  10.555
76356W        W44686  10.168  39.405   3.644
76357W        W44687  33.492   7.177  11.450
76358W        W44688  19.775  17.114   1.851
76359W        W44689   5.346  11.651  12.895
76360W        W44690  43.896  31.567  14.870
76361W        W44691  12.304  22.689   4.708
76362W        W44692  16.724  41.302   2.664
76363W        W44693  18.598  33.932  11.038
76364W        W44694  28.147  11.127   1.441
76365W        W44695   0.397  24.681   1.790
76366W        W44696  15.781  29.008  10.973
76367W        W44697  18.075   7.347   1.869
76368W        W44698  11.338   8.795  13.974
76369W        W44699  12.682  34.901  14.010
76370W        W44700   4.339   8.730  12.021
76371W        W44701  44.859  23.520  14.878
76372W        W44702  30.434  11.659  11.117
76373W        W44703  15.206  13.211   3.373
76374W        W44704  15.135  37.040   0.868
76375W        W44705   6.822  10.730  11.527
76376W        W44706  26.656   0.250  14.373
76377W        W44707  31.495  39.014  13.342
76378W        W44708  25.055  29.622  11.522
76379W        W44709  25.116  14.255  14.460
76380W        W44710  36.936  17.073  11.467
76381W        W44711  30.122  36.967  14.494
76382W        W44712  18.551  14.758  12.029
76383W        W44713  38.417  25.648  11.994
76384W        W44714  35.550  35.393  11.598
76385W        W44715  12.754   5.306   1.877
76386W        W44716  36.973  33.621  13.836
76387W        W44717  33.896  39.344  11.571
76388W        W44718  13.632  28.478   3.274
76389W        W44719  43.420  42.014  13.810
76390W        W44720  11.791   4.265  14.002
76391W        W44721   1.751  21.213   0.417
76392W        W44722  39.023  34.988   3.316
76393W        W44723   3.793   5.383   4.777
76394W        W44724  41.412  24.996   0.352
76395W        W44725  21.522  13.208  10.540
76396W        W44726  43.503  42.312  14.434
76397W        W44727  39.910  10.677   0.786
76398W        W44728  26.056  20.767   3.224
76399W        W44729  37.515  21.099  14.436
76400W        W44730  36.580   2.255  13.061
76401W        W44731  28.530  27.681  13.966
76402W        W44732  29.640  33.957  14.855
76403W        W44733  41.418   2.766   1.880
76404W        W44734  24.510   3.781   1.274
76405W        W44735  42.933   7.755  10.519
76406W        W44736  40.481  12.669  11.601
76407W        W44737  33.986  15.132   4.134
76408W        W44738  24.625  24.171   4.120
76409W        W44739  25.573  38.895  14.024
76410W        W44740   6.781   1.342   1.888
76411W        W44741  28.641  21.217   1.333
76412W        W44742   0.391  21.735   1.750
76413W        W44743  31.015  14.639   1.789
76414W        W44744  11.669  15.162   3.337
76415W        W44745  15.678  36.036  10.017
76416W        W44746  10.708  11.764   0.927
76417W        W44747  29.482  25.099   0.401
76418W        W44748  22.176   8.748  13.041
76419W        W44749  20.110  39.351   0.827
76420W        W44750  35.604  34.980  14.916
76421W        W44751   4.822  36.379   1.382
76422W        W44752  23.184  20.101  12.877
76423W        W44753  41.881  42.839   2.294
76424W        W44754  34.373  31.481   1.422
76425W        W44755  13.206   7.805   4.252
76426W        W44756  13.243  18.766  11.594
76427W        W44757  19.587   6.832  11.021
76428W        W44758  24.050  36.934   2.366
76429W        W44759  22.186  25.981   2.331
76430W        W44760  39.955  33.939  13.859
76431W        W44761  38.991   4.220   3.301
76432W        W44762   4.262  32.559   2.215
76433W        W44763  25.030  10.779   5.200
76434W        W44764  27.653  26.980   1.399
76435W        W44765   4.856  22.617  13.902
76436W        W44766  15.816  15.591   2.733
76437W        W44767  10.856   6.850   4.127
76438W        W44768  42.017  20.538   3.195
76439W        W44769   3.256  16.788   3.754
76440W        W44770  38.015  43.916   1.279
76441W        W44771  29.549  23.516   3.277
76442W        W44772  34.939  43.292  13.815
76443W        W44773  42.303  37.521   2.771
76444W        W44774  14.276   2.884  10.564
76445W        W44775  32.004  10.769   2.215
76446W        W44776  16.140  15.234  10.455
76447W        W44777  10.371  15.726   1.907
76448W        W44778  10.262  43.494  13.961
76449W        W44779  22.008  19.124  14.491
76450W        W44780  40.924  24.500   1.213
76451W        W44781   1.430  30.992   1.351
76452W        W44782   4.391  21.120   4.241
76453W        W44783   8.879  10.635   2.719
76454W        W44784   2.411  24.599  13.501
76455W        W44785  40.915  29.988  12.016
76456W        W44786  29.116  20.056   5.115
76457W        W44787  31.574  17.762  11.380
76458W        W44788   7.356  17.581  10.591
76459W        W44789  35.435   7.224  11.432
76460W        W44790  22.177  32.965  11.019
76461W        W44791  32.517  42.808   0.394
76462W        W44792  42.349  30.585  11.075
76463W        W44793  14.721  42.343   4.767
76464W        W44794  31.534   2.828   0.810
76465W        W44795  36.957   1.769  14.335
76466W        W44796   6.416  29.088   4.807
76467W        W44797  18.643   0.263  14.971
76468W        W44798  23.131   1.867   0.270
76469W        W44799  38.335   7.782   0.401
76470W        W44800  10.341  24.216   1.267
76471W        W44801  38.950  41.968  10.448
76472W        W44802  42.420  24.583   0.779
76473W        W44803  28.126   3.401   2.814
76474W        W44804  26.205  24.031  14.943
76475W        W44805  38.944  37.867  14.304
76476W        W44806  22.503  32.520   0.744
76477W        W44807  26.628   9.866  10.070
76478W        W44808  31.570  31.144  13.993
76479W        W44809  14.829  40.545   0.935
76480W        W44810  13.621  38.374   1.793
76481W        W44811  39.879  23.208   1.312
76482W        W44812   5.399   6.817  10.419
76483W        W44813  37.480  24.210   2.243
76484W        W44814  23.671   2.919   0.415
76485W        W44815  37.833  29.985  10.538
76486W        W44816   7.336  12.802   2.272
76487W        W44817  43.275  29.935   4.647
76488W        W44818   2.461  21.639  10.980
76489W        W44819   9.808   7.841  12.857
76490W        W44820  10.313   5.849   4.600
76491W        W44821   3.222  15.153  14.981
76492W        W44822   7.855  14.674  14.351
76493W        W44823  14.678  23.058  10.593
76494W        W44824  12.611  13.706   1.791
76495W        W44825  36.099  19.584  11.867
76496W        W44826  11.342  29.016   2.897
76497W        W44827  14.164   4.442  10.455
76498W        W44828  16.786  31.549  10.948
76499W        W44829  25.490  44.460   3.698
76500W        W44830  40.457  26.594  10.950
76501W        W44831  30.596  32.973   0.761
76502W        W44832   2.338  36.495  12.387
76503W        W44833  35.037  10.164  13.379
76504W        W44834  42.923  42.858  14.329
76505W        W44835  42.499   3.801   1.261
76506W        W44836   0.933   4.933  10.475
76507W        W44837  27.949  29.007   2.409
76508W        W44838  41.991  35.900   1.764
76509W        W44839  32.589  42.471  10.554
76510W        W44840  43.889  30.160  14.834
76511W        W44841  22.007  17.595  12.406
76512W        W44842   5.310  42.338   4.271
76513W        W44843  30.457  28.530  13.314
76514W        W44844  44.276  35.953   4.305
76515W        W44845  32.435  37.898  13.315
76516W        W44846  22.048  36.473  12.551
76517W        W44847  22.225   5.301  13.800
76518W        W44848   2.791   7.378   4.753
76519W        W44849   3.875  15.819   2.720
76520W        W44850  27.626  12.743   4.800
76521W        W44851  25.014  16.317  12.926
76522W        W44852  28.473  39.521  10.483
76523W        W44853  12.691  25.629   1.827
76524W        W44854  18.667  36.031  12.970
76525W        W44855  15.653  18.652   2.305
76526W        W44856  14.325  32.124  12.563
76527W        W44857  26.127   4.789   4.818
76528W        W44858  22.692  35.080  13.898
76529W        W44859  23.735  10.158  14.872
76530W        W44860  39.895   0.762  14.293
76531W        W44861  16.791  42.952  12.880
76532W        W44862  21.032  12.797   4.202
76533W        W44863   8.837  21.076   1.323
76534W        W44864  42.925  24.215  10.607
76535W        W44865  35.895  23.723  13.846
76536W        W44866  15.775  30.962   3.354
76537W        W44867  36.570  29.142   2.216
76538W        W44868  38.887  22.589  11.890
76539W        W44869  20.561  28.002   3.200
76540W        W44870  11.735   2.464  14.280
76541W        W44871  30.108  24.004  13.359
76542W        W44872   4.906  39.503   3.294
76543W        W44873  19.537  13.154  14.483
76544W        W44874  26.521  29.619  14.011
76545W        W44875  32.574  21.671  13.393
76546W        W44876  28.589   3.302   0.845
76547W        W44877  37.439  28.522   2.178
76548W        W44878  21.575  21.710  13.798
76549W        W44879  40.022   9.814  13.807
76550W        W44880  18.769  31.638   4.216
76551W        W44881  13.278  15.309   0.253
76552W        W44882  25.578  18.054  14.860
76553W        W44883  17.218  35.551   3.692
76554W        W44884  16.685  42.898  12.475
76555W        W44885  25.713  32.614   2.222
76556W        W44886  40.854  11.675  14.297
76557W        W44887  41.425  19.190  10.461
76558W        W44888  16.663  11.689   1.380
76559W        W44889   7.724  15.726  11.083
76560W        W44890  13.238  14.169  10.590
76561W        W44891  24.174  10.204   2.795
76562W        W44892  18.283  28.037   3.775
76563W        W44893  19.094   5.340   2.385
76564W        W44894  34.026  34.936   2.850
76565W        W44895  31.898  37.843   4.282
76566W        W44896  19.547  18.107   2.722
76567W        W44897  14.308  10.832   0.737
76568W        W44898  12.852  28.665   0.384
76569W        W44899  18.281  28.010   0.892
76570W        W44900  29.991  27.657  10.582
76571W        W44901   2.304  14.734  10.546
76572W        W44902  26.516   4.712  12.384
76573W        W44903  36.970   1.902   4.717
76574W        W44904   6.337  16.186   3.841
76575W        W44905  41.404  35.467   0.835
76576W        W44906  39.063  36.535   2.822
76577W        W44907   0.373  27.615  12.483
76578W        W44908  32.977  32.629  11.093
76579W        W44909  24.105  35.089  14.777
76580W        W44910   1.900  11.682   2.293
76581W        W44911  10.267  36.853   3.757
76582W        W44912   6.398  13.644  12.992
76583W        W44913   6.262  11.139  10.502
76584W        W44914   3.247  12.182  12.069
76585W        W44915  39.498  14.326  11.105
76586W        W44916  15.690  10.715   1.282
76587W        W44917   4.343  35.416  10.999
76588W        W44918  22.129  18.051  12.974
76589W        W44919  25.976  43.445  13.425
76590W        W44920  41.905   6.285   2.415
76591W        W44921  33.934  42.501  13.312
76592W        W44922  22.668  43.424  12.064
76593W        W44923  42.465  31.517  13.978
76594W        W44924  43.883   6.700   2.728
76595W        W44925  22.030  30.121  11.088
76596W        W44926  28.610  14.187   2.849
76597W        W44927  30.562   3.427  11.943
76598W        W44928   5.902  21.749   1.239
76599W        W44929  44.997  38.425  10.626
76600W        W44930   5.731  41.790  10.527
76601W        W44931  34.581  39.826  12.453
76602W        W44932   8.790  18.072  12.006
76603W        W44933  10.330  36.961   2.768
76604W        W44934  33.588  44.464  12.506
76605W        W44935   5.396  11.128  10.536
76606W        W44936  39.029  14.266  13.839
76607W        W44937  23.651   1.330   4.742
76608W        W44938  34.543  36.590   4.725
76609W        W44939  41.481  28.604   4.262
76610W        W44940  28.613  44.443  10.576
76611W        W44941   6.183  29.027   1.874
76612W        W44942   3.813  42.846   5.102
76613W        W44943  20.148  34.473   2.676
76614W        W44944  26.146  23.523   1.743
76615W        W44945  43.357  14.129   1.220
76616W        W44946  34.004  19.261   2.703
76617W        W44947  10.634   7.313  13.485
76618W        W44948  12.739  19.085   4.340
76619W        W44949   1.300  36.964  12.479
76620W        W44950   9.164  33.077  14.930
76621W        W44951   2.333  11.731  13.993
76622W        W44952   4.344  24.714  12.955
76623W        W44953  31.467  26.498   4.154
76624W        W44954  37.407  34.950   3.225
76625W        W44955  34.485  27.509  14.982
76626W        W44956  31.596  30.073   3.200
76627W        W44957  17.684  11.332   2.182
76628W        W44958  42.451  14.325  10.980
76629W        W44959   9.165   7.852   3.630
76630W        W44960  11.152  23.988  13.933
76631W        W44961  25.118  28.514   3.707
76632W        W44962   2.847  25.996  12.022
76633W        W44963  20.662  19.673  11.945
76634W        W44964  41.504  29.104   4.341
76635W        W44965   7.695   5.257  12.845
76636W        W44966  35.553  41.865   3.238
76637W        W44967  40.812  24.981   2.368
76638W        W44968  35.360  22.734  14.466
76639W        W44969  38.011  32.029  11.409
76640W        W44970  35.914  37.533  10.540
76641W        W44971  35.009  11.363  14.345
76642W        W44972  37.971  25.648   4.732
76643W        W44973  15.777  17.584   2.276
76644W        W44974  20.657  13.758   3.324
76645W        W44975  42.991   3.313  13.864
76646W        W44976   5.216   4.797  13.012
76647W        W44977  18.124  22.019  11.403
76648W        W44978   1.762  41.388  12.010
76649W        W44979  15.595  25.637  14.933
76650W        W44980  18.648  33.071   1.722
76651W        W44981  44.364  12.659   4.217
76652W        W44982  21.532  20.680   4.135
76653W        W44983  25.621  38.008   4.262
76654W        W44984  36.531  37.549   0.291
76655W        W44985  39.999   6.213  14.931
76656W        W44986   1.765  26.456  10.009
76657W        W44987   0.857   5.826   4.295
76658W        W44988  33.464  25.543  12.571
76659W        W44989   6.322  34.944   2.663
76660W        W44990  29.106  41.979   4.323
76661W        W44991  44.973  12.699  11.437
76662W        W44992   0.746   3.841  12.061
76663W        W44993  33.486  31.432  12.082
76664W        W44994   8.655  11.707  14.784
76665W        W44995  10.183  37.046  13.988
76666W        W44996  15.744   9.392   1.280
76667W        W44997  34.911  34.572   1.844
76668W        W44998  29.109   5.769  14.990
76669W        W44999  34.378  34.041  13.918
76670W        W45000  16.136  39.426   1.435
76671W        W45001  22.042  16.637  12.872
76672W        W45002  38.349   3.807   4.320
76673W        W45003  13.634   1.951  13.507
76674W        W45004   7.369   9.733  10.598
76675W        W45005  10.299  30.508   3.303
76676W        W45006  35.920  18.729  14.823
76677W        W45007  28.932  16.700   0.252
76678W        W45008  11.215   7.392   2.710
76679W        W45009   3.271  23.230  14.867
76680W        W45010  24.186  14.132  13.836
76681W        W45011  16.187  29.621  10.475
76682W        W45012  18.145   9.683  14.960
76683W        W45013  18.747   8.391  14.910
76684W        W45014   9.329  31.583   2.301
76685W        W45015  36.067   0.354  13.534
76686W        W45016   4.343  31.492   2.747
76687W        W45017  29.091  39.022   2.895
76688W        W45018  14.750  44.307  13.427
76689W        W45019  31.471   4.928   1.364
76690W        W45020  39.422  32.526   4.697
76691W        W45021  38.405  20.171   4.785
76692W        W45022  37.574  11.765  14.370
76693W        W45023  11.831   9.848   2.897
76694W        W45024   6.866  25.494  10.605
76695W        W45025   1.437  32.000   2.271
76696W        W45026  14.217  34.051   0.843
76697W        W45027   5.360  10.192  14.473
76698W        W45028  30.008  23.226  13.033
76699W        W45029  39.017  41.374   4.278
76700W        W45030  19.110   9.226   2.887
76701W        W45031  25.001  26.616  13.311
76702W        W45032   2.792   2.769  14.479
76703W        W45033   4.334  34.396  13.408
76704W        W45034  16.750  19.086   4.123
76705W        W45035   9.183  15.121  11.425
76706W        W45036  38.881   7.295  10.405
76707W        W45037  12.318  15.682  13.921
76708W        W45038  17.160  18.127   3.845
76709W        W45039  22.120  10.343  11.122
76710W        W45040  27.022   1.305  12.369
76711W        W45041  19.548  26.492  14.838
76712W        W45042  29.494  17.276  11.946
76713W        W45043   2.860  36.486   2.371
76714W        W45044  31.403  19.569   4.134
76715W        W45045   3.277  35.565  14.814
76716W        W45046  19.063  12.127  13.335
76717W        W45047  37.083  31.950   0.272
76718W        W45048  33.488  25.537   3.274
76719W        W45049  42.897  31.008   1.276
76720W        W45050  44.424  28.107   0.425
76721W        W45051  13.201  29.949  12.472
76722W        W45052  36.909  25.575  13.396
76723W        W45053  23.548  40.943   3.303
76724W        W45054  29.479  17.672  11.419
76725W        W45055  43.480  23.675  12.920
76726W        W45056  34.009  33.936  13.006
76727W        W45057  41.428  34.458  10.967
76728W        W45058  44.378   0.380   9.933
76729W        W45059  32.904   2.722   4.767
76730W        W45060  35.905  37.558  12.401
76731W        W45061  35.464  22.120   3.354
76732W        W45062   0.887   4.234   4.737
76733W        W45063  17.673   1.341   2.872
76734W        W45064  37.512   2.962  12.996
76735W        W45065  44.277  34.035   0.249
76736W        W45066   3.269  11.780   2.845
76737W        W45067  32.538  19.598   5.706
76738W        W45068  12.837  20.597   3.850
76739W        W45069  23.694  40.932  10.532
76740W        W45070  42.849  32.941   0.459
76741W        W45071   4.895  10.843  14.968
76742W        W45072  29.984  26.143  11.982
76743W        W45073  15.678  26.990  11.598
76744W        W45074  33.985  22.046   3.305
76745W        W45075  19.656  17.718   2.330
76746W        W45076  14.811  39.019   0.429
76747W        W45077   4.705  36.909   0.882
76748W        W45078  41.448  22.556  13.798
76749W        W45079  27.156  26.049  13.513
76750W        W45080  34.087  34.420   1.832
76751W        W45081  35.986  38.381  11.957
76752W        W45082  18.778  21.712  12.454
76753W        W45083  10.632  21.262   4.255
76754W        W45084   0.328   9.293  13.405
76755W        W45085   9.815  25.696  12.852
76756W        W45086  26.697  19.209  14.916
76757W        W45087   8.743  25.522   3.661
76758W        W45088  12.315  23.503   1.361
76759W        W45089   7.774   9.226   1.407
76760W        W45090  20.538  32.483  13.912
76761W        W45091  20.086  37.335   0.820
76762W        W45092  39.975   7.748   0.889
76763W        W45093  20.214  14.800  14.856
76764W        W45094  42.843   6.691  11.524
76765W        W45095  11.329  42.787   3.740
76766W        W45096  10.171  11.180   2.796
76767W        W45097   4.419  38.938  14.978
76768W        W45098  36.085  28.077  13.830
76769W        W45099  16.149  34.087   4.354
76770W        W45100  22.629  13.758  14.454
76771W        W45101  16.805  15.685   4.710
76772W        W45102  42.883  41.828  10.510
76773W        W45103  31.963  35.070  13.900
76774W        W45104   2.933  27.538   3.839
76775W        W45105   6.871   9.670  12.923
76776W        W45106  39.980  35.971   2.813
76777W        W45107  15.114  30.027  12.547
76778W        W45108  32.623   9.852  11.503
76779W        W45109  35.932  29.996  13.868
76780W        W45110  22.236  13.253  12.957
76781W        W45111  15.142  20.041  12.837
76782W        W45112   8.294  17.707   0.255
76783W        W45113  42.834  29.134  12.094
76784W        W45114  39.957  39.879   4.671
76785W        W45115  44.965  32.499  12.867
76786W        W45116  35.096  41.834  11.117
76787W        W45117  38.040  10.795   3.779
76788W        W45118  20.634  19.677   1.413
76789W        W45119  32.924  34.111   3.632
76790W        W45120  11.287   7.703  14.502
76791W        W45121   9.323  25.657   3.171
76792W        W45122  22.072  19.102   0.787
76793W        W45123  42.366  11.162   0.286
76794W        W45124   5.387  42.508  13.483
76795W        W45125  35.920   7.260  13.492
76796W        W45126  25.035  22.739  11.596
76797W        W45127  21.137  35.370   1.283
76798W        W45128  17.759  33.007   1.217
76799W        W45129  35.996  14.702   0.248
76800W        W45130  25.638  29.526   4.266
76801W        W45131  19.240  38.013  14.989
76802W        W45132  33.114   2.235  11.494
76803W        W45133  35.942  35.013  11.605
76804W        W45134  29.560  29.639  14.485
76805W        W45135  27.570  11.129   4.690
76806W        W45136   1.795  30.530   4.192
76807W        W45137   9.877  12.778  12.005
76808W        W45138  27.558  20.127   1.310
76809W        W45139  38.358  38.924  14.917
76810W        W45140   5.766  29.462   0.728
76811W        W45141  44.835  32.519  10.604
76812W        W45142   2.856  31.619  10.541
76813W        W45143  12.147  44.311   3.279
76814W        W45144   0.436  19.670   4.149
76815W        W45145   0.816  12.699  14.924
76816W        W45146  25.002  42.777  10.606
76817W        W45147  16.722  13.787  11.426
76818W        W45148  41.993   3.932   3.369
76819W        W45149  36.547  38.463   3.682
76820W        W45150  42.780  25.177   0.899
76821W        W45151  41.523  13.763  14.824
76822W        W45152   1.270  23.669  13.377
76823W        W45153  44.759  11.629  11.612
76824W        W45154  21.196  13.785  11.453
76825W        W45155  26.556  41.801   2.227
76826W        W45156  13.818  43.923   4.256
76827W        W45157  36.562  34.997  13.454
76828W        W45158  26.034  10.754  10.422
76829W        W45159   8.694  18.200  13.441
76830W        W45160  22.596   9.346   1.830
76831W        W45161  10.199  11.173  14.869
76832W        W45162   8.185  28.137  11.441
76833W        W45163  27.175  31.484   1.934
76834W        W45164   9.667  39.830   4.799
76835W        W45165  21.700  40.368   3.732
76836W        W45166  12.850  24.692   0.901
76837W        W45167  31.466  27.509  13.364
76838W        W45168   6.322   4.346  11.101
76839W        W45169  23.598  25.603   4.290
76840W        W45170  23.569  36.556  10.486
76841W        W45171  39.428  40.986   0.944
76842W        W45172  13.291  34.383   0.917
76843W        W45173  14.120   8.788   3.735
76844W        W45174  26.153  29.003   2.289
76845W        W45175  17.114  36.476   2.790
76846W        W45176  19.655  36.354  12.406
76847W        W45177  43.510  23.032  14.770
76848W        W45178  17.662  43.472  12.546
76849W        W45179  27.083  14.742   3.673
76850W        W45180  12.253   8.847   1.238
76851W        W45181   0.863   4.911  13.400
76852W        W45182  21.176  12.778   9.977
76853W        W45183  16.082  18.689   1.699
76854W        W45184  43.419  20.747  14.923
76855W        W45185  18.789  39.422  12.410
76856W        W45186  41.844  26.963  13.333
76857W        W45187  40.308  42.883   2.745
76858W        W45188   7.893  44.339  12.881
76859W        W45189   0.863  23.025  10.485
76860W        W45190  31.072  32.497  11.593
76861W        W45191   3.349  16.640  14.294
76862W        W45192  22.092   0.265   3.664
76863W        W45193  21.155  14.220   2.339
76864W        W45194  32.582   7.722  10.482
76865W        W45195  40.032  14.105   1.252
76866W        W45196  13.260   9.773  13.377
76867W        W45197  25.090  34.377  13.935
76868W        W45198  23.675   6.184  11.908
76869W        W45199  44.312  39.902   1.385
76870W        W45200  40.939  14.096   2.204
76871W        W45201  15.189  18.751   1.924
76872W        W45202  38.347  39.327  12.980
76873W        W45203  30.458  38.840   3.792
76874W        W45204  11.749   0.929  11.553
76875W        W45205  14.289   6.382   5.275
76876W        W45206  39.418  18.201   1.898
76877W        W45207  24.701  23.603   0.737
76878W        W45208  20.041   3.809   2.359
76879W        W45209  22.598  23.083  14.488
76880W        W45210   6.744  17.760  12.388
76881W        W45211  25.146  19.196   2.888
76882W        W45212  41.411  20.223   3.834
76883W        W45213  42.789  34.401   4.754
76884W        W45214  27.013   5.406   4.279
76885W        W45215  27.082  40.983   1.900
76886W        W45216  30.164  22.135   3.275
76887W        W45217   3.841  40.391   4.315
76888W        W45218   3.326  33.083  10.439
76889W        W45219   4.928  20.241  10.433
76890W        W45220  44.307  38.566  14.771
76891W        W45221  12.196   2.734  13.327
76892W        W45222  31.056  26.639  14.973
76893W        W45223  41.876  16.208  12.396
76894W        W45224  22.096  18.579   0.769
76895W        W45225  31.513  40.952   0.292
76896W        W45226  35.056  20.204   4.275
76897W        W45227  22.682  41.308  13.952
76898W        W45228  44.869  27.108   4.148
76899W        W45229  44.337  17.734   3.268
76900W        W45230  10.287  39.522   1.821
76901W        W45231  37.847  13.105  11.871
76902W        W45232  22.077  29.062   2.267
76903W        W45233  34.490  27.140  12.457
76904W        W45234  18.146  14.254  14.417
76905W        W45235  23.564   9.822   3.783
76906W        W45236  44.899  29.069   2.672
76907W        W45237  12.271  24.009   3.745
76908W        W45238  39.009   4.382   3.802
76909W        W45239  42.912  17.187   4.774
76910W        W45240  41.877   8.172   0.291
76911W        W45241  40.341  12.752   3.337
76912W        W45242  41.484  22.597   4.181
76913W        W45243  12.744  30.548  14.003
76914W        W45244   8.889  30.111  10.960
76915W        W45245  37.028  24.198  14.826
76916W        W45246  38.406   8.160  11.008
76917W        W45247  31.518  20.269   2.408
76918W        W45248   5.869  34.935   2.900
76919W        W45249  13.162  38.368   2.837
76920W        W45250  40.540  26.601   5.144
76921W        W45251  40.882  31.604   3.320
76922W        W45252   2.949  33.950   0.923
76923W        W45253  42.412   9.668   0.418
76924W        W45254  19.757  32.472   3.338
76925W        W45255  28.092  18.138  12.381
76926W        W45256  42.923  32.975   1.327
76927W        W45257  34.403   9.852   2.335
76928W        W45258  29.045  40.048  10.604
76929W        W45259  33.952  27.942   4.740
76930W        W45260  25.139   2.336  14.829
76931W        W45261  22.237  35.587   1.750
76932W        W45262  36.080  11.357   3.325
76933W        W45263   1.423  25.133  12.500
76934W        W45264  21.251  30.010  14.289
76935W        W45265  19.157  26.072  14.354
76936W        W45266   9.353   0.259   2.682
76937W        W45267  20.156   0.894   4.648
76938W        W45268  31.629  43.403   0.917
76939W        W45269  30.570  11.271   1.339
76940W        W45270   9.672  19.765   4.133
76941W        W45271  31.112  21.533   2.240
76942W        W45272  13.692  21.633  13.322
76943W        W45273  10.814  11.263   3.149
76944W        W45274  26.169  14.794  11.906
76945W        W45275  33.547   7.823  14.765
76946W        W45276  36.593  36.526  13.442
76947W        W45277  41.306   0.939   4.352
76948W        W45278   3.459  40.019  12.434
76949W        W45279  27.575   9.707  14.337
76950W        W45280  23.189  12.195  11.371
76951W        W45281  24.598  17.641  12.892
76952W        W45282  17.661  24.144   4.192
76953W        W45283  37.426  18.599   2.692
76954W        W45284  30.105  32.984  10.023
76955W        W45285  10.779   8.704   1.326
76956W        W45286  17.243  20.696  14.923
76957W        W45287  17.186  26.140   1.788
76958W        W45288  10.303  11.645  10.891
76959W        W45289   1.786  36.072  11.510
76960W        W45290  26.124  30.041  13.922
76961W        W45291   0.852   5.372   2.221
76962W        W45292   8.296  38.959  13.343
76963W        W45293  34.579  33.903   2.733
76964W        W45294  32.951   3.827  11.987
76965W        W45295   4.834  37.358  14.864
76966W        W45296  33.063  30.053  14.900
76967W        W45297  24.525  41.951   3.701
76968W        W45298  22.241  27.632   0.932
76969W        W45299  19.155   3.897  12.847
76970W        W45300  29.112  23.505  14.022
76971W        W45301  11.219  10.216   4.611
76972W        W45302  32.621   6.267   1.741
76973W        W45303  10.174  44.319   5.209
76974W        W45304  40.336  18.253   3.324
76975W        W45305   0.263  27.547   3.757
76976W        W45306  36.073  16.677  10.434
76977W        W45307  23.185  30.034  10.494
76978W        W45308  17.565  18.146  11.124
76979W        W45309  18.143   2.436  10.487
76980W        W45310  12.800  29.133   1.431
76981W        W45311  37.390  33.547   4.280
76982W        W45312  31.959  18.165  12.367
76983W        W45313  44.865  26.541  13.023
76984W        W45314  25.005  15.734   1.910
76985W        W45315  43.938   6.783  10.554
76986W        W45316   8.854  35.490  12.033
76987W        W45317  42.008  38.383  12.873
76988W        W45318  31.992  33.624  13.309
76989W        W45319  38.562  11.282   2.702
76990W        W45320  42.894  12.144   4.252
76991W        W45321   7.791   7.195   3.851
76992W        W45322  31.933   8.259  11.566
76993W        W45323  18.705  10.637  11.598
76994W        W45324  36.460  27.447   2.867
76995W        W45325  27.000  22.222  13.888
76996W        W45326  37.049  15.122   2.265
76997W        W45327  38.341  10.674  12.046
76998W        W45328  32.592  33.420  14.022
76999W        W45329  11.233  18.052  12.890
77000W        W45330  33.443  30.036  12.370
77001W        W45331  36.398  21.219   4.704
77002W        W45332  32.932  36.082  10.525
77003W        W45333   2.963  21.512  13.836
77004W        W45334   5.194   7.717  11.398
77005W        W45335   7.769  35.600  13.934
77006W        W45336  25.526  36.985   1.436
77007W        W45337  36.969  30.913  14.344
77008W        W45338  19.203  11.631  12.436
77009W        W45339  14.339   8.752  11.970
77010W        W45340  40.468  10.675   3.817
77011W        W45341  21.081   3.942  13.963
77012W        W45342   7.296  35.863  11.085
77013W        W45343  44.971  26.099  11.423
77014W        W45344  39.820   1.963   4.605
77015W        W45345  34.972   7.309   4.783
77016W        W45346  36.039  34.607   3.703
77017W        W45347   2.891   7.783   2.196
77018W        W45348  32.540  20.579   3.170
77019W        W45349  12.652  16.314  14.481
77020W        W45350   2.759  29.921   0.828
77021W        W45351  23.097  14.697   3.151
77022W        W45352  30.987  11.674  12.016
77023W        W45353  12.773   2.760   4.687
77024W        W45354  42.331  28.006   1.724
77025W        W45355  26.082  31.576   1.832
77026W        W45356  33.565  27.982  14.888
77027W        W45357  29.431  19.629  11.071
77028W        W45358  14.793   5.851   0.305
77029W        W45359  41.899   9.840  11.476
77030W        W45360  38.569   9.162   2.319
77031W        W45361  16.651  28.516   2.294
77032W        W45362  29.109  22.160  14.785
77033W        W45363  14.148  41.513  12.858
77034W        W45364  42.488  26.169  12.092
77035W        W45365   4.327  31.101  13.797
77036W        W45366  21.208   2.831   1.225
77037W        W45367  13.716  44.903   2.324
77038W        W45368  37.486  19.080   1.881
77039W        W45369  42.848  28.032  13.434
77040W        W45370   4.891  16.678  14.991
77041W        W45371  19.265  17.222  10.594
77042W        W45372  35.050  33.402   1.258
77043W        W45373   0.348   0.432   1.288
77044W        W45374  15.753  28.566   1.231
77045W        W45375  12.719  39.493   0.470
77046W        W45376   9.817   4.904   3.236
77047W        W45377  32.488  25.113  13.379
77048W        W45378   1.353  29.939   1.320
77049W        W45379  20.121  30.474  11.089
77050W        W45380  44.921   5.437  14.997
77051W        W45381  40.844  33.437  12.992
77052W        W45382  11.131  43.817   3.236
77053W        W45383  26.582  39.861  14.996
77054W        W45384  35.460  19.628   3.184
77055W        W45385  35.374   0.819  14.392
77056W        W45386  39.864  13.315  14.819
77057W        W45387  31.624  22.076   5.593
77058W        W45388  33.511   3.311   3.638
77059W        W45389   4.932  27.138   3.657
77060W        W45390  25.037  15.174   4.825
77061W        W45391  22.625  17.726   5.761
77062W        W45392   8.266  16.774   1.842
77063W        W45393   7.709  30.425   4.158
77064W        W45394  35.479  39.819   2.382
77065W        W45395  13.767  20.233   2.741
77066W        W45396  15.733  15.187  12.379
77067W        W45397   2.432  26.082  13.949
77068W        W45398  13.253  35.486  13.847
77069W        W45399  11.673  38.927  12.060
77070W        W45400   9.803   4.302   0.278
77071W        W45401  11.157  26.679   1.868
77072W        W45402  31.476  27.645  10.990
77073W        W45403   7.702  30.983  12.491
77074W        W45404  32.625  17.247  12.967
77075W        W45405  25.081   0.807   3.343
77076W        W45406  40.309  21.526  14.399
77077W        W45407  19.616  38.347  14.008
77078W        W45408   8.167  31.037  12.054
77079W        W45409  22.246  14.789  10.545
77080W        W45410  19.705  38.890  14.989
77081W        W45411  20.087  28.646   9.649
77082W        W45412  12.178   9.276  12.884
77083W        W45413  12.161  40.923  14.328
77084W        W45414  19.178  28.561  10.595
77085W        W45415  44.327  30.564   5.174
77086W        W45416  41.401   6.718  10.538
77087W        W45417  22.998   6.341  12.973
77088W        W45418   9.752  13.746  12.474
77089W        W45419  14.264  43.515   2.744
77090W        W45420  23.092   2.415  11.979
77091W        W45421   1.357  44.881  11.963
77092W        W45422  36.480  37.477  10.976
77093W        W45423  12.158  35.572   2.770
77094W        W45424  36.496  22.520   3.678
77095W        W45425  21.569  26.156   1.883
77096W        W45426  10.177  25.030  11.392
77097W        W45427  33.405  27.941  11.591
77098W        W45428  42.993  17.275   0.954
77099W        W45429   4.858  27.081  14.509
77100W        W45430  41.301  19.626   5.305
77101W        W45431  21.546  29.017   2.258
77102W        W45432  43.388  30.988   3.240
77103W        W45433  28.495  18.269   0.387
77104W        W45434   0.368  21.714  13.977
77105W        W45435  24.700  16.224  12.014
77106W        W45436  35.034   0.776   3.771
77107W        W45437  28.988  16.727   4.671
77108W        W45438  37.854  31.024   0.886
77109W        W45439   8.300   7.669   0.892
77110W        W45440  34.003  32.098   3.291
77111W        W45441  24.604  44.339   0.351
77112W        W45442  29.594  24.659  14.812
77113W        W45443  36.082  39.959  14.855
77114W        W45444  17.683  43.830  13.463
77115W        W45445  19.163  35.468  10.574
77116W        W45446  13.209  10.653  13.523
77117W        W45447  26.181   3.886   4.138
77118W        W45448  31.046  31.566  12.082
77119W        W45449  32.040  27.121  13.507
77120W        W45450   2.773   7.835   1.909
77121W        W45451  24.099  43.500   0.316
77122W        W45452   9.644  35.912   0.245
77123W        W45453  31.012   9.230   4.671
77124W        W45454  36.547  18.113   5.295
77125W        W45455  21.538  37.012   3.797
77126W        W45456  21.076  10.685   1.250
77127W        W45457   3.331  20.035   2.882
77128W        W45458   2.886   0.945  10.913
77129W        W45459  28.455  33.047   5.227
77130W        W45460  35.452   3.287   2.826
77131W        W45461  25.047  44.425   3.759
77132W        W45462  32.632  21.216   4.714
77133W        W45463  24.568   0.412   0.319
77134W        W45464   0.916  40.389  10.444
77135W        W45465  27.981  31.079   1.238
77136W        W45466  17.729  23.131  12.453
77137W        W45467  43.922  24.141  12.828
77138W        W45468  33.883  28.050  13.917
77139W        W45469   1.942   6.284   5.131
77140W        W45470  15.124   7.256  14.903
77141W        W45471  29.586  10.159  13.451
77142W        W45472  39.451   8.207   2.259
77143W        W45473  14.806  30.916  13.425
77144W        W45474   9.758   1.902   4.269
77145W        W45475  31.118  11.715   3.680
77146W        W45476  38.523  37.564  12.345
77147W        W45477  16.652   9.690   0.441
77148W        W45478  41.326   3.330  12.482
77149W        W45479  43.777  15.210  13.823
77150W        W45480  11.131  38.326  11.419
77151W        W45481   2.298  34.484  11.548
77152W        W45482  33.934  11.278   4.725
77153W        W45483  38.483  42.927   1.731
77154W        W45484   4.832  25.190  11.599
77155W        W45485  34.994  23.629   0.303
77156W        W45486  34.560  38.519   3.221
77157W        W45487   2.396  41.456  14.865
77158W        W45488  31.431  16.804  14.907
77159W        W45489  43.892  40.901  14.020
77160W        W45490  24.581  29.114  13.889
77161W        W45491  24.548   9.688   4.302
77162W        W45492  35.390  41.992   0.862
77163W        W45493  18.213  20.231   2.235
77164W        W45494  31.962   3.413  11.956
77165W        W45495  36.587   4.370  14.817
77166W        W45496  37.926  11.244   4.153
77167W        W45497  40.905  17.178  11.992
77168W        W45498   9.801  31.487  14.470
77169W        W45499  39.334  35.395   3.672
77170W        W45500  43.803   4.411  14.915
77171W        W45501  44.890  43.928   0.432
77172W        W45502  33.599   2.451  13.330
77173W        W45503  23.149  20.133  11.395
77174W        W45504  28.553   7.410  10.556
77175W        W45505  18.211  14.638   2.735
77176W        W45506  34.600  35.968  13.444
77177W        W45507  10.285  31.073  12.980
77178W        W45508   8.388  20.704   4.208
77179W        W45509  36.987  40.823  11.373
77180W        W45510  31.590  20.745  10.915
77181W        W45511  13.158  41.459   3.256
77182W        W45512  11.832  29.589  12.824
77183W        W45513  17.776  12.280   2.744
77184W        W45514  23.178  43.981   3.714
77185W        W45515  24.547  25.604  14.974
77186W        W45516  24.620   6.857   0.729
77187W        W45517   8.185  42.823   2.829
77188W        W45518  26.030   5.257   1.859
77189W        W45519  12.726  41.433  13.865
77190W        W45520  43.944  27.447  11.484
77191W        W45521  28.176   9.834  10.594
77192W        W45522  33.574  24.168  12.361
77193W        W45523  33.522  20.042  13.493
77194W        W45524  23.156  25.698   4.782
77195W        W45525  11.338  19.039   1.884
77196W        W45526  42.780  36.435   5.306
77197W        W45527  44.885  10.741   1.323
77198W        W45528  41.398   7.863   4.681
77199W        W45529  22.551   9.812  10.437
77200W        W45530  23.506   1.395  12.975
77201W        W45531  22.637  18.653   3.201
77202W        W45532   7.791  22.156  12.823
77203W        W45533  39.529   8.334   0.367
77204W        W45534  11.367  31.607  13.371
77205W        W45535  43.366  31.532   4.669
77206W        W45536   8.856  42.794  10.893
77207W        W45537  27.180  14.335  10.479
77208W        W45538  44.765   9.301   3.145
77209W        W45539  31.571  23.499   1.794
77210W        W45540  17.673  15.722  14.854
77211W        W45541  41.849  43.967  13.054
77212W        W45542  39.939  16.216  12.456
77213W        W45543   0.269   4.713  11.591
77214W        W45544  11.803   3.269   2.359
77215W        W45545  38.990   1.943   9.947
77216W        W45546  34.882  29.629   0.301
77217W        W45547  33.384  24.217   2.869
77218W        W45548  18.679  39.431   3.721
77219W        W45549   5.846  11.153  13.426
77220W        W45550  36.081  29.143  13.382
77221W        W45551  38.850  26.165   2.244
77222W        W45552  41.932   0.852  12.075
77223W        W45553  23.221   5.414  12.066
77224W        W45554  10.708   4.226   2.369
77225W        W45555  16.185  22.247   2.856
77226W        W45556  13.802   3.769   1.706
77227W        W45557  19.122   6.411   1.221
77228W        W45558   3.244  22.738  12.956
77229W        W45559  24.707  43.457   2.401
77230W        W45560  24.999  29.641   2.765
77231W        W45561  13.216   8.224   3.151
77232W        W45562   2.369   2.332  12.343
77233W        W45563  28.532  10.747  13.381
77234W        W45564   0.397  11.343  14.992
77235W        W45565  27.571  29.459   1.345
77236W        W45566   0.970   4.770  12.479
77237W        W45567  38.445  32.424  14.928
77238W        W45568  22.997  26.138  12.049
77239W        W45569  30.040  15.158   2.346
77240W        W45570  12.645  10.202   2.778
77241W        W45571  22.233  20.263   9.528
77242W        W45572  42.375  23.726  14.778
77243W        W45573  17.082  25.494   2.862
77244W        W45574  16.153  13.108  11.401
77245W        W45575   8.699  34.100  13.041
77246W        W45576   2.347   3.439   0.401
77247W        W45577  25.606  36.919   2.309
77248W        W45578  17.094  22.600  11.543
77249W        W45579  16.253   2.780  11.426
77250W        W45580  43.876  15.233   1.407
77251W        W45581  44.328  33.386   3.690
77252W        W45582   9.808  23.126   3.677
77253W        W45583   6.870  15.628   1.359
77254W        W45584   9.365  30.443  13.956
77255W        W45585  27.559  41.513   0.313
77256W        W45586   4.289   9.394   3.670
77257W        W45587  14.322  38.983  12.908
77258W        W45588   4.824   4.379  11.062
77259W        W45589  33.555  42.925   9.952
77260W        W45590  21.135   1.807   1.448
77261W        W45591  12.363  27.626  13.824
77262W        W45592   5.217  10.671  14.868
77263W        W45593  26.695  16.730  14.988
77264W        W45594  30.050  11.262   0.814
77265W        W45595   2.289  17.072  14.915
77266W        W45596  17.705  27.561   4.612
77267W        W45597  19.103  18.055  13.420
77268W        W45598  26.617  31.584   3.376
77269W        W45599  18.142  43.896  14.476
77270W        W45600  43.402  10.357   1.754
77271W        W45601  16.172  26.957  12.868
77272W        W45602  17.751   1.438   4.166
77273W        W45603  13.769  12.335  14.303
77274W        W45604  36.471  16.799   4.839
77275W        W45605  14.619  41.871  12.477
77276W        W45606  33.124  37.501   2.204
77277W        W45607  18.286  37.944   1.222
77278W        W45608   9.857  32.988   0.408
77279W        W45609  31.499  19.076  14.946
77280W        W45610  39.336  35.907   1.898
77281W        W45611  44.319  18.214  10.977
77282W        W45612  15.642  25.170   0.736
77283W        W45613  28.122   3.733   1.761
77284W        W45614  21.560  17.601   0.355
77285W        W45615  25.583  31.909  12.890
77286W        W45616  41.513  36.559  14.894
77287W        W45617  38.029   2.258  12.967
77288W        W45618  38.423  24.120   2.876
77289W        W45619  33.604  29.935   4.802
77290W        W45620  21.640  17.687  10.529
77291W        W45621  36.534  39.969   4.801
77292W        W45622   5.343   8.814   3.224
77293W        W45623  22.224  10.871  13.027
77294W        W45624  20.170   8.164   1.825
77295W        W45625  21.685   1.250   3.813
77296W        W45626  11.833  36.898   4.151
77297W        W45627  32.622  36.874  14.771
77298W        W45628  26.637  32.906   4.162
77299W        W45629  37.034  43.467   0.932
77300W        W45630  43.902  13.768   3.835
77301W        W45631  29.497  32.607  13.492
77302W        W45632  41.440   0.397  12.386
77303W        W45633  10.875  14.785   0.414
77304W        W45634  27.119  35.383   4.802
77305W        W45635  39.391  30.946  14.000
77306W        W45636  37.577  27.475   1.878
77307W        W45637  28.676  34.093  10.524
77308W        W45638  34.596  13.705  11.913
77309W        W45639  41.943  10.811   3.314
77310W        W45640  37.929  39.505   0.915
77311W        W45641   5.253  33.030   3.211
77312W        W45642   3.821   8.225   3.867
77313W        W45643  24.494   4.743  10.566
77314W        W45644  32.993   4.820   2.317
77315W        W45645   4.298  43.791   4.307
77316W        W45646  42.381  22.566  12.938
77317W        W45647   9.382  34.864  12.839
77318W        W45648  34.519  38.834  14.927
77319W        W45649   9.235  22.202  14.792
77320W        W45650   2.783  24.160   3.865
77321W        W45651   1.314  26.093  14.344
77322W        W45652   2.942  12.163  11.086
77323W        W45653  41.946  16.767   2.884
77324W        W45654  33.591   8.260  14.960
77325W        W45655  18.103   0.810   0.824
77326W        W45656  37.548   0.825  14.287
77327W        W45657  37.546  38.346   1.769
77328W        W45658   5.355  44.780  11.036
77329W        W45659  16.277   7.414  11.383
77330W        W45660  36.515  35.534   1.795
77331W        W45661  41.938   0.874   0.920
77332W        W45662  41.413  26.652   3.744
77333W        W45663  40.946   0.451   0.346
77334W        W45664  37.980  16.756  12.898
77335W        W45665  15.645  14.734   1.262
77336W        W45666  36.844   7.288   0.317
77337W        W45667  21.609  38.895  13.853
77338W        W45668  18.589  29.019   2.779
77339W        W45669  28.678  33.389   3.266
77340W        W45670  18.151  13.221  13.374
77341W        W45671  27.571  28.662   2.339
77342W        W45672  32.509  20.258  13.942
77343W        W45673  31.641  21.657  13.022
77344W        W45674  43.973   7.333   0.407
77345W        W45675  39.945  25.664  13.546
77346W        W45676  28.026  35.084   0.317
77347W        W45677  12.268  21.190   2.372
77348W        W45678  17.591  37.494   3.752
77349W        W45679   8.364  13.243   3.358
77350W        W45680  26.498  23.734   4.217
77351W        W45681   2.242  18.064   0.270
77352W        W45682  44.316  31.955   4.275
77353W        W45683  23.082  17.159  13.957
77354W        W45684  39.016   8.225   1.409
77355W        W45685  17.234  12.819  12.037
77356W        W45686  31.089  39.317  12.498
77357W        W45687   8.386   0.391  11.441
77358W        W45688  18.726  41.029  10.987
77359W        W45689  23.596  37.385   2.786
77360W        W45690  32.482   2.420   3.679
77361W        W45691  34.939  20.090   3.145
77362W        W45692  25.023  30.492  12.039
77363W        W45693  20.584  26.634   0.915
77364W        W45694  44.402  32.496  11.984
77365W        W45695  31.960  10.659  13.397
77366W        W45696  23.173   6.909  14.995
77367W        W45697  17.170   5.387  11.532
77368W        W45698  25.042  31.462  11.535
77369W        W45699  29.631   8.363   3.664
77370W        W45700  23.206  21.747  13.447
77371W        W45701  37.848  25.608   1.697
77372W        W45702  21.724  11.721  14.013
77373W        W45703  39.519  20.575  12.960
77374W        W45704   9.797  20.748   4.821
77375W        W45705  14.595  26.982   4.798
77376W        W45706  10.705  16.811  12.570
77377W        W45707   6.719  44.470  13.864
77378W        W45708  28.174  32.087  11.097
77379W        W45709  30.163  40.954   3.204
77380W        W45710  28.091  13.316   1.934
77381W        W45711   8.207  16.305   1.859
77382W        W45712  30.073  43.491   3.740
77383W        W45713  27.463   2.231   0.737
77384W        W45714  28.135   6.208  12.870
77385W        W45715  32.594  28.493   1.328
77386W        W45716  10.206  23.028   2.826
77387W        W45717  40.991  27.533   4.307
77388W        W45718  19.657  24.097   3.314
77389W        W45719  26.567   8.740  10.963
77390W        W45720  26.633  36.507   3.213
77391W        W45721  32.514  33.518   0.882
77392W        W45722  33.585  31.625   0.415
77393W        W45723   6.301  12.308   1.898
77394W        W45724   4.417  27.173  12.884
77395W        W45725  23.239  15.684  12.878
77396W        W45726  28.117  29.093  13.498
77397W        W45727  22.137  20.653  11.969
77398W        W45728   6.427  26.606   0.462
77399W        W45729  12.656  35.984  11.875
77400W        W45730  14.739  23.673   3.726
77401W        W45731  31.917  42.424   0.390
77402W        W45732  44.767   7.398  12.508
77403W        W45733  25.005   5.390   1.721
77404W        W45734  12.688  37.495   1.899
77405W        W45735  35.359   2.943  13.059
77406W        W45736  16.795  16.074   4.154
77407W        W45737  22.517  21.567  11.029
77408W        W45738   2.838  44.499   3.666
77409W        W45739  42.931  29.573  10.617
77410W        W45740   0.360  37.446   1.860
77411W        W45741  13.825   1.411   2.382
77412W        W45742  11.238   6.322  11.477
77413W        W45743   2.225  23.082   2.803
77414W        W45744   3.840  39.973   4.778
77415W        W45745  20.677   4.440   0.868
77416W        W45746  38.375  11.252  11.110
77417W        W45747  26.697  21.111   3.250
77418W        W45748  30.654  40.976   2.388
77419W        W45749   7.671  13.626   2.323
77420W        W45750  42.985  40.978   1.231
77421W        W45751  36.501  22.630   2.235
77422W        W45752  37.509   8.325  14.314
77423W        W45753  27.100  43.817   1.694
77424W        W45754  10.851  35.904   1.256
77425W        W45755   3.438  40.490   4.221
77426W        W45756  21.732  30.604   1.794
77427W        W45757   0.463  42.823   0.410
77428W        W45758  29.112  42.843   3.321
77429W        W45759   4.795   4.262  14.021
77430W        W45760  35.416  40.353  14.380
77431W        W45761  25.043   5.266   1.276
77432W        W45762  40.477   1.845  12.850
77433W        W45763  21.697  29.050   3.837
77434W        W45764  41.033  17.137   1.281
77435W        W45765  14.598  10.255   2.726
77436W        W45766  22.514  28.546   5.580
77437W        W45767  33.027  34.561   0.848
77438W        W45768  17.559  35.446   5.642
77439W        W45769  24.683  38.539  11.448
77440W        W45770  13.841  33.578  14.011
77441W        W45771  40.817  28.653   0.892
77442W        W45772  21.261  24.546   3.156
77443W        W45773  25.525  21.702  12.075
77444W        W45774  31.603  29.603  14.486
77445W        W45775  10.687   1.349  13.515
77446W        W45776   0.917  25.526   2.728
77447W        W45777  12.257   7.900  12.910
77448W        W45778  28.520  14.732  13.064
77449W        W45779  14.755  28.042   2.298
77450W        W45780  15.268  36.944  14.386
77451W        W45781  34.557  27.121   1.866
77452W        W45782   6.266   1.462  12.905
77453W        W45783   1.280  29.091  12.035
77454W        W45784  20.196  20.206   4.158
77455W        W45785  39.837  15.762   3.381
77456W        W45786  40.967  39.489   1.926
77457W        W45787  17.098   6.847  13.838
77458W        W45788  24.196  41.483  14.463
77459W        W45789  39.895  33.034  11.972
77460W        W45790  35.910  43.285  13.916
77461W        W45791  27.570   2.344  11.473
77462W        W45792  15.581   0.973  13.942
77463W        W45793  20.588  26.616  14.800
77464W        W45794  20.225  39.490  12.391
77465W        W45795   5.225  24.069  13.058
77466W        W45796  22.515   1.331   2.272
77467W        W45797  27.078  40.998  13.434
77468W        W45798  31.925  32.577   0.833
77469W        W45799  26.135  41.953  11.113
77470W        W45800  25.612  32.992  14.903
77471W        W45801  26.168  36.470  13.927
77472W        W45802  39.018  30.610  14.412
77473W        W45803  29.023  43.445   1.715
77474W        W45804  16.292  33.885   3.351
77475W        W45805   1.461  30.154  13.501
77476W        W45806  20.239  34.400  11.408
77477W        W45807  41.966  37.863   2.885
77478W        W45808  43.852  20.645   1.416
77479W        W45809  39.045  37.880  13.883
77480W        W45810  26.678  44.429   3.330
77481W        W45811  16.685  44.403   2.837
77482W        W45812  30.554   3.797  13.940
77483W        W45813   3.828  38.879   5.109
77484W        W45814   0.464   6.844  12.411
77485W        W45815  42.892   0.419  13.915
77486W        W45816  10.170  34.476   2.792
77487W        W45817  39.061  13.674   4.725
77488W        W45818  25.980   9.269  10.489
77489W        W45819  40.509  40.980  11.066
77490W        W45820   9.645   4.362   3.866
77491W        W45821   8.889  39.062  12.360
77492W        W45822  23.121   0.854  10.440
77493W        W45823  21.085  15.653  13.481
77494W        W45824  30.144  43.997  13.980
77495W        W45825  13.255  11.225   0.811
77496W        W45826  15.817  16.244  10.478
77497W        W45827   0.982  31.578  11.106
77498W        W45828  26.525   0.378  13.341
77499W        W45829  23.030  42.439  14.813
77500W        W45830  10.638  28.616  11.596
77501W        W45831  15.802  39.868  14.826
77502W        W45832  32.497   2.846  12.982
77503W        W45833  23.134  29.495   5.083
77504W        W45834  26.976  40.475   4.229
77505W        W45835  29.172  44.941  12.935
77506W        W45836   4.316  27.052   4.645
77507W        W45837  24.519  36.473  10.453
77508W        W45838  27.069   1.310  13.841
77509W        W45839  33.963  23.034   4.620
77510W        W45840  15.639  43.433   3.711
77511W        W45841  38.373  24.072  11.925
77512W        W45842  35.951   5.865  11.602
77513W        W45843  24.690   4.402  10.431
77514W        W45844  31.979  29.429  12.009
77515W        W45845   9.880  42.809  12.348
77516W        W45846  24.008  33.537   2.250
77517W        W45847  44.487  43.940  11.560
77518W        W45848  33.126  32.625  14.389
77519W        W45849  12.670  24.104  11.445
77520W        W45850  10.309  42.306   1.932
77521W        W45851  37.360  14.112   4.312
77522W        W45852  39.362  41.989  10.441
77523W        W45853  17.688  44.939   3.167
77524W        W45854   2.457   3.781  11.020
77525W        W45855  30.096  15.670   1.210
77526W        W45856   9.793  34.938   3.233
77527W        W45857   2.762  21.163   4.712
77528W        W45858  44.370  32.495   1.287
77529W        W45859   2.841  25.995  13.542
77530W        W45860  21.515   8.200  12.962
77531W        W45861   9.718  43.868   4.655
77532W        W45862  37.893  36.432  14.848
77533W        W45863  23.520  36.880  11.991
77534W        W45864  31.468   0.852   0.761
77535W        W45865  43.955  21.606  12.400
77536W        W45866  43.308  32.473  11.503
77537W        W45867   4.822  24.499   2.253
77538W        W45868  13.799  29.092   2.692
77539W        W45869  25.150  26.141   3.189
77540W        W45870  11.835  38.469   3.839
77541W        W45871  26.554  36.497  13.954
77542W        W45872   2.326  38.975  11.442
77543W        W45873  22.111  33.072  12.851
77544W        W45874  30.623   4.707  12.419
77545W        W45875   1.449   2.729   1.299
77546W        W45876  29.515  39.979  10.961
77547W        W45877  40.361   7.743   2.196
77548W        W45878  12.730  21.744   2.181
77549W        W45879   9.780  31.079  13.353
77550W        W45880   7.346  33.978  14.933
77551W        W45881  15.130  33.489   3.292
77552W        W45882  40.810  32.976  14.284
77553W        W45883  40.042   1.261   4.198
77554W        W45884  29.133  33.485  11.552
77555W        W45885  19.228  41.809   3.760
77556W        W45886  21.212  30.936   1.700
77557W        W45887  29.010  20.204   3.831
77558W        W45888  17.261  13.762  12.891
77559W        W45889  23.078  44.369  14.801
77560W        W45890  37.514  37.577  10.458
77561W        W45891  38.880  14.173   3.805
77562W        W45892  26.542  14.685   3.786
77563W        W45893   1.867   6.919  12.529
77564W        W45894  32.580  16.784   2.379
77565W        W45895   0.329  44.379  13.813
77566W        W45896  12.120  24.213  12.559
77567W        W45897  38.473   0.468  13.436
77568W        W45898  11.213  43.327  10.897
77569W        W45899   2.356   2.420   0.814
77570W        W45900  29.540   5.689  14.399
77571W        W45901  25.217  32.573   2.717
77572W        W45902   9.775  23.637  13.349
77573W        W45903  23.543   4.714  10.918
77574W        W45904  42.330  35.093   2.730
77575W        W45905  26.155  24.208   4.756
77576W        W45906  43.469  26.006   3.699
77577W        W45907  20.120  11.672  10.894
77578W        W45908   2.266  14.834   2.726
77579W        W45909  31.033  23.138   3.861
77580W        W45910  23.990   2.469  12.491
77581W        W45911   2.301  24.704  12.918
77582W        W45912  37.552  40.881  11.602
77583W        W45913  40.549  35.958   2.218
77584W        W45914  40.808   3.223   4.670
77585W        W45915   8.665  13.791   4.681
77586W        W45916  20.640   5.307   2.201
77587W        W45917  10.307  33.384  11.451
77588W        W45918   0.434  14.711   3.339
77589W        W45919  27.190  43.832  14.992
77590W        W45920  24.599  19.091  11.916
77591W        W45921  32.520  10.793  10.920
77592W        W45922   5.285  38.831   4.186
77593W        W45923  35.419   2.817  14.765
77594W        W45924  36.906   8.732   3.665
77595W        W45925  36.075  14.167  11.099
77596W        W45926  28.142  20.113  12.946
77597W        W45927   7.829   2.782  12.517
77598W        W45928  30.024  17.188  14.910
77599W        W45929  31.968  14.238  10.921
77600W        W45930  21.070   4.909   2.264
77601W        W45931  29.456  10.351   0.362
77602W        W45932   7.390   1.477   2.795
77603W        W45933   7.317   2.455   0.294
77604W        W45934  19.548  23.610   4.604
77605W        W45935  23.089  29.622  13.996
77606W        W45936  22.602  17.667   2.663
77607W        W45937  41.852  14.294   1.373
77608W        W45938  35.400  16.172  13.885
77609W        W45939  18.679  12.682  13.448
77610W        W45940  19.597  31.642   1.869
77611W        W45941  36.062  10.340  13.042
77612W        W45942  25.120   6.873   3.364
77613W        W45943  20.214  21.259   4.820
77614W        W45944  11.290   1.482  14.791
77615W        W45945   9.156  37.501  12.346
77616W        W45946  44.978  30.584   0.305
77617W        W45947   5.329  20.194   1.434
77618W        W45948  43.447  20.571   3.156
77619W        W45949   7.288  27.580   1.740
77620W        W45950  10.163  37.441  14.026
77621W        W45951  39.387   6.356  11.409
77622W        W45952  22.601  25.630  14.926
77623W        W45953   9.690   7.409  10.562
77624W        W45954  30.975  15.785   0.828
77625W        W45955  33.001  26.153   4.711
77626W        W45956  11.836   6.389  13.841
77627W        W45957  44.442  10.705  13.866
77628W        W45958  19.163   8.361  13.027
77629W        W45959  23.615  28.071   0.287
77630W        W45960  26.200  40.833   4.202
77631W        W45961  28.117  14.805  12.525
77632W        W45962  38.390   5.696   4.202
77633W        W45963  39.957  10.665   2.365
77634W        W45964  17.612  20.596   4.679
77635W        W45965  26.997  26.650  14.791
77636W        W45966  26.472  15.690  14.881
77637W        W45967  43.292  20.172   2.692
77638W        W45968   6.261  20.763   4.744
77639W        W45969  11.664   9.354  11.999
77640W        W45970   9.723  43.428   2.713
77641W        W45971   8.733  43.298  12.514
77642W        W45972  12.130  30.437   1.883
77643W        W45973  38.050  29.555  10.431
77644W        W45974   6.915   2.426  13.548
77645W        W45975   8.711  19.754   2.857
77646W        W45976  13.657  15.770   3.827
77647W        W45977  38.533  42.495   3.704
77648W        W45978  25.556  11.186  14.903
77649W        W45979  15.695  32.432  10.962
77650W        W45980  38.422   5.712  12.348
77651W        W45981  34.508  14.720   0.380
77652W        W45982  16.741  42.444   1.893
77653W        W45983  18.735  12.303  13.532
77654W        W45984  21.097  44.812   2.761
77655W        W45985  41.003  30.427  11.079
77656W        W45986  16.282   5.768   3.367
77657W        W45987  11.842  16.105   2.220
77658W        W45988   9.850  39.979  13.525
77659W        W45989  31.960  43.775   1.373
77660W        W45990  11.760  36.544  10.567
77661W        W45991  21.641  10.155   0.250
77662W        W45992  29.445  17.622   1.258
77663W        W45993   6.797   8.758   0.346
77664W        W45994  18.289  44.326  10.514
77665W        W45995  12.199   5.927  10.603
77666W        W45996   9.815  10.226  10.476
77667W        W45997  32.082  14.716   0.953
77668W        W45998  17.206  32.621   3.839
77669W        W45999   2.745  11.739  13.884
77670W        W46000  22.561  19.242  11.089
77671W        W46001  23.154   6.805  14.446
77672W        W46002  10.725  17.203  13.843
77673W        W46003   0.255  33.383   2.237
77674W        W46004  15.678  44.958   0.897
77675W        W46005  31.142  33.485  10.596
77676W        W46006  10.838   6.833   3.657
77677W        W46007  27.096  10.685  14.945
77678W        W46008  25.091  26.024   0.926
77679W        W46009  24.012  34.483  12.469
77680W        W46010  44.331   2.883  12.863
77681W        W46011  26.164  20.050  10.526
77682W        W46012   4.772  10.704  12.992
77683W        W46013  24.598  24.043  13.332
77684W        W46014  24.580  23.018   1.416
77685W        W46015  44.380  18.066  10.537
77686W        W46016  19.281  29.507  11.426
77687W        W46017   2.967  22.693   4.758
77688W        W46018   7.864  28.982   0.856
77689W        W46019  44.265  29.047  14.329
77690W        W46020  25.589  16.197   0.882
77691W        W46021   8.719  28.468  14.277
77692W        W46022  40.441  31.007  14.957
77693W        W46023  14.814  32.499  14.812
77694W        W46024  41.925  32.514  12.027
77695W        W46025  27.169  22.171  12.089
77696W        W46026  16.216  40.850   3.342
77697W        W46027  24.503   4.230   3.314
77698W        W46028  25.469  13.341  10.440
77699W        W46029  11.270  21.680  14.333
77700W        W46030  41.423  26.036   2.406
77701W        W46031  28.545  25.076   5.122
77702W        W46032  36.900  14.252  13.539
77703W        W46033   3.762   5.267   1.887
77704W        W46034  33.879  40.027  14.814
77705W        W46035  30.581  16.648  14.896
77706W        W46036  25.540  44.449   4.265
77707W        W46037   8.669  18.616   0.861
77708W        W46038  34.040  26.499   4.181
77709W        W46039  42.359   3.330   2.669
77710W        W46040   1.900  21.648   4.636
77711W        W46041   9.839  20.134  10.462
77712W        W46042  34.484  23.216  13.911
77713W        W46043   9.644  38.999   1.899
77714W        W46044  19.694  35.438  10.434
77715W        W46045  26.114  20.710  14.943
77716W        W46046  40.332   0.492   1.809
77717W        W46047  27.068  39.820  12.387
77718W        W46048   4.926  33.567  14.317
77719W        W46049   2.843  36.538  14.301
77720W        W46050  13.716  44.773   4.176
77721W        W46051   2.769  33.396  10.905
77722W        W46052  31.150   8.720  13.887
77723W        W46053  26.688   6.919  12.435
77724W        W46054  12.798  38.988  10.946
77725W        W46055  39.886  19.200   3.796
77726W        W46056  11.343  29.656   2.713
77727W        W46057  13.186  21.699  14.878
77728W        W46058  29.424  12.797   5.281
77729W        W46059  22.698  34.943  13.387
77730W        W46060  27.691  36.453  10.564
77731W        W46061  30.043   6.339   2.346
77732W        W46062  31.481  24.068   0.835
77733W        W46063  10.660  41.532  14.375
77734W        W46064  12.162  21.044  14.853
77735W        W46065   1.239  23.546   4.334
77736W        W46066  44.301  19.139   2.696
77737W        W46067  26.623  13.266  10.523
77738W        W46068  44.305  38.840  12.384
77739W        W46069   0.795   6.238   0.255
77740W        W46070  42.522  30.127  14.819
77741W        W46071  17.783  42.400  12.477
77742W        W46072  10.221   6.890  13.544
77743W        W46073   2.759  26.992   0.856
77744W        W46074  18.190  41.442  11.397
77745W        W46075  34.901   4.753  10.129
77746W        W46076  37.847  30.107   3.387
77747W        W46077  36.492  34.603  11.532
77748W        W46078  28.569  28.980   0.348
77749W        W46079  20.159  29.530   1.230
77750W        W46080  34.026   2.388   4.744
77751W        W46081  17.593  23.614  12.958
77752W        W46082  29.078  17.614  13.490
77753W        W46083   3.366  26.564   3.793
77754W        W46084   6.713  17.796  11.601
77755W        W46085  44.942  24.999   5.161
77756W        W46086  38.958  40.986  14.958
77757W        W46087   7.345   0.804  11.119
77758W        W46088  18.089  39.451  13.851
77759W        W46089  11.249   2.278   0.377
77760W        W46090   7.357  31.449  11.093
77761W        W46091  38.828   4.430  12.544
77762W        W46092  31.540  44.972  14.365
77763W        W46093  16.590  12.189  11.008
77764W        W46094  28.508  15.626   4.154
77765W        W46095   6.829  40.371   4.786
77766W        W46096   9.728  40.327   1.808
77767W        W46097  31.498  41.851   2.253
77768W        W46098  42.996  25.134  10.984
77769W        W46099  32.088  44.364   3.245
77770W        W46100  28.136   4.864   0.931
77771W        W46101   2.966  36.443  10.592
77772W        W46102  40.436  37.380   5.315
77773W        W46103  35.963  22.618   1.766
77774W        W46104   0.377   9.193  14.345
77775W        W46105   6.428  26.472   1.219
77776W        W46106  29.985  27.629   1.745
77777W        W46107   9.739   6.709   2.880
77778W        W46108  10.262  44.266  14.471
77779W        W46109   8.312   9.692   1.797
77780W        W46110   7.871  26.624   5.215
77781W        W46111  33.475  10.302   5.254
77782W        W46112  34.479  15.755   2.243
77783W        W46113   8.701  28.628   3.372
77784W        W46114  39.878  27.639  13.500
77785W        W46115  17.560  25.186   0.434
77786W        W46116   9.177  29.514   3.631
77787W        W46117  25.533   0.798   3.845
77788W        W46118  20.243   4.318  11.388
77789W        W46119  18.081  39.389   3.354
77790W        W46120  44.936  17.105   3.769
77791W        W46121  23.171  33.889  12.018
77792W        W46122   1.285  40.968   0.419
77793W        W46123  26.077  35.589  10.527
77794W        W46124  38.522  37.835  11.441
77795W        W46125  16.731  12.201  12.881
77796W        W46126  38.377  13.776  11.064
77797W        W46127  19.215  31.059   1.431
77798W        W46128  32.577  30.436   3.650
77799W        W46129   3.296  32.564   1.373
77800W        W46130   5.691   7.832   4.172
77801W        W46131  17.633  18.151  12.066
77802W        W46132  22.549  43.824  12.509
77803W        W46133   4.889   0.982  12.926
77804W        W46134  10.827   4.713  12.053
77805W        W46135   3.749  27.116  13.991
77806W        W46136  39.969   4.822  10.492
77807W        W46137  12.327  16.595  12.410
77808W        W46138  29.061  19.263  12.398
77809W        W46139  41.317  34.508   0.375
77810W        W46140  22.546  44.928  13.943
77811W        W46141  37.551  12.841  14.915
77812W        W46142  25.099   7.378   1.398
77813W        W46143  17.153  23.168   5.244
77814W        W46144  17.210  16.253  14.971
77815W        W46145  16.301  24.017  11.068
77816W        W46146  44.303  30.047   3.651
77817W        W46147  41.374  27.537  14.303
77818W        W46148   3.447  39.350  12.972
77819W        W46149  25.630  34.936   2.740
77820W        W46150  31.419  24.057  10.458
77821W        W46151  16.655   5.301   0.436
77822W        W46152  16.181  39.989  14.801
77823W        W46153  24.713  26.072  14.434
77824W        W46154   5.815   7.888   4.836
77825W        W46155  10.649   6.819  13.940
77826W        W46156  13.199  32.051  12.997
77827W        W46157  28.592  16.281   4.833
77828W        W46158   8.181   2.403   3.250
77829W        W46159  14.752  30.538   2.823
77830W        W46160  25.675  24.087   5.095
77831W        W46161  35.036   0.292  12.570
77832W        W46162  16.078  30.971  13.930
77833W        W46163  16.173  37.517  13.454
77834W        W46164  41.835   0.935   1.925
77835W        W46165  11.639  32.115   0.331
77836W        W46166  33.034  26.208  12.000
77837W        W46167  30.426  36.459  14.453
77838W        W46168  20.559  39.033  10.494
77839W        W46169  25.540   4.708  12.013
77840W        W46170  33.595  35.543  11.110
77841W        W46171  19.589  43.836   3.653
77842W        W46172  20.117  34.071  12.373
77843W        W46173  16.096  40.971  11.068
77844W        W46174   4.741  27.117  11.541
77845W        W46175  40.847   2.818   1.446
77846W        W46176  21.753  41.891   4.128
77847W        W46177  32.948  31.478   0.826
77848W        W46178  21.731  11.305  13.388
77849W        W46179  31.088  37.960   0.741
77850W        W46180  12.213  21.167  11.590
77851W        W46181  41.461   8.880   1.702
77852W        W46182  21.558  39.912  14.420
77853W        W46183  15.817   0.377   2.716
77854W        W46184  37.534   0.460  14.376
77855W        W46185  29.037  37.850  11.564
77856W        W46186  17.571   6.710   1.717
77857W        W46187  14.152   3.259  10.447
77858W        W46188  41.461  29.478  11.487
77859W        W46189  30.116  35.976  13.465
77860W        W46190  21.714   2.921   4.839
77861W        W46191   0.473  33.560  12.048
77862W        W46192  14.803  29.457   4.700
77863W        W46193  26.043  33.955   4.607
77864W        W46194  44.922  17.079   0.758
77865W        W46195   7.193  39.507  14.440
77866W        W46196  41.368  20.271   0.412
77867W        W46197  25.532  28.495   4.838
77868W        W46198  13.669  29.005   0.816
77869W        W46199   6.299  30.064   4.751
77870W        W46200  32.914  35.987   1.784
77871W        W46201  16.798  20.122   1.309
77872W        W46202  42.291  21.721  14.900
77873W        W46203   1.413  23.510   1.213
77874W        W46204  44.414  42.436  14.915
77875W        W46205   7.290  31.491   3.185
77876W        W46206  39.313  32.139  10.576
77877W        W46207  42.850  23.725   1.750
77878W        W46208  24.690  13.642  12.068
77879W        W46209   3.268  30.449   3.180
77880W        W46210  41.429  30.047   3.309
77881W        W46211  33.918   3.271   3.189
77882W        W46212  14.248  30.094   3.631
77883W        W46213   9.708  43.380   3.279
77884W        W46214  44.910   5.342  14.334
77885W        W46215   0.812  36.086   1.738
77886W        W46216   4.715  18.068   3.160
77887W        W46217  19.134  25.120  10.573
77888W        W46218  19.731   0.890  13.432
77889W        W46219  25.126  23.032   4.623
77890W        W46220  22.671   0.956   2.191
77891W        W46221   3.750   9.812  11.467
77892W        W46222   4.775  18.575   4.658
77893W        W46223  11.336  16.801   3.844
77894W        W46224   8.376  25.470   2.755
77895W        W46225  23.148  21.230  11.104
77896W        W46226  42.390  11.153  12.470
77897W        W46227  20.056  11.306  11.863
77898W        W46228  38.864  26.046   0.364
77899W        W46229  38.434   3.424   1.759
77900W        W46230  43.904   1.472  13.437
77901W        W46231  20.179  37.078  10.583
77902W        W46232   0.746   3.294  13.530
77903W        W46233  13.813  32.464  11.882
77904W        W46234  11.749  24.984  10.107
77905W        W46235  16.275  37.404  14.781
77906W        W46236  42.014   2.747  11.021
77907W        W46237  39.460  20.181  11.042
77908W        W46238  30.554   5.870  10.445
77909W        W46239  16.086  22.714   4.680
77910W        W46240  20.180  38.421  13.847
77911W        W46241  40.954  19.285  13.843
77912W        W46242  40.937  10.702   0.282
77913W        W46243   5.362   3.901   0.433
77914W        W46244  22.697   7.189  13.341
77915W        W46245  10.745  13.307  14.866
77916W        W46246  23.632  16.703   1.294
77917W        W46247  29.080   1.942  11.865
77918W        W46248   5.812  25.492  10.538
77919W        W46249   3.425  44.773   3.800
77920W        W46250  38.960   0.851   4.248
77921W        W46251  12.684  19.107  13.812
77922W        W46252  37.574  10.849   4.778
77923W        W46253  33.415  13.700   1.838
77924W        W46254  34.908  20.571   0.318
77925W        W46255  10.335   9.200  13.454
77926W        W46256  34.559  15.259   2.344
77927W        W46257  34.921  20.153   0.779
77928W        W46258  32.907  17.086   3.231
77929W        W46259  17.065  41.010   2.740
77930W        W46260  37.441  25.505  12.532
77931W        W46261  41.867  19.705   0.868
77932W        W46262  15.733  31.941   2.412
77933W        W46263  39.494  43.343  10.927
77934W        W46264  33.485  14.670  13.330
77935W        W46265  30.589  13.124   1.722
77936W        W46266  29.922  22.170   4.598
77937W        W46267   9.328   9.210   0.338
77938W        W46268  13.833  25.091  11.098
77939W        W46269  20.111   0.380  12.005
77940W        W46270  13.152   0.401   1.824
77941W        W46271  34.112  10.371  13.310
77942W        W46272   4.878  34.108   5.141
77943W        W46273  41.930  10.770  12.485
77944W        W46274  33.923  25.992  11.396
77945W        W46275  41.394  41.878   0.334
77946W        W46276  25.086  16.127  11.119
77947W        W46277  21.040  36.443  14.985
77948W        W46278  27.079  27.013  12.529
77949W        W46279  32.442  22.055  14.510
77950W        W46280  42.473  39.477   0.930
77951W        W46281  10.187  37.450  12.372
77952W        W46282  23.184   9.806   1.374
77953W        W46283   4.395  30.612  14.444
77954W        W46284  33.959  33.580   2.695
77955W        W46285   2.348  29.605   3.366
77956W        W46286  41.499  27.539  12.542
77957W        W46287  29.481  31.067  14.897
77958W        W46288  43.848   3.433   2.249
77959W        W46289  43.343  45.000  11.385
77960W        W46290   3.796  12.781   4.626
77961W        W46291  41.828  30.469   2.362
77962W        W46292   1.958   6.814  14.495
77963W        W46293  40.317  22.507   0.740
77964W        W46294  39.970   1.881   3.688
77965W        W46295  32.087  18.294  12.981
77966W        W46296  24.018  40.322  11.481
77967W        W46297  19.709   8.668  13.803
77968W        W46298  18.165   9.860   2.710
77969W        W46299  30.452   4.785  14.444
77970W        W46300  11.687   5.202  14.827
77971W        W46301  44.412  20.252  13.537
77972W        W46302   0.756  37.937   2.777
77973W        W46303   0.799  11.264   4.788
77974W        W46304  13.677  15.598  14.378
77975W        W46305   6.705  14.143  14.343
77976W        W46306  23.197  24.497  11.062
77977W        W46307  32.970  41.024  10.992
77978W        W46308  10.677  18.581  14.365
77979W        W46309  40.548   2.304  12.925
77980W        W46310  41.355  11.360   3.296
77981W        W46311  41.821   3.235   3.274
77982W        W46312  29.098   9.218   3.151
77983W        W46313  19.118  29.432   5.113
77984W        W46314  36.573  40.907  13.538
77985W        W46315  37.487  15.708   4.822
77986W        W46316  28.436  44.302   0.292
77987W        W46317  13.165  39.459   1.888
77988W        W46318  31.560  35.863  13.493
77989W        W46319  27.038  23.669   0.465
77990W        W46320  14.689  27.068  11.472
77991W        W46321  29.110  29.468   0.377
77992W        W46322  30.037  20.676   0.802
77993W        W46323  30.998  29.991   0.780
77994W        W46324  26.505  24.211  12.541
77995W        W46325  12.196  39.501  11.604
77996W        W46326   0.352   0.942   2.192
77997W        W46327   3.791  30.645  11.376
77998W        W46328  21.166  32.954   3.820
77999W        W46329  20.267  28.129  10.552
78000W        W46330   1.427  25.529  11.925
78001W        W46331  14.727  12.792   5.171
78002W        W46332  30.481  24.068  13.048
78003W        W46333  16.748   7.865   4.127
78004W        W46334  19.106   5.736   2.300
78005W        W46335   2.458  35.003   0.943
78006W        W46336  30.960  31.137   3.852
78007W        W46337  10.153  12.697   1.316
78008W        W46338   1.752   9.800  11.461
78009W        W46339   1.773   8.800   3.782
78010W        W46340   0.449  11.318  11.474
78011W        W46341  13.260  14.209   2.330
78012W        W46342  13.285   8.398  14.770
78013W        W46343  11.623  28.615   4.230
78014W        W46344  35.086  14.620  14.802
78015W        W46345   2.913  22.646  10.602
78016W        W46346  38.009  29.481   2.206
78017W        W46347  10.190  33.040  12.454
78018W        W46348  29.528  29.468   5.127
78019W        W46349  32.116  32.504  12.067
78020W        W46350  24.492  20.269  12.403
78021W        W46351  20.162  31.635  14.891
78022W        W46352  25.491  35.014  14.856
78023W        W46353  34.011  44.452  12.436
78024W        W46354  10.147  24.636   1.428
78025W        W46355  30.558  38.537   0.736
78026W        W46356  28.978  32.015   4.619
78027W        W46357  35.584   8.816  12.848
78028W        W46358  30.133  20.556   2.416
78029W        W46359  18.091   6.225   0.268
78030W        W46360  40.368  40.845  14.031
78031W        W46361   8.341  41.833   1.770
78032W        W46362  29.062  33.938   9.956
78033W        W46363   9.854  33.085   2.317
78034W        W46364  10.217   7.829   5.248
78035W        W46365  32.625  42.992  11.445
78036W        W46366  20.739  28.492  12.836
78037W        W46367  22.236  40.865   1.769
78038W        W46368  32.096  38.441  14.506
78039W        W46369  20.160  21.198  14.299
78040W        W46370  22.175  20.043  13.525
78041W        W46371  44.484  44.894   4.282
78042W        W46372   5.869  17.292  14.285
78043W        W46373  41.026  31.923  14.914
78044W        W46374  29.091  39.063   0.793
78045W        W46375  12.266  33.574   1.890
78046W        W46376  23.093  28.498   0.325
78047W        W46377  36.364  41.488   2.236
78048W        W46378  10.158   4.294   4.194
78049W        W46379  10.359  19.642   4.598
78050W        W46380   6.896  38.933  10.936
78051W        W46381   6.282  16.108   4.654
78052W        W46382   0.789  13.795   3.664
78053W        W46383  31.414  18.620  14.928
78054W        W46384  18.151  38.535   0.777
78055W        W46385  23.608  40.019   3.793
78056W        W46386  23.699   5.706   0.841
78057W        W46387  36.850  29.640  13.534
78058W        W46388  18.250  11.630  10.412
78059W        W46389  27.062   3.796   4.246
78060W        W46390  16.755  10.736   0.306
78061W        W46391  12.227  42.875   1.900
78062W        W46392  22.548  32.009  14.420
78063W        W46393  38.382   2.842   1.229
78064W        W46394  19.220  33.498   1.793
78065W        W46395  26.646  34.466  13.866
78066W        W46396  21.076  43.876  14.784
78067W        W46397  23.523  29.954  14.843
78068W        W46398  23.691   5.859   2.893
78069W        W46399   0.926   9.260   3.339
78070W        W46400  19.678  30.987  13.979
78071W        W46401  36.470  41.932  12.070
78072W        W46402  10.155  31.025  14.381
78073W        W46403   2.917  26.141   1.740
78074W        W46404  23.187  44.759  11.464
78075W        W46405  32.603   5.798   2.275
78076W        W46406  14.630  30.514  12.987
78077W        W46407   7.797  24.603  12.883
78078W        W46408  14.622  42.827  10.423
78079W        W46409  24.082  25.191  11.062
78080W        W46410  23.700   9.776   2.679
78081W        W46411  28.591  33.575  13.794
78082W        W46412  36.529  16.250   0.334
78083W        W46413  13.188  10.237  11.863
78084W        W46414  12.190  20.667  11.121
78085W        W46415   2.324  41.911  12.913
78086W        W46416  13.799  36.364  10.911
78087W        W46417  40.348  41.315   4.273
78088W        W46418  22.013  37.886  14.508
78089W        W46419   6.322  38.923  11.418
78090W        W46420   4.944  18.779  10.429
78091W        W46421  24.118  26.050  12.401
78092W        W46422  27.018  32.125  11.043
78093W        W46423   5.193  17.279   3.864
78094W        W46424  29.080  37.457   0.807
78095W        W46425  42.032  17.151   2.317
78096W        W46426  31.558  16.220  11.953
78097W        W46427  13.318  13.154   2.885
78098W        W46428  29.142  26.691   2.867
78099W        W46429  41.034  24.046   3.633
78100W        W46430  24.594  34.092   1.712
78101W        W46431  38.046  38.833  12.873
78102W        W46432  25.149  19.551   1.892
78103W        W46433  31.619   3.432  13.940
78104W        W46434  13.742  26.113   0.868
78105W        W46435  29.574  35.964  13.509
78106W        W46436  16.072  24.026  10.157
78107W        W46437  17.274  29.462  14.348
78108W        W46438  10.344   8.216   4.772
78109W        W46439   3.909  44.767  11.079
78110W        W46440  26.181   9.231   0.306
78111W        W46441  35.361  16.681   0.302
78112W        W46442  39.963   7.795   2.358
78113W        W46443  14.283  39.065  13.544
78114W        W46444  29.928  28.062  11.031
78115W        W46445   0.845  37.391   5.104
78116W        W46446   2.356  26.201   0.304
78117W        W46447  14.241  21.606  11.439
78118W        W46448  17.114   4.417   4.197
78119W        W46449   8.860   6.823  10.498
78120W        W46450   4.808  20.635  14.281
78121W        W46451  38.996  29.969   1.219
78122W        W46452  39.325  43.966  12.456
78123W        W46453  36.006  19.213  10.920
78124W        W46454   0.863   8.363  11.017
78125W        W46455  30.487  27.487   4.166
78126W        W46456  13.630  23.622  13.054
78127W        W46457  40.455  25.541   4.204
78128W        W46458  24.693  37.858  14.296
78129W        W46459  39.902  36.400   0.331
78130W        W46460   6.246  27.553  14.351
78131W        W46461  39.816   7.355  11.898
78132W        W46462  15.173  25.115  12.034
78133W        W46463  33.496   5.208   3.776
78134W        W46464  39.980  28.469   1.301
78135W        W46465  41.462   0.901   1.772
78136W        W46466  26.055  24.648   4.220
78137W        W46467  28.513  12.282   0.890
78138W        W46468  42.864  25.657   4.202
78139W        W46469  35.446  10.715   4.637
78140W        W46470   3.417  13.628  14.360
78141W        W46471  23.067  40.966  13.442
78142W        W46472  24.216  17.768  11.559
78143W        W46473  29.618  32.980  12.378
78144W        W46474  42.357  32.578  11.600
78145W        W46475  13.615   5.733  11.520
78146W        W46476  37.980  40.995  11.411
78147W        W46477  15.326   5.718   0.783
78148W        W46478  25.594  15.747  14.021
78149W        W46479   9.700  23.608   1.883
78150W        W46480  35.450  14.183  12.973
78151W        W46481   0.972  43.439   0.912
78152W        W46482  23.494  18.105   0.864
78153W        W46483  35.422  11.227  11.873
78154W        W46484  15.580  14.171   3.761
78155W        W46485  32.420  22.996   2.225
78156W        W46486  12.305  44.377  10.465
78157W        W46487  25.579  34.063  11.932
78158W        W46488  18.623  12.669  11.990
78159W        W46489  23.151  34.390   1.915
78160W        W46490  10.852  36.400   1.383
78161W        W46491  17.708  40.834  12.524
78162W        W46492  16.078  24.629  14.931
78163W        W46493   2.278  24.090  11.551
78164W        W46494   9.383   7.277  12.575
78165W        W46495   6.909  44.845   0.380
78166W        W46496  25.981  16.093   0.482
78167W        W46497  19.720  19.159   4.197
78168W        W46498   9.813   9.755  11.973
78169W        W46499  31.450  19.100   0.475
78170W        W46500  28.132  29.968  12.505
78171W        W46501  19.099  31.468   2.183
78172W        W46502   3.758  20.263   0.410
78173W        W46503  34.066  16.613   3.706
78174W        W46504  25.472  15.819   4.276
78175W        W46505  35.431  36.421   1.874
78176W        W46506  19.257  40.370  11.910
78177W        W46507  15.082   2.846  12.542
78178W        W46508  21.210  25.188  13.394
78179W        W46509  38.821  27.594  10.893
78180W        W46510  41.471  35.521  12.360
78181W        W46511  10.714  37.339   5.126
78182W        W46512   8.372  32.555   1.862
78183W        W46513  37.449  24.523  11.609
78184W        W46514  23.642   9.359  13.896
78185W        W46515   4.915   6.221   0.873
78186W        W46516   2.247   1.837   3.220
78187W        W46517  32.936  29.438  11.093
78188W        W46518  39.929  23.042   3.717
78189W        W46519  44.821  15.822   4.788
78190W        W46520  15.624  31.432   2.732
78191W        W46521   9.258   2.236   2.254
78192W        W46522  33.519  22.677  12.443
78193W        W46523  24.517  39.498  10.475
78194W        W46524   0.371  18.179   3.658
78195W        W46525  19.691   8.767  11.878
78196W        W46526  30.655   0.764   1.821
78197W        W46527  19.537  16.590   1.784
78198W        W46528  15.130  15.107   2.403
78199W        W46529   5.284  33.571   4.149
78200W        W46530  28.992  27.491  12.095
78201W        W46531  36.842  23.688  14.913
78202W        W46532  19.613   7.284   1.826
78203W        W46533   8.889  41.859  13.374
78204W        W46534  16.138  24.191   2.714
78205W        W46535  35.105  37.855   1.374
78206W        W46536  35.940   0.850   3.826
78207W        W46537  27.158  21.660   0.736
78208W        W46538  29.109  21.651  14.030
78209W        W46539  27.596  23.000   4.732
78210W        W46540  36.912  32.521   0.347
78211W        W46541  12.294  15.114   0.738
78212W        W46542   6.378  24.042  11.877
78213W        W46543  42.803   9.270  14.031
78214W        W46544  24.568  22.712   2.806
78215W        W46545  43.809  17.145  13.049
78216W        W46546  33.055  21.088   4.305
78217W        W46547   4.828  35.861  12.955
78218W        W46548  26.496  10.210  14.969
78219W        W46549  19.538  16.174   1.694
78220W        W46550   6.312  23.691  14.331
78221W        W46551   2.748  41.007   3.178
78222W        W46552  28.073  34.492  10.922
78223W        W46553   6.183  10.652   3.864
78224W        W46554  14.275  36.531  14.026
78225W        W46555   7.805   9.762   1.917
78226W        W46556  18.269   2.803   4.264
78227W        W46557  33.580  42.949  12.829
78228W        W46558   4.884  19.680  12.965
78229W        W46559   8.723   5.272  12.461
78230W        W46560   1.341  20.100   0.477
78231W        W46561  34.943  12.802  14.330
78232W        W46562  27.588  26.960  13.326
78233W        W46563  31.490   8.769   4.239
78234W        W46564   7.856  21.052  13.465
78235W        W46565   4.936  42.979  13.415
78236W        W46566  33.476   5.288   2.711
78237W        W46567  22.154   2.340   1.726
78238W        W46568  19.575  28.030   3.847
78239W        W46569  10.252  24.685   2.898
78240W        W46570  22.732  36.352   5.220
78241W        W46571  38.832   5.746  11.499
78242W        W46572   5.422  43.860   1.915
78243W        W46573   1.283  17.157   1.247
78244W        W46574  39.921  24.663   1.814
78245W        W46575  25.985  35.890   0.414
78246W        W46576  13.174  17.191   3.310
78247W        W46577  13.239  21.173  11.059
78248W        W46578  10.673  30.445  10.966
78249W        W46579   1.789  34.571   3.666
78250W        W46580  26.569   6.686  10.624
78251W        W46581  26.137   1.464   2.393
78252W        W46582  37.489  29.528   0.386
78253W        W46583  41.520  32.064  14.465
78254W        W46584   2.279  43.271   4.757
78255W        W46585  44.885  42.946   3.364
78256W        W46586  21.680  22.688  10.594
78257W        W46587  20.725  10.223  12.344
78258W        W46588  30.928  21.670  11.533
78259W        W46589   3.771  42.978  14.969
78260W        W46590  36.055  36.515   1.788
78261W        W46591  35.973  43.793  10.454
78262W        W46592  41.352   3.234   1.329
78263W        W46593  21.715  16.590  10.984
78264W        W46594   2.751  42.877  10.445
78265W        W46595  42.302  13.218   1.438
78266W        W46596  14.173  11.345   1.858
78267W        W46597  22.615  44.916  14.859
78268W        W46598   4.363  35.444   0.929
78269W        W46599  24.112  32.601   3.330
78270W        W46600  29.113  17.200   1.399
78271W        W46601   7.314  12.659  12.895
78272W        W46602  18.620  12.288  12.347
78273W        W46603  11.295   7.766  14.006
78274W        W46604   5.847  22.544   3.704
78275W        W46605  34.497  19.241   4.237
78276W        W46606  26.050  22.575  12.905
78277W        W46607  11.286  38.936  12.957
78278W        W46608   6.752  42.302   0.359
78279W        W46609  15.598  37.406   3.844
78280W        W46610  21.728  22.021  10.548
78281W        W46611   7.710  25.663   2.285
78282W        W46612  16.072   4.923  13.966
78283W        W46613  21.017  25.684  10.566
78284W        W46614  43.850  21.073  11.111
78285W        W46615  35.488  41.509   4.332
78286W        W46616  16.732   5.253  10.487
78287W        W46617  40.324   9.256   3.239
78288W        W46618  17.259  22.116   3.870
78289W        W46619  28.143   2.903   3.347
78290W        W46620  11.746  30.450  12.089
78291W        W46621  24.158  37.012  12.952
78292W        W46622  18.685  44.969  13.408
78293W        W46623  30.613   4.397  12.029
78294W        W46624  29.566  34.577   1.400
78295W        W46625   0.395  31.089   3.856
78296W        W46626  36.521  13.818   1.890
78297W        W46627  12.348  10.815  11.020
78298W        W46628  14.604  33.424   2.768
78299W        W46629  27.090  10.266  13.807
78300W        W46630   6.775  30.142   4.132
78301W        W46631  23.192  35.514  10.565
78302W        W46632   0.968   1.914  12.381
78303W        W46633  37.537  32.417  11.878
78304W        W46634  13.632  22.734  10.439
78305W        W46635  20.595  15.618   4.254
78306W        W46636  20.058  19.281  11.613
78307W        W46637  12.321  14.303   2.182
78308W        W46638  43.004  41.383  11.597
78309W        W46639   9.729  13.691   3.182
78310W        W46640  40.526  28.034  14.859
78311W        W46641  26.105  43.936   4.818
78312W        W46642   4.284   3.247  11.936
78313W        W46643  43.426  14.715   1.901
78314W        W46644  33.084  39.458   3.241
78315W        W46645   1.395   2.923  12.051
78316W        W46646  22.236  43.995   2.827
78317W        W46647   9.306  28.975  13.488
78318W        W46648  16.716   5.786   2.722
78319W        W46649  32.096   6.913  12.565
78320W        W46650   2.277  38.401   3.836
78321W        W46651  44.303  18.571   0.781
78322W        W46652  41.799  39.540  12.520
78323W        W46653  18.642  31.945  12.458
78324W        W46654  25.197   9.819   5.155
78325W        W46655  43.862  34.089   3.710
78326W        W46656  22.693  22.722  13.007
78327W        W46657  34.478  10.879  12.440
78328W        W46658  36.092  36.477  12.018
78329W        W46659  15.772  14.619  12.003
78330W        W46660  11.367  26.700   2.343
78331W        W46661  13.801   7.174  14.346
78332W        W46662   6.405   8.773   4.697
78333W        W46663  24.555  11.665   3.696
78334W        W46664  25.092  18.699   3.784
78335W        W46665  29.937   8.803   1.385
78336W        W46666  14.787   7.854  13.461
78337W        W46667  40.832  31.098   2.359
78338W        W46668  18.692   3.743   4.616
78339W        W46669  16.641  29.435  12.866
78340W        W46670   4.846  19.598  10.412
78341W        W46671   2.286  21.732  12.369
78342W        W46672  11.625  30.121   4.203
78343W        W46673  24.084   0.876   2.395
78344W        W46674  34.492  37.522   2.686
78345W        W46675  42.511  29.949  11.420
78346W        W46676   9.351   1.338  10.634
78347W        W46677   0.898   1.907  10.143
78348W        W46678  21.653   7.407  13.873
78349W        W46679  28.145  41.496  12.873
78350W        W46680  24.009  22.515  10.055
78351W        W46681  40.853  15.672   4.772
78352W        W46682  29.086  12.616   4.734
78353W        W46683  22.233  15.667  13.023
78354W        W46684  30.610  29.110  10.976
78355W        W46685  15.289  16.635   3.257
78356W        W46686  41.824  19.560  11.488
78357W        W46687  37.865  13.782  14.422
78358W        W46688  28.497  21.050   0.439
78359W        W46689   1.788   8.876  11.946
78360W        W46690   5.769  19.235  12.446
78361W        W46691  18.559  20.121  10.996
78362W        W46692   8.839  18.239  12.538
78363W        W46693  35.100  11.340  12.003
78364W        W46694  32.108  41.367   3.155
78365W        W46695  44.389   3.337  14.426
78366W        W46696  33.547  27.173  11.004
78367W        W46697  22.643  21.582   0.258
78368W        W46698  14.599   8.301  12.492
78369W        W46699  21.023  14.686  12.445
78370W        W46700  38.442  26.024   0.777
78371W        W46701   4.815  39.322   1.340
78372W        W46702   8.388  34.458  11.605
78373W        W46703  40.971   4.753   0.396
78374W        W46704  11.815  30.060  14.361
78375W        W46705  26.548   1.856  14.004
78376W        W46706  35.490  29.121  14.765
78377W        W46707   8.763  43.489  10.537
78378W        W46708  16.631  21.646   2.179
78379W        W46709   5.241  32.048  14.492
78380W        W46710  42.354   4.449  11.053
78381W        W46711  43.946   1.324  11.910
78382W        W46712   2.292  20.689  10.581
78383W        W46713  23.021   2.900   0.456
78384W        W46714  41.992  16.744  12.367
78385W        W46715  27.606  39.424   1.426
78386W        W46716  36.512   0.365  11.442
78387W        W46717  38.822  34.448  10.908
78388W        W46718  12.623  38.034  13.059
78389W        W46719  14.204  14.755  14.408
78390W        W46720  17.173  13.679  13.384
78391W        W46721  12.721  28.110  12.914
78392W        W46722  17.071  10.223  11.990
78393W        W46723  26.532  20.557  11.103
78394W        W46724  23.595  14.736  14.990
78395W        W46725  44.449  16.164  12.405
78396W        W46726  42.306  29.056   0.788
78397W        W46727   8.871  41.517  13.387
78398W        W46728  40.366  23.180   4.703
78399W        W46729  42.777  27.114   2.256
78400W        W46730  28.670  37.472   1.920
78401W        W46731  37.465  10.262   4.215
78402W        W46732  40.862  33.560   1.276
78403W        W46733   4.380  27.988  13.503
78404W        W46734  14.126  37.489   5.246
78405W        W46735  12.837  35.524   2.208
78406W        W46736  27.017  35.093   2.757
78407W        W46737  31.426  30.449   2.861
78408W        W46738  36.991   8.290  10.478
78409W        W46739  42.339  18.217  11.870
78410W        W46740  12.350  30.430   2.282
78411W        W46741   9.254  29.626  12.972
78412W        W46742  17.739  36.460  11.046
78413W        W46743  36.975  32.510   1.429
78414W        W46744  22.176  40.020  11.054
78415W        W46745  29.670  18.206   0.946
78416W        W46746  20.641  22.615   3.152
78417W        W46747  27.055   9.386   5.305
78418W        W46748   8.299  42.369  12.386
78419W        W46749  43.861  33.076  11.597
78420W        W46750  31.500   4.882  14.930
78421W        W46751   9.282   6.807   1.332
78422W        W46752  38.007  44.879  13.869
78423W        W46753  12.170  35.044   3.323
78424W        W46754  22.028  24.624  13.345
78425W        W46755  14.606  32.501  11.109
78426W        W46756  35.865  25.060   2.827
78427W        W46757  29.649  43.841  10.444
78428W        W46758  15.114  43.923   4.821
78429W        W46759  43.325  29.563  11.382
78430W        W46760  43.820  33.438  11.113
78431W        W46761  42.487  42.935  13.893
78432W        W46762  30.438  10.298   1.719
78433W        W46763  33.125  19.215   0.431
78434W        W46764  31.511  32.440  11.892
78435W        W46765  14.202  36.466   4.238
78436W        W46766  14.246  17.567  10.417
78437W        W46767   4.815   0.927   4.709
78438W        W46768  29.137  27.681  13.869
78439W        W46769   8.199  40.329   2.369
78440W        W46770  16.738  22.123   1.819
78441W        W46771  26.522   9.685   3.252
78442W        W46772  17.751   2.787  14.428
78443W        W46773   4.890  30.998  11.994
78444W        W46774  31.989  10.826  11.979
78445W        W46775  17.113   8.894  12.002
78446W        W46776   5.885  25.049   2.400
78447W        W46777  21.723  31.623   3.863
78448W        W46778  27.035  39.863   3.241
78449W        W46779  31.991   0.865   5.151
78450W        W46780  40.996  31.524  10.464
78451W        W46781   6.416  24.642  10.905
78452W        W46782   9.154  33.495   3.189
78453W        W46783  20.234  27.118   3.767
78454W        W46784   0.922  15.752  10.414
78455W        W46785  15.265   9.166  13.867
78456W        W46786  19.137  23.031  11.584
78457W        W46787   6.693  12.683  10.464
78458W        W46788  32.027  32.465   1.727
78459W        W46789  16.107  13.607  13.351
78460W        W46790  32.419   4.252   1.771
78461W        W46791  20.155  30.453  13.949
78462W        W46792  38.511   4.875   0.742
78463W        W46793   3.944   4.698   2.875
78464W        W46794  26.002  42.024   4.283
78465W        W46795  23.103   0.366   1.218
78466W        W46796  28.063  33.059  14.358
78467W        W46797  43.989  40.037  11.984
78468W        W46798  20.188  13.214   1.869
78469W        W46799  29.101  25.631   1.823
78470W        W46800   5.298  14.827   0.792
78471W        W46801   5.350  13.729  12.007
78472W        W46802   2.958  18.130  13.801
78473W        W46803   3.714   1.930   9.962
78474W        W46804   5.237  38.059   5.273
78475W        W46805  36.456  14.730   0.805
78476W        W46806  34.412  17.213  13.876
78477W        W46807  29.484  42.938  13.987
78478W        W46808  26.076  33.998  13.010
78479W        W46809  22.044  43.500  12.088
78480W        W46810  32.583  26.166  13.452
78481W        W46811  12.221   8.342   1.707
78482W        W46812  42.418  29.576   3.327
78483W        W46813  36.574  39.810  13.791
78484W        W46814   8.373  26.027   2.216
78485W        W46815  20.678  16.803   0.798
78486W        W46816  16.135   4.853   1.396
78487W        W46817  19.624  44.856  14.860
78488W        W46818  17.304  16.667  11.408
78489W        W46819  44.505  33.095   1.437
78490W        W46820  31.933  17.663   2.208
78491W        W46821  31.979  25.049   0.263
78492W        W46822   6.812  16.249  11.582
78493W        W46823   3.758  13.800  10.564
78494W        W46824   9.745   5.823  10.959
78495W        W46825  19.148  29.102  12.895
78496W        W46826   9.834  40.304   0.304
78497W        W46827  38.054  29.466  11.984
78498W        W46828  12.629  27.054   4.275
78499W        W46829  44.974  21.189  13.424
78500W        W46830  42.421  12.732  11.529
78501W        W46831  28.459   9.753   3.754
78502W        W46832  19.152  13.182   3.253
78503W        W46833  17.225  27.141   4.825
78504W        W46834  22.055  30.020  14.423
78505W        W46835  28.170  20.759  13.963
78506W        W46836  42.923   3.834  12.386
78507W        W46837   9.684   2.929   1.443
78508W        W46838  41.927  18.183   0.935
78509W        W46839   3.767   4.836  10.988
78510W        W46840   6.311  11.355   1.698
78511W        W46841  21.647   1.383   4.122
78512W        W46842  10.700  30.491  13.365
78513W        W46843   7.221  19.666   4.126
78514W        W46844  44.913   6.342  11.021
78515W        W46845  41.975   3.845   2.679
78516W        W46846  25.661   8.834  12.840
78517W        W46847  17.565   5.291   0.366
78518W        W46848  19.221   8.813   0.445
78519W        W46849  23.119  21.584   0.303
78520W        W46850  22.063  18.631   3.784
78521W        W46851  23.588  19.719  10.432
78522W        W46852  32.542   8.326  11.907
78523W        W46853   5.214  14.106  13.013
78524W        W46854  25.638  15.297  11.442
78525W        W46855  42.313  36.415  12.404
78526W        W46856  17.180  31.544   0.793
78527W        W46857  15.274  31.418   1.875
78528W        W46858  39.989   5.273  12.462
78529W        W46859  42.446   0.895   0.364
78530W        W46860  11.363   7.840  11.455
78531W        W46861  33.891  16.271   0.921
78532W        W46862   0.376   0.461  12.525
78533W        W46863   9.823  43.778   4.280
78534W        W46864  38.919   2.235  12.863
78535W        W46865  24.170  18.090  12.917
78536W        W46866  26.613  15.269  14.287
78537W        W46867  38.849  38.937  11.090
78538W        W46868  34.967   8.869   1.908
78539W        W46869  31.142  30.981  14.775
78540W        W46870   6.890   6.357  11.918
78541W        W46871  43.861  13.195   3.854
78542W        W46872  10.804  20.097  12.932
78543W        W46873  10.809  29.636   3.705
78544W        W46874  35.430  35.969   2.180
78545W        W46875  11.834  31.027  10.467
78546W        W46876  21.553  30.055  10.440
78547W        W46877  18.111  17.234   4.704
78548W        W46878  32.600  40.019  12.356
78549W        W46879  26.620  11.720   4.651
78550W        W46880   2.445  28.669   0.777
78551W        W46881  32.952  26.175  11.035
78552W        W46882   5.422  27.194   4.348
78553W        W46883  17.561  37.003  14.882
78554W        W46884  35.549  32.608   0.279
78555W        W46885  42.856   2.960   2.265
78556W        W46886  33.463  24.605  13.969
78557W        W46887  13.780   5.893  14.378
78558W        W46888  15.659  23.529   0.378
78559W        W46889  42.783  39.876   2.754
78560W        W46890  35.006  30.101   1.402
78561W        W46891  13.305   6.404   4.267
78562W        W46892   3.862  28.145   1.865
78563W        W46893  14.786   2.912   1.328
78564W        W46894  43.977   5.810  14.330
78565W        W46895  17.213  30.627   2.225
78566W        W46896  31.533  34.608  13.921
78567W        W46897  16.091   1.409  13.026
78568W        W46898   8.780  30.059   4.264
78569W        W46899  17.641  29.612   3.181
78570W        W46900  35.057  38.042   4.332
78571W        W46901  31.925  43.455  11.019
78572W        W46902  40.491  18.629  12.863
78573W        W46903  31.034   9.355   1.832
78574W        W46904  11.730  16.265  14.854
78575W        W46905  35.861  18.137   1.373
78576W        W46906   7.883  19.116  11.117
78577W        W46907  28.099   0.357  11.529
78578W        W46908  21.211   5.808  12.374
78579W        W46909   6.206  20.210  12.854
78580W        W46910  31.491  38.840   4.615
78581W        W46911  15.279  24.630   0.862
78582W        W46912  27.470  37.964   4.641
78583W        W46913  39.959  37.080  12.980
78584W        W46914  22.110  13.276  13.795
78585W        W46915   3.792   6.375  10.052
78586W        W46916  26.993  18.718   1.806
78587W        W46917  31.020  18.151   4.198
78588W        W46918  29.006   6.806   3.757
78589W        W46919   5.803  39.036   1.287
78590W        W46920  18.134  16.133   2.316
78591W        W46921  13.153  15.117   0.848
78592W        W46922  31.971  13.283   3.232
78593W        W46923  44.924  26.560  13.384
78594W        W46924  20.567  12.782   0.758
78595W        W46925   4.882   5.925  12.862
78596W        W46926  32.116  41.523   0.274
78597W        W46927  16.256  17.679   4.701
78598W        W46928  38.891  11.770  14.821
78599W        W46929  33.584  39.534  12.837
78600W        W46930  32.513  37.496  11.471
78601W        W46931  39.424   8.745  10.500
78602W        W46932  24.077  24.185   1.394
78603W        W46933  13.657  21.087  12.047
78604W        W46934  16.770  15.791  14.345
78605W        W46935  28.514  26.593  14.980
78606W        W46936   5.434  21.613   4.702
78607W        W46937   1.737  12.710   1.425
78608W        W46938  44.848  44.874  12.423
78609W        W46939  44.833  39.379   3.350
78610W        W46940   5.837  18.278   0.419
78611W        W46941   4.320  39.951  12.871
78612W        W46942  41.885   4.341   1.807
78613W        W46943  17.616   9.362   1.356
78614W        W46944  32.045  30.571  10.140
78615W        W46945   9.665   8.870  10.911
78616W        W46946   0.471  31.025  12.516
78617W        W46947  29.110   1.363   1.794
78618W        W46948  14.728  11.191  14.516
78619W        W46949  34.009  15.675   3.855
78620W        W46950  29.573  43.394  11.991
78621W        W46951  11.703   7.713  12.009
78622W        W46952  19.076   7.880  13.452
78623W        W46953  27.548  35.867   3.369
78624W        W46954  38.928  19.647   5.192
78625W        W46955  22.240  15.188  10.595
78626W        W46956  33.035  27.492   0.328
78627W        W46957  32.564  43.507  12.957
78628W        W46958  12.152  10.783  14.385
78629W        W46959  27.583  15.181   1.932
78630W        W46960  35.549   2.889   0.357
78631W        W46961  33.587  12.793   1.832
78632W        W46962  36.943  17.613   3.275
78633W        W46963  18.640  18.167  14.444
78634W        W46964   2.397   3.280  11.899
78635W        W46965  26.108  38.891   0.299
78636W        W46966  43.468  36.938   0.745
78637W        W46967   1.934   3.349  13.930
78638W        W46968  34.052  14.331  14.494
78639W        W46969  21.263  37.049   0.346
78640W        W46970  42.432   9.189  13.943
78641W        W46971  23.988   4.755   4.277
78642W        W46972  11.772  38.935  13.403
78643W        W46973  10.298  16.220   2.246
78644W        W46974  10.370   1.381   1.784
78645W        W46975   9.358  27.966  10.913
78646W        W46976  39.469  19.053  11.433
78647W        W46977  10.269  30.598  11.412
78648W        W46978  15.315  25.647  11.494
78649W        W46979  31.585  34.371  10.497
78650W        W46980  24.516   6.216  13.935
78651W        W46981   1.818   9.805  12.084
78652W        W46982  19.546  41.912  14.339
78653W        W46983   1.765  35.067  12.018
78654W        W46984   5.914  33.494   2.701
78655W        W46985  16.727  40.847   0.738
78656W        W46986  19.554  26.984  11.402
78657W        W46987  40.355  16.581   2.837
78658W        W46988   5.930  43.274   4.203
78659W        W46989  14.201   9.219   3.158
78660W        W46990  24.521  22.009   1.838
78661W        W46991  23.060  34.509   0.470
78662W        W46992   5.826  37.452  13.822
78663W        W46993  34.552  27.155   1.349
78664W        W46994  29.929   3.305  10.072
78665W        W46995  28.513  14.650   1.401
78666W        W46996  30.089  35.034  11.448
78667W        W46997  33.081   4.856  14.491
78668W        W46998   8.329  25.613  12.059
78669W        W46999  28.502  34.390  14.431
78670W        W47000  30.584   3.938  13.444
78671W        W47001  20.536   2.362  11.100
78672W        W47002  12.117  36.934  13.524
78673W        W47003  39.989  37.843   0.756
78674W        W47004   2.763  12.681  10.510
78675W        W47005   9.322  18.212   3.731
78676W        W47006   2.867   6.885   0.447
78677W        W47007  18.251  37.969  11.994
78678W        W47008   2.295  36.967  14.344
78679W        W47009  28.104  17.585   2.894
78680W        W47010  23.098  40.325   2.881
78681W        W47011   6.858  19.186   4.683
78682W        W47012   6.385  11.155  12.924
78683W        W47013  11.258  36.849  14.367
78684W        W47014  33.055  16.106   2.846
78685W        W47015   4.786  29.004  14.414
78686W        W47016  26.171  16.660  13.018
78687W        W47017  40.385  26.120  12.459
78688W        W47018  44.941   8.882  12.478
78689W        W47019   4.215  21.666  14.982
78690W        W47020  44.960  39.480  11.597
78691W        W47021  15.088  20.597  10.553
78692W        W47022  13.158  36.398   5.159
78693W        W47023  35.572   9.365  13.006
78694W        W47024  32.560   0.803   0.859
78695W        W47025   3.429  30.976  10.892
78696W        W47026  13.120  10.332   0.759
78697W        W47027  26.123  42.944   1.782
78698W        W47028  30.084  31.126  11.019
78699W        W47029   1.819  20.670   3.826
78700W        W47030  34.502  40.880  13.867
78701W        W47031  39.367  25.176   1.327
78702W        W47032   3.457  20.600  13.518
78703W        W47033   9.292  17.094  11.528
78704W        W47034  17.087  10.329   2.871
78705W        W47035  34.453  43.854   2.899
78706W        W47036  24.684  36.851  14.841
78707W        W47037  43.915  43.502  11.880
78708W        W47038  19.772  40.305   4.250
78709W        W47039   9.284  24.975   1.817
78710W        W47040  33.924  10.725   3.864
78711W        W47041   8.725  42.793  13.001
78712W        W47042  13.280  37.478  10.558
78713W        W47043   2.738   8.783  12.508
78714W        W47044  20.199  40.329  12.023
78715W        W47045  21.570  38.886  10.571
78716W        W47046  42.027  31.065  10.929
78717W        W47047  41.859  27.493  13.448
78718W        W47048   1.286  35.363  13.017
78719W        W47049  22.045  38.974  11.928
78720W        W47050  13.718  38.822  11.524
78721W        W47051  35.593   5.738   1.817
78722W        W47052  31.940  20.136  10.031
78723W        W47053  33.523  16.733   0.244
78724W        W47054   1.781  24.006  14.449
78725W        W47055  29.016  43.378  10.490
78726W        W47056  26.500  27.692  12.525
78727W        W47057  26.632  41.412   0.863
78728W        W47058  11.371  21.244  12.528
78729W        W47059  11.667  14.705   2.321
78730W        W47060   8.882   5.812  12.472
78731W        W47061  10.174  21.185   0.314
78732W        W47062  16.673   7.726  10.491
78733W        W47063  13.347  11.328   1.751
78734W        W47064  31.607  44.884  12.463
78735W        W47065  14.196  14.644  13.909
78736W        W47066  28.169  35.855   0.447
78737W        W47067  17.562  41.829  12.072
78738W        W47068  22.137   7.331  11.881
78739W        W47069   2.330   3.844   0.403
78740W        W47070  12.154  27.153   4.262
78741W        W47071  31.929  15.184  12.418
78742W        W47072   5.775   1.841  11.005
78743W        W47073  40.834  26.086  14.776
78744W        W47074  12.266   1.238   3.328
78745W        W47075   5.340  18.130   3.246
78746W        W47076  24.067  10.876   2.418
78747W        W47077  22.673  10.228   3.696
78748W        W47078   9.697  30.115  10.423
78749W        W47079  25.668  27.651   1.866
78750W        W47080  26.577  20.645   2.205
78751W        W47081  19.104  26.603  10.961
78752W        W47082   0.411  17.598  13.839
78753W        W47083   8.210  27.070  14.354
78754W        W47084  40.310   0.754  13.428
78755W        W47085  12.654   2.291   4.232
78756W        W47086   9.202   6.424  12.415
78757W        W47087  12.759  31.580   1.301
78758W        W47088  29.963  23.108  11.595
78759W        W47089   8.855  30.134   3.731
78760W        W47090  36.478  40.538  10.933
78761W        W47091  43.341  38.840  13.050
78762W        W47092  42.833  32.605   4.723
78763W        W47093  38.058  27.648  13.352
78764W        W47094  30.644  40.803  12.904
78765W        W47095  23.730   9.777   0.822
78766W        W47096  12.775  37.023  13.382
78767W        W47097  34.886   2.877  14.299
78768W        W47098  29.093  42.822  14.369
78769W        W47099  13.266  37.417  13.805
78770W        W47100  39.997  27.109   4.307
78771W        W47101  32.987  35.083  13.866
78772W        W47102  43.800  38.550  11.537
78773W        W47103  32.988  29.448  14.864
78774W        W47104  10.644   3.425   0.751
78775W        W47105   6.415   8.889   3.361
78776W        W47106  17.112  12.673   1.854
78777W        W47107   6.346  37.843  13.455
78778W        W47108  27.683  41.423  11.867
78779W        W47109   3.297  15.322   1.268
78780W        W47110   6.837  26.509  12.450
78781W        W47111  25.132  30.912  11.065
78782W        W47112  41.848  16.241   4.798
78783W        W47113  19.157  37.001  14.965
78784W        W47114   3.720  40.403  11.868
78785W        W47115  21.075   5.366  13.949
78786W        W47116   0.356  34.388  14.463
78787W        W47117  32.992  41.791   4.632
78788W        W47118  31.067   8.899  11.498
78789W        W47119   2.797  25.210   2.783
78790W        W47120  23.676  41.505   1.790
78791W        W47121  36.373   6.257   3.767
78792W        W47122  32.433  16.092  12.470
78793W        W47123  23.141  32.436  13.474
78794W        W47124   4.301  22.721   2.735
78795W        W47125   9.691  43.322   1.743
78796W        W47126   6.720  13.801   0.345
78797W        W47127  36.518  40.866  13.958
78798W        W47128   1.454   6.749  14.948
78799W        W47129  15.284   7.669   3.685
78800W        W47130  33.954   8.190   1.848
78801W        W47131   3.324   6.257   0.477
78802W        W47132  43.810  39.416  12.377
78803W        W47133  18.773  16.715   1.724
78804W        W47134   9.834   7.366  11.563
78805W        W47135  25.057  15.138   3.709
78806W        W47136  37.433  35.524   2.329
78807W        W47137   4.350  32.963   3.197
78808W        W47138   8.744  33.604   2.309
78809W        W47139  12.700  31.958  10.913
78810W        W47140  24.171  35.424   3.251
78811W        W47141  14.652  43.424  10.427
78812W        W47142  15.161  44.985  12.931
78813W        W47143  33.949  28.476   0.389
78814W        W47144  23.151  13.628  13.532
78815W        W47145   9.352  25.631   3.654
78816W        W47146  20.767  13.637   4.237
78817W        W47147  12.334  31.460   0.483
78818W        W47148  15.737  31.457  13.842
78819W        W47149  18.698  40.930   2.706
78820W        W47150   2.945   5.275  13.815
78821W        W47151  35.591   4.216  10.407
78822W        W47152   3.728  14.114   1.931
78823W        W47153  42.953  42.500  13.952
78824W        W47154  16.644  42.381   0.744
78825W        W47155  33.106  12.218   3.237
78826W        W47156  41.330  12.628  14.363
78827W        W47157  12.165   7.383   4.672
78828W        W47158  23.989  28.522   0.776
78829W        W47159  42.506  18.669  11.066
78830W        W47160  23.211  30.997   0.843
78831W        W47161  43.996   9.172   3.797
78832W        W47162  37.408  21.130  12.864
78833W        W47163  31.576  27.945  13.951
78834W        W47164  34.479  16.749   0.404
78835W        W47165  31.975  44.831  11.524
78836W        W47166  14.592  25.522   1.782
78837W        W47167  43.797  22.639   4.224
78838W        W47168  41.475  34.077   3.192
78839W        W47169  36.509  41.956   2.400
78840W        W47170   3.926  31.580   2.319
78841W        W47171  21.145  13.133  10.633
78842W        W47172  14.618  23.734  11.009
78843W        W47173  24.528  19.157   3.161
78844W        W47174   8.259  31.593  10.559
78845W        W47175  32.414   6.203  12.964
78846W        W47176  14.595  35.442  10.121
78847W        W47177  21.053   8.187  12.833
78848W        W47178  17.721   0.812   9.963
78849W        W47179  13.245  18.791   4.254
78850W        W47180  34.474  27.624  12.402
78851W        W47181  39.808  21.532   4.170
78852W        W47182  21.212   3.439  11.488
78853W        W47183   8.296  36.485  11.592
78854W        W47184  20.702  18.194   2.769
78855W        W47185  40.331  40.359   5.139
78856W        W47186  23.143  20.679   3.740
78857W        W47187  31.633  40.537  10.954
78858W        W47188  34.443  43.813   2.195
78859W        W47189  25.136  11.782   1.338
78860W        W47190   7.223   7.205   1.436
78861W        W47191  14.228  27.667  10.597
78862W        W47192  32.078  36.064   0.843
78863W        W47193  42.875  44.381   0.865
78864W        W47194  20.644  14.602   2.854
78865W        W47195  11.758  35.517   1.413
78866W        W47196  19.674  33.070  12.058
78867W        W47197  43.503  24.572   1.336
78868W        W47198  10.368  19.568  12.893
78869W        W47199  41.949  32.972   4.709
78870W        W47200  30.522  22.100   2.255
78871W        W47201  36.915  41.954  13.523
78872W        W47202  23.071  34.460   1.361
78873W        W47203  25.104  41.016   3.312
78874W        W47204   7.352  33.524  12.970
78875W        W47205  20.581  20.754   1.305
78876W        W47206   3.805   6.823   3.353
78877W        W47207  34.072   9.159  12.831
78878W        W47208  34.985  39.993   1.788
78879W        W47209  20.725  23.208   2.264
78880W        W47210  31.422   6.407   0.753
78881W        W47211  18.707  36.555  11.018
78882W        W47212  21.523  25.614  14.448
78883W        W47213  43.967  23.164   4.113
78884W        W47214  15.582  44.933  11.490
78885W        W47215  28.490  18.140  10.981
78886W        W47216  35.870  23.022   4.832
78887W        W47217  21.592  15.240  13.064
78888W        W47218  26.463  11.254  14.504
78889W        W47219  12.676  12.315  12.830
78890W        W47220  35.559  36.850   0.371
78891W        W47221  12.629   4.450   4.152
78892W        W47222  14.671  17.066  14.961
78893W        W47223   8.654   7.847   1.704
78894W        W47224  27.079   9.681   2.840
78895W        W47225  26.014   9.220  14.440
78896W        W47226   0.862  34.008   3.158
78897W        W47227  37.871  32.562  12.365
78898W        W47228  42.947  12.159   1.868
78899W        W47229  25.141  37.076   4.236
78900W        W47230  35.482   8.390   0.454
78901W        W47231   9.847  39.982  11.103
78902W        W47232  11.349  11.840   1.712
78903W        W47233  39.534  23.164   4.636
78904W        W47234  35.574  32.907  12.862
78905W        W47235  18.141  40.892   3.271
78906W        W47236   1.416   8.374  13.887
78907W        W47237  25.493  10.255   4.238
78908W        W47238  16.772  39.029   3.303
78909W        W47239  31.471  29.158   2.203
78910W        W47240   0.351  25.969   0.790
78911W        W47241  14.825   8.841   0.312
78912W        W47242  27.529  37.537  14.851
78913W        W47243  34.447  20.707  13.921
78914W        W47244   0.982  22.557  11.516
78915W        W47245   9.867  34.022  13.994
78916W        W47246  42.998  40.303  12.382
78917W        W47247  30.164   4.330  12.510
78918W        W47248  31.939   4.739   4.180
78919W        W47249   0.973  30.099   1.404
78920W        W47250  39.412  14.253  14.770
78921W        W47251  14.661  21.586  11.903
78922W        W47252  18.687  31.428  11.598
78923W        W47253   5.698  16.103   3.193
78924W        W47254   4.759  20.767   0.411
78925W        W47255  31.115  36.591   0.472
78926W        W47256  30.083  22.183   5.239
78927W        W47257   4.358  32.417   0.814
78928W        W47258  22.659  25.170  11.126
78929W        W47259  11.721  38.879   3.304
78930W        W47260  21.215  34.408   2.321
78931W        W47261  12.818   8.404   3.793
78932W        W47262  43.419  40.315  10.113
78933W        W47263   8.303  23.210   0.831
78934W        W47264  43.901  38.066   2.725
78935W        W47265  40.928  35.533   1.292
78936W        W47266  33.114   8.839   1.426
78937W        W47267   8.746  39.393  13.332
78938W        W47268   2.895  13.735  12.918
78939W        W47269  34.076  10.844   0.781
78940W        W47270  30.928  20.573   4.788
78941W        W47271  28.611  43.803   1.245
78942W        W47272   0.980  39.393  13.010
78943W        W47273  30.015  44.438   2.371
78944W        W47274  24.025  37.529   5.273
78945W        W47275  34.930  10.143  12.384
78946W        W47276  14.720  31.528   2.206
78947W        W47277  31.460   2.300   4.776
78948W        W47278  29.516   3.806  13.469
78949W        W47279  33.533  21.638   2.383
78950W        W47280  13.681   0.345   3.145
78951W        W47281  40.402  41.788  14.808
78952W        W47282   3.928  18.685   4.244
78953W        W47283  25.548  43.365  13.979
78954W        W47284   3.830   3.411   2.262
78955W        W47285  38.447  10.161   0.863
78956W        W47286  17.759  24.592   1.352
78957W        W47287  43.484  27.957  12.019
78958W        W47288  42.806  43.885   0.356
78959W        W47289  11.276   3.722  13.858
78960W        W47290  28.051  26.636   4.139
78961W        W47291  44.504  14.800  12.422
78962W        W47292  32.485  25.708   0.911
78963W        W47293  14.733  27.488   1.439
78964W        W47294  35.094  29.469   1.898
78965W        W47295  23.636  19.741   2.874
78966W        W47296  36.907  12.705  14.864
78967W        W47297  23.686  26.597  13.811
78968W        W47298  27.561  17.128   0.306
78969W        W47299  27.609  43.957   3.865
78970W        W47300  42.300  37.487  11.084
78971W        W47301  10.191   8.300   1.279
78972W        W47302   6.233  12.713  14.291
78973W        W47303  33.496  15.148  13.483
78974W        W47304   5.769   2.283  10.571
78975W        W47305  22.729  17.593   1.350
78976W        W47306  27.098   7.212  14.935
78977W        W47307  11.828  37.052   3.838
78978W        W47308   2.358  13.109   4.764
78979W        W47309  36.890  39.386   4.132
78980W        W47310  41.483  24.003   2.342
78981W        W47311  16.163  13.209  13.322
78982W        W47312  27.023  41.431   4.829
78983W        W47313  23.716  22.087  10.461
78984W        W47314  44.432  25.697  14.371
78985W        W47315  18.659   3.343  13.359
78986W        W47316  10.167  40.810   2.309
78987W        W47317  30.505  21.519  12.017
78988W        W47318   3.292  32.135  11.886
78989W        W47319  32.946  27.128   3.383
78990W        W47320   4.445   7.907   4.240
78991W        W47321  15.718  35.502   2.405
78992W        W47322   9.753  37.485   1.352
78993W        W47323  39.889  26.678  10.577
78994W        W47324  16.079  21.081   2.896
78995W        W47325   5.915   5.425  10.429
78996W        W47326  34.411  38.457   1.361
78997W        W47327   0.933  36.018   1.254
78998W        W47328   1.267  44.421  13.518
78999W        W47329  34.914   3.783   0.886
79000W        W47330   2.452  10.245  14.369
79001W        W47331  16.223  38.344   2.700
79002W        W47332   7.851  21.535  11.567
79003W        W47333  22.173  17.691   2.214
79004W        W47334  40.367  44.374  11.006
79005W        W47335   5.780  27.677  12.372
79006W        W47336  38.948  14.789  13.445
79007W        W47337  34.443  11.252  11.927
79008W        W47338  20.164  11.230   2.337
79009W        W47339  30.995  29.993   2.743
79010W        W47340   3.444  10.732  14.843
79011W        W47341  39.877  11.241   1.725
79012W        W47342  22.646  11.767  13.466
79013W        W47343   7.670  40.818  13.478
79014W        W47344  36.070  39.891  11.453
79015W        W47345  43.968  13.617   4.612
79016W        W47346  33.069  12.215   4.279
79017W        W47347  43.488   2.420   3.353
79018W        W47348  34.892  21.129  12.870
79019W        W47349  27.034  14.616  11.456
79020W        W47350  33.409  30.970   2.212
79021W        W47351  39.335  15.138  14.928
79022W        W47352  30.961  16.095   4.148
79023W        W47353  28.649  22.168   0.287
79024W        W47354  15.329  42.327  13.853
79025W        W47355  37.472  33.611  14.365
79026W        W47356  30.595  41.013   2.670
79027W        W47357  22.087  28.060  12.578
79028W        W47358  12.824   5.891  14.010
79029W        W47359  28.998  24.537   2.680
79030W        W47360  23.110  39.886   3.795
79031W        W47361  42.914  22.208   3.782
79032W        W47362  42.995  44.287   4.301
79033W        W47363  19.107  20.199   0.797
79034W        W47364  34.953  36.466  12.085
79035W        W47365  30.538  15.161   4.726
79036W        W47366   2.930  22.575  14.298
79037W        W47367  37.986  10.204  10.472
79038W        W47368   4.320  19.728   4.673
79039W        W47369  19.570  44.843   1.360
79040W        W47370   3.728  40.999   1.828
79041W        W47371  36.516  13.838   2.181
79042W        W47372  20.064   1.467   1.799
79043W        W47373  15.239  26.958   0.849
79044W        W47374  16.654   8.305   3.264
79045W        W47375  30.056  38.836   3.679
79046W        W47376   6.333  11.238   2.750
79047W        W47377  43.767  15.640  10.505
79048W        W47378  29.490  44.970  10.956
79049W        W47379  32.948   3.348  12.421
79050W        W47380   8.851  32.998  12.829
79051W        W47381   2.425   9.759   0.908
79052W        W47382  28.069  33.920  13.009
79053W        W47383  43.767   3.804   1.881
79054W        W47384  18.640  37.921  12.951
79055W        W47385  42.295  39.822   2.847
79056W        W47386  37.854  20.265  13.520
79057W        W47387  32.056  21.078   1.379
79058W        W47388  28.058   9.314   2.834
79059W        W47389  20.703  11.128   4.771
79060W        W47390  33.451  27.005   0.277
79061W        W47391  37.057  28.587   0.827
79062W        W47392   3.343  14.121   1.696
79063W        W47393  42.414  17.587   2.238
79064W        W47394   9.756  28.522   1.832
79065W        W47395  31.520   0.936  11.898
79066W        W47396  44.787  32.592  11.478
79067W        W47397  20.747  24.581   2.412
79068W        W47398   5.430  43.495  11.074
79069W        W47399  40.471   7.288  13.018
79070W        W47400  27.588  11.816   1.338
79071W        W47401  16.262  40.803  11.512
79072W        W47402  34.098  32.573  12.936
79073W        W47403   9.662  20.220  11.996
79074W        W47404  24.722  43.511   1.886
79075W        W47405   7.304  13.636  14.304
79076W        W47406  16.100  25.205   4.172
79077W        W47407  41.411  12.273   2.711
79078W        W47408  26.115  15.587  13.446
79079W        W47409  28.955  12.748   2.879
79080W        W47410  17.756  35.017   0.875
79081W        W47411  11.849  42.459  12.402
79082W        W47412  24.007  20.206  14.817
79083W        W47413  36.039  25.491   2.382
79084W        W47414  35.942  15.683  12.901
79085W        W47415  29.630   9.824  12.456
79086W        W47416  27.664  14.120  13.812
79087W        W47417   9.656  43.322  11.498
79088W        W47418  40.802  36.987  11.538
79089W        W47419   8.854   6.879  13.000
79090W        W47420  24.522  17.220  13.851
79091W        W47421  11.639  21.664  12.968
79092W        W47422   3.220  24.545  14.973
79093W        W47423  39.396  21.128  12.939
79094W        W47424  14.206  13.600   2.777
79095W        W47425   6.777  18.101  13.003
79096W        W47426  34.528   1.327  13.054
79097W        W47427  37.375  22.190   1.695
79098W        W47428  41.994   0.945   2.710
79099W        W47429  20.718  36.979  14.281
79100W        W47430  30.502  24.538   0.399
79101W        W47431   3.365  25.063   4.173
79102W        W47432  14.676   2.440  13.523
79103W        W47433   5.407   9.325   1.397
79104W        W47434  25.127  27.584  12.448
79105W        W47435  29.074  44.493   4.717
79106W        W47436  37.561  10.284   3.146
79107W        W47437  29.648  29.146  13.422
79108W        W47438  14.675  42.991  13.390
79109W        W47439  22.124  43.407  14.335
79110W        W47440  42.922   7.899   0.257
79111W        W47441  42.946  44.468   4.800
79112W        W47442  12.227   2.811  12.949
79113W        W47443   7.748  27.059  14.343
79114W        W47444  17.161  41.885   1.356
79115W        W47445   1.331  12.262   4.131
79116W        W47446  14.313  18.615   3.713
79117W        W47447   9.862  43.970   3.189
79118W        W47448  42.360  18.053   2.379
79119W        W47449   2.394  27.588   0.733
79120W        W47450  13.691  10.252   0.316
79121W        W47451  30.597   6.876  11.077
79122W        W47452  13.665  20.623  12.356
79123W        W47453  33.899  32.904   2.290
79124W        W47454  33.960  30.021   4.699
79125W        W47455   0.409  39.483  10.548
79126W        W47456  16.696  43.823  11.106
79127W        W47457  15.166  42.008  13.031
79128W        W47458   1.285   3.321  12.391
79129W        W47459  30.161  41.852  12.344
79130W        W47460  10.665  26.976  10.919
79131W        W47461  18.232  22.997   2.379
79132W        W47462  32.024  37.467  11.485
79133W        W47463  10.721   4.851  10.961
79134W        W47464  13.784   5.927  13.366
79135W        W47465  37.086  24.491   2.221
79136W        W47466   1.754   1.757  13.527
79137W        W47467  18.768  31.145   3.154
79138W        W47468  38.519  22.998   1.908
79139W        W47469  27.575  16.163   3.818
79140W        W47470  37.001   9.674   1.304
79141W        W47471  26.620  39.888  10.965
79142W        W47472  44.259   8.870  10.935
79143W        W47473   2.286   4.811  10.584
79144W        W47474  30.113  29.641  11.518
79145W        W47475  32.397   0.274   3.354
79146W        W47476  29.552  25.124  10.436
79147W        W47477   8.811  38.846  10.969
79148W        W47478  42.918   4.324   2.360
79149W        W47479  23.567  28.615   2.775
79150W        W47480  12.718  12.172  10.613
79151W        W47481  41.989  25.040   2.875
79152W        W47482   0.308  26.480  14.966
79153W        W47483  32.465  44.392   0.869
79154W        W47484  42.495  43.499   1.416
79155W        W47485  19.753  34.370  13.810
79156W        W47486   6.778  43.813  12.006
79157W        W47487  35.875  32.483  11.997
79158W        W47488  20.758  13.261  13.531
79159W        W47489   9.212  21.707   4.730
79160W        W47490  38.447   8.737   3.344
79161W        W47491   6.216  33.464  11.859
79162W        W47492  14.335  34.557   1.221
79163W        W47493  36.084  42.018   1.883
79164W        W47494  26.629   3.286   4.213
79165W        W47495  41.928   4.239  14.395
79166W        W47496  23.654  19.189  13.434
79167W        W47497  34.424  27.495  11.080
79168W        W47498  21.686  43.952  12.562
79169W        W47499  13.297  36.881   2.349
79170W        W47500   2.846   9.707  10.615
79171W        W47501  17.173  43.478  14.787
79172W        W47502  36.976  41.511  10.448
79173W        W47503   7.352  42.816  13.508
79174W        W47504  44.449   0.760   0.895
79175W        W47505  15.174  23.626   0.244
79176W        W47506  29.554  24.550   1.802
79177W        W47507  15.266  40.425   1.342
79178W        W47508   7.286  24.604  13.888
79179W        W47509  37.906   2.461  13.474
79180W        W47510  13.844   0.300  12.973
79181W        W47511  21.714  32.974  14.282
79182W        W47512  43.002  26.641   4.178
79183W        W47513  22.744  44.378   3.673
79184W        W47514  25.154  11.336  11.952
79185W        W47515   7.788  13.239  12.830
79186W        W47516  24.545  10.272  13.853
79187W        W47517  30.922  27.107   4.305
79188W        W47518  28.969  11.651  12.998
79189W        W47519  13.138  11.848   3.696
79190W        W47520  35.591   1.835   1.923
79191W        W47521  23.503   5.435  12.913
79192W        W47522  32.095  22.682  13.996
79193W        W47523  13.270  19.174  14.515
79194W        W47524   4.802  32.083  14.361
79195W        W47525  21.127  41.479  12.018
79196W        W47526   5.381   8.230  14.434
79197W        W47527  29.594   0.815  12.831
79198W        W47528  26.149  41.789   1.440
79199W        W47529  30.415  37.431   3.641
79200W        W47530  39.908   8.659  11.909
79201W        W47531  32.392  41.309   0.750
79202W        W47532  26.695   0.290   0.397
79203W        W47533  22.714  12.851   2.788
79204W        W47534   3.915  42.001   2.332
79205W        W47535  25.647   5.844   3.329
79206W        W47536   1.368  20.681  12.076
79207W        W47537  43.336   8.671   4.277
79208W        W47538  11.813  34.427   3.824
79209W        W47539  15.638   8.191  13.484
79210W        W47540  43.354  44.961  14.014
79211W        W47541   7.200  26.126   1.865
79212W        W47542  38.012  40.414  10.983
79213W        W47543   0.825  31.557   2.400
79214W        W47544  27.571  20.251   4.758
79215W        W47545  43.851   5.733   3.762
79216W        W47546  24.705  22.243   1.333
79217W        W47547  26.551  16.312  13.864
79218W        W47548  44.958  20.653  12.354
79219W        W47549   2.906  14.333  12.340
79220W        W47550  17.180  15.086  12.026
79221W        W47551  12.295  28.483  12.483
79222W        W47552  39.483   9.646   4.646
79223W        W47553   5.388  19.754   3.814
79224W        W47554   4.830  41.013   2.873
79225W        W47555  22.246  25.211   3.186
79226W        W47556  21.757  30.116  11.882
79227W        W47557  27.550  15.781   0.799
79228W        W47558   6.381   5.338  11.567
79229W        W47559  36.874  11.868   0.462
79230W        W47560  43.281  10.289  12.954
79231W        W47561  28.585  30.645   0.863
79232W        W47562  15.695  43.510   4.692
79233W        W47563  44.957  13.735   0.916
79234W        W47564   5.723  18.214  12.377
79235W        W47565  16.260  10.797   2.684
79236W        W47566  17.758  35.969   0.338
79237W        W47567  20.718   9.792  12.473
79238W        W47568  10.639  24.502  12.565
79239W        W47569  14.265  27.540  12.094
79240W        W47570  13.836  39.869   3.331
79241W        W47571  30.482   7.794   5.161
79242W        W47572   2.893  18.224   0.372
79243W        W47573  14.207   0.479  13.347
79244W        W47574  24.985  33.602  13.960
79245W        W47575  39.819   6.203  11.080
79246W        W47576  21.540  39.351  10.469
79247W        W47577  18.221  17.283  13.487
79248W        W47578  15.650  34.548   9.970
79249W        W47579   8.396  38.924  14.401
79250W        W47580  40.324  35.499   2.409
79251W        W47581   8.882  37.874   5.271
79252W        W47582  17.229  12.326   1.287
79253W        W47583  20.755  44.263  10.502
79254W        W47584  40.913  18.073  11.485
79255W        W47585  23.732  10.148  11.022
79256W        W47586   6.876  20.190  10.538
79257W        W47587  14.665  44.005  10.485
79258W        W47588  42.819  37.010   3.841
79259W        W47589  43.800  24.574   4.819
79260W        W47590  25.701  40.448   2.286
79261W        W47591  31.436  44.450   4.625
79262W        W47592   0.925  38.423   0.266
79263W        W47593  28.098  42.445   0.927
79264W        W47594  17.101  19.101   0.349
79265W        W47595  39.320   5.353   0.380
79266W        W47596  41.841  16.612   4.160
79267W        W47597  32.886  26.483   3.694
79268W        W47598  20.117   9.813   5.715
79269W        W47599  35.893   2.255  12.348
79270W        W47600  40.804  27.960   3.794
79271W        W47601  15.288   8.353  14.491
79272W        W47602  21.634  11.201  14.971
79273W        W47603  33.454  30.569   2.342
79274W        W47604   5.320  34.082   3.761
79275W        W47605  43.469  34.552   4.681
79276W        W47606   1.353  32.605   2.335
79277W        W47607  12.147  43.908   0.427
79278W        W47608  21.232  33.624   4.257
79279W        W47609  42.962  33.411  10.911
79280W        W47610   2.262  11.832  12.876
79281W        W47611  38.071   6.687   2.225
79282W        W47612  31.412  11.225  13.956
79283W        W47613  33.482   3.369  10.477
79284W        W47614  41.489   3.443   1.716
79285W        W47615  38.913   3.232   2.190
79286W        W47616  27.491  26.056  13.413
79287W        W47617  25.562   9.666  12.976
79288W        W47618  31.091  41.317   1.751
79289W        W47619  22.707   8.202   5.261
79290W        W47620  42.342   9.680   1.290
79291W        W47621  40.325  24.703   1.800
79292W        W47622   4.888  24.697   0.837
79293W        W47623  44.769  19.680  12.991
79294W        W47624  11.633  41.403   2.187
79295W        W47625  30.564  19.727  11.594
79296W        W47626  24.049  34.029  11.094
79297W        W47627  33.978  42.909  12.380
79298W        W47628  40.012  11.761   1.426
79299W        W47629  43.425  38.877  13.433
79300W        W47630  10.838  28.042   3.733
79301W        W47631  25.653  15.225   1.268
79302W        W47632  31.943  35.578   4.786
79303W        W47633   0.944   2.249  13.914
79304W        W47634  22.550   8.695   0.906
79305W        W47635  29.546  27.110   0.918
79306W        W47636  16.608   7.304   3.686
79307W        W47637   5.722  17.568  14.410
79308W        W47638  18.630  28.488  11.436
79309W        W47639  36.845  30.643  13.916
79310W        W47640  10.785  44.316  14.275
79311W        W47641   1.364   0.983  11.125
79312W        W47642   7.736  15.285   3.150
79313W        W47643   5.376   0.967  13.801
79314W        W47644   8.318   7.399   2.372
79315W        W47645  23.192   2.887  14.479
79316W        W47646   5.874  32.035   1.278
79317W        W47647  14.227  12.301  13.909
79318W        W47648  37.946  12.193  12.949
79319W        W47649  28.651  27.071  12.847
79320W        W47650  39.848  14.334  10.916
79321W        W47651  31.107   0.419  11.925
79322W        W47652  42.821  38.340   2.382
79323W        W47653  33.441  37.507   1.843
79324W        W47654  16.750  20.528   0.452
79325W        W47655  36.348   9.712   0.873
79326W        W47656  43.915  25.706  10.586
79327W        W47657   1.876  34.912  11.546
79328W        W47658  37.468  27.615  14.948
79329W        W47659   5.822  13.234  12.834
79330W        W47660   3.888  19.178   4.333
79331W        W47661   1.933  19.217  12.424
79332W        W47662   7.299  20.636  14.817
79333W        W47663  17.723  11.269   1.793
79334W        W47664  16.153   9.223  10.482
79335W        W47665  42.403  36.529   3.254
79336W        W47666  12.773   7.375   4.664
79337W        W47667  27.558   1.476  13.417
79338W        W47668  30.919  12.341   2.253
79339W        W47669   1.899  25.544  11.955
79340W        W47670   4.310  38.353   0.291
79341W        W47671  24.497   4.209  14.963
79342W        W47672  35.544  34.019  13.427
79343W        W47673  40.418   4.803   3.749
79344W        W47674  34.495   2.341  12.077
79345W        W47675  23.105  19.219  11.452
79346W        W47676  11.144  20.664  11.119
79347W        W47677  44.885  31.460  11.874
79348W        W47678   8.705  31.551   4.812
79349W        W47679  27.548  25.536   0.356
79350W        W47680  41.390  41.806   2.679
79351W        W47681  29.918  28.562  11.601
79352W        W47682  41.997  39.560   0.867
79353W        W47683  27.961  11.678  12.401
79354W        W47684  17.248  24.074  12.069
79355W        W47685   1.478  26.088  11.946
79356W        W47686   4.705  15.288   1.447
79357W        W47687  28.952  30.566   2.340
79358W        W47688  36.010  12.671   0.445
79359W        W47689  14.339  35.553  14.850
79360W        W47690  37.438  27.533   4.173
79361W        W47691   1.923  28.083  12.366
79362W        W47692   2.450   2.963  10.427
79363W        W47693  35.947   5.841   2.338
79364W        W47694  14.241   2.375  11.872
79365W        W47695  39.942  14.299   3.780
79366W        W47696  19.103  25.997   3.753
79367W        W47697  23.526  27.185  13.934
79368W        W47698  26.124  14.658  13.463
79369W        W47699  20.601   5.439  12.375
79370W        W47700  30.479  11.214   3.197
79371W        W47701  44.782  20.179  14.908
79372W        W47702  43.937  10.155   3.807
79373W        W47703  20.227  39.414   1.307
79374W        W47704   0.764  31.071  12.562
79375W        W47705  26.696  12.284  12.579
79376W        W47706  12.299  30.947   3.362
79377W        W47707  33.932  24.140   2.718
79378W        W47708  18.199   9.644   3.378
79379W        W47709  20.544  18.214  13.544
79380W        W47710  15.762  16.074   1.704
79381W        W47711  37.032  16.228  13.886
79382W        W47712   5.783   8.385  12.444
79383W        W47713   2.858  18.132  11.513
79384W        W47714   3.395  21.214   0.453
79385W        W47715   4.336  34.466   2.734
79386W        W47716  24.128   7.689  13.334
79387W        W47717   6.733  33.028  11.499
79388W        W47718  32.062  13.778  12.984
79389W        W47719  39.390  28.525  11.610
79390W        W47720  20.168  39.972  13.937
79391W        W47721  32.949   8.167   1.815
79392W        W47722   9.778  24.028   1.443
79393W        W47723   7.793  37.485  13.978
79394W        W47724  28.671  28.637  14.829
79395W        W47725   7.666  24.483  11.383
79396W        W47726  39.364  16.570   1.387
79397W        W47727  37.350  39.511   3.276
79398W        W47728  15.604   1.886  14.510
79399W        W47729   8.880  21.582   2.899
79400W        W47730  35.920  44.843  13.458
79401W        W47731   9.663   1.305   0.882
79402W        W47732  40.334  22.710   4.193
79403W        W47733  44.809   0.870  14.368
79404W        W47734  38.989   3.943   0.470
79405W        W47735  22.996  44.796  14.403
79406W        W47736  30.628  18.218  14.810
79407W        W47737  40.364  35.440   3.295
79408W        W47738  29.536   9.340   2.199
79409W        W47739  22.687  36.043   3.347
79410W        W47740  30.986   3.911  11.975
79411W        W47741  26.167  30.458  13.820
79412W        W47742  41.458  32.935  13.434
79413W        W47743  41.321  22.555   1.750
79414W        W47744   1.816  40.852  12.439
79415W        W47745  32.997   3.894  13.452
79416W        W47746  40.424  37.349  10.578
79417W        W47747   4.305  21.570  14.277
79418W        W47748   8.220  41.901  12.444
79419W        W47749   1.432  34.090   0.395
79420W        W47750  21.575  27.475  14.810
79421W        W47751  25.645  35.490  13.857
79422W        W47752  17.148  28.143  13.515
79423W        W47753   3.805  11.652  14.908
79424W        W47754  13.756   8.694  13.862
79425W        W47755  14.649  16.635   1.725
79426W        W47756  11.816   5.307   3.843
79427W        W47757   8.298  21.082   4.604
79428W        W47758  15.799  41.357  14.408
79429W        W47759  32.124  29.635   2.805
79430W        W47760   4.787  12.350  13.805
79431W        W47761  18.658   1.445  13.474
79432W        W47762   8.162  15.217  12.001
79433W        W47763   5.389   2.392   1.781
79434W        W47764   8.770  44.940   0.430
79435W        W47765  15.739  11.166  10.604
79436W        W47766  12.791  28.110  11.950
79437W        W47767  11.835  38.539  12.010
79438W        W47768   8.795  21.615  12.379
79439W        W47769  29.969  13.794  10.955
79440W        W47770  13.126  13.177   5.291
79441W        W47771  10.304   6.777  11.906
79442W        W47772  32.522  13.772   0.783
79443W        W47773  26.571  15.590  11.943
79444W        W47774  41.389   5.300   2.784
79445W        W47775  29.544  35.518   2.673
79446W        W47776  29.513  26.175  12.550
79447W        W47777  25.119  41.437  14.836
79448W        W47778  20.651  25.166  12.423
79449W        W47779  10.800  10.380  13.444
79450W        W47780  26.043  10.344   1.285
79451W        W47781  10.833  20.620  14.352
79452W        W47782   7.883   7.207  12.479
79453W        W47783  27.074  32.632  14.014
79454W        W47784   7.182  42.434  11.975
79455W        W47785  20.195   1.949  14.393
79456W        W47786  27.019  36.526  14.882
79457W        W47787  20.523  41.931   4.642
79458W        W47788   0.888  28.507   3.276
79459W        W47789   6.869  12.250  13.959
79460W        W47790   7.896  30.649   5.161
79461W        W47791   6.274  19.118   4.786
79462W        W47792  44.392  14.604  14.357
79463W        W47793   1.790  30.627  10.513
79464W        W47794  11.843   0.469  12.494
79465W        W47795  32.450   2.249  12.551
79466W        W47796  23.991  12.159  10.586
79467W        W47797  44.818  20.137  10.917
79468W        W47798  11.189  36.410   4.774
79469W        W47799   7.398   8.397   0.940
79470W        W47800  26.593   5.716  13.994
79471W        W47801   0.424  17.153   4.825
79472W        W47802  26.661  42.307   4.788
79473W        W47803   5.730   1.861   0.920
79474W        W47804   0.950  25.623  14.426
79475W        W47805   7.778  31.431  14.899
79476W        W47806  18.750   0.321   0.781
79477W        W47807  42.907  42.026   2.692
79478W        W47808   8.356  12.850   4.132
79479W        W47809  13.266  12.352   3.813
79480W        W47810   5.811   0.405   4.720
79481W        W47811  26.530  32.893   2.879
79482W        W47812  27.517  41.976   4.706
79483W        W47813   8.689   4.863  10.521
79484W        W47814  29.590  34.120   2.764
79485W        W47815  24.064  30.486   3.767
79486W        W47816  36.880   1.877  10.954
79487W        W47817   0.309   8.659   0.931
79488W        W47818  40.543  39.977   4.114
79489W        W47819   3.241  34.477  14.879
79490W        W47820  11.175  35.905   1.876
79491W        W47821  29.504  19.136  12.955
79492W        W47822   0.808   1.258   4.124
79493W        W47823  22.135  19.201  12.441
79494W        W47824   2.728   8.298  14.335
79495W        W47825  33.038  40.513   0.365
79496W        W47826  18.620  24.696  11.493
79497W        W47827  23.985  20.686   0.751
79498W        W47828  10.850  43.466   0.387
79499W        W47829   9.168  14.165  11.551
79500W        W47830  41.983  44.995  12.968
79501W        W47831  13.798  31.590  12.063
79502W        W47832  25.076  24.485   2.388
79503W        W47833  32.991  43.496  10.637
79504W        W47834  33.095  11.705   2.346
79505W        W47835  39.395  26.178   0.884
79506W        W47836  31.470  18.149  14.798
79507W        W47837  14.105  35.491   4.257
79508W        W47838  14.287   0.327   2.703
79509W        W47839  24.146   5.730  10.573
79510W        W47840  38.514  14.685  12.955
79511W        W47841  15.190  29.549  12.480
79512W        W47842  41.937   6.183   3.755
79513W        W47843  13.213  23.126  10.431
79514W        W47844  30.156  26.566   2.299
79515W        W47845  38.428   4.447  13.479
79516W        W47846  33.573  12.349  14.963
79517W        W47847  17.647  37.882  14.962
79518W        W47848  21.706   1.756  14.399
79519W        W47849   0.425  16.089  13.487
79520W        W47850  12.847  15.090   1.888
79521W        W47851  20.027  26.655  11.008
79522W        W47852  43.385  31.531   1.874
79523W        W47853  18.780  31.444   1.817
79524W        W47854  33.528   4.208  10.434
79525W        W47855  14.650  40.972   1.224
79526W        W47856  31.516  42.020   3.668
79527W        W47857  21.738   4.745  11.403
79528W        W47858  13.109  42.929   4.218
79529W        W47859  10.164  33.050   1.876
79530W        W47860   2.966  40.462  12.881
79531W        W47861  34.894   4.246  12.977
79532W        W47862   1.319  23.994   4.352
79533W        W47863  30.442  29.129   3.279
79534W        W47864   6.296  38.460  12.543
79535W        W47865  33.913  34.490   0.952
79536W        W47866  36.503   8.739  10.128
79537W        W47867  42.877  21.066  11.558
79538W        W47868  15.162  34.038  12.851
79539W        W47869  35.979  14.651  12.551
79540W        W47870   2.230  34.520   4.202
79541W        W47871   8.206  14.232   3.383
79542W        W47872   9.197  44.343   2.254
79543W        W47873  10.263  38.427  11.067
79544W        W47874  29.167  23.690  13.487
79545W        W47875  10.676  14.785  14.405
79546W        W47876  30.597  30.959  12.836
79547W        W47877   6.367  12.179   2.780
79548W        W47878  40.900  12.338   3.637
79549W        W47879  10.225  19.243  11.028
79550W        W47880  19.216  40.362  12.383
79551W        W47881  23.084  30.473  12.015
79552W        W47882  24.230  25.069   0.416
79553W        W47883  38.458  18.672   0.282
79554W        W47884  36.923  43.010  12.500
79555W        W47885  22.242  35.934  10.950
79556W        W47886   5.754  25.965   3.832
79557W        W47887   3.723  39.946   0.938
79558W        W47888   9.321  11.307  10.973
79559W        W47889   8.340  32.571  11.604
79560W        W47890  20.565  18.673   4.289
79561W        W47891   1.804  27.520   4.278
79562W        W47892  23.161  21.519   1.289
79563W        W47893  29.476  14.695  11.601
79564W        W47894  30.039  31.586   0.314
79565W        W47895  41.902  42.887  10.037
79566W        W47896   2.932   9.181  12.952
79567W        W47897  17.096  39.457  11.562
79568W        W47898  39.418  14.766   2.384
79569W        W47899   8.234  43.961  14.361
79570W        W47900  38.372  29.497   3.316
79571W        W47901   0.453  41.528   4.270
79572W        W47902  41.801  25.197  12.546
79573W        W47903  44.352  13.638  13.366
79574W        W47904  41.394  24.565  14.897
79575W        W47905  23.170  37.044  14.822
79576W        W47906  10.807   0.815   3.253
79577W        W47907  16.795   6.715   0.398
79578W        W47908  33.007  21.177  11.049
79579W        W47909  29.582  27.611  11.055
79580W        W47910   2.413  39.871  14.298
79581W        W47911  18.278  40.997   1.371
79582W        W47912  30.525   2.372   3.257
79583W        W47913  22.189  42.384  10.473
79584W        W47914  43.888  11.743  12.501
79585W        W47915  28.996  39.003   0.345
79586W        W47916  36.869  13.284   1.872
79587W        W47917   1.474  28.508   2.184
79588W        W47918  21.220   5.241  12.073
79589W        W47919  44.003  13.753   3.364
79590W        W47920  40.362  33.571   2.748
79591W        W47921   3.842  31.559  12.409
79592W        W47922  14.124  17.064   0.850
79593W        W47923  37.911  17.095  12.506
79594W        W47924  32.396  12.764  12.416
79595W        W47925  13.322  16.111   0.329
79596W        W47926  14.620  10.317  13.491
79597W        W47927  35.967  11.340  12.538
79598W        W47928   7.806  26.975  12.441
79599W        W47929  10.668  38.995  12.353
79600W        W47930   3.882  17.578   0.851
79601W        W47931  31.028  25.140  14.456
79602W        W47932  41.346  40.396  12.927
79603W        W47933  27.974  12.344   1.362
79604W        W47934  44.347  15.797  11.402
79605W        W47935  38.859  10.691   0.750
79606W        W47936  44.421  18.704   0.387
79607W        W47937  37.072  25.201  14.327
79608W        W47938   5.408  25.536  12.065
79609W        W47939  32.036  33.613   0.891
79610W        W47940   1.770  39.889  14.438
79611W        W47941  26.128  41.890  11.552
79612W        W47942  33.560  15.283   2.682
79613W        W47943  10.797  14.270   1.365
79614W        W47944  22.519  25.570   1.700
79615W        W47945  26.543  26.157  11.494
79616W        W47946  14.714  11.227  10.645
79617W        W47947  10.859  17.080   2.327
79618W        W47948  32.576  34.887   4.219
79619W        W47949   0.338  13.720   1.295
79620W        W47950  10.196  29.045   0.886
79621W        W47951  41.888  16.678   0.318
79622W        W47952  18.742  37.842   3.855
79623W        W47953   4.224  21.160  12.393
79624W        W47954   6.421  15.127  13.963
79625W        W47955  28.506  41.409  12.864
79626W        W47956  23.077  14.101   4.162
79627W        W47957  31.449  40.957   1.290
79628W        W47958  36.368  27.005  13.944
79629W        W47959   5.865   2.457  13.496
79630W        W47960  44.462   1.819  11.938
79631W        W47961  30.488  25.068   4.784
79632W        W47962  34.436   0.919  11.989
79633W        W47963   4.320  44.466   2.762
79634W        W47964   8.179   3.395   4.131
79635W        W47965   9.739  33.446  12.561
79636W        W47966  11.211   8.272   3.745
79637W        W47967  18.197  39.942  14.975
79638W        W47968  31.073  32.548   2.720
79639W        W47969   3.752   7.370  12.858
79640W        W47970  32.939  11.180  12.077
79641W        W47971   3.332  21.619  14.920
79642W        W47972   2.904  44.268   0.733
79643W        W47973  43.378  28.167   0.779
79644W        W47974   0.870  14.653  13.464
79645W        W47975  23.501  26.670   1.823
79646W        W47976  20.616  32.487  11.488
79647W        W47977   3.783  33.417   3.731
79648W        W47978  42.006  39.971   0.373
79649W        W47979  26.030  38.023   3.258
79650W        W47980  16.808  29.537  11.577
79651W        W47981  39.458  32.440  12.380
79652W        W47982  17.133  36.426   3.319
79653W        W47983  12.345  12.355   3.778
79654W        W47984  39.008   3.903   1.278
79655W        W47985  22.012   5.893  11.546
79656W        W47986  25.511  16.713  12.830
79657W        W47987  36.400  38.973  14.858
79658W        W47988  28.473  44.428   2.233
79659W        W47989   3.844  21.521   1.717
79660W        W47990   8.658  22.661  14.511
79661W        W47991  32.075  40.963  14.417
79662W        W47992  33.607  13.625  14.004
79663W        W47993  33.391  32.581   1.439
79664W        W47994  23.040  39.006   2.417
79665W        W47995  35.596  32.590   1.790
79666W        W47996  21.238  38.938   2.372
79667W        W47997  32.917  26.479  12.342
79668W        W47998   7.250  34.384   1.380
79669W        W47999  40.958  19.196   2.302
79670W        W48000  21.555  24.090   0.747
79671W        W48001  32.458  21.171  14.364
79672W        W48002   1.918  31.896   3.325
79673W        W48003  33.451  35.060   2.810
79674W        W48004   6.378   3.253  10.017
79675W        W48005  33.023  35.532  13.490
79676W        W48006  34.951  12.237  13.320
79677W        W48007  29.086   0.313   3.793
79678W        W48008  42.000  26.971   2.698
79679W        W48009   9.684  44.392   3.840
79680W        W48010   3.819   2.356   0.308
79681W        W48011  37.546  20.189  14.488
79682W        W48012  39.417  17.692   3.208
79683W        W48013  26.175  39.533   1.912
79684W        W48014  30.068  44.486  12.474
79685W        W48015   8.319  26.198  13.929
79686W        W48016  40.882  20.551  12.412
79687W        W48017  26.575  30.645   1.907
79688W        W48018   2.374  41.387   3.671
79689W        W48019   9.156  12.839  13.927
79690W        W48020   3.790  14.278   0.828
79691W        W48021  35.028  30.414  12.876
79692W        W48022  38.983   8.175   0.781
79693W        W48023  25.166  19.584  10.490
79694W        W48024  32.103  43.969   1.924
79695W        W48025   3.248   7.327  10.412
79696W        W48026  42.880  31.589  11.605
79697W        W48027  32.481  19.176  13.825
79698W        W48028   0.410  30.094  12.016
79699W        W48029  16.101  37.523   0.943
79700W        W48030  21.571   5.715   2.679
79701W        W48031  15.710   7.761  14.320
79702W        W48032  42.899  10.339   2.794
79703W        W48033  17.247  31.479  14.864
79704W        W48034  13.214  13.302   0.920
79705W        W48035   8.702  22.120   0.814
79706W        W48036  35.567  16.741  14.772
79707W        W48037  19.243  30.127   5.658
79708W        W48038   0.875   2.228  12.359
79709W        W48039  41.355   8.809   3.705
79710W        W48040   1.332  19.559  11.983
79711W        W48041  22.705  23.732  11.058
79712W        W48042  13.242   2.279  11.473
79713W        W48043  18.203  29.520  12.901
79714W        W48044  14.722  40.452  13.525
79715W        W48045  11.214   6.705   0.769
79716W        W48046  35.436  26.122  12.034
79717W        W48047  22.135  36.029   3.281
79718W        W48048  10.646  30.151   2.751
79719W        W48049   9.675  24.151  10.950
79720W        W48050  22.670   2.411  11.901
79721W        W48051  13.632  39.008   3.156
79722W        W48052  12.338  37.539  10.905
79723W        W48053  30.563  40.480  14.903
79724W        W48054  26.964  37.954  11.897
79725W        W48055  41.937  15.822  10.976
79726W        W48056  12.304  26.195   4.771
79727W        W48057  15.122  12.148   2.201
79728W        W48058  15.182  35.594  11.461
79729W        W48059  22.657   2.776  11.605
79730W        W48060  37.494   1.446  13.317
79731W        W48061  37.910  13.352  14.803
79732W        W48062  42.465  28.439  13.431
79733W        W48063  10.732   4.357  14.029
79734W        W48064  42.377  26.957  14.290
79735W        W48065  42.520  30.496   4.682
79736W        W48066  19.240  32.438  14.444
79737W        W48067  20.583   5.906   1.794
79738W        W48068   0.418  17.662   4.712
79739W        W48069  19.631  15.780   2.280
79740W        W48070  25.612  23.648  10.896
79741W        W48071  26.636  34.023  13.892
79742W        W48072  18.092  15.649   2.812
79743W        W48073  29.975  30.565  14.795
79744W        W48074  12.131  15.776  10.986
79745W        W48075  26.561  33.918   2.211
79746W        W48076  31.125   9.304   2.884
79747W        W48077  33.556  36.865   2.700
79748W        W48078  11.142   7.870   3.802
79749W        W48079  16.313  24.636  13.980
79750W        W48080  18.222  12.721   4.705
79751W        W48081  28.639  21.713   3.838
79752W        W48082  28.049  30.998   2.827
79753W        W48083  37.023  20.715  12.395
79754W        W48084  19.105  35.889   2.353
79755W        W48085  16.159  10.807   1.793
79756W        W48086  28.038  34.470   4.671
79757W        W48087  20.088   1.765   3.222
79758W        W48088  34.569  14.213  13.998
79759W        W48089  28.006  19.769  14.902
79760W        W48090   1.785  17.710   0.727
79761W        W48091  19.658  27.013   4.663
79762W        W48092  35.584   0.927   2.801
79763W        W48093  33.458  33.404   3.688
79764W        W48094   6.871  23.160  14.461
79765W        W48095  35.472   8.195  11.576
79766W        W48096   7.761  12.332  14.434
79767W        W48097  19.774  24.711  10.516
79768W        W48098  18.716   6.371   3.341
79769W        W48099  29.092  26.052   4.678
79770W        W48100  22.163   0.966  14.783
79771W        W48101  33.434  42.348   0.801
79772W        W48102  36.553   1.429  12.425
79773W        W48103   0.369  42.504   3.799
79774W        W48104  26.178  38.420  14.816
79775W        W48105  10.731  25.984  12.537
79776W        W48106  43.949  34.962   1.701
79777W        W48107  24.035  15.822  10.098
79778W        W48108  33.981   3.839  13.888
79779W        W48109  23.662  38.389   0.748
79780W        W48110  28.014  20.087  11.107
79781W        W48111   5.799  35.498  14.424
79782W        W48112  18.595  22.739  13.846
79783W        W48113  32.122  22.060   4.780
79784W        W48114  37.575  19.550   4.746
79785W        W48115  30.568  18.552   2.678
79786W        W48116  25.523   9.371  12.939
79787W        W48117   1.909  38.531   1.767
79788W        W48118  20.587   0.833  14.323
79789W        W48119   1.977  11.765  14.502
79790W        W48120  37.944  33.579  13.511
79791W        W48121  22.131   4.415  12.085
79792W        W48122  12.230  12.157   2.351
79793W        W48123   8.237  39.945  14.883
79794W        W48124   9.200  31.463  13.011
79795W        W48125  17.557   5.387  13.040
79796W        W48126  24.579  33.519  14.943
79797W        W48127  36.936  14.608  11.070
79798W        W48128  21.737  35.892  13.853
79799W        W48129   7.293  11.688   1.291
79800W        W48130  16.603  30.983  11.403
79801W        W48131  27.105  27.163   4.766
79802W        W48132  29.633  26.519  12.552
79803W        W48133  21.063  18.788  11.577
79804W        W48134  29.450   5.264  12.993
79805W        W48135  25.987  24.066   1.900
79806W        W48136  29.099  28.181   1.847
79807W        W48137  37.982  30.630  13.037
79808W        W48138   1.974   8.708   2.758
79809W        W48139  33.875  22.049   0.737
79810W        W48140   9.373   0.956   2.717
79811W        W48141  34.957  13.618  10.424
79812W        W48142   2.256   8.769  11.992
79813W        W48143  28.448   6.817  14.285
79814W        W48144  18.079  33.519  12.839
79815W        W48145  20.657  35.545  10.497
79816W        W48146  21.573  39.393  14.504
79817W        W48147  28.942  41.457  11.913
79818W        W48148  39.426  36.460   0.824
79819W        W48149  44.502   3.782  10.584
79820W        W48150  36.037  16.579  14.294
79821W        W48151  35.105   6.907   4.834
79822W        W48152   7.889  41.523  13.545
79823W        W48153  20.126  41.876  10.587
79824W        W48154  13.241   4.930  13.344
79825W        W48155  11.335  22.165  12.910
79826W        W48156  18.631  34.990  10.012
79827W        W48157  12.118  41.352  11.446
79828W        W48158  32.115   4.925  10.138
79829W        W48159  15.714   9.254  14.283
79830W        W48160  24.505  23.714   4.260
79831W        W48161  12.188   1.408  12.410
79832W        W48162  38.044   3.273  11.566
79833W        W48163  39.512  13.813   1.244
79834W        W48164  38.852  37.399  10.597
79835W        W48165  43.346  36.015  12.058
79836W        W48166   7.229  39.065  10.962
79837W        W48167  28.079   0.312  12.979
79838W        W48168  34.445  25.669   0.903
79839W        W48169  43.962   4.361   1.344
79840W        W48170  25.678  27.044   3.752
79841W        W48171  43.839   1.251  12.440
79842W        W48172   6.765  27.613  10.595
79843W        W48173  29.638  33.935   4.347
79844W        W48174   0.262  42.342  11.105
79845W        W48175  35.496   9.344  14.316
79846W        W48176  24.537  29.009  10.442
79847W        W48177  15.710  19.748  10.442
79848W        W48178  28.445  10.694   0.427
79849W        W48179  16.801  16.090  10.898
79850W        W48180  23.584  44.982  14.416
79851W        W48181   0.744  24.090  12.826
79852W        W48182  20.181  23.528   3.362
79853W        W48183  39.400  11.705   4.172
79854W        W48184   9.865   1.928   0.407
79855W        W48185   0.364   9.261  10.514
79856W        W48186  41.335  30.936   3.726
79857W        W48187  42.520  17.561  11.084
79858W        W48188   8.202   4.389   0.814
79859W        W48189  35.081  30.529  10.042
79860W        W48190  10.294   6.182  14.339
79861W        W48191   3.727  38.402  12.029
79862W        W48192  38.842  36.931  14.762
79863W        W48193  38.536  20.676  10.949
79864W        W48194   9.173  34.601   1.731
79865W        W48195   1.477   4.707  11.537
79866W        W48196  32.530  36.518  14.864
79867W        W48197  10.237  34.588  11.009
79868W        W48198   8.362  37.925   2.776
79869W        W48199  14.820  29.074   4.342
79870W        W48200  43.890  31.948  14.286
79871W        W48201  36.434  38.844  14.402
79872W        W48202   9.277  23.545   0.782
79873W        W48203  25.198   9.825  13.916
79874W        W48204  30.457  26.515   3.788
79875W        W48205   2.803  20.185  11.508
79876W        W48206  14.340  42.823  10.417
79877W        W48207  24.636  36.419  14.764
79878W        W48208  43.305   6.291   4.320
79879W        W48209  28.070  40.400   4.160
79880W        W48210  15.265  41.303  11.606
79881W        W48211  42.875  17.710   1.272
79882W        W48212  13.314  20.094  12.966
79883W        W48213  40.884   8.728   0.424
79884W        W48214  18.295  25.066  12.910
79885W        W48215  23.106  37.908   3.677
79886W        W48216  23.178  42.297   2.719
79887W        W48217   8.329  10.765  14.955
79888W        W48218  29.607  10.823   3.188
79889W        W48219  37.837   7.245   3.358
79890W        W48220   0.444  10.255   2.346
79891W        W48221  30.558  43.853   1.222
79892W        W48222   8.720  36.368  12.417
79893W        W48223   6.870  23.075  13.794
79894W        W48224  14.250  11.139  14.314
79895W        W48225  21.208  23.173   4.287
79896W        W48226  39.528  38.518  13.809
79897W        W48227  19.590  18.621   1.728
79898W        W48228   9.310   1.244   1.800
79899W        W48229   0.253   6.808   4.239
79900W        W48230  30.426  30.985  11.444
79901W        W48231   6.814  12.627   3.702
79902W        W48232  18.557  14.604  11.483
79903W        W48233  44.290  29.534  14.902
79904W        W48234   3.348  38.850  10.078
79905W        W48235  36.957  44.357  11.446
79906W        W48236  14.598  33.984  10.943
79907W        W48237   5.701  22.533  11.856
79908W        W48238   3.929  21.749   3.842
79909W        W48239   6.827  12.356   0.852
79910W        W48240   7.794   2.846   2.361
79911W        W48241  15.168  26.530  14.315
79912W        W48242   8.273   4.943   1.365
79913W        W48243  41.876  30.000   4.768
79914W        W48244   7.236  26.647  13.325
79915W        W48245  40.357  33.887   4.733
79916W        W48246   4.867  18.169  12.487
79917W        W48247   5.298  33.454  14.485
79918W        W48248  19.621  26.120   3.643
79919W        W48249  10.653  41.934   4.150
79920W        W48250  36.438   5.403   4.128
79921W        W48251  17.744  29.174  11.509
79922W        W48252   0.249   6.375  13.468
79923W        W48253   0.935  38.824  11.120
79924W        W48254   1.814  23.583  13.364
79925W        W48255  10.747  29.953  11.028
79926W        W48256  38.393  24.065  11.486
79927W        W48257  27.982  43.405  13.995
79928W        W48258  35.393  27.014  10.518
79929W        W48259  26.603  39.838   1.729
79930W        W48260  43.378  10.849  14.486
79931W        W48261   0.393  23.222   4.316
79932W        W48262  33.604  33.421   1.896
79933W        W48263   2.340  19.260  10.447
79934W        W48264   6.704   9.691  11.127
79935W        W48265  44.974   6.768  14.361
79936W        W48266  14.753  18.700   4.303
79937W        W48267  43.337  24.670   3.186
79938W        W48268  14.686  32.574  14.421
79939W        W48269  23.597  39.871  11.491
79940W        W48270  42.484  34.917  14.384
79941W        W48271  44.836   4.292  10.414
79942W        W48272  33.095  43.334  14.027
79943W        W48273   5.275  12.815  14.980
79944W        W48274  11.322  38.850  10.977
79945W        W48275  15.667  34.009   4.802
79946W        W48276  34.602  17.197  13.317
79947W        W48277  37.897  43.916   4.311
79948W        W48278  11.680  31.026   3.711
79949W        W48279  35.981  34.068  11.396
79950W        W48280  34.033  19.766   1.342
79951W        W48281   1.313  38.398   9.528
79952W        W48282   8.655  27.495  14.508
79953W        W48283  12.325  32.924  13.506
79954W        W48284  17.158  29.507   4.746
79955W        W48285  33.449  34.527  10.599
79956W        W48286  14.245  10.153   2.877
79957W        W48287  19.661  26.097  10.639
79958W        W48288  33.986  39.046  11.509
79959W        W48289   0.418  24.988   0.733
79960W        W48290   3.215  20.120   3.371
79961W        W48291  21.043  41.298  11.383
79962W        W48292  13.310  35.980   1.932
79963W        W48293   4.717   0.274   1.904
79964W        W48294  14.761  42.287   0.729
79965W        W48295  38.835   1.808  13.836
79966W        W48296  21.689  16.223   9.497
79967W        W48297   4.400  13.351   1.441
79968W        W48298  36.945  27.092   0.366
79969W        W48299  44.273   5.701   4.146
79970W        W48300  41.496  40.928   1.425
79971W        W48301   8.714   9.879  10.607
79972W        W48302  39.438   4.857  11.912
79973W        W48303   4.209  26.642   0.412
79974W        W48304  21.140  28.597  12.982
79975W        W48305  39.541  39.875   4.696
79976W        W48306  37.534  37.887  14.507
79977W        W48307  20.626  39.858  11.890
79978W        W48308  17.640   3.323  14.372
79979W        W48309  42.284   9.218   3.370
79980W        W48310  28.061  23.614  10.962
79981W        W48311  30.060   5.227  11.870
79982W        W48312  38.495  33.456  14.932
79983W        W48313  21.017  41.814   4.114
79984W        W48314  29.502  36.391  11.609
79985W        W48315   1.932   1.400   2.877
79986W        W48316  23.150  30.048   5.624
79987W        W48317   2.846  20.111   4.327
79988W        W48318   0.952  33.083   4.822
79989W        W48319  29.010  29.067   3.337
79990W        W48320  24.212  25.482   0.297
79991W        W48321  44.004  10.807   4.114
79992W        W48322  15.729  37.086  11.440
79993W        W48323  24.639  37.534   3.315
79994W        W48324  13.250  41.527  14.389
79995W        W48325  30.529  42.872   2.286
79996W        W48326  13.161  18.649   3.349
79997W        W48327  29.505  25.963  14.311
79998W        W48328  15.782  42.475  12.841
79999W        W48329  42.352  15.597   4.283
80000W        W48330  24.549  39.367  10.978
80001W        W48331  21.121   0.359   4.819
80002W        W48332  18.771  36.369   0.418
80003W        W48333  43.389  33.603   1.280
80004W        W48334  39.967   4.441  14.500
80005W        W48335   2.893  31.950   3.636
80006W        W48336  22.107  19.099   9.553
80007W        W48337   2.344  29.524  13.023
80008W        W48338  25.690   7.371  10.448
80009W        W48339  44.857  10.292   4.665
80010W        W48340  25.485  23.618  14.935
80011W        W48341  33.401  11.791  12.052
80012W        W48342  37.524  13.610  12.994
80013W        W48343  11.181   0.494  12.832
80014W        W48344  17.655  41.812  10.493
80015W        W48345   7.345   5.769  12.455
80016W        W48346  31.973  15.701  11.599
80017W        W48347  44.831  27.020   0.283
80018W        W48348  12.799  26.154  12.920
80019W        W48349   6.903  39.314   4.764
80020W        W48350  32.991  26.557  14.456
80021W        W48351  20.586  13.254  11.949
80022W        W48352  23.159  14.746  13.525
80023W        W48353  23.009   4.403  11.413
80024W        W48354  19.231  14.796   0.443
80025W        W48355  15.182   1.864  14.388
80026W        W48356  42.482  32.989  12.471
80027W        W48357  36.874  14.315   0.450
80028W        W48358  27.587  25.109  13.914
80029W        W48359  12.166  12.215  12.940
80030W        W48360  10.151  18.666  13.856
80031W        W48361   2.840  14.635  11.009
80032W        W48362  13.675   5.220  12.438
80033W        W48363  18.248  34.070  14.970
80034W        W48364   2.263  23.622  14.513
80035W        W48365  11.850   6.829  13.909
80036W        W48366  21.216  35.094   0.915
80037W        W48367  30.031  10.744   3.273
80038W        W48368  30.056   5.913   1.329
80039W        W48369  33.605   7.347  14.760
80040W        W48370   0.490  15.213   4.783
80041W        W48371  13.784   0.975   4.627
80042W        W48372   3.309  28.449  13.817
80043W        W48373  44.898  40.544  13.064
80044W        W48374  30.100  32.003  14.807
80045W        W48375  24.628  12.272  11.947
80046W        W48376  32.483  10.682   1.928
80047W        W48377  25.539  31.493  13.936
80048W        W48378  39.884  41.907  13.888
80049W        W48379  21.136  26.542   3.186
80050W        W48380   4.386  16.747   2.204
80051W        W48381   8.379  16.613  11.105
80052W        W48382  33.966  42.853   1.292
80053W        W48383  39.031  13.665  14.302
80054W        W48384   2.768   6.281  10.630
80055W        W48385   1.424  17.083   3.381
80056W        W48386  12.199  30.029  11.050
80057W        W48387  15.792  34.970   4.207
80058W        W48388  11.656   4.319   0.783
80059W        W48389  21.216  40.874   4.209
80060W        W48390  42.889  41.982   0.342
80061W        W48391  25.042  21.606  12.368
80062W        W48392   6.198  19.583  12.828
80063W        W48393   9.270  36.853  13.874
80064W        W48394  20.633  35.426  14.409
80065W        W48395   3.890  12.841  11.969
80066W        W48396   4.724  40.426  10.147
80067W        W48397  10.724  17.737   3.278
80068W        W48398   3.321  37.577   3.332
80069W        W48399  25.593  39.850  11.537
80070W        W48400  21.569  11.664   4.269
80071W        W48401  42.443  32.037  11.020
80072W        W48402  11.315  21.108   3.779
80073W        W48403  37.940  33.394  10.934
80074W        W48404  42.281  28.932   4.625
80075W        W48405  27.944  32.472  12.554
80076W        W48406  31.503   5.335  13.501
80077W        W48407  10.168  14.272  11.447
80078W        W48408  36.537  13.694  13.458
80079W        W48409   2.345  13.831   3.217
80080W        W48410  15.615  22.014  12.868
80081W        W48411  17.678  19.660   2.299
80082W        W48412   3.727   5.821   4.192
80083W        W48413   6.213   4.448  11.472
80084W        W48414  23.591  27.647   3.800
80085W        W48415   0.882  23.697  12.987
80086W        W48416  20.041  25.067   3.690
80087W        W48417  37.991  11.848  11.014
80088W        W48418  30.980  12.612  14.512
80089W        W48419   9.705  32.480   2.181
80090W        W48420  32.503  17.249   3.347
80091W        W48421  37.526   7.861   0.803
80092W        W48422  10.321  38.948  13.494
80093W        W48423   3.828   3.908   4.812
80094W        W48424   8.244  36.425  13.400
80095W        W48425   6.315  13.734   1.880
80096W        W48426  35.064  16.728  10.894
80097W        W48427  32.062  43.359   1.245
80098W        W48428  34.559  24.562   0.243
80099W        W48429   4.296  23.117   0.437
80100W        W48430  27.007  12.725   5.289
80101W        W48431  39.368   9.756   2.249
80102W        W48432  21.262  36.990   1.304
80103W        W48433  35.072   9.867   3.258
80104W        W48434  44.855   8.337   3.235
80105W        W48435  44.302  14.644  14.966
80106W        W48436  42.471  20.749   3.158
80107W        W48437  42.468  32.971   0.411
80108W        W48438  13.196  31.121  11.936
80109W        W48439  23.697  13.845  14.417
80110W        W48440  22.236  29.448   3.192
80111W        W48441   4.860  19.271   2.284
80112W        W48442  40.483  26.648   1.710
80113W        W48443  15.716  36.964  11.987
80114W        W48444  42.460  37.555  12.823
80115W        W48445  33.130   5.239   1.894
80116W        W48446  24.043  30.535  10.429
80117W        W48447  17.076  44.442  11.489
80118W        W48448  15.220  44.843   2.187
80119W        W48449   1.431   1.776   2.243
80120W        W48450  44.476   4.866  13.801
80121W        W48451   4.803  11.833   0.878
80122W        W48452  20.211  16.586   5.653
80123W        W48453  10.351  42.010   4.119
80124W        W48454   5.801   5.794  12.050
80125W        W48455  17.159  28.137   5.114
80126W        W48456  42.357  12.228   2.714
80127W        W48457  25.030   9.296  14.945
80128W        W48458  22.683  16.596   3.381
80129W        W48459  10.766   9.214   0.865
80130W        W48460  26.141  18.778  13.010
80131W        W48461  13.736   4.787  14.011
80132W        W48462  19.569  37.386  10.566
80133W        W48463  36.447  23.696   5.270
80134W        W48464   7.874  23.719   0.771
80135W        W48465   8.722  24.662   1.262
80136W        W48466  16.663  39.488  11.917
80137W        W48467  14.731   8.348  13.801
80138W        W48468  22.062  11.790   3.835
80139W        W48469   6.340  43.006  11.880
80140W        W48470  42.352  27.995   3.358
80141W        W48471  21.731  16.754   3.145
80142W        W48472  12.792  38.385   4.339
80143W        W48473  14.595  35.434   0.814
80144W        W48474   6.716  15.608  11.438
80145W        W48475  18.172  27.590   3.811
80146W        W48476  26.536  13.606   4.673
80147W        W48477  18.572   9.338  11.553
80148W        W48478  34.600  33.620   0.771
80149W        W48479  41.864  34.547   2.685
80150W        W48480  30.094  11.190  13.837
80151W        W48481  30.501  33.119   0.374
80152W        W48482  27.039  22.550   4.219
80153W        W48483  28.526  11.228  10.889
80154W        W48484  15.114  35.568   9.928
80155W        W48485  22.045   4.292  13.310
80156W        W48486  13.286  21.744  12.092
80157W        W48487   5.777  16.737  14.957
80158W        W48488  21.575  10.714  13.356
80159W        W48489  41.455   3.903  12.342
80160W        W48490   4.303  41.316  14.783
80161W        W48491   4.837   4.380  13.399
80162W        W48492  33.123  42.330   4.244
80163W        W48493  42.464  36.409  12.994
80164W        W48494  21.101  23.028  14.998
80165W        W48495  42.492  12.776  14.505
80166W        W48496  26.139   6.803  10.921
80167W        W48497   1.358  23.075   1.803
80168W        W48498  44.924  43.776  10.441
80169W        W48499  16.247  16.713   1.313
80170W        W48500  12.786   7.292  12.969
80171W        W48501  14.300  39.339  10.460
80172W        W48502  19.099  16.239   1.359
80173W        W48503   9.349  28.175   2.747
80174W        W48504  43.516  16.785   1.370
80175W        W48505   3.298   3.880  11.073
80176W        W48506  33.476  26.968   0.910
80177W        W48507  14.121  30.492  14.466
80178W        W48508  40.940   9.712   3.674
80179W        W48509  43.948  21.533   3.172
80180W        W48510  24.641  27.504  14.981
80181W        W48511  17.761  11.770  12.009
80182W        W48512   1.776  14.236  14.890
80183W        W48513  21.088  35.595  14.275
80184W        W48514  44.464  14.718  10.500
80185W        W48515  44.388  19.554  10.089
80186W        W48516  42.988  23.164   1.818
80187W        W48517  28.064  19.634   2.411
80188W        W48518  37.057  32.544  14.980
80189W        W48519  34.018  18.658  13.899
80190W        W48520  15.325  12.740  13.365
80191W        W48521  36.026   4.896   4.696
80192W        W48522  13.188  26.580   2.672
80193W        W48523  44.371  38.017   2.846
80194W        W48524  13.211  17.752   3.658
80195W        W48525  25.033  42.830   1.831
80196W        W48526  14.619  27.574   2.230
80197W        W48527   3.445  42.958  12.368
80198W        W48528  38.452   8.170  11.538
80199W        W48529   0.963  16.701  14.419
80200W        W48530  20.662   6.230   3.356
80201W        W48531  11.713  41.424  11.574
80202W        W48532  36.010   1.375   1.786
80203W        W48533   7.786  26.050   2.242
80204W        W48534  15.658  34.454   4.165
80205W        W48535  13.238  38.421  13.011
80206W        W48536  30.048  35.505   2.784
80207W        W48537  43.355  33.929   1.842
80208W        W48538  17.571  22.578   4.158
80209W        W48539   8.200  27.000  11.963
80210W        W48540  31.092  28.550  11.571
80211W        W48541  39.993   1.463   0.398
80212W        W48542  23.039  21.262  13.998
80213W        W48543  16.251  32.037  11.989
80214W        W48544  40.398  11.757   1.915
80215W        W48545  14.693   4.426  12.576
80216W        W48546  25.613  12.770   5.136
80217W        W48547  20.592  16.187   1.931
80218W        W48548  24.104  17.734  14.288
80219W        W48549  31.529   4.815  14.002
80220W        W48550   9.870  33.569   3.718
80221W        W48551  15.321   1.354   3.234
80222W        W48552  25.560  26.988  12.447
80223W        W48553  39.813   6.269   4.648
80224W        W48554  19.177  27.055  11.394
80225W        W48555  12.633   8.163   1.286
80226W        W48556  39.430  31.604   4.322
80227W        W48557  38.368  28.568  10.981
80228W        W48558   2.754  39.950   0.346
80229W        W48559  12.752  11.266   2.221
80230W        W48560  36.973  16.778  10.467
80231W        W48561  28.128  10.779   0.842
80232W        W48562  18.287  13.825   0.274
80233W        W48563  43.475  31.646  12.012
80234W        W48564  12.691  41.414   1.795
80235W        W48565   9.751  16.093   1.917
80236W        W48566  22.508  10.865  11.413
80237W        W48567   7.837  17.589   1.729
80238W        W48568  39.930  18.661   1.844
80239W        W48569  38.951  31.138  10.963
80240W        W48570  36.932  22.523   0.276
80241W        W48571  20.207   5.352   3.246
80242W        W48572  43.881  28.182   3.203
80243W        W48573  32.423  27.195   1.235
80244W        W48574  14.311  20.169   4.228
80245W        W48575  44.989  32.935   1.438
80246W        W48576  21.180   4.772  11.987
80247W        W48577  25.173   2.409   2.834
80248W        W48578  16.162  39.857   1.785
80249W        W48579  40.824  29.099  13.027
80250W        W48580  27.152  34.933  12.457
80251W        W48581  44.992  43.823  10.950
80252W        W48582  29.458  16.245  10.607
80253W        W48583  19.166   8.353  10.405
80254W        W48584  41.878  21.250   4.295
80255W        W48585  36.577  33.409   0.801
80256W        W48586  10.365  15.682  13.903
80257W        W48587  43.438  44.495   3.313
80258W        W48588  18.766   2.730   1.763
80259W        W48589  15.713  20.530  13.895
80260W        W48590  29.065  28.110  13.961
80261W        W48591  41.348  30.025   4.693
80262W        W48592  44.860  31.118  14.761
80263W        W48593  38.870  44.268   2.833
80264W        W48594  21.591  38.829   0.868
80265W        W48595  30.422  11.191  14.793
80266W        W48596  10.138  38.447  12.842
80267W        W48597  34.895   1.764   0.756
80268W        W48598  34.101   4.373   4.748
80269W        W48599  19.183   6.797   2.819
80270W        W48600   3.330  19.748   4.220
80271W        W48601   5.235  34.013  14.026
80272W        W48602  33.968   9.729  10.442
80273W        W48603  37.556  13.714  12.566
80274W        W48604  21.157  16.239  11.473
80275W        W48605  42.427  25.006  12.490
80276W        W48606  42.925  13.221  13.330
80277W        W48607   1.945  28.952  13.488
80278W        W48608  16.631  44.340  12.906
80279W        W48609   9.337   0.417  14.845
80280W        W48610  33.521  15.093  13.927
80281W        W48611  15.152  41.429  11.058
80282W        W48612   0.250  43.926   0.738
80283W        W48613  30.433  40.952  11.041
80284W        W48614  28.668  41.921   1.282
80285W        W48615   3.266  34.541   2.900
80286W        W48616  37.518  14.678  12.954
80287W        W48617  40.437  28.079   3.308
80288W        W48618  13.750  39.892  11.072
80289W        W48619  22.712  22.093   3.728
80290W        W48620  10.200  43.824  11.559
80291W        W48621  13.257  36.577   2.191
80292W        W48622   1.880  40.938   2.204
80293W        W48623  33.530  18.295  11.966
80294W        W48624  11.837  18.078   2.858
80295W        W48625   9.723  16.306   3.245
80296W        W48626  10.772  19.575  10.590
80297W        W48627  43.997   3.751   2.664
80298W        W48628  41.922  22.125   3.653
80299W        W48629  40.051   4.250   4.173
80300W        W48630   8.303  35.018  10.522
80301W        W48631   4.417  44.783  12.982
80302W        W48632  32.032  10.852  11.019
80303W        W48633  27.651  42.862   2.335
80304W        W48634  10.336  31.974  13.940
80305W        W48635  29.097  44.767  12.448
80306W        W48636  17.108  41.413   0.914
80307W        W48637  43.912  17.766   4.788
80308W        W48638  39.335   4.744   3.853
80309W        W48639  29.131  12.141  13.922
80310W        W48640  10.138  41.427   0.903
80311W        W48641   7.178  34.027   3.753
80312W        W48642  11.145  20.085   3.640
80313W        W48643  14.276  35.866  11.885
80314W        W48644  30.135  14.730   0.928
80315W        W48645  27.671  17.686  14.317
80316W        W48646  29.174  39.880  12.849
80317W        W48647  43.021   4.891  12.578
80318W        W48648  43.913  21.656  13.521
80319W        W48649   3.381  37.991  13.457
80320W        W48650   0.329  38.866  12.368
80321W        W48651  20.634  25.685   3.205
80322W        W48652  43.790  11.632  14.277
80323W        W48653  31.933  43.477  12.341
80324W        W48654   6.204  19.184  14.013
80325W        W48655  27.525  39.535   4.835
80326W        W48656  26.128  16.806   4.786
80327W        W48657  42.801  34.394   4.182
80328W        W48658  44.775  26.074   0.444
80329W        W48659  14.670   9.220  13.939
80330W        W48660  27.496  21.589   1.309
80331W        W48661  31.007   5.286   4.701
80332W        W48662  13.189  29.605  13.530
80333W        W48663  35.104  31.990   3.382
80334W        W48664  34.877  18.667   4.327
80335W        W48665   0.927   0.847   3.866
80336W        W48666  13.345  30.984   4.144
80337W        W48667  44.937  13.204   4.619
80338W        W48668  10.307   6.682  14.026
80339W        W48669   9.737  27.128  13.874
80340W        W48670  18.284  26.544  12.439
80341W        W48671  20.242  32.958   0.483
80342W        W48672  26.491   2.286   4.656
80343W        W48673  23.177  25.565  10.571
80344W        W48674  19.249  42.491  11.111
80345W        W48675  37.009  14.613  14.917
80346W        W48676  22.553   1.860   2.345
80347W        W48677  43.440  27.959  13.346
80348W        W48678  43.413  24.158   0.836
80349W        W48679  12.195  29.956   2.410
80350W        W48680  36.479  16.736   1.905
80351W        W48681  43.319  41.026   2.396
80352W        W48682  31.555  21.024   1.347
80353W        W48683  21.553  40.378   3.280
80354W        W48684   7.342  20.744  10.598
80355W        W48685  13.255  23.666   2.778
80356W        W48686  20.662   7.400   9.976
80357W        W48687  40.014  28.021   0.821
80358W        W48688  22.193  39.060  11.041
80359W        W48689  25.011  44.504   1.240
80360W        W48690  25.190  37.922   2.892
80361W        W48691  37.503  33.886  11.445
80362W        W48692  17.097  41.986  13.447
80363W        W48693  12.781  25.963  11.512
80364W        W48694  44.473   2.784   1.344
80365W        W48695  36.593   7.878  12.069
80366W        W48696  24.541  27.084  11.587
80367W        W48697  27.991   8.206   2.183
80368W        W48698  16.694  15.285   2.885
80369W        W48699   6.914   4.940   4.667
80370W        W48700  12.790  26.592   4.814
80371W        W48701  42.372  28.034   2.317
80372W        W48702   8.331  30.138  14.418
80373W        W48703  37.984  28.095  12.372
80374W        W48704   1.741  18.649   4.311
80375W        W48705  20.041  26.520   2.411
80376W        W48706  36.531  32.940   0.874
80377W        W48707  24.168  35.062   3.186
80378W        W48708  28.513  37.412  10.931
80379W        W48709   3.898   8.161  10.486
80380W        W48710   8.288  19.672  13.935
80381W        W48711  34.036   4.304   4.258
80382W        W48712  39.539  24.535  13.331
80383W        W48713  18.552  13.846  14.393
80384W        W48714  34.106  32.444  11.934
80385W        W48715  36.970  43.802  13.022
80386W        W48716  38.819  35.574  13.435
80387W        W48717  29.064  34.018   5.200
80388W        W48718  42.877   9.202   4.299
80389W        W48719  18.668  39.365   0.788
80390W        W48720  12.345  26.543  14.363
80391W        W48721   1.887   9.318   4.755
80392W        W48722  14.666  10.376   3.769
80393W        W48723  17.114  14.153   1.699
80394W        W48724  27.976  41.911  14.007
80395W        W48725  10.770  10.348  14.979
80396W        W48726  30.996  23.191  10.527
80397W        W48727  24.594  22.221  10.407
80398W        W48728   9.198  42.023  13.042
80399W        W48729  40.896  10.214  14.371
80400W        W48730  16.746   6.684   2.190
80401W        W48731  19.048   6.361   3.849
80402W        W48732  19.714  29.103   4.128
80403W        W48733   8.811  36.352   1.267
80404W        W48734  16.666   0.271   0.807
80405W        W48735   9.657  27.170  12.825
80406W        W48736  25.671  19.672  10.547
80407W        W48737  42.330  23.649   3.200
80408W        W48738  17.576   5.877  14.395
80409W        W48739  24.490  25.544   1.847
80410W        W48740  12.680  25.081   3.652
80411W        W48741  40.026  11.627  12.891
80412W        W48742   6.710   0.381   1.894
80413W        W48743  23.572  14.691   0.331
80414W        W48744  32.989  37.555  13.352
80415W        W48745  27.641  12.139   0.817
80416W        W48746  35.899  38.438  11.488
80417W        W48747  10.757   4.849  10.515
80418W        W48748  20.156  39.027   4.750
80419W        W48749  18.237  15.636   0.304
80420W        W48750  34.562   7.831  12.029
80421W        W48751   2.769  30.022   4.228
80422W        W48752  31.936  20.759   3.722
80423W        W48753  19.604  11.751   5.264
80424W        W48754  39.346  34.979  11.501
80425W        W48755  33.108  18.272  10.612
80426W        W48756   6.285  13.249   0.753
80427W        W48757  34.545  20.210   3.343
80428W        W48758  22.681  11.141  10.475
80429W        W48759  11.182   3.343  14.337
80430W        W48760   3.932   2.758   4.744
80431W        W48761  16.624  25.700   1.707
80432W        W48762  40.833  32.112   2.192
80433W        W48763  16.313   3.717  10.508
80434W        W48764   5.885  20.130   3.324
80435W        W48765   5.819  43.362  14.845
80436W        W48766  11.688  12.716  10.645
80437W        W48767  44.973  31.996  11.582
80438W        W48768   0.365   9.311  12.406
80439W        W48769  29.646  27.448   2.360
80440W        W48770  20.089  32.912   1.769
80441W        W48771  23.527  15.124  13.428
80442W        W48772  27.947  32.596  14.805
80443W        W48773  39.517  14.626   4.193
80444W        W48774  36.554   0.437   1.450
80445W        W48775  28.113  11.734   2.837
80446W        W48776   9.684  24.011  10.463
80447W        W48777  12.137  40.306   0.740
80448W        W48778  37.900  21.118  10.932
80449W        W48779  18.209   6.401  14.760
80450W        W48780  29.026   9.724   0.476
80451W        W48781  20.228  38.024  13.876
80452W        W48782  24.502  18.649   4.701
80453W        W48783  16.318   9.292  12.974
80454W        W48784  28.495  18.129  12.577
80455W        W48785  24.142  37.366  13.424
80456W        W48786   1.802  25.542   0.735
80457W        W48787  10.832   9.238  13.893
80458W        W48788  38.526   8.273  13.482
80459W        W48789  30.657  20.100  13.824
80460W        W48790   5.784   6.247   4.343
80461W        W48791  30.143  21.140   3.198
80462W        W48792  33.897  13.705  13.415
80463W        W48793  23.732  41.838  10.448
80464W        W48794  20.161  34.544  13.344
80465W        W48795   7.187  20.157   4.191
80466W        W48796   6.405   8.823   5.097
80467W        W48797   9.775   2.234  12.011
80468W        W48798  15.685  38.824  14.884
80469W        W48799   3.801  14.095  12.527
80470W        W48800  42.287  33.958   3.304
80471W        W48801  29.603  32.936  11.592
80472W        W48802  33.036  26.674  10.612
80473W        W48803  16.156  21.606  10.990
80474W        W48804  36.452  30.572  13.812
80475W        W48805  15.688   8.205  13.825
80476W        W48806  39.481  31.104  12.516
80477W        W48807  15.093  37.410  12.491
80478W        W48808  39.496   7.273   5.232
80479W        W48809   4.771  21.181   3.305
80480W        W48810  12.329  14.242  11.068
80481W        W48811  18.288  41.359  10.532
80482W        W48812  40.485  39.833   0.892
80483W        W48813  10.752  39.335  13.493
80484W        W48814  15.777  24.120  10.500
80485W        W48815  14.130  10.224  11.959
80486W        W48816  28.611  38.018   1.906
80487W        W48817  13.642  15.121   4.830
80488W        W48818  11.803  21.246   3.727
80489W        W48819   9.244  31.499  12.360
80490W        W48820  17.114  21.070   1.334
80491W        W48821  35.421  23.164  12.984
80492W        W48822  35.430  14.235   1.913
80493W        W48823  25.513  18.763  14.915
80494W        W48824  38.054  12.810  11.449
80495W        W48825  38.520  30.457   4.114
80496W        W48826  36.935   0.459   4.671
80497W        W48827  21.513  38.027   1.919
80498W        W48828  19.130   5.870  11.545
80499W        W48829  21.252  29.551  11.590
80500W        W48830  33.514  31.978  12.506
80501W        W48831  41.920  18.739  13.508
80502W        W48832  16.185  13.324   4.635
80503W        W48833  43.898   9.830  14.454
80504W        W48834  15.807   9.717  10.973
80505W        W48835  42.409  13.652  13.460
80506W        W48836  39.811  37.079   4.132
80507W        W48837  23.718  35.954  10.463
80508W        W48838  34.984   9.755   3.866
80509W        W48839  34.086   3.310  11.384
80510W        W48840   3.773  15.641  11.484
80511W        W48841   8.221  25.061   4.653
80512W        W48842  16.196  43.898  11.994
80513W        W48843  39.313   8.281  10.614
80514W        W48844  33.964  23.047   0.291
80515W        W48845  22.703   3.922   4.662
80516W        W48846  13.133  42.819   1.831
80517W        W48847  19.117   5.375   1.911
80518W        W48848  12.652  20.220   0.866
80519W        W48849  20.185  13.122   0.932
80520W        W48850  29.987  23.513  11.094
80521W        W48851  18.271  20.553   1.358
80522W        W48852  20.717  42.941  14.276
80523W        W48853  16.602   3.935  13.422
80524W        W48854  40.379  14.290  11.470
80525W        W48855  32.032  36.960  12.513
80526W        W48856   0.343  38.829  14.502
80527W        W48857  18.190  34.008  10.575
80528W        W48858   2.871  37.000   0.394
80529W        W48859  14.103   4.803   3.819
80530W        W48860  40.800  17.645  14.859
80531W        W48861  41.015  30.154  13.814
80532W        W48862  36.091   2.285  14.917
80533W        W48863  40.353  28.672   2.674
80534W        W48864  20.654  40.859  14.315
80535W        W48865  32.961   5.401   0.789
80536W        W48866  27.666   2.420  14.447
80537W        W48867  32.064   0.466  12.369
80538W        W48868  16.263   5.871   1.863
80539W        W48869  13.107  41.504   4.327
80540W        W48870  43.875  21.565   0.843
80541W        W48871  11.723  15.663   3.319
80542W        W48872  38.058  25.641  10.512
80543W        W48873  24.990  38.998  11.029
80544W        W48874  10.331  23.618   1.220
80545W        W48875  21.149  21.747   3.730
80546W        W48876   6.749  23.005  10.924
80547W        W48877  17.182  25.631   3.834
80548W        W48878  39.046   3.278  10.032
80549W        W48879  18.625  14.187  14.819
80550W        W48880  39.962  40.305   3.371
80551W        W48881  10.303  44.788   3.359
80552W        W48882  17.764  19.147  14.374
80553W        W48883   3.815   5.383  14.888
80554W        W48884   8.697  26.089  11.490
80555W        W48885  31.035  27.141  12.846
80556W        W48886  43.831   7.712   0.275
80557W        W48887  12.750  20.030   0.345
80558W        W48888  38.522  37.962   2.403
80559W        W48889   8.752  31.076   2.782
80560W        W48890  28.613  10.182   4.747
80561W        W48891  38.988  21.239   0.454
80562W        W48892  20.629  22.511  11.419
80563W        W48893  41.492  15.584   2.372
80564W        W48894  32.395  43.433  14.446
80565W        W48895  36.472   4.437  12.570
80566W        W48896   1.925  21.696   2.780
80567W        W48897  44.004  36.987   3.315
80568W        W48898  35.917  33.506   4.612
80569W        W48899  36.384  22.116   1.777
80570W        W48900  27.457  20.148  10.494
80571W        W48901   6.371  22.028  10.592
80572W        W48902   6.758   2.307  11.076
80573W        W48903  20.054   1.944   0.265
80574W        W48904  34.401  38.345   3.671
80575W        W48905  35.593  26.136   4.311
80576W        W48906  18.659   9.849  13.860
80577W        W48907  38.996  38.993   3.831
80578W        W48908  21.645  34.055  13.538
80579W        W48909  34.494   4.444  13.044
80580W        W48910  13.641  15.749  11.098
80581W        W48911  24.521   9.197   1.910
80582W        W48912  41.301   7.195  10.888
80583W        W48913  17.079   6.892   1.772
80584W        W48914  38.969   6.312  14.462
80585W        W48915  29.504  42.876   4.323
80586W        W48916  19.588   6.401  13.877
80587W        W48917  43.387  12.735  10.606
80588W        W48918  14.132  33.541   1.735
80589W        W48919  17.062  29.564  11.376
80590W        W48920  42.281  43.355   3.166
80591W        W48921   7.331  15.710   9.932
80592W        W48922   0.855  25.552   3.249
80593W        W48923   4.899  19.746  12.396
80594W        W48924   5.833  39.043  11.580
80595W        W48925  14.198   5.919  13.922
80596W        W48926   2.437   9.185   2.239
80597W        W48927  25.484  13.742   1.345
80598W        W48928  35.544  32.973   1.864
80599W        W48929   1.474  35.045  11.034
80600W        W48930   8.386  42.526  13.892
80601W        W48931  28.462   1.961  11.418
80602W        W48932   8.707  19.686  13.485
80603W        W48933  22.605  13.284   4.153
80604W        W48934   4.745  39.430   4.702
80605W        W48935   7.379   6.280   3.795
80606W        W48936  24.127  11.293  13.402
80607W        W48937  31.031  16.230   3.195
80608W        W48938   3.844  13.641  11.902
80609W        W48939  17.110  14.118   2.278
80610W        W48940  42.319  25.155  11.540
80611W        W48941  33.998  25.076  11.107
80612W        W48942  27.505  22.563  12.434
80613W        W48943  20.625  16.788   1.351
80614W        W48944  26.097  11.862  11.419
80615W        W48945  34.995   6.745   0.796
80616W        W48946   5.916  40.542  13.845
80617W        W48947   7.682  24.625   4.803
80618W        W48948  11.699  42.291  10.488
80619W        W48949  13.108   8.165  12.872
80620W        W48950  29.969  30.460   4.713
80621W        W48951  32.914  33.060  14.356
80622W        W48952  21.104  20.672  10.924
80623W        W48953   0.451  10.150   0.425
80624W        W48954  30.117  23.551   0.906
80625W        W48955   3.822  32.508  11.097
80626W        W48956  15.756  33.023   1.914
80627W        W48957  30.003  28.127   1.703
80628W        W48958  28.626  19.736  11.605
80629W        W48959  32.998   5.708  13.967
80630W        W48960  41.043  38.559  11.521
80631W        W48961  29.537  37.466   0.936
80632W        W48962   5.283  26.661   1.299
80633W        W48963  39.916  25.015  10.477
80634W        W48964  40.828   3.744  12.356
80635W        W48965  40.305  42.871  14.494
80636W        W48966   7.876   2.892   0.414
80637W        W48967  19.107  31.044  10.520
80638W        W48968  30.149  19.603  14.955
80639W        W48969  31.119  25.017  10.055
80640W        W48970  22.101  25.165  14.278
80641W        W48971  43.372  25.114   0.947
80642W        W48972  18.065   1.293  14.005
80643W        W48973  15.764  23.598  10.614
80644W        W48974  38.370   7.260   3.839
80645W        W48975  29.609   1.873   0.820
80646W        W48976  31.567  42.431  12.553
80647W        W48977  38.393  34.006  11.520
80648W        W48978  40.987   6.859  11.908
80649W        W48979  38.050  14.730   4.676
80650W        W48980   6.185   3.376   0.926
80651W        W48981  33.127  30.496  14.849
80652W        W48982   4.401  42.955  12.943
80653W        W48983  42.409   3.921   3.360
80654W        W48984  24.659   3.714   2.741
80655W        W48985   2.247  23.633   2.690
80656W        W48986  42.857  21.126   2.694
80657W        W48987   9.693  21.607   3.322
80658W        W48988  18.154  26.581  11.127
80659W        W48989  33.939   0.274   3.281
80660W        W48990  11.165  28.439   1.841
80661W        W48991  16.607  18.688   4.192
80662W        W48992  38.870   6.713   1.750
80663W        W48993  18.229  11.170  13.405
80664W        W48994  20.152  26.956   0.419
80665W        W48995  10.236  26.955   3.648
80666W        W48996  26.634   4.366   0.249
80667W        W48997   4.833  12.279   1.862
80668W        W48998  23.691  43.286  11.899
80669W        W48999  22.079   6.728  11.376
80670W        W49000   8.695   8.306  12.019
80671W        W49001   7.337   6.887   2.340
80672W        W49002  31.118   1.891  10.445
80673W        W49003  16.084   5.901   2.291
80674W        W49004  42.404  44.771  11.037
80675W        W49005  34.866  19.271   3.768
80676W        W49006  21.055  12.317  13.892
80677W        W49007  22.537  33.981  11.986
80678W        W49008  35.401  13.646   2.817
80679W        W49009  24.152  40.524   1.748
80680W        W49010  41.381  39.827  13.891
80681W        W49011  11.248  38.512  12.413
80682W        W49012  19.211  24.694  12.993
80683W        W49013  30.921  44.918  13.880
80684W        W49014  22.117  17.079  11.014
80685W        W49015  39.477  35.933  14.439
80686W        W49016  27.049   2.768  14.905
80687W        W49017  38.863  33.937  14.318
80688W        W49018  19.281  40.469   4.761
80689W        W49019  36.875  19.207  13.824
80690W        W49020  20.079  31.130  13.860
80691W        W49021  27.049  23.593  10.511
80692W        W49022   7.755   8.712   4.232
80693W        W49023  18.601   5.389   4.303
80694W        W49024  10.774  24.225  12.489
80695W        W49025  34.571  28.461  10.978
80696W        W49026   6.201  39.418   4.144
80697W        W49027  34.601  43.416  13.524
80698W        W49028  36.363   4.415   1.212
80699W        W49029  35.974  27.545   2.742
80700W        W49030  29.555  19.649   4.608
80701W        W49031   4.254  37.857   5.217
80702W        W49032  41.376  38.065   3.800
80703W        W49033   6.336  24.570  13.015
80704W        W49034  23.098  18.125   4.234
80705W        W49035  24.158  16.722  11.613
80706W        W49036  28.024  41.793  14.783
80707W        W49037   6.191  23.573  13.991
80708W        W49038  40.406  36.437   3.260
80709W        W49039   0.279  35.031   3.714
80710W        W49040  39.943  39.969  13.994
80711W        W49041  28.508  34.924  13.451
80712W        W49042  25.538  24.169  13.453
80713W        W49043   0.486   7.385   3.723
80714W        W49044  17.673  35.398   0.922
80715W        W49045  15.303  12.171   0.802
80716W        W49046  17.671  36.876   4.636
80717W        W49047   0.330  43.433   1.320
80718W        W49048  44.976  34.041  14.808
80719W        W49049  10.147   1.464   0.898
80720W        W49050  23.077  32.055   3.196
80721W        W49051  35.460  25.577  10.519
80722W        W49052  42.294  10.210   1.364
80723W        W49053  19.662   3.448   2.179
80724W        W49054   3.832  17.747   3.264
80725W        W49055  32.914  41.841  14.955
80726W        W49056  20.728  22.687  13.506
80727W        W49057  12.248  12.652   2.213
80728W        W49058  43.888  44.985  11.593
80729W        W49059   3.325  26.625   0.965
80730W        W49060  27.475  34.539  10.466
80731W        W49061  30.590  40.047   3.365
80732W        W49062  15.815  40.521   0.384
80733W        W49063  14.760  14.757   1.328
80734W        W49064   2.824  16.783   0.412
80735W        W49065  20.262  34.887  13.456
80736W        W49066  30.586  42.809  11.412
80737W        W49067  30.065  21.178   1.359
80738W        W49068  24.015   9.184   4.800
80739W        W49069  19.751  36.064   4.228
80740W        W49070  15.214  22.683   3.721
80741W        W49071  12.294   1.902  11.939
80742W        W49072   5.848  41.464   1.338
80743W        W49073  10.719  13.626   2.900
80744W        W49074  44.477   8.218  14.300
80745W        W49075   9.810  21.641  12.883
80746W        W49076   5.326  43.953   3.335
80747W        W49077  14.213  33.598   5.131
80748W        W49078   7.890  26.611  11.466
80749W        W49079  41.812  17.667  14.416
80750W        W49080  16.750  21.155   3.187
80751W        W49081  39.939  25.590  10.494
80752W        W49082   5.887  13.629   1.895
80753W        W49083  23.645   3.859   0.767
80754W        W49084  35.590  26.975  11.395
80755W        W49085  16.670  28.445  12.575
80756W        W49086  37.001   8.310  11.884
80757W        W49087  39.380  33.034   1.747
80758W        W49088  16.704   9.656  12.954
80759W        W49089  32.591  18.119   3.689
80760W        W49090   7.841  33.964   1.816
80761W        W49091   1.334  37.455   3.259
80762W        W49092  24.221  36.083   3.767
80763W        W49093  10.737  35.440  11.905
80764W        W49094  32.997  25.153  13.043
80765W        W49095  41.928  12.178  14.423
80766W        W49096  31.419  13.346   0.391
80767W        W49097  33.516  24.132   4.190
80768W        W49098   5.297  24.148  13.534
80769W        W49099  22.599  16.132  10.621
80770W        W49100  23.637  43.511   0.875
80771W        W49101  12.185  21.696  11.543
80772W        W49102  28.066   8.230   1.250
80773W        W49103  33.920   2.779  12.516
80774W        W49104  20.650  26.114  13.864
80775W        W49105  32.537   6.275  14.275
80776W        W49106  19.575  33.931  11.061
80777W        W49107   1.756   2.459   0.451
80778W        W49108  33.504  12.287  11.569
80779W        W49109  23.042  24.684   1.791
80780W        W49110  17.766  32.630  13.450
80781W        W49111  20.130  37.361   1.904
80782W        W49112  41.308  31.002   3.289
80783W        W49113  41.334   6.199   1.321
80784W        W49114   4.246  11.179   0.286
80785W        W49115  23.191  19.069  12.461
80786W        W49116  31.964   7.701   2.873
80787W        W49117  28.455  14.604   1.770
80788W        W49118   3.885  10.258   3.363
80789W        W49119  18.144  14.159  13.401
80790W        W49120  42.775  31.097  11.940
80791W        W49121  40.367  30.103  10.500
80792W        W49122  31.000  35.018  14.993
80793W        W49123  44.862  23.233   0.761
80794W        W49124  15.618  17.150  11.883
80795W        W49125  16.567  31.474   1.894
80796W        W49126   7.766  38.390  13.859
80797W        W49127  37.053  15.738   0.736
80798W        W49128  33.599  22.531  10.605
80799W        W49129  21.565  22.555   1.795
80800W        W49130  40.985   3.923  14.850
80801W        W49131  26.550  36.351   4.349
80802W        W49132  13.321  25.586  10.992
80803W        W49133   8.788  41.901   5.294
80804W        W49134  30.500  31.918  13.524
80805W        W49135  13.828  36.077  14.283
80806W        W49136  15.121  29.530  10.948
80807W        W49137   9.822  35.511  13.932
80808W        W49138  35.853  29.997  11.041
80809W        W49139   7.251  27.058  13.346
80810W        W49140  38.950  38.931  14.800
80811W        W49141   0.839   2.306   4.683
80812W        W49142  28.462   0.775  11.586
80813W        W49143  41.968  25.630  10.897
80814W        W49144  13.775   8.729  10.540
80815W        W49145  22.659  19.070   2.897
80816W        W49146  38.395  41.987   4.313
80817W        W49147  26.481   0.362  11.919
80818W        W49148   8.163   8.723   4.783
80819W        W49149  30.437   7.870   2.888
80820W        W49150  15.625  14.749  12.525
80821W        W49151   5.843  12.180   3.713
80822W        W49152  25.141  18.721   1.925
80823W        W49153  43.798  20.645  11.942
80824W        W49154   5.896  12.690  10.582
80825W        W49155  23.527  14.151  12.848
80826W        W49156  25.024  10.770   5.673
80827W        W49157  32.037   6.220   0.868
80828W        W49158  31.067  34.098   0.358
80829W        W49159  20.558  13.670  11.082
80830W        W49160  28.520  27.483   0.299
80831W        W49161  16.230  35.875   2.185
80832W        W49162   6.373  24.102   3.668
80833W        W49163  18.238   9.785   1.734
80834W        W49164  25.603  38.535  12.469
80835W        W49165   8.190   4.836  11.944
80836W        W49166   5.282  12.277   3.781
80837W        W49167  34.383  36.913   3.768
80838W        W49168  40.386  40.972   2.214
80839W        W49169   2.748  10.790  10.615
80840W        W49170  41.396  28.122  11.891
80841W        W49171  44.901  41.039  13.985
80842W        W49172  10.352  17.801  12.517
80843W        W49173  44.294  44.785   2.819
80844W        W49174  25.614  26.582   2.376
80845W        W49175  15.686  22.106   2.714
80846W        W49176  41.997  12.687   3.678
80847W        W49177  31.415   9.735  10.921
80848W        W49178  21.106  12.282   2.899
80849W        W49179  22.688  12.348   1.914
80850W        W49180   2.780  27.575   0.800
80851W        W49181   7.740  43.490   3.660
80852W        W49182  10.828  40.401   2.215
80853W        W49183  25.577   5.293  12.965
80854W        W49184  15.186  17.271  11.982
80855W        W49185   1.885  20.709   0.939
80856W        W49186  44.783  41.307   0.803
80857W        W49187  21.750  25.468   0.727
80858W        W49188  35.475  26.563  13.849
80859W        W49189  40.399  36.408   0.891
80860W        W49190  17.620  11.198   4.186
80861W        W49191  38.498  14.325  12.987
80862W        W49192   7.374   2.464  11.873
80863W        W49193  42.910  17.213  14.302
80864W        W49194   2.406  25.169  14.481
80865W        W49195  24.690   2.233   4.613
80866W        W49196  19.226  33.979  11.585
80867W        W49197  22.057  33.601   4.262
80868W        W49198  43.833  27.047   0.916
80869W        W49199   1.775   2.775   2.411
80870W        W49200  43.914  23.682   1.904
80871W        W49201  27.112  21.684   2.300
80872W        W49202  18.062  42.830   2.312
80873W        W49203   9.294  19.156   2.736
80874W        W49204  32.485   6.264   4.210
80875W        W49205  26.008  32.083  11.604
80876W        W49206   2.470  28.440  14.977
80877W        W49207  41.934  30.575   1.302
80878W        W49208  10.141  21.600  13.406
80879W        W49209  42.389   2.728   2.348
80880W        W49210  18.263  18.554  12.005
80881W        W49211  18.274  26.068  14.376
80882W        W49212  35.443  26.172  10.920
80883W        W49213  16.211  28.581   2.207
80884W        W49214  26.999  15.118  13.882
80885W        W49215  16.250  19.601   1.789
80886W        W49216  23.515  20.611  11.549
80887W        W49217  39.377  30.129   1.788
80888W        W49218   3.745  37.079   4.621
80889W        W49219  43.319  27.575   4.784
80890W        W49220  11.327  22.598   1.408
80891W        W49221   9.812   0.784  12.442
80892W        W49222   0.274   7.233   2.301
80893W        W49223  40.000  43.860   2.800
80894W        W49224  39.383   3.711  11.510
80895W        W49225  17.725  27.581   1.444
80896W        W49226  26.987   8.700   4.625
80897W        W49227   7.820  35.103  10.478
80898W        W49228  12.646  30.468   4.824
80899W        W49229  16.748   4.357  14.831
80900W        W49230  25.068  20.608  13.934
80901W        W49231  37.939  17.288  13.837
80902W        W49232   9.377   4.828  13.039
80903W        W49233   0.899  16.091   0.458
80904W        W49234  28.561  12.228  14.384
80905W        W49235  43.775  36.982  12.575
80906W        W49236  38.071  26.620   0.903
80907W        W49237  11.207  12.786  14.024
80908W        W49238   6.427  41.882  13.427
80909W        W49239  17.639  33.453   0.852
80910W        W49240   3.388   7.368  11.938
80911W        W49241  21.627  21.747  12.078
80912W        W49242  18.700  15.585   3.330
80913W        W49243  25.016  13.324   4.680
80914W        W49244  36.906  44.977   1.317
80915W        W49245  21.577  20.697   3.847
80916W        W49246  40.486  10.811  13.380
80917W        W49247   3.890   6.324  13.973
80918W        W49248   1.827  37.356  14.823
80919W        W49249   5.933  17.626  11.452
80920W        W49250  22.587  40.808  10.427
80921W        W49251  18.667  13.179  11.025
80922W        W49252  21.737  34.033  11.387
80923W        W49253  25.962  20.117   1.788
80924W        W49254  35.964  41.297   1.877
80925W        W49255  14.108   3.836   3.316
80926W        W49256  34.987   5.808  11.563
80927W        W49257  20.257  24.060  11.959
80928W        W49258   8.379  41.915   3.199
80929W        W49259  16.267  11.326   4.340
80930W        W49260  36.889  11.183   3.228
80931W        W49261  18.644  33.877   3.374
80932W        W49262  42.912  14.294  14.314
80933W        W49263  27.065  31.981   9.657
80934W        W49264  33.926  16.729  13.369
80935W        W49265  43.771  10.187   1.892
80936W        W49266   4.389  23.509   0.322
80937W        W49267  43.335  24.502  14.900
80938W        W49268  12.153  16.762   1.291
80939W        W49269  35.387  13.779  13.479
80940W        W49270  11.372  27.086   0.837
80941W        W49271  35.526  15.294   1.298
80942W        W49272  11.361  39.445   3.859
80943W        W49273  18.239  40.457  10.508
80944W        W49274   2.279  10.709   1.223
80945W        W49275  31.466   6.306  11.870
80946W        W49276  28.658  15.285   4.772
80947W        W49277  10.193  32.897   3.670
80948W        W49278  36.456  25.143   0.869
80949W        W49279   7.357  24.695  12.420
80950W        W49280   4.704  43.347  14.793
80951W        W49281  25.693  42.857   5.101
80952W        W49282  23.181   6.882   0.329
80953W        W49283  37.408  22.237  12.572
80954W        W49284  13.759  40.885  12.903
80955W        W49285  43.818  28.182  14.863
80956W        W49286  20.556  19.678   2.407
80957W        W49287  18.138  34.948  12.013
80958W        W49288   3.351  17.126  12.907
80959W        W49289   5.356  39.936  13.312
80960W        W49290  25.155   9.264  13.881
80961W        W49291  43.811  10.331  11.373
80962W        W49292  22.552  27.144   4.814
80963W        W49293  29.440  28.126   1.411
80964W        W49294   2.822   3.937  10.553
80965W        W49295   0.248  31.945   0.321
80966W        W49296  39.555  27.487   0.373
80967W        W49297  38.952  27.020   0.921
80968W        W49298  14.126  22.653   2.277
80969W        W49299  37.073   5.885   4.172
80970W        W49300  31.446  30.929  11.935
80971W        W49301  12.218  11.267   1.391
80972W        W49302  18.281   1.770   3.767
80973W        W49303  13.723  36.544   3.656
80974W        W49304  27.979  40.871   0.926
80975W        W49305  25.688  23.179  14.003
80976W        W49306  27.481  31.436  13.057
80977W        W49307  31.037  38.933   3.736
80978W        W49308   6.864  29.012   0.369
80979W        W49309  31.900  38.877   0.947
80980W        W49310   7.733  20.047  14.396
80981W        W49311  16.243  34.448   3.268
80982W        W49312  28.014  35.582   3.727
80983W        W49313  18.109  35.857  13.055
80984W        W49314  20.715  17.652   2.355
80985W        W49315  28.478   5.790   0.316
80986W        W49316  31.138  11.361   2.393
80987W        W49317  33.057  38.534  13.317
80988W        W49318  16.572  21.068   4.826
80989W        W49319  19.149  39.390  10.442
80990W        W49320  38.367  16.697  10.424
80991W        W49321   8.837  43.819  12.904
80992W        W49322  17.065  16.207  10.536
80993W        W49323  22.637  28.173  14.901
80994W        W49324  11.210  27.051   4.688
80995W        W49325  22.234   8.378  11.971
80996W        W49326  18.658  28.017  13.439
80997W        W49327   5.897   5.320  14.428
80998W        W49328   3.869  28.465   3.713
80999W        W49329  38.013   9.380   0.893
81000W        W49330  32.984  29.522  13.023
81001W        W49331  36.973  34.516  13.317
81002W        W49332  14.810  10.682   3.227
81003W        W49333  39.532   2.409  11.027
81004W        W49334  23.720   0.817   1.263
81005W        W49335  15.739  15.766   0.295
81006W        W49336  18.052  39.034   4.645
81007W        W49337   7.808   2.762  14.877
81008W        W49338  18.137   5.854   1.811
81009W        W49339  13.206  31.439  10.945
81010W        W49340  26.575  22.199  12.922
81011W        W49341  18.752  11.865   1.853
81012W        W49342   2.867  18.194   1.222
81013W        W49343  41.449  44.394  11.402
81014W        W49344  18.673  15.299   4.324
81015W        W49345  33.594  26.607   4.774
81016W        W49346   1.775  24.553   1.786
81017W        W49347  41.894  23.032  11.594
81018W        W49348  22.509  44.366   3.268
81019W        W49349  26.102  29.450  13.963
81020W        W49350  37.999  35.107  12.826
81021W        W49351  40.359  44.872  10.469
81022W        W49352  27.158   7.769   2.819
81023W        W49353  34.974  34.073   0.297
81024W        W49354  37.927  36.043   0.930
81025W        W49355   2.930   4.775  12.363
81026W        W49356  21.632  20.593  14.300
81027W        W49357  30.019  12.756  11.489
81028W        W49358  38.028  12.842   2.242
81029W        W49359   9.743  30.432  11.874
81030W        W49360  33.099  41.831   2.761
81031W        W49361  42.493   2.829  12.089
81032W        W49362   9.396  44.993   1.733
81033W        W49363   8.201  43.956  12.902
81034W        W49364   6.298  27.690  10.497
81035W        W49365  14.697  21.042  14.310
81036W        W49366   2.302  28.471   4.338
81037W        W49367  29.617  20.712  11.050
81038W        W49368  38.073   8.705   2.383
81039W        W49369  29.064  38.975  12.518
81040W        W49370  37.876   0.362   2.892
81041W        W49371  34.990  28.672   3.151
81042W        W49372  26.545   0.944   4.690
81043W        W49373  12.640  21.166   0.955
81044W        W49374  23.519  23.216  12.942
81045W        W49375  29.475  37.480   5.241
81046W        W49376  12.147   7.182   3.175
81047W        W49377   9.700  40.482  10.403
81048W        W49378  13.612  28.990  13.313
81049W        W49379   5.402  39.335  10.466
81050W        W49380  31.617  18.667   4.702
81051W        W49381  36.454  31.486   0.432
81052W        W49382  18.602   4.282   3.843
81053W        W49383  16.280  41.817   4.692
81054W        W49384  24.098  23.105  13.817
81055W        W49385  37.438  25.045  14.908
81056W        W49386   5.280  40.358  11.942
81057W        W49387  35.597  12.120  13.336
81058W        W49388   8.764  24.657   4.805
81059W        W49389  20.078   7.196   4.234
81060W        W49390  15.672  36.384   4.342
81061W        W49391  41.348  17.735   3.260
81062W        W49392  21.238   6.201  11.601
81063W        W49393  29.105  14.689   0.291
81064W        W49394   5.796   8.191   1.252
81065W        W49395   8.898   3.281   3.815
81066W        W49396  40.370  12.303  11.065
81067W        W49397  35.080  44.403   0.355
81068W        W49398  43.493  40.999   4.828
81069W        W49399  27.993   1.760  11.865
81070W        W49400  41.034  37.868  11.959
81071W        W49401   0.818  39.464   1.410
81072W        W49402   7.667  40.513   2.784
81073W        W49403  23.558  10.747   4.212
81074W        W49404  14.605   5.229  14.999
81075W        W49405  34.001  40.545  12.056
81076W        W49406   1.308  28.132  10.594
81077W        W49407  30.126  36.991   2.318
81078W        W49408  25.665  21.663   0.906
81079W        W49409  19.573  23.026   4.693
81080W        W49410  30.920  26.479  10.489
81081W        W49411  11.168  25.073  14.341
81082W        W49412  40.857   1.436  12.557
81083W        W49413  12.194  18.110   1.718
81084W        W49414   4.248   3.443  13.030
81085W        W49415  42.000   0.799  14.881
81086W        W49416  35.879   0.765  11.496
81087W        W49417  18.076  14.813  14.477
81088W        W49418  35.392  15.703   1.225
81089W        W49419  16.152  28.011   4.626
81090W        W49420  11.318  28.580  10.407
81091W        W49421  24.715  22.096  11.510
81092W        W49422   2.456  37.412  11.396
81093W        W49423  11.638  31.141   1.894
81094W        W49424  25.657   2.799  14.931
81095W        W49425   5.793   9.889  11.468
81096W        W49426  20.214  24.657   1.382
81097W        W49427  44.921  12.156   0.771
81098W        W49428  14.194  42.334   3.867
81099W        W49429  34.441  33.880  11.883
81100W        W49430  31.120   7.685  14.864
81101W        W49431   1.752  35.034   0.412
81102W        W49432  21.604  19.226  13.921
81103W        W49433  22.139  27.019  13.440
81104W        W49434  42.837  29.138  12.830
81105W        W49435  13.698  20.523  14.805
81106W        W49436   6.274  40.404   3.227
81107W        W49437   4.277   1.763  14.285
81108W        W49438  17.066  14.729   3.854
81109W        W49439  35.096   1.415   2.691
81110W        W49440  23.627  42.865  14.407
81111W        W49441   7.830  13.715   0.867
81112W        W49442  42.424  21.230  13.540
81113W        W49443  44.917  12.750  10.925
81114W        W49444  30.930   6.397   2.368
81115W        W49445  41.538  17.077   2.891
81116W        W49446   1.901  32.518   2.764
81117W        W49447  36.472  44.985   2.278
81118W        W49448   4.851  18.593  13.454
81119W        W49449  32.055  15.656  13.316
81120W        W49450   1.860  21.164  11.018
81121W        W49451  11.659  30.444   0.772
81122W        W49452  31.497  38.918   0.311
81123W        W49453  29.661   2.314  12.039
81124W        W49454  28.461  13.602   2.289
81125W        W49455  22.093  28.651   9.555
81126W        W49456  11.273  32.576   3.311
81127W        W49457  42.367   5.339  14.832
81128W        W49458   5.704  19.605   3.774
81129W        W49459  30.118  12.764   1.746
81130W        W49460  33.103  21.674  14.941
81131W        W49461  35.504  23.108  14.901
81132W        W49462  32.921  16.194   0.784
81133W        W49463  41.959   8.822   2.266
81134W        W49464  29.574   1.916  13.979
81135W        W49465  42.902  22.075   2.761
81136W        W49466  18.594  13.150  14.888
81137W        W49467   0.367   6.359   0.843
81138W        W49468  21.696  13.651  13.002
81139W        W49469  36.536  34.086   4.800
81140W        W49470  22.128  22.208  14.310
81141W        W49471  21.239  34.117  13.897
81142W        W49472  29.105   0.269   3.250
81143W        W49473  36.001  30.108   2.292
81144W        W49474  27.982  41.020   3.386
81145W        W49475  21.260  12.317  11.034
81146W        W49476  18.586  17.757   4.683
81147W        W49477  38.900  26.630   4.178
81148W        W49478   4.302  25.710  12.047
81149W        W49479  35.068  36.456  12.532
81150W        W49480  17.583  37.447  11.950
81151W        W49481  30.510  44.920   1.404
81152W        W49482  35.423   0.394  12.832
81153W        W49483   8.821  42.291  12.579
81154W        W49484  21.152  28.039  13.508
81155W        W49485  16.268  23.109  10.467
81156W        W49486  31.565   2.765   1.269
81157W        W49487  28.584  43.503  11.098
81158W        W49488  25.706  32.925   4.188
81159W        W49489  27.565  22.069   2.829
81160W        W49490  41.847  15.279  14.991
81161W        W49491  29.670  30.059  11.593
81162W        W49492  22.161  10.163   3.378
81163W        W49493  43.367  12.704  13.855
81164W        W49494  29.522  32.932  14.832
81165W        W49495   3.279  42.478   1.790
81166W        W49496  23.211  17.633   5.211
81167W        W49497  29.055  26.558   1.782
81168W        W49498  15.664   6.314  10.966
81169W        W49499  29.656  20.184  14.914
81170W        W49500   0.743  37.043  13.484
81171W        W49501  13.249  15.305   4.625
81172W        W49502  31.068  19.080  12.955
81173W        W49503  32.108  18.231   2.836
81174W        W49504  11.263  28.122  10.970
81175W        W49505   4.325  34.432   3.814
81176W        W49506   3.847   6.190   0.275
81177W        W49507  33.041  31.149  13.509
81178W        W49508  44.450  14.714   2.269
81179W        W49509  25.080   7.371  11.441
81180W        W49510   7.716   2.424   3.712
81181W        W49511   8.892  29.511   3.704
81182W        W49512  27.512   2.749  12.539
81183W        W49513  23.235  41.818  12.500
81184W        W49514  21.089  40.857   4.744
81185W        W49515  12.612   4.859   4.266
81186W        W49516   4.744   8.297   2.718
81187W        W49517  10.830  44.784  14.857
81188W        W49518  20.587  15.761  14.467
81189W        W49519  43.515  18.213  10.897
81190W        W49520   0.345  12.835  10.907
81191W        W49521  28.966  25.687   3.355
81192W        W49522   7.281  37.951  11.097
81193W        W49523  32.604  25.092  13.990
81194W        W49524   9.804  11.225   1.916
81195W        W49525  38.822   4.767   4.782
81196W        W49526  44.393  29.143  12.028
81197W        W49527   2.309  36.844   3.645
81198W        W49528  27.094  13.782  10.468
81199W        W49529  19.114  44.337  12.024
81200W        W49530  41.395   4.789   4.680
81201W        W49531  38.523  44.891   0.364
81202W        W49532  19.670  12.170  12.861
81203W        W49533   0.922  28.074   1.914
81204W        W49534  13.199  35.074  11.456
81205W        W49535  41.502  23.040   1.883
81206W        W49536  36.470  19.644  11.088
81207W        W49537  20.207  14.128   4.270
81208W        W49538  43.303  34.092  10.568
81209W        W49539   7.290   7.389   3.280
81210W        W49540  35.951  36.509  10.915
81211W        W49541  22.035  27.572   2.726
81212W        W49542   4.401  23.178  13.794
81213W        W49543   9.364   7.382   0.307
81214W        W49544  41.896  35.935   9.929
81215W        W49545  27.691  29.499   1.798
81216W        W49546  18.253  19.717  10.621
81217W        W49547  17.618  11.649  12.388
81218W        W49548  41.377  33.484  12.938
81219W        W49549  19.749   3.807   0.353
81220W        W49550  21.706  33.938   3.358
81221W        W49551  10.797  30.426   2.193
81222W        W49552   9.840  37.903   1.257
81223W        W49553  43.367   6.855   3.340
81224W        W49554  36.350  20.110   2.230
81225W        W49555  29.588   2.354   1.351
81226W        W49556  17.700   7.885  11.938
81227W        W49557  11.624   7.408   2.225
81228W        W49558  18.757  27.570  10.913
81229W        W49559  43.334   7.815   1.438
81230W        W49560  37.410  24.114   0.891
81231W        W49561  10.877   8.787   4.226
81232W        W49562  28.141  39.478  13.895
81233W        W49563   2.414  30.474   2.737
81234W        W49564  37.430  36.468   3.651
81235W        W49565  33.397  31.935   2.210
81236W        W49566   1.303  15.188  10.993
81237W        W49567  41.997   5.789   0.322
81238W        W49568  29.660  12.733   4.693
81239W        W49569  43.351  16.302   3.383
81240W        W49570  30.510  37.562  11.472
81241W        W49571  34.948  17.215   0.821
81242W        W49572  17.283  13.843  10.151
81243W        W49573  36.847   0.291  12.989
81244W        W49574  20.761  43.515  13.802
81245W        W49575  33.494  25.176   1.855
81246W        W49576  39.873  34.938   2.751
81247W        W49577  21.049  27.119   3.158
81248W        W49578  31.530  10.854   1.250
81249W        W49579   5.436  38.452  12.882
81250W        W49580  43.350  34.093   4.147
81251W        W49581  12.189  20.629   1.933
81252W        W49582   2.426  17.281   0.290
81253W        W49583  30.435  31.067  14.848
81254W        W49584  20.636   8.689   0.253
81255W        W49585  42.888  40.980   3.860
81256W        W49586  27.632  13.126  12.961
81257W        W49587  23.184  30.101   3.853
81258W        W49588  18.068   4.883  11.938
81259W        W49589  40.389  10.351  12.467
81260W        W49590  16.763  34.071  14.315
81261W        W49591  29.460   2.227   0.901
81262W        W49592  16.683   1.774   0.941
81263W        W49593  30.111  32.585  13.539
81264W        W49594  38.487  30.072  12.442
81265W        W49595  44.951  13.792   4.245
81266W        W49596   9.737  25.573   1.418
81267W        W49597  12.684  20.578  14.957
81268W        W49598  25.050  43.438  14.018
81269W        W49599  44.770  11.186  14.349
81270W        W49600  18.269  38.555  14.452
81271W        W49601  22.031  21.558   2.314
81272W        W49602  35.600  11.849   2.413
81273W        W49603  43.331   1.753   2.410
81274W        W49604  23.986   1.345   1.829
81275W        W49605  42.437  13.654   3.255
81276W        W49606   9.832   7.175   3.685
81277W        W49607  23.052  35.524  11.038
81278W        W49608  39.461  23.682   1.912
81279W        W49609  44.837  10.148   0.797
81280W        W49610  16.669  12.640  14.921
81281W        W49611  20.217  18.235   0.476
81282W        W49612  25.572  31.453  12.995
81283W        W49613  28.023  38.889   4.329
81284W        W49614  44.003  29.101  13.048
81285W        W49615  12.729  20.099   4.796
81286W        W49616  26.621   3.304  14.804
81287W        W49617  23.107  25.173   1.227
81288W        W49618  40.452  39.848   3.350
81289W        W49619   6.204  17.769  12.368
81290W        W49620   3.437  28.497  10.973
81291W        W49621  30.527  43.445   3.767
81292W        W49622  25.117   3.783   3.248
81293W        W49623  14.635  10.347  11.065
81294W        W49624   8.736  12.751  11.500
81295W        W49625  32.439  14.625  11.555
81296W        W49626   0.395   3.932   4.305
81297W        W49627  22.050  28.643   0.274
81298W        W49628  16.140   9.813   0.446
81299W        W49629  31.075  11.786   0.338
81300W        W49630  32.911  27.503  10.967
81301W        W49631  36.421  38.932  10.152
81302W        W49632  36.853  30.580   4.778
81303W        W49633  29.107  10.637  14.969
81304W        W49634   0.382   4.289  13.399
81305W        W49635  13.252  25.567  10.595
81306W        W49636  12.746  21.154   1.798
81307W        W49637  38.924   0.372  13.508
81308W        W49638  40.420  26.528  10.426
81309W        W49639  12.676  40.354   3.845
81310W        W49640  23.189   3.865   1.216
81311W        W49641  19.089  22.142  14.391
81312W        W49642  37.403  28.999   0.776
81313W        W49643  28.618   1.926   1.726
81314W        W49644  39.003  28.637  10.916
81315W        W49645  14.182  31.574   1.433
81316W        W49646  31.944   7.187  12.967
81317W        W49647  24.646  27.177   4.598
81318W        W49648  29.945  27.987  13.543
81319W        W49649  30.499  36.875   0.446
81320W        W49650   6.891  14.277  10.569
81321W        W49651  12.736  12.261   2.414
81322W        W49652   6.403  11.305  11.581
81323W        W49653  39.969  35.908  11.518
81324W        W49654  17.222  40.818   2.234
81325W        W49655  14.718  38.046  14.365
81326W        W49656  14.665  10.757   4.649
81327W        W49657  29.466  21.133   1.805
81328W        W49658  32.611  13.139  12.529
81329W        W49659  33.496  26.682  14.998
81330W        W49660  25.997  18.067  12.952
81331W        W49661  18.140  34.388  14.982
81332W        W49662  32.507   5.423  12.995
81333W        W49663   8.304  41.920  14.508
81334W        W49664  34.429  24.494   3.243
81335W        W49665  40.985  14.799  10.622
81336W        W49666  11.692  24.492  10.606
81337W        W49667   4.899   1.906   2.209
81338W        W49668  29.452  38.451  11.610
81339W        W49669  19.259  14.139   4.171
81340W        W49670  18.267  19.192  10.447
81341W        W49671  34.574   5.723   3.300
81342W        W49672  15.160   1.447   1.281
81343W        W49673  21.641  10.200   2.359
81344W        W49674  35.360  26.542  13.345
81345W        W49675  44.375  31.526   2.191
81346W        W49676  16.305  12.700   0.398
81347W        W49677  15.787   1.455   5.194
81348W        W49678  17.599  29.066   0.428
81349W        W49679   3.933  39.495  13.011
81350W        W49680  26.966  20.525   0.394
81351W        W49681  34.119   3.901   4.837
81352W        W49682  32.953  28.502  13.336
81353W        W49683  41.523  39.367   4.645
81354W        W49684   5.731  10.848   3.314
81355W        W49685  11.695  26.480   4.675
81356W        W49686   3.424   1.309   1.915
81357W        W49687  23.690  34.031  14.516
81358W        W49688   5.704  42.940   3.745
81359W        W49689  11.306  33.037   2.671
81360W        W49690  15.213  13.147   4.147
81361W        W49691  42.342  27.126   0.727
81362W        W49692  27.164  38.874   0.324
81363W        W49693  34.979   3.233  11.099
81364W        W49694  33.572  42.947   1.841
81365W        W49695  13.769  13.214   2.882
81366W        W49696  17.704  15.141  12.425
81367W        W49697   1.808  32.546   3.304
81368W        W49698  24.036  25.180   0.754
81369W        W49699  19.717  35.058  10.479
81370W        W49700   8.866  13.107  12.003
81371W        W49701   1.375   3.303   1.318
81372W        W49702  29.100  24.026   1.304
81373W        W49703  31.084  29.508  11.403
81374W        W49704  34.492   9.825  10.455
81375W        W49705  38.843  35.108   0.728
81376W        W49706   0.788  28.084   3.631
81377W        W49707  20.537  34.562   2.753
81378W        W49708  27.141  23.126  14.377
81379W        W49709   2.787  18.582   1.781
81380W        W49710  36.026   8.795  13.320
81381W        W49711  25.973  31.008   4.706
81382W        W49712  44.494   6.739   0.304
81383W        W49713  22.500  17.155  14.028
81384W        W49714  18.249  24.556   2.790
81385W        W49715  31.083  12.195  14.967
81386W        W49716  31.005   7.839  13.312
81387W        W49717  36.439  31.941  14.847
81388W        W49718  30.047  29.087  14.792
81389W        W49719  37.954  44.382  11.404
81390W        W49720  14.326   0.338   4.763
81391W        W49721  41.897  40.850   0.804
81392W        W49722  23.098  38.072  11.120
81393W        W49723  36.930  43.413  13.501
81394W        W49724  25.103  36.482   3.787
81395W        W49725   8.378  18.246  14.438
81396W        W49726  41.958  29.019  12.037
81397W        W49727   4.293   0.785   3.338
81398W        W49728   2.952  43.827  12.045
81399W        W49729   8.710  26.606   3.725
81400W        W49730  13.648  11.820   4.777
81401W        W49731   7.901  43.818  14.326
81402W        W49732  22.662   9.357   4.162
81403W        W49733  40.347  36.992   1.707
81404W        W49734  41.879  22.113   2.188
81405W        W49735  34.925  39.817  12.890
81406W        W49736   8.259   7.300  14.362
81407W        W49737   8.372  41.954   0.828
81408W        W49738  15.751  25.545  11.073
81409W        W49739   9.159  13.630  14.492
81410W        W49740  36.003  11.292   0.781
81411W        W49741  23.580  17.258   1.781
81412W        W49742  27.681  44.261   3.870
81413W        W49743   4.331  18.769  12.091
81414W        W49744  37.838  15.604  10.160
81415W        W49745  11.784  31.946   0.939
81416W        W49746   8.715   6.320   1.877
81417W        W49747  25.040  13.106  10.985
81418W        W49748  19.778  27.103  13.408
81419W        W49749  41.301  32.626   1.243
81420W        W49750  27.026  34.931   0.740
81421W        W49751  21.122  19.261   9.964
81422W        W49752   2.801   4.241  12.491
81423W        W49753   0.790  29.029   3.324
81424W        W49754  29.433  28.521  10.539
81425W        W49755  29.934  20.212   5.725
81426W        W49756  13.180  28.648  13.404
81427W        W49757   3.897   3.947  13.456
81428W        W49758  18.772  33.036  11.375
81429W        W49759  11.138  34.479  11.036
81430W        W49760  40.964  21.261  12.406
81431W        W49761  34.528  29.981  11.919
81432W        W49762  23.588  32.035   3.190
81433W        W49763  11.836  18.247   4.144
81434W        W49764  32.923  30.063   2.763
81435W        W49765  29.106   3.304  11.994
81436W        W49766  31.092  35.854   3.349
81437W        W49767  41.841   9.805  11.119
81438W        W49768  16.181  35.094   0.400
81439W        W49769  26.157  31.613   0.884
81440W        W49770  44.418   9.329  13.466
81441W        W49771  18.181   7.316   3.640
81442W        W49772   3.412  36.005   2.414
81443W        W49773  24.061  36.383   4.177
81444W        W49774  39.877  18.573  12.082
81445W        W49775  19.658  16.096   3.290
81446W        W49776  38.394   5.207  13.825
81447W        W49777  39.448   8.889  12.434
81448W        W49778  44.912   3.823   3.744
81449W        W49779  14.645  30.041  13.392
81450W        W49780  30.112  39.430  10.593
81451W        W49781   6.198  39.839   3.632
81452W        W49782  42.841  38.978   1.884
81453W        W49783  29.986  20.181  11.926
81454W        W49784   0.800  38.001  12.050
81455W        W49785  12.802  35.540  14.314
81456W        W49786  27.094  33.623   4.302
81457W        W49787   2.325  35.075   1.764
81458W        W49788  17.121  19.154  14.016
81459W        W49789  44.343  37.011  10.522
81460W        W49790   2.376  13.274  12.088
81461W        W49791  22.095  25.575  11.055
81462W        W49792  29.962  30.958  14.821
81463W        W49793  41.897   5.887  11.916
81464W        W49794  25.077  21.752   3.789
81465W        W49795  13.720  30.460  11.578
81466W        W49796  32.501  28.504  12.832
81467W        W49797  14.328   7.841   4.642
81468W        W49798   2.306  13.667  12.856
81469W        W49799  13.200  25.141  11.866
81470W        W49800   7.873  13.181  12.089
81471W        W49801  16.701  10.169   1.802
81472W        W49802  33.027  40.936  12.839
81473W        W49803   7.673  16.652   2.304
81474W        W49804  30.530  38.032   0.361
81475W        W49805  30.029  15.587  11.600
81476W        W49806  35.468  24.183   1.293
81477W        W49807  24.047  24.576   1.337
81478W        W49808  18.651   0.447   1.744
81479W        W49809  23.624  25.993   0.853
81480W        W49810   1.787   3.240  10.621
81481W        W49811  31.436  19.271  13.950
81482W        W49812  22.688   3.753   0.471
81483W        W49813  40.001  14.818  14.280
81484W        W49814  23.504  13.651  13.410
81485W        W49815   4.286  40.385  11.552
81486W        W49816  28.146  15.125  10.972
81487W        W49817  15.659   0.947   4.810
81488W        W49818  15.792  31.126   4.123
81489W        W49819  24.136  20.103  12.956
81490W        W49820  24.176   3.711   2.701
81491W        W49821   8.670   9.761  14.286
81492W        W49822  17.103   3.431   3.844
81493W        W49823  19.122  36.068   2.753
81494W        W49824   8.839  14.234  14.799
81495W        W49825  30.954  25.589  14.885
81496W        W49826  11.708  44.955   0.777
81497W        W49827  30.920  39.017   0.778
81498W        W49828  40.375  39.499  14.989
81499W        W49829  37.488  30.643   4.724
81500W        W49830  30.909  17.244   5.156
81501W        W49831   5.432  19.567  12.842
81502W        W49832   8.400   6.199  11.550
81503W        W49833   4.311  18.578  12.396
81504W        W49834   0.379  40.895   1.377
81505W        W49835  15.197  20.224   3.806
81506W        W49836  42.437  35.576   4.668
81507W        W49837  17.066  29.471   4.195
81508W        W49838  28.176  35.957   1.245
81509W        W49839  12.222  35.035  11.870
81510W        W49840  12.214  23.236  11.917
81511W        W49841  11.346  13.294   2.712
81512W        W49842  27.496  30.430   4.823
81513W        W49843  42.032  11.844  11.939
81514W        W49844  36.020  41.806  11.997
81515W        W49845   3.882  43.286   4.204
81516W        W49846  18.253  17.579   3.187
81517W        W49847  12.803  23.734  11.909
81518W        W49848  41.002  23.494   1.241
81519W        W49849  30.076  39.863   4.654
81520W        W49850  39.920  20.589  14.325
81521W        W49851  39.878  44.770  11.440
81522W        W49852  22.168  26.619  14.950
81523W        W49853  41.923  17.674   3.179
81524W        W49854  19.765  40.473  10.603
81525W        W49855  13.136  37.379  11.496
81526W        W49856  35.578  38.429   2.313
81527W        W49857  39.484  29.967   4.685
81528W        W49858   7.178  30.520   1.399
81529W        W49859  14.212  36.072  11.584
81530W        W49860  14.104  11.847  14.341
81531W        W49861  24.658  20.108  11.871
81532W        W49862  18.781   7.274   0.871
81533W        W49863  29.516   4.207   4.158
81534W        W49864  12.673  35.397  14.032
81535W        W49865  25.694  42.519   4.354
81536W        W49866  32.134  20.116   4.200
81537W        W49867   8.709  34.886   0.309
81538W        W49868  41.458  36.488   2.703
81539W        W49869  38.386  41.912  13.548
81540W        W49870  14.633   2.873  13.938
81541W        W49871  28.520  22.607   0.882
81542W        W49872   2.426  24.706   3.733
81543W        W49873  26.637   2.890  12.483
81544W        W49874  19.747  25.491  12.824
81545W        W49875  25.652  12.809   4.699
81546W        W49876  24.536   4.391  13.397
81547W        W49877  42.975  18.745   4.351
81548W        W49878  21.615   5.280  12.429
81549W        W49879  37.467  21.117   1.230
81550W        W49880  17.085   9.738   1.268
81551W        W49881  21.052   6.225   0.909
81552W        W49882  13.208  30.085   2.766
81553W        W49883  40.493   2.902  10.558
81554W        W49884  43.793  27.081  11.419
81555W        W49885  28.587   7.354  13.313
81556W        W49886  12.711  38.941  14.447
81557W        W49887   1.815  27.028   0.806
81558W        W49888  44.317  28.136  11.049
81559W        W49889  13.349  15.199  10.526
81560W        W49890   0.317  42.022  10.467
81561W        W49891  42.426  25.525   1.312
81562W        W49892  28.012  24.130  12.017
81563W        W49893  18.634  29.047   4.654
81564W        W49894   9.232  38.513   1.874
81565W        W49895  10.654   6.914  11.105
81566W        W49896  32.413   5.282   1.392
81567W        W49897  26.196   3.887  12.464
81568W        W49898  25.659  16.633   2.778
81569W        W49899  40.962  38.949  11.896
81570W        W49900  26.478  20.204   1.224
81571W        W49901  30.478  20.547   0.836
81572W        W49902  33.965  43.344   2.363
81573W        W49903  21.742  35.080  14.834
81574W        W49904  13.279  42.288  11.523
81575W        W49905  32.585   4.808   0.245
81576W        W49906  15.755   0.301   1.431
81577W        W49907   6.766   1.248  14.399
81578W        W49908  32.088  39.402  14.793
81579W        W49909  30.129  18.102  14.775
81580W        W49910  16.584  14.115   4.311
81581W        W49911  38.921  37.919  12.051
81582W        W49912  18.134   1.735  13.038
81583W        W49913  41.843   7.817   2.411
81584W        W49914   8.168  40.470  11.946
81585W        W49915  11.328  27.123  12.352
81586W        W49916  32.080  22.243   9.954
81587W        W49917  27.545  20.674   0.304
81588W        W49918  25.659  39.919   4.317
81589W        W49919   9.201   2.265   1.444
81590W        W49920   7.716  33.507  12.079
81591W        W49921  41.040  32.095   3.685
81592W        W49922  43.895  12.680  10.570
81593W        W49923  24.674  15.114   3.251
81594W        W49924   7.735  20.708   2.190
81595W        W49925  25.491   8.860   3.777
81596W        W49926  25.531  20.088   4.291
81597W        W49927  41.943  27.068  10.910
81598W        W49928  25.140  15.268  12.843
81599W        W49929  32.462  34.600   2.320
81600W        W49930  22.633  30.467  11.936
81601W        W49931  26.181  25.101   0.255
81602W        W49932  32.510  35.574  12.019
81603W        W49933  19.107  20.180   1.930
81604W        W49934   0.423  10.832  10.409
81605W        W49935  28.086  22.174  14.766
81606W        W49936   7.225  34.887  14.016
81607W        W49937  26.059  24.565   4.710
81608W        W49938  23.619  34.520  13.349
81609W        W49939  38.840  23.628   2.810
81610W        W49940   3.423  21.043  12.869
81611W        W49941   2.829  34.486  13.041
81612W        W49942  24.230  15.758   0.330
81613W        W49943  18.624   5.199  11.478
81614W        W49944  10.876   0.467   2.289
81615W        W49945  41.497  23.729   1.240
81616W        W49946  21.230  34.399   1.934
81617W        W49947  15.686  11.140   0.280
81618W        W49948   0.869  30.486   4.744
81619W        W49949  35.089  14.739   4.189
81620W        W49950  39.048  27.499   3.206
81621W        W49951  16.315  30.518  11.509
81622W        W49952  32.541  23.117  11.444
81623W        W49953  17.168  30.144  12.434
81624W        W49954  10.161  35.006   3.802
81625W        W49955  32.448   1.741  14.307
81626W        W49956  32.522   5.229  12.414
81627W        W49957  40.902  14.614  10.937
81628W        W49958  17.138  44.846  11.061
81629W        W49959  31.413  29.020   4.166
81630W        W49960  33.594  31.898   5.166
81631W        W49961  32.506  22.096   4.177
81632W        W49962  16.264   7.678   3.207
81633W        W49963  36.958  33.409   4.657
81634W        W49964   0.898   8.822   2.861
81635W        W49965   3.731  24.033  12.881
81636W        W49966  16.756  26.953  10.488
81637W        W49967  34.478  30.624  14.327
81638W        W49968  22.719  44.980   0.926
81639W        W49969  19.234  13.111   4.332
81640W        W49970  15.117   2.840  14.432
81641W        W49971   7.243  44.499  12.512
81642W        W49972  15.817  30.988  14.479
81643W        W49973   4.760  37.523  11.440
81644W        W49974   8.855  17.275   2.321
81645W        W49975  13.189  11.189  14.906
81646W        W49976  37.565  41.417  10.964
81647W        W49977  18.122  41.373   0.370
81648W        W49978  29.978  24.603   3.349
81649W        W49979   1.274  37.353   2.787
81650W        W49980  28.469  15.689   3.219
81651W        W49981   6.765   8.277   0.343
81652W        W49982   0.489  16.309  12.071
81653W        W49983  32.432  32.133   1.267
81654W        W49984  18.141   9.373   3.820
81655W        W49985  23.989   0.338   4.812
81656W        W49986   0.845  10.688   0.939
81657W        W49987  18.609  17.220   0.419
81658W        W49988  41.038  20.158  13.820
81659W        W49989  10.647  27.669  11.415
81660W        W49990  36.918  11.135  13.873
81661W        W49991  26.085  13.637   0.817
81662W        W49992  44.469  30.496  14.299
81663W        W49993  41.417   8.663  13.925
81664W        W49994   5.346  38.559  13.852
81665W        W49995  17.112  22.592  12.367
81666W        W49996  41.867  19.068  13.881
81667W        W49997  10.773  31.444   2.788
81668W        W49998   2.722  28.544  11.067
81669W        W49999   3.461  27.968  14.817
81670W        W50000  44.448  37.474   3.645
81671W        W50001  27.101  18.124  12.970
81672W        W50002  31.563  32.941  14.451
81673W        W50003  22.111   4.304  13.934
81674W        W50004  20.670   3.279  11.466
81675W        W50005   0.376  25.611  14.948
81676W        W50006  28.165  30.513   3.850
81677W        W50007  10.666  19.224   4.346
81678W        W50008   1.771  35.575  11.429
81679W        W50009   8.191   0.347  14.807
81680W        W50010  11.192  43.853  10.601
81681W        W50011  15.143  31.538   2.662
81682W        W50012  27.138  11.176  13.868
81683W        W50013  41.315  14.130   0.772
81684W        W50014  30.084  44.459  11.032
81685W        W50015  25.682  39.439  13.822
81686W        W50016  31.960  40.533   2.682
81687W        W50017   9.178  14.660  13.433
81688W        W50018   9.670  15.239   1.211
81689W        W50019  41.799  22.641   1.439
81690W        W50020   1.406  37.889  13.864
81691W        W50021   5.380   0.859  13.334
81692W        W50022   8.868   1.814  13.800
81693W        W50023  22.147  24.687   2.238
81694W        W50024   0.787   9.203  14.942
81695W        W50025   9.149  16.673  10.897
81696W        W50026  35.980  10.248  10.519
81697W        W50027  38.928  30.115   5.218
81698W        W50028  42.468  41.829   1.934
81699W        W50029  25.596  22.024   2.670
81700W        W50030  12.673  34.888   1.887
81701W        W50031  42.844  20.047   0.966
81702W        W50032  31.497  39.321   0.403
81703W        W50033  39.021  19.673  12.484
81704W        W50034  36.876  29.511  11.404
81705W        W50035  27.151  44.791   3.757
81706W        W50036  30.960  38.983  12.514
81707W        W50037  23.078  27.681   1.919
81708W        W50038  23.607  38.432   1.908
81709W        W50039  39.057  19.191  14.431
81710W        W50040  31.138  21.074   4.210
81711W        W50041  13.178  24.014   0.940
81712W        W50042  44.345  27.154   4.303
81713W        W50043  43.397  25.557   3.796
81714W        W50044  44.459  14.098  14.922
81715W        W50045  40.345   4.717  11.523
81716W        W50046  32.483  39.048   0.339
81717W        W50047  14.835  44.442   0.276
81718W        W50048  21.747  23.148  13.451
81719W        W50049  44.895  19.207  14.828
81720W        W50050  15.188  11.270  14.492
81721W        W50051  17.097  24.647   2.404
81722W        W50052  35.894   9.743  12.383
81723W        W50053  35.921  19.121  10.528
81724W        W50054   5.696  28.143   4.834
81725W        W50055  16.776  20.119   0.878
81726W        W50056  17.286  38.831   2.716
81727W        W50057  37.395  14.805  11.965
81728W        W50058  18.233   5.354   0.303
81729W        W50059  21.617   2.775  10.461
81730W        W50060  44.976  33.559  11.931
81731W        W50061  10.292  32.498  12.542
81732W        W50062  29.539  44.485  14.890
81733W        W50063  26.091   2.378  12.396
81734W        W50064   9.200  31.615   3.177
81735W        W50065  26.105  43.457   2.271
81736W        W50066   5.320  26.181  14.001
81737W        W50067   7.726   8.395   1.251
81738W        W50068  32.439  27.545  13.907
81739W        W50069  28.965  34.094   2.366
81740W        W50070  21.542   8.849  10.445
81741W        W50071  34.986  18.237   1.925
81742W        W50072  21.025  22.638   1.752
81743W        W50073  28.006  21.047   0.445
81744W        W50074  21.546  33.502   3.253
81745W        W50075  27.063  32.098   2.768
81746W        W50076  12.663  33.104  12.466
81747W        W50077  16.250  20.752  14.868
81748W        W50078  16.797  39.898  14.016
81749W        W50079  35.401  24.193  14.445
81750W        W50080   4.221  39.871   4.706
81751W        W50081  25.116  43.363  12.048
81752W        W50082   7.401  31.087  10.970
81753W        W50083   3.429  16.671  12.860
81754W        W50084  35.578  20.050   4.198
81755W        W50085  12.835  15.648   4.163
81756W        W50086  20.536  34.556  14.946
81757W        W50087  17.598   7.720  13.939
81758W        W50088  44.958  33.455   2.217
81759W        W50089   6.899  37.965   0.953
81760W        W50090  31.990  16.307   4.278
81761W        W50091   0.464  10.858  13.960
81762W        W50092   1.335   0.778  11.402
81763W        W50093   5.912  29.092   4.168
81764W        W50094   2.388  13.158  14.841
81765W        W50095  19.670  35.435   1.448
81766W        W50096  39.419  30.131   0.337
81767W        W50097  29.058  24.116   0.849
81768W        W50098   3.913  10.879  14.944
81769W        W50099  21.052  17.246   3.372
81770W        W50100  36.516  23.197  14.442
81771W        W50101   6.805  30.969  10.937
81772W        W50102   3.784   8.319  13.794
81773W        W50103  16.143  16.749   1.706
81774W        W50104  30.037   7.271   0.401
81775W        W50105   2.406  43.340   2.744
81776W        W50106  16.800  34.938   2.287
81777W        W50107  44.983   1.333   2.235
81778W        W50108  32.473   8.287  10.974
81779W        W50109  31.963  14.693  10.530
81780W        W50110   8.776  20.152   1.880
81781W        W50111  42.365  11.169   2.219
81782W        W50112  36.407   3.803   0.300
81783W        W50113  25.534  42.377  10.459
81784W        W50114  32.067  23.064  13.403
81785W        W50115  31.596  22.206   2.889
81786W        W50116   3.924  43.492  11.927
81787W        W50117   8.390   2.358   2.223
81788W        W50118  24.996  39.419  12.994
81789W        W50119  39.438  27.178  14.795
81790W        W50120  32.412  15.748  10.909
81791W        W50121   9.846  27.685  10.617
81792W        W50122  26.167  40.383   2.830
81793W        W50123   2.904  27.455   2.801
81794W        W50124  28.623   2.834   1.879
81795W        W50125  36.086  21.240   4.739
81796W        W50126  22.504  19.040  13.919
81797W        W50127  42.920   2.362   5.287
81798W        W50128  40.456  23.494  14.485
81799W        W50129  11.767   8.726   3.682
81800W        W50130  35.074  19.748   2.794
81801W        W50131  42.852  29.027   0.400
81802W        W50132  12.339  34.986   2.344
81803W        W50133  22.667  17.211   3.648
81804W        W50134  21.239  13.779   4.797
81805W        W50135   8.402  22.244   3.243
81806W        W50136   2.965   1.758  10.569
81807W        W50137  40.007  14.691   0.747
81808W        W50138  41.305  42.863  10.626
81809W        W50139  19.686   8.772   3.699
81810W        W50140   1.444  42.919  13.921
81811W        W50141   5.372  28.597  13.438
81812W        W50142  41.007  32.018   2.875
81813W        W50143   6.336  35.011   5.109
81814W        W50144  39.540   4.315  11.536
81815W        W50145  29.992  20.618  14.888
81816W        W50146  32.446  22.664   2.698
81817W        W50147  37.461   8.721  11.504
81818W        W50148   7.705  25.111  11.073
81819W        W50149  26.668  10.763  14.509
81820W        W50150  14.712  35.032  12.981
81821W        W50151  15.692   6.906   1.715
81822W        W50152  24.079  30.543   4.235
81823W        W50153  39.468  40.524  14.842
81824W        W50154  28.557  14.782   3.301
81825W        W50155  15.189  31.048   0.956
81826W        W50156  13.780  13.110  13.973
81827W        W50157   9.812  30.534   2.337
81828W        W50158  28.677  19.240  11.478
81829W        W50159  35.991  10.271   1.717
81830W        W50160  31.570   3.434  12.046
81831W        W50161   8.307  29.108  13.003
81832W        W50162  20.738  25.695   3.634
81833W        W50163  40.460  37.341   1.912
81834W        W50164  15.656  44.328  14.988
81835W        W50165  26.654   5.742  14.451
81836W        W50166  40.378  12.338  14.301
81837W        W50167  43.838  26.063   4.165
81838W        W50168   3.409  18.214   2.394
81839W        W50169  37.530  28.941   2.256
81840W        W50170  18.714  19.259   4.714
81841W        W50171  24.985  35.505   4.166
81842W        W50172  35.533  29.095   0.889
81843W        W50173  28.563  31.535  11.101
81844W        W50174  42.501  10.144   1.854
81845W        W50175  25.181  24.230  13.391
81846W        W50176  33.587   9.890   1.270
81847W        W50177  23.199  14.225  13.398
81848W        W50178  12.318  39.891  14.866
81849W        W50179  44.777   1.291  14.344
81850W        W50180  11.866  30.957   2.859
81851W        W50181   3.774  13.132  12.353
81852W        W50182   5.372  44.869  12.560
81853W        W50183   3.225   4.933   3.663
81854W        W50184  35.374  20.230   1.831
81855W        W50185  18.102  38.971  11.597
81856W        W50186  16.315  12.201  13.380
81857W        W50187  21.705  44.946   0.884
81858W        W50188  10.195  41.308  14.904
81859W        W50189  29.655   7.379  10.026
81860W        W50190  21.260  43.395   2.212
81861W        W50191  23.542   7.710  11.445
81862W        W50192  39.953   6.744   1.725
81863W        W50193  43.777  44.393  10.638
81864W        W50194  39.892  38.347   3.844
81865W        W50195  15.710  43.777  14.840
81866W        W50196  17.648  29.583  10.618
81867W        W50197   2.905  17.291   2.340
81868W        W50198   0.479  41.383   2.725
81869W        W50199  16.675  27.514   4.354
81870W        W50200  38.518  26.102  12.951
81871W        W50201  19.728  31.464   1.395
81872W        W50202   0.318  44.764   4.626
81873W        W50203  23.655  32.061   1.347
81874W        W50204   2.844  27.069  14.460
81875W        W50205  31.900  33.007  12.083
81876W        W50206  17.695  28.632   0.899
81877W        W50207  41.009   9.693   4.614
81878W        W50208  23.600  27.093   2.774
81879W        W50209   2.783  22.165  12.033
81880W        W50210  13.669  27.465   0.898
81881W        W50211  22.678  13.816  13.819
81882W        W50212  31.572  28.069   0.350
81883W        W50213  43.796  13.246  10.562
81884W        W50214  16.603  25.542   3.814
81885W        W50215  34.976  34.898  11.448
81886W        W50216  26.634   8.398  13.508
81887W        W50217  19.706   0.892   2.228
81888W        W50218  24.147  29.940   2.206
81889W        W50219  36.482  44.773  13.484
81890W        W50220   6.205  23.684  13.430
81891W        W50221  15.730  25.120  11.478
81892W        W50222  12.729  13.639   3.693
81893W        W50223  37.834  18.170   3.824
81894W        W50224  17.584  35.945   0.811
81895W        W50225  23.574  33.934   4.289
81896W        W50226  20.031  17.307  13.508
81897W        W50227  28.442   7.802  12.947
81898W        W50228   4.303  42.457   3.832
81899W        W50229   8.864  37.431  14.314
81900W        W50230  33.119   8.331  13.898
81901W        W50231  22.639  15.747   5.308
81902W        W50232  10.202  13.692  11.484
81903W        W50233   2.826  20.083   1.771
81904W        W50234  43.919  23.495   2.770
81905W        W50235  20.732  44.281  11.570
81906W        W50236  33.485  25.093  14.028
81907W        W50237  28.600  34.986   5.203
81908W        W50238  17.285  44.882  11.941
81909W        W50239  24.178  13.633  11.546
81910W        W50240   1.320   6.915  11.995
81911W        W50241  43.337  11.268  13.355
81912W        W50242  24.503  20.608   3.757
81913W        W50243  37.954  11.625   3.318
81914W        W50244  37.529  20.255  10.518
81915W        W50245   3.759  34.547   0.397
81916W        W50246   8.248  10.288   1.770
81917W        W50247  42.978  39.051   3.157
81918W        W50248   2.849  43.849  10.637
81919W        W50249  39.926  36.028  12.436
81920W        W50250   2.245  30.498  11.071
81921W        W50251  44.835   7.854  12.440
81922W        W50252  11.213  34.466  14.477
81923W        W50253  36.866   5.859   3.202
81924W        W50254   9.729  24.089   0.811
81925W        W50255  25.077   3.742   4.260
81926W        W50256  14.102  22.232   4.142
81927W        W50257  41.938  39.323   1.338
81928W        W50258   3.223   0.263   1.237
81929W        W50259  29.135  39.372   4.352
81930W        W50260  44.967  24.134  13.961
81931W        W50261   6.892  24.643   2.303
81932W        W50262  32.588  32.959   1.421
81933W        W50263  37.487   2.252   3.250
81934W        W50264  33.415   3.729  11.494
81935W        W50265  12.786  40.496   4.720
81936W        W50266  14.744  38.567  13.317
81937W        W50267  41.382   3.759  10.600
81938W        W50268  27.445   2.852   1.703
81939W        W50269  34.023  11.145   2.354
81940W        W50270   9.859  27.185   1.836
81941W        W50271  11.324  21.209  13.947
81942W        W50272  33.944  27.044  11.943
81943W        W50273  20.750  34.956  11.075
81944W        W50274   8.211  31.574   1.836
81945W        W50275  37.886   2.795   1.281
81946W        W50276  10.737  37.386  10.509
81947W        W50277  12.821   7.856   2.274
81948W        W50278  23.228  24.139   1.783
81949W        W50279  33.473  14.270   1.318
81950W        W50280  22.624  39.027   3.735
81951W        W50281  10.673   3.326   3.296
81952W        W50282  30.923  40.499   3.675
81953W        W50283  42.031  25.588   1.701
81954W        W50284  42.434  13.761   0.865
81955W        W50285   9.237  38.549  12.567
81956W        W50286  19.115  30.587  11.980
81957W        W50287   4.746  29.075   0.440
81958W        W50288  26.970  28.486  13.064
81959W        W50289  23.201  30.972   5.275
81960W        W50290  15.651   6.271  13.957
81961W        W50291   3.892  19.243  14.458
81962W        W50292   9.179  20.568  13.471
81963W        W50293   2.296  26.127   4.147
81964W        W50294  30.544  42.392   3.174
81965W        W50295  32.039  41.030  14.786
81966W        W50296  18.627  29.429  10.998
81967W        W50297  38.336  26.134   2.834
81968W        W50298   9.824  36.050  11.475
81969W        W50299  34.940  37.918  11.940
81970W        W50300  25.987  13.239  11.878
81971W        W50301  11.143  21.247  10.450
81972W        W50302  42.303  16.684  13.421
81973W        W50303   8.296  43.388   1.406
81974W        W50304  41.838   6.211   1.331
81975W        W50305  43.344  15.696  12.348
81976W        W50306  14.609  25.533   4.330
81977W        W50307  26.951  24.045  13.448
81978W        W50308  29.127  43.862  10.891
81979W        W50309  35.410  17.187  13.868
81980W        W50310  20.646  21.131  13.060
81981W        W50311  41.447   0.437   3.183
81982W        W50312  27.128  27.469  13.382
81983W        W50313  36.032  16.120  10.932
81984W        W50314  30.120  20.728   1.752
81985W        W50315  29.105   5.223  14.023
81986W        W50316   3.443  33.424   5.217
81987W        W50317  18.216  42.933  12.392
81988W        W50318  11.708  15.789  13.044
81989W        W50319  38.058  41.035   0.851
81990W        W50320  12.345  41.353   4.624
81991W        W50321  12.823  28.172  11.579
81992W        W50322  15.300  32.469   2.801
81993W        W50323  33.913   7.846  14.421
81994W        W50324   6.745   0.852  10.977
81995W        W50325  41.818  14.631  13.377
81996W        W50326  35.045   3.954  12.447
81997W        W50327  19.252  12.166  11.458
81998W        W50328   2.383  17.607  10.550
81999W        W50329  15.614  40.430   5.126
82000W        W50330  38.562   4.336   3.711
82001W        W50331  28.529  43.010   4.144
82002W        W50332  38.910   8.235   5.274
82003W        W50333  26.554  35.049   1.228
82004W        W50334  18.284   7.398  11.910
82005W        W50335  40.447  36.034   1.333
82006W        W50336  42.831   3.837  11.084
82007W        W50337  22.659   6.205   2.192
82008W        W50338  15.241  26.155  11.952
82009W        W50339   9.337  17.609   0.798
82010W        W50340  29.068  30.573   4.665
82011W        W50341  15.627  40.972   4.285
82012W        W50342  15.236  13.175  11.487
82013W        W50343  38.535  26.087   3.276
82014W        W50344  27.475   8.761  12.503
82015W        W50345  32.923  37.859  11.024
82016W        W50346   5.780  29.521   1.875
82017W        W50347  24.204  25.183  12.354
82018W        W50348   1.464  15.646  14.480
82019W        W50349   7.280  33.622   2.833
82020W        W50350   8.248  42.846  12.923
82021W        W50351  11.709  39.432   1.212
82022W        W50352  24.569  12.217  14.494
82023W        W50353  12.233   2.239   4.793
82024W        W50354  28.621  12.297   0.364
82025W        W50355  13.178  41.921   1.261
82026W        W50356  17.724  36.022  11.433
82027W        W50357  39.962   8.308   5.264
82028W        W50358   8.322  21.758  14.453
82029W        W50359   6.736  17.261   3.850
82030W        W50360   1.257  23.240  14.940
82031W        W50361  34.452  35.918  14.407
82032W        W50362  43.826  19.128  12.880
82033W        W50363  42.888  27.966  12.559
82034W        W50364  16.773  30.120  10.915
82035W        W50365  20.532  16.641  11.514
82036W        W50366  26.106  32.548  11.886
82037W        W50367  35.903   3.863  12.364
82038W        W50368   8.326  40.044   4.810
82039W        W50369  34.513   3.779   0.916
82040W        W50370  35.881  23.122   0.458
82041W        W50371   9.296  28.494   3.155
82042W        W50372  18.677  23.664  13.851
82043W        W50373   3.856  13.331   2.299
82044W        W50374  40.305  15.294   2.413
82045W        W50375  35.451   4.776   4.113
82046W        W50376  42.475  28.073   2.757
82047W        W50377   6.302  28.597   2.672
82048W        W50378  36.501  41.444   0.284
82049W        W50379   9.861  17.124   3.776
82050W        W50380   2.246   3.797   1.902
82051W        W50381  15.124  44.320   4.223
82052W        W50382  44.929  34.389   0.859
82053W        W50383  24.121   5.874   2.280
82054W        W50384   0.433   3.930  14.031
82055W        W50385   9.324  14.604  14.298
82056W        W50386  31.648  28.980  14.435
82057W        W50387  14.125   8.700   2.314
82058W        W50388  28.087  17.287   5.158
82059W        W50389  10.753  24.601   2.192
82060W        W50390   3.868   0.961   2.770
82061W        W50391  30.462  15.740  11.553
82062W        W50392  17.795   9.291   3.650
82063W        W50393  22.089  29.529   1.377
82064W        W50394  26.987  24.589   0.361
82065W        W50395  35.521   8.357  12.833
82066W        W50396  10.332  12.820   0.266
82067W        W50397  35.435  36.046   3.234
82068W        W50398  15.692  40.387   3.224
82069W        W50399   6.307  28.443  11.399
82070W        W50400  22.551  17.695   5.258
82071W        W50401  15.734  36.090   5.222
82072W        W50402  30.005  18.697   3.850
82073W        W50403  20.523  43.844   4.808
82074W        W50404  40.413  29.549   1.874
82075W        W50405   2.856  18.286  12.423
82076W        W50406  20.231  29.991   5.087
82077W        W50407  33.992   6.306  11.577
82078W        W50408  29.054  18.126   1.913
82079W        W50409  19.185  21.566  10.549
82080W        W50410  42.407   1.772   4.832
82081W        W50411   8.178   1.795   3.653
82082W        W50412  38.875  11.283   2.723
82083W        W50413  10.663   4.729   1.778
82084W        W50414  12.759  42.495   1.381
82085W        W50415  32.989  35.444  14.278
82086W        W50416   2.243   7.768   1.244
82087W        W50417  32.547  21.234   0.842
82088W        W50418  12.830  24.627  13.961
82089W        W50419  23.240  32.096  13.417
82090W        W50420  22.121  22.080  13.021
82091W        W50421  22.696  25.027  14.921
82092W        W50422  11.310  28.494   4.115
82093W        W50423  25.547   9.890   0.395
82094W        W50424   0.757  34.925  14.908
82095W        W50425  13.303  21.181   0.922
82096W        W50426  29.028  18.736   1.738
82097W        W50427   4.276  28.670  11.971
82098W        W50428   8.210  21.757   3.220
82099W        W50429  28.443  32.512  10.964
82100W        W50430   8.274   7.867  10.555
82101W        W50431  16.790  41.477  12.999
82102W        W50432   8.164   9.382   2.794
82103W        W50433   1.826  37.549  13.415
82104W        W50434  30.050  43.495  14.032
82105W        W50435  28.679  42.473   4.609
82106W        W50436  17.179  16.304   1.905
82107W        W50437   6.704  11.783   0.350
82108W        W50438  21.031  41.956  13.851
82109W        W50439  31.923   2.724  11.424
82110W        W50440   5.424  12.349  13.420
82111W        W50441  13.777  28.119  10.906
82112W        W50442  40.490  41.920   2.702
82113W        W50443  21.258  28.663   1.698
82114W        W50444  19.663   0.491   0.438
82115W        W50445  18.216  34.981   2.280
82116W        W50446  17.757  27.662   3.831
82117W        W50447  20.034  31.900   3.730
82118W        W50448  35.934  44.824  12.464
82119W        W50449  30.989   7.353   4.814
82120W        W50450  43.858  38.565  10.639
82121W        W50451  25.549   5.804  13.809
82122W        W50452  32.003   5.312  11.467
82123W        W50453  38.344  26.081   2.383
82124W        W50454   4.901  30.555   2.340
82125W        W50455   5.386  30.095  14.775
82126W        W50456   2.927  40.870  13.478
82127W        W50457  42.497  40.445  10.631
82128W        W50458  23.067   4.888  13.521
82129W        W50459  27.082  22.515  11.393
82130W        W50460  15.632  16.237   0.310
82131W        W50461  18.557   4.801   2.743
82132W        W50462  30.503  35.547  13.859
82133W        W50463  42.945  38.855  14.276
82134W        W50464  12.676  21.078  10.932
82135W        W50465   6.893  27.099  12.066
82136W        W50466  33.387  22.725   3.357
82137W        W50467   0.853   9.288   3.847
82138W        W50468  22.718  24.162   0.950
82139W        W50469  32.030  12.839  10.451
82140W        W50470  23.535  19.134  11.895
82141W        W50471   0.269   7.241  13.897
82142W        W50472   8.868  28.983  12.830
82143W        W50473  16.572   9.166  11.889
82144W        W50474  30.485   9.349  12.939
82145W        W50475  25.511  36.031   0.867
82146W        W50476  25.648  43.501   4.608
82147W        W50477   3.772   3.403   3.681
82148W        W50478  21.256   3.459   0.964
82149W        W50479  30.602  16.809  10.465
82150W        W50480  23.151  21.621  11.042
82151W        W50481  28.672   6.810  10.951
82152W        W50482  25.084  25.479  14.440
82153W        W50483  12.181  22.645  12.431
82154W        W50484  40.886  18.766   3.250
82155W        W50485  18.578  44.270   2.887
82156W        W50486  20.250  21.214   3.697
82157W        W50487  31.515  31.896   1.402
82158W        W50488  42.033  41.529  11.081
82159W        W50489  34.392  10.151  14.893
82160W        W50490  43.506  34.516   2.328
82161W        W50491  43.377  20.153   1.833
82162W        W50492  18.119  41.960   0.345
82163W        W50493  26.586  11.734  11.381
82164W        W50494  19.563   0.982   0.847
82165W        W50495   8.219  20.079   0.382
82166W        W50496  28.929   2.372   1.716
82167W        W50497  39.983  20.597  13.522
82168W        W50498  29.063  43.013  11.029
82169W        W50499  34.504  19.601   3.735
82170W        W50500   9.668   2.431   2.401
82171W        W50501  37.857   3.824  12.396
82172W        W50502   5.364  29.607   3.250
82173W        W50503  11.854  12.635   0.465
82174W        W50504  31.594  42.927  13.959
82175W        W50505  36.415  40.408   2.726
82176W        W50506   9.305  26.978   0.791
82177W        W50507   5.883  25.560   3.736
82178W        W50508  41.489  22.582  14.877
82179W        W50509   0.856  29.123  11.953
82180W        W50510  43.881  32.637   2.805
82181W        W50511  35.393  35.041  13.374
82182W        W50512  10.285  12.778   4.615
82183W        W50513  29.646  37.364   3.858
82184W        W50514  16.243  10.181   0.937
82185W        W50515   6.859   6.839   2.297
82186W        W50516  36.894  39.023   4.120
82187W        W50517  20.045  14.639  11.933
82188W        W50518  15.205  20.264  10.574
82189W        W50519  37.882  40.338   2.832
82190W        W50520  14.317  40.015   2.808
82191W        W50521  12.710   4.861  12.879
82192W        W50522  35.868  11.674   4.269
82193W        W50523  21.017  31.502  13.500
82194W        W50524   1.976   4.728  11.422
82195W        W50525  17.198  33.086  12.432
82196W        W50526  32.927  20.198   0.815
82197W        W50527  26.466   9.856   2.798
82198W        W50528  14.745   3.941  11.968
82199W        W50529   2.907  38.867  12.078
82200W        W50530   8.174  19.623  12.547
82201W        W50531  17.615  44.428  13.408
82202W        W50532  35.505  31.089   3.754
82203W        W50533  39.556  14.142   2.721
82204W        W50534  28.544  22.567  10.972
82205W        W50535  43.460   3.365  14.386
82206W        W50536  23.662  11.668   0.747
82207W        W50537  32.016  25.058   9.973
82208W        W50538  39.544  36.086   4.626
82209W        W50539  16.688  16.582  10.422
82210W        W50540   7.312   9.684  14.025
82211W        W50541  24.111  40.020  13.445
82212W        W50542  17.271  37.425  11.495
82213W        W50543   4.274  24.705  12.372
82214W        W50544  15.797  17.079   1.758
82215W        W50545  18.553  34.988   5.319
82216W        W50546   7.374  26.585  12.996
82217W        W50547   9.167   4.299   3.700
82218W        W50548  36.034   2.402   2.880
82219W        W50549   5.221  34.544   3.214
82220W        W50550   2.890  38.513  10.434
82221W        W50551  29.552  31.508  13.478
82222W        W50552  38.011  28.448  10.643
82223W        W50553  12.787   1.889  14.942
82224W        W50554   9.222   4.740  14.341
82225W        W50555   4.223   7.223  14.770
82226W        W50556  28.629   1.820  12.914
82227W        W50557  15.689  37.347   4.213
82228W        W50558  30.535  21.622  11.041
82229W        W50559  10.312  41.004   1.758
82230W        W50560  38.881  28.577  12.574
82231W        W50561  12.334   7.251  13.492
82232W        W50562  11.357  25.191   3.787
82233W        W50563  34.120  31.516  11.432
82234W        W50564  35.905  13.311   0.743
82235W        W50565  12.215  17.109  12.340
82236W        W50566  12.269  35.948   2.762
82237W        W50567  20.667   3.410  12.000
82238W        W50568   5.237  29.048   1.700
82239W        W50569  37.432  16.571  14.471
82240W        W50570  30.066  39.007  13.000
82241W        W50571   5.924  36.402  11.112
82242W        W50572   5.263  36.388  10.913
82243W        W50573  21.250  20.221   3.680
82244W        W50574  25.214  29.105   1.810
82245W        W50575   5.337  24.057  12.426
82246W        W50576  36.898   2.885  12.953
82247W        W50577  12.341  43.007  14.873
82248W        W50578  32.916   7.702  13.896
82249W        W50579  39.944  26.073  13.432
82250W        W50580  11.275  37.415   4.177
82251W        W50581  15.134   1.329  10.995
82252W        W50582   7.729   5.843  14.330
82253W        W50583   2.790   1.440  13.053
82254W        W50584   2.805  13.683   0.267
82255W        W50585   6.335  25.664  10.418
82256W        W50586  12.754  22.558  14.804
82257W        W50587  40.542  44.943  13.810
82258W        W50588   8.370  41.865  13.025
82259W        W50589   3.949  38.066   2.897
82260W        W50590  26.047   9.651   2.261
82261W        W50591  37.369  18.209  13.841
82262W        W50592  32.010   9.776  13.479
82263W        W50593   7.193  42.428  13.464
82264W        W50594  25.711  39.994   0.399
82265W        W50595  11.165  34.562   1.904
82266W        W50596  24.563  34.106   0.936
82267W        W50597  23.078  35.079  11.098
82268W        W50598  23.077  24.705  12.500
82269W        W50599  15.241  10.727   1.401
82270W        W50600  19.562   9.734   3.253
82271W        W50601  40.004  32.400   2.728
82272W        W50602  13.758   5.763  11.043
82273W        W50603  38.487  42.968   4.597
82274W        W50604  17.560  43.501  11.046
82275W        W50605  24.061   3.860  11.611
82276W        W50606  37.858   0.828   0.819
82277W        W50607  29.028  20.260   1.286
82278W        W50608  27.601  32.573  14.779
82279W        W50609  24.213  25.138   4.194
82280W        W50610  43.009  42.886   5.250
82281W        W50611   4.705  44.891   4.793
82282W        W50612  38.355  13.278   0.950
82283W        W50613   8.252  22.640  13.466
82284W        W50614   2.807   4.264  11.094
82285W        W50615  18.623   3.736   0.262
82286W        W50616   0.327   8.752  12.895
82287W        W50617  20.575  13.793  14.011
82288W        W50618   5.868  35.053  11.075
82289W        W50619  13.105  37.888   3.337
82290W        W50620  22.995  21.584   0.836
82291W        W50621  32.474  38.455  11.077
82292W        W50622   9.201  28.114   2.266
82293W        W50623   2.960  16.224  11.106
82294W        W50624  24.592   7.739  10.948
82295W        W50625  22.038  13.681   4.212
82296W        W50626  31.098  30.001   1.287
82297W        W50627  42.298  23.999  12.885
82298W        W50628   2.414  23.572  11.479
82299W        W50629  15.643  34.372   4.704
82300W        W50630  41.297  11.860  13.930
82301W        W50631  22.241  29.624  14.944
82302W        W50632  35.868   7.755  14.777
82303W        W50633  34.415  26.190  13.825
82304W        W50634  15.192   4.728   2.321
82305W        W50635  40.395  13.722  11.055
82306W        W50636  24.492  35.524  13.061
82307W        W50637  27.976  41.344  14.360
82308W        W50638  28.001  19.657  13.443
82309W        W50639  28.565  39.904  14.476
82310W        W50640  20.598  43.826  12.934
82311W        W50641   6.218  33.419  10.511
82312W        W50642  15.258  23.650  14.417
82313W        W50643   5.884  17.267   4.241
82314W        W50644  35.063  20.170  13.517
82315W        W50645   2.851  31.608  12.371
82316W        W50646  40.811  12.826   4.306
82317W        W50647  18.259  41.851  11.860
82318W        W50648  13.718  17.293  12.020
82319W        W50649  18.774  18.136   4.195
82320W        W50650  15.648   7.344  14.833
82321W        W50651  43.420  13.271   2.233
82322W        W50652  10.288   0.983   3.297
82323W        W50653  14.793  14.694  12.364
82324W        W50654  14.588  42.825   0.461
82325W        W50655   6.351   9.865   4.311
82326W        W50656  40.900  33.896  12.873
82327W        W50657   3.830  19.626   3.786
82328W        W50658  43.842  43.936  10.623
82329W        W50659  30.447  28.055   3.708
82330W        W50660  34.903  36.427  13.374
82331W        W50661  13.174   8.340  13.850
82332W        W50662  30.632   7.262  14.438
82333W        W50663  18.218  20.251   1.772
82334W        W50664  27.600  34.970   3.264
82335W        W50665  18.735   8.189  13.428
82336W        W50666  17.164  42.949  11.076
82337W        W50667  14.221  22.505   2.766
82338W        W50668  17.556   7.207   1.442
82339W        W50669  26.702  16.574   2.283
82340W        W50670  17.585  32.933  10.580
82341W        W50671  41.528  33.382  13.378
82342W        W50672  32.469  13.140   1.924
82343W        W50673   7.693   4.836  10.598
82344W        W50674  11.729  42.485  12.989
82345W        W50675  15.732   1.480  12.475
82346W        W50676   7.889  24.982   1.218
82347W        W50677  34.446  39.987  11.945
82348W        W50678  19.068   5.766   4.774
82349W        W50679  38.385  18.146   2.896
82350W        W50680  10.775   2.398   3.851
82351W        W50681  23.048  34.953  12.093
82352W        W50682  18.598  36.953   1.222
82353W        W50683  44.855  24.216   3.384
82354W        W50684  13.691  22.236  14.357
82355W        W50685   4.437   7.204   4.676
82356W        W50686   9.803  14.236   1.446
82357W        W50687   3.450  38.329  13.864
82358W        W50688  11.191  16.724  12.034
82359W        W50689  40.803  10.710   3.298
82360W        W50690  33.008  31.579  10.612
82361W        W50691   2.749  29.647  14.776
82362W        W50692  12.270  41.805  13.844
82363W        W50693  11.200   5.384  12.076
82364W        W50694  12.314   8.277   2.730
82365W        W50695   7.893  41.507   1.387
82366W        W50696  39.996  20.237  11.923
82367W        W50697  26.170   9.189  12.023
82368W        W50698   8.161  26.522  11.881
82369W        W50699  11.771  12.166  12.897
82370W        W50700  38.392   1.339  11.949
82371W        W50701   7.879  37.846   1.745
82372W        W50702  37.990  37.453   0.825
82373W        W50703  42.975  11.138  13.942
82374W        W50704   9.233   5.245   4.181
82375W        W50705  26.196  17.729  13.010
82376W        W50706  24.099  19.578   3.861
82377W        W50707  36.555   9.788  10.897
82378W        W50708  31.120  42.921   4.728
82379W        W50709  10.226  12.711   2.366
82380W        W50710   7.878  19.749  12.973
82381W        W50711  25.046  15.599   0.459
82382W        W50712  11.842   1.468  12.896
82383W        W50713  21.099  30.002   3.840
82384W        W50714  44.486  16.314   3.202
82385W        W50715  26.987  12.649  14.777
82386W        W50716  29.599   2.801   0.381
82387W        W50717  18.579  10.678   1.781
82388W        W50718  44.807   4.706   4.228
82389W        W50719   4.317  35.599  11.384
82390W        W50720  22.534  30.142   3.759
82391W        W50721  19.153  31.990  14.861
82392W        W50722  18.546   0.342   0.301
82393W        W50723  22.572   1.742  12.870
82394W        W50724  32.424  26.703  11.599
82395W        W50725  38.536  20.574  14.897
82396W        W50726  30.572  24.679   0.759
82397W        W50727  24.575  22.698  14.503
82398W        W50728  10.670  12.144  10.580
82399W        W50729  28.630   8.790   5.294
82400W        W50730  20.055  14.105   5.128
82401W        W50731  20.538  40.404  14.912
82402W        W50732  32.908   7.223  12.520
82403W        W50733  42.860  13.230  11.375
82404W        W50734  37.934  27.646   4.329
82405W        W50735  34.870  26.183   1.752
82406W        W50736  22.576  44.004   0.734
82407W        W50737   9.658   5.299   1.342
82408W        W50738  36.082   8.365   0.734
82409W        W50739   8.318  41.531  12.955
82410W        W50740  26.482   6.182  14.389
82411W        W50741  22.666  20.109   4.252
82412W        W50742  15.187  30.097  10.500
82413W        W50743  30.141  35.026   2.765
82414W        W50744  21.044  31.498   4.694
82415W        W50745  44.797  40.324  10.969
82416W        W50746   5.317  25.633  14.006
82417W        W50747  41.787   5.339  12.578
82418W        W50748   7.334   1.410   3.216
82419W        W50749  27.012   7.880  13.839
82420W        W50750   2.849  44.906   0.328
82421W        W50751  24.205  34.574   1.223
82422W        W50752  25.698  18.671   4.783
82423W        W50753  10.265  10.381   2.224
82424W        W50754  38.546  20.628   4.686
82425W        W50755   5.403   3.789   4.148
82426W        W50756  14.135  11.139  10.959
82427W        W50757   8.198   0.788  11.884
82428W        W50758  36.937  11.155  13.386
82429W        W50759  37.980   5.877   1.803
82430W        W50760  16.080  23.019  13.503
82431W        W50761  24.151  15.259   0.817
82432W        W50762  34.964  34.911  13.461
82433W        W50763  44.294  26.168   0.360
82434W        W50764   7.888  35.988   1.233
82435W        W50765  30.133   7.364   3.320
82436W        W50766  33.550   6.866  13.991
82437W        W50767  21.176  15.817   3.346
82438W        W50768  21.143  33.482  10.972
82439W        W50769  41.454  14.184   3.808
82440W        W50770  37.834  13.650   0.349
82441W        W50771  38.973  26.207   4.221
82442W        W50772  28.044  34.068  13.341
82443W        W50773  29.989  25.149  13.526
82444W        W50774  11.647  23.235   2.700
82445W        W50775  32.426  28.039   0.742
82446W        W50776  27.639  39.968  11.071
82447W        W50777  16.272  38.856   4.352
82448W        W50778  39.560  22.620  14.361
82449W        W50779  30.527   0.801   4.752
82450W        W50780  10.662  42.809   4.298
82451W        W50781   6.248  13.639   1.233
82452W        W50782  43.409  39.419  13.542
82453W        W50783   6.329  28.674   4.232
82454W        W50784  21.580  17.210   4.132
82455W        W50785  12.258  36.056  14.958
82456W        W50786  27.566  34.420   0.731
82457W        W50787  44.344  25.019  12.886
82458W        W50788  34.116  16.573   3.372
82459W        W50789  31.043  13.841  14.002
82460W        W50790  39.875  33.962  11.057
82461W        W50791  26.046  20.673  10.887
82462W        W50792   0.985  34.522  13.011
82463W        W50793   2.938  35.882  10.102
82464W        W50794  27.688  16.669  14.316
82465W        W50795  23.986  29.167   0.285
82466W        W50796  42.026   6.335   0.860
82467W        W50797  24.594  11.262  11.601
82468W        W50798  39.330  22.570  10.485
82469W        W50799   8.833   3.378  14.966
82470W        W50800   4.259   1.801   4.613
82471W        W50801  22.180  41.868  11.121
82472W        W50802  32.477  24.676   1.895
82473W        W50803  16.129  12.305  10.450
82474W        W50804  35.996  10.820  14.876
82475W        W50805  34.438  28.613  12.889
82476W        W50806   6.694  15.224   0.838
82477W        W50807  32.469  16.092  13.883
82478W        W50808  36.584  29.579   0.401
82479W        W50809  19.106  31.899   1.344
82480W        W50810   7.183   7.184   2.793
82481W        W50811  33.624  20.212   3.147
82482W        W50812   5.810  43.371  14.281
82483W        W50813   7.195  36.028   4.807
82484W        W50814  43.011  26.477  12.046
82485W        W50815  13.196  36.084  12.090
82486W        W50816  14.263  33.050   1.752
82487W        W50817  30.069  14.150  13.515
82488W        W50818   7.306  11.314   4.729
82489W        W50819   0.975  27.558  14.822
82490W        W50820  34.008  33.592  10.079
82491W        W50821   6.203  31.487  14.479
82492W        W50822  19.615   4.805   0.780
82493W        W50823  41.343  30.980   0.267
82494W        W50824  18.726  25.632   0.275
82495W        W50825   4.374   6.787  10.627
82496W        W50826  16.276  12.712   4.740
82497W        W50827  31.098  32.441  10.638
82498W        W50828  29.512  41.342  13.339
82499W        W50829  42.931  14.835   2.720
82500W        W50830  28.106   1.861   0.827
82501W        W50831  21.639  32.907   3.336
82502W        W50832   6.810  11.131   2.824
82503W        W50833  40.012  37.377   1.807
82504W        W50834  21.659  26.507   2.318
82505W        W50835  26.514   2.928   1.278
82506W        W50836  19.206  40.880   2.794
82507W        W50837  44.298  11.341   0.729
82508W        W50838  25.701  37.998  12.425
82509W        W50839  25.155  10.237  10.598
82510W        W50840  29.508  36.920  11.036
82511W        W50841  20.664  18.721   4.607
82512W        W50842  26.157  12.692   0.287
82513W        W50843  38.480  32.405   2.393
82514W        W50844  16.076  14.271  11.856
82515W        W50845  25.545   0.282   1.211
82516W        W50846  38.404  32.497  11.606
82517W        W50847  19.244  28.498  14.376
82518W        W50848  32.625  32.006   3.166
82519W        W50849  18.790   4.845  14.880
82520W        W50850   8.392  20.762  13.357
82521W        W50851  31.059   6.720  11.515
82522W        W50852  35.093  18.195  12.405
82523W        W50853  34.399  17.098   0.779
82524W        W50854  34.510  15.624  14.013
82525W        W50855  20.718  20.034  14.887
82526W        W50856  11.207  12.279  12.514
82527W        W50857  18.075  40.921  10.977
82528W        W50858  36.067  25.999   2.399
82529W        W50859  37.860   2.887   4.721
82530W        W50860  31.006  19.156   5.277
82531W        W50861   4.245  14.252  14.888
82532W        W50862  15.237  14.719   3.718
82533W        W50863   5.795  23.138   4.836
82534W        W50864  31.120   3.234  14.930
82535W        W50865  25.176  28.109   4.609
82536W        W50866   5.299  29.157  14.919
82537W        W50867  37.011  38.995  14.005
82538W        W50868  16.260  33.103  10.429
82539W        W50869  39.835  41.345  11.516
82540W        W50870  33.073  27.500   3.297
82541W        W50871  20.076  17.732   1.414
82542W        W50872  37.063  10.848  12.370
82543W        W50873  17.152  27.549  12.912
82544W        W50874   6.332  20.033   3.644
82545W        W50875  41.984  30.035  14.465
82546W        W50876  38.433   7.765   4.119
82547W        W50877  43.019  21.564  13.003
82548W        W50878  29.643  43.406   2.404
82549W        W50879   0.785   1.341  14.878
82550W        W50880   3.258   3.883   3.743
82551W        W50881  42.386  41.983   0.354
82552W        W50882  28.540  28.155   1.329
82553W        W50883   2.430  41.864  10.509
82554W        W50884  41.810   2.362  10.931
82555W        W50885  20.158   5.913   2.766
82556W        W50886  23.548  13.799   0.316
82557W        W50887  19.039  22.051   1.702
82558W        W50888  43.915   2.918   0.441
82559W        W50889   1.335  39.937   1.901
82560W        W50890  29.470  34.079   5.189
82561W        W50891  33.007  27.073  14.379
82562W        W50892  41.818   0.479   2.765
82563W        W50893   1.738   1.377   2.346
82564W        W50894   1.906  42.869   0.890
82565W        W50895  23.133  24.078  11.004
82566W        W50896  11.676  34.583  13.410
82567W        W50897  16.641   5.869   4.727
82568W        W50898   6.855  11.810  11.879
82569W        W50899  16.142  33.449  13.417
82570W        W50900  33.607  18.267   1.868
82571W        W50901   0.493  27.190  11.039
82572W        W50902  17.170  29.628  12.361
82573W        W50903   0.436  16.223   2.724
82574W        W50904   2.848  10.780   2.857
82575W        W50905  21.176  25.557  10.954
82576W        W50906  43.460  41.802   0.320
82577W        W50907  12.785  32.059  13.363
82578W        W50908   3.340  34.470   1.325
82579W        W50909   5.344  30.473   0.296
82580W        W50910  33.000  12.300  11.945
82581W        W50911  43.000  16.758  12.918
82582W        W50912  31.442  37.906  12.480
82583W        W50913  11.278   7.879   0.246
82584W        W50914  18.556  33.923  10.503
82585W        W50915  43.349  11.801  11.510
82586W        W50916   7.834   7.708   4.217
82587W        W50917  17.094  16.253  14.408
82588W        W50918  20.077  36.890  12.862
82589W        W50919   4.365  35.461  12.087
82590W        W50920  30.110  38.891   2.818
82591W        W50921  43.324  33.381  12.528
82592W        W50922   2.268  20.178  11.434
82593W        W50923  29.541  15.758  14.395
82594W        W50924  26.490  40.443  12.453
82595W        W50925  19.778   4.235  13.017
82596W        W50926  37.054  34.887   2.207
82597W        W50927  34.392  43.012  13.846
82598W        W50928  19.113  20.674  14.980
82599W        W50929   4.806  34.579   0.250
82600W        W50930  33.998  14.726   1.373
82601W        W50931  44.934  30.098   1.309
82602W        W50932  42.282  21.529  13.025
82603W        W50933  41.313  18.632  11.001
82604W        W50934  20.252  30.470   2.843
82605W        W50935  38.822  30.023  11.048
82606W        W50936  13.248  13.159  13.509
82607W        W50937  18.221  17.793   0.344
82608W        W50938  39.026  25.621  11.096
82609W        W50939  20.601  14.292  11.942
82610W        W50940  19.761  11.707  11.085
82611W        W50941  37.535  14.224  11.489
82612W        W50942  32.101  20.253  10.428
82613W        W50943   9.297  39.366  13.037
82614W        W50944   8.277  27.661  14.465
82615W        W50945  27.954  24.182   3.854
82616W        W50946  30.023  16.612  12.838
82617W        W50947  37.538  15.667   3.860
82618W        W50948  33.909   1.240   1.876
82619W        W50949  10.286   2.399   1.286
82620W        W50950  19.670  44.469  13.544
82621W        W50951  12.801   1.749   1.810
82622W        W50952   8.687  25.987   4.243
82623W        W50953  15.682  18.212  13.408
82624W        W50954   3.325  15.322   4.781
82625W        W50955  10.860  26.477   0.734
82626W        W50956  25.550  26.682   5.207
82627W        W50957  43.896  12.762   3.687
82628W        W50958  40.382  19.768   1.320
82629W        W50959  17.135   4.416  10.611
82630W        W50960  16.628   2.866  14.382
82631W        W50961  16.221  34.536   5.129
82632W        W50962  13.288  17.209  14.359
82633W        W50963  40.915  11.300   3.357
82634W        W50964   3.898  10.224  14.446
82635W        W50965  23.140  38.075  12.429
82636W        W50966   3.351  11.768   5.177
82637W        W50967  15.624   1.823  12.969
82638W        W50968  23.625  15.207  11.467
82639W        W50969  22.184  19.268   4.760
82640W        W50970  15.172  29.427  14.923
82641W        W50971  18.748  10.343   2.756
82642W        W50972   2.866  25.665   0.433
82643W        W50973   4.926   2.895   1.697
82644W        W50974   1.389   7.790   3.166
82645W        W50975  12.314  31.453   4.302
82646W        W50976   4.316  31.425  13.428
82647W        W50977  26.100  20.702   1.213
82648W        W50978  44.840  41.925   4.808
82649W        W50979  33.580  26.146   3.367
82650W        W50980   1.243  30.413  11.012
82651W        W50981  37.978  18.597   0.844
82652W        W50982  27.184  39.044  14.938
82653W        W50983   8.246  44.464  12.020
82654W        W50984   9.256  11.731   2.399
82655W        W50985  23.652  40.308  13.024
82656W        W50986  10.786  24.621  12.078
82657W        W50987   3.886  33.411   2.415
82658W        W50988  32.493  19.199   2.405
82659W        W50989  24.040  22.195   2.732
82660W        W50990  26.109  39.940  14.855
82661W        W50991  32.082  40.888   2.898
82662W        W50992  21.144  20.148   9.635
82663W        W50993  26.689   2.800   3.758
82664W        W50994  14.599  26.136  13.011
82665W        W50995  39.968   5.298   9.658
82666W        W50996  43.332   7.857   0.808
82667W        W50997  30.476  23.735  14.790
82668W        W50998  23.569  30.134  11.983
82669W        W50999  31.531   3.800   0.436
82670W        W51000  27.537  41.967   3.708
82671W        W51001  36.372  31.619  14.922
82672W        W51002  22.023  25.630  14.859
82673W        W51003  22.206  39.828  11.521
82674W        W51004   4.271  30.602   2.778
82675W        W51005  11.839  38.454  13.486
82676W        W51006  20.192   1.405  13.040
82677W        W51007  31.024  27.528  14.015
82678W        W51008  40.904  12.755  11.083
82679W        W51009  14.228  16.576  12.868
82680W        W51010  22.604   9.327  14.474
82681W        W51011   3.290  16.250   2.823
82682W        W51012   0.386  30.970   1.779
82683W        W51013  42.322  29.440   4.169
82684W        W51014  43.439  16.808  13.465
82685W        W51015  32.086  31.444  10.937
82686W        W51016   3.414   5.399   0.780
82687W        W51017   2.429  24.093   4.807
82688W        W51018  18.735   4.810  12.031
82689W        W51019   4.718  26.700   2.854
82690W        W51020  27.991   7.317  10.519
82691W        W51021   1.370   0.374   1.812
82692W        W51022  10.240  14.640  11.928
82693W        W51023  10.867  30.438  12.506
82694W        W51024  11.276   3.927  14.768
82695W        W51025   6.316   6.391  14.313
82696W        W51026  40.025   8.751   1.714
82697W        W51027   7.196  42.376   4.758
82698W        W51028  27.066  44.479   4.700
82699W        W51029  31.422  22.144   0.414
82700W        W51030  41.396  42.820   2.282
82701W        W51031  22.703  35.367   1.247
82702W        W51032  42.788  11.285   4.143
82703W        W51033  18.551  23.090  11.882
82704W        W51034  23.001   7.320   3.158
82705W        W51035  37.856  30.468   4.185
82706W        W51036  14.278  31.070   4.330
82707W        W51037   7.800   7.412   4.668
82708W        W51038   6.802  40.435  13.478
82709W        W51039  15.104   8.791  12.390
82710W        W51040  42.390  42.343   2.702
82711W        W51041   4.920  30.074   2.322
82712W        W51042  28.169  30.505   5.101
82713W        W51043   3.229  22.028  13.881
82714W        W51044  40.539  28.938   9.954
82715W        W51045   7.769  12.714  13.898
82716W        W51046   5.874  37.992   0.250
82717W        W51047  43.488  25.158   2.263
82718W        W51048  32.960  18.098   4.666
82719W        W51049  20.151  38.562   4.744
82720W        W51050  26.631  37.079  12.972
82721W        W51051  39.332  34.024  14.293
82722W        W51052  27.191  31.432  11.014
82723W        W51053  22.586  36.542   4.315
82724W        W51054  25.023  35.514  12.461
82725W        W51055  23.027   6.208   2.875
82726W        W51056   9.181  14.147   1.927
82727W        W51057   0.366  36.076  10.977
82728W        W51058  34.596  16.625   0.820
82729W        W51059  40.524  32.930  10.490
82730W        W51060  43.018  18.162  12.908
82731W        W51061  19.074   9.693   4.322
82732W        W51062   2.419  40.380  10.111
82733W        W51063  30.548  35.998  11.901
82734W        W51064  11.781   1.791   5.093
82735W        W51065  41.933  31.638   2.331
82736W        W51066  37.940  36.407  13.002
82737W        W51067   0.834  40.420   3.236
82738W        W51068  11.680  28.138  14.418
82739W        W51069  43.872  11.185   1.842
82740W        W51070  37.546  38.941  12.094
82741W        W51071  30.447  17.165  14.898
82742W        W51072  44.475  31.988  14.871
82743W        W51073  10.697  32.490  13.369
82744W        W51074  37.418  23.714   0.319
82745W        W51075  39.490  42.441  14.282
82746W        W51076   3.846  11.776   0.744
82747W        W51077  36.913   3.461  14.422
82748W        W51078  19.732  22.565  12.007
82749W        W51079  23.614  26.965   1.754
82750W        W51080  43.851  18.072   0.411
82751W        W51081   4.926   0.357  13.530
82752W        W51082  14.804  41.854   3.815
82753W        W51083   7.804   0.336   4.303
82754W        W51084  20.222  43.484  13.915
82755W        W51085  21.174  39.382  11.564
82756W        W51086  24.030  37.400  14.830
82757W        W51087  40.049  28.668  14.352
82758W        W51088  35.951  42.839  13.937
82759W        W51089  24.117   5.740  13.914
82760W        W51090  14.630  15.758  14.919
82761W        W51091  15.581   4.755   0.820
82762W        W51092  34.519   4.223   3.189
82763W        W51093  37.017  44.834  11.067
82764W        W51094  20.555  14.668  14.428
82765W        W51095  36.487   8.267   0.832
82766W        W51096  15.758  35.386   3.376
82767W        W51097  28.105  23.683  11.919
82768W        W51098  14.828  44.002  11.932
82769W        W51099  19.670  44.760  13.881
82770W        W51100  27.651  26.503   1.895
82771W        W51101  26.552   3.796   0.404
82772W        W51102   1.263  31.120   4.343
82773W        W51103  18.158   6.314  12.479
82774W        W51104   0.951  23.161  11.485
82775W        W51105  11.155  30.635  12.491
82776W        W51106  15.092  20.630   2.323
82777W        W51107  14.326  26.100  14.785
82778W        W51108  40.342   2.939   3.379
82779W        W51109  10.705  26.961   1.305
82780W        W51110  34.452  31.077  12.085
82781W        W51111  20.249  21.624  14.310
82782W        W51112  22.151  37.029  13.951
82783W        W51113  35.872  22.746   4.133
82784W        W51114  43.515  27.472  12.971
82785W        W51115  20.686  44.270  14.320
82786W        W51116  14.295  40.481   1.737
82787W        W51117  35.075   8.775   0.895
82788W        W51118  35.936  31.538  13.959
82789W        W51119  42.870  17.123   0.378
82790W        W51120  18.725  29.132  13.032
82791W        W51121   6.423  14.229   5.292
82792W        W51122  34.990  44.448  13.393
82793W        W51123  33.581  15.157   3.668
82794W        W51124  43.409  10.714  14.779
82795W        W51125  28.450   8.345  12.928
82796W        W51126  11.746  35.365  11.976
82797W        W51127  22.073   6.219   4.811
82798W        W51128  24.203  32.997  12.043
82799W        W51129  40.397  38.997   1.308
82800W        W51130  33.620  21.243   1.429
82801W        W51131   7.364   6.734   0.427
82802W        W51132   4.910  33.585  12.045
82803W        W51133  34.489  36.433   0.339
82804W        W51134  44.893  13.149   3.189
82805W        W51135   1.774  13.601   0.397
82806W        W51136  36.482  17.576  14.484
82807W        W51137   4.866   9.682   4.753
82808W        W51138  31.564   6.774   4.240
82809W        W51139  24.608  35.968  10.553
82810W        W51140   8.899  38.840   9.992
82811W        W51141  20.667   7.736   2.847
82812W        W51142  22.118   1.477   2.326
82813W        W51143  32.563  18.069   3.322
82814W        W51144   6.282   3.766   3.228
82815W        W51145   3.760  31.933  10.470
82816W        W51146  19.640  10.840   3.691
82817W        W51147  21.716   0.248   1.871
82818W        W51148   0.287  26.463   1.817
82819W        W51149  27.088  29.163  11.540
82820W        W51150  20.201  25.029   2.271
82821W        W51151   7.239  31.403  13.420
82822W        W51152  20.641  27.050   4.621
82823W        W51153  36.952  44.974   4.662
82824W        W51154  34.558  21.216   4.609
82825W        W51155  12.840  36.373  14.877
82826W        W51156  15.244  44.382  14.419
82827W        W51157  10.666  17.087   2.711
82828W        W51158  16.574   3.229   2.667
82829W        W51159  20.657  25.020  13.310
82830W        W51160  30.550  44.770   4.272
82831W        W51161  31.621   3.833   4.191
82832W        W51162  19.650  27.566   0.955
82833W        W51163   3.283  22.069  14.982
82834W        W51164   4.433  20.562  10.965
82835W        W51165   5.831  17.143   1.907
82836W        W51166   5.232  17.582  11.560
82837W        W51167  19.601  14.209  13.991
82838W        W51168  44.396  28.473  11.901
82839W        W51169  13.195  24.102  11.047
82840W        W51170  14.613   9.674  10.590
82841W        W51171  35.035  13.332   2.765
82842W        W51172  25.533   8.244  12.913
82843W        W51173   3.741  17.758   4.224
82844W        W51174   4.395  29.077   3.298
82845W        W51175   1.883  33.502   4.628
82846W        W51176  39.493   7.800  13.438
82847W        W51177  42.842  27.569   4.171
82848W        W51178  34.459  20.138  14.788
82849W        W51179  33.086   8.842  11.397
82850W        W51180  12.287  39.434   3.705
82851W        W51181   4.884  40.030   3.240
82852W        W51182  22.198  16.274  11.887
82853W        W51183   3.260  14.234  13.529
82854W        W51184  21.026  40.863  12.829
82855W        W51185  42.487   4.777   1.923
82856W        W51186   4.710  24.228  13.445
82857W        W51187  43.283   9.318   3.330
82858W        W51188  27.970  15.117  13.410
82859W        W51189  15.617  10.774  11.912
82860W        W51190  33.005   9.221   3.310
82861W        W51191  31.015  10.693  14.791
82862W        W51192   4.394  16.253  12.522
82863W        W51193  13.791  17.686  11.475
82864W        W51194   8.191  31.958  12.871
82865W        W51195   1.415   5.304   0.919
82866W        W51196   8.288  13.249  10.616
82867W        W51197  29.112  31.124   3.867
82868W        W51198  43.513  20.264  13.061
82869W        W51199   0.747  43.892  13.972
82870W        W51200  41.805  32.122  14.311
82871W        W51201  28.519  27.196   3.839
82872W        W51202   6.197  42.830   9.975
82873W        W51203  21.142  21.683   0.756
82874W        W51204   8.386  38.030  11.883
82875W        W51205  18.776  27.469  12.492
82876W        W51206  17.244  35.505   4.804
82877W        W51207  20.579   9.219   4.817
82878W        W51208  32.589  42.450   3.690
82879W        W51209  19.254  44.340  14.453
82880W        W51210  27.675  29.557  14.438
82881W        W51211   6.384  22.156  14.333
82882W        W51212  14.147  28.652   4.811
82883W        W51213  44.807   0.371  12.507
82884W        W51214  17.603  39.840  14.496
82885W        W51215  11.800  36.898  10.586
82886W        W51216  15.135  42.489  12.419
82887W        W51217  15.294  22.568  14.495
82888W        W51218  31.050  11.727   0.891
82889W        W51219  41.822  32.127   4.138
82890W        W51220  43.967  20.629   3.169
82891W        W51221  28.003  41.509  10.893
82892W        W51222  33.009   1.816   3.219
82893W        W51223  26.622  25.658   0.807
82894W        W51224  43.488   5.865  12.003
82895W        W51225   5.850  30.631  12.021
82896W        W51226  25.098  19.702   0.393
82897W        W51227   3.807   2.233  13.349
82898W        W51228  18.603  39.876  11.989
82899W        W51229  11.237  18.716  13.045
82900W        W51230   7.297  15.695  11.023
82901W        W51231  39.514  43.839  11.857
82902W        W51232  25.165  28.075   4.169
82903W        W51233   2.857  22.070   2.280
82904W        W51234   2.873  23.120  12.900
82905W        W51235   0.790  29.635   3.218
82906W        W51236  43.774  33.118   3.835
82907W        W51237  27.685  27.123  14.295
82908W        W51238  39.830   5.265   4.667
82909W        W51239  25.468  32.437   4.341
82910W        W51240  42.314   9.761  10.487
82911W        W51241  28.064   3.409  12.355
82912W        W51242   1.276  40.856  11.863
82913W        W51243  39.458  39.949   4.303
82914W        W51244  29.450  15.633   3.281
82915W        W51245   4.388   7.336   1.707
82916W        W51246   4.351  17.793  13.340
82917W        W51247   3.299   6.720   1.259
82918W        W51248  32.490  43.338   2.190
82919W        W51249  21.514  36.988  10.501
82920W        W51250  40.462  33.901   0.731
82921W        W51251   7.208  27.007  14.868
82922W        W51252  31.479  37.566  13.400
82923W        W51253  36.091   8.397  12.341
82924W        W51254  21.241   0.276   1.298
82925W        W51255  16.747  23.149  10.077
82926W        W51256  17.133  31.999  10.090
82927W        W51257  25.545  37.351   2.703
82928W        W51258  20.676  36.952   1.435
82929W        W51259  16.227  15.216   2.326
82930W        W51260   7.813  14.792   1.354
82931W        W51261  34.994   6.834   2.210
82932W        W51262   6.776  27.524  12.003
82933W        W51263  15.112  20.191  13.918
82934W        W51264  15.196   3.774   0.763
82935W        W51265  19.576  21.670   1.928
82936W        W51266  35.393  14.748  10.563
82937W        W51267   4.343   1.380   3.227
82938W        W51268   3.384  38.006   2.761
82939W        W51269   1.879  26.517  13.928
82940W        W51270   4.716  34.046   4.143
82941W        W51271  39.810   5.741   0.322
82942W        W51272  34.527  41.294   0.873
82943W        W51273  11.730  25.649   3.853
82944W        W51274   7.735  39.551   4.682
82945W        W51275   7.252  24.488   4.814
82946W        W51276   2.841  31.143  14.960
82947W        W51277  42.877  19.602  10.109
82948W        W51278  43.435   7.405   1.403
82949W        W51279  22.251   6.226  11.472
82950W        W51280   0.933   3.777  14.771
82951W        W51281  10.810  23.624   4.824
82952W        W51282  27.024  26.638  12.402
82953W        W51283   4.899  28.452   2.818
82954W        W51284  29.488   7.304   3.856
82955W        W51285  44.427   6.287   1.741
82956W        W51286  41.934   2.385  14.863
82957W        W51287  14.177  44.005   4.625
82958W        W51288   6.276   9.787   3.796
82959W        W51289  27.559  37.025   0.250
82960W        W51290  35.508  25.519   3.355
82961W        W51291  44.789  13.336  14.355
82962W        W51292  32.983  38.926   2.787
82963W        W51293  17.687   2.237  12.421
82964W        W51294  35.996  44.308  12.431
82965W        W51295   9.296   7.779  11.935
82966W        W51296   6.355  15.661   5.204
82967W        W51297  17.694   3.398  12.498
82968W        W51298  17.681  33.486  13.975
82969W        W51299  14.680  16.716  14.026
82970W        W51300  18.260  21.089   3.249
82971W        W51301  25.558  17.121  14.493
82972W        W51302   1.417  32.553  10.574
82973W        W51303  36.089  11.777   5.250
82974W        W51304  24.618  26.573  13.421
82975W        W51305  41.924   5.300   1.404
82976W        W51306  27.565   0.911  13.912
82977W        W51307  34.584  39.451  14.897
82978W        W51308  24.151  14.705  12.564
82979W        W51309  12.737  18.761  13.411
82980W        W51310  44.383  25.544   3.298
82981W        W51311  19.771  40.977  13.309
82982W        W51312  36.038  27.126   4.645
82983W        W51313  15.639  35.524   5.160
82984W        W51314  43.301  22.220   4.773
82985W        W51315  15.607   9.750   4.274
82986W        W51316  40.512  15.279  14.856
82987W        W51317  14.230  34.100  10.643
82988W        W51318  25.087  23.642  14.907
82989W        W51319  18.573  42.479  12.950
82990W        W51320  19.261  38.859  13.435
82991W        W51321  44.488  19.109  12.974
82992W        W51322  11.704   1.421   4.630
82993W        W51323  22.020  44.484  14.966
82994W        W51324  26.647   1.328   4.613
82995W        W51325  23.734  28.080   2.327
82996W        W51326  24.071   4.716   4.821
82997W        W51327   6.769  32.462  14.361
82998W        W51328  22.082  42.883  12.456
82999W        W51329  44.941  12.177   2.279
83000W        W51330  33.590  25.482  12.048
83001W        W51331   7.796  21.190   2.812
83002W        W51332  26.689  11.669  11.993
83003W        W51333  41.910  41.428  14.826
83004W        W51334  15.229  29.645  10.589
83005W        W51335   7.267  31.429   3.762
83006W        W51336  28.939  14.606  14.940
83007W        W51337  27.680  27.607   1.840
83008W        W51338  42.410  40.532   0.320
83009W        W51339   0.800  25.606   1.805
83010W        W51340  35.965  38.927   4.156
83011W        W51341  24.687   6.676  14.281
83012W        W51342   2.867   9.212   3.158
83013W        W51343  22.194  34.951  13.860
83014W        W51344  41.959  12.200   2.364
83015W        W51345  17.275  15.745   0.340
83016W        W51346   2.281   5.779  13.388
83017W        W51347  12.292  41.947  14.352
83018W        W51348  34.004   0.775  10.454
83019W        W51349  19.167  28.486  10.927
83020W        W51350  36.398   6.247  11.963
83021W        W51351  13.722  38.886   4.732
83022W        W51352   3.764  26.571   0.440
83023W        W51353  21.703  24.142  11.422
83024W        W51354  31.144  13.626  12.520
83025W        W51355  32.031  10.359  14.023
83026W        W51356  31.580   9.382  11.513
83027W        W51357  33.024  42.377   4.821
83028W        W51358  11.818  22.157   2.684
83029W        W51359  11.763  14.682   0.321
83030W        W51360  38.953  32.095   0.430
83031W        W51361  25.521   0.962  12.482
83032W        W51362  29.635  44.479   0.445
83033W        W51363  22.125  14.276  12.836
83034W        W51364  23.071  20.259   4.165
83035W        W51365  26.030  39.885   4.777
83036W        W51366  37.454   6.885   4.807
83037W        W51367   8.863   8.288   1.742
83038W        W51368  10.767  43.453  14.876
83039W        W51369  20.238  30.496  12.982
83040W        W51370  27.140   6.276   4.273
83041W        W51371  42.892  12.800  14.502
83042W        W51372  42.794  22.041   3.173
83043W        W51373  31.644   4.855  12.902
83044W        W51374  39.893  38.403  10.454
83045W        W51375  19.751  23.011  11.491
83046W        W51376  25.533  23.144   0.778
83047W        W51377  44.844  41.801  14.942
83048W        W51378  13.158  20.747   4.343
83049W        W51379  34.537  42.322   1.804
83050W        W51380  41.856  25.030   0.308
83051W        W51381  37.934  12.839  12.950
83052W        W51382  35.571  15.811   2.303
83053W        W51383  42.861  15.194   0.940
83054W        W51384  22.656  37.391  13.834
83055W        W51385   3.742   2.791  10.943
83056W        W51386  23.540  17.611  10.412
83057W        W51387  32.981  31.978  13.528
83058W        W51388  35.430  44.467   2.805
83059W        W51389   7.387  22.116  13.062
83060W        W51390  18.103  22.158   0.920
83061W        W51391  19.621  32.500   4.725
83062W        W51392  18.210  42.794   4.792
83063W        W51393  26.193  22.517   3.682
83064W        W51394  29.040   5.726  10.529
83065W        W51395  21.638  10.870   5.089
83066W        W51396  27.531  26.510  11.965
83067W        W51397  26.100  16.612  14.411
83068W        W51398  26.045  16.707  10.477
83069W        W51399  24.117  35.581   3.761
83070W        W51400   6.795   0.801   2.204
83071W        W51401  12.304  35.006  10.963
83072W        W51402  13.267  22.654  10.022
83073W        W51403  43.978  20.249   0.860
83074W        W51404  35.596  12.347   2.735
83075W        W51405  19.279  17.731   2.323
83076W        W51406  26.104  33.061  11.026
83077W        W51407  40.800  36.544  11.583
83078W        W51408  28.566  41.451   2.817
83079W        W51409   2.773  37.043  14.453
83080W        W51410   0.430  16.155   4.293
83081W        W51411  15.741  16.720  14.449
83082W        W51412   9.282  30.127   4.247
83083W        W51413  12.716  43.421  11.999
83084W        W51414   9.816  19.050  14.418
83085W        W51415  30.097  13.671   3.153
83086W        W51416  13.345  34.980   2.416
83087W        W51417   7.686  18.093   2.683
83088W        W51418  21.529  22.728   2.282
83089W        W51419  21.038  30.527   3.373
83090W        W51420  10.353  20.696  12.433
83091W        W51421  42.006  35.887   3.661
83092W        W51422  37.426  27.522   0.415
83093W        W51423  39.835  19.186  11.911
83094W        W51424   5.429  15.818   2.824
83095W        W51425  35.931  15.132  10.551
83096W        W51426  37.082  24.706  11.490
83097W        W51427  31.011  28.518   4.117
83098W        W51428  32.614  29.574  11.903
83099W        W51429  19.586   0.813  10.478
83100W        W51430  42.372  26.044   4.656
83101W        W51431  12.345  32.002  13.911
83102W        W51432  14.166   7.386   0.372
83103W        W51433   8.350  40.014  12.975
83104W        W51434  14.109  42.964   4.616
83105W        W51435  37.038  26.640   1.930
83106W        W51436  22.117  12.732   1.750
83107W        W51437  38.540  10.162   2.244
83108W        W51438   6.200  44.834   0.895
83109W        W51439  23.509   2.466  11.998
83110W        W51440  28.141   7.754   3.225
83111W        W51441  17.715  35.396   5.094
83112W        W51442  31.474  44.909   0.466
83113W        W51443  35.362  30.037  11.542
83114W        W51444  38.856  23.679  13.917
83115W        W51445  39.983  13.220   0.408
83116W        W51446  36.928  17.564  11.472
83117W        W51447   8.251  20.090  14.976
83118W        W51448  36.954  26.087   4.753
83119W        W51449   2.410  10.318   0.433
83120W        W51450   0.771  20.149  13.938
83121W        W51451  20.248  37.931   2.668
83122W        W51452  15.162   4.448  13.499
83123W        W51453  32.094  23.618   2.870
83124W        W51454  23.032  43.872   1.349
83125W        W51455   9.758  32.616  12.531
83126W        W51456  29.080   1.795   0.741
83127W        W51457  25.150   9.284   2.778
83128W        W51458  34.496   3.223  10.895
83129W        W51459  39.545  28.974   1.374
83130W        W51460  31.425  10.807  12.998
83131W        W51461  40.967  23.695  12.083
83132W        W51462  28.938  32.963   2.400
83133W        W51463   6.355  21.020  12.960
83134W        W51464  26.488  31.420  10.458
83135W        W51465  37.369  28.581  12.923
83136W        W51466   1.763  43.410  11.435
83137W        W51467  30.632  27.990  12.048
83138W        W51468  32.976  21.138   0.791
83139W        W51469  22.161  33.588  11.450
83140W        W51470  35.000  10.725  10.894
83141W        W51471  23.630  28.107  10.529
83142W        W51472   7.765  27.995  14.294
83143W        W51473  44.470  44.912  14.947
83144W        W51474   5.785   4.297  10.627
83145W        W51475   0.339  32.625  11.086
83146W        W51476  15.605  22.096  10.951
83147W        W51477   1.755  30.917  11.859
83148W        W51478   4.263  15.660   0.806
83149W        W51479  30.544  24.483   2.835
83150W        W51480   9.364  12.714  12.839
83151W        W51481  28.127  31.137  13.825
83152W        W51482  15.717   6.738   2.690
83153W        W51483  12.753  37.068   1.855
83154W        W51484  24.008  28.031  12.929
83155W        W51485  25.979  26.086   3.829
83156W        W51486  37.472  21.052  11.112
83157W        W51487  37.460  39.845  10.020
83158W        W51488  38.349  38.886   3.363
83159W        W51489  11.799  13.607  10.553
83160W        W51490   8.707  37.903  14.849
83161W        W51491  25.633  11.773   1.697
83162W        W51492   1.308  29.472  10.443
83163W        W51493  22.057  24.200   1.929
83164W        W51494  28.677  10.281  13.909
83165W        W51495  41.793  38.965  11.584
83166W        W51496  29.080  33.992   0.354
83167W        W51497  41.788  17.175  13.943
83168W        W51498   0.900  27.068  13.494
83169W        W51499  36.538  31.436  12.511
83170W        W51500  38.855  21.573  10.576
83171W        W51501  18.065   7.201   3.368
83172W        W51502   4.440  41.800  11.586
83173W        W51503   7.281  18.115   1.373
83174W        W51504  21.665  15.309  11.942
83175W        W51505   2.421  42.881  12.402
83176W        W51506   1.765  31.008  13.434
83177W        W51507  21.181   7.236   2.344
83178W        W51508   4.435  15.697   2.376
83179W        W51509   9.694  38.551   4.210
83180W        W51510  19.597   9.279  14.378
83181W        W51511  30.093  31.452  12.060
83182W        W51512  41.295  32.129   4.283
83183W        W51513  25.522  27.140   4.828
83184W        W51514  11.694  17.586   1.253
83185W        W51515   7.820   9.871  14.958
83186W        W51516  14.778  28.619   4.234
83187W        W51517   9.329   1.960  12.950
83188W        W51518  42.409  17.094   4.347
83189W        W51519  42.786  28.031   3.634
83190W        W51520  42.516  40.479   1.917
83191W        W51521  28.172  25.495   2.273
83192W        W51522  41.895  23.056  11.961
83193W        W51523  15.589  42.020  13.316
83194W        W51524   7.715  13.148  12.377
83195W        W51525  10.856  33.933  11.575
83196W        W51526  21.221   0.280  11.066
83197W        W51527  15.284  13.758  10.630
83198W        W51528  29.128  32.519   2.717
83199W        W51529  17.623  34.997  14.475
83200W        W51530   1.319  13.777  10.909
83201W        W51531  20.268   3.429  10.490
83202W        W51532  23.069  40.803   3.845
83203W        W51533  27.468  17.734   0.453
83204W        W51534  10.183   1.975   0.749
83205W        W51535  11.270  18.683  10.615
83206W        W51536  41.949  12.291  12.029
83207W        W51537   4.744  27.539  13.945
83208W        W51538  11.312  10.356  11.070
83209W        W51539   7.338  13.842  12.550
83210W        W51540  13.720  16.576   2.716
83211W        W51541  38.425  30.542  11.479
83212W        W51542  19.751  24.678   2.845
83213W        W51543  14.209  10.846   4.163
83214W        W51544   3.297  26.086  10.556
83215W        W51545  36.586  37.848  12.364
83216W        W51546   5.270  27.065  10.997
83217W        W51547   0.259   5.340  12.992
83218W        W51548  33.449  12.793  14.364
83219W        W51549   6.749  38.067  14.340
83220W        W51550  42.416  12.132  13.800
83221W        W51551  15.809   7.779   3.843
83222W        W51552  35.893  37.356  14.351
83223W        W51553  40.028   6.793   4.774
83224W        W51554   2.303  19.267   4.301
83225W        W51555  44.268  17.289   3.857
83226W        W51556  37.038  43.892   0.851
83227W        W51557  10.350   3.855  10.963
83228W        W51558  29.018   8.826  11.102
83229W        W51559   4.383   9.756   4.631
83230W        W51560  18.588  17.095   1.924
83231W        W51561   3.341   7.274   1.786
83232W        W51562   9.199  31.567  11.945
83233W        W51563  41.406   9.655   0.424
83234W        W51564   7.732   4.402  13.895
83235W        W51565  36.092  12.347   1.924
83236W        W51566  36.370  40.342  11.918
83237W        W51567  20.727  16.648   4.808
83238W        W51568  29.644  14.775   4.262
83239W        W51569  42.866  38.526   1.799
83240W        W51570  36.093  40.892  13.983
83241W        W51571   7.780  26.515   2.870
83242W        W51572  25.677   7.215  11.437
83243W        W51573  43.291  29.495   2.866
83244W        W51574   5.874  36.062   0.847
83245W        W51575  30.991  44.269  12.461
83246W        W51576   8.825  22.044  10.632
83247W        W51577  18.697   8.858   2.754
83248W        W51578  10.208  40.051  13.802
83249W        W51579  28.639  42.842  13.062
83250W        W51580  30.017  16.249  11.925
83251W        W51581   5.782  21.230  10.411
83252W        W51582  13.797  35.357   9.987
83253W        W51583  35.913  15.673  10.086
83254W        W51584  15.820  38.046   5.623
83255W        W51585  27.983  36.480  13.895
83256W        W51586  35.915  24.672  13.540
83257W        W51587  24.575  36.073   4.214
83258W        W51588  21.713  36.058   2.713
83259W        W51589   6.318  11.180  14.390
83260W        W51590  34.433   3.250   1.916
83261W        W51591   5.328  33.422   3.193
83262W        W51592   7.203   2.910  10.970
83263W        W51593  44.869   7.905   2.179
83264W        W51594  33.038  36.910   4.831
83265W        W51595  17.559   2.732  12.387
83266W        W51596  23.220  37.577  13.354
83267W        W51597  19.648  28.492  10.499
83268W        W51598  23.568  13.298  13.409
83269W        W51599  31.125  25.669   4.651
83270W        W51600  26.652  18.098  11.398
83271W        W51601  39.511  28.655  10.470
83272W        W51602  39.935  14.742   0.311
83273W        W51603  12.813   3.302   1.374
83274W        W51604  37.470  16.654   2.806
83275W        W51605  34.026  32.920   0.457
83276W        W51606   5.853  44.489  11.529
83277W        W51607  37.952  18.223  12.412
83278W        W51608   8.693   2.737   1.282
83279W        W51609  36.020   1.895  13.819
83280W        W51610  23.170   0.352   3.206
83281W        W51611  23.225   6.314   4.192
83282W        W51612  23.000  12.731  14.785
83283W        W51613  18.189   3.787  13.802
83284W        W51614  36.057  34.467   2.756
83285W        W51615  44.357   5.828   0.335
83286W        W51616  29.546  37.853  14.786
83287W        W51617  18.767  10.669   2.303
83288W        W51618  39.329  35.932  10.490
83289W        W51619  44.362   2.358   0.455
83290W        W51620  26.184  37.537   1.904
83291W        W51621  42.382  16.717   4.304
83292W        W51622  25.617  44.817   2.756
83293W        W51623  28.063  18.088  13.006
83294W        W51624  43.361  17.737  11.121
83295W        W51625   9.779   4.422  12.858
83296W        W51626  23.559  22.510  12.391
83297W        W51627  15.253  34.868   5.271
83298W        W51628  24.061  35.593  13.811
83299W        W51629  40.466   4.832  14.328
83300W        W51630   3.419  29.453  13.892
83301W        W51631  32.994  25.469   4.119
83302W        W51632  12.659   6.876  14.764
83303W        W51633   0.451  14.699   4.340
83304W        W51634   3.355  22.170  14.493
83305W        W51635  28.619   6.868  11.461
83306W        W51636  21.176  36.900   4.204
83307W        W51637  31.469  44.495  14.811
83308W        W51638  32.132  34.954   3.381
83309W        W51639  37.031  22.129   0.288
83310W        W51640  16.244  29.122  13.450
83311W        W51641  11.183  17.733   2.842
83312W        W51642  26.675  33.114  10.632
83313W        W51643  42.907   8.673  11.008
83314W        W51644  33.021  25.677   0.359
83315W        W51645  17.796  36.516   0.789
83316W        W51646   4.753   4.716   2.857
83317W        W51647  25.972  32.008  11.887
83318W        W51648  32.109  34.937   0.284
83319W        W51649  23.499  15.246   3.864
83320W        W51650  28.068  25.568  13.914
83321W        W51651  38.976  23.065  14.369
83322W        W51652   8.321  16.289   0.260
83323W        W51653  40.969  37.029   2.375
83324W        W51654  19.663  32.086  13.882
83325W        W51655  27.998  34.941  14.445
83326W        W51656  41.995  28.483  10.522
83327W        W51657   1.456  15.306   4.194
83328W        W51658   4.739   5.934   4.655
83329W        W51659  31.914  23.092  12.990
83330W        W51660   2.806  11.237   4.199
83331W        W51661   2.388  31.467   3.258
83332W        W51662   0.953  19.731  11.921
83333W        W51663  42.400  34.430   2.278
83334W        W51664  23.184  33.025   2.806
83335W        W51665   6.416  27.465   1.332
83336W        W51666  19.205  19.251  10.007
83337W        W51667  41.439  24.159  14.764
83338W        W51668  17.781  44.303   1.400
83339W        W51669  16.319  26.575   0.832
83340W        W51670  38.378  43.836   1.786
83341W        W51671   3.428   3.267  13.425
83342W        W51672  22.011   4.227   2.351
83343W        W51673   7.388  10.235   1.329
83344W        W51674  40.445   7.181   2.878
83345W        W51675  21.094  44.997  12.833
83346W        W51676  32.116  33.967   5.310
83347W        W51677  35.916  29.006  10.500
83348W        W51678  30.046  33.482   9.586
83349W        W51679  35.064  39.476  14.275
83350W        W51680   9.333  32.036   1.726
83351W        W51681  38.415  15.824  10.081
83352W        W51682  29.113  39.355   0.399
83353W        W51683  28.507   7.896   4.259
83354W        W51684   6.916   0.760  12.535
83355W        W51685  36.582   4.283  12.031
83356W        W51686   0.316  17.140   3.760
83357W        W51687  41.916   8.189  11.575
83358W        W51688  32.133  36.046  11.865
83359W        W51689  17.640  12.738   4.838
83360W        W51690  26.173   6.682  13.023
83361W        W51691  41.793   4.921   2.206
83362W        W51692   8.403  30.153   0.288
83363W        W51693  22.247   3.823  14.447
83364W        W51694  22.668  28.040  12.095
83365W        W51695   4.274  20.161  10.412
83366W        W51696  20.761   1.377  12.016
83367W        W51697   0.852  43.381  14.290
83368W        W51698   3.905  28.025  13.988
83369W        W51699  14.600   9.715   3.340
83370W        W51700  44.866  17.802  12.068
83371W        W51701  11.227   2.812   4.717
83372W        W51702  29.449  40.844   3.191
83373W        W51703  34.381  12.277   0.939
83374W        W51704  16.736  38.392  12.911
83375W        W51705  23.641  18.235   3.210
83376W        W51706  38.346  20.739  11.459
83377W        W51707  33.909  34.388  14.822
83378W        W51708  22.177   1.451   3.231
83379W        W51709  20.268  32.495  14.284
83380W        W51710  37.545   9.862  13.014
83381W        W51711   5.834  27.574   1.326
83382W        W51712  13.112  13.115  14.438
83383W        W51713   8.214  10.159   4.293
83384W        W51714  20.102   9.378   1.242
83385W        W51715   0.408  42.902   1.398
83386W        W51716  23.673  33.124  13.853
83387W        W51717   8.238  22.601   0.481
83388W        W51718  27.046  39.058   3.849
83389W        W51719  11.766  16.712   1.272
83390W        W51720  39.838   8.833  10.041
83391W        W51721  10.153  26.493  10.065
83392W        W51722  39.334  21.251   4.165
83393W        W51723  22.685  25.996   3.326
83394W        W51724  32.416   2.462  11.468
83395W        W51725  31.018  32.989  11.866
83396W        W51726   2.254  19.706   0.902
83397W        W51727  18.095  21.574  12.885
83398W        W51728   9.202  11.809  14.456
83399W        W51729  27.016  39.489   4.605
83400W        W51730  39.390   0.335  14.010
83401W        W51731  16.182  43.323   2.187
83402W        W51732  17.696   5.724   4.806
83403W        W51733  12.693  33.469  12.988
83404W        W51734   9.207  18.063  11.392
83405W        W51735  28.158  20.651   0.772
83406W        W51736   0.426  42.527  12.055
83407W        W51737  11.814  43.363   0.816
83408W        W51738  19.268  37.075  11.128
83409W        W51739  22.694  30.425  12.883
83410W        W51740  18.762  44.814  11.004
83411W        W51741  30.558  19.548   2.793
83412W        W51742  25.707  43.948  14.462
83413W        W51743  24.583  15.154   2.241
83414W        W51744   6.762  37.472   2.369
83415W        W51745  17.771  23.082  12.834
83416W        W51746  21.032  40.472  14.358
83417W        W51747  24.710  27.951  10.607
83418W        W51748  33.906  16.124  11.077
83419W        W51749  24.135  23.082  13.488
83420W        W51750  24.065  13.281   0.258
83421W        W51751  40.908  17.558   4.226
83422W        W51752  32.560  35.489   2.390
83423W        W51753   0.830   6.404   0.885
83424W        W51754  25.216  28.126   1.922
83425W        W51755  41.303  14.182  13.802
83426W        W51756   5.293  22.692   3.378
83427W        W51757  39.993  28.116   0.472
83428W        W51758  21.640  21.571  10.594
83429W        W51759  20.630   7.857  12.896
83430W        W51760  43.334  16.302  12.945
83431W        W51761  19.152  19.160   3.856
83432W        W51762   1.366  17.137   2.799
83433W        W51763  44.813  11.772  11.997
83434W        W51764  42.424   6.814  10.466
83435W        W51765  36.537  35.951   2.355
83436W        W51766  41.472  27.643   2.888
83437W        W51767  28.475  24.621   1.771
83438W        W51768  41.031  42.520  14.480
83439W        W51769  30.523  33.044   2.337
83440W        W51770  34.966  28.019   3.709
83441W        W51771  22.698  14.270   4.209
83442W        W51772   3.891   9.184  13.384
83443W        W51773  17.621  41.951  11.387
83444W        W51774   8.391  29.667  14.425
83445W        W51775  36.041  31.002  13.333
83446W        W51776  13.246  33.441  10.047
83447W        W51777   7.358   2.265  13.945
83448W        W51778  23.664  22.237  14.985
83449W        W51779  23.620  18.131   3.847
83450W        W51780  10.852   0.319   0.449
83451W        W51781  18.157  24.120   0.849
83452W        W51782   9.673  16.118   1.239
83453W        W51783  26.990  14.123  14.963
83454W        W51784  38.508  19.772  13.494
83455W        W51785  18.206  24.992  11.544
83456W        W51786   9.207  44.327  10.888
83457W        W51787  42.993  26.579  13.532
83458W        W51788  29.973  14.783   3.338
83459W        W51789  31.004   8.812  12.831
83460W        W51790  16.301   4.367   0.425
83461W        W51791   6.847  21.205  10.891
83462W        W51792   2.436   3.917   4.189
83463W        W51793   4.812   3.813  11.449
83464W        W51794  30.549   0.389   1.226
83465W        W51795   4.246  31.610  13.989
83466W        W51796  31.104  25.001  14.765
83467W        W51797  28.994  40.367   0.923
83468W        W51798  18.086  14.632  12.405
83469W        W51799   7.699  13.218   0.859
83470W        W51800  28.544   2.733  12.389
83471W        W51801  18.553  19.279   3.177
83472W        W51802  31.573  21.608  13.836
83473W        W51803   8.298  13.348  14.354
83474W        W51804  27.957  11.770   3.354
83475W        W51805  21.029   9.344   0.828
83476W        W51806  36.868  25.680   3.732
83477W        W51807  27.183   7.206  11.101
83478W        W51808  11.680  24.638  11.395
83479W        W51809  19.618   5.299   4.738
83480W        W51810   9.168  37.834  10.418
83481W        W51811  30.469   6.404  13.924
83482W        W51812   3.852  35.924   9.998
83483W        W51813  24.990  31.048  13.395
83484W        W51814   2.291  21.120   4.704
83485W        W51815  27.997  16.102   2.248
83486W        W51816  44.886  23.060  12.875
83487W        W51817  27.452  35.931   2.215
83488W        W51818  43.921   1.882  14.294
83489W        W51819   0.275  35.376  12.044
83490W        W51820  18.556  21.233   4.645
83491W        W51821  31.426  35.580   3.234
83492W        W51822  42.382  37.921   2.897
83493W        W51823  40.515  33.043   0.761
83494W        W51824  27.638  36.592   0.400
83495W        W51825  25.004  38.371  10.445
83496W        W51826  26.024   3.817  11.462
83497W        W51827  14.236  37.005  14.407
83498W        W51828  42.951  40.812   1.746
83499W        W51829  26.662   2.275   2.246
83500W        W51830  14.333  39.938   1.445
83501W        W51831  36.844   1.305  14.338
83502W        W51832  31.996  30.583  10.988
83503W        W51833  12.655  35.052   1.396
83504W        W51834  42.480   9.830   0.876
83505W        W51835  32.100  34.887   4.166
83506W        W51836  38.969  34.609   4.310
83507W        W51837  37.971  24.603   2.306
83508W        W51838  17.668  32.016   5.307
83509W        W51839   5.720  30.960   1.792
83510W        W51840  27.471  30.422  10.539
83511W        W51841  41.038   2.428   4.771
83512W        W51842  30.922  38.433  12.056
83513W        W51843  16.212   3.426  11.867
83514W        W51844  18.178   7.269  12.551
83515W        W51845  21.110   1.762   0.453
83516W        W51846  18.592  43.984  14.867
83517W        W51847   1.483  31.425   3.193
83518W        W51848  29.574   7.204   5.284
83519W        W51849   2.901  37.358  14.930
83520W        W51850  42.784  21.073   3.687
83521W        W51851  38.374  39.894   4.157
83522W        W51852  24.181  31.139  11.529
83523W        W51853  22.683  25.193   1.363
83524W        W51854  41.347  27.114  14.449
83525W        W51855  40.964   7.194   4.296
83526W        W51856  29.617  22.585  14.000
83527W        W51857  38.387  30.059   4.606
83528W        W51858  43.477  28.609   1.744
83529W        W51859  22.140  11.687  12.391
83530W        W51860   2.792  38.459   0.369
83531W        W51861  38.885  16.298  14.328
83532W        W51862  28.499  26.202  12.834
83533W        W51863  38.505  20.178  11.050
83534W        W51864  30.456   5.779   3.386
83535W        W51865  15.278  25.155   4.636
83536W        W51866  30.446  25.553  10.919
83537W        W51867  27.555   9.748   2.735
83538W        W51868   1.862  24.986  12.574
83539W        W51869  12.265  43.967  11.490
83540W        W51870  26.666  39.394  14.847
83541W        W51871  14.691   2.755   3.179
83542W        W51872  20.652  40.487  11.962
83543W        W51873  11.298  32.568  12.472
83544W        W51874  28.522   2.401  11.601
83545W        W51875  12.720  37.402   2.353
83546W        W51876  37.055  13.284   2.808
83547W        W51877  32.623  28.133  13.542
83548W        W51878  23.595   9.235  13.004
83549W        W51879  12.351   1.808  11.601
83550W        W51880   7.269   3.262   4.212
83551W        W51881  44.401   3.737  14.818
83552W        W51882  33.615  19.622  13.541
83553W        W51883  29.099  18.064  14.954
83554W        W51884  36.544  13.790   0.343
83555W        W51885  16.219  16.228   3.716
83556W        W51886  29.150   7.729   1.733
83557W        W51887  38.051  18.108  13.042
83558W        W51888  10.349  43.477   2.302
83559W        W51889  13.296   8.366  11.605
83560W        W51890  24.998   7.683   0.738
83561W        W51891  34.103   2.328   4.323
83562W        W51892  21.091  38.333   4.346
83563W        W51893  20.091  29.642  11.579
83564W        W51894  20.698  27.165  12.445
83565W        W51895   0.823  16.617   1.901
83566W        W51896   2.836  28.438  12.437
83567W        W51897  34.907  40.012  13.883
83568W        W51898   7.715  43.411  13.493
83569W        W51899  12.155  37.890   0.247
83570W        W51900  24.014  40.382   5.241
83571W        W51901  41.792  42.884  11.110
83572W        W51902   3.310  39.511   4.777
83573W        W51903  12.816  24.126   3.849
83574W        W51904  31.523  43.351   0.440
83575W        W51905  43.873  39.858   1.852
83576W        W51906  21.260  33.504   1.725
83577W        W51907  30.608  36.377   1.332
83578W        W51908  38.857  36.896   1.429
83579W        W51909  17.567  19.609  10.902
83580W        W51910  21.572   8.163   1.438
83581W        W51911  36.980  30.597   3.642
83582W        W51912  25.593  40.044  14.904
83583W        W51913  37.059  29.008  11.102
83584W        W51914  11.316  29.032  12.407
83585W        W51915  41.900  27.664  13.828
83586W        W51916  29.108  17.624   3.362
83587W        W51917  29.082  34.565  13.025
83588W        W51918  26.564  22.568  13.468
83589W        W51919  38.451  37.069  14.513
83590W        W51920  31.997  36.511  12.542
83591W        W51921  19.774  15.232  14.984
83592W        W51922  33.989  29.923   4.183
83593W        W51923  39.975  19.232   1.433
83594W        W51924  33.510  17.640  12.870
83595W        W51925  33.589  26.993  13.545
83596W        W51926  31.598  20.569  11.573
83597W        W51927  38.956  13.762   2.386
83598W        W51928  39.450  24.709  11.386
83599W        W51929  30.098  34.464  10.468
83600W        W51930   7.227  26.474  11.594
83601W        W51931  32.947  24.611  12.852
83602W        W51932  16.621  28.446  11.377
83603W        W51933  19.575  23.542  12.038
83604W        W51934  17.591  44.367  12.078
83605W        W51935  36.914   8.704   4.353
83606W        W51936  41.813  41.013   1.413
83607W        W51937  31.083   3.793   4.237
83608W        W51938  12.807  28.449  12.498
83609W        W51939  24.567  33.403  11.521
83610W        W51940  17.215   0.885   3.802
83611W        W51941  18.717  29.502  12.031
83612W        W51942  30.563  21.752   0.380
83613W        W51943  28.646   7.339   1.745
83614W        W51944  32.443  17.784  12.558
83615W        W51945  43.905  29.157  13.441
83616W        W51946   9.739  17.605   4.814
83617W        W51947  23.600  35.562   4.140
83618W        W51948  20.574  31.985   4.730
83619W        W51949  40.967  14.619  13.533
83620W        W51950  37.022  11.245  10.893
83621W        W51951  35.040  30.936  11.018
83622W        W51952   7.718  31.502  12.378
83623W        W51953  28.944   2.412  10.411
83624W        W51954  44.758   9.701   3.706
83625W        W51955  14.340  23.659  14.824
83626W        W51956  42.899  22.116   1.405
83627W        W51957  39.921  15.118   2.282
83628W        W51958  44.405  44.884   3.834
83629W        W51959  20.574   9.726   0.863
83630W        W51960  23.693  11.846  11.870
83631W        W51961  19.653  31.574   3.792
83632W        W51962  10.639  11.281   1.391
83633W        W51963   4.917  40.042  14.015
83634W        W51964   6.226  10.858   1.714
83635W        W51965  12.325  12.147   2.789
83636W        W51966  14.336  28.003  10.633
83637W        W51967  26.994  44.480  12.368
83638W        W51968  12.284  24.078   4.178
83639W        W51969  22.166  29.496   4.602
83640W        W51970  29.492   9.389   3.651
83641W        W51971  40.435  20.653   1.279
83642W        W51972  29.033  17.625  11.515
83643W        W51973  12.198  28.942   2.857
83644W        W51974   0.845   7.178  14.780
83645W        W51975  26.655  21.121  12.553
83646W        W51976  17.284  38.823   3.354
83647W        W51977  20.274   5.317  13.840
83648W        W51978   4.276  19.217  14.856
83649W        W51979   2.355  12.850   3.662
83650W        W51980  29.932  44.385  13.532
83651W        W51981   3.917  36.852  11.462
83652W        W51982   5.304   7.669  13.463
83653W        W51983  21.204   4.320  13.424
83654W        W51984  22.706  21.191  10.950
83655W        W51985  31.489  21.620   1.370
83656W        W51986  42.328   3.332   1.884
83657W        W51987  42.302  19.243   2.840
83658W        W51988  21.582   5.295   4.615
83659W        W51989  34.590  41.304  11.379
83660W        W51990   0.441   6.706   0.901
83661W        W51991  13.765  37.350   4.149
83662W        W51992  14.212   6.296   3.776
83663W        W51993  39.905  33.972  11.393
83664W        W51994  22.018  24.544   1.768
83665W        W51995  21.114  29.115  13.014
83666W        W51996  39.371  24.977  13.508
83667W        W51997  14.726   8.849   2.338
83668W        W51998  11.828  33.921  11.433
83669W        W51999  25.001  26.615   2.180
83670W        W52000  35.093  35.885  14.808
83671W        W52001  39.354  28.561   4.328
83672W        W52002   2.446  37.911   4.803
83673W        W52003  14.178   1.311   0.769
83674W        W52004   6.755  16.248   4.124
83675W        W52005  23.732  41.954   2.246
83676W        W52006  14.756  38.879  13.534
83677W        W52007   9.659  19.628  11.084
83678W        W52008   1.969  28.038   4.760
83679W        W52009   8.691  38.453  14.473
83680W        W52010  30.995   5.411  11.992
83681W        W52011  20.729  34.492   4.346
83682W        W52012   6.231  19.046   2.255
83683W        W52013  24.199   4.788   2.383
83684W        W52014  17.709  44.397   1.746
83685W        W52015  39.337  16.145   4.176
83686W        W52016  19.612  41.802  13.953
83687W        W52017   0.255  17.265  11.600
83688W        W52018  16.689  25.558   9.482
83689W        W52019  17.749  17.228  10.913
83690W        W52020  43.470  35.934  10.938
83691W        W52021  18.606  27.452  10.430
83692W        W52022  31.554  35.500   2.353
83693W        W52023   5.821  43.997  11.421
83694W        W52024  21.020  13.633  12.057
83695W        W52025  24.088   8.735  14.921
83696W        W52026  39.895  11.670  12.030
83697W        W52027  14.294  13.834   1.417
83698W        W52028  27.072  35.592   1.814
83699W        W52029  25.058   1.482   3.741
83700W        W52030  41.894   0.307  14.318
83701W        W52031  39.416  19.613   0.259
83702W        W52032  33.890  19.602  13.046
83703W        W52033  18.561  18.567  10.909
83704W        W52034  31.914  15.096  13.386
83705W        W52035  12.334  38.502  13.054
83706W        W52036  31.621  22.525  11.591
83707W        W52037   4.417  24.222  13.018
83708W        W52038  21.176   3.792   0.331
83709W        W52039  23.130  38.939  10.922
83710W        W52040  13.718  17.796  11.122
83711W        W52041  33.964   9.885   2.307
83712W        W52042  28.511  19.720   2.350
83713W        W52043  28.440  41.875   2.237
83714W        W52044  40.390  37.883  13.457
83715W        W52045   0.857  36.913  14.787
83716W        W52046  38.415  11.329  10.506
83717W        W52047  34.508  39.884  14.475
83718W        W52048  38.340  28.936   2.366
83719W        W52049   9.156  19.081  13.877
83720W        W52050  31.415  29.053  11.899
83721W        W52051  31.402   1.923   4.225
83722W        W52052  24.012  10.311  11.571
83723W        W52053   5.241  32.428   1.778
83724W        W52054  37.901  21.627   3.725
83725W        W52055  24.137   4.307  14.429
83726W        W52056   9.786  37.568   3.284
83727W        W52057   2.722  25.487  13.416
83728W        W52058   3.812   7.320  12.016
83729W        W52059   2.372  36.505  14.019
83730W        W52060  33.502   8.713  12.891
83731W        W52061  19.707   6.307   4.343
83732W        W52062   8.325  37.076  12.434
83733W        W52063  28.981  22.704  11.552
83734W        W52064   7.323  21.206   3.771
83735W        W52065  40.816  30.955  11.610
83736W        W52066  25.713  25.125  11.969
83737W        W52067  33.407   9.825  10.995
83738W        W52068  44.976   5.261  11.945
83739W        W52069  24.593  12.616   2.885
83740W        W52070   0.978  18.139  13.350
83741W        W52071  16.791   3.843  13.803
83742W        W52072  44.919  21.751   2.311
83743W        W52073  41.865   9.644   1.827
83744W        W52074  37.415  24.650   0.806
83745W        W52075  14.704   3.740   1.758
83746W        W52076  42.343   3.884  13.335
83747W        W52077  34.495   0.490   1.798
83748W        W52078  39.917  26.201  14.028
83749W        W52079  13.282  30.030  13.392
83750W        W52080  12.623  43.985  11.415
83751W        W52081  37.454  17.719   1.743
83752W        W52082   9.743  31.445   4.817
83753W        W52083  28.657  20.059   4.228
83754W        W52084  22.092   5.290   3.663
83755W        W52085  26.961  29.043   3.241
83756W        W52086  17.746  39.950   3.161
83757W        W52087  16.141  19.580  12.824
83758W        W52088  13.231   1.852   2.276
83759W        W52089  12.617  39.425   1.892
83760W        W52090   8.826  22.163  14.276
83761W        W52091  40.478  28.056  11.071
83762W        W52092   3.297  11.319  13.994
83763W        W52093   5.227  24.213  14.409
83764W        W52094   7.274  18.578   3.694
83765W        W52095  15.240  28.517  13.953
83766W        W52096   6.849  24.672  10.560
83767W        W52097   8.770  10.680  13.436
83768W        W52098  21.119  12.213  11.948
83769W        W52099  26.155  41.419   1.212
83770W        W52100   7.278  23.210  10.997
83771W        W52101  14.797  24.678  13.406
83772W        W52102  34.389   5.396   4.166
83773W        W52103  32.130  42.970   2.844
83774W        W52104  38.866   6.254  13.872
83775W        W52105  35.915  41.035   2.839
83776W        W52106  13.741   5.417   3.312
83777W        W52107   4.329  39.368   4.274
83778W        W52108   2.920  18.230   4.314
83779W        W52109  31.416  35.563   4.652
83780W        W52110  22.501  41.473  10.046
83781W        W52111   9.849  28.440  13.818
83782W        W52112   4.922  24.061   2.197
83783W        W52113  26.093  25.170  14.813
83784W        W52114  16.175  13.796   0.907
83785W        W52115  20.185  35.038  13.825
83786W        W52116   2.298  10.293   0.901
83787W        W52117   5.860   7.885   1.302
83788W        W52118  35.360  33.524   4.134
83789W        W52119  21.150  44.811   4.750
83790W        W52120   3.215   5.781  10.457
83791W        W52121  29.994  31.997   3.385
83792W        W52122  17.155  28.594  11.956
83793W        W52123   2.226  25.683  10.952
83794W        W52124  33.446  41.925   3.752
83795W        W52125   3.408  41.327   3.863
83796W        W52126  38.033   6.276  12.963
83797W        W52127  15.807  35.424  11.959
83798W        W52128   0.406   8.186   0.919
83799W        W52129  16.614  15.667  10.945
83800W        W52130  12.199  19.214  13.874
83801W        W52131  14.644  36.978  12.828
83802W        W52132  38.514  30.604   1.830
83803W        W52133  37.854  38.550   2.388
83804W        W52134  10.357   8.340  11.527
83805W        W52135   5.691  44.483  14.785
83806W        W52136  21.162  28.177   2.403
83807W        W52137  23.232  42.995  13.367
83808W        W52138   0.982  37.074  11.939
83809W        W52139   1.332   7.760  14.283
83810W        W52140   1.452   8.710   3.793
83811W        W52141   3.287  43.007   4.720
83812W        W52142  11.831   7.350  10.457
83813W        W52143   2.385  12.347  12.353
83814W        W52144  16.600  41.426   0.793
83815W        W52145  29.459  44.946   3.203
83816W        W52146  38.033  35.983  13.064
83817W        W52147   0.821  17.135   4.613
83818W        W52148  11.185  33.943   4.254
83819W        W52149  30.086  23.113  13.450
83820W        W52150  11.722   3.394  11.093
83821W        W52151   7.850  15.277   0.397
83822W        W52152  38.395  27.027   3.310
83823W        W52153  43.509  39.353   0.892
83824W        W52154  27.112  22.101  13.401
83825W        W52155  31.927   1.820  12.356
83826W        W52156  36.930  13.677  12.900
83827W        W52157  36.396  33.417  14.979
83828W        W52158   8.666  11.203   3.781
83829W        W52159  41.910  32.956   2.326
83830W        W52160  20.063   3.352  11.475
83831W        W52161  44.438  42.898   0.260
83832W        W52162  43.376  15.312  12.077
83833W        W52163   4.425  44.894   2.356
83834W        W52164  28.673  39.916  11.521
83835W        W52165  23.087  35.418   2.322
83836W        W52166  33.115  15.724   2.738
83837W        W52167  29.516  41.480  14.022
83838W        W52168   0.399  12.125   4.782
83839W        W52169  13.198  16.091  10.492
83840W        W52170  14.129  44.412   1.803
83841W        W52171   1.823  35.488  12.889
83842W        W52172  22.725  28.499   0.338
83843W        W52173  42.327   6.766   1.344
83844W        W52174  16.177  33.091  14.845
83845W        W52175  40.822  21.612  13.405
83846W        W52176   6.863  22.151  11.964
83847W        W52177  39.489  39.505  14.290
83848W        W52178  11.771  16.194  11.460
83849W        W52179  27.970  20.662  10.897
83850W        W52180  15.198  24.099  10.509
83851W        W52181  21.223  29.143   4.343
83852W        W52182  24.022  32.416   1.869
83853W        W52183  40.318  10.785   1.886
83854W        W52184  23.624  13.805  12.989
83855W        W52185  21.645  24.536   3.644
83856W        W52186  15.706  28.959   2.719
83857W        W52187  44.470   1.916   2.197
83858W        W52188  44.422   1.929  11.127
83859W        W52189  29.068   8.853  14.503
83860W        W52190  15.267  22.621  11.031
83861W        W52191  44.991  41.448   2.318
83862W        W52192  27.473  44.963  11.563
83863W        W52193  26.684   1.913  14.828
83864W        W52194  31.416  35.382  14.893
83865W        W52195  10.711  26.062  11.483
83866W        W52196  23.040  21.263   2.883
83867W        W52197   1.746  34.597   4.676
83868W        W52198  23.131   9.375  10.516
83869W        W52199   2.839  38.399   2.308
83870W        W52200  25.606  12.720  12.456
83871W        W52201  16.235  20.137  10.628
83872W        W52202  27.942  26.107   4.647
83873W        W52203  22.561  33.486  13.046
83874W        W52204  21.513  16.300   4.697
83875W        W52205   1.786  33.108  13.400
83876W        W52206  42.509  21.175  12.025
83877W        W52207  28.482   5.238   4.158
83878W        W52208   3.901  14.798  11.941
83879W        W52209  37.427  44.994   4.653
83880W        W52210  22.006  21.176   2.203
83881W        W52211  33.113  13.830  14.779
83882W        W52212  20.753   3.765  12.875
83883W        W52213  28.492  15.653   2.828
83884W        W52214  26.130  14.222  10.978
83885W        W52215  23.179   7.766  14.513
83886W        W52216  14.172   4.326  12.935
83887W        W52217  38.355  34.515   1.800
83888W        W52218  15.823   3.246   1.223
83889W        W52219  24.981  30.537   2.232
83890W        W52220  36.091  28.123   3.823
83891W        W52221  36.369  30.147   2.357
83892W        W52222  34.522  16.095   4.323
83893W        W52223  42.790   8.260  10.635
83894W        W52224  42.512  31.505   0.931
83895W        W52225  27.505  34.943  14.923
83896W        W52226  33.912  37.449  13.880
83897W        W52227  20.668  29.530   3.740
83898W        W52228  18.721   8.394   4.162
83899W        W52229   3.339  12.700   2.409
83900W        W52230  29.540   1.832  11.979
83901W        W52231  36.084  22.707  12.084
83902W        W52232  25.084   3.333   4.218
83903W        W52233  26.003  37.925  14.029
83904W        W52234   7.408  23.132   4.305
83905W        W52235   1.433   8.699  13.534
83906W        W52236  34.592  36.979   2.673
83907W        W52237  37.890  24.177  14.830
83908W        W52238  33.097  22.059  11.875
83909W        W52239  23.155  43.484  11.981
83910W        W52240  25.207  13.623  11.378
83911W        W52241   2.448  19.188  13.398
83912W        W52242   6.209  39.537   2.692
83913W        W52243  29.095  18.727   4.740
83914W        W52244  16.228  23.995   4.184
83915W        W52245  13.311  29.149  12.852
83916W        W52246  38.428  17.756  10.934
83917W        W52247   0.253   0.403  11.053
83918W        W52248  17.181  22.114   0.335
83919W        W52249   8.170  37.424   0.825
83920W        W52250  28.089  44.934   2.187
83921W        W52251   5.222  39.006   4.822
83922W        W52252   8.365   6.222  12.005
83923W        W52253  39.981  22.098  11.383
83924W        W52254  33.024  36.553   1.711
83925W        W52255  44.482  11.237   4.178
83926W        W52256  37.001   4.845  13.061
83927W        W52257  26.047  16.278  10.923
83928W        W52258   7.287   7.789   3.162
83929W        W52259  41.521  40.336  13.827
83930W        W52260  15.207   1.833   4.659
83931W        W52261   7.245  20.115   0.264
83932W        W52262  43.507  37.435  14.336
83933W        W52263  11.682   7.285   4.155
83934W        W52264  20.186  29.508  13.433
83935W        W52265  38.821  29.473  11.918
83936W        W52266  35.419  41.339  11.456
83937W        W52267  24.047  30.001  10.590
83938W        W52268  34.506   6.686  10.637
83939W        W52269  34.430  26.208  11.004
83940W        W52270  33.948  44.884  10.449
83941W        W52271   0.249  16.722  12.037
83942W        W52272  16.610   9.367  12.463
83943W        W52273  35.571  30.010   2.768
83944W        W52274   6.744   6.376  14.355
83945W        W52275  12.626  42.526   1.830
83946W        W52276  31.554  30.128   3.850
83947W        W52277  42.479  14.259   0.794
83948W        W52278  22.648  44.819  14.456
83949W        W52279   3.378  42.908   1.346
83950W        W52280  35.080  32.994   2.789
83951W        W52281  37.022  34.955  13.855
83952W        W52282  19.716  14.691  13.519
83953W        W52283  43.335  12.796  14.383
83954W        W52284  22.178  14.675  13.522
83955W        W52285  30.057  38.423  14.929
83956W        W52286  22.162  28.582   4.721
83957W        W52287  26.582  31.534   4.724
83958W        W52288   0.936  37.004  12.352
83959W        W52289  12.711  29.033   0.273
83960W        W52290  30.578   6.822  11.563
83961W        W52291  43.771  35.460  11.588
83962W        W52292  26.158  38.037   4.148
83963W        W52293  18.685   9.392   0.925
83964W        W52294   8.174  29.979   2.362
83965W        W52295   7.880  21.258   0.444
83966W        W52296  28.656  32.394  10.486
83967W        W52297  31.482  36.981  13.324
83968W        W52298  13.175  44.913   1.235
83969W        W52299  30.639  21.031   2.792
83970W        W52300   2.446  39.322  13.389
83971W        W52301  30.451  14.701   0.940
83972W        W52302  12.850   1.965  11.009
83973W        W52303  18.065  43.275   1.918
83974W        W52304  34.089  35.387   1.901
83975W        W52305  14.293  16.293  12.459
83976W        W52306  38.027  12.183   2.267
83977W        W52307   9.220  21.613  13.878
83978W        W52308  16.083  29.133   0.307
83979W        W52309  17.645  14.762  10.633
83980W        W52310   8.684  22.138  14.943
83981W        W52311  43.817  28.168   1.289
83982W        W52312  28.550  28.942   3.821
83983W        W52313  28.976  33.057  14.018
83984W        W52314   7.194  27.648   0.767
83985W        W52315   5.738  38.339   3.343
83986W        W52316  39.897  28.661  14.812
83987W        W52317  32.536  35.954  13.323
83988W        W52318  16.219  11.737  14.937
83989W        W52319  29.062  44.409   2.863
83990W        W52320  26.181  41.837  14.441
83991W        W52321   7.397  41.951   2.243
83992W        W52322   3.228  24.630   0.273
83993W        W52323  26.577   2.388  13.057
83994W        W52324  20.133   2.350   2.292
83995W        W52325  15.642  33.504   4.135
83996W        W52326   3.882   1.336  12.826
83997W        W52327  13.181  30.636   1.793
83998W        W52328  16.288  15.748  12.083
83999W        W52329  43.295  36.593  12.876
84000W        W52330   4.785  26.579  14.816
84001W        W52331  37.502   3.350   1.714
84002W        W52332  28.981  12.851  13.887
84003W        W52333  19.551  33.041   3.656
84004W        W52334  15.125  10.673   4.117
84005W        W52335  14.153   1.879  14.019
84006W        W52336  32.018   0.959   4.709
84007W        W52337  11.308  23.490   3.356
84008W        W52338  11.788  37.448  13.839
84009W        W52339  42.005  18.071  14.013
84010W        W52340  28.055  21.041   3.377
84011W        W52341  28.951  31.494  13.861
84012W        W52342   9.805   4.336  12.010
84013W        W52343  32.087  39.955   1.438
84014W        W52344  29.557  11.656  11.593
84015W        W52345  35.038  41.448  10.558
84016W        W52346  31.060  40.541  11.040
84017W        W52347  22.579   9.186  12.851
84018W        W52348   1.316  16.685   1.248
84019W        W52349  40.336  41.835  13.034
84020W        W52350  28.029  27.586  14.304
84021W        W52351  30.452   8.669   3.741
84022W        W52352  36.354  18.654  13.832
84023W        W52353   2.912   0.820  10.616
84024W        W52354  36.489  30.445  12.477
84025W        W52355  15.130  28.450  12.399
84026W        W52356  19.744   4.741  13.395
84027W        W52357  25.528  42.803  13.518
84028W        W52358  12.129  30.099   0.956
84029W        W52359  23.513  32.578   0.366
84030W        W52360  44.480  13.196  13.878
84031W        W52361  28.150  28.052   1.802
84032W        W52362  23.182  24.701  11.400
84033W        W52363   6.718  29.629   0.764
84034W        W52364  12.784  15.769  13.376
84035W        W52365  17.240  23.123  14.339
84036W        W52366  33.006  18.787  13.344
84037W        W52367  42.822   0.952   0.391
84038W        W52368  31.618  43.964   0.427
84039W        W52369  25.634  29.427  11.503
84040W        W52370  15.625  17.715  11.442
84041W        W52371  44.346   6.307  10.512
84042W        W52372  23.621  32.484   0.929
84043W        W52373  18.777  14.161  14.493
84044W        W52374  23.016   2.427  14.479
84045W        W52375  29.004  22.065  13.925
84046W        W52376  15.156  14.207   1.914
84047W        W52377  28.658  12.221  11.571
84048W        W52378  38.068  11.255  12.911
84049W        W52379  11.846  41.523  10.122
84050W        W52380  30.514  26.564   0.409
84051W        W52381  22.696  16.771   4.811
84052W        W52382  33.507  21.055  14.375
84053W        W52383   9.816  36.518  13.373
84054W        W52384  19.754  34.460  13.350
84055W        W52385  44.273  42.480   1.819
84056W        W52386  24.022  25.176  11.498
84057W        W52387   1.483   1.306   4.680
84058W        W52388   9.850   8.802  12.967
84059W        W52389  25.058  13.640   2.332
84060W        W52390  23.728  30.100  14.380
84061W        W52391   8.843  26.167   4.765
84062W        W52392  40.917   2.870   2.259
84063W        W52393  38.973  35.904  11.110
84064W        W52394   6.369  38.918   4.759
84065W        W52395  41.491  10.638   0.784
84066W        W52396  20.207  19.127   1.405
84067W        W52397   3.260  27.457  10.914
84068W        W52398  32.060  20.522  12.359
84069W        W52399   4.745  43.502   5.201
84070W        W52400  28.435  41.379  10.901
84071W        W52401  28.111   7.868   1.437
84072W        W52402  39.327  38.551  10.515
84073W        W52403   3.725  14.620  14.384
84074W        W52404   1.750  18.760   3.266
84075W        W52405   9.779  40.881   4.757
84076W        W52406  27.526  41.389   3.173
84077W        W52407  29.519  30.040  10.585
84078W        W52408  19.264  40.386   4.349
84079W        W52409   9.882  33.096   3.821
84080W        W52410   7.880  23.090   2.720
84081W        W52411  38.519  43.792  10.946
84082W        W52412  30.085   4.732   0.393
84083W        W52413  35.506  34.372   0.462
84084W        W52414  35.561  20.523   2.344
84085W        W52415  38.559  16.104   1.824
84086W        W52416  10.726   6.804   1.759
84087W        W52417  16.658  23.233  11.535
84088W        W52418   5.851   1.282  13.890
84089W        W52419  18.723  24.221  14.281
84090W        W52420  18.163   0.350  11.476
84091W        W52421   1.277  17.590  12.438
84092W        W52422   7.348  37.850  11.383
84093W        W52423  26.599  38.848   3.182
84094W        W52424  28.564   9.749  14.418
84095W        W52425  20.600  11.173  11.611
84096W        W52426   3.882  23.641   4.155
84097W        W52427  17.751  37.464  14.413
84098W        W52428  11.299  13.685   1.844
84099W        W52429  15.327  13.697   3.172
84100W        W52430  25.493  33.556  13.843
84101W        W52431   7.380  16.630   3.168
84102W        W52432  14.757  41.306  14.386
84103W        W52433  22.581  35.960  12.034
84104W        W52434  20.697  44.792   1.355
84105W        W52435  30.478  19.689  10.115
84106W        W52436  33.951  24.516   1.846
84107W        W52437   9.879  38.485   0.965
84108W        W52438  24.649  14.321   4.814
84109W        W52439   2.242  19.178   2.197
84110W        W52440  22.524  22.517   1.808
84111W        W52441  15.743  16.614   4.239
84112W        W52442  30.576   5.275   4.776
84113W        W52443  43.999  19.208  13.404
84114W        W52444  33.438  26.678  13.025
84115W        W52445   6.215   1.960  12.940
84116W        W52446  24.507  21.184   0.275
84117W        W52447  37.435  25.990  13.999
84118W        W52448  35.448  24.688  10.503
84119W        W52449  43.773  34.487   1.365
84120W        W52450  37.563   1.443  11.970
84121W        W52451  33.955  37.485   2.834
84122W        W52452  35.475  20.718   1.880
84123W        W52453   7.343  33.000   2.406
84124W        W52454   1.797  36.529   3.376
84125W        W52455  22.604  40.905   1.324
84126W        W52456  14.124  10.794   2.266
84127W        W52457  19.190  17.256  13.039
84128W        W52458   2.470  19.117   1.376
84129W        W52459   4.784  34.475   1.419
84130W        W52460  12.773  15.160  13.364
84131W        W52461  12.760  14.320   4.672
84132W        W52462   6.277  31.025  10.580
84133W        W52463  21.616  41.363  13.384
84134W        W52464  40.507  17.238  12.520
84135W        W52465  38.358  23.608   3.200
84136W        W52466  32.422  15.809  12.038
84137W        W52467  22.138  25.685   0.413
84138W        W52468  17.664  37.336  10.416
84139W        W52469   7.189   6.397   3.327
84140W        W52470   6.812  16.602  13.027
84141W        W52471  14.162   2.298   0.320
84142W        W52472  34.912  40.320  13.056
84143W        W52473   1.903  14.590   2.199
84144W        W52474   6.274  41.326  12.889
84145W        W52475  41.012   8.836  10.549
84146W        W52476  11.722  42.028  13.536
84147W        W52477  36.520  12.684   4.761
84148W        W52478  38.024  17.209  10.932
84149W        W52479  24.002  36.999   0.299
84150W        W52480  22.519  37.573  14.483
84151W        W52481  31.991  24.093  12.976
84152W        W52482  41.941   8.879  14.801
84153W        W52483  40.019  16.797  11.921
84154W        W52484  18.747  29.497   2.842
84155W        W52485  30.940  18.786  14.914
84156W        W52486  26.019  24.538  14.421
84157W        W52487  14.267  21.053  14.022
84158W        W52488  20.266  13.621  13.433
84159W        W52489  15.239   1.899   1.420
84160W        W52490  26.654  16.073   0.885
84161W        W52491  14.208   5.288   3.739
84162W        W52492  24.075  18.752  11.022
84163W        W52493  39.362  31.628  12.973
84164W        W52494  12.336  42.865   0.359
84165W        W52495  11.639  23.005   4.116
84166W        W52496   4.713   5.846   1.804
84167W        W52497  38.046  40.044   3.354
84168W        W52498  29.529  20.644  12.491
84169W        W52499  42.016  29.662   0.334
84170W        W52500  16.305  30.457   4.791
84171W        W52501  26.483  19.154   3.869
84172W        W52502  44.753   4.749  12.449
84173W        W52503  38.361   7.829  11.442
84174W        W52504  44.820  30.959  11.019
84175W        W52505  17.227  27.988   3.630
84176W        W52506  26.538  38.538  12.845
84177W        W52507  42.422  43.502  14.412
84178W        W52508  10.752   9.151  13.358
84179W        W52509  38.357  23.224  11.496
84180W        W52510  29.078  12.295   1.336
84181W        W52511  38.363  36.950   4.713
84182W        W52512   9.187  38.054   3.828
84183W        W52513  36.415  17.562   1.929
84184W        W52514   2.329  13.696  12.516
84185W        W52515  40.426  34.390   1.805
84186W        W52516  23.149  12.672  13.478
84187W        W52517  13.835   1.796  11.978
84188W        W52518  20.055  21.198  12.920
84189W        W52519  22.045  39.410  14.301
84190W        W52520  41.352  34.456   4.713
84191W        W52521  17.587  25.485  12.964
84192W        W52522   6.190   8.837   2.199
84193W        W52523  32.098  39.550   1.714
84194W        W52524  30.941  13.168  12.391
84195W        W52525  35.559   4.239   4.178
84196W        W52526  38.047  39.467  12.043
84197W        W52527  27.552  14.280   4.636
84198W        W52528  43.394   2.892  14.284
84199W        W52529  20.664  21.258  13.976
84200W        W52530  16.274   7.301   3.163
84201W        W52531  23.135   3.387   4.144
84202W        W52532   0.347  29.943  10.580
84203W        W52533  24.651   2.357  11.959
84204W        W52534  23.528   8.892  13.548
84205W        W52535  36.426  39.493  12.550
84206W        W52536  37.519  27.534  14.014
84207W        W52537  42.286  44.761   0.393
84208W        W52538  31.438  23.665  12.085
84209W        W52539  25.152  27.046   2.286
84210W        W52540  32.131  29.120  14.355
84211W        W52541  29.167   2.316   3.276
84212W        W52542   8.406  32.423  10.988
84213W        W52543  34.536   6.749  11.099
84214W        W52544  33.587  22.738   2.204
84215W        W52545  16.811  41.857   2.270
84216W        W52546   1.435  20.106  12.900
84217W        W52547  30.447  22.709   5.187
84218W        W52548  15.189  26.483  13.420
84219W        W52549  13.131  38.904  11.036
84220W        W52550  32.940  12.175   1.912
84221W        W52551  30.155   6.184   2.822
84222W        W52552  32.459  13.317  10.642
84223W        W52553  28.056   5.876  14.350
84224W        W52554  29.105  24.202   1.859
84225W        W52555   6.322  17.791   3.158
84226W        W52556  35.366  19.050  13.463
84227W        W52557  25.665  17.123   4.289
84228W        W52558  25.622  32.613  12.997
84229W        W52559  33.045  36.392  13.446
84230W        W52560  16.806  42.414  14.908
84231W        W52561  24.684   1.423   1.289
84232W        W52562  16.124  44.867   1.795
84233W        W52563  32.128  41.924  12.057
84234W        W52564  37.063  36.588  12.995
84235W        W52565  39.354  37.343   1.884
84236W        W52566  34.117  33.541   1.881
84237W        W52567  27.080  39.444  14.482
84238W        W52568  15.814  24.028  14.381
84239W        W52569  40.862  10.750   0.742
84240W        W52570  24.020  24.512   3.630
84241W        W52571   5.826  16.306   0.904
84242W        W52572  31.541  27.083  12.979
84243W        W52573  11.775  16.226   3.744
84244W        W52574  39.999  42.489   3.228
84245W        W52575  13.727  11.165  12.026
84246W        W52576   3.784  43.411  11.396
84247W        W52577   0.929  23.704  10.605
84248W        W52578  30.034   7.781  10.892
84249W        W52579  39.813  42.507   2.359
84250W        W52580  30.617   5.870   0.407
84251W        W52581  27.667   5.710   2.354
84252W        W52582  28.164  39.360  13.408
84253W        W52583  43.804  42.377  11.448
84254W        W52584  43.360  27.089  13.955
84255W        W52585  36.422   0.754   1.808
84256W        W52586  12.243   0.896  14.903
84257W        W52587  37.982  21.660  14.839
84258W        W52588  21.702  10.195  12.381
84259W        W52589  13.640  40.340   1.889
84260W        W52590  33.055  13.283  11.428
84261W        W52591  12.772  37.412   0.397
84262W        W52592   8.785  16.798   3.842
84263W        W52593   3.911  16.282   3.179
84264W        W52594  17.105  18.748  12.540
84265W        W52595  20.188  40.376   3.771
84266W        W52596  31.918  38.972  13.448
84267W        W52597  38.335  21.073   1.289
84268W        W52598  30.933   7.892  13.947
84269W        W52599  34.385   0.854  10.490
84270W        W52600  36.977  14.621  14.280
84271W        W52601  18.065  40.990   0.269
84272W        W52602   7.770  29.598  14.510
84273W        W52603  26.504  19.206   4.652
84274W        W52604  37.515   0.816  14.927
84275W        W52605  17.209  28.964  12.963
84276W        W52606  44.374  26.539  14.014
84277W        W52607  43.011  37.017   2.795
84278W        W52608   3.782  44.863   2.687
84279W        W52609  15.582  27.668   0.799
84280W        W52610  42.437  38.024  10.961
84281W        W52611  18.737   7.249   2.781
84282W        W52612  30.969   3.404  12.556
84283W        W52613  16.251  23.735  10.451
84284W        W52614  12.833  36.366   1.225
84285W        W52615  43.389  33.994  12.886
84286W        W52616   1.265  22.695  10.627
84287W        W52617  37.384   4.217   1.442
84288W        W52618  39.456   3.413  13.317
84289W        W52619  14.728  43.768  11.077
84290W        W52620   7.723  32.951   4.345
84291W        W52621   2.338  30.626   4.686
84292W        W52622  12.232  12.727  12.018
84293W        W52623  20.146   5.912  11.551
84294W        W52624  32.098   2.417   3.337
84295W        W52625  22.534   3.796   3.860
84296W        W52626  18.242  12.328   1.254
84297W        W52627  12.123  42.518  14.426
84298W        W52628  31.623  36.076   2.711
84299W        W52629  14.718  15.226   1.896
84300W        W52630   2.923  12.321  14.426
84301W        W52631   8.780  35.073  13.993
84302W        W52632  11.223  40.888  14.027
84303W        W52633  11.764  34.464   3.289
84304W        W52634  16.124   2.813  12.080
84305W        W52635   6.769  26.205   2.182
84306W        W52636  26.533  14.137  13.464
84307W        W52637  19.132  31.145  12.070
84308W        W52638  38.422   3.826   2.329
84309W        W52639  19.626  13.831  10.942
84310W        W52640  43.378  35.489  11.906
84311W        W52641  40.951   3.730   1.261
84312W        W52642  16.623   8.332  13.446
84313W        W52643  40.050  39.456  10.442
84314W        W52644  31.648   4.424  11.993
84315W        W52645   8.249   8.190   3.241
84316W        W52646   4.331  31.492   0.449
84317W        W52647   8.308  36.391  13.887
84318W        W52648  13.607   4.357   2.342
84319W        W52649  20.724   1.907   3.230
84320W        W52650   0.867   1.468   3.169
84321W        W52651   4.338  29.432  12.924
84322W        W52652  21.755  18.091  12.407
84323W        W52653   1.367   3.216  13.858
84324W        W52654  30.494   8.827  11.058
84325W        W52655  43.381  38.443  11.120
84326W        W52656  19.552  14.794   3.671
84327W        W52657  13.797  32.483   2.684
84328W        W52658  26.066   0.321  13.411
84329W        W52659  40.876  15.804  11.490
84330W        W52660  30.601  15.591  10.994
84331W        W52661   0.280  20.684  10.937
84332W        W52662  17.069   3.944  10.424
84333W        W52663   4.375  32.559  14.785
84334W        W52664  42.889   2.319   1.360
84335W        W52665  25.499  43.304  12.557
84336W        W52666  28.637   6.885   1.412
84337W        W52667  15.802  36.441   1.732
84338W        W52668  32.139  23.551   4.220
84339W        W52669  30.617   9.305   3.312
84340W        W52670   0.407  11.682  12.988
84341W        W52671  13.713  24.014   2.205
84342W        W52672  25.482  35.505   1.397
84343W        W52673  37.536  27.578   3.370
84344W        W52674  34.932  13.248   4.654
84345W        W52675  18.293   4.412   3.774
84346W        W52676   4.925   3.767   0.779
84347W        W52677  21.220  21.679   0.248
84348W        W52678  16.733   3.812  10.508
84349W        W52679  35.973  33.915   0.927
84350W        W52680   4.857  42.934  13.997
84351W        W52681  44.500   2.799   4.601
84352W        W52682  18.684  16.220   1.911
84353W        W52683  28.094  26.151  14.360
84354W        W52684  28.485   1.858  13.919
84355W        W52685   3.815  18.098  14.988
84356W        W52686  31.426   0.445   1.701
84357W        W52687  37.519  35.382   1.342
84358W        W52688   6.293   5.781  10.534
84359W        W52689  44.867  44.996   4.138
84360W        W52690   2.725  24.663   2.195
84361W        W52691  31.589  28.057  13.400
84362W        W52692  40.351   1.819  10.907
84363W        W52693  24.156  15.656   1.758
84364W        W52694   8.343  32.448  13.486
84365W        W52695  18.235  16.718   2.859
84366W        W52696  28.130   8.866   2.786
84367W        W52697  40.328   7.796  12.434
84368W        W52698  19.060   4.398   4.599
84369W        W52699  20.730  31.580   0.853
84370W        W52700  40.001  40.316  12.557
84371W        W52701  14.788  19.042  10.530
84372W        W52702   9.293   7.242  10.406
84373W        W52703  11.814  30.011  11.449
84374W        W52704  33.962  32.122  14.400
84375W        W52705   3.231  21.513  13.488
84376W        W52706  25.636   9.651   4.310
84377W        W52707  39.914   9.231  11.874
84378W        W52708   3.713  30.935  13.544
84379W        W52709   6.839  19.575  10.593
84380W        W52710   0.342   2.732   3.149
84381W        W52711  26.954   5.844  10.508
84382W        W52712   2.885  23.225   1.235
84383W        W52713  32.415  13.815   4.779
84384W        W52714   8.274  16.653  11.969
84385W        W52715  10.760  40.992   3.254
84386W        W52716   0.365  14.236  13.522
84387W        W52717  27.446  15.102  11.437
84388W        W52718  23.160  24.659   0.744
84389W        W52719  21.604   7.272   3.321
84390W        W52720  18.142  26.641   1.715
84391W        W52721  27.968  25.123  11.564
84392W        W52722  30.618  26.562  14.500
84393W        W52723  12.679   9.648   3.635
84394W        W52724  11.128  23.734  13.918
84395W        W52725  31.980  17.726   1.324
84396W        W52726  21.591  35.875   0.791
84397W        W52727  26.199  12.699   1.779
84398W        W52728   9.831  15.823  12.957
84399W        W52729  21.074  14.815   1.326
84400W        W52730  21.258  17.771   1.720
84401W        W52731   9.323  10.806  11.956
84402W        W52732  31.607  42.307   0.907
84403W        W52733  17.100  19.137   4.257
84404W        W52734  20.583  26.673  11.375
84405W        W52735  18.757  30.126  14.831
84406W        W52736  13.280  24.530  13.437
84407W        W52737  19.599  24.109  14.504
84408W        W52738   5.308  20.038  12.393
84409W        W52739  41.401  29.994  14.859
84410W        W52740  30.504   7.233   1.848
84411W        W52741  21.252  34.097   3.690
84412W        W52742   8.738  18.671   2.229
84413W        W52743  15.280  26.654  13.028
84414W        W52744  30.112  16.287  13.513
84415W        W52745  22.098   8.251  12.546
84416W        W52746  16.585  19.264  13.875
84417W        W52747  19.659  34.072  13.882
84418W        W52748  35.898  41.030  14.908
84419W        W52749   1.957  36.551  12.887
84420W        W52750  17.669  25.994   0.296
84421W        W52751   4.828  41.822   0.850
84422W        W52752  30.499  44.817   0.259
84423W        W52753   5.813  44.753   0.256
84424W        W52754  26.675  20.199  10.499
84425W        W52755  22.744  26.960  13.833
84426W        W52756  17.719  15.144   2.210
84427W        W52757   8.396   4.818  14.322
84428W        W52758  22.578  32.576   3.194
84429W        W52759   0.480  10.256   0.963
84430W        W52760  27.181   5.871   0.269
84431W        W52761   7.323  37.012   4.830
84432W        W52762  27.183  31.147   0.880
84433W        W52763  18.236  13.342   0.431
84434W        W52764  20.734  31.964  11.017
84435W        W52765  28.084  35.602   1.863
84436W        W52766  35.548   6.249  12.048
84437W        W52767  20.143   3.821   4.128
84438W        W52768  17.767   2.945   2.772
84439W        W52769  30.949  21.574  11.999
84440W        W52770  34.420   5.732  10.975
84441W        W52771  31.131  33.106  11.457
84442W        W52772  22.601  39.344  10.419
84443W        W52773  15.134   0.389  10.610
84444W        W52774  40.389   0.472   2.273
84445W        W52775  10.667  35.514  11.385
84446W        W52776  16.162  23.670  14.403
84447W        W52777  44.769  12.758   4.612
84448W        W52778  32.908  28.958   2.777
84449W        W52779   6.740  27.577  14.978
84450W        W52780  25.081  19.676  10.967
84451W        W52781  12.267  43.868   1.429
84452W        W52782  43.987  40.494  11.557
84453W        W52783  37.551  22.062   0.347
84454W        W52784  44.863  10.358   2.867
84455W        W52785  44.010   3.905   0.338
84456W        W52786  10.269  16.316  12.560
84457W        W52787   1.732  43.488  13.425
84458W        W52788  20.722  19.629   3.252
84459W        W52789  30.418   3.746   4.763
84460W        W52790   2.267   8.887  10.522
84461W        W52791  33.439  26.510   1.380
84462W        W52792   1.473   6.199  13.976
84463W        W52793   5.832  20.222  11.525
84464W        W52794  23.212  39.020  10.474
84465W        W52795  16.676  23.585  12.939
84466W        W52796  16.161  43.429   2.890
84467W        W52797  29.564  14.266   1.349
84468W        W52798  36.939   3.765  14.349
84469W        W52799   2.770  38.342   4.708
84470W        W52800   7.222   9.172  12.363
84471W        W52801  36.525  10.871  13.035
84472W        W52802   4.804  29.550  11.004
84473W        W52803  16.791  25.079   0.338
84474W        W52804  19.598   9.805  13.368
84475W        W52805  24.724  24.484  11.028
84476W        W52806   9.852  27.039   1.443
84477W        W52807   8.197  36.435   2.256
84478W        W52808  36.409  13.839  14.813
84479W        W52809   3.285  37.428   4.764
84480W        W52810  11.255  29.646   3.258
84481W        W52811  15.820  20.208   1.427
84482W        W52812  25.100  38.879  11.592
84483W        W52813  28.612  28.472  12.050
84484W        W52814  37.526  21.540  13.055
84485W        W52815  11.240  24.100   4.758
84486W        W52816  22.533  25.483   2.329
84487W        W52817  32.096  18.708  13.458
84488W        W52818  26.129   8.789  13.937
84489W        W52819  34.380  20.168  14.278
84490W        W52820  41.357   6.768   4.813
84491W        W52821  11.755  40.361  10.628
84492W        W52822  41.850  30.102  12.485
84493W        W52823  17.667  19.752  10.595
84494W        W52824   4.828  25.029  11.967
84495W        W52825  31.128  18.210  13.363
84496W        W52826  32.068  39.016   2.809
84497W        W52827  20.192  42.506   0.374
84498W        W52828  29.438  17.124   1.907
84499W        W52829  12.650  40.410  13.056
84500W        W52830  12.197  14.206   0.425
84501W        W52831   4.375  21.084   0.794
84502W        W52832  15.303  41.439   2.258
84503W        W52833   4.227   9.755  11.932
84504W        W52834  21.056  35.101   4.801
84505W        W52835  14.287  19.665  10.611
84506W        W52836  42.960   7.393  14.921
84507W        W52837  13.266  10.749   1.256
84508W        W52838   6.361  42.441   1.420
84509W        W52839  34.569  11.297  10.557
84510W        W52840  36.093  33.393  12.008
84511W        W52841  25.091  15.640  11.098
84512W        W52842  39.486  38.077  10.928
84513W        W52843  44.797  35.446   0.328
84514W        W52844   5.405  16.660  11.069
84515W        W52845  12.185  32.484  14.487
84516W        W52846  37.831  28.073   2.271
84517W        W52847  23.689  12.330   1.887
84518W        W52848   5.729   9.154   4.809
84519W        W52849  20.536  42.971  13.393
84520W        W52850  15.690  20.747  10.131
84521W        W52851  14.807  29.131   2.229
84522W        W52852  20.662  43.904  10.904
84523W        W52853  28.101   4.751   1.292
84524W        W52854  19.623   8.241   2.756
84525W        W52855  29.174  11.868  10.941
84526W        W52856  41.942  19.150   3.800
84527W        W52857   4.370  16.763   4.790
84528W        W52858  41.842  43.927  12.569
84529W        W52859   9.257  17.205  13.399
84530W        W52860  19.579  20.588  12.347
84531W        W52861   5.243  36.967  10.557
84532W        W52862   8.218  36.438  14.818
84533W        W52863  13.712  29.149  10.531
84534W        W52864  27.564  35.516  12.389
84535W        W52865  13.135  15.149   3.170
84536W        W52866  19.136  10.712   3.296
84537W        W52867  32.541  18.784   3.853
84538W        W52868  24.189  11.337  10.556
84539W        W52869  31.526   0.843   3.145
84540W        W52870  40.803   7.299   0.279
84541W        W52871  32.442  10.154  14.011
84542W        W52872  30.029  15.200   0.771
84543W        W52873  37.931  39.986   2.221
84544W        W52874  27.187  28.080  12.852
84545W        W52875  30.923   1.331  11.917
84546W        W52876  13.648  25.628  13.017
84547W        W52877  38.369  14.256  11.010
84548W        W52878  41.870  24.496  14.842
84549W        W52879  40.993  37.561  13.891
84550W        W52880  15.124  36.517  13.448
84551W        W52881   7.344  39.356   4.763
84552W        W52882  32.394   7.223  12.019
84553W        W52883  21.031  36.427  12.487
84554W        W52884  25.178   0.814  11.031
84555W        W52885  25.591  42.368   4.799
84556W        W52886   0.881  12.322  12.892
84557W        W52887   4.886  27.601  12.565
84558W        W52888  39.372   5.338   4.346
84559W        W52889  19.568  29.114   2.723
84560W        W52890  16.694   4.725  10.492
84561W        W52891  13.785  17.566  14.845
84562W        W52892   3.773   0.869  11.909
84563W        W52893  44.844  20.600  10.597
84564W        W52894  18.652  18.059   9.976
84565W        W52895  24.629  23.065   2.671
84566W        W52896  39.901  10.711  12.939
84567W        W52897  24.115  37.838   1.233
84568W        W52898  41.485  22.129  11.410
84569W        W52899  37.067  16.741   4.183
84570W        W52900  28.655  43.972   1.846
84571W        W52901   6.200   6.387  10.417
84572W        W52902   3.886   2.727  11.480
84573W        W52903  40.494  13.829  13.863
84574W        W52904  16.708  41.039  14.469
84575W        W52905   2.325   0.358   2.415
84576W        W52906  23.197  30.587  13.064
84577W        W52907  26.662  21.038   0.275
84578W        W52908  18.648  18.206  10.981
84579W        W52909  33.558   5.315  11.477
84580W        W52910   6.773  21.092   3.378
84581W        W52911  39.024  23.035  11.476
84582W        W52912  15.790  44.962   1.221
84583W        W52913  29.056  21.643   2.227
84584W        W52914  38.888  32.464  12.848
84585W        W52915  29.102  16.618   2.812
84586W        W52916  42.513  29.940  10.600
84587W        W52917   6.370   3.920  13.370
84588W        W52918   9.150  43.832   2.846
84589W        W52919  16.186  33.956   2.414
84590W        W52920   8.682   4.334   0.747
84591W        W52921  29.459  18.643  14.996
84592W        W52922   0.746  29.471  12.069
84593W        W52923  15.163  31.425   1.230
84594W        W52924   7.363  43.811   0.278
84595W        W52925  39.025  35.988   3.208
84596W        W52926  18.710  33.537  13.505
84597W        W52927   1.878  26.599   1.755
84598W        W52928   9.149  10.704  13.478
84599W        W52929  27.068  44.299  13.956
84600W        W52930  30.521  39.538   2.329
84601W        W52931   3.862  26.505  11.045
84602W        W52932  27.097  32.400   4.126
84603W        W52933  29.938  18.664  12.420
84604W        W52934  14.788  15.164  13.057
84605W        W52935   3.422  31.012   2.384
84606W        W52936  29.425  19.088   2.849
84607W        W52937  26.201  14.216   1.699
84608W        W52938  33.503  17.246   0.929
84609W        W52939  32.604  44.797  10.600
84610W        W52940  25.016  25.562  12.888
84611W        W52941  13.182   7.255   2.796
84612W        W52942  33.482  15.695  14.505
84613W        W52943  34.113  17.768   2.230
84614W        W52944  37.042  17.287  12.977
84615W        W52945  24.492  34.457  12.837
84616W        W52946   9.177  23.085   3.209
84617W        W52947  36.047  30.502  12.079
84618W        W52948  11.626   8.309   4.715
84619W        W52949  16.289  14.673   1.368
84620W        W52950  33.550  43.954  13.463
84621W        W52951  22.066  21.543   4.153
84622W        W52952  29.632  31.106  11.518
84623W        W52953   6.696  10.872   4.710
84624W        W52954   8.728  40.981  14.485
84625W        W52955  26.167  31.583   2.197
84626W        W52956  32.090   8.211  11.022
84627W        W52957  18.685  28.549   1.759
84628W        W52958   1.416  23.715   1.848
84629W        W52959  19.264  40.872   1.852
84630W        W52960  34.983  32.483  14.930
84631W        W52961  29.112  24.040  14.513
84632W        W52962  34.956  32.039   1.294
84633W        W52963  35.536  15.193  11.944
84634W        W52964   6.872  30.097   4.715
84635W        W52965  44.395  44.841   3.328
84636W        W52966   1.820   5.267   2.794
84637W        W52967  38.983  17.148  13.450
84638W        W52968   0.794  42.889   3.170
84639W        W52969  34.057  16.603  13.952
84640W        W52970  24.118   8.780  12.005
84641W        W52971  44.943   1.744  14.974
84642W        W52972  21.260  30.080   9.997
84643W        W52973  30.590   5.338  14.971
84644W        W52974   2.426  28.444   1.877
84645W        W52975   8.856  32.104   3.167
84646W        W52976  15.244   6.850   0.433
84647W        W52977  12.274   7.227   2.721
84648W        W52978  22.224  35.500  11.889
84649W        W52979  22.132   2.276  12.094
84650W        W52980  25.203  12.676   2.811
84651W        W52981   3.727  30.638  12.487
84652W        W52982  30.128  12.256   3.379
84653W        W52983  32.398  29.951  13.419
84654W        W52984  13.250   3.831  11.002
84655W        W52985   7.816  17.247   3.849
84656W        W52986  24.010  32.587   4.785
84657W        W52987   2.841  44.981   3.843
84658W        W52988  10.373  18.089  10.992
84659W        W52989  14.801  26.079  13.489
84660W        W52990  32.965   4.900   3.635
84661W        W52991  30.567  35.524  11.905
84662W        W52992  41.034  40.813  13.451
84663W        W52993  27.142  20.711  14.505
84664W        W52994  24.114   6.259   2.338
84665W        W52995  30.634  32.108  11.508
84666W        W52996  39.995   3.869   3.729
84667W        W52997  12.805  29.637  13.988
84668W        W52998   1.895  43.838   3.700
84669W        W52999   1.941  42.003   2.222
84670W        W53000  42.818  11.323   3.214
84671W        W53001  41.811  28.673  11.376
84672W        W53002  30.985  26.505   0.805
84673W        W53003   5.911  24.978   4.341
84674W        W53004  20.600  27.664  10.444
84675W        W53005  23.078  10.684   0.369
84676W        W53006  10.811  38.368   4.742
84677W        W53007   4.303  42.419   1.815
84678W        W53008  32.977  16.111  13.313
84679W        W53009  19.281  26.952   1.763
84680W        W53010  16.214  41.926   3.285
84681W        W53011  33.413  16.299  11.596
84682W        W53012   5.308   8.901   0.428
84683W        W53013   6.721   6.370   4.327
84684W        W53014  25.134  26.648   5.234
84685W        W53015  19.234  20.197   4.816
84686W        W53016  20.127  43.302   0.727
84687W        W53017   7.341  13.838   4.719
84688W        W53018  40.924   8.183   0.758
84689W        W53019   1.269  18.167   0.339
84690W        W53020  34.421  14.112  11.573
84691W        W53021  32.626  27.159   0.256
84692W        W53022  43.862   4.236   3.684
84693W        W53023  31.543  44.293   3.774
84694W        W53024   3.424  14.736   1.413
84695W        W53025  42.799   3.303   1.827
84696W        W53026  16.764   8.806   4.709
84697W        W53027  29.577  23.210  11.092
84698W        W53028  34.560  35.025  11.555
84699W        W53029  34.879   9.702   4.302
84700W        W53030  15.248  11.333   4.707
84701W        W53031  26.577  19.626   1.733
84702W        W53032  30.062  35.548   0.731
84703W        W53033  21.019  43.377   0.864
84704W        W53034   6.273   9.802   0.410
84705W        W53035  20.218  10.221   3.655
84706W        W53036   7.213  13.613   1.405
84707W        W53037  38.028   2.916  11.889
84708W        W53038  15.175  29.024  12.039
84709W        W53039  19.191   6.778   2.240
84710W        W53040  12.792  11.777  11.000
84711W        W53041  25.606  34.421  10.935
84712W        W53042  31.619  12.243  11.435
84713W        W53043   4.370  41.349   2.237
84714W        W53044  32.016  11.726  13.391
84715W        W53045  26.110  36.949  12.041
84716W        W53046  10.142   5.263  10.891
84717W        W53047  35.023  28.568  14.798
84718W        W53048   0.407  16.130  13.982
84719W        W53049  37.527  24.193  11.889
84720W        W53050  28.150  30.111   0.750
84721W        W53051  34.447  36.398  14.940
84722W        W53052  23.628  35.024  13.986
84723W        W53053  18.731  28.040  14.921
84724W        W53054  34.534  31.073   3.838
84725W        W53055   4.214  29.656  11.021
84726W        W53056  30.565  30.583   0.444
84727W        W53057  20.717  15.724   2.786
84728W        W53058  12.143  34.866   4.169
84729W        W53059  29.010   5.829  10.973
84730W        W53060  34.434  37.883  13.880
84731W        W53061  34.377   1.362  12.093
84732W        W53062  30.039  39.336   0.944
84733W        W53063   9.153   3.367   4.829
84734W        W53064  40.541   2.866   0.327
84735W        W53065  15.214  25.704   2.335
84736W        W53066   4.216  18.051   2.404
84737W        W53067  20.213  25.057  14.464
84738W        W53068  29.596   7.749  10.557
84739W        W53069  11.689  21.653  13.854
84740W        W53070  36.375  29.029   5.158
84741W        W53071  21.570  20.140   1.212
84742W        W53072  18.227  18.154   4.130
84743W        W53073  40.858  30.587   2.375
84744W        W53074  37.913  41.793  11.386
84745W        W53075  31.975   1.477   0.873
84746W        W53076  28.544   8.712   4.286
84747W        W53077  12.766  44.335   0.335
84748W        W53078  26.466  12.639   3.703
84749W        W53079  24.570  20.140  13.394
84750W        W53080  42.410   1.746   3.800
84751W        W53081  19.759   4.752  14.468
84752W        W53082  25.156  27.502  10.609
84753W        W53083  37.992   0.288   3.633
84754W        W53084  18.618  15.170  14.348
84755W        W53085  26.086  31.591   0.421
84756W        W53086  14.097  20.663  14.437
84757W        W53087  39.849  23.998   0.752
84758W        W53088  37.844   3.929   2.339
84759W        W53089  35.911  21.255   3.642
84760W        W53090  29.629   9.152  12.941
84761W        W53091   1.955  33.540   4.237
84762W        W53092  15.157  28.035  14.332
84763W        W53093  32.593  24.494   4.211
84764W        W53094  23.698   4.319   0.439
84765W        W53095  15.317  11.775  11.594
84766W        W53096  26.152  31.067  13.445
84767W        W53097   3.442  29.599  14.839
84768W        W53098  24.166  23.620   4.837
84769W        W53099  11.356  34.476   4.619
84770W        W53100  10.869  14.679  10.958
84771W        W53101  11.291  39.016   2.686
84772W        W53102  34.024   7.250   4.665
84773W        W53103  30.110   4.935  13.516
84774W        W53104   5.292  25.177  10.890
84775W        W53105   8.329  26.696   4.319
84776W        W53106   2.887  35.020  11.494
84777W        W53107  35.900  38.571   2.895
84778W        W53108  32.435  33.550   2.835
84779W        W53109  37.422  36.901  13.792
84780W        W53110  44.977   0.281   2.222
84781W        W53111   3.950   0.380   2.805
84782W        W53112  38.819   9.298   0.475
84783W        W53113  37.848   0.777  14.773
84784W        W53114  26.098  42.344  10.933
84785W        W53115  32.050  29.053  11.484
84786W        W53116  21.516  42.417   2.418
84787W        W53117  24.520   0.475  13.521
84788W        W53118  32.002   3.362   2.713
84789W        W53119  13.764  28.444   1.314
84790W        W53120  27.065  19.724  11.532
84791W        W53121  33.951   3.756  12.968
84792W        W53122  31.916  38.902   3.310
84793W        W53123  25.512  31.458   2.786
84794W        W53124  26.518  17.677   1.429
84795W        W53125  16.207  43.382   3.194
84796W        W53126  30.474   1.807   4.749
84797W        W53127  42.389  28.579   4.737
84798W        W53128   7.862  41.810  10.528
84799W        W53129  13.763  36.432  11.389
84800W        W53130   6.730  39.045   4.347
84801W        W53131  33.903  23.114  11.937
84802W        W53132   8.730  25.018   4.265
84803W        W53133  19.664  23.216  12.533
84804W        W53134   4.450  26.542  10.501
84805W        W53135  40.936   8.267  11.013
84806W        W53136  24.979  42.827   3.729
84807W        W53137  14.327  23.596   2.323
84808W        W53138  23.985  18.734  14.993
84809W        W53139  22.656  28.600  14.946
84810W        W53140   7.333  10.323  12.514
84811W        W53141  32.914  43.464   3.778
84812W        W53142  17.307  19.162   2.228
84813W        W53143  41.419  43.408  11.941
84814W        W53144  27.482  42.023   2.387
84815W        W53145   0.807  42.382   3.659
84816W        W53146  11.295  16.080   2.799
84817W        W53147   7.371  15.262  10.549
84818W        W53148  24.114  28.954   3.825
84819W        W53149  33.968  22.746  10.447
84820W        W53150  20.583  21.754  11.524
84821W        W53151   1.241   9.886  11.550
84822W        W53152   4.749  21.754  12.069
84823W        W53153   2.261  33.606   4.261
84824W        W53154  26.013   4.729   1.393
84825W        W53155  34.537   2.869   0.820
84826W        W53156  13.278   4.442   1.399
84827W        W53157  44.403  27.628   0.810
84828W        W53158  38.987  35.501  12.923
84829W        W53159  25.019  41.946  12.948
84830W        W53160  24.033  26.603  11.556
84831W        W53161  39.860   7.897  14.301
84832W        W53162  38.419  40.511   3.251
84833W        W53163  11.133   8.831  13.347
84834W        W53164  37.350   4.274  12.417
84835W        W53165  42.999  31.502   3.322
84836W        W53166  42.424  21.128   2.766
84837W        W53167  32.555  30.606  13.847
84838W        W53168  29.952  37.517  13.965
84839W        W53169  11.347  31.612   4.116
84840W        W53170   2.262  40.041  10.574
84841W        W53171  18.664   6.902   4.313
84842W        W53172  13.845  20.672   4.622
84843W        W53173  22.557  39.065   0.368
84844W        W53174  26.033   9.149  12.349
84845W        W53175  16.801  43.876  13.414
84846W        W53176  32.529  15.799  11.583
84847W        W53177  42.928  31.597   3.743
84848W        W53178  43.270  44.428  10.919
84849W        W53179   3.909   4.884   2.248
84850W        W53180  43.495  12.222   2.733
84851W        W53181  33.493  10.208  14.782
84852W        W53182   1.273   3.229   0.395
84853W        W53183   4.830  33.576   1.695
84854W        W53184  31.074  38.501   1.910
84855W        W53185   6.853  20.610  12.061
84856W        W53186  25.683  19.707  13.799
84857W        W53187  35.060  29.930  12.943
84858W        W53188  16.658  13.268   0.816
84859W        W53189  39.336  25.511   1.322
84860W        W53190  43.911   8.402  12.578
84861W        W53191  41.488  37.423   4.223
84862W        W53192  21.130  31.451  12.827
84863W        W53193  31.022  26.671   1.853
84864W        W53194  10.784   9.729  14.763
84865W        W53195  18.759  10.205   1.317
84866W        W53196  41.021   9.776  11.528
84867W        W53197  22.022  21.566   2.670
84868W        W53198  22.248  11.765  14.998
84869W        W53199  31.917  38.894  11.935
84870W        W53200  15.108  42.822   0.850
84871W        W53201  21.182  28.506  12.480
84872W        W53202  20.089  29.085  14.916
84873W        W53203  39.500  16.620   3.648
84874W        W53204  29.623  22.014   0.412
84875W        W53205  33.444   1.739  10.059
84876W        W53206   6.771   4.841   4.309
84877W        W53207  40.941  16.687  14.979
84878W        W53208   5.857  12.785   1.231
84879W        W53209  32.138  42.305   2.304
84880W        W53210  27.050   1.929  11.477
84881W        W53211   3.265  17.154  14.872
84882W        W53212  33.894  13.607   2.399
84883W        W53213  40.938  43.473   4.330
84884W        W53214  26.689  30.526   0.840
84885W        W53215   7.288  16.771   0.842
84886W        W53216  40.453   3.312  11.042
84887W        W53217  32.086  30.430   4.194
84888W        W53218  28.501  20.688   2.183
84889W        W53219  36.031  24.650   2.669
84890W        W53220  15.301  10.286  13.034
84891W        W53221  15.631  16.300   0.895
84892W        W53222  32.538  25.052   2.875
84893W        W53223  30.510   1.291  14.357
84894W        W53224   6.204  32.410   4.118
84895W        W53225  41.898  10.303   1.908
84896W        W53226  35.498  10.662   4.304
84897W        W53227   5.231  34.986   0.371
84898W        W53228  12.720  43.933  12.870
84899W        W53229  31.596   9.757  11.493
84900W        W53230  20.108   0.751   3.259
84901W        W53231   6.228  26.543   1.823
84902W        W53232  18.190  18.770   3.375
84903W        W53233  43.471   5.250   2.292
84904W        W53234   3.749  38.902   0.741
84905W        W53235   5.750   5.280   2.310
84906W        W53236  34.582  23.023   2.872
84907W        W53237  43.364  12.241  12.980
84908W        W53238  21.225  18.692  12.831
84909W        W53239  20.176  17.595  14.278
84910W        W53240  25.064   3.345   4.734
84911W        W53241  17.180  26.699   2.804
84912W        W53242  26.103  38.462   2.680
84913W        W53243  37.940   7.738   3.346
84914W        W53244  38.336   5.871  14.420
84915W        W53245  12.305  38.551   3.658
84916W        W53246  34.550  41.835  13.855
84917W        W53247   0.422  24.993   1.403
84918W        W53248   7.825  12.347   1.819
84919W        W53249  16.793  27.124   0.729
84920W        W53250  41.298  40.889   0.913
84921W        W53251  36.903  35.912   2.215
84922W        W53252  22.601  33.962   3.227
84923W        W53253  30.457  29.629   3.712
84924W        W53254  24.675  42.832  13.890
84925W        W53255  41.034  38.060  14.374
84926W        W53256  11.132  15.174   3.858
84927W        W53257   4.226  24.075  10.900
84928W        W53258   4.344   3.724  13.451
84929W        W53259  23.640  21.051   3.734
84930W        W53260  40.463  42.328  13.036
84931W        W53261  11.860   4.775   0.251
84932W        W53262  15.325  12.300   0.355
84933W        W53263  43.467  43.441   0.967
84934W        W53264  11.161  39.839  14.371
84935W        W53265  40.424   5.413  12.902
84936W        W53266  28.110  16.157  10.161
84937W        W53267  35.393  10.334   1.859
84938W        W53268  34.600  32.055  10.627
84939W        W53269   3.400  38.880   0.927
84940W        W53270  10.664  24.175  10.622
84941W        W53271  35.935  44.869  14.400
84942W        W53272   4.875  21.126  13.989
84943W        W53273  34.079  22.239  14.785
84944W        W53274  28.004  21.110  12.911
84945W        W53275  35.042  18.236   5.322
84946W        W53276   4.845  14.247  14.860
84947W        W53277  38.340  37.465  14.282
84948W        W53278  21.260  27.583   2.250
84949W        W53279  42.025   5.726   1.929
84950W        W53280  44.953  16.590  14.911
84951W        W53281  21.528   3.748  13.529
84952W        W53282  21.136  19.225  11.116
84953W        W53283  27.576   4.341  14.856
84954W        W53284  37.079  10.257   0.400
84955W        W53285  30.459  41.453  12.554
84956W        W53286  29.116  16.303  12.854
84957W        W53287   0.915  16.622   0.248
84958W        W53288  39.509  18.550   1.254
84959W        W53289  30.518   5.934   4.691
84960W        W53290  18.639  30.592   4.833
84961W        W53291   9.799  31.110   0.300
84962W        W53292  26.207  22.229  12.032
84963W        W53293   9.745  29.448  12.557
84964W        W53294  44.760  22.655  14.332
84965W        W53295  29.585   0.969   3.833
84966W        W53296  33.528   4.301   1.821
84967W        W53297  15.276  36.087   3.365
84968W        W53298  33.017  17.274  10.944
84969W        W53299   8.273   4.737  10.970
84970W        W53300  11.363  11.790  12.493
84971W        W53301   2.395   2.326  14.981
84972W        W53302  30.097  29.031   2.668
84973W        W53303  10.380  36.932  11.987
84974W        W53304  22.148  21.576  10.643
84975W        W53305  32.924  34.960   2.885
84976W        W53306  36.907  27.017   1.900
84977W        W53307  27.491  14.175   1.817
84978W        W53308  33.020  23.238  14.496
84979W        W53309  41.973   4.232  14.908
84980W        W53310  14.189  27.610   4.763
84981W        W53311  18.676  27.491  11.984
84982W        W53312  30.414   5.752   2.377
84983W        W53313  26.562   6.808  14.467
84984W        W53314  38.538   8.180   4.286
84985W        W53315   4.259  15.180   3.317
84986W        W53316  18.119  11.706  14.370
84987W        W53317   5.245  30.588  13.993
84988W        W53318  44.363  19.072  14.474
84989W        W53319  20.161  34.988   0.318
84990W        W53320  26.588  16.636  10.457
84991W        W53321   9.833  23.524  12.069
84992W        W53322  35.376  33.453   3.782
84993W        W53323  10.186  44.988  13.358
84994W        W53324  23.172  21.257   4.834
84995W        W53325  27.004  14.125  11.585
84996W        W53326   1.753  34.981   3.840
84997W        W53327  25.117  25.586   1.415
84998W        W53328  42.486  12.641   0.315
84999W        W53329  30.962  17.590   2.744
85000W        W53330  43.789   5.835  10.542
85001W        W53331  43.770  14.327   4.244
85002W        W53332  14.201  28.634  11.420
85003W        W53333  17.077   0.976  10.470
85004W        W53334  41.315  26.598  13.312
85005W        W53335  26.097  23.729   1.404
85006W        W53336  23.016   2.734   0.767
85007W        W53337  31.943  42.362  13.430
85008W        W53338  40.321  40.947  12.011
85009W        W53339  41.857  12.169   4.636
85010W        W53340  39.983  19.657   3.645
85011W        W53341   0.929  11.810  10.013
85012W        W53342  23.662  27.678  13.414
85013W        W53343  42.902  21.070  13.867
85014W        W53344  33.955  26.590   4.599
85015W        W53345  44.263  36.478   3.836
85016W        W53346  38.832  12.349   4.722
85017W        W53347  36.358  21.083   3.212
85018W        W53348  23.673   2.839   1.430
85019W        W53349  42.847  22.102   9.952
85020W        W53350  14.239   4.775  11.021
85021W        W53351  38.885  41.905   4.770
85022W        W53352  28.458  24.072   2.316
85023W        W53353   5.747   2.832  12.374
85024W        W53354   1.368  10.275   1.277
85025W        W53355   8.267  10.711   1.842
85026W        W53356  37.438  18.553  12.349
85027W        W53357  30.413  24.491  12.064
85028W        W53358   6.748  13.282   3.660
85029W        W53359  40.886  34.469  10.981
85030W        W53360  20.263  29.062   0.854
85031W        W53361  14.224   5.707   0.359
85032W        W53362  14.192  27.657  14.475
85033W        W53363   2.309  44.843   0.830
85034W        W53364  31.463  44.009  12.376
85035W        W53365  43.514  19.666  12.036
85036W        W53366  28.111  38.957   2.273
85037W        W53367   8.327   9.373   3.841
85038W        W53368  15.235   5.415   3.839
85039W        W53369  44.294  38.488  12.494
85040W        W53370  24.645  43.503  13.959
85041W        W53371   4.236  38.556   5.597
85042W        W53372  39.471  31.445   3.302
85043W        W53373  18.157  36.919  13.949
85044W        W53374  39.518  41.929   0.952
85045W        W53375  35.490  37.539  11.961
85046W        W53376  44.429  30.499   2.697
85047W        W53377   7.852  36.366   2.789
85048W        W53378  42.365  16.080  13.045
85049W        W53379  34.939  10.867   1.280
85050W        W53380  44.435  23.010   0.303
85051W        W53381  40.876  37.929  11.586
85052W        W53382  39.016   3.846   0.749
85053W        W53383   3.367   7.693   4.617
85054W        W53384  37.992   1.283  11.457
85055W        W53385   4.804  31.416   9.957
85056W        W53386   0.443  16.586   1.442
85057W        W53387   1.806  43.301  11.932
85058W        W53388   4.784  40.495   5.274
85059W        W53389  15.654  36.398  11.878
85060W        W53390  14.141  38.502  14.325
85061W        W53391  16.135  30.591  14.918
85062W        W53392  12.180  28.132  13.343
85063W        W53393  30.614  19.650   5.665
85064W        W53394  36.934   9.719  11.959
85065W        W53395  42.307  29.499  10.904
85066W        W53396   4.805  30.608   5.102
85067W        W53397  38.404  29.919  13.474
85068W        W53398  44.408  35.439   4.714
85069W        W53399  10.367  36.562   4.322
85070W        W53400  41.514  10.272   0.420
85071W        W53401  22.104   7.316  11.094
85072W        W53402  19.672  24.683   0.310
85073W        W53403   6.913  24.652   3.351
85074W        W53404  35.016  28.937  12.556
85075W        W53405  23.562  22.537  13.547
85076W        W53406  42.500  14.694  13.841
85077W        W53407  43.936  37.443  11.956
85078W        W53408  31.102  14.218  12.448
85079W        W53409   0.462  21.525  11.439
85080W        W53410   7.258  16.173  10.894
85081W        W53411  10.161  17.080   1.702
85082W        W53412  30.470  16.676   3.262
85083W        W53413  28.666  15.586   2.350
85084W        W53414  10.258  44.923  13.931
85085W        W53415  19.712  21.758   2.396
85086W        W53416   5.382  40.358   1.702
85087W        W53417  39.050  19.728   0.852
85088W        W53418  22.054   7.388  13.497
85089W        W53419  14.103  15.288  12.864
85090W        W53420  32.093  16.721  10.496
85091W        W53421  17.157  29.969   1.922
85092W        W53422   1.763  18.166  12.002
85093W        W53423  12.674   9.299  10.931
85094W        W53424   5.825  13.256   0.480
85095W        W53425  28.563  18.075  13.817
85096W        W53426  21.124   5.893   4.157
85097W        W53427   7.400  17.636   3.297
85098W        W53428  37.413   5.725  11.482
85099W        W53429   2.793  43.326   0.475
85100W        W53430  30.493  22.196   1.863
85101W        W53431  19.277  39.840  12.940
85102W        W53432  22.212   9.750  12.900
85103W        W53433   0.445  21.117   0.368
85104W        W53434   2.960   8.870   3.316
85105W        W53435  11.719   3.777  13.455
85106W        W53436   0.819  18.562  12.367
85107W        W53437  11.799  17.725   2.724
85108W        W53438  12.780  42.521  11.885
85109W        W53439  44.937  25.648  13.975
85110W        W53440   4.905  36.393   0.736
85111W        W53441  27.074   8.194   0.901
85112W        W53442  10.165  34.000  12.528
85113W        W53443  28.664  10.320  14.394
85114W        W53444  41.892  30.105   0.784
85115W        W53445  36.932  18.776   1.332
85116W        W53446  15.627   1.453  12.036
85117W        W53447  17.142  20.272  14.003
85118W        W53448  42.340  18.264  10.568
85119W        W53449  19.173  41.456   3.791
85120W        W53450   8.670   5.872   2.262
85121W        W53451   7.341   7.893   4.126
85122W        W53452  32.598  37.355   5.253
85123W        W53453  16.571   6.854  12.925
85124W        W53454   5.742  41.412  13.330
85125W        W53455  43.822  20.028  10.949
85126W        W53456  22.554  14.760  12.917
85127W        W53457  21.557  17.771   0.810
85128W        W53458  39.440  33.026  12.831
85129W        W53459   7.211  11.359  13.955
85130W        W53460  25.066  36.509   1.407
85131W        W53461  30.569  19.722   1.215
85132W        W53462  42.906  10.281  14.008
85133W        W53463  36.585  24.706   4.606
85134W        W53464   0.330  23.685   0.331
85135W        W53465   3.224  40.979   2.897
85136W        W53466  11.315  24.035  13.351
85137W        W53467   0.855  17.102  13.967
85138W        W53468  23.112  17.268   4.640
85139W        W53469  24.519  35.428   2.739
85140W        W53470   0.364  11.735  14.788
85141W        W53471   2.860  39.013  12.408
85142W        W53472  38.833  35.053  12.375
85143W        W53473  23.124  12.345  10.953
85144W        W53474  35.473  32.616  11.890
85145W        W53475  15.164  11.649  10.951
85146W        W53476  16.287   3.332   2.692
85147W        W53477  40.906  41.817   4.787
85148W        W53478  15.760  21.563   1.713
85149W        W53479   5.898  37.997  13.863
85150W        W53480  13.699  29.592  13.872
85151W        W53481  17.775  38.485   3.795
85152W        W53482  38.499  29.638  14.867
85153W        W53483   3.341   7.280  13.495
85154W        W53484   4.246  38.881   3.866
85155W        W53485  34.395   1.437   2.783
85156W        W53486   4.747  42.377  12.498
85157W        W53487  32.140  17.137   1.707
85158W        W53488  23.991  14.237   4.759
85159W        W53489  43.905   8.887  10.615
85160W        W53490  37.537  34.915  11.392
85161W        W53491  13.718  30.939  13.425
85162W        W53492  18.716  25.686   4.206
85163W        W53493   8.218  16.085   1.298
85164W        W53494  40.929   8.299  11.989
85165W        W53495  34.080  40.928   0.953
85166W        W53496  44.445  25.186   4.260
85167W        W53497  15.090   7.200  12.918
85168W        W53498   2.444   9.756   2.255
85169W        W53499  23.183  13.174   3.169
85170W        W53500  18.780  35.938  10.042
85171W        W53501  24.522  14.261   1.853
85172W        W53502  11.204  21.609  11.906
85173W        W53503  23.612  24.587  12.466
85174W        W53504  18.620  41.526  14.449
85175W        W53505  24.161  35.553   0.794
85176W        W53506  17.114  26.952  11.932
85177W        W53507  24.216   0.874   0.864
85178W        W53508   8.279  19.039   4.710
85179W        W53509  30.124  17.294   2.274
85180W        W53510  44.768   3.412  14.316
85181W        W53511   9.748  20.766  11.045
85182W        W53512   7.682  28.634  11.383
85183W        W53513  22.208  14.828   3.745
85184W        W53514   4.276  36.546   5.211
85185W        W53515   8.218  17.093  10.486
85186W        W53516   7.718   3.888   0.460
85187W        W53517  39.021  22.015   1.355
85188W        W53518  23.517   0.900   0.830
85189W        W53519  23.216  33.617  10.977
85190W        W53520  22.727  28.971  11.419
85191W        W53521  30.034  41.512  12.899
85192W        W53522   8.833  21.740   2.375
85193W        W53523  15.244  22.169  10.607
85194W        W53524   2.239   6.324  11.487
85195W        W53525  22.533  35.456   2.417
85196W        W53526  42.333   0.444   4.739
85197W        W53527  38.009  43.450   3.341
85198W        W53528  29.518  40.338   0.826
85199W        W53529  43.973  33.491  10.444
85200W        W53530  10.261  29.644  12.894
85201W        W53531  30.973  35.444  11.389
85202W        W53532  35.359  35.473  12.393
85203W        W53533  21.610   5.833  12.935
85204W        W53534   4.851   4.385   0.730
85205W        W53535  37.967  21.075   3.197
85206W        W53536  31.018  33.413  14.000
85207W        W53537   7.258  20.700   4.221
85208W        W53538  17.241  29.614  13.417
85209W        W53539  26.526  28.664  14.884
85210W        W53540  44.346  15.789   3.868
85211W        W53541  15.776   2.932  14.301
85212W        W53542  11.637  35.885  13.406
85213W        W53543  37.953   6.290  13.797
85214W        W53544  12.848  29.479  10.593
85215W        W53545   1.929   1.842   4.284
85216W        W53546  30.951  23.213   2.349
85217W        W53547  25.631  36.510   1.779
85218W        W53548  23.213  11.362  12.379
85219W        W53549   9.321  38.948  12.005
85220W        W53550  15.102  25.004   1.404
85221W        W53551  39.839  12.242   3.761
85222W        W53552  24.526  25.107  12.466
85223W        W53553  29.491  29.029   4.619
85224W        W53554   0.253   6.307   4.266
85225W        W53555  41.367   8.691  11.431
85226W        W53556  36.514  39.057  10.414
85227W        W53557   7.398  35.466   1.274
85228W        W53558  35.026  13.686   2.292
85229W        W53559  32.906  10.322  12.502
85230W        W53560  35.857  21.517   2.813
85231W        W53561  27.615  25.104   3.161
85232W        W53562  36.521  39.424  12.953
85233W        W53563   6.375  10.671  11.487
85234W        W53564  28.035  13.137  12.907
85235W        W53565  25.512   7.352  13.994
85236W        W53566  19.625  22.006  14.947
85237W        W53567  10.374  30.919   0.730
85238W        W53568  35.901   7.290   2.313
85239W        W53569  10.302  38.956   2.282
85240W        W53570  33.084  42.831   2.374
85241W        W53571  33.006  31.073  14.934
85242W        W53572   7.892  28.618   3.197
85243W        W53573  39.981  26.080  12.461
85244W        W53574  31.908  38.050  14.850
85245W        W53575  19.100  13.741   2.770
85246W        W53576   9.688  33.515   0.244
85247W        W53577  21.590  21.595   0.927
85248W        W53578  26.544  34.606  11.905
85249W        W53579  29.021  40.977   0.416
85250W        W53580  12.188  37.989  12.041
85251W        W53581   0.914  22.085   0.917
85252W        W53582   1.842  33.027   2.317
85253W        W53583   9.274  18.613   2.746
85254W        W53584  15.653   2.778   2.850
85255W        W53585  18.225   7.768  12.027
85256W        W53586  13.298  15.768  11.029
85257W        W53587  26.683  36.939   3.217
85258W        W53588  37.405   6.678  12.889
85259W        W53589  41.407  37.030   1.244
85260W        W53590  34.056   9.290   2.686
85261W        W53591   1.435  13.670   4.226
85262W        W53592  35.456  41.493   3.787
85263W        W53593  22.995  25.065   3.348
85264W        W53594  22.216  42.501  12.570
85265W        W53595  38.833  22.700  13.392
85266W        W53596   1.269  34.084   4.275
85267W        W53597  38.986  30.023  14.982
85268W        W53598  35.479   4.263  12.974
85269W        W53599  12.310  34.427   2.389
85270W        W53600  28.569  34.526   2.249
85271W        W53601  23.688   6.254   1.239
85272W        W53602  17.600  40.363  14.494
85273W        W53603  34.885  12.836  10.042
85274W        W53604  28.507  36.495   0.759
85275W        W53605  16.188  13.706   3.255
85276W        W53606  12.185  25.074   4.214
85277W        W53607  37.560  37.964  12.877
85278W        W53608   2.372  26.955  13.869
85279W        W53609  29.987   9.863  11.967
85280W        W53610  40.419   2.361  10.964
85281W        W53611   4.210  33.025   0.760
85282W        W53612   5.199  28.472  11.565
85283W        W53613   3.784   0.914  10.962
85284W        W53614  14.185  13.620   4.137
85285W        W53615   8.800  44.309  13.819
85286W        W53616  39.495   4.210   1.347
85287W        W53617  20.222  26.520   1.293
85288W        W53618   6.874  17.710   0.407
85289W        W53619  19.557  16.105   0.251
85290W        W53620  38.428   8.691   0.383
85291W        W53621  37.567  24.118  11.506
85292W        W53622  21.022  44.852  12.088
85293W        W53623   0.821  31.479  14.297
85294W        W53624   9.246  31.593  13.794
85295W        W53625  36.552  36.909   0.859
85296W        W53626  27.158  20.558  12.406
85297W        W53627  22.047  44.354  12.434
85298W        W53628  16.156  27.074  14.902
85299W        W53629  12.787  44.908   3.822
85300W        W53630   1.458  35.032  12.978
85301W        W53631   1.250   7.775  14.981
85302W        W53632  24.558   8.296  14.013
85303W        W53633  16.148   0.931  13.319
85304W        W53634  35.972   5.837   4.760
85305W        W53635  16.729  14.817   0.913
85306W        W53636  28.482   8.784   3.309
85307W        W53637  30.602   7.708   3.351
85308W        W53638   0.434  18.093  11.071
85309W        W53639  40.415  11.145  14.323
85310W        W53640  10.356  22.134  10.105
85311W        W53641  15.580  21.034   0.401
85312W        W53642  12.658  28.157  12.510
85313W        W53643  11.203  33.069  14.330
85314W        W53644  31.946  43.886  14.777
85315W        W53645  28.971  35.102  13.015
85316W        W53646   7.733  22.200   3.665
85317W        W53647  27.608  39.983   0.867
85318W        W53648   8.746  17.764  14.949
85319W        W53649  41.362  39.046   3.326
85320W        W53650  21.754  22.638  11.581
85321W        W53651  23.498   1.753  12.476
85322W        W53652  36.457  15.105  13.477
85323W        W53653  26.644  35.959   1.747
85324W        W53654   0.825  36.991   4.833
85325W        W53655  35.553  22.621   3.848
85326W        W53656  29.108  27.455  14.306
85327W        W53657  44.955  31.635  11.100
85328W        W53658  24.999  11.782  10.533
85329W        W53659  19.743  28.450  13.898
85330W        W53660  16.755  24.060   0.330
85331W        W53661   4.269  16.223   3.861
85332W        W53662  43.930  21.213  11.451
85333W        W53663  20.723   3.303   3.702
85334W        W53664  18.589  18.054   1.750
85335W        W53665  27.994  23.135   4.156
85336W        W53666  14.182  26.654   3.210
85337W        W53667  38.011  25.976  14.345
85338W        W53668   1.360  31.511   4.338
85339W        W53669  16.673  13.141   1.332
85340W        W53670  25.677   5.924   4.143
85341W        W53671  27.678   9.681  14.849
85342W        W53672  10.879  34.501  10.971
85343W        W53673   6.822   2.959   1.872
85344W        W53674   7.388  23.044   2.310
85345W        W53675  25.194  41.524   4.218
85346W        W53676  30.545  28.961  14.346
85347W        W53677  29.957  29.128  13.475
85348W        W53678   8.881  39.895   1.215
85349W        W53679  21.231  23.539   3.706
85350W        W53680  17.714   8.704   2.262
85351W        W53681  33.422  13.281   5.118
85352W        W53682  33.402  27.632  10.619
85353W        W53683   2.917   4.296   4.651
85354W        W53684   0.970  16.731  13.962
85355W        W53685  23.736  24.099  12.575
85356W        W53686  38.993  18.100   3.273
85357W        W53687  33.023  39.056  13.903
85358W        W53688  12.719  36.398   3.380
85359W        W53689  13.671  16.713   4.285
85360W        W53690   0.901  12.824   3.721
85361W        W53691  18.267  28.958  13.346
85362W        W53692  31.101  33.875   4.289
85363W        W53693  33.470  30.946  10.949
85364W        W53694  43.437   1.414   4.639
85365W        W53695  17.588  26.613   0.484
85366W        W53696   3.435   4.899  10.620
85367W        W53697  35.494   0.466   4.812
85368W        W53698  35.083  32.540   4.234
85369W        W53699  21.606  21.047  13.949
85370W        W53700  26.549  10.382   1.732
85371W        W53701  20.070  29.548   2.880
85372W        W53702  15.265  30.431  12.840
85373W        W53703  43.992  11.308  11.927
85374W        W53704  15.138  33.491   0.285
85375W        W53705  41.021  39.841  14.449
85376W        W53706  36.899  19.252   4.322
85377W        W53707   9.382   8.228  14.026
85378W        W53708  21.121  19.222   1.762
85379W        W53709  21.115   0.475   0.447
85380W        W53710  27.989  38.908  14.802
85381W        W53711  42.950  19.534  13.866
85382W        W53712  32.918   6.753   0.267
85383W        W53713  20.640  39.543   0.282
85384W        W53714  36.843  18.685  11.943
85385W        W53715  25.116  31.992   0.325
85386W        W53716  15.755  13.799  14.800
85387W        W53717  13.195  16.295   4.806
85388W        W53718  16.608   3.923  11.012
85389W        W53719  20.636   7.319   2.818
85390W        W53720  21.731   5.386  13.339
85391W        W53721  34.441   5.205  11.597
85392W        W53722  20.723   2.728  11.886
85393W        W53723  23.992  13.189   4.835
85394W        W53724  17.299  41.426   4.333
85395W        W53725  14.275  11.739   4.836
85396W        W53726  18.222  11.760   2.178
85397W        W53727  41.034  27.013   0.250
85398W        W53728  31.936  19.152  13.396
85399W        W53729  14.703   6.839  13.436
85400W        W53730  13.686   8.175   0.319
85401W        W53731  24.148  26.547   2.793
85402W        W53732   9.347  21.571   1.320
85403W        W53733  25.198  24.087  12.574
85404W        W53734  35.535  21.719   3.208
85405W        W53735  44.797  16.217  12.370
85406W        W53736  37.456  28.507  14.438
85407W        W53737  43.470  25.113   4.338
85408W        W53738  17.624  30.454  13.473
85409W        W53739  26.196  39.510   0.789
85410W        W53740  28.636  27.143   2.228
85411W        W53741   1.937  44.462   0.894
85412W        W53742  14.823   5.856   2.776
85413W        W53743  36.032  41.419  11.379
85414W        W53744  27.077  23.577   1.337
85415W        W53745  28.589   9.863   1.776
85416W        W53746  23.535   7.904   4.724
85417W        W53747  24.555   3.954  12.578
85418W        W53748  19.121   4.783  12.996
85419W        W53749  23.151   7.239   4.647
85420W        W53750   7.786  41.337   2.231
85421W        W53751   5.811  10.754  14.455
85422W        W53752  44.756  38.529  13.878
85423W        W53753  15.820  10.851   2.704
85424W        W53754  31.596  16.285   3.652
85425W        W53755  20.688  29.475   3.360
85426W        W53756  19.750  22.527   1.409
85427W        W53757  44.269   0.957   4.720
85428W        W53758   2.778   6.393   4.772
85429W        W53759  42.837   7.760   4.625
85430W        W53760  26.684  28.937  14.439
85431W        W53761  12.779  36.995   1.222
85432W        W53762  22.191  40.339   4.654
85433W        W53763  17.211  21.587   3.856
85434W        W53764  13.609  38.539  14.457
85435W        W53765  25.084  13.829   0.863
85436W        W53766  26.116  32.631   4.627
85437W        W53767  32.998   9.876  12.473
85438W        W53768  15.252  25.001   1.921
85439W        W53769  42.901   6.718  13.011
85440W        W53770  37.035  15.714   4.321
85441W        W53771  16.295  39.922   4.230
85442W        W53772   4.302  10.700   1.365
85443W        W53773  39.529  37.837   3.235
85444W        W53774  36.354  16.234  10.896
85445W        W53775  25.192  32.486  11.579
85446W        W53776  28.478  36.519   2.332
85447W        W53777  21.033   5.830   1.255
85448W        W53778  11.160  33.990   3.714
85449W        W53779   7.323  43.270   4.213
85450W        W53780   5.220  20.270   0.394
85451W        W53781  20.233  35.358   4.723
85452W        W53782  29.544  18.595   4.668
85453W        W53783  33.577  13.630  10.012
85454W        W53784   1.956  26.667  13.544
85455W        W53785  27.639   4.777   1.280
85456W        W53786  26.535   1.277   2.824
85457W        W53787  40.983   9.758  11.888
85458W        W53788  32.888  10.852  13.015
85459W        W53789   2.746  33.893   1.700
85460W        W53790  41.900  38.412   3.814
85461W        W53791  26.174  30.649   2.183
85462W        W53792  16.797  37.043  14.016
85463W        W53793  18.109  31.905   4.651
85464W        W53794  22.595  15.083  11.446
85465W        W53795  36.404  37.998  14.028
85466W        W53796  21.027  28.674   2.391
85467W        W53797  31.589   8.813  12.044
85468W        W53798  13.253  16.197  12.061
85469W        W53799   5.904  13.602  14.314
85470W        W53800   8.236  18.230   1.402
85471W        W53801  43.907  17.154   0.326
85472W        W53802  11.643  28.620   0.949
85473W        W53803  12.270  39.490   1.795
85474W        W53804  12.854   0.785   0.431
85475W        W53805   5.833  18.745  14.001
85476W        W53806  16.277  17.635   0.873
85477W        W53807   4.337   0.493   4.115
85478W        W53808  19.165  17.067   3.648
85479W        W53809  23.216  35.602  13.398
85480W        W53810  13.650  15.099  11.894
85481W        W53811  22.741  18.559  14.296
85482W        W53812  24.199  40.918  13.472
85483W        W53813  28.053   0.361   4.717
85484W        W53814  17.155  30.625  13.541
85485W        W53815  43.272  20.253  14.422
85486W        W53816  11.663  18.092   1.336
85487W        W53817  13.745  17.196   4.668
85488W        W53818   1.892  21.069   0.783
85489W        W53819  33.405  20.675   0.437
85490W        W53820  16.078  43.844   4.212
85491W        W53821  31.132  38.536  14.954
85492W        W53822  34.992  37.996   0.317
85493W        W53823  34.486  10.836   4.273
85494W        W53824  42.357  17.258   0.421
85495W        W53825  14.138   2.293   1.725
85496W        W53826   5.281  38.481  12.092
85497W        W53827  31.497  14.659  11.071
85498W        W53828  17.646  18.231   3.733
85499W        W53829  38.031  28.113  11.863
85500W        W53830  11.280  27.945  10.636
85501W        W53831  13.286  42.988  11.574
85502W        W53832  10.773  15.224  13.510
85503W        W53833  25.527  22.634   0.905
85504W        W53834  24.080   4.852   2.721
85505W        W53835  14.298  42.841  12.513
85506W        W53836  25.658  35.371  13.320
85507W        W53837  11.783  25.013  14.495
85508W        W53838  33.928  39.885  11.085
85509W        W53839  29.653   5.314  11.113
85510W        W53840  43.905  31.471  13.028
85511W        W53841  39.953  25.558   2.245
85512W        W53842  22.086  29.056   4.186
85513W        W53843   2.235  33.074  12.367
85514W        W53844  15.140  22.215   2.782
85515W        W53845  30.028  26.040   4.666
85516W        W53846  22.199   4.824  14.978
85517W        W53847  17.683  12.209   0.397
85518W        W53848  21.615   2.757  12.924
85519W        W53849  18.682   2.416  11.070
85520W        W53850   6.185   3.886  14.414
85521W        W53851  14.328  23.590   1.401
85522W        W53852  14.140  15.325   0.469
85523W        W53853   7.719  38.350   4.189
85524W        W53854   4.333   5.733   3.258
85525W        W53855  39.914   1.799   0.913
85526W        W53856   0.396  24.167  14.434
85527W        W53857  27.149  33.418   5.575
85528W        W53858  21.589   3.885   2.373
85529W        W53859  28.442  40.480   0.789
85530W        W53860  29.443  20.119   3.641
85531W        W53861  25.090  31.475   0.349
85532W        W53862  29.460  40.531  14.485
85533W        W53863  41.970   2.365  13.446
85534W        W53864  33.956   9.805  12.971
85535W        W53865   1.947  27.067   2.843
85536W        W53866  39.334   9.391   1.865
85537W        W53867  11.825  15.187  11.976
85538W        W53868  40.450   1.328  14.764
85539W        W53869  43.449  35.879  14.870
85540W        W53870  26.511  27.586  11.578
85541W        W53871  26.554  27.129  14.901
85542W        W53872  27.107   0.314  11.955
85543W        W53873  38.827  31.542   0.746
85544W        W53874  41.422  22.033   2.403
85545W        W53875  24.550  32.955  14.307
85546W        W53876  11.801  29.153   3.198
85547W        W53877  44.501  19.057  11.933
85548W        W53878  22.535  20.763  13.002
85549W        W53879   8.369  24.066   1.279
85550W        W53880  24.196   6.874   4.284
85551W        W53881  24.978  23.636  11.509
85552W        W53882  14.292  12.703  10.888
85553W        W53883  31.075   7.211  14.485
85554W        W53884   6.870  20.105   4.224
85555W        W53885  41.449  39.888   4.619
85556W        W53886   7.284  26.543  14.950
85557W        W53887  44.876  34.871   1.240
85558W        W53888  29.143  42.857  12.495
85559W        W53889  38.832  19.284  11.495
85560W        W53890  20.169  12.351  13.021
85561W        W53891   1.297  10.718  12.358
85562W        W53892   9.822  44.871   0.473
85563W        W53893  16.299  21.251   1.397
85564W        W53894   3.951   8.829   0.754
85565W        W53895  43.275  11.201  10.520
85566W        W53896  15.247  32.925   4.201
85567W        W53897  13.645  24.076   3.200
85568W        W53898  24.607  10.327   4.706
85569W        W53899  20.672  21.079  11.490
85570W        W53900  40.047  20.712   2.270
85571W        W53901  16.144  30.057  13.991
85572W        W53902  13.763  28.162  14.461
85573W        W53903  20.153  14.748   2.739
85574W        W53904  44.801   9.271  10.446
85575W        W53905   7.298  44.373  10.557
85576W        W53906  24.619   0.772  10.613
85577W        W53907  38.055  28.551   4.118
85578W        W53908  20.741  26.467  14.445
85579W        W53909  28.941  41.415   1.335
85580W        W53910  19.736   6.821   3.804
85581W        W53911  24.054  42.912   3.662
85582W        W53912  29.010   0.850   0.779
85583W        W53913  32.485   6.269  11.042
85584W        W53914   7.797  12.192   2.823
85585W        W53915  24.151  37.423   0.942
85586W        W53916  24.689   6.349  11.046
85587W        W53917  44.376  41.802  13.453
85588W        W53918  17.597  13.733   2.353
85589W        W53919  27.183   9.318  10.100
85590W        W53920  14.282  12.639  12.827
85591W        W53921  39.899   1.319  13.345
85592W        W53922  12.178  10.801  11.392
85593W        W53923  36.910  38.538   3.184
85594W        W53924   4.333  31.023  11.434
85595W        W53925  19.219  29.059   9.458
85596W        W53926  13.126  28.109  11.601
85597W        W53927  14.730  28.158  10.571
85598W        W53928   9.378  36.085  14.453
85599W        W53929   4.820  22.208   2.847
85600W        W53930  44.300  36.478   5.300
85601W        W53931  13.749  21.171  13.446
85602W        W53932  39.420  21.629  10.934
85603W        W53933  24.531  15.808  12.091
85604W        W53934  13.831  35.977   1.835
85605W        W53935  23.685   7.835  13.423
85606W        W53936  31.993  29.020  12.956
85607W        W53937   4.428   6.788   0.314
85608W        W53938  35.101  25.508   4.224
85609W        W53939  31.940   2.733  13.439
85610W        W53940  15.773   0.755  14.422
85611W        W53941  36.861  30.938  11.566
85612W        W53942  36.423  44.862   1.295
85613W        W53943  27.171  31.473  10.611
85614W        W53944  10.294  11.767  12.528
85615W        W53945   2.377  17.683  13.387
85616W        W53946  26.566  12.330  13.933
85617W        W53947   7.206  19.061   4.256
85618W        W53948   0.753  35.895  12.536
85619W        W53949  43.411  15.817  14.002
85620W        W53950  16.736  27.153  12.096
85621W        W53951  42.832  13.179   2.269
85622W        W53952  11.127  18.649   3.359
85623W        W53953  25.980  22.682   0.384
85624W        W53954  25.127  38.971   3.245
85625W        W53955   0.281  38.836  11.108
85626W        W53956  35.085  32.977   3.162
85627W        W53957  18.272  19.106   3.191
85628W        W53958   0.894   8.796   3.188
85629W        W53959  13.184  17.287  13.408
85630W        W53960  20.241   8.821   0.883
85631W        W53961  13.211  17.774  12.033
85632W        W53962  44.992  11.722   0.451
85633W        W53963  36.388  33.456   9.967
85634W        W53964  25.020   9.714  14.805
85635W        W53965   2.396  20.218   4.785
85636W        W53966  15.717  14.173   4.661
85637W        W53967  20.182   3.302  11.858
85638W        W53968  32.976  22.633   1.862
85639W        W53969  14.204  33.886   2.661
85640W        W53970  13.709  13.691  13.531
85641W        W53971  10.799  10.149   3.852
85642W        W53972  23.583   9.645   4.340
85643W        W53973  26.019  37.865  12.889
85644W        W53974  23.989   3.331  13.421
85645W        W53975  34.488  28.018   2.247
85646W        W53976  32.467  41.355  12.966
85647W        W53977  28.951  42.856  13.872
85648W        W53978  40.414  42.319  13.892
85649W        W53979   9.380  24.661   3.793
85650W        W53980  40.942   6.279  14.815
85651W        W53981  26.141   1.249  13.846
85652W        W53982  19.082   0.282  14.001
85653W        W53983  23.624  10.841  12.854
85654W        W53984  22.660  36.485  11.105
85655W        W53985  18.558  38.058   3.272
85656W        W53986   9.391  14.678   3.760
85657W        W53987  18.284  30.600  12.055
85658W        W53988  21.722  16.294   5.200
85659W        W53989  22.576  33.538   2.216
85660W        W53990  35.404   6.399  13.925
85661W        W53991  38.076  41.409   4.707
85662W        W53992  41.794   2.825   3.734
85663W        W53993   8.801  37.848   0.251
85664W        W53994  24.152  18.151   3.679
85665W        W53995   9.808   0.326  11.592
85666W        W53996  31.062  31.531   4.661
85667W        W53997  22.645  14.158  13.849
85668W        W53998  22.615  23.146  13.931
85669W        W53999  12.708  16.710  12.395
85670W        W54000   9.676  25.007  12.899
85671W        W54001  23.579   1.389  11.565
85672W        W54002  29.601  33.964   0.893
85673W        W54003  34.569  36.884   0.356
85674W        W54004  28.018   0.272  13.800
85675W        W54005  20.200  42.375   3.658
85676W        W54006  24.223  13.747  13.414
85677W        W54007  13.763  12.614  12.863
85678W        W54008  11.630  23.554  10.515
85679W        W54009  42.286  24.485   3.790
85680W        W54010   6.914  41.014  11.420
85681W        W54011  41.521  25.597   3.851
85682W        W54012  10.704   1.378  14.359
85683W        W54013  44.391  13.339  12.341
85684W        W54014   0.471  37.076   1.886
85685W        W54015  40.846  38.853   0.898
85686W        W54016  34.042  16.599  11.407
85687W        W54017  28.681  24.184   4.170
85688W        W54018  27.485   4.368  12.569
85689W        W54019  12.693  19.151  12.381
85690W        W54020  10.222   4.703  11.975
85691W        W54021   8.722  42.841  12.376
85692W        W54022   7.804  20.591  10.631
85693W        W54023   7.177   9.692   1.244
85694W        W54024  38.405  12.301   1.929
85695W        W54025  12.155   3.866  11.447
85696W        W54026  17.121  23.142   3.256
85697W        W54027  35.568  17.182  12.541
85698W        W54028  37.552  33.389   1.932
85699W        W54029   0.783  39.022  11.502
85700W        W54030   6.313  17.224   1.837
85701W        W54031  16.710  43.274   1.423
85702W        W54032  10.706  30.989  14.025
85703W        W54033  43.938   2.874   2.893
85704W        W54034  24.514  27.560  12.488
85705W        W54035  42.786  32.110  14.388
85706W        W54036  23.699   1.286  14.764
85707W        W54037  20.103   3.360   4.183
85708W        W54038   9.340  11.285   2.341
85709W        W54039  12.651  37.360   3.380
85710W        W54040  42.419  11.161   2.776
85711W        W54041  13.308  16.783  12.483
85712W        W54042  16.606  38.898   1.325
85713W        W54043  35.004  26.678   5.179
85714W        W54044  40.934  22.507  14.392
85715W        W54045  36.000  41.032   1.897
85716W        W54046   4.407   2.275   4.278
85717W        W54047  24.538  12.831   3.299
85718W        W54048  37.549  44.484   3.846
85719W        W54049  43.423   1.241   2.230
85720W        W54050  12.270  14.297  11.464
85721W        W54051   7.188  10.721  11.552
85722W        W54052  29.091  10.186  11.378
85723W        W54053  42.315  42.323   4.731
85724W        W54054   7.719  25.699  14.809
85725W        W54055  27.484  24.600   4.779
85726W        W54056  30.997   0.370   1.383
85727W        W54057  11.204   2.250  13.538
85728W        W54058  26.153  25.674  10.917
85729W        W54059  21.680  21.142  14.851
85730W        W54060  16.744   3.284  11.972
85731W        W54061   9.696  27.569   2.719
85732W        W54062  11.345   5.321   4.263
85733W        W54063  41.486  41.849  13.423
85734W        W54064  27.082   5.707   0.866
85735W        W54065  37.371  24.593   3.166
85736W        W54066  30.591  41.953  14.963
85737W        W54067   4.397  18.243   3.317
85738W        W54068   2.334  27.122   4.792
85739W        W54069  13.817  14.758   0.795
85740W        W54070  25.148   5.931  11.575
85741W        W54071  31.546  32.066   4.741
85742W        W54072  31.925  28.974   3.669
85743W        W54073   9.325   8.400   1.842
85744W        W54074  35.091   3.350   4.194
85745W        W54075  26.975  44.856  12.861
85746W        W54076  11.211   4.868   2.799
85747W        W54077  31.603  38.440  11.536
85748W        W54078  37.506  10.835   3.832
85749W        W54079  40.385  11.627   3.269
85750W        W54080  39.483  26.673  12.011
85751W        W54081  18.716  39.494   4.652
85752W        W54082  32.409  35.427  11.522
85753W        W54083  44.296  14.806   0.303
85754W        W54084  21.694  35.431  11.472
85755W        W54085  25.516  39.975  10.997
85756W        W54086  42.337  10.158  13.420
85757W        W54087  29.444  20.593   4.304
85758W        W54088  13.756  31.971  11.540
85759W        W54089   8.831  11.243  14.785
85760W        W54090   0.812   1.341   0.952
85761W        W54091  39.497  38.897  11.423
85762W        W54092  28.137  27.082  13.309
85763W        W54093  27.164   0.387   3.353
85764W        W54094  10.198  16.670  14.359
85765W        W54095  37.475  33.027  11.861
85766W        W54096  30.160  19.632   1.866
85767W        W54097  26.096  30.539   1.817
85768W        W54098  39.543  23.626  12.426
85769W        W54099  39.956  17.195   2.701
85770W        W54100   3.435   8.771  14.488
85771W        W54101  15.662  11.862   2.811
85772W        W54102  30.617  23.145   5.169
85773W        W54103  31.452  35.491  10.550
85774W        W54104  41.455  14.340   2.807
85775W        W54105  30.031  10.155   1.817
85776W        W54106  20.071  31.900   3.350
85777W        W54107  44.283   1.306   4.759
85778W        W54108  25.580  36.450   2.417
85779W        W54109  22.163  20.748  12.438
85780W        W54110   6.894  40.048   1.863
85781W        W54111  43.991  37.502  14.285
85782W        W54112  34.520  18.663   1.809
85783W        W54113  25.511  27.039  13.039
85784W        W54114   9.392   1.240   1.325
85785W        W54115  38.354  38.975   1.761
85786W        W54116  18.128  29.632  11.001
85787W        W54117  25.655  17.194   1.214
85788W        W54118   8.362  20.251   4.814
85789W        W54119   6.409  35.956   5.148
85790W        W54120  20.200  29.957  12.544
85791W        W54121  19.196  29.510   2.824
85792W        W54122  44.951  38.945   2.364
85793W        W54123  39.352  24.053   1.227
85794W        W54124   3.761   9.818   4.123
85795W        W54125  29.539  43.322  10.934
85796W        W54126   7.255  25.026   4.718
85797W        W54127  35.886   8.752  12.551
85798W        W54128   0.373   2.297  13.546
85799W        W54129  39.316   5.702  13.311
85800W        W54130  41.490  12.163  11.008
85801W        W54131   3.930  36.088  11.023
85802W        W54132  35.507  40.464  11.972
85803W        W54133  27.534  12.727  11.576
85804W        W54134   2.289  20.557   3.279
85805W        W54135  27.946  10.171   3.776
85806W        W54136   1.951  44.338  10.405
85807W        W54137   7.753  20.748  12.387
85808W        W54138  29.569   9.792  14.923
85809W        W54139   4.286   1.933   3.223
85810W        W54140  39.808   7.686   5.730
85811W        W54141  19.581  39.053   4.784
85812W        W54142  18.617  12.685  11.588
85813W        W54143  11.743   8.707  10.501
85814W        W54144  10.759   8.215   3.850
85815W        W54145  26.634  37.079   2.679
85816W        W54146  35.972  19.700  13.391
85817W        W54147   5.810  42.302  10.415
85818W        W54148  39.030  14.611   3.264
85819W        W54149  32.584  32.423  12.855
85820W        W54150  25.468  39.866  14.312
85821W        W54151  28.442  40.456  12.094
85822W        W54152  40.528  29.065   0.733
85823W        W54153  11.797  17.603  12.578
85824W        W54154  41.293  12.760   3.338
85825W        W54155  15.656  30.495   2.318
85826W        W54156  24.534  27.143   2.279
85827W        W54157   7.813  27.011  13.042
85828W        W54158  31.630  41.436  11.431
85829W        W54159  41.005  15.220  13.397
85830W        W54160  40.054  16.089   3.289
85831W        W54161  42.886  37.541   3.343
85832W        W54162  27.613  35.891  13.532
85833W        W54163   4.808  28.092   1.396
85834W        W54164   8.256  26.513  13.058
85835W        W54165  31.019  11.202  10.510
85836W        W54166  32.544  29.090  13.042
85837W        W54167  29.557  33.966  12.443
85838W        W54168  32.053  28.068   0.864
85839W        W54169   9.365  21.058  10.054
85840W        W54170  24.710  34.954  11.092
85841W        W54171  11.796  28.635   4.615
85842W        W54172  32.117  30.657   2.359
85843W        W54173  41.929  36.929   2.733
85844W        W54174  28.972  32.514   3.237
85845W        W54175  42.326  40.824  11.051
85846W        W54176  21.135   0.423  10.421
85847W        W54177  34.039  35.067  12.386
85848W        W54178  35.550  10.334   0.779
85849W        W54179  12.772  39.001  11.967
85850W        W54180  23.136  30.568   5.260
85851W        W54181  29.435  11.831  12.825
85852W        W54182   5.430  20.749   2.387
85853W        W54183  22.109  32.516   0.957
85854W        W54184   9.766   5.193   3.341
85855W        W54185   8.219   4.725  13.981
85856W        W54186   8.277  41.978  10.982
85857W        W54187  35.948  31.103   1.883
85858W        W54188  15.212  16.239   1.364
85859W        W54189  41.805  26.108  12.485
85860W        W54190  38.842  19.163  13.945
85861W        W54191   1.295  30.140  11.546
85862W        W54192  20.704   1.830   4.144
85863W        W54193  37.943  13.330   1.907
85864W        W54194   2.320  42.851   3.779
85865W        W54195  37.362  37.338  14.427
85866W        W54196  37.885  42.308   2.411
85867W        W54197  18.219   3.864   1.744
85868W        W54198   5.825  43.473  13.803
85869W        W54199  26.010  32.942  11.568
85870W        W54200   4.282   7.380  11.963
85871W        W54201  18.170  44.923  10.542
85872W        W54202  42.478  24.182   2.404
85873W        W54203  35.014  11.742   4.213
85874W        W54204   9.168  40.468  12.908
85875W        W54205  30.990   9.213  14.902
85876W        W54206  11.154  40.974   0.348
85877W        W54207  34.070  37.374   5.152
85878W        W54208   0.291  16.083   3.229
85879W        W54209  32.037  19.042  14.474
85880W        W54210  18.744  42.521  13.404
85881W        W54211   5.227   4.768  14.988
85882W        W54212  15.156   5.351   2.325
85883W        W54213  28.473  11.810  10.576
85884W        W54214   5.349  11.771   2.247
85885W        W54215  27.480  25.585   4.340
85886W        W54216  16.695  27.134   1.335
85887W        W54217  15.085  37.942   0.867
85888W        W54218  44.882  18.577   2.229
85889W        W54219   5.342  25.962  12.408
85890W        W54220  26.994  35.905  13.478
85891W        W54221  24.481  14.753  14.475
85892W        W54222  13.330  40.400   2.754
85893W        W54223  26.029   0.774  11.611
85894W        W54224   4.901  40.347  14.986
85895W        W54225   6.390  22.550  12.024
85896W        W54226  29.669   6.408  10.994
85897W        W54227  41.985  29.641  12.408
85898W        W54228   0.786  19.184   2.220
85899W        W54229  12.146  37.060  12.030
85900W        W54230  13.266  15.270   2.734
85901W        W54231  27.134  32.134   1.280
85902W        W54232  12.653  20.179  12.410
85903W        W54233  38.927  42.297  13.923
85904W        W54234  22.063  23.130  11.535
85905W        W54235   0.259  38.059   4.813
85906W        W54236   1.884  24.136   2.683
85907W        W54237  13.251   8.791  12.059
85908W        W54238   5.931  40.496  11.052
85909W        W54239  26.542  35.883   1.346
85910W        W54240   9.346   4.927   2.365
85911W        W54241  12.693  25.140  14.825
85912W        W54242  28.462   0.779   4.225
85913W        W54243  31.520  21.741   5.208
85914W        W54244  43.788  13.730   0.913
85915W        W54245  16.187  41.464   0.453
85916W        W54246   0.813  10.229  14.995
85917W        W54247   4.425   0.744  12.921
85918W        W54248  41.968  25.134  14.881
85919W        W54249  17.597  27.045  12.536
85920W        W54250  31.565  28.574  12.831
85921W        W54251  33.934  21.119  13.044
85922W        W54252  33.092  38.031   4.711
85923W        W54253  43.869  29.008  10.928
85924W        W54254  25.518  44.427  14.785
85925W        W54255   0.317   7.714  13.992
85926W        W54256  19.136  42.384   2.179
85927W        W54257  10.766  38.414   2.300
85928W        W54258   3.765  12.775   5.281
85929W        W54259  40.435  43.317   2.690
85930W        W54260  17.605  30.972   3.200
85931W        W54261  31.471  17.267  11.914
85932W        W54262  14.742  37.407  12.885
85933W        W54263  18.243  37.924  12.563
85934W        W54264  16.141  31.621   4.207
85935W        W54265  28.085  19.077   1.910
85936W        W54266  20.580   2.378   2.339
85937W        W54267  23.242  20.742  12.411
85938W        W54268  27.165  28.470  13.980
85939W        W54269  19.188  44.800  14.777
85940W        W54270   5.708  21.580   3.692
85941W        W54271   3.809  42.914   0.383
85942W        W54272   8.660  14.149   2.246
85943W        W54273  22.554   8.874  12.498
85944W        W54274  44.978  27.673   3.263
85945W        W54275  32.417  13.323  14.021
85946W        W54276  10.788  27.024  12.398
85947W        W54277  19.703  16.283   0.793
85948W        W54278  26.112  21.111  11.085
85949W        W54279  12.813  15.782  13.019
85950W        W54280  43.015  40.331  13.512
85951W        W54281  11.800   1.323  10.621
85952W        W54282  41.025  35.856   3.346
85953W        W54283   4.443  29.658  11.927
85954W        W54284  29.056  23.596   2.870
85955W        W54285  43.769  27.649  13.363
85956W        W54286  22.153  28.095  14.978
85957W        W54287   7.313   7.675   1.920
85958W        W54288  35.596  19.228   3.697
85959W        W54289  12.266   8.747  14.301
85960W        W54290  19.282   0.293   4.723
85961W        W54291   4.206  43.941   1.245
85962W        W54292  17.168  26.958  13.000
85963W        W54293   0.307   9.807  11.889
85964W        W54294  38.460  37.832  14.843
85965W        W54295   2.259  14.183   3.274
85966W        W54296   7.876  16.205  14.920
85967W        W54297  18.554  43.465  10.584
85968W        W54298  11.170  32.935  10.515
85969W        W54299  15.622  23.127   3.171
85970W        W54300   6.362  34.879  14.997
85971W        W54301  14.216  43.472   1.832
85972W        W54302  23.029  38.045   0.847
85973W        W54303  22.055   6.759   1.283
85974W        W54304  43.969  12.204   3.222
85975W        W54305  37.539   2.906  13.350
85976W        W54306  27.039  15.810  11.860
85977W        W54307  11.319  41.391  11.115
85978W        W54308   6.329  37.940   3.799
85979W        W54309  24.034  42.939   0.246
85980W        W54310   6.285   2.446  11.064
85981W        W54311  29.028  11.168   2.378
85982W        W54312  28.593  42.340   2.308
85983W        W54313   9.775  11.681  14.315
85984W        W54314  32.442  21.729   5.653
85985W        W54315  30.119  18.246  12.385
85986W        W54316  33.615  41.999   2.805
85987W        W54317   3.452  43.857  11.392
85988W        W54318  44.344  31.141   2.211
85989W        W54319  21.043  37.940   0.358
85990W        W54320  15.160  37.557  10.094
85991W        W54321  17.782  31.091   0.414
85992W        W54322   9.723  15.703  10.942
85993W        W54323  38.939   9.380  12.886
85994W        W54324   1.821  18.729   2.810
85995W        W54325   6.692   5.435  12.838
85996W        W54326  23.641  10.346   0.738
85997W        W54327   8.188  42.989   0.335
85998W        W54328  24.522   5.856   1.810
85999W        W54329  15.210  38.506  14.491
86000W        W54330  18.592  21.194  10.438
86001W        W54331   1.288  25.109   3.328
86002W        W54332  40.421  36.464   1.327
86003W        W54333  24.207  23.037   1.722
86004W        W54334  32.488  37.047   3.381
86005W        W54335  20.532  29.528  12.902
86006W        W54336  30.634  24.180   0.791
86007W        W54337   5.230   5.749   0.814
86008W        W54338  38.383  35.037  13.372
86009W        W54339   3.408  19.644  12.872
86010W        W54340  17.195  41.988  13.960
86011W        W54341  17.100   1.811  14.508
86012W        W54342  19.707  34.615  10.002
86013W        W54343  32.563  14.719   1.416
86014W        W54344  27.186   3.867   2.707
86015W        W54345  32.025  22.084   3.704
86016W        W54346  33.580   2.770  13.795
86017W        W54347  14.297  39.817  14.299
86018W        W54348  36.477   2.764   3.679
86019W        W54349   4.873  34.883   5.252
86020W        W54350   9.786  34.113  10.629
86021W        W54351  10.357   0.764  13.477
86022W        W54352  16.595   4.735  11.597
86023W        W54353  26.639   9.847  13.823
86024W        W54354  29.459  40.495   5.089
86025W        W54355  25.546  40.531  14.872
86026W        W54356  33.597  21.230   0.762
86027W        W54357  15.700  10.200   2.317
86028W        W54358  39.941  32.560  11.609
86029W        W54359  13.809   1.815  10.600
86030W        W54360  32.121  37.083  10.903
86031W        W54361  42.338   9.245  12.350
86032W        W54362  22.039  17.285  14.919
86033W        W54363  37.033  36.877   4.157
86034W        W54364  34.078   9.317  10.998
86035W        W54365  41.476   5.711  13.823
86036W        W54366  21.254  31.042  10.040
86037W        W54367  42.890  18.087   3.156
86038W        W54368  26.470  25.709  14.508
86039W        W54369  33.440  28.587  11.886
86040W        W54370   2.733   5.412  14.874
86041W        W54371  31.553  31.614   2.785
86042W        W54372  42.492  13.626  14.430
86043W        W54373   6.240   4.707   4.289
86044W        W54374  43.486   0.427  11.516
86045W        W54375   9.852   6.349   3.379
86046W        W54376  21.036  31.569   2.823
86047W        W54377  39.457  10.760   2.407
86048W        W54378   9.715  17.670  11.079
86049W        W54379  19.618   1.261  12.383
86050W        W54380  19.192  41.002   2.385
86051W        W54381  26.021  13.627   0.423
86052W        W54382  37.558  22.600  14.985
86053W        W54383  39.397   1.959   2.758
86054W        W54384  37.906  34.606   2.326
86055W        W54385  30.932  28.988   0.315
86056W        W54386   0.986  11.773   4.608
86057W        W54387  38.415   3.798  13.471
86058W        W54388  43.815  26.056  12.982
86059W        W54389  26.969  10.187  10.612
86060W        W54390   3.945  16.747  11.989
86061W        W54391  37.475  22.603  13.491
86062W        W54392  42.426  19.282   3.370
86063W        W54393  18.721  33.036   0.288
86064W        W54394  21.082   2.359   5.201
86065W        W54395  18.087  28.596  12.839
86066W        W54396  26.684  36.353  11.013
86067W        W54397  43.422  34.469   3.208
86068W        W54398  39.443  27.038   0.406
86069W        W54399   5.370  44.462   4.793
86070W        W54400  17.725  38.898   0.757
86071W        W54401  17.791  42.429  13.471
86072W        W54402  37.990  37.573  12.864
86073W        W54403   1.247   4.239  14.917
86074W        W54404   4.447  29.601  14.475
86075W        W54405   7.773  38.443  14.406
86076W        W54406  21.717   7.207   0.908
86077W        W54407   2.753  15.313  13.539
86078W        W54408  30.455  25.968   1.328
86079W        W54409  39.514  44.922   3.635
86080W        W54410  44.289  44.958  12.392
86081W        W54411  39.922   5.255  11.090
86082W        W54412   3.422  42.363  10.609
86083W        W54413  38.911  42.905   4.718
86084W        W54414   0.468  27.178   3.228
86085W        W54415  33.585   7.798   4.133
86086W        W54416  37.957  32.099   0.265
86087W        W54417   9.876  30.543   1.807
86088W        W54418  30.580  42.395   1.869
86089W        W54419  14.697  26.467   2.308
86090W        W54420  31.555   0.340   4.664
86091W        W54421  36.860  40.527   2.346
86092W        W54422  30.598  13.112   2.340
86093W        W54423  42.852  34.893  10.989
86094W        W54424  12.338  34.028   3.661
86095W        W54425  14.222   3.377   3.179
86096W        W54426  40.473   2.356  13.333
86097W        W54427  20.587  23.505   3.363
86098W        W54428   3.716  30.573   1.250
86099W        W54429  44.292   4.293  11.020
86100W        W54430  29.146  33.513  13.063
86101W        W54431  34.988  10.340  10.139
86102W        W54432  29.493  33.463  11.426
86103W        W54433  36.416  12.855  13.398
86104W        W54434  12.116  43.353  12.425
86105W        W54435  29.971  13.815  12.900
86106W        W54436  15.323  39.861   2.788
86107W        W54437  35.067  25.484   1.438
86108W        W54438  26.466   8.829  13.473
86109W        W54439  26.173  22.154   0.751
86110W        W54440   5.792   2.810   4.660
86111W        W54441  34.502   5.854  13.407
86112W        W54442   9.186  11.624  10.405
86113W        W54443  21.109  30.984  10.959
86114W        W54444  36.850  10.712   4.792
86115W        W54445  43.798   7.701  14.332
86116W        W54446  17.079  20.229  12.900
86117W        W54447  37.582  15.616  12.452
86118W        W54448  30.587  10.169   5.317
86119W        W54449  18.605  42.808  13.923
86120W        W54450  43.492  19.090  11.503
86121W        W54451  19.695  20.190  13.308
86122W        W54452  28.074  22.158   4.196
86123W        W54453  20.205  40.038   0.938
86124W        W54454  15.176  20.215  12.045
86125W        W54455  22.703  28.661   3.734
86126W        W54456  19.700  34.406   2.389
86127W        W54457  17.276  24.980   0.843
86128W        W54458  31.429   9.331  14.417
86129W        W54459  28.009   3.943  13.340
86130W        W54460   3.302  14.709   0.299
86131W        W54461  16.176  33.505  13.929
86132W        W54462  42.799  29.486   5.184
86133W        W54463   5.347  35.919  12.527
86134W        W54464  23.561  28.064  13.503
86135W        W54465  29.540  38.881  13.980
86136W        W54466  34.596   1.276   0.294
86137W        W54467  37.888  15.266   0.961
86138W        W54468  11.654  19.048  14.370
86139W        W54469   0.435  10.687  11.413
86140W        W54470  43.819  29.020  13.962
86141W        W54471  32.932  19.140  13.423
86142W        W54472  41.365  28.483   1.866
86143W        W54473  24.589  43.305  14.956
86144W        W54474  12.771  43.300   1.704
86145W        W54475  37.500  36.873  11.501
86146W        W54476  34.447  20.236  10.405
86147W        W54477  25.145  27.991  14.408
86148W        W54478  29.131  24.690   2.398
86149W        W54479  39.330   2.455  13.320
86150W        W54480   6.403  29.642  10.041
86151W        W54481  25.677  38.026  14.479
86152W        W54482  26.127  33.446   3.160
86153W        W54483   0.936   1.387  13.898
86154W        W54484   1.914   3.256   3.179
86155W        W54485  40.401   0.386   4.276
86156W        W54486  29.947   7.909   1.729
86157W        W54487  38.368  30.109   3.272
86158W        W54488   9.787  15.132  12.443
86159W        W54489  36.449  26.642   4.769
86160W        W54490  21.562  15.112   2.389
86161W        W54491  42.811  30.468  10.423
86162W        W54492  29.503  20.225   4.298
86163W        W54493  42.828   3.817   4.316
86164W        W54494   5.424  35.004  13.952
86165W        W54495   0.828  37.993   4.830
86166W        W54496  42.993  37.338  10.495
86167W        W54497  26.148  24.086  13.435
86168W        W54498   2.470  43.835  11.486
86169W        W54499  37.060  40.960   4.179
86170W        W54500  25.483   5.919   3.762
86171W        W54501   9.376  13.298   4.604
86172W        W54502  41.965   7.723   1.298
86173W        W54503  11.252  44.950  10.528
86174W        W54504  11.332  20.195   2.887
86175W        W54505  31.542  24.501  13.402
86176W        W54506  41.317   7.721   3.713
86177W        W54507   0.278  29.639  11.983
86178W        W54508   9.211  33.504   3.838
86179W        W54509  23.198  39.909  12.449
86180W        W54510   5.363   4.299  11.515
86181W        W54511  22.743  11.307   3.844
86182W        W54512   2.847  38.834   1.389
86183W        W54513  17.706  30.526   4.124
86184W        W54514  23.142  27.118  14.907
86185W        W54515  24.211  15.220   4.322
86186W        W54516  39.946  10.290   4.298
86187W        W54517   2.332  34.576  14.396
86188W        W54518   8.203  39.514   3.299
86189W        W54519  16.739  38.399  13.821
86190W        W54520  39.967  18.115   4.646
86191W        W54521  12.777  16.706   4.598
86192W        W54522  26.009  43.440   0.727
86193W        W54523   9.716  28.655  12.893
86194W        W54524  12.833  17.669  13.929
86195W        W54525  15.317  29.447   1.298
86196W        W54526  30.095  17.179  12.893
86197W        W54527   2.398   4.335   2.303
86198W        W54528  36.588  12.214  11.876
86199W        W54529  12.346  36.366   2.263
86200W        W54530  29.149  14.612  12.989
86201W        W54531  11.271  19.258  12.978
86202W        W54532   1.332  13.168   3.816
86203W        W54533   0.969  40.994  14.932
86204W        W54534  32.559  14.305  11.473
86205W        W54535   1.452  30.978   2.181
86206W        W54536  36.419  28.036   2.362
86207W        W54537  40.982  40.320  11.406
86208W        W54538  33.563   0.916   3.744
86209W        W54539  13.271  43.489  12.873
86210W        W54540  39.393   0.814   4.714
86211W        W54541  29.069   7.361   1.370
86212W        W54542  13.723  22.671   3.362
86213W        W54543   7.388  24.180   0.281
86214W        W54544  37.045   9.696  10.459
86215W        W54545  22.529  31.044  10.130
86216W        W54546  21.711  31.037   0.925
86217W        W54547  36.527  30.578   4.211
86218W        W54548   8.178  27.076  10.433
86219W        W54549  33.991  33.547  13.337
86220W        W54550  15.296  13.140   0.468
86221W        W54551   8.694  35.923   3.822
86222W        W54552   1.775  11.674  11.086
86223W        W54553  10.874  14.291  13.344
86224W        W54554  31.078  23.505  10.555
86225W        W54555   6.188  32.593   1.398
86226W        W54556  13.173  19.578  12.459
86227W        W54557   9.742  12.671   4.620
86228W        W54558  44.807  22.693   4.693
86229W        W54559  29.427  40.881  11.585
86230W        W54560  17.555  42.804  10.486
86231W        W54561  15.725  35.482  10.037
86232W        W54562  21.630  23.026  14.917
86233W        W54563   5.231   2.381  14.944
86234W        W54564   0.828  38.516   3.356
86235W        W54565  34.053  37.017   2.329
86236W        W54566  24.592  41.524  13.908
86237W        W54567  39.441   6.185   2.406
86238W        W54568  44.497  36.579   2.722
86239W        W54569  34.563  40.533   0.277
86240W        W54570   6.700  34.408   2.817
86241W        W54571  28.942  10.721   3.309
86242W        W54572  25.707  22.604   2.818
86243W        W54573  17.287  26.472  12.996
86244W        W54574  19.573  15.283   0.463
86245W        W54575  18.770  38.485   0.863
86246W        W54576  41.008   4.781   2.204
86247W        W54577  41.981  34.473   2.206
86248W        W54578  30.475  17.606   3.228
86249W        W54579   9.712  33.597  11.914
86250W        W54580  40.027   8.164  13.411
86251W        W54581  21.163  26.995  10.618
86252W        W54582  35.932  44.838   1.333
86253W        W54583  37.876  23.014  10.565
86254W        W54584   6.692  36.978  14.412
86255W        W54585  21.613  13.609  14.460
86256W        W54586   0.292  14.127   4.760
86257W        W54587   8.835  15.659  13.415
86258W        W54588  10.723  27.050   0.727
86259W        W54589  36.903  34.534  13.885
86260W        W54590  12.766  19.267   0.783
86261W        W54591  27.944  18.744   4.798
86262W        W54592   8.199  41.456   3.656
86263W        W54593   7.177  26.571   0.792
86264W        W54594  31.647  10.718  11.878
86265W        W54595  27.517  41.886   3.353
86266W        W54596  43.817  29.967   0.800
86267W        W54597  17.668  40.426  14.794
86268W        W54598   7.389  35.423  12.075
86269W        W54599  28.016  22.735   3.779
86270W        W54600  41.968  42.465  10.492
86271W        W54601  29.939  10.149  11.485
86272W        W54602   9.304  39.364  14.379
86273W        W54603   9.346  38.075   0.301
86274W        W54604  33.110  41.365  10.575
86275W        W54605  38.056  18.552   0.271
86276W        W54606  15.668  29.039   2.212
86277W        W54607  23.592  14.603   3.207
86278W        W54608  41.535   1.321   1.253
86279W        W54609  39.374  41.497  12.558
86280W        W54610   6.728  40.352  14.423
86281W        W54611   7.686  36.013   3.848
86282W        W54612  21.107  20.121  10.899
86283W        W54613  11.215  21.569   1.384
86284W        W54614   1.428  28.962   2.851
86285W        W54615   2.887  38.840   0.965
86286W        W54616   0.953  33.531   2.839
86287W        W54617  43.319   5.904  13.315
86288W        W54618  21.068  41.800   0.332
86289W        W54619  20.260  44.946  13.844
86290W        W54620   2.291   5.795  14.461
86291W        W54621   5.238  31.441   1.913
86292W        W54622  34.528  17.783   0.794
86293W        W54623   8.730   1.431   0.826
86294W        W54624  13.228   3.380  14.902
86295W        W54625   3.916  15.288  11.449
86296W        W54626  43.329  13.789  12.979
86297W        W54627  21.087   3.796  10.992
86298W        W54628  38.411   0.388  12.487
86299W        W54629  29.997  12.363  13.487
86300W        W54630  12.616  16.768   3.245
86301W        W54631  44.813   2.756   1.381
86302W        W54632   6.261   1.445  10.981
86303W        W54633  44.889  12.661  13.060
86304W        W54634  26.187  17.729   2.217
86305W        W54635  34.105  38.035   4.203
86306W        W54636  11.154  23.668   4.711
86307W        W54637  17.744  44.343  11.537
86308W        W54638   4.920  35.449  12.018
86309W        W54639  12.645  25.562   3.714
86310W        W54640  41.419  35.464  13.058
86311W        W54641   0.305  37.500   0.352
86312W        W54642  34.374   0.908   0.283
86313W        W54643  43.277  13.126   4.664
86314W        W54644  12.199  20.094  14.889
86315W        W54645  42.012  29.169  14.353
86316W        W54646  24.202  14.825  11.402
86317W        W54647  21.052  44.774   4.251
86318W        W54648  28.063   3.392  10.539
86319W        W54649  23.534  20.087  14.310
86320W        W54650  16.262   6.404   3.306
86321W        W54651   7.801  35.900  12.431
86322W        W54652  21.203  43.309  12.026
86323W        W54653  40.332  17.600  13.472
86324W        W54654   7.347  22.222  14.449
86325W        W54655  34.941  14.200   1.367
86326W        W54656  10.260  10.220   4.285
86327W        W54657  32.517  10.659   0.940
86328W        W54658  13.663  27.956   1.723
86329W        W54659  25.135  42.407  13.425
86330W        W54660  43.306  24.637  13.953
86331W        W54661  39.350  39.975  14.314
86332W        W54662  41.950  36.983  11.581
86333W        W54663  38.834  20.660  13.386
86334W        W54664  34.917  36.841   2.738
86335W        W54665   2.465   2.842   2.855
86336W        W54666  11.132   4.897  11.022
86337W        W54667  16.633  34.406  12.355
86338W        W54668  44.009  38.427  11.929
86339W        W54669  31.492  21.626  12.436
86340W        W54670  26.030  31.439  10.559
86341W        W54671  29.148  25.115   1.742
86342W        W54672  22.724  33.497   1.776
86343W        W54673  31.063  26.628   0.360
86344W        W54674  28.443  13.755   4.755
86345W        W54675  29.981  18.721  14.824
86346W        W54676  43.778  13.652   1.825
86347W        W54677  20.562  27.956  13.022
86348W        W54678  36.886  35.961   3.817
86349W        W54679   6.908   9.368   4.772
86350W        W54680  22.101  38.880   2.413
86351W        W54681   2.424  14.822  11.447
86352W        W54682   2.870   7.184   1.267
86353W        W54683  22.091  43.812  10.525
86354W        W54684  18.072   4.305   4.207
86355W        W54685  26.202   4.710  12.420
86356W        W54686  42.354  25.551  13.012
86357W        W54687  39.380  18.278   4.651
86358W        W54688  20.149  40.374   4.271
86359W        W54689  12.359   3.277  13.992
86360W        W54690  19.214  34.087   4.306
86361W        W54691  12.123  18.547  13.910
86362W        W54692  18.547  37.523   3.778
86363W        W54693  20.749  21.057   0.920
86364W        W54694  13.180  15.282   4.204
86365W        W54695   2.834  13.789  14.360
86366W        W54696  24.723  39.495  14.339
86367W        W54697   9.329  24.122   9.938
86368W        W54698  19.088  20.587  13.469
86369W        W54699  23.056  36.492   3.827
86370W        W54700  35.576  18.235  12.895
86371W        W54701  24.655  43.357  11.445
86372W        W54702  17.722  21.168   0.869
86373W        W54703  41.801  38.376   2.243
86374W        W54704  25.088  19.081  14.884
86375W        W54705  39.905  16.163   1.878
86376W        W54706  22.134  26.639   2.733
86377W        W54707   8.845  34.929  12.026
86378W        W54708   1.888  15.744  13.864
86379W        W54709  12.263  26.476  13.335
86380W        W54710  19.140  30.058  14.451
86381W        W54711   1.262  15.596  12.415
86382W        W54712  25.530  13.181  13.362
86383W        W54713   0.761  25.569   4.835
86384W        W54714  38.337  11.766  14.898
86385W        W54715  15.692   5.806  10.603
86386W        W54716  23.044  21.568  12.360
86387W        W54717  43.932  31.981   2.415
86388W        W54718  25.565  37.515   0.747
86389W        W54719   4.432   0.379  10.454
86390W        W54720  42.804  24.517  13.415
86391W        W54721   6.258   1.916   2.793
86392W        W54722  24.514  27.121  12.853
86393W        W54723   5.207  18.723   0.962
86394W        W54724  19.206  36.522   0.312
86395W        W54725  23.150   6.921   1.339
86396W        W54726  28.645   1.775   3.168
86397W        W54727   3.880  37.965   1.774
86398W        W54728  23.016  41.857  14.347
86399W        W54729  26.096  14.686   4.693
86400W        W54730  21.136  31.926  12.345
86401W        W54731   4.367   2.274  13.490
86402W        W54732   2.230  23.094  14.763
86403W        W54733  22.171  22.242   3.664
86404W        W54734  39.984   9.658  10.452
86405W        W54735  19.662  18.105  13.507
86406W        W54736  39.018  34.521  10.633
86407W        W54737   1.283  41.810   2.206
86408W        W54738  35.578   5.849   3.317
86409W        W54739  11.634  22.727  14.500
86410W        W54740  17.189   8.405  12.848
86411W        W54741  20.590  31.544   4.780
86412W        W54742  14.750  42.016  12.916
86413W        W54743  16.080  11.813   2.277
86414W        W54744  36.455  34.461   0.817
86415W        W54745   0.391  14.798  12.386
86416W        W54746  27.143  30.973   2.879
86417W        W54747  32.040  25.045   2.203
86418W        W54748  16.664  19.764  14.995
86419W        W54749  41.922   7.782  11.409
86420W        W54750  28.076  25.052  13.397
86421W        W54751  22.210   4.801   0.778
86422W        W54752  21.582   3.874   1.399
86423W        W54753  31.101  17.243  14.957
86424W        W54754  27.627  30.583  12.956
86425W        W54755   0.851  37.832  10.503
86426W        W54756  43.331  41.926   3.352
86427W        W54757   8.272  31.974   0.946
86428W        W54758  31.988   4.936   1.298
86429W        W54759  10.783  44.261   3.215
86430W        W54760  25.514   7.389   3.210
86431W        W54761   4.736  15.186  13.807
86432W        W54762  36.995  15.650  14.982
86433W        W54763   1.922  22.047   4.125
86434W        W54764  18.289   0.894  12.825
86435W        W54765  24.016  34.452   3.215
86436W        W54766  23.121  39.488   4.615
86437W        W54767  11.651  19.543  12.416
86438W        W54768   4.782  19.207   0.913
86439W        W54769  35.545  33.426   1.802
86440W        W54770   1.353  17.700   0.249
86441W        W54771  19.551  43.878  12.897
86442W        W54772  34.111   3.728   1.888
86443W        W54773  16.655  23.635   5.574
86444W        W54774  44.430  28.451  10.409
86445W        W54775   0.841   7.334  10.958
86446W        W54776  44.876  12.672   1.751
86447W        W54777  40.053  19.591  10.590
86448W        W54778  35.524  42.442  10.558
86449W        W54779  40.379  18.668  13.843
86450W        W54780  43.309   6.185   0.369
86451W        W54781  31.465  23.021  14.996
86452W        W54782  24.044  40.355   4.757
86453W        W54783   1.365  21.579  13.349
86454W        W54784   4.787  35.455  13.903
86455W        W54785  32.421  27.970  11.045
86456W        W54786   3.874  26.044  13.957
86457W        W54787   3.860   5.430  13.326
86458W        W54788  15.736   5.840  12.409
86459W        W54789  42.966  27.181   3.351
86460W        W54790   6.271   6.359   3.633
86461W        W54791  25.090  11.211   1.349
86462W        W54792   9.769  15.264   1.916
86463W        W54793   3.874  33.432  11.512
86464W        W54794   1.889  19.103   3.667
86465W        W54795   9.256  37.405   4.280
86466W        W54796  25.647  15.290   2.245
86467W        W54797  42.832  42.462   4.263
86468W        W54798  25.668  22.252   1.272
86469W        W54799  27.026   3.407  14.301
86470W        W54800  17.081  16.209  12.980
86471W        W54801  16.197  22.526  14.951
86472W        W54802  18.550  22.746   0.415
86473W        W54803  17.105  39.831  11.051
86474W        W54804  25.150  35.484  14.836
86475W        W54805  33.055  27.633   1.372
86476W        W54806  10.709  11.690  13.033
86477W        W54807  26.134   9.751   9.558
86478W        W54808  17.229  31.910  11.538
86479W        W54809  38.405  39.011   2.184
86480W        W54810  11.284  12.616   1.699
86481W        W54811   6.735   2.868   1.332
86482W        W54812  10.702  42.478   2.831
86483W        W54813  36.037  24.677  11.582
86484W        W54814  19.604  21.220   4.768
86485W        W54815   9.201  14.631   1.282
86486W        W54816   1.863  30.143   0.908
86487W        W54817  39.314   6.758   3.839
86488W        W54818   4.373  38.914   0.964
86489W        W54819  11.830   2.731  14.885
86490W        W54820   8.892   0.404   0.344
86491W        W54821  24.203  41.991   0.401
86492W        W54822  28.667  33.391  11.092
86493W        W54823   3.338  19.195   1.812
86494W        W54824  25.138  15.226   0.393
86495W        W54825  34.005   0.480  13.063
86496W        W54826  31.009  25.543  13.794
86497W        W54827  13.796  42.474   4.337
86498W        W54828  31.008  40.366   1.735
86499W        W54829  16.799   6.198   1.235
86500W        W54830  36.914   2.775   1.383
86501W        W54831  41.527  38.859   2.183
86502W        W54832   4.733  44.971   3.165
86503W        W54833   6.807  25.485   3.746
86504W        W54834   3.919  44.288   1.788
86505W        W54835   7.322  34.398   0.429
86506W        W54836  41.515  28.062  14.411
86507W        W54837  37.380  29.564  13.844
86508W        W54838  19.225  25.072   9.974
86509W        W54839   6.405  40.048   3.169
86510W        W54840  27.564  41.430  13.426
86511W        W54841   0.365  20.659   1.230
86512W        W54842   5.824  30.062  11.537
86513W        W54843  13.334   3.352   3.740
86514W        W54844  42.518  12.178  14.933
86515W        W54845  25.964  26.578   5.249
86516W        W54846  44.894  22.730   3.228
86517W        W54847  16.780  19.174   3.833
86518W        W54848  20.092  10.861   2.410
86519W        W54849   5.392  37.440   3.176
86520W        W54850  10.792  18.173  14.827
86521W        W54851  13.734  10.833   1.790
86522W        W54852   8.256  33.544  14.789
86523W        W54853  21.232  30.944  10.415
86524W        W54854  18.588  22.629  13.515
86525W        W54855   3.784  18.612  12.448
86526W        W54856  29.068  35.965  13.318
86527W        W54857   3.299  13.231  13.360
86528W        W54858  17.213  32.081  12.424
86529W        W54859  36.931   9.157   2.398
86530W        W54860   2.321  36.365   2.332
86531W        W54861  26.616  27.078   1.224
86532W        W54862  13.209  39.511  10.985
86533W        W54863  29.984   0.835  11.457
86534W        W54864   3.243   3.825   3.283
86535W        W54865  25.516  11.626  13.892
86536W        W54866  24.498   5.245   3.341
86537W        W54867   6.761  32.107   3.703
86538W        W54868  10.245   8.727   2.223
86539W        W54869   6.278   9.348  10.597
86540W        W54870  39.873  30.164   0.424
86541W        W54871  42.325   0.275   1.732
86542W        W54872  39.354  42.380   2.787
86543W        W54873  14.272  44.485   0.839
86544W        W54874   6.806  20.601  12.999
86545W        W54875  22.113  44.972  11.087
86546W        W54876  10.758  22.689  14.486
86547W        W54877  38.349  15.174  14.463
86548W        W54878  36.556  31.065   4.832
86549W        W54879  31.511  42.858  10.556
86550W        W54880  24.228  30.645   5.203
86551W        W54881  19.720  40.437   2.845
86552W        W54882   2.819  17.699  13.971
86553W        W54883  30.478  25.695  12.966
86554W        W54884  25.618   0.921   1.713
86555W        W54885  42.902  39.476  13.468
86556W        W54886  39.908   8.821  11.390
86557W        W54887  41.991   6.893  13.322
86558W        W54888  11.240   3.816   1.842
86559W        W54889  36.871   9.304   2.717
86560W        W54890  19.215  26.663  14.427
86561W        W54891  29.635  27.540  12.078
86562W        W54892  42.920  29.657   4.836
86563W        W54893  36.500  37.903   4.669
86564W        W54894  23.152   8.401  12.503
86565W        W54895  37.479  40.416   1.870
86566W        W54896  21.566  14.814   1.355
86567W        W54897  12.837   2.908  14.344
86568W        W54898  30.062  27.635   1.348
86569W        W54899  27.480  26.023  11.888
86570W        W54900  39.902  22.185   3.748
86571W        W54901  10.811  23.710   0.847
86572W        W54902  35.570  21.100   3.376
86573W        W54903   7.219  42.482  13.860
86574W        W54904  13.653  38.932  14.428
86575W        W54905  12.642  17.148  11.423
86576W        W54906  37.951  32.481  14.775
86577W        W54907  33.575  30.151   0.948
86578W        W54908  41.317   3.459   0.371
86579W        W54909  43.003  19.149   4.607
86580W        W54910  43.780  42.963   0.790
86581W        W54911  30.914  22.575   4.146
86582W        W54912   5.856  18.609  14.516
86583W        W54913  30.544  20.556  12.996
86584W        W54914  23.120   8.719  12.049
86585W        W54915   0.294  18.584   3.371
86586W        W54916   7.742  33.492   4.203
86587W        W54917  35.483  15.772   0.377
86588W        W54918   9.766  20.694  12.852
86589W        W54919  40.894  25.533  10.556
86590W        W54920  39.954  26.599   4.239
86591W        W54921  17.249  44.479   4.655
86592W        W54922  11.190   4.429   3.292
86593W        W54923  22.026   3.459  12.000
86594W        W54924  16.742   7.381   0.922
86595W        W54925  28.978  37.076   2.718
86596W        W54926  26.147  23.501   0.873
86597W        W54927   3.941   7.704   2.267
86598W        W54928   8.347  22.546   3.824
86599W        W54929  11.715  30.093   3.361
86600W        W54930  12.183   4.409  14.909
86601W        W54931   6.372  11.791   1.325
86602W        W54932   7.799   1.772  12.033
86603W        W54933   7.868  18.783  10.637
86604W        W54934  18.783  21.735   0.297
86605W        W54935   0.452  35.403   0.310
86606W        W54936  24.087  29.567  13.897
86607W        W54937  22.703  14.825  14.309
86608W        W54938  29.546  14.786  10.551
86609W        W54939  35.386  30.559   3.321
86610W        W54940  20.573  22.655   0.318
86611W        W54941  32.448  12.841  14.482
86612W        W54942  24.698  37.835  10.428
86613W        W54943  34.109   1.364  12.827
86614W        W54944  26.969  10.758   0.810
86615W        W54945  17.274  42.379  11.040
86616W        W54946  39.358   3.828   4.680
86617W        W54947   5.692   3.917   4.325
86618W        W54948  10.830  42.319   1.920
86619W        W54949  36.907   0.794   2.250
86620W        W54950   4.932  16.647  11.421
86621W        W54951   4.726  36.515  10.962
86622W        W54952  22.684  21.195  10.489
86623W        W54953  15.651   4.291  14.324
86624W        W54954  43.354  21.598   4.256
86625W        W54955  20.049  41.787   3.635
86626W        W54956  22.148   0.381  11.894
86627W        W54957  16.617   6.428  11.445
86628W        W54958  13.174  43.409   2.675
86629W        W54959   6.870  36.895   2.264
86630W        W54960  15.697  35.882   4.715
86631W        W54961  31.587   1.937   2.898
86632W        W54962  28.531  19.573  14.367
86633W        W54963   0.330  18.134  10.515
86634W        W54964  44.269  14.678  13.501
86635W        W54965  19.624  23.683   0.876
86636W        W54966  28.663  10.146   1.884
86637W        W54967  16.318   8.251   1.437
86638W        W54968  16.264   3.390   2.309
86639W        W54969  38.993   8.198   1.925
86640W        W54970   7.908  26.645  10.132
86641W        W54971   6.818   8.214  10.925
86642W        W54972  24.530  35.935  11.044
86643W        W54973  37.931  28.022   1.723
86644W        W54974  41.854  16.185   3.664
86645W        W54975  27.575  21.696  13.836
86646W        W54976  39.920  40.534  10.887
86647W        W54977   3.872  27.628   2.376
86648W        W54978  14.295  28.037   1.893
86649W        W54979  16.713   5.863  13.823
86650W        W54980  40.387   2.451   5.153
86651W        W54981  27.163  28.467   0.293
86652W        W54982  21.244  39.008  10.990
86653W        W54983   3.745  38.404  11.540
86654W        W54984  19.555  27.940  14.915
86655W        W54985   3.930  13.747   4.604
86656W        W54986   2.843   2.463  11.895
86657W        W54987   3.358   7.255   2.667
86658W        W54988  34.502   0.883   0.849
86659W        W54989  14.163   4.710   2.311
86660W        W54990  19.558  37.899  11.994
86661W        W54991   6.336   0.387   1.796
86662W        W54992  11.236   8.668   0.436
86663W        W54993  26.614  39.001   4.597
86664W        W54994  23.667  33.051   2.834
86665W        W54995   4.279  42.427  14.412
86666W        W54996  41.044  12.633  14.345
86667W        W54997  15.812  37.875  12.979
86668W        W54998  39.847  15.762   1.381
86669W        W54999  15.823  26.691   5.102
86670W        W55000  26.058  19.625   0.292
86671W        W55001  36.927  14.675   0.394
86672W        W55002  26.152  21.634  12.510
86673W        W55003  35.471  24.173   4.618
86674W        W55004   8.173  35.035  13.922
86675W        W55005  17.167  20.179  11.511
86676W        W55006   3.385  14.668  10.992
86677W        W55007  40.922  12.749   4.601
86678W        W55008   3.833  12.322   4.247
86679W        W55009  19.667  15.578  10.558
86680W        W55010  41.369  19.619   2.342
86681W        W55011  28.646  29.476   0.949
86682W        W55012  25.104   8.805  14.923
86683W        W55013  28.004  33.505   0.260
86684W        W55014  43.832  15.229   2.665
86685W        W55015  19.262  30.160  12.842
86686W        W55016  25.201  19.681  13.330
86687W        W55017  30.637  44.446  11.985
86688W        W55018  31.035  32.095   4.329
86689W        W55019   6.787  42.950   1.850
86690W        W55020  37.076  16.712  14.851
86691W        W55021  33.064   4.275   0.466
86692W        W55022  34.385  33.110   0.481
86693W        W55023   1.426  20.177  11.960
86694W        W55024  33.410  27.157   2.190
86695W        W55025   6.201  44.810   0.252
86696W        W55026   8.689   9.877  13.843
86697W        W55027   8.224  16.596  13.309
86698W        W55028   9.692  26.620   0.855
86699W        W55029  27.461  10.375  14.019
86700W        W55030  17.076  19.540   1.219
86701W        W55031  26.176  34.562   1.790
86702W        W55032   2.728  31.966  10.559
86703W        W55033  35.361  42.371  11.918
86704W        W55034  34.002  27.138   4.605
86705W        W55035  16.130  34.865  14.931
86706W        W55036  29.965  36.451  13.827
86707W        W55037  28.990  28.644  11.883
86708W        W55038  40.393   1.286  12.828
86709W        W55039  33.131  23.557   1.432
86710W        W55040  38.840  32.927   3.364
86711W        W55041  28.525  35.569   3.309
86712W        W55042  39.999  12.308   0.245
86713W        W55043  38.827  18.081  13.959
86714W        W55044  14.788   2.347  14.328
86715W        W55045  39.372  40.043  13.307
86716W        W55046  14.811   3.375  14.363
86717W        W55047  24.007  34.966  10.535
86718W        W55048  10.715  35.038   1.240
86719W        W55049  44.928  43.777   1.420
86720W        W55050   3.261  13.747   3.862
86721W        W55051  39.447  37.059   3.824
86722W        W55052  36.372  30.498   0.788
86723W        W55053  22.606  17.750  13.884
86724W        W55054  29.581  44.319  13.365
86725W        W55055   0.375  42.906  12.350
86726W        W55056  16.162   5.355  12.546
86727W        W55057  35.890  27.635  13.048
86728W        W55058  23.097  39.421  11.121
86729W        W55059  18.099  33.480   2.805
86730W        W55060  22.644  36.023  14.502
86731W        W55061  38.372  30.071   0.362
86732W        W55062   8.186   9.786   1.223
86733W        W55063  31.998  43.798   0.314
86734W        W55064  10.182  24.210   5.152
86735W        W55065  23.110  21.544   2.269
86736W        W55066  38.343  13.786  10.592
86737W        W55067  21.066  18.111   2.342
86738W        W55068   7.792  38.967  12.363
86739W        W55069  34.606  15.795   1.838
86740W        W55070   3.828  18.581   3.692
86741W        W55071   3.770  25.559  11.070
86742W        W55072   5.243  44.864  14.956
86743W        W55073   4.810  13.716  14.877
86744W        W55074  40.800  40.376   3.370
86745W        W55075  16.095  35.582  12.021
86746W        W55076  27.121  33.035  10.571
86747W        W55077  24.060  44.502  14.916
86748W        W55078  36.841  33.463   3.869
86749W        W55079  20.132  29.036  11.403
86750W        W55080  26.064   9.331   2.818
86751W        W55081   8.167  41.369   0.448
86752W        W55082  36.064  12.220   4.209
86753W        W55083  26.061  24.590  10.487
86754W        W55084  32.911  44.432   2.230
86755W        W55085  13.655  18.722  14.938
86756W        W55086  44.328  44.496  10.994
86757W        W55087  27.996  40.453  13.503
86758W        W55088  18.764  16.746   4.773
86759W        W55089   2.309   4.851   2.329
86760W        W55090  11.857  44.842   3.236
86761W        W55091  30.634  16.215  11.593
86762W        W55092  23.674  37.025  14.401
86763W        W55093  11.194  13.231   1.268
86764W        W55094   5.704  36.504   0.812
86765W        W55095  20.226   1.832   2.299
86766W        W55096  43.870  22.247   3.753
86767W        W55097   2.386  15.650   1.293
86768W        W55098  21.749   3.832   0.936
86769W        W55099  16.665  38.979   4.347
86770W        W55100  17.176   5.809   2.830
86771W        W55101  36.500  23.609  10.031
86772W        W55102  18.669  31.533  10.894
86773W        W55103  40.032  23.229  13.971
86774W        W55104  27.455   5.328   0.855
86775W        W55105   9.234  13.297   3.825
86776W        W55106  17.139  19.759  12.349
86777W        W55107   1.900  21.736  11.378
86778W        W55108  38.352   5.260  11.372
86779W        W55109   2.764  22.669  13.900
86780W        W55110  13.259  24.201  14.765
86781W        W55111  25.202  11.253   2.406
86782W        W55112  17.117   2.417   0.425
86783W        W55113  35.455  11.238  14.810
86784W        W55114  26.481   1.859   3.831
86785W        W55115  34.023  35.991   1.240
86786W        W55116  17.561   0.871   4.633
86787W        W55117  20.730  16.072  11.861
86788W        W55118   1.745  31.077   4.201
86789W        W55119   4.766  15.652  11.907
86790W        W55120  43.826  28.014   0.741
86791W        W55121  30.909  11.728   2.316
86792W        W55122  35.045  27.148  13.918
86793W        W55123  21.024  36.462   1.348
86794W        W55124  40.387  28.148  12.873
86795W        W55125  19.577  36.411  13.052
86796W        W55126  34.954  10.827  11.481
86797W        W55127  40.410  12.730  14.498
86798W        W55128  17.272   5.853  14.333
86799W        W55129  17.555  14.700   3.865
86800W        W55130  38.988  29.451  14.931
86801W        W55131  40.488  40.924   0.824
86802W        W55132  10.724   0.986   4.292
86803W        W55133   7.889  34.989   1.334
86804W        W55134  24.644   7.850   3.781
86805W        W55135  31.070   1.862   1.338
86806W        W55136  41.358  43.885   4.606
86807W        W55137  19.734  20.088  10.565
86808W        W55138  16.130  11.200   2.901
86809W        W55139   1.870   1.325   0.776
86810W        W55140  19.144  28.961   5.199
86811W        W55141   0.382  17.738   4.254
86812W        W55142  43.458  32.086   5.244
86813W        W55143  32.095  44.476   0.801
86814W        W55144  38.070  31.028  14.430
86815W        W55145  11.288  27.007  10.951
86816W        W55146  36.892   0.449  13.437
86817W        W55147  10.667   2.827  12.484
86818W        W55148  17.637   1.882   4.775
86819W        W55149  11.812  38.416  14.412
86820W        W55150  16.197  28.031   0.306
86821W        W55151   5.738   4.208  11.398
86822W        W55152  12.770  18.202  14.803
86823W        W55153  12.197  21.535   3.342
86824W        W55154  37.020  37.865   1.363
86825W        W55155  12.700  38.033   3.729
86826W        W55156  44.956  20.595   1.353
86827W        W55157   6.743  15.227  13.807
86828W        W55158   4.735  30.965  12.927
86829W        W55159  17.716  38.050   0.383
86830W        W55160  40.519   0.893   1.855
86831W        W55161   0.396  30.099  12.930
86832W        W55162  15.243  16.293  14.340
86833W        W55163   7.367  14.336  11.520
86834W        W55164   7.704  11.646  10.963
86835W        W55165  13.222  32.419   2.807
86836W        W55166  22.667   7.815   2.801
86837W        W55167  21.704  11.319   1.900
86838W        W55168  13.276  30.100  12.037
86839W        W55169  39.459  32.557   4.297
86840W        W55170  13.712  19.576   0.748
86841W        W55171  30.994   2.229  11.568
86842W        W55172  33.610  24.144  14.782
86843W        W55173  21.065  28.102   0.842
86844W        W55174  14.269  23.505  14.385
86845W        W55175   2.333   0.367  12.855
86846W        W55176  23.503  36.379   2.837
86847W        W55177   6.348  16.284   2.235
86848W        W55178  30.523   3.723  11.883
86849W        W55179  44.487  32.517  13.415
86850W        W55180   1.942  24.546   0.318
86851W        W55181  17.257  35.885  10.958
86852W        W55182  20.702  10.649  11.891
86853W        W55183  28.940  16.253   1.731
86854W        W55184   7.215   9.286   3.358
86855W        W55185  11.291  12.241   3.777
86856W        W55186   7.416  22.034  14.775
86857W        W55187  21.699  37.424  11.377
86858W        W55188  10.838  19.667  13.792
86859W        W55189   4.336  34.090  11.384
86860W        W55190  18.734  39.374  14.773
86861W        W55191  37.967   6.847  14.276
86862W        W55192  32.455  14.642  12.930
86863W        W55193  11.287  29.156   0.254
86864W        W55194  44.771  10.286   3.277
86865W        W55195   7.334  22.193  12.089
86866W        W55196  33.572   1.417   2.282
86867W        W55197  10.287  44.361   1.793
86868W        W55198  16.621  15.587   0.338
86869W        W55199  13.177  13.746   4.144
86870W        W55200  28.165  15.277   4.621
86871W        W55201  14.247  35.559   2.306
86872W        W55202  32.630  25.631  12.937
86873W        W55203  10.691   6.400   0.456
86874W        W55204  44.371   7.378  10.115
86875W        W55205   2.415  20.606  12.940
86876W        W55206   2.455  40.021   0.330
86877W        W55207  15.283  23.170   4.273
86878W        W55208  14.685  11.351  13.432
86879W        W55209  35.555  27.114   3.150
86880W        W55210  43.306  41.952  12.066
86881W        W55211  18.594  35.473   3.765
86882W        W55212  28.591  13.267   9.957
86883W        W55213   1.248  30.443   0.731
86884W        W55214  37.538  37.977   2.234
86885W        W55215  18.790  37.374   1.933
86886W        W55216   7.351   5.369   4.656
86887W        W55217   0.401  12.168  12.843
86888W        W55218  14.102   0.416  12.413
86889W        W55219  19.238  13.199  11.565
86890W        W55220   7.328  19.566   3.357
86891W        W55221   6.311  40.526   0.394
86892W        W55222  23.551  23.082  12.571
86893W        W55223  26.458   0.949  10.579
86894W        W55224   3.846  12.837  14.314
86895W        W55225  26.488  14.174   2.792
86896W        W55226   8.258  33.504  14.435
86897W        W55227   7.414   7.356  14.954
86898W        W55228   6.377  35.020   0.412
86899W        W55229  38.029  28.106  13.841
86900W        W55230  38.344  10.645   2.666
86901W        W55231  42.786   1.304   1.908
86902W        W55232  34.585  20.192   3.645
86903W        W55233  39.420   6.309   4.161
86904W        W55234  15.298   2.471  13.447
86905W        W55235  33.993  39.546  13.824
86906W        W55236  26.123  26.163   0.766
86907W        W55237  15.665  29.548  11.884
86908W        W55238  14.339  15.622   0.444
86909W        W55239  21.164   2.876   4.147
86910W        W55240   6.182   4.763   0.392
86911W        W55241  35.529  14.187   2.671
86912W        W55242  39.862  20.102   2.354
86913W        W55243  31.929  28.506   2.760
86914W        W55244  14.658   1.388   2.247
86915W        W55245  20.100  17.650   4.230
86916W        W55246  18.192  41.851  12.424
86917W        W55247   6.782  43.273   0.779
86918W        W55248  38.849   7.802   0.299
86919W        W55249  41.424  30.155   1.278
86920W        W55250   4.358  20.652  12.472
86921W        W55251  34.076  43.512  12.006
86922W        W55252  25.079  21.601  14.943
86923W        W55253  10.327   4.845  13.059
86924W        W55254  22.068  39.367  14.924
86925W        W55255   1.322   4.706   4.238
86926W        W55256   7.733  37.442   5.172
86927W        W55257  26.495  26.475  12.878
86928W        W55258  30.499  26.007   2.676
86929W        W55259  13.116  24.187   0.417
86930W        W55260  33.062  31.635   3.770
86931W        W55261  18.102   3.456   5.196
86932W        W55262  40.953  43.918  11.545
86933W        W55263  21.718  17.593   2.750
86934W        W55264   6.269   1.756   0.897
86935W        W55265  32.530  28.440   1.913
86936W        W55266  24.021   7.834   0.340
86937W        W55267   6.891   7.710  10.985
86938W        W55268  32.918  20.769   4.185
86939W        W55269  11.813  21.249   0.367
86940W        W55270  42.845  15.747  13.419
86941W        W55271  14.592  26.611  11.899
86942W        W55272  20.151  25.686   2.700
86943W        W55273  11.184  24.071   2.774
86944W        W55274  43.484   9.886  13.346
86945W        W55275  31.488  20.114   3.715
86946W        W55276  28.500  36.887   2.239
86947W        W55277   2.898  27.006  11.498
86948W        W55278  31.444  14.256  11.568
86949W        W55279   2.744  29.966  13.840
86950W        W55280  23.184  18.271  14.277
86951W        W55281  13.637  32.554  11.449
86952W        W55282  35.862  39.527  14.809
86953W        W55283  28.610  23.682   2.224
86954W        W55284  33.413   1.376  10.426
86955W        W55285  44.341  16.667   4.814
86956W        W55286  25.161  22.168   4.323
86957W        W55287  17.101  32.497  14.836
86958W        W55288  12.219  42.900  14.332
86959W        W55289  42.934  33.476   1.271
86960W        W55290  19.661  41.846   1.928
86961W        W55291  13.138  29.971   4.189
86962W        W55292  23.621  12.753   3.715
86963W        W55293  29.588   1.913   2.851
86964W        W55294  10.332  17.796  14.301
86965W        W55295  19.062  27.080   0.787
86966W        W55296  45.000   2.362   3.705
86967W        W55297   3.933  14.703   0.470
86968W        W55298  39.944  41.975  12.893
86969W        W55299   2.269  44.479  14.826
86970W        W55300  12.134  24.059   2.890
86971W        W55301  28.990  44.436   0.450
86972W        W55302  27.141  21.051   2.207
86973W        W55303  11.845  18.672   4.726
86974W        W55304  26.964   1.890   3.282
86975W        W55305   6.334  43.830  11.436
86976W        W55306   1.452  13.326   2.823
86977W        W55307  40.507  42.975   1.363
86978W        W55308   5.783   8.253  14.760
86979W        W55309  17.694  31.057   0.877
86980W        W55310  23.191  22.608  14.759
86981W        W55311  20.223  33.624   0.782
86982W        W55312  41.451  38.372  11.450
86983W        W55313   1.272   7.406  14.026
86984W        W55314   8.667  19.594  10.436
86985W        W55315  11.694   7.763  14.996
86986W        W55316   8.819  43.865   0.876
86987W        W55317  33.458  43.814   2.882
86988W        W55318   2.338  44.349  11.916
86989W        W55319   5.885  38.981   0.954
86990W        W55320  42.028   4.938   1.849
86991W        W55321  31.135   3.926  14.897
86992W        W55322   8.829  22.222  13.377
86993W        W55323  16.701  40.440   3.161
86994W        W55324  16.098  23.520   2.330
86995W        W55325  26.183  27.197   3.674
86996W        W55326  43.280  40.491  13.983
86997W        W55327   1.390   4.919   2.822
86998W        W55328  23.089  28.515   0.928
86999W        W55329  22.155  17.581  11.601
87000W        W55330  40.442  10.801   3.273
87001W        W55331  35.599  23.176  14.483
87002W        W55332  10.713  37.041   1.399
87003W        W55333  27.190   4.707  11.570
87004W        W55334  44.435  17.732   2.238
87005W        W55335  25.166  34.489  13.480
87006W        W55336  38.499  42.814  13.521
87007W        W55337  22.235   6.379   3.289
87008W        W55338   1.482  10.379  12.982
87009W        W55339  37.530   6.827  14.307
87010W        W55340  19.634  41.854   1.295
87011W        W55341  15.716  23.637  14.276
87012W        W55342  29.470   3.303   4.830
87013W        W55343  12.116   6.688  12.849
87014W        W55344  32.416  40.963   4.720
87015W        W55345   2.267  15.151  14.407
87016W        W55346  19.745   9.320  10.906
87017W        W55347  39.393  19.545  12.448
87018W        W55348  30.496  19.602   2.301
87019W        W55349  29.429  43.366   3.779
87020W        W55350  22.653   9.800  14.838
87021W        W55351   2.746  29.508   1.365
87022W        W55352  25.471  25.991  13.063
87023W        W55353  41.990   8.714   2.751
87024W        W55354   8.398   1.263   4.251
87025W        W55355   7.688   0.264  13.504
87026W        W55356  40.438  19.756  12.386
87027W        W55357  18.121  33.470  12.492
87028W        W55358  13.801   5.850   0.907
87029W        W55359  23.532  34.569   0.478
87030W        W55360   9.825  25.699   3.274
87031W        W55361   6.422  37.364  14.892
87032W        W55362  21.534   3.784   1.913
87033W        W55363  24.669   7.283   4.829
87034W        W55364  20.104   1.417   3.844
87035W        W55365  26.193  30.090   2.894
87036W        W55366  33.907  28.541   3.355
87037W        W55367  27.031  42.983  13.328
87038W        W55368   9.772  22.024   0.295
87039W        W55369  33.926  26.677   2.863
87040W        W55370  11.372  28.564   4.669
87041W        W55371   8.263  24.069  10.934
87042W        W55372  30.529  39.882   2.185
87043W        W55373   5.294  26.154   0.925
87044W        W55374  20.716   3.296  12.919
87045W        W55375  16.789  23.196  13.936
87046W        W55376  26.665   9.759  14.427
87047W        W55377  13.181   8.682   3.725
87048W        W55378  43.271  36.042   4.341
87049W        W55379  14.282   8.777  12.411
87050W        W55380   5.692  39.498  13.868
87051W        W55381   8.877  34.990   0.841
87052W        W55382  41.405  19.195   0.962
87053W        W55383  12.726  30.143   1.286
87054W        W55384  39.462  17.162  11.869
87055W        W55385   1.319   9.890  14.277
87056W        W55386  44.999  28.934   1.815
87057W        W55387  15.211  15.178  13.538
87058W        W55388  21.077  10.667   3.179
87059W        W55389  31.549   7.867   0.745
87060W        W55390  37.858  11.284  11.031
87061W        W55391   4.230   4.450  10.625
87062W        W55392  42.921  15.759   4.313
87063W        W55393  41.985  32.493  12.827
87064W        W55394  44.380  43.424   0.375
87065W        W55395  24.549  34.558   4.807
87066W        W55396  24.977  40.027   0.742
87067W        W55397  12.767   7.246  13.934
87068W        W55398  16.288  15.735   0.792
87069W        W55399   6.746  14.321   1.417
87070W        W55400  25.616  19.130  10.962
87071W        W55401  18.189  17.728   0.960
87072W        W55402   4.886   6.846   3.742
87073W        W55403   8.874  40.926   0.930
87074W        W55404   4.264  38.507  10.420
87075W        W55405   8.216   1.240  13.472
87076W        W55406  28.968  27.167   1.894
87077W        W55407  25.987  21.116   1.382
87078W        W55408  11.779  18.296   2.318
87079W        W55409  35.495  14.171  10.495
87080W        W55410   4.770   3.781   3.751
87081W        W55411  44.782  31.526   0.299
87082W        W55412  22.648  31.415   0.941
87083W        W55413  41.431  36.447  10.974
87084W        W55414  11.307   0.967  14.468
87085W        W55415  40.367  35.381  14.499
87086W        W55416   5.754  10.348   3.870
87087W        W55417  15.173  22.632   2.199
87088W        W55418  29.070  31.478   0.853
87089W        W55419   3.819  11.343  12.379
87090W        W55420   7.862  31.518   0.268
87091W        W55421   2.268   8.670  13.794
87092W        W55422   2.723  19.653  13.514
87093W        W55423  15.213   4.720  14.855
87094W        W55424   5.301   9.886  11.458
87095W        W55425  36.980  17.293   1.887
87096W        W55426  30.079   2.866  14.405
87097W        W55427  27.654  30.937  11.925
87098W        W55428  13.739  34.901   0.861
87099W        W55429  19.715   5.879   1.855
87100W        W55430  21.217  15.790   0.924
87101W        W55431   7.293  40.921   0.274
87102W        W55432  33.112  27.132  11.071
87103W        W55433  41.329  18.142  11.097
87104W        W55434   7.284  17.135  12.967
87105W        W55435  29.122  27.565  14.946
87106W        W55436   8.405  36.960  13.498
87107W        W55437  32.948  27.548   4.677
87108W        W55438  36.410  23.644  14.907
87109W        W55439  12.337  15.136   2.838
87110W        W55440  33.615  38.903  14.286
87111W        W55441  28.010  44.805  12.563
87112W        W55442  13.253  13.330  14.938
87113W        W55443  31.997  41.394  11.514
87114W        W55444  18.196   5.287   4.174
87115W        W55445  15.085  22.618   1.429
87116W        W55446  37.876  17.780  13.495
87117W        W55447  41.307  33.007   3.694
87118W        W55448  13.659  29.931   3.360
87119W        W55449  15.301  36.456  10.414
87120W        W55450  39.028  32.931  14.924
87121W        W55451  34.556  21.061  10.456
87122W        W55452  44.274  11.143   3.387
87123W        W55453  10.850  41.038  12.966
87124W        W55454  35.905  11.760   0.756
87125W        W55455  42.526  32.540  11.074
87126W        W55456  18.166  42.953  11.576
87127W        W55457  13.646   3.908  12.475
87128W        W55458  18.084  11.361  13.959
87129W        W55459  39.481  18.247  13.848
87130W        W55460   4.306  43.382  12.016
87131W        W55461  13.770  37.472   4.622
87132W        W55462  10.811   0.250  12.077
87133W        W55463  10.294  36.973   0.769
87134W        W55464  40.434  15.193   2.885
87135W        W55465  14.823   6.719   3.272
87136W        W55466  27.148  13.149   3.312
87137W        W55467  26.482  26.698  14.983
87138W        W55468  23.589  10.380   4.337
87139W        W55469  38.508  10.142   3.273
87140W        W55470   6.368   1.350  12.470
87141W        W55471   4.805  16.659   3.303
87142W        W55472  13.738  25.078   5.180
87143W        W55473  41.372   8.233  13.362
87144W        W55474  20.232  27.007  12.048
87145W        W55475  42.985  44.363   2.270
87146W        W55476  19.232  22.008   3.813
87147W        W55477   7.229   1.767   0.301
87148W        W55478  40.955  11.791   2.768
87149W        W55479  31.049  14.151   1.429
87150W        W55480  24.579   3.794   3.789
87151W        W55481  20.674   3.775  11.061
87152W        W55482  16.113  13.728  11.480
87153W        W55483  30.006   5.430   1.880
87154W        W55484   3.860  23.596  11.980
87155W        W55485  23.037   7.305  10.935
87156W        W55486  23.613   9.772  14.290
87157W        W55487  22.569  24.202   2.878
87158W        W55488  29.933  34.481   4.683
87159W        W55489  33.520  34.498  10.107
87160W        W55490   7.182   2.450   4.680
87161W        W55491   4.875  33.933  13.442
87162W        W55492  22.106   3.447   0.315
87163W        W55493  27.942  40.052  10.562
87164W        W55494  40.868  16.755   4.599
87165W        W55495  28.537  44.282  11.108
87166W        W55496  32.435  39.558  12.565
87167W        W55497  30.570  41.479  10.442
87168W        W55498  24.014  40.029  10.490
87169W        W55499  12.214  21.065   0.371
87170W        W55500   9.388   3.243   3.780
87171W        W55501  29.077  44.773  13.548
87172W        W55502  37.367   0.463  12.970
87173W        W55503  26.535   5.841   2.871
87174W        W55504  19.609   7.809   1.438
87175W        W55505  41.442  31.625  10.998
87176W        W55506  40.814  44.416  12.915
87177W        W55507  22.059  40.950   3.861
87178W        W55508  37.405  15.626  12.960
87179W        W55509   7.705  27.081   0.791
87180W        W55510  38.444   6.376  13.460
87181W        W55511  14.813  26.196   2.386
87182W        W55512  38.570  11.292  12.998
87183W        W55513  13.636  14.622  13.019
87184W        W55514  23.224  25.669   1.801
87185W        W55515   1.249   3.914  14.281
87186W        W55516  43.971  28.016   2.665
87187W        W55517  35.046  23.167   1.374
87188W        W55518  23.736  10.715  10.513
87189W        W55519  13.631  30.587  12.484
87190W        W55520  22.614  44.821  11.588
87191W        W55521  37.948   7.895   2.759
87192W        W55522  18.683  10.154  12.088
87193W        W55523  21.651  32.953  12.514
87194W        W55524  33.522  37.517   1.260
87195W        W55525  43.368   3.438  11.606
87196W        W55526  36.931  21.575   4.689
87197W        W55527  33.500  27.951   3.644
87198W        W55528  32.472  37.034   4.124
87199W        W55529   0.869  40.869   1.443
87200W        W55530   6.692  17.642   4.230
87201W        W55531  26.697  17.795  12.399
87202W        W55532  44.832  29.614   1.758
87203W        W55533   3.325  41.812  13.425
87204W        W55534  11.233  26.575   2.783
87205W        W55535  44.494  14.152  13.954
87206W        W55536  27.088  32.498  10.638
87207W        W55537  29.579  23.179  13.895
87208W        W55538  18.088   4.913  12.428
87209W        W55539   8.705  36.078  12.068
87210W        W55540  40.341  25.038   1.722
87211W        W55541   8.841  24.136  12.854
87212W        W55542  24.144  20.236  12.396
87213W        W55543  37.917  18.144   4.807
87214W        W55544   5.268   7.289   4.671
87215W        W55545  25.199  42.955  10.975
87216W        W55546   0.422   3.894  14.307
87217W        W55547  38.501  14.101  12.028
87218W        W55548  11.757  26.140   3.749
87219W        W55549  27.048  30.591  13.896
87220W        W55550  43.441   0.947  14.357
87221W        W55551  22.700  36.572  10.542
87222W        W55552  24.160  41.509  11.074
87223W        W55553  32.103  31.481  13.847
87224W        W55554  27.009  14.223   2.755
87225W        W55555  15.109  25.586  12.032
87226W        W55556  27.989  12.195  12.058
87227W        W55557  21.688   3.863   4.605
87228W        W55558   7.264  22.576  13.347
87229W        W55559   2.822  15.580   4.620
87230W        W55560  19.750  22.677  12.342
87231W        W55561   7.416  30.574  14.964
87232W        W55562  30.994  27.104  12.425
87233W        W55563  23.233  42.796   2.309
87234W        W55564  10.190  44.402  10.928
87235W        W55565  14.772   3.295  10.109
87236W        W55566  18.136  11.803   0.376
87237W        W55567  25.581  33.581  14.838
87238W        W55568  32.444  22.519  12.487
87239W        W55569   1.868  12.312  13.950
87240W        W55570  11.214  32.413  10.438
87241W        W55571  41.303   1.466  13.826
87242W        W55572  25.544  38.516   4.258
87243W        W55573  15.627  37.915   0.374
87244W        W55574   6.223  15.274  14.298
87245W        W55575  32.021  36.362   3.813
87246W        W55576   2.890   0.256  13.813
87247W        W55577  43.470  30.619   1.749
87248W        W55578  27.054  16.288  13.816
87249W        W55579  37.970  25.069   4.266
87250W        W55580   8.719  38.563  14.759
87251W        W55581  43.318  38.921  10.071
87252W        W55582  39.387  32.886  13.810
87253W        W55583   9.222  12.137   1.363
87254W        W55584  12.198   2.232   0.962
87255W        W55585  32.066  23.095   0.945
87256W        W55586  33.906  12.616  11.050
87257W        W55587  10.773  26.615  12.446
87258W        W55588   4.924   8.875  12.948
87259W        W55589  31.083   5.386   1.428
87260W        W55590  23.663  10.745   2.883
87261W        W55591  14.804  37.484   4.686
87262W        W55592   0.899  15.234   1.834
87263W        W55593  16.736  15.221  13.362
87264W        W55594  11.261  39.557  12.453
87265W        W55595  26.555   5.224   4.286
87266W        W55596  43.389  12.657  12.562
87267W        W55597  27.620  43.491   3.693
87268W        W55598  26.959  25.708   4.243
87269W        W55599  26.057  27.564  11.495
87270W        W55600   7.701  43.275   1.374
87271W        W55601  19.110   8.816  10.963
87272W        W55602   9.744   5.718   0.441
87273W        W55603  26.175   8.181   3.821
87274W        W55604  11.664  34.516  12.989
87275W        W55605  35.966  40.452   3.708
87276W        W55606   5.317  17.588  13.980
87277W        W55607  13.653  32.092   0.875
87278W        W55608  10.143  24.515   3.280
87279W        W55609   8.172  27.191   1.766
87280W        W55610   4.237  30.999   1.297
87281W        W55611  38.005  43.944   3.647
87282W        W55612  32.974  29.147  13.928
87283W        W55613  37.857  35.975  10.099
87284W        W55614  42.848  26.567  14.821
87285W        W55615  21.240  22.144   0.818
87286W        W55616  28.988  31.119  14.773
87287W        W55617  35.051  25.037  10.056
87288W        W55618  16.801  28.674   4.768
87289W        W55619   0.283   4.252  11.470
87290W        W55620  22.527  28.477  13.492
87291W        W55621  21.709  15.316  13.408
87292W        W55622   0.901   8.663   5.251
87293W        W55623   2.880  13.335  12.044
87294W        W55624  11.340  29.550   1.901
87295W        W55625  12.148  37.899  13.805
87296W        W55626  30.096   2.922  11.927
87297W        W55627   9.878  36.516   4.817
87298W        W55628   1.316   8.746   4.654
87299W        W55629  18.743  36.515  12.063
87300W        W55630  18.154  10.791   0.261
87301W        W55631  38.517  32.044  11.536
87302W        W55632   7.301  17.107  12.074
87303W        W55633   7.404  35.404  10.460
87304W        W55634  29.132  18.138   3.851
87305W        W55635  16.635   4.933   2.291
87306W        W55636   0.372   5.925  12.349
87307W        W55637  12.725   4.730   1.790
87308W        W55638  35.419  31.113  14.482
87309W        W55639   9.836  39.863  12.524
87310W        W55640  23.693   3.808  12.579
87311W        W55641   6.376  44.944   3.337
87312W        W55642   9.860  31.473  13.459
87313W        W55643  40.804  24.498  12.340
87314W        W55644  43.812   2.472  10.615
87315W        W55645   8.806  29.581   4.154
87316W        W55646  11.221  41.795   1.268
87317W        W55647  36.879  25.056   3.227
87318W        W55648   4.707  41.521   2.820
87319W        W55649  37.381  20.731  10.627
87320W        W55650  10.182  38.951  12.342
87321W        W55651  24.032   4.214   0.773
87322W        W55652  40.900   7.805  10.580
87323W        W55653  33.988  11.144   4.253
87324W        W55654  32.903  14.143  13.349
87325W        W55655   5.295   1.941   1.293
87326W        W55656   1.744  25.200  14.403
87327W        W55657   5.357  14.172   4.298
87328W        W55658  36.399  30.938  13.382
87329W        W55659  25.095  32.094  13.835
87330W        W55660  38.949  26.558   2.373
87331W        W55661  15.614  42.392   4.200
87332W        W55662  20.727  32.012  13.536
87333W        W55663  12.781   9.783   2.752
87334W        W55664   1.294  38.512  13.976
87335W        W55665  28.177  11.322  13.466
87336W        W55666  16.290  31.055   0.767
87337W        W55667  13.625  19.084  14.905
87338W        W55668  36.558  28.033   1.374
87339W        W55669  19.669  38.541  12.952
87340W        W55670  18.189   3.436   4.181
87341W        W55671  37.450  13.765   4.134
87342W        W55672   1.934  39.449   0.420
87343W        W55673  39.008  34.391   5.277
87344W        W55674   0.445   6.723   1.219
87345W        W55675  12.758  28.954  10.615
87346W        W55676  38.424  20.263   2.692
87347W        W55677   2.426  40.866  10.624
87348W        W55678  20.174  11.680   1.836
87349W        W55679  42.404  31.560   3.696
87350W        W55680  35.601  29.950  14.956
87351W        W55681  44.376   3.752  11.425
87352W        W55682  28.615  16.294   0.925
87353W        W55683  42.514  23.677  11.006
87354W        W55684   2.451  13.665  14.305
87355W        W55685   9.343  33.031  14.457
87356W        W55686  44.850  42.460  12.527
87357W        W55687   7.694  29.970   1.841
87358W        W55688  41.964  13.247   4.761
87359W        W55689  40.985  44.858  12.510
87360W        W55690  39.335  33.124  12.068
87361W        W55691  30.959   3.820   4.754
87362W        W55692   7.325  22.069   1.394
87363W        W55693  38.042  38.326  10.514
87364W        W55694  12.332  28.572   2.199
87365W        W55695  11.642   0.931   2.296
87366W        W55696  38.885   0.933  10.920
87367W        W55697  26.474  31.058  14.845
87368W        W55698  41.917  31.054   0.873
87369W        W55699  31.029  30.080  13.413
87370W        W55700   3.285  35.854  12.952
87371W        W55701  39.479  32.569  10.518
87372W        W55702  16.219   3.795   0.393
87373W        W55703  36.520  21.108   0.352
87374W        W55704   4.798  34.538   3.374
87375W        W55705  18.115   6.221   1.243
87376W        W55706  18.248  35.560   3.255
87377W        W55707  28.475  20.674  14.501
87378W        W55708  31.489   9.207  12.346
87379W        W55709  43.295  25.100   5.085
87380W        W55710  14.161  22.633   3.238
87381W        W55711  12.631  35.021   3.291
87382W        W55712  32.138  21.069   2.311
87383W        W55713  12.665  24.635   2.903
87384W        W55714  40.798  41.501  12.564
87385W        W55715   5.243   9.660   4.694
87386W        W55716  29.593  40.827   0.314
87387W        W55717  18.559  40.022   2.742
87388W        W55718  40.317  31.620  11.526
87389W        W55719   2.771  40.834  11.064
87390W        W55720  35.518  37.930  11.094
87391W        W55721  22.608  18.066   0.399
87392W        W55722  42.358   6.749   0.824
87393W        W55723  21.543  17.203  12.515
87394W        W55724  21.251   0.473   3.711
87395W        W55725   3.883  36.464   2.276
87396W        W55726  44.838  19.551  11.055
87397W        W55727  34.000   8.709  13.509
87398W        W55728   9.763  28.065  13.947
87399W        W55729  43.922   9.191   1.783
87400W        W55730  32.031   2.230   4.311
87401W        W55731  13.145  21.739   3.668
87402W        W55732  38.418  25.115   2.287
87403W        W55733  29.599  23.069   4.632
87404W        W55734  22.174  30.005   1.872
87405W        W55735  32.141  42.326  12.942
87406W        W55736  22.548  32.395   2.891
87407W        W55737  34.545  30.034  10.605
87408W        W55738  38.380  40.045   2.707
87409W        W55739  33.600  35.494  14.914
87410W        W55740  18.194   7.748   2.366
87411W        W55741  28.635  30.984  11.524
87412W        W55742  28.105  20.067   1.394
87413W        W55743  28.614  27.946   2.230
87414W        W55744   9.221  39.935  10.929
87415W        W55745  36.027   6.321  14.890
87416W        W55746  29.643  27.100  11.870
87417W        W55747  24.552  43.919   1.702
87418W        W55748   8.891  12.238  13.998
87419W        W55749   7.789  28.613   1.251
87420W        W55750   8.404  31.467   4.200
87421W        W55751  33.497  37.405  11.991
87422W        W55752  42.367  43.425  11.084
87423W        W55753   3.314  20.143   0.363
87424W        W55754   9.207  17.192   1.818
87425W        W55755  35.468  34.550   1.372
87426W        W55756  12.711  18.682  12.917
87427W        W55757  27.005  24.201   3.231
87428W        W55758  22.172  37.488   0.867
87429W        W55759  12.121  34.884   4.685
87430W        W55760  18.741  18.682   0.872
87431W        W55761  29.466  32.469   1.779
87432W        W55762  35.391  31.913   0.322
87433W        W55763   9.263   0.897  11.541
87434W        W55764   9.787   3.826   0.926
87435W        W55765  41.331   3.366   5.298
87436W        W55766  13.669  22.744  13.963
87437W        W55767  29.654  16.255  14.005
87438W        W55768   8.696  28.674   3.768
87439W        W55769   9.281  43.848  12.429
87440W        W55770  36.405  32.123   4.181
87441W        W55771  33.099  24.681   1.410
87442W        W55772  20.167  41.361  12.949
87443W        W55773  38.530  35.573   3.189
87444W        W55774  19.096   2.369  14.849
87445W        W55775  24.489   9.310  14.997
87446W        W55776  26.648  18.067  14.917
87447W        W55777   5.286  35.435   2.724
87448W        W55778  24.542  25.983   0.791
87449W        W55779  23.602  17.724  12.090
87450W        W55780   9.860   6.740   4.240
87451W        W55781  36.359  19.207   0.846
87452W        W55782  22.157  16.214  14.842
87453W        W55783   3.269  21.192   4.781
87454W        W55784  26.016  40.497  11.026
87455W        W55785   0.366  42.853   4.203
87456W        W55786  18.226  23.171  12.965
87457W        W55787  27.659  16.086   4.157
87458W        W55788  12.276  12.617   1.872
87459W        W55789   6.909   1.342  11.549
87460W        W55790   0.285  34.493   0.331
87461W        W55791  15.629  16.248   5.300
87462W        W55792   6.411  33.127  14.329
87463W        W55793  37.352  24.631  14.945
87464W        W55794  18.057  17.764  10.635
87465W        W55795  32.025  27.691  13.468
87466W        W55796  15.275  14.725   0.388
87467W        W55797   8.673  28.005   1.829
87468W        W55798  27.528  33.878  10.539
87469W        W55799  44.892  38.053  13.389
87470W        W55800  12.281   9.228  10.474
87471W        W55801  40.031  28.524   0.728
87472W        W55802  33.546  14.218  14.466
87473W        W55803  30.143  14.667   3.720
87474W        W55804   2.904  14.317   1.798
87475W        W55805  15.164  29.130   0.880
87476W        W55806  37.541  18.653  11.916
87477W        W55807   2.254  36.583  14.841
87478W        W55808  22.084  13.216   0.348
87479W        W55809   2.296  12.721   4.817
87480W        W55810  26.020  31.583  10.986
87481W        W55811  23.103  23.161  11.916
87482W        W55812  31.628  19.059   9.627
87483W        W55813  29.610  35.469   4.824
87484W        W55814   9.273  11.844   2.694
87485W        W55815   4.749   8.351   3.163
87486W        W55816   1.386  23.553  11.566
87487W        W55817  20.611   6.844  14.367
87488W        W55818  14.725   4.426   0.279
87489W        W55819  25.214  32.938  12.931
87490W        W55820  37.889  15.649   5.124
87491W        W55821  30.476  19.540   3.195
87492W        W55822  40.907  29.558  12.830
87493W        W55823  13.347  36.519  12.494
87494W        W55824   9.268   6.213   4.116
87495W        W55825  21.520  22.230   1.803
87496W        W55826  27.458  36.452   2.716
87497W        W55827  27.517  34.371  14.896
87498W        W55828  41.406   4.318   0.914
87499W        W55829  27.033  37.878   1.213
87500W        W55830   8.795   4.798   2.711
87501W        W55831  39.922   9.715   0.349
87502W        W55832   4.363  40.809   3.824
87503W        W55833  38.887  37.029   0.803
87504W        W55834  32.948  39.017  11.566
87505W        W55835  18.129  41.954   2.677
87506W        W55836  32.542  16.250   3.714
87507W        W55837  33.530  14.619   0.907
87508W        W55838  15.311  32.123   4.796
87509W        W55839   3.789  25.690   1.701
87510W        W55840   1.363  10.663   1.923
87511W        W55841  11.795   1.916   3.243
87512W        W55842  40.467  41.851  11.552
87513W        W55843  24.673  24.486   0.769
87514W        W55844  38.343  11.736   2.887
87515W        W55845  16.252   7.702  14.329
87516W        W55846   5.701  30.070   4.238
87517W        W55847   7.775  43.474  14.932
87518W        W55848  36.561  31.608   2.259
87519W        W55849  27.551  39.847   3.846
87520W        W55850  25.102  25.611   4.162
87521W        W55851   1.854  14.257  12.392
87522W        W55852  14.818  38.474   0.266
87523W        W55853  12.189  28.133   4.222
87524W        W55854  16.581  19.213  11.406
87525W        W55855  43.864  20.130   2.380
87526W        W55856  29.517  28.068  14.865
87527W        W55857  17.610   0.873   1.352
87528W        W55858  38.979   7.791   1.297
87529W        W55859   8.901   9.735   0.859
87530W        W55860  17.204   4.443  14.843
87531W        W55861  21.623  11.693  11.880
87532W        W55862   8.725  22.115   0.342
87533W        W55863  32.013  34.118  10.425
87534W        W55864  42.414  32.044   0.755
87535W        W55865   5.706   8.190  13.909
87536W        W55866  38.460  44.498   1.877
87537W        W55867  31.573   7.793  11.861
87538W        W55868  39.897  12.689   2.380
87539W        W55869   4.284  31.932  14.836
87540W        W55870  30.627  36.905  10.542
87541W        W55871  24.116  39.513   4.183
87542W        W55872   2.947  10.846  13.488
87543W        W55873  11.294  32.628   0.290
87544W        W55874  22.121  41.846  12.962
87545W        W55875  15.298   7.239  12.496
87546W        W55876  26.186   6.691   4.674
87547W        W55877  29.058  11.166   3.685
87548W        W55878  20.635  34.065  13.940
87549W        W55879  33.937  39.896  14.281
87550W        W55880  14.642  21.538   0.816
87551W        W55881   9.169  26.560   0.308
87552W        W55882  14.326  43.366  12.068
87553W        W55883  39.903   2.325   3.221
87554W        W55884  16.687  40.324  14.818
87555W        W55885   8.882  39.879  13.879
87556W        W55886  40.516  40.390   2.796
87557W        W55887  42.861  38.993  12.440
87558W        W55888  33.486  18.166   0.263
87559W        W55889  27.500  30.149  12.546
87560W        W55890  37.995  32.979   4.299
87561W        W55891  37.067  36.368  11.408
87562W        W55892  24.133  22.232  10.448
87563W        W55893  42.938  15.323  11.597
87564W        W55894  28.154  36.543  12.823
87565W        W55895  24.999   8.797  10.961
87566W        W55896   2.809  37.924  11.039
87567W        W55897  18.757   7.384   1.778
87568W        W55898  44.774  44.384  12.843
87569W        W55899  34.381  37.963   3.778
87570W        W55900  29.534  18.163  14.282
87571W        W55901  44.833  11.746   2.836
87572W        W55902  43.941   4.796  12.379
87573W        W55903  19.577  25.493  13.889
87574W        W55904  12.288  12.693  14.277
87575W        W55905  35.913   8.686   2.877
87576W        W55906  19.266  10.324  11.909
87577W        W55907   0.823  29.641   2.183
87578W        W55908  41.885  27.942  10.153
87579W        W55909  39.884   0.850   1.311
87580W        W55910  37.572  12.732  10.633
87581W        W55911   9.744  39.904  12.841
87582W        W55912  20.542  10.668  11.439
87583W        W55913  33.931   2.396  12.994
87584W        W55914   4.810   8.876  10.154
87585W        W55915   0.753  41.479   4.146
87586W        W55916  15.187  35.978   0.402
87587W        W55917   2.913  38.437  10.009
87588W        W55918  30.950  31.557  12.408
87589W        W55919  22.605  17.727  14.296
87590W        W55920  23.669  11.773  14.897
87591W        W55921   0.366   8.376   1.348
87592W        W55922  38.922   9.767   3.340
87593W        W55923  13.306   9.312  12.855
87594W        W55924  41.794  41.533   5.143
87595W        W55925  18.258  38.946  14.991
87596W        W55926   3.725   7.267   0.441
87597W        W55927  43.423   3.855   4.309
87598W        W55928   9.777   4.766  11.912
87599W        W55929  38.571   3.915  11.416
87600W        W55930  26.026  33.559   4.599
87601W        W55931  35.466  28.167  12.993
87602W        W55932  23.672   1.275  12.008
87603W        W55933  36.445  31.445  11.574
87604W        W55934  18.291  30.981   2.736
87605W        W55935  26.468  27.009   4.157
87606W        W55936   3.721  38.004  12.898
87607W        W55937  20.139  13.332   4.221
87608W        W55938   3.881  44.788  11.570
87609W        W55939  34.884  44.385  14.924
87610W        W55940  40.449  17.637   2.229
87611W        W55941  34.563  18.687   2.878
87612W        W55942  23.229  42.876   4.207
87613W        W55943  14.635  22.079   2.756
87614W        W55944   5.770   1.317   0.873
87615W        W55945   5.745   7.178   2.744
87616W        W55946  15.666  29.056  14.348
87617W        W55947  27.545   8.707  10.604
87618W        W55948  25.630  24.714  12.903
87619W        W55949  44.784  43.512  11.494
87620W        W55950  27.627  17.181  11.431
87621W        W55951   4.733   9.670  13.792
87622W        W55952  17.643   5.844   0.334
87623W        W55953  27.499  22.239  14.294
87624W        W55954  27.047   8.224  12.017
87625W        W55955   4.369  38.559   4.338
87626W        W55956  34.549  44.899   4.236
87627W        W55957  26.460  20.714   3.256
87628W        W55958   1.829  34.097  11.456
87629W        W55959  39.381  42.908   0.792
87630W        W55960  25.657  25.055  14.783
87631W        W55961  23.589   0.302   3.758
87632W        W55962  36.444   0.969   0.727
87633W        W55963  11.142  41.501   3.714
87634W        W55964  43.858   4.801  10.959
87635W        W55965  14.596  24.171  12.946
87636W        W55966  29.668   5.905   4.320
87637W        W55967  20.627   0.382   1.792
87638W        W55968  32.401  24.686  11.552
87639W        W55969  28.967   2.786  12.015
87640W        W55970  41.404  37.914  13.405
87641W        W55971  15.155  26.562  10.481
87642W        W55972  21.194  16.756  11.983
87643W        W55973   9.385   5.708  11.524
87644W        W55974  16.249  44.471  14.983
87645W        W55975   5.720  31.907  10.556
87646W        W55976  38.405  43.828  14.778
87647W        W55977  38.360  30.499  13.054
87648W        W55978   4.799  33.033  11.577
87649W        W55979  22.683  18.165  11.078
87650W        W55980  33.953   3.280  13.483
87651W        W55981  17.085  23.094  11.935
87652W        W55982  17.616  33.521  10.585
87653W        W55983  17.798  41.530   0.257
87654W        W55984  39.393   0.860   4.214
87655W        W55985   1.773  37.069  10.570
87656W        W55986  39.486   5.846   1.748
87657W        W55987  41.980  38.861  11.880
87658W        W55988  30.927   6.191   4.190
87659W        W55989  42.509  33.431  10.405
87660W        W55990  40.342   8.664  11.461
87661W        W55991  11.689  34.581   2.235
87662W        W55992  25.626  22.625   2.298
87663W        W55993  30.939  38.430  13.428
87664W        W55994  31.053  40.427   2.846
87665W        W55995  43.509  19.537   5.227
87666W        W55996  39.038  11.715   3.791
87667W        W55997   2.847  26.565  12.419
87668W        W55998  44.793  37.343   1.419
87669W        W55999  32.592  25.680   2.293
87670W        W56000  16.569  27.117   3.167
87671W        W56001  23.689  12.272   3.192
87672W        W56002  26.639  34.979  10.447
87673W        W56003  44.815  38.860  11.508
87674W        W56004  18.605   7.339   3.781
87675W        W56005  27.102  41.789   4.779
87676W        W56006  25.547  24.060   1.839
87677W        W56007   7.408  23.102   3.666
87678W        W56008   0.449  15.756  13.517
87679W        W56009  44.917  11.315   2.791
87680W        W56010  41.297  15.256   2.887
87681W        W56011   6.319  42.372   2.691
87682W        W56012  35.464   3.304  12.501
87683W        W56013  19.622  18.249   4.340
87684W        W56014  13.329  18.698  12.080
87685W        W56015  15.300  32.101   1.874
87686W        W56016  33.976  13.160  11.028
87687W        W56017  22.147  31.968   3.694
87688W        W56018   4.307  14.594   0.397
87689W        W56019  11.690  33.406   0.785
87690W        W56020   0.320  38.452   0.415
87691W        W56021   3.949  30.518  12.997
87692W        W56022  11.319  15.613   0.870
87693W        W56023   3.455  17.192   4.121
87694W        W56024   0.977  19.248  14.802
87695W        W56025   6.676  40.018  12.506
87696W        W56026  41.981  32.002  10.609
87697W        W56027   0.906  19.680  14.399
87698W        W56028   7.236   7.673  10.563
87699W        W56029   9.772  36.577  11.982
87700W        W56030   7.717  32.115   0.800
87701W        W56031   7.905  25.080   0.292
87702W        W56032   2.775  43.472  12.003
87703W        W56033  18.087   2.735   3.272
87704W        W56034  13.136  27.483  13.382
87705W        W56035  14.648  38.957   4.211
87706W        W56036   5.268  32.118   3.252
87707W        W56037  14.598   9.197  12.534
87708W        W56038  14.173  42.369   0.930
87709W        W56039  12.295  28.643   1.705
87710W        W56040  36.079  22.516  13.830
87711W        W56041  12.745  26.602   5.134
87712W        W56042  34.959  27.497   1.833
87713W        W56043  35.875  20.263  11.558
87714W        W56044  33.987  18.139   1.359
87715W        W56045   0.859  34.376   1.338
87716W        W56046  25.704  27.616  14.805
87717W        W56047  33.057  13.672  11.869
87718W        W56048  30.508  10.189  10.927
87719W        W56049  19.249   2.949   2.230
87720W        W56050  23.193  30.112   4.127
87721W        W56051  44.916  16.711  10.406
87722W        W56052  14.819  40.874   2.323
87723W        W56053  16.791  34.438   5.593
87724W        W56054  40.433  21.212  12.934
87725W        W56055  23.653  39.438  10.888
87726W        W56056  40.034  33.928  12.349
87727W        W56057  26.677   3.834   4.599
87728W        W56058  39.912  20.729  11.930
87729W        W56059   5.907  23.997  11.019
87730W        W56060  10.376  10.692  14.373
87731W        W56061  16.287  16.269  13.436
87732W        W56062  16.185  39.933   1.328
87733W        W56063  36.392   7.218  14.866
87734W        W56064  34.447  17.748   2.351
87735W        W56065  12.362  42.447   4.302
87736W        W56066  31.103  17.167   3.719
87737W        W56067  18.681   1.407  11.981
87738W        W56068  30.066  44.453  12.926
87739W        W56069  30.507  34.029  14.496
87740W        W56070   9.743   4.817  14.952
87741W        W56071  38.856  19.271   3.723
87742W        W56072   3.417  15.253   0.377
87743W        W56073   6.774   7.774  10.538
87744W        W56074  31.003  15.221  12.018
87745W        W56075   8.284  37.569   0.468
87746W        W56076  13.131  37.910  14.430
87747W        W56077  16.788  16.586   1.730
87748W        W56078   0.329  32.056   2.780
87749W        W56079  12.720  23.593  11.559
87750W        W56080  12.225   5.328  12.490
87751W        W56081   9.786  42.383  14.028
87752W        W56082  25.049  20.622  12.013
87753W        W56083  14.705  30.961   0.350
87754W        W56084  29.647  26.517   3.759
87755W        W56085   5.792  12.626  13.030
87756W        W56086  44.769   8.672  12.980
87757W        W56087  26.545   2.915  11.889
87758W        W56088  15.773  24.486  12.514
87759W        W56089   6.291  24.019  13.009
87760W        W56090  28.041  42.491   1.816
87761W        W56091  24.098  22.126  14.776
87762W        W56092  24.589  12.118  13.348
87763W        W56093  30.521   1.378  13.854
87764W        W56094  40.476  24.495  14.474
87765W        W56095  17.170  42.866   2.819
87766W        W56096  10.225  33.419  12.496
87767W        W56097   0.987   2.919  11.956
87768W        W56098  25.047  39.004   4.170
87769W        W56099  33.561  39.484   3.149
87770W        W56100  42.856  43.969  12.010
87771W        W56101  39.969  24.139   1.272
87772W        W56102  44.291   5.406   0.456
87773W        W56103  21.731  44.267   0.796
87774W        W56104  27.094  23.017  10.903
87775W        W56105  42.445  32.112  14.474
87776W        W56106   4.337   6.200  12.086
87777W        W56107  41.858  36.088  11.007
87778W        W56108  12.238  30.520   1.360
87779W        W56109  21.753  29.978   0.781
87780W        W56110  30.430  38.851   0.333
87781W        W56111  36.501  34.025   0.377
87782W        W56112  29.425  44.375  10.108
87783W        W56113   4.387  22.031   1.284
87784W        W56114   0.799   0.344  12.887
87785W        W56115  29.157  40.438  11.609
87786W        W56116   3.754  23.117  13.313
87787W        W56117  42.820  27.174   0.780
87788W        W56118  27.537  12.279  13.461
87789W        W56119  41.951  18.230  10.485
87790W        W56120  43.456   3.894   1.212
87791W        W56121   2.796   1.903  14.338
87792W        W56122  34.520   3.712   3.266
87793W        W56123  10.782   8.183  12.033
87794W        W56124  39.850  35.549  13.343
87795W        W56125  30.055  34.570   0.290
87796W        W56126   8.269  34.390   4.220
87797W        W56127  38.009  27.542  12.438
87798W        W56128   9.871  34.564   3.736
87799W        W56129  27.541  19.272   1.704
87800W        W56130  11.638  41.336  14.487
87801W        W56131  11.800   2.888   2.882
87802W        W56132  19.757  42.429  13.313
87803W        W56133   2.854   7.772   0.469
87804W        W56134  11.824  16.590   2.271
87805W        W56135  36.425  40.518   4.660
87806W        W56136   7.232  41.033  13.830
87807W        W56137   2.365   8.172  12.419
87808W        W56138   1.388  35.937   3.159
87809W        W56139   5.930  28.100   2.412
87810W        W56140   4.903   6.212   3.189
87811W        W56141   1.951   6.293   2.203
87812W        W56142  23.091  25.691  11.128
87813W        W56143  44.844   4.777   4.736
87814W        W56144  27.566  33.922  13.040
87815W        W56145  12.244  25.988   0.408
87816W        W56146  31.922   5.766  14.290
87817W        W56147  26.579  18.598   3.639
87818W        W56148   4.337   0.442   2.746
87819W        W56149  13.801   6.902  10.894
87820W        W56150  12.847  34.984   0.735
87821W        W56151  44.282   4.748   4.278
87822W        W56152  22.549  26.477   2.738
87823W        W56153  27.036  17.202  13.927
87824W        W56154  31.535  26.548  14.827
87825W        W56155  26.957   4.835  13.902
87826W        W56156  28.994  36.572  13.453
87827W        W56157   3.438  12.626   0.412
87828W        W56158   8.805  42.336   0.776
87829W        W56159  28.549  11.730  11.858
87830W        W56160   3.223  29.493  12.080
87831W        W56161  24.684  23.217  10.454
87832W        W56162  33.016   5.228  12.997
87833W        W56163  34.438  31.059   2.732
87834W        W56164  17.787  28.547  13.336
87835W        W56165   9.207   0.877  12.847
87836W        W56166  37.385  24.064   1.742
87837W        W56167  25.974  23.590  11.510
87838W        W56168   4.226  27.193  12.372
87839W        W56169  42.481  22.183  12.086
87840W        W56170  27.067   7.852  11.561
87841W        W56171  43.480  21.093   4.281
87842W        W56172  17.767  24.091  14.968
87843W        W56173  31.614  19.580   2.869
87844W        W56174  27.136   6.364  10.559
87845W        W56175   6.705  41.503  14.956
87846W        W56176  32.507  26.676   4.161
87847W        W56177  10.158  36.969  14.324
87848W        W56178   8.296  25.121  10.497
87849W        W56179  26.111  41.997   2.260
87850W        W56180  13.617  24.489  14.900
87851W        W56181  20.137  16.642   0.861
87852W        W56182  24.060  13.669   3.288
87853W        W56183  36.987  12.642   1.906
87854W        W56184  18.056   3.335   3.864
87855W        W56185  35.052   8.296   4.295
87856W        W56186  13.175  25.141   2.729
87857W        W56187  35.416  13.261  12.488
87858W        W56188  17.802  39.465   1.222
87859W        W56189  27.186  20.214   2.814
87860W        W56190  28.583  22.209  14.515
87861W        W56191  37.930  40.896  12.523
87862W        W56192   6.910  10.641  13.513
87863W        W56193   1.359  31.512  13.472
87864W        W56194  26.479   7.319  11.544
87865W        W56195  38.061  31.081   2.757
87866W        W56196  21.688  13.253   1.424
87867W        W56197  36.523  37.834  11.487
87868W        W56198  32.888  32.955   0.915
87869W        W56199  36.477  18.117   0.779
87870W        W56200  16.587  14.152  11.424
87871W        W56201  43.870  14.197   1.285
87872W        W56202  36.516  24.010   0.309
87873W        W56203  35.464  18.549   0.798
87874W        W56204  12.123  37.868   1.306
87875W        W56205  17.794   5.387   1.766
87876W        W56206  20.566  30.436  11.996
87877W        W56207  25.032   5.281   3.256
87878W        W56208  42.026  20.671  14.438
87879W        W56209  26.000  38.886   2.785
87880W        W56210  28.593  20.701   3.794
87881W        W56211  27.039   2.827  12.886
87882W        W56212  18.671  31.900   3.316
87883W        W56213  26.555   4.775  14.796
87884W        W56214  29.021  32.484   4.626
87885W        W56215  19.569  15.297  12.064
87886W        W56216  37.538  12.630   1.449
87887W        W56217  17.755  23.227   0.806
87888W        W56218  16.228   0.331   4.803
87889W        W56219  33.086  41.400  11.864
87890W        W56220  37.499  27.015  14.878
87891W        W56221  23.694  34.980  12.953
87892W        W56222  14.713  38.419   0.945
87893W        W56223   6.715  25.207  14.495
87894W        W56224  36.968   2.899  13.929
87895W        W56225   7.776   5.228   3.637
87896W        W56226  25.700   9.298  10.944
87897W        W56227  29.085  44.400   0.910
87898W        W56228  25.682   7.669   0.361
87899W        W56229  13.130  27.053   3.643
87900W        W56230  25.700   8.884   3.252
87901W        W56231  16.214  12.709  12.386
87902W        W56232   6.406  31.010  12.561
87903W        W56233  17.289   0.368   1.386
87904W        W56234  27.104  10.803   2.272
87905W        W56235  37.839  16.307  12.980
87906W        W56236  14.758  40.383  12.986
87907W        W56237  20.614   7.218  13.307
87908W        W56238  22.740  42.839  10.449
87909W        W56239  18.287   2.873  11.608
87910W        W56240   4.923  40.821   1.384
87911W        W56241  25.698  37.546  11.089
87912W        W56242  41.893  19.733   5.240
87913W        W56243  30.529   1.894  12.055
87914W        W56244  24.129  13.701  14.359
87915W        W56245   1.417  23.725  13.992
87916W        W56246   3.872   3.316  13.521
87917W        W56247  21.576  35.504   0.813
87918W        W56248  34.468  31.137  13.023
87919W        W56249  11.294  14.117  14.436
87920W        W56250  10.642  23.637   1.840
87921W        W56251   9.702  22.514  13.505
87922W        W56252   4.755  40.429  13.947
87923W        W56253  18.261  12.687  11.537
87924W        W56254   9.196   3.931  13.806
87925W        W56255  21.613   1.929   0.389
87926W        W56256   5.371  25.482   1.776
87927W        W56257  32.430  28.524   4.246
87928W        W56258   4.869  18.260  13.369
87929W        W56259   0.399  22.213  13.881
87930W        W56260  30.008  31.510   4.224
87931W        W56261  31.416  36.411   0.308
87932W        W56262  36.063  32.055  12.985
87933W        W56263  19.273  37.858   2.403
87934W        W56264   5.742  42.358  14.943
87935W        W56265  28.573  28.074  11.957
87936W        W56266  18.166   0.902   0.478
87937W        W56267  28.552  13.336   3.164
87938W        W56268   6.687   8.356  12.932
87939W        W56269  35.088  13.230  11.576
87940W        W56270  11.275  25.489   4.130
87941W        W56271  13.234   1.761  14.997
87942W        W56272  28.087  21.530   4.273
87943W        W56273   6.764  36.406  13.539
87944W        W56274   1.457  24.675   3.251
87945W        W56275  39.432  13.131   3.757
87946W        W56276  44.274  42.944  12.491
87947W        W56277   8.380  36.073  13.397
87948W        W56278  43.418  30.477  12.953
87949W        W56279  31.544   3.371  14.974
87950W        W56280  35.872   6.383   4.299
87951W        W56281   9.754  40.864   1.777
87952W        W56282  19.661  27.131   4.230
87953W        W56283  26.689  41.805  11.971
87954W        W56284  38.944  22.675   4.241
87955W        W56285  32.137   1.314   3.381
87956W        W56286  14.777   8.166   4.838
87957W        W56287  26.556   4.205  12.498
87958W        W56288  16.572  29.430  11.984
87959W        W56289   1.811  35.582   1.849
87960W        W56290  25.147  27.016   1.374
87961W        W56291  28.074   8.666  11.437
87962W        W56292  31.485   0.492   4.295
87963W        W56293  22.032  30.447   0.394
87964W        W56294  30.606  19.074   4.774
87965W        W56295  12.822   6.800   4.820
87966W        W56296  41.357  29.101   3.387
87967W        W56297  17.707  22.023   1.847
87968W        W56298   6.756  29.095  11.464
87969W        W56299   9.836  37.080   2.867
87970W        W56300   9.839  34.531   0.384
87971W        W56301  32.095   3.766   1.852
87972W        W56302  41.326  44.873   4.262
87973W        W56303   7.732  14.101  13.793
87974W        W56304  10.759  28.532   2.771
87975W        W56305  17.621  37.386   3.236
87976W        W56306  20.627  42.363  13.825
87977W        W56307  17.107   8.763  11.514
87978W        W56308  13.805   9.689   3.707
87979W        W56309  32.548  44.479   1.920
87980W        W56310  33.517  44.928   2.397
87981W        W56311  15.594   2.360   2.384
87982W        W56312   8.363  30.029  12.528
87983W        W56313   6.364   7.389  12.517
87984W        W56314   8.202  19.111   4.131
87985W        W56315  33.967  16.203   2.806
87986W        W56316  35.502  29.043  13.004
87987W        W56317  28.023  31.600  11.424
87988W        W56318  19.569   5.718   0.425
87989W        W56319  37.337  26.114  10.506
87990W        W56320  24.987   2.886  10.427
87991W        W56321  16.288  34.527   9.644
87992W        W56322   9.853  33.526  10.929
87993W        W56323   2.459  36.854   0.738
87994W        W56324   5.263  22.007  14.429
87995W        W56325  37.503   5.317   1.250
87996W        W56326   9.165  36.493   4.124
87997W        W56327  13.709  16.121  14.836
87998W        W56328  43.013  18.185   3.630
87999W        W56329  12.807  28.185  10.451
88000W        W56330  38.540  43.429   3.695
88001W        W56331  29.536  15.211  11.110
88002W        W56332  25.642  11.683   0.831
88003W        W56333  12.183  28.019  11.983
88004W        W56334  10.164  43.796   9.933
88005W        W56335  14.615  18.122   1.848
88006W        W56336   2.254  31.901  10.939
88007W        W56337  27.553   9.316   2.207
88008W        W56338   4.721  10.747   0.955
88009W        W56339  13.277  20.600   0.885
88010W        W56340   6.417  44.335  11.512
88011W        W56341   2.243  17.124   2.666
88012W        W56342   3.252  38.076   2.346
88013W        W56343   1.413  29.079  12.859
88014W        W56344  31.974  32.557  13.982
88015W        W56345   9.309  34.099   1.907
88016W        W56346   0.331  30.050  13.364
88017W        W56347  31.991  10.717  12.533
88018W        W56348  10.292   6.761  14.503
88019W        W56349  44.467  37.056   1.752
88020W        W56350  44.920   2.298  12.572
88021W        W56351  27.086  25.171   3.721
88022W        W56352  13.843  11.135  10.428
88023W        W56353  25.701  11.149   2.369
88024W        W56354  23.717   2.453  14.906
88025W        W56355  26.135  36.992   3.148
88026W        W56356  31.150  22.673  10.986
88027W        W56357  12.830  18.073  13.438
88028W        W56358   5.433  18.723  14.408
88029W        W56359   9.363  10.767  11.008
88030W        W56360  14.628  12.326   0.907
88031W        W56361  31.486  13.640  11.064
88032W        W56362   5.297  21.638   4.266
88033W        W56363   1.801  14.134   1.895
88034W        W56364  39.029  27.993  14.007
88035W        W56365  14.828   0.254  14.432
88036W        W56366  32.466   8.228  10.468
88037W        W56367  36.532  22.171  13.501
88038W        W56368  13.300  28.451  14.306
88039W        W56369  43.967  42.500  14.827
88040W        W56370  15.814  34.597   3.371
88041W        W56371  40.053  23.626  12.555
88042W        W56372  39.445  28.953  11.990
88043W        W56373  24.553  40.833   2.390
88044W        W56374   6.296  32.400   2.303
88045W        W56375  30.922   7.187  13.983
88046W        W56376  24.549  30.024   4.805
88047W        W56377  12.160  11.150  11.098
88048W        W56378  31.091  12.264  12.502
88049W        W56379  16.787  39.893  10.507
88050W        W56380   0.891   4.719   2.727
88051W        W56381  40.421  22.025  14.800
88052W        W56382  39.023  24.036   4.798
88053W        W56383   0.373  21.108  11.489
88054W        W56384  32.987  24.073  14.963
88055W        W56385   7.321  32.392   1.870
88056W        W56386   1.754   7.874   2.697
88057W        W56387  28.635  12.277   3.842
88058W        W56388  18.286  18.067   2.201
88059W        W56389  33.393   0.809   2.274
88060W        W56390  36.075  20.620  14.011
88061W        W56391   8.841  38.480   1.245
88062W        W56392   2.782  42.966   3.264
88063W        W56393  26.013   0.493   2.903
88064W        W56394  39.049  35.919   2.243
88065W        W56395  30.578   6.680   2.256
88066W        W56396  16.114   9.393   0.927
88067W        W56397   8.222   2.765  10.629
88068W        W56398  14.615  34.467  11.893
88069W        W56399  31.570  10.269  14.378
88070W        W56400  21.646   8.668  11.496
88071W        W56401  26.107   9.743   5.273
88072W        W56402  12.337  44.266  12.909
88073W        W56403  17.203  24.111   3.202
88074W        W56404  32.064  19.667  14.875
88075W        W56405  28.585  38.460  12.478
88076W        W56406  42.807  25.485   2.335
88077W        W56407  35.088  42.941   1.715
88078W        W56408  25.155  36.383   2.193
88079W        W56409  38.527  34.913  12.017
88080W        W56410  18.253   7.241  14.776
88081W        W56411   5.903  41.811   1.431
88082W        W56412  10.640  24.198   0.848
88083W        W56413  17.790  13.812   3.262
88084W        W56414   8.707  11.630  12.529
88085W        W56415  18.557  32.572   4.223
88086W        W56416  17.784  22.557   0.344
88087W        W56417  39.453  37.988   2.260
88088W        W56418  32.618  32.956  10.620
88089W        W56419  25.094  14.129   3.816
88090W        W56420   0.353  39.327   3.159
88091W        W56421  35.020  22.507  13.970
88092W        W56422  42.796  13.669   4.331
88093W        W56423  12.650  32.620  13.874
88094W        W56424  43.328  36.547  11.533
88095W        W56425  30.484  19.045   9.948
88096W        W56426  26.507  20.543  12.405
88097W        W56427  15.783  24.078   3.864
88098W        W56428  30.605   8.283  12.571
88099W        W56429  37.467  23.584  10.050
88100W        W56430   0.749   4.282   4.132
88101W        W56431  35.391  27.942   2.662
88102W        W56432   6.784  35.476   1.730
88103W        W56433  25.573   3.227   3.637
88104W        W56434  25.199  25.972  14.811
88105W        W56435  11.665   7.693  13.403
88106W        W56436  36.027  37.858  13.914
88107W        W56437  44.351  22.734  13.955
88108W        W56438   0.852  18.701  14.410
88109W        W56439  28.607   9.876   5.096
88110W        W56440  38.918  31.417   1.430
88111W        W56441   3.873  18.555   0.736
88112W        W56442  25.081   5.826  10.584
88113W        W56443  41.012   1.914   1.237
88114W        W56444  20.710  38.430   2.405
88115W        W56445  19.700  44.950  11.969
88116W        W56446  28.468  33.034  10.443
88117W        W56447  32.474  32.028  13.483
88118W        W56448  44.423  11.867  13.469
88119W        W56449   8.249  20.259  11.102
88120W        W56450  15.628  34.425  14.357
88121W        W56451  20.685  34.864  13.910
88122W        W56452  32.415  34.882  11.083
88123W        W56453  11.234  21.029   0.919
88124W        W56454  10.322  41.807  13.464
88125W        W56455  33.901  29.042   0.903
88126W        W56456  32.620  42.315   2.329
88127W        W56457  20.141  40.445   2.368
88128W        W56458  40.845  15.645  14.359
88129W        W56459  23.657  37.356   0.373
88130W        W56460  17.203  28.955   3.728
88131W        W56461  18.091   0.796  11.382
88132W        W56462  14.161   6.368   2.815
88133W        W56463  41.320   6.325  13.387
88134W        W56464   1.871  43.361  12.880
88135W        W56465  38.951   0.914  13.930
88136W        W56466   4.270   3.747  11.883
88137W        W56467  39.371  41.789   4.746
88138W        W56468  10.259  27.592  10.979
88139W        W56469  38.496  17.782  11.984
88140W        W56470   6.397  31.603   4.829
88141W        W56471  25.998  38.836   4.331
88142W        W56472  33.593   3.267  11.518
88143W        W56473   7.210  18.732  14.016
88144W        W56474  44.893   2.886   4.646
88145W        W56475  11.258  14.192   3.777
88146W        W56476  26.158  10.149   0.355
88147W        W56477  22.746   2.857  10.594
88148W        W56478  14.123   6.761   2.702
88149W        W56479  26.539  43.833   1.703
88150W        W56480  16.727   7.892  13.899
88151W        W56481  35.922  21.623  14.374
88152W        W56482  22.671   9.767   4.283
88153W        W56483   1.884  17.700   1.797
88154W        W56484  18.090  18.145   3.156
88155W        W56485  30.594   7.282  13.972
88156W        W56486  34.988  21.629  12.903
88157W        W56487  38.343  34.583   0.803
88158W        W56488  29.639  26.480  10.896
88159W        W56489  16.116   6.805  12.954
88160W        W56490  15.302  28.177   3.192
88161W        W56491  17.177   0.492  14.860
88162W        W56492  33.536  44.322  10.957
88163W        W56493  31.139  25.501  11.534
88164W        W56494  37.432  10.307  12.997
88165W        W56495  36.893  12.229   0.306
88166W        W56496  29.103  19.556  11.125
88167W        W56497  18.714  16.267  11.056
88168W        W56498   9.393  19.253  13.048
88169W        W56499   1.895  37.412  10.436
88170W        W56500  30.150  44.488  13.866
88171W        W56501  29.485  22.744  12.377
88172W        W56502  16.219   4.432   1.236
88173W        W56503   4.925  19.755   1.742
88174W        W56504  22.186   3.905   4.189
88175W        W56505  19.569  13.605  12.343
88176W        W56506   3.317  12.261   0.443
88177W        W56507  32.481  21.604  12.569
88178W        W56508  15.234  24.214   2.198
88179W        W56509  40.866  35.393   0.410
88180W        W56510  41.027   4.269   0.474
88181W        W56511   7.748  18.545  10.916
88182W        W56512  26.004   6.310   4.249
88183W        W56513  25.023  23.708   3.313
88184W        W56514  17.586  18.548   0.875
88185W        W56515  21.686   6.298   1.413
88186W        W56516  25.561  29.537   4.614
88187W        W56517  18.753  21.045  12.002
88188W        W56518  31.522  34.595   4.616
88189W        W56519  44.392  36.530   4.600
88190W        W56520  21.723  18.219   4.832
88191W        W56521  27.569  11.784  12.342
88192W        W56522   2.458  34.587  13.923
88193W        W56523  11.292  24.657   2.729
88194W        W56524  39.400  20.130   0.753
88195W        W56525  26.677  32.587  11.464
88196W        W56526  14.337   5.422  14.461
88197W        W56527  36.455  19.248  13.931
88198W        W56528  39.003  34.899   3.755
88199W        W56529  44.441   1.406   0.377
88200W        W56530  27.953   4.347   3.253
88201W        W56531   5.229  29.928  14.413
88202W        W56532   8.232  10.759  12.055
88203W        W56533  43.501  21.560  10.507
88204W        W56534   4.851  38.433   3.199
88205W        W56535  35.916   3.830   2.748
88206W        W56536   6.803  40.831  12.052
88207W        W56537   3.806  20.624   0.395
88208W        W56538  17.242  14.306  10.089
88209W        W56539  34.549  31.905   4.635
88210W        W56540   6.726  25.214   0.936
88211W        W56541  44.473  28.648   2.323
88212W        W56542  43.813   3.444  12.055
88213W        W56543  21.544   5.207  12.926
88214W        W56544   0.919   7.369  10.546
88215W        W56545  34.045  41.829  14.388
88216W        W56546  37.469  34.501  14.288
88217W        W56547  42.988  27.122  10.998
88218W        W56548   4.317  29.116   0.937
88219W        W56549  20.621  33.107  11.003
88220W        W56550  29.031  43.811   1.886
88221W        W56551  25.091  18.293   4.232
88222W        W56552  40.989  11.643   3.297
88223W        W56553  37.014  34.889  14.513
88224W        W56554  22.603  10.250   9.937
88225W        W56555  31.444  23.096   2.192
88226W        W56556  38.377  24.999  12.909
88227W        W56557  20.642  25.053  14.278
88228W        W56558   2.470  18.148   0.895
88229W        W56559   6.225  42.377  13.878
88230W        W56560  37.420  12.757   4.279
88231W        W56561   6.845   8.657  12.395
88232W        W56562   7.177   6.748   1.875
88233W        W56563  14.780  37.464  13.793
88234W        W56564  15.716  32.912  13.364
88235W        W56565  19.586   3.403  14.411
88236W        W56566  20.105  29.160  13.432
88237W        W56567  10.858  17.756   4.317
88238W        W56568  14.315  30.506  11.411
88239W        W56569  27.596  16.725   2.866
88240W        W56570  38.330   1.287   4.604
88241W        W56571  29.657   1.422   4.287
88242W        W56572  27.992  36.071   3.814
88243W        W56573  44.265  39.406  13.922
88244W        W56574  16.662  40.397  14.376
88245W        W56575  14.321   7.334  13.509
88246W        W56576   7.384  40.859  11.601
88247W        W56577  33.997  43.316  10.479
88248W        W56578  24.569  36.396   2.715
88249W        W56579  21.685  23.113  14.321
88250W        W56580  19.103  18.732  14.760
88251W        W56581  21.263  13.334   2.900
88252W        W56582  38.011   4.430  12.961
88253W        W56583  30.957  12.706   1.274
88254W        W56584   8.880  26.536   0.389
88255W        W56585  42.851  40.846   0.859
88256W        W56586  24.609  23.699   1.739
88257W        W56587  33.388  40.858  12.994
88258W        W56588  38.908  41.919  13.854
88259W        W56589  33.999  26.465  11.876
88260W        W56590  38.832  29.608   0.481
88261W        W56591  20.041  22.065  10.525
88262W        W56592  23.228  17.738   3.819
88263W        W56593  13.656  32.977   4.114
88264W        W56594  31.582  18.719   0.795
88265W        W56595  16.678   1.738   1.383
88266W        W56596  27.515  12.638   4.189
88267W        W56597   2.760  15.766  13.370
88268W        W56598  23.503  33.536   4.671
88269W        W56599  43.993  33.936  14.297
88270W        W56600   0.814  28.498  11.051
88271W        W56601  20.681   1.249   1.743
88272W        W56602  23.613  32.067  10.410
88273W        W56603  16.622  21.686   2.867
88274W        W56604  33.077  27.017   4.648
88275W        W56605  32.400  13.691   3.353
88276W        W56606  39.924   1.907  11.423
88277W        W56607  26.481   0.953  13.473
88278W        W56608  41.837  11.695   2.865
88279W        W56609   2.934  14.710  10.554
88280W        W56610   4.399  24.719   2.348
88281W        W56611  12.748   0.750  11.441
88282W        W56612  24.110  41.873   0.793
88283W        W56613  19.558  38.056  14.883
88284W        W56614  17.157   6.754  10.455
88285W        W56615  37.398  31.640  12.570
88286W        W56616  37.496  18.290   2.800
88287W        W56617  12.127  28.443  14.935
88288W        W56618  32.604  39.420  12.059
88289W        W56619   4.447  13.754  11.108
88290W        W56620  27.547   9.715   5.790
88291W        W56621  23.056   2.409  10.906
88292W        W56622   4.283  40.930   2.885
88293W        W56623  20.583  15.216  14.806
88294W        W56624  11.285   1.413  11.382
88295W        W56625   9.735  20.099   1.806
88296W        W56626   1.813  40.029   1.822
88297W        W56627  34.552   8.384   2.191
88298W        W56628  36.466  33.093  14.916
88299W        W56629   3.292  23.157  10.919
88300W        W56630  19.088   9.345   3.794
88301W        W56631  34.604   8.246  14.966
88302W        W56632  34.493  35.454   1.892
88303W        W56633  40.370  40.530   4.256
88304W        W56634  23.557  18.281   2.233
88305W        W56635  13.660  40.498  14.947
88306W        W56636  15.797  31.438   3.352
88307W        W56637  43.422  10.805  10.569
88308W        W56638  44.894   1.755   1.358
88309W        W56639  12.349  44.482  14.875
88310W        W56640  38.422  17.292   4.737
88311W        W56641  25.493  17.655   4.716
88312W        W56642  27.140   2.316  12.446
88313W        W56643  31.068  37.467   0.743
88314W        W56644  11.821   0.878   1.255
88315W        W56645   9.665  25.647   4.354
88316W        W56646  19.147  28.580   2.740
88317W        W56647   6.800  24.529  14.379
88318W        W56648  29.508  30.633   0.277
88319W        W56649  15.808  10.836  13.817
88320W        W56650  20.039  12.834  14.403
88321W        W56651  19.775   7.762  12.359
88322W        W56652  16.293  34.592   5.601
88323W        W56653  23.033  24.502   3.660
88324W        W56654  31.112  39.989  10.148
88325W        W56655  29.133  26.093   2.853
88326W        W56656  27.659  13.831  14.786
88327W        W56657  26.666  10.715   0.867
88328W        W56658  10.217  33.450   2.240
88329W        W56659  34.105  30.943  13.925
88330W        W56660  29.577  15.592   4.146
88331W        W56661  17.304  38.520   0.931
88332W        W56662  38.073  31.961   1.697
88333W        W56663  44.483  26.013   0.831
88334W        W56664  24.195  20.185  10.589
88335W        W56665  21.125  26.065   2.384
88336W        W56666  44.416   3.774  12.520
88337W        W56667   2.823   8.712   3.703
88338W        W56668   1.352   3.908  11.582
88339W        W56669  18.632  25.678  14.503
88340W        W56670  18.086  16.078  13.512
88341W        W56671  27.631  20.698   3.383
88342W        W56672  22.744  40.806  14.359
88343W        W56673  22.545  42.996   0.764
88344W        W56674  13.121  39.405  14.921
88345W        W56675  38.543  27.171   2.873
88346W        W56676  10.198  20.725   0.419
88347W        W56677  28.544   4.778   3.813
88348W        W56678  36.495  13.208   0.372
88349W        W56679  10.790  25.508   0.452
88350W        W56680  22.670  36.509   3.370
88351W        W56681  39.021  37.460   2.198
88352W        W56682  11.770  19.228   0.794
88353W        W56683  43.880  20.168   1.436
88354W        W56684   1.895  41.998   1.889
88355W        W56685  35.472  41.903  14.414
88356W        W56686  20.689  20.747  14.321
88357W        W56687  44.299   6.863  11.949
88358W        W56688  37.417   3.375   4.174
88359W        W56689  22.669  36.428   1.867
88360W        W56690   3.764  39.407   0.476
88361W        W56691  44.413   7.336   1.846
88362W        W56692  35.372  29.091   1.790
88363W        W56693  20.213  16.788   5.272
88364W        W56694  31.093  14.337  13.535
88365W        W56695   4.252  40.405   2.865
88366W        W56696  40.500   9.391   4.302
88367W        W56697  28.522  23.665   0.917
88368W        W56698  18.680  27.690   1.262
88369W        W56699  27.172  41.909   4.127
88370W        W56700   5.719  42.809  14.465
88371W        W56701  25.174  40.428  11.466
88372W        W56702  17.646  27.617   4.339
88373W        W56703  14.731   4.768  14.380
88374W        W56704  36.570   9.884   0.250
88375W        W56705  36.454  36.383   3.272
88376W        W56706  37.565   3.712  11.433
88377W        W56707   7.333  25.069   1.876
88378W        W56708  18.242  12.137  14.971
88379W        W56709  19.774  40.044   2.766
88380W        W56710  36.433  41.352  11.409
88381W        W56711   5.867  30.925   0.791
88382W        W56712   0.377  22.040  12.400
88383W        W56713  20.728  27.669  14.968
88384W        W56714  23.025  33.419  11.497
88385W        W56715  44.378  40.965  10.427
88386W        W56716  11.166   2.350  13.808
88387W        W56717  31.634  29.001  13.850
88388W        W56718  12.249  44.900   1.373
88389W        W56719   3.231  36.452  13.320
88390W        W56720  11.264  32.005  11.453
88391W        W56721  41.992  20.646  13.802
88392W        W56722   6.791  43.933  11.030
88393W        W56723  32.452  31.914   3.724
88394W        W56724  28.071   0.789   0.408
88395W        W56725   8.882  21.740  11.932
88396W        W56726   0.416  33.409   0.441
88397W        W56727  26.617  20.058   1.701
88398W        W56728  21.197   2.943  12.521
88399W        W56729  43.798  13.123  11.868
88400W        W56730  35.961  29.460   3.157
88401W        W56731   7.810  24.026   2.233
88402W        W56732  12.834  27.637  10.411
88403W        W56733   5.323  29.595  11.883
88404W        W56734  21.520  27.962   1.234
88405W        W56735   3.332  39.556   1.281
88406W        W56736   3.354   5.394  12.032
88407W        W56737  42.298   8.815  14.803
88408W        W56738   3.257  22.720  13.466
88409W        W56739  31.548  26.527  14.348
88410W        W56740   4.250  33.417   0.799
88411W        W56741  33.406  29.537   5.199
88412W        W56742  14.133  16.699  11.109
88413W        W56743  14.727  36.506  12.983
88414W        W56744  21.641  27.650   2.290
88415W        W56745  38.934  23.564   1.792
88416W        W56746  24.101  12.121  11.608
88417W        W56747  30.043   2.385  14.437
88418W        W56748  17.081  21.024  14.779
88419W        W56749  20.211  10.235   2.395
88420W        W56750  25.571  28.025  13.311
88421W        W56751  37.896  26.469  10.446
88422W        W56752  13.150  11.841  13.871
88423W        W56753  32.901  37.356  13.063
88424W        W56754  15.156  39.554  13.360
88425W        W56755   9.381   2.309   0.478
88426W        W56756   1.282  37.530  12.916
88427W        W56757  22.680  36.000   1.709
88428W        W56758   2.248  10.787   3.726
88429W        W56759  13.748  42.479  10.619
88430W        W56760  35.397  44.496  10.550
88431W        W56761  40.404  17.288   5.193
88432W        W56762  13.304   9.749  11.060
88433W        W56763  22.590  21.032   0.399
88434W        W56764  34.506   8.885   0.946
88435W        W56765  33.622  32.475  11.003
88436W        W56766  11.840  36.412   1.438
88437W        W56767  28.493  20.707  11.935
88438W        W56768   7.172  33.998  12.860
88439W        W56769  20.691  43.438   1.426
88440W        W56770  12.725  35.928   2.343
88441W        W56771  12.649  24.569   3.210
88442W        W56772   5.792  34.371  10.900
88443W        W56773  13.745   5.242  14.792
88444W        W56774   4.921  36.934   9.968
88445W        W56775  38.877  37.886  12.479
88446W        W56776  38.523   5.803   9.479
88447W        W56777  43.805  40.996  12.404
88448W        W56778   2.287   6.213  13.849
88449W        W56779  34.884  31.931   2.763
88450W        W56780  21.657  18.670   0.735
88451W        W56781  15.784  25.153   2.895
88452W        W56782   9.355  44.005   0.914
88453W        W56783   4.772   4.305   0.351
88454W        W56784   3.800  37.565  11.985
88455W        W56785  25.586  44.459  11.892
88456W        W56786  30.156  44.854   1.881
88457W        W56787  15.311   6.318   0.256
88458W        W56788  19.148   9.823   3.167
88459W        W56789  30.639  30.932  14.470
88460W        W56790  28.622  36.495   3.871
88461W        W56791  25.482  31.608   4.196
88462W        W56792  38.545  27.178   3.667
88463W        W56793  39.896  25.498  14.759
88464W        W56794  37.971  29.433   4.186
88465W        W56795  23.235  33.124  12.496
88466W        W56796  36.545  11.365  12.421
88467W        W56797  25.024   9.859  11.003
88468W        W56798  16.285  28.490  11.575
88469W        W56799   5.372  44.372  14.411
88470W        W56800   2.420  19.268   1.929
88471W        W56801  38.897   8.238   2.236
88472W        W56802   2.447  11.822   0.477
88473W        W56803  40.938   5.823  11.042
88474W        W56804  17.169  30.613   4.640
88475W        W56805  28.612   2.778  10.440
88476W        W56806  24.555   4.729   4.776
88477W        W56807  22.106  26.462  13.458
88478W        W56808  17.104  32.461  11.476
88479W        W56809  10.364  16.183  11.594
88480W        W56810  28.066  25.001  10.911
88481W        W56811   7.287  22.101   0.826
88482W        W56812  13.602  43.331   1.737
88483W        W56813  16.576  25.086  12.422
88484W        W56814  36.863  16.183   0.848
88485W        W56815  15.670  30.975   0.835
88486W        W56816  32.101  35.520  14.973
88487W        W56817  23.113  13.228   4.812
88488W        W56818  39.475  36.962  12.425
88489W        W56819  28.452  20.103   0.261
88490W        W56820   4.420  23.010   1.379
88491W        W56821  17.617  43.817   0.393
88492W        W56822  14.274  25.474   1.710
88493W        W56823  15.698  19.692   9.985
88494W        W56824  18.682  19.746  13.353
88495W        W56825  13.343   7.189   3.734
88496W        W56826  30.549  24.529   4.336
88497W        W56827   2.308  18.684   0.366
88498W        W56828  28.991  13.812  11.010
88499W        W56829  17.598  15.326  14.381
88500W        W56830  22.205   1.799   1.858
88501W        W56831  26.657   0.391   4.763
88502W        W56832  21.514  41.342  12.419
88503W        W56833   3.321  26.112   2.800
88504W        W56834   3.413  23.602   2.758
88505W        W56835  11.843  22.552   0.262
88506W        W56836  14.637  18.785  12.090
88507W        W56837  34.519   2.405   4.215
88508W        W56838  11.664  28.503   3.767
88509W        W56839   4.912  24.701  10.623
88510W        W56840   8.254  28.046   0.442
88511W        W56841  35.945  23.618  13.045
88512W        W56842   6.807   6.190   0.352
88513W        W56843  32.541  31.430  13.057
88514W        W56844  37.830  31.611  12.057
88515W        W56845  35.023   7.365  14.350
88516W        W56846  43.500  14.311  12.922
88517W        W56847  36.388  39.900   1.898
88518W        W56848  27.181  41.317  14.928
88519W        W56849  20.100  22.635  13.060
88520W        W56850  29.085   9.358   2.825
88521W        W56851   0.265  42.855   2.680
88522W        W56852  10.732   2.305  13.908
88523W        W56853   6.870   4.280  13.385
88524W        W56854   6.818  20.236  11.524
88525W        W56855   5.353  24.065  11.987
88526W        W56856  43.900  35.930   0.755
88527W        W56857  21.106  23.101   1.329
88528W        W56858  42.912  18.690  14.285
88529W        W56859   5.221  27.011  14.293
88530W        W56860  26.181  17.156   2.319
88531W        W56861  35.974  18.728   0.347
88532W        W56862  44.471  18.254  14.947
88533W        W56863   6.910  34.389  13.010
88534W        W56864  22.590   1.366  11.065
88535W        W56865  27.143  13.739  12.457
88536W        W56866  17.252  23.990   1.451
88537W        W56867   5.879  33.096   1.905
88538W        W56868  34.424   2.367   3.650
88539W        W56869  10.826  30.143   1.404
88540W        W56870  31.451  14.242   1.250
88541W        W56871  19.282  33.564   2.684
88542W        W56872  26.150  26.996   1.229
88543W        W56873  22.123   9.789   9.463
88544W        W56874  35.897  38.967   4.662
88545W        W56875  26.165  17.218   2.807
88546W        W56876  30.561   4.836  11.429
88547W        W56877  44.378   9.729  11.408
88548W        W56878  20.749  39.892   3.694
88549W        W56879  36.092  15.252  11.031
88550W        W56880  33.943  26.463  14.999
88551W        W56881  18.106  23.159  11.551
88552W        W56882  16.135  11.686   1.899
88553W        W56883   6.319  34.519  11.032
88554W        W56884  43.488   1.399   1.842
88555W        W56885  30.516  24.144  12.467
88556W        W56886  10.178  31.641   2.297
88557W        W56887  13.609  38.006   2.234
88558W        W56888  42.470  37.479  12.032
88559W        W56889  36.587  18.786  12.552
88560W        W56890  26.561  43.878   9.936
88561W        W56891   3.848  24.582   3.257
88562W        W56892  39.019  27.519  10.579
88563W        W56893  11.723  40.820   1.836
88564W        W56894  29.667  14.766   1.331
88565W        W56895  18.284   8.402   3.838
88566W        W56896  11.357  35.485   2.375
88567W        W56897   1.853  41.894   3.798
88568W        W56898  21.578  30.442   0.881
88569W        W56899   8.766  10.295   4.297
88570W        W56900  11.647  11.359  14.767
88571W        W56901  20.053  14.658  11.556
88572W        W56902   3.347   0.801   1.366
88573W        W56903  29.094  40.354  12.857
88574W        W56904  36.348   4.783   2.846
88575W        W56905  27.183  15.202   4.658
88576W        W56906  18.633  26.457  12.341
88577W        W56907  34.109  35.108   1.815
88578W        W56908  15.763  41.326   2.900
88579W        W56909   3.777  11.165   3.200
88580W        W56910  15.747  41.348   1.249
88581W        W56911  12.209  16.615  13.055
88582W        W56912  20.082  36.390   3.311
88583W        W56913  37.083  32.079  12.555
88584W        W56914  44.449  20.608   1.757
88585W        W56915  17.770   3.814  11.078
88586W        W56916  40.799  34.990  11.424
88587W        W56917  33.442  39.950  14.357
88588W        W56918  27.020  16.642  11.044
88589W        W56919  19.178  42.332  14.477
88590W        W56920  18.161  11.636  12.411
88591W        W56921   5.240  13.114  11.065
88592W        W56922  41.801   7.843  12.366
88593W        W56923  27.623  41.034   2.673
88594W        W56924  40.524   3.304   0.874
88595W        W56925  35.431   5.406   2.878
88596W        W56926  21.520   6.364   2.379
88597W        W56927  20.589  18.264   3.735
88598W        W56928   7.807   7.368  10.099
88599W        W56929   1.450  40.306  10.476
88600W        W56930  11.159  38.436   4.666
88601W        W56931  37.949   5.266  13.546
88602W        W56932   8.205  37.553  12.860
88603W        W56933  14.146   0.857   3.268
88604W        W56934  19.230  22.175   0.292
88605W        W56935  28.620  31.470  14.999
88606W        W56936  11.273  40.516  11.903
88607W        W56937   2.346  26.550  10.509
88608W        W56938   7.744  30.519  10.994
88609W        W56939   2.740  17.663   3.670
88610W        W56940  16.241  33.612  14.866
88611W        W56941   1.947  29.612  12.564
88612W        W56942  28.139  44.430  13.898
88613W        W56943  26.504  43.493  12.416
88614W        W56944  24.037  27.500   2.199
88615W        W56945  34.096  41.991   2.293
88616W        W56946  12.824  43.823  11.924
88617W        W56947   3.919  15.114  13.447
88618W        W56948  13.153  19.268  13.461
88619W        W56949  31.003  24.082  10.055
88620W        W56950   7.184  42.289  14.844
88621W        W56951  40.980   6.219   1.356
88622W        W56952   2.314  21.090  11.950
88623W        W56953   7.378  15.674   5.124
88624W        W56954  44.264  28.139   4.704
88625W        W56955  14.661  23.224   2.841
88626W        W56956  33.098  21.550   2.335
88627W        W56957   2.890  29.502  11.927
88628W        W56958  23.711  42.911   0.337
88629W        W56959  27.044  32.481   4.655
88630W        W56960  40.986  39.976  12.065
88631W        W56961  15.297  43.015   2.767
88632W        W56962  39.985  33.091   1.881
88633W        W56963  38.426  21.535   2.410
88634W        W56964   2.312   8.831   3.824
88635W        W56965   7.794  10.817   1.778
88636W        W56966  37.547  42.778  12.497
88637W        W56967  42.503  10.822  10.446
88638W        W56968  27.536  36.848  13.799
88639W        W56969  19.773  42.401  11.087
88640W        W56970  17.672  24.049   3.375
88641W        W56971  27.611  29.020   4.153
88642W        W56972   9.890  12.266  13.055
88643W        W56973  19.691  13.126  10.420
88644W        W56974  18.755   2.302   2.403
88645W        W56975   2.780  30.993  10.939
88646W        W56976  28.576  34.605  13.904
88647W        W56977  29.073  22.007   5.262
88648W        W56978  20.617   8.225  12.569
88649W        W56979  17.145   8.789  14.427
88650W        W56980  31.905  33.021  14.443
88651W        W56981   8.385  44.448   4.796
88652W        W56982  21.220  35.921  14.506
88653W        W56983  25.028  38.424  14.452
88654W        W56984  26.051  32.608   0.863
88655W        W56985  15.128  20.096  12.535
88656W        W56986  10.745   0.777  10.090
88657W        W56987   7.844  29.036  14.001
88658W        W56988  16.736   8.392   2.887
88659W        W56989  23.584  21.177  13.942
88660W        W56990  24.036  33.518   5.259
88661W        W56991  26.013   9.826  14.769
88662W        W56992   0.984  12.226  11.982
88663W        W56993   1.247  44.996  13.999
88664W        W56994  40.968  21.087   0.438
88665W        W56995  44.887  36.915   0.357
88666W        W56996  43.870  44.931  13.986
88667W        W56997  33.589  23.128  14.765
88668W        W56998  17.284  42.438   0.398
88669W        W56999  13.637  26.672   4.761
88670W        W57000  14.697  15.115  13.872
88671W        W57001  37.527   6.888  10.629
88672W        W57002  22.681  19.681   4.309
88673W        W57003  21.733  39.514   2.240
88674W        W57004   3.281   5.907   1.339
88675W        W57005   8.378  30.605   4.226
88676W        W57006   0.883  14.202   5.290
88677W        W57007  29.121  13.180  14.286
88678W        W57008  29.069   4.242  14.911
88679W        W57009  16.801   3.360  12.917
88680W        W57010  11.647  20.735   2.877
88681W        W57011  18.218  31.414   2.237
88682W        W57012  36.450  30.556   0.368
88683W        W57013  37.346  37.950   1.809
88684W        W57014   4.323  38.989   0.300
88685W        W57015  18.787  36.960  14.323
88686W        W57016  31.461   6.853   2.235
88687W        W57017  44.778  24.696  14.441
88688W        W57018   2.740  17.762   2.236
88689W        W57019  15.085  42.310  14.888
88690W        W57020  26.975  37.902   4.170
88691W        W57021   4.778  43.443   2.820
88692W        W57022  28.437  24.133  14.301
88693W        W57023  33.520  22.103   2.678
88694W        W57024  19.700  34.508  12.870
88695W        W57025   8.655  16.187   3.170
88696W        W57026   1.887  16.598  13.420
88697W        W57027   1.274  33.088   3.214
88698W        W57028   0.801  36.495  12.505
88699W        W57029   8.757  31.000  11.052
88700W        W57030   3.430  34.397  13.793
88701W        W57031   3.794  35.105  13.881
88702W        W57032  30.962  31.551  12.899
88703W        W57033  14.790  29.105  12.559
88704W        W57034  10.266  13.224  13.317
88705W        W57035  21.579  37.535  11.104
88706W        W57036  40.349  11.839   5.120
88707W        W57037  42.486  34.998  12.941
88708W        W57038  16.126  10.655  13.873
88709W        W57039  17.695  23.608   4.728
88710W        W57040  29.589  10.346  12.897
88711W        W57041  18.780  31.004   0.348
88712W        W57042  17.646   5.374  12.341
88713W        W57043  42.856   6.188  10.936
88714W        W57044  40.021  19.256  14.865
88715W        W57045  15.323  34.037  11.525
88716W        W57046  37.080  22.081   1.427
88717W        W57047   7.763  23.505   3.283
88718W        W57048  21.026  31.434   1.251
88719W        W57049  34.956  22.198  11.895
88720W        W57050  25.002  27.484  11.403
88721W        W57051  18.163  32.962  14.804
88722W        W57052  44.395   5.213  13.041
88723W        W57053  30.482  18.214  10.982
88724W        W57054  27.182  33.561  11.966
88725W        W57055  23.213  41.458   1.445
88726W        W57056  29.553  21.570  13.364
88727W        W57057   4.254  11.741  11.378
88728W        W57058  16.772  32.108   0.412
88729W        W57059  20.716  13.273  12.531
88730W        W57060  44.476  34.945  10.611
88731W        W57061  30.424  27.065   0.864
88732W        W57062  39.996  26.545   2.180
88733W        W57063  23.175   9.662   0.935
88734W        W57064  23.650  18.598   3.249
88735W        W57065  15.286  35.360   0.853
88736W        W57066  25.138  17.120  11.088
88737W        W57067  44.338  36.860   3.182
88738W        W57068  37.391  36.934  13.505
88739W        W57069   6.343  20.730   1.228
88740W        W57070  30.017  19.641  14.514
88741W        W57071  13.803  37.927  14.283
88742W        W57072  33.896  35.523  10.489
88743W        W57073  39.051   9.329  10.092
88744W        W57074   7.704  32.002  10.099
88745W        W57075  39.448   7.807  11.500
88746W        W57076  33.927  40.486   2.188
88747W        W57077  38.332  38.943  10.544
88748W        W57078  38.942   2.461  10.914
88749W        W57079   6.749  35.512  12.948
88750W        W57080  17.247  35.886  13.863
88751W        W57081   9.223   0.366  13.348
88752W        W57082   8.172   9.344  10.451
88753W        W57083  36.057   5.196  12.867
88754W        W57084  22.058  39.901  12.381
88755W        W57085  25.204  17.185   0.862
88756W        W57086  42.515  42.987  13.001
88757W        W57087  39.959  41.347  10.439
88758W        W57088  31.921   6.189   3.826
88759W        W57089  42.972  32.983  12.084
88760W        W57090  38.035  28.678  13.863
88761W        W57091  35.404  19.124  13.064
88762W        W57092  35.068  23.105  14.910
88763W        W57093  18.173  31.540  13.856
88764W        W57094  33.533  39.461  11.591
88765W        W57095  28.978  19.048  14.341
88766W        W57096  17.682  18.599  14.990
88767W        W57097  26.557   8.856  14.851
88768W        W57098   9.194   5.784   3.273
88769W        W57099   2.401   3.767  12.076
88770W        W57100  21.206  44.319  10.916
88771W        W57101  17.772  13.320  10.950
88772W        W57102  15.216   4.789  14.375
88773W        W57103  22.058  30.572  11.932
88774W        W57104   0.839  37.970   2.360
88775W        W57105  18.287  33.504  14.355
88776W        W57106   5.344  38.901   5.215
88777W        W57107  11.312  18.759   4.312
88778W        W57108   3.851  33.073   3.199
88779W        W57109   1.237  20.550  12.533
88780W        W57110  25.499  29.574   3.382
88781W        W57111  34.021  27.029   0.797
88782W        W57112  30.412  30.584  12.457
88783W        W57113  29.127  31.447   3.246
88784W        W57114   7.330  21.647  14.779
88785W        W57115  16.117  24.057   5.182
88786W        W57116   9.851  38.870  11.574
88787W        W57117   4.446  17.590  12.388
88788W        W57118  32.955   7.862  11.563
88789W        W57119  23.599  33.427   3.662
88790W        W57120  43.369   2.247   3.737
88791W        W57121  30.641  42.353  12.435
88792W        W57122  27.056  25.482  11.574
88793W        W57123  32.530  25.681   1.424
88794W        W57124  17.299  31.611   3.701
88795W        W57125  18.107  37.581  12.571
88796W        W57126  34.982  31.580   4.202
88797W        W57127  12.742  38.076  12.358
88798W        W57128   2.442  38.564   4.248
88799W        W57129  23.107  21.096  14.279
88800W        W57130  27.080   1.972  13.431
88801W        W57131  39.388  22.503  11.486
88802W        W57132  34.045  19.755   4.143
88803W        W57133  29.096  25.541   0.395
88804W        W57134  18.771   6.263  11.420
88805W        W57135  29.052  21.571  10.615
88806W        W57136  13.757  29.946  10.437
88807W        W57137   6.420  20.636  13.441
88808W        W57138   6.220  15.580   2.882
88809W        W57139  30.419  26.965  12.847
88810W        W57140  41.937   7.736  14.954
88811W        W57141  39.488  36.968  11.118
88812W        W57142  21.087  28.106   3.666
88813W        W57143  16.262   1.344  13.960
88814W        W57144  12.767  41.981  14.967
88815W        W57145   6.697  22.609   0.905
88816W        W57146  15.216  36.546  12.489
88817W        W57147   8.318  35.108   2.367
88818W        W57148  19.559  11.721  14.792
88819W        W57149  19.576  37.481   1.324
88820W        W57150   3.348   2.339   3.258
88821W        W57151  37.004  23.233  11.993
88822W        W57152  21.574  35.996  14.817
88823W        W57153  24.493  19.274   2.234
88824W        W57154  16.713  39.898  14.782
88825W        W57155   4.387  15.221   0.921
88826W        W57156  32.516  34.971   0.414
88827W        W57157  30.010   4.823  12.924
88828W        W57158  33.058  35.938   0.835
88829W        W57159   1.822   9.293  11.450
88830W        W57160  10.315  43.300   1.810
88831W        W57161  11.626  22.019  13.490
88832W        W57162   8.883  11.649  11.891
88833W        W57163  10.807  12.854  13.429
88834W        W57164  22.692   8.801   4.239
88835W        W57165  36.060  37.858  13.494
88836W        W57166   7.403   4.434   4.647
88837W        W57167  44.010  14.200  13.876
88838W        W57168  28.583  38.987  11.884
88839W        W57169  20.116   2.759  11.557
88840W        W57170  35.464   7.247   1.355
88841W        W57171  35.449   4.260  14.403
88842W        W57172  12.760  29.468  11.084
88843W        W57173  11.851   1.325   0.967
88844W        W57174  39.890  21.618  13.399
88845W        W57175  32.604   4.238   1.337
88846W        W57176  14.112  40.416  11.539
88847W        W57177  37.387  41.495  12.894
88848W        W57178  39.041  43.947   1.359
88849W        W57179   6.780  41.900  12.968
88850W        W57180  38.459  28.994   4.812
88851W        W57181  14.169  23.590   2.888
88852W        W57182   1.405   4.920  10.953
88853W        W57183  21.613  40.947   4.661
88854W        W57184  35.094  26.558  12.415
88855W        W57185  13.315   2.228   0.845
88856W        W57186  15.208   6.712  13.377
88857W        W57187  16.594   4.362   2.765
88858W        W57188  30.535  26.461  12.385
88859W        W57189  39.814   4.888   3.291
88860W        W57190  10.766   0.799  12.459
88861W        W57191  34.035  36.063  13.385
88862W        W57192  36.570  17.305  10.070
88863W        W57193  22.556   9.801   0.410
88864W        W57194  27.060  38.369  10.447
88865W        W57195  33.881  24.646   0.257
88866W        W57196  18.066   1.751   4.338
88867W        W57197  23.539  13.620   4.234
88868W        W57198  40.008  32.526  14.011
88869W        W57199   9.717  41.446   1.213
88870W        W57200   4.876  24.142  13.826
88871W        W57201  14.700  30.436   4.828
88872W        W57202  42.980  28.578  14.993
88873W        W57203  24.678  42.401  13.440
88874W        W57204  41.401  37.372   3.249
88875W        W57205   3.392  16.152  13.853
88876W        W57206  43.895  10.164  14.484
88877W        W57207  44.958  27.587  14.879
88878W        W57208  38.900  13.173  11.384
88879W        W57209  31.097  35.592   0.826
88880W        W57210   9.835  25.548  14.359
88881W        W57211  17.155  35.063  10.436
88882W        W57212  18.246  35.601   4.686
88883W        W57213  17.065  31.536   2.887
88884W        W57214  26.019  28.027   2.825
88885W        W57215  39.876  35.383   2.878
88886W        W57216  19.776  18.109  14.422
88887W        W57217  20.733  10.291  13.000
88888W        W57218  38.039   9.817  10.559
88889W        W57219  43.324  21.606   0.752
88890W        W57220  22.633   3.776  10.432
88891W        W57221  42.485   7.839   4.249
88892W        W57222   6.254  18.599   4.226
88893W        W57223  38.885  38.517   0.242
88894W        W57224  14.796  25.635  13.423
88895W        W57225   4.749  17.134  11.472
88896W        W57226  32.100  30.023  12.055
88897W        W57227  28.054   6.283  14.410
88898W        W57228   9.314  19.561  10.565
88899W        W57229   4.734  15.222  14.504
88900W        W57230  17.231   0.842   2.674
88901W        W57231  20.693  26.175  11.533
88902W        W57232  14.802  29.950   0.923
88903W        W57233   7.674  36.900  12.029
88904W        W57234  41.471  42.005   4.254
88905W        W57235  15.712  39.948  12.022
88906W        W57236   3.462  24.135  13.022
88907W        W57237  23.570  33.955   3.737
88908W        W57238  17.109  24.104  10.470
88909W        W57239  41.029  41.456  13.819
88910W        W57240  42.937  10.838  13.482
88911W        W57241  30.925  35.504  12.577
88912W        W57242  24.657   1.856  10.427
88913W        W57243  10.766  22.025   0.885
88914W        W57244   6.275   1.731   2.260
88915W        W57245  36.003  39.877   3.660
88916W        W57246  34.989   2.244  14.956
88917W        W57247  24.190  44.406  12.383
88918W        W57248   7.820  19.753   0.779
88919W        W57249  39.445   3.725  12.046
88920W        W57250   5.859   9.705   0.357
88921W        W57251   0.431  14.233   4.162
88922W        W57252  26.652  39.996  13.894
88923W        W57253   5.439  29.054   3.210
88924W        W57254   0.263  31.981   3.237
88925W        W57255  15.783  18.571  12.038
88926W        W57256  30.609  38.467  13.449
88927W        W57257  35.367  37.080   2.316
88928W        W57258  21.209  39.855  10.054
88929W        W57259  28.595  43.959   3.174
88930W        W57260  35.409  22.653  11.503
88931W        W57261  20.639  31.646  12.956
88932W        W57262  33.881  10.645  11.934
88933W        W57263  38.050  31.402  14.767
88934W        W57264  19.198   5.236  14.959
88935W        W57265  30.140   1.842   4.765
88936W        W57266   4.362  13.141   0.763
88937W        W57267  10.255  22.644   2.894
88938W        W57268  40.323  24.006  13.940
88939W        W57269  42.809  30.930   4.772
88940W        W57270  31.929  21.106   4.141
88941W        W57271   9.240  29.062   2.404
88942W        W57272  23.024  36.073  14.934
88943W        W57273  40.408   7.685   1.905
88944W        W57274  31.621  29.104  14.918
88945W        W57275  43.273  37.996   3.835
88946W        W57276  12.309  11.754   4.323
88947W        W57277  21.630  23.561   2.328
88948W        W57278   7.405   5.402   0.359
88949W        W57279  35.022   3.416  12.091
88950W        W57280  42.890  41.979   1.711
88951W        W57281  24.016   2.959  12.363
88952W        W57282  39.379   2.258   1.707
88953W        W57283  19.696  43.906   1.763
88954W        W57284  34.059  37.457  12.946
88955W        W57285  22.136  32.139   2.292
88956W        W57286   5.919  40.021  11.487
88957W        W57287  23.567  35.387  11.517
88958W        W57288  28.648  28.436  12.848
88959W        W57289   0.959  43.962  12.390
88960W        W57290  28.178  35.048  11.017
88961W        W57291  40.483  18.661  14.827
88962W        W57292  30.095  22.175   2.390
88963W        W57293   7.190  14.144   2.733
88964W        W57294  27.505  21.257  13.376
88965W        W57295  16.753  18.556   3.183
88966W        W57296  27.002  24.665   3.631
88967W        W57297  28.929   6.772  10.637
88968W        W57298  12.852  11.760   2.693
88969W        W57299  19.250  38.460  13.882
88970W        W57300  10.783  17.118  10.067
88971W        W57301  42.964  27.690   1.353
88972W        W57302  26.144  13.164   4.603
88973W        W57303  25.210  10.180  13.805
88974W        W57304  34.915  23.702  13.901
88975W        W57305  23.619  31.616   2.248
88976W        W57306  29.064  15.182   1.428
88977W        W57307  12.306  10.140  11.992
88978W        W57308  20.573   8.400  13.385
88979W        W57309  37.375  32.562   1.921
88980W        W57310  35.370  22.193   2.742
88981W        W57311  23.985  25.536  11.898
88982W        W57312  34.475  43.934  13.007
88983W        W57313  40.927  29.130  10.946
88984W        W57314  24.171  28.661  12.040
88985W        W57315  23.200   8.805   2.358
88986W        W57316   6.700  35.490  13.883
88987W        W57317   1.460  34.053   1.779
88988W        W57318  35.944   7.331   3.239
88989W        W57319  37.871  24.059  13.473
88990W        W57320  41.511  28.082   3.177
88991W        W57321  27.972  15.132   2.269
88992W        W57322   6.686  15.628  13.351
88993W        W57323   9.755  26.564  10.636
88994W        W57324  24.059  23.110  11.102
88995W        W57325  19.565   8.172  13.003
88996W        W57326  24.538  17.572  11.575
88997W        W57327   0.987  36.577  13.934
88998W        W57328  36.571  18.579   1.278
88999W        W57329  18.278   1.249  12.357
89000W        W57330  44.859  36.980   4.227
89001W        W57331   2.783   1.761  11.861
89002W        W57332   2.352  11.216  12.517
89003W        W57333  17.630   0.367  12.916
89004W        W57334  10.780  42.441   0.785
89005W        W57335   7.845  13.309  11.424
89006W        W57336  22.032   2.799   3.834
89007W        W57337  28.564  24.691  14.856
89008W        W57338  20.756  30.130  14.334
89009W        W57339   2.400   6.727  10.463
89010W        W57340  33.553   7.204  12.037
89011W        W57341  34.591   6.837  14.987
89012W        W57342  35.514  37.891  12.547
89013W        W57343  38.474  41.510   4.744
89014W        W57344  33.059  11.745   1.759
89015W        W57345  40.489  27.570   3.846
89016W        W57346  17.664   2.467   3.668
89017W        W57347   9.391  31.591   2.747
89018W        W57348  34.533  32.431  14.852
89019W        W57349  19.264  27.515  13.540
89020W        W57350   7.191  26.119   1.329
89021W        W57351  42.337  32.450  10.577
89022W        W57352  19.615  31.090   3.368
89023W        W57353   4.757   0.956   4.287
89024W        W57354   2.748  10.726   0.778
89025W        W57355  42.420  16.269   1.849
89026W        W57356  33.465  15.784   2.417
89027W        W57357  31.011  18.187   4.712
89028W        W57358  19.110  30.961  12.380
89029W        W57359  32.035  16.298  10.968
89030W        W57360  13.327  24.992  12.863
89031W        W57361   5.346  38.417  12.495
89032W        W57362  13.227  27.660  11.904
89033W        W57363   8.290  40.871   4.344
89034W        W57364  23.091  21.113  12.500
89035W        W57365  43.487  25.482  13.455
89036W        W57366  22.668  18.608   4.259
89037W        W57367  39.488  27.980   3.197
89038W        W57368  30.455  42.863  11.971
89039W        W57369  14.679  16.294  13.897
89040W        W57370  33.598  18.618   0.817
89041W        W57371   1.788  43.805   2.338
89042W        W57372   8.269  32.440  10.419
89043W        W57373  19.180  24.230   3.219
89044W        W57374  38.550   8.836   4.304
89045W        W57375  30.059  17.080   4.191
89046W        W57376  17.115  37.388  12.446
89047W        W57377  20.697  37.937  11.430
89048W        W57378  27.079  38.834  11.051
89049W        W57379  25.974  17.635  11.910
89050W        W57380  36.557  28.138  12.944
89051W        W57381   8.865   8.358   1.290
89052W        W57382  19.080  32.610   3.385
89053W        W57383   0.969  19.257   3.634
89054W        W57384  16.571  35.592   1.385
89055W        W57385  33.605  40.981  11.464
89056W        W57386   0.917   5.217  14.353
89057W        W57387  22.660  12.741  14.364
89058W        W57388  37.560  22.179   4.821
89059W        W57389  10.874  35.103  14.815
89060W        W57390  35.464   0.388  13.965
89061W        W57391  26.043  33.593  13.814
89062W        W57392  19.286  33.088  13.845
89063W        W57393  31.029  34.409   0.896
89064W        W57394  40.547  11.146  11.885
89065W        W57395  27.674  42.907  11.424
89066W        W57396  15.782  17.301  12.396
89067W        W57397  35.093  13.245  13.968
89068W        W57398  38.895  31.469  14.370
89069W        W57399  23.633  24.651   4.724
89070W        W57400  36.951  14.193  11.035
89071W        W57401  24.485  29.501  10.564
89072W        W57402  44.278  20.172   1.755
89073W        W57403  13.667  30.447   0.292
89074W        W57404  30.652  43.292   2.783
89075W        W57405  39.399  25.587   2.197
89076W        W57406  19.621  31.985   0.957
89077W        W57407  41.302  25.040   2.225
89078W        W57408  13.748  34.017  13.497
89079W        W57409  23.074  18.060  12.432
89080W        W57410  28.650  29.121  14.472
89081W        W57411  17.744  15.602  13.519
89082W        W57412  28.579  16.158   3.778
89083W        W57413  16.107  42.892   0.363
89084W        W57414  33.406  38.371  14.900
89085W        W57415  13.193   0.925  14.299
89086W        W57416  44.418  35.946  14.450
89087W        W57417   0.846  42.991  13.896
89088W        W57418  36.980  43.977   1.429
89089W        W57419  44.971   0.493  13.839
89090W        W57420  17.605  44.881   0.909
89091W        W57421  20.746   9.198   9.921
89092W        W57422   2.347  30.063  10.456
89093W        W57423   6.264  14.298   1.227
89094W        W57424  44.773  26.461  12.557
89095W        W57425  21.535  31.977   2.208
89096W        W57426  10.824  12.116   3.786
89097W        W57427  13.837   4.722   3.676
89098W        W57428  22.715  28.168  12.401
89099W        W57429  37.567  22.724  11.589
89100W        W57430  19.635  22.198   1.765
89101W        W57431  11.830  44.873  12.438
89102W        W57432  34.477  21.020   1.909
89103W        W57433  44.348   1.925   1.905
89104W        W57434  34.526   5.868  12.398
89105W        W57435  25.692   1.329  11.511
89106W        W57436  15.277  43.796   1.852
89107W        W57437  33.988   6.750  14.801
89108W        W57438  30.481  22.111  12.938
89109W        W57439  29.487  32.498   3.325
89110W        W57440   5.436  24.597  14.321
89111W        W57441  24.200  19.543   2.773
89112W        W57442  44.840   2.271   2.856
89113W        W57443  11.162  35.064  13.479
89114W        W57444  27.077   2.783  14.289
89115W        W57445   8.742  10.338   5.198
89116W        W57446  36.977   0.457   2.340
89117W        W57447  43.918  10.824  10.482
89118W        W57448  26.013  15.280   0.340
89119W        W57449  18.121   8.398   1.235
89120W        W57450  15.818  34.539   5.642
89121W        W57451  43.766  40.546  14.789
89122W        W57452  24.485   6.756  10.547
89123W        W57453   1.456  42.944   3.157
89124W        W57454  10.724   8.707  14.807
89125W        W57455  26.616  31.071   5.162
89126W        W57456  40.917  32.457   4.712
89127W        W57457   0.270  12.346   0.361
89128W        W57458  18.275  26.971  14.859
89129W        W57459  41.819  27.502   2.387
89130W        W57460  24.645  14.173  11.122
89131W        W57461   2.899  15.194  14.804
89132W        W57462   9.267  14.098   2.341
89133W        W57463   5.438  40.521  12.858
89134W        W57464  41.973   7.905  10.600
89135W        W57465  24.111  29.557   4.340
89136W        W57466  42.893  29.556   4.186
89137W        W57467  18.083   6.833   1.878
89138W        W57468  42.861  29.632  12.481
89139W        W57469   9.884  29.508  13.063
89140W        W57470   4.436   8.288  14.333
89141W        W57471  20.204  20.645  11.577
89142W        W57472  19.061  11.769   2.701
89143W        W57473   7.206  24.187  14.840
89144W        W57474  15.624  23.668  11.421
89145W        W57475  10.171  11.725   4.265
89146W        W57476  23.727  36.546   0.402
89147W        W57477  28.175  31.582  13.004
89148W        W57478  41.904  31.523   0.757
89149W        W57479  36.059  40.990   2.258
89150W        W57480  32.915   7.346  13.397
89151W        W57481   9.720  22.586  13.916
89152W        W57482  23.597  17.741  11.547
89153W        W57483  34.069  12.720   0.356
89154W        W57484  29.156  33.546  11.946
89155W        W57485  25.207  42.400   4.827
89156W        W57486  41.364  12.783  11.469
89157W        W57487   9.220  21.586   1.705
89158W        W57488  10.751  12.726  11.941
89159W        W57489  28.479  43.496  10.589
89160W        W57490  12.249  42.428   3.288
89161W        W57491  44.767  16.797  13.471
89162W        W57492  34.419  22.121  13.811
89163W        W57493  29.445  25.614  14.834
89164W        W57494  15.250  24.623   1.381
89165W        W57495  41.466   2.769  11.443
89166W        W57496   3.933  40.889   4.788
89167W        W57497  39.022  29.460  13.396
89168W        W57498  31.509   8.240   2.331
89169W        W57499  23.548   7.179   4.762
89170W        W57500  21.573  25.963  10.951
89171W        W57501  21.734  12.259  11.483
89172W        W57502   7.259  33.541  13.857
89173W        W57503  10.208  20.069  14.278
89174W        W57504   6.744  28.619   1.355
89175W        W57505  31.519  11.691  12.388
89176W        W57506  33.892   6.729  14.357
89177W        W57507  19.771  42.482   3.316
89178W        W57508  40.046   1.891  13.969
89179W        W57509   6.712  42.928   1.213
89180W        W57510  23.595  40.862  11.936
89181W        W57511  15.756  11.314   3.720
89182W        W57512  12.346   8.315  13.907
89183W        W57513  35.062  12.708   1.841
89184W        W57514  43.296  23.144  10.507
89185W        W57515   7.850  10.369  14.864
89186W        W57516   4.881  25.621   4.819
89187W        W57517  32.889  13.676  13.500
89188W        W57518  10.332  39.034  14.870
89189W        W57519  32.119  14.681  14.014
89190W        W57520  38.391  10.337   3.837
89191W        W57521  28.648   3.709  10.921
89192W        W57522  20.740  41.981  13.808
89193W        W57523  39.890  16.127   4.654
89194W        W57524  11.733  28.034   1.364
89195W        W57525  16.585  24.999  11.869
89196W        W57526   6.723  13.209  12.421
89197W        W57527  13.262  24.147  11.535
89198W        W57528  41.390  38.073   4.116
89199W        W57529   4.217  41.808   1.804
89200W        W57530  17.089  39.812  10.580
89201W        W57531  28.611  13.792  11.567
89202W        W57532  10.232  21.039   4.231
89203W        W57533  23.091  26.472   4.665
89204W        W57534  33.984  23.684  14.941
89205W        W57535  21.736  17.776   4.337
89206W        W57536   8.174  43.007  10.480
89207W        W57537   6.812  16.093  14.466
89208W        W57538  25.140   3.788   2.733
89209W        W57539   4.276  27.546   0.869
89210W        W57540  22.586   9.881  12.413
89211W        W57541  44.295  41.882  10.569
89212W        W57542  36.867  39.945   0.799
89213W        W57543   7.780  37.384  13.457
89214W        W57544  19.128  29.526  12.536
89215W        W57545  17.614  37.410   0.306
89216W        W57546  11.762  33.958   0.888
89217W        W57547  16.686  20.575   0.849
89218W        W57548   1.854  23.058  12.871
89219W        W57549  20.632   3.855   0.462
89220W        W57550  42.828  35.446  11.492
89221W        W57551  26.011  23.123  11.487
89222W        W57552  25.704  22.049   0.861
89223W        W57553  15.268  10.744  13.476
89224W        W57554  36.973  36.077   4.198
89225W        W57555  20.751  34.052   4.608
89226W        W57556  18.611  17.151  11.496
89227W        W57557  18.733  31.011   4.718
89228W        W57558  19.246   4.827   1.856
89229W        W57559  41.881  30.966  13.014
89230W        W57560   5.364  34.044   2.353
89231W        W57561  11.839   4.862  11.442
89232W        W57562  40.319   4.855   0.863
89233W        W57563  20.238   4.282  14.480
89234W        W57564  32.885  10.300   2.223
89235W        W57565  34.514   6.893   2.849
89236W        W57566   9.161   9.208  11.094
89237W        W57567   3.421  14.647  14.455
89238W        W57568  36.395  28.587   3.148
89239W        W57569   0.776  32.960  12.385
89240W        W57570  41.307   1.793   2.684
89241W        W57571  13.644  24.142  12.405
89242W        W57572  17.142  13.645  12.054
89243W        W57573   9.751  11.724   4.784
89244W        W57574   8.873  43.492   4.268
89245W        W57575  37.021  28.594   3.642
89246W        W57576   6.207  34.981  13.422
89247W        W57577  40.995  10.820   4.268
89248W        W57578   8.180  13.227  11.394
89249W        W57579  10.335  26.967  12.342
89250W        W57580   3.241  23.532  12.086
89251W        W57581  12.324  34.408   1.733
89252W        W57582  26.466   9.322  13.466
89253W        W57583  43.850  32.973   1.260
89254W        W57584  43.358  13.743   4.144
89255W        W57585  38.932  42.807  14.285
89256W        W57586   5.278   9.311  11.083
89257W        W57587  24.978  21.259   0.752
89258W        W57588  36.387  21.220   1.317
89259W        W57589  37.398   9.657   3.170
89260W        W57590  28.558  25.667  10.619
89261W        W57591  28.988  27.098  13.908
89262W        W57592   0.323  42.297  12.916
89263W        W57593  34.083   2.797  13.000
89264W        W57594  18.127  13.805   0.964
89265W        W57595  12.851   2.231   2.832
89266W        W57596   2.311  16.155   4.166
89267W        W57597  13.759  28.612   1.733
89268W        W57598  44.920  32.544  11.951
89269W        W57599  21.047  17.669  12.359
89270W        W57600   1.328  37.439  11.532
89271W        W57601  15.665   6.909   3.324
89272W        W57602  42.471  20.524  14.830
89273W        W57603  21.605  41.013   2.276
89274W        W57604  42.487   0.799   2.202
89275W        W57605  37.991  20.133  14.383
89276W        W57606   5.739  22.157  14.993
89277W        W57607   8.359  24.576  13.015
89278W        W57608  18.782   0.426  12.569
89279W        W57609   2.914  31.930   1.430
89280W        W57610   9.238  17.253   4.163
89281W        W57611  32.947  21.201  14.378
89282W        W57612  18.597  30.607   4.167
89283W        W57613  21.211  28.596   5.607
89284W        W57614   8.810  24.708   0.880
89285W        W57615  16.187   5.772  13.505
89286W        W57616  20.063  11.795  14.882
89287W        W57617  14.137   8.219  11.069
89288W        W57618  33.024  23.188  13.313
89289W        W57619  32.635  34.525  14.890
89290W        W57620  22.505  10.780   4.151
89291W        W57621  21.616  15.648  12.051
89292W        W57622   7.713  41.836  13.053
89293W        W57623  15.136  34.896   0.417
89294W        W57624  36.348  24.501  10.990
89295W        W57625  18.198  36.426  10.487
89296W        W57626  24.156  21.067  11.866
89297W        W57627  20.267  15.242   3.635
89298W        W57628  24.040  18.687   4.714
89299W        W57629  26.007  27.163  14.376
89300W        W57630  25.014  27.077  10.624
89301W        W57631  25.159  10.272  11.377
89302W        W57632  39.420  43.965   3.674
89303W        W57633  11.145  33.981   1.385
89304W        W57634   6.399  18.221   0.739
89305W        W57635  18.270  39.504  14.930
89306W        W57636   2.348  35.360   4.710
89307W        W57637  33.493   6.827  10.107
89308W        W57638  17.080   7.889  10.890
89309W        W57639  24.634  12.652   2.387
89310W        W57640  41.986  10.248  13.836
89311W        W57641  36.543  38.858   1.257
89312W        W57642  22.164  27.190   1.352
89313W        W57643  37.994  18.697  14.892
89314W        W57644  16.282   7.342  12.374
89315W        W57645  23.513  44.856  12.351
89316W        W57646  35.941  10.342  13.844
89317W        W57647  11.268  13.637   3.657
89318W        W57648  39.038  39.978  13.410
89319W        W57649   9.692  15.098  11.476
89320W        W57650  11.865  41.494   5.313
89321W        W57651  24.692  35.498  13.458
89322W        W57652  16.720  15.766  12.500
89323W        W57653  13.609  13.132   4.276
89324W        W57654  43.856  37.513   2.288
89325W        W57655   4.361  16.608  13.495
89326W        W57656  40.402  41.459   5.306
89327W        W57657   6.727  29.447  11.431
89328W        W57658  14.753  10.651  10.578
89329W        W57659  36.844   7.849  11.412
89330W        W57660  18.749  32.613  14.321
89331W        W57661  36.458  40.884  14.911
89332W        W57662  16.129  20.155  14.025
89333W        W57663  19.153  16.633   3.834
89334W        W57664  38.830  20.618  14.336
89335W        W57665   7.799  15.624   1.719
89336W        W57666  22.682  31.457  13.355
89337W        W57667  32.534  34.994  14.971
89338W        W57668  28.104  28.633  12.827
89339W        W57669  30.602   1.338   2.870
89340W        W57670  37.500  36.982  12.449
89341W        W57671  41.469  38.978  13.950
89342W        W57672  21.097  44.360  12.418
89343W        W57673   0.261  24.106  10.405
89344W        W57674  15.152  36.956  11.468
89345W        W57675  34.944  13.789   1.897
89346W        W57676   1.467   6.778  10.932
89347W        W57677  22.166  22.081  11.559
89348W        W57678  26.619  21.252   1.775
89349W        W57679  10.273  22.700  12.372
89350W        W57680  38.544  38.395   1.794
89351W        W57681  27.464  33.622   3.241
89352W        W57682   1.838   4.700  10.473
89353W        W57683  10.801  29.097   2.404
89354W        W57684  38.388  39.013   0.335
89355W        W57685  15.651   5.201   1.248
89356W        W57686  23.241   8.295   4.615
89357W        W57687  22.224   9.304  11.098
89358W        W57688  20.714  27.135  13.367
89359W        W57689  21.555   5.729  13.832
89360W        W57690  37.903  15.662   1.359
89361W        W57691  24.599  32.991   2.717
89362W        W57692  15.805  11.676  11.961
89363W        W57693  22.167  34.496  12.388
89364W        W57694  40.375  40.053  10.028
89365W        W57695  43.004  27.096   1.865
89366W        W57696  37.923  36.890   4.238
89367W        W57697  35.077  14.165   4.242
89368W        W57698   6.372  20.679  14.363
89369W        W57699  41.954  34.097   1.704
89370W        W57700   3.894   4.427  10.512
89371W        W57701  19.185   9.750  14.975
89372W        W57702  25.507  30.475   9.934
89373W        W57703  29.549   1.434   4.787
89374W        W57704  40.950  11.361  13.949
89375W        W57705  15.698   2.345   1.396
89376W        W57706  39.487  28.159  11.582
89377W        W57707  19.657  35.479  11.897
89378W        W57708  42.515  18.696  12.899
89379W        W57709  13.831   2.244  11.505
89380W        W57710  42.324   9.749   4.741
89381W        W57711  13.746  27.973  13.805
89382W        W57712  25.643   6.716   0.452
89383W        W57713  23.674  22.671   0.811
89384W        W57714  36.019  25.485   3.691
89385W        W57715  10.741   0.424  10.971
89386W        W57716  18.075   1.801   0.259
89387W        W57717   6.772  15.757   1.818
89388W        W57718  19.762  13.778  10.574
89389W        W57719  43.766  26.623  10.910
89390W        W57720  27.610  14.174  11.418
89391W        W57721  29.051   5.310  14.935
89392W        W57722  41.829   8.246  10.414
89393W        W57723   2.468  34.971  14.013
89394W        W57724  44.503  33.968  12.961
89395W        W57725  12.328   7.358   1.315
89396W        W57726  27.458  31.515   9.462
89397W        W57727  20.555  15.261   0.316
89398W        W57728  21.658  12.614  12.085
89399W        W57729  27.534   9.207   4.633
89400W        W57730   8.164  14.669  12.064
89401W        W57731  14.618   1.392  11.091
89402W        W57732  19.263  26.167  12.562
89403W        W57733  42.909  44.463  13.861
89404W        W57734  37.479   4.754  10.620
89405W        W57735  25.696  20.211   4.829
89406W        W57736  33.477  39.991  10.033
89407W        W57737   3.816  19.749  10.435
89408W        W57738  22.686  44.463   5.198
89409W        W57739  18.696  33.876   4.297
89410W        W57740   2.307   5.755  14.915
89411W        W57741   1.249  15.265  12.537
89412W        W57742  32.393   8.656   5.157
89413W        W57743  15.291  30.506  14.940
89414W        W57744  18.735  38.983   1.751
89415W        W57745  29.431  11.673  10.149
89416W        W57746  39.510  14.775   0.458
89417W        W57747  36.057  37.952   1.743
89418W        W57748  40.401  35.071  12.373
89419W        W57749  18.275  31.472   1.284
89420W        W57750   4.368   0.960  13.319
89421W        W57751  15.190   1.262  14.966
89422W        W57752  29.142  35.908  14.889
89423W        W57753  23.145  15.297  10.524
89424W        W57754  12.177  35.438  11.858
89425W        W57755  36.439  36.041   4.628
89426W        W57756  38.845  44.980   1.840
89427W        W57757  33.438  38.848  12.847
89428W        W57758  36.404  30.656   9.978
89429W        W57759   0.907  35.109  14.315
89430W        W57760  28.001  18.153   1.721
89431W        W57761   0.815  37.930  14.975
89432W        W57762   8.390   8.237   2.292
89433W        W57763  42.908   1.396  13.415
89434W        W57764  20.691  13.172  12.836
89435W        W57765  17.219   3.798  12.477
89436W        W57766  21.697  14.250   1.330
89437W        W57767  30.120  24.720   1.448
89438W        W57768   5.820  32.127  12.886
89439W        W57769  10.355  14.710  14.904
89440W        W57770  13.805   1.964  11.446
89441W        W57771  27.502   9.257  13.370
89442W        W57772  13.678  26.618   1.344
89443W        W57773  37.843   5.432   2.276
89444W        W57774  21.520   4.874  13.008
89445W        W57775  28.674  44.360  11.862
89446W        W57776  15.209  32.953  14.412
89447W        W57777  36.352  30.126   4.200
89448W        W57778   9.380  18.594   2.324
89449W        W57779   4.713  25.564  13.535
89450W        W57780   0.879  16.237   3.693
89451W        W57781  29.627  22.728   4.613
89452W        W57782   3.718  13.160  10.639
89453W        W57783   9.686  22.111   0.917
89454W        W57784  37.918  20.577   2.701
89455W        W57785  29.661  26.196   0.280
89456W        W57786  28.109  21.149  14.009
89457W        W57787  42.348  35.899  10.476
89458W        W57788   9.837  32.028   4.828
89459W        W57789  28.931  26.966   3.757
89460W        W57790  31.596  18.759   3.800
89461W        W57791  38.397   7.688  13.319
89462W        W57792  41.916  22.612   2.275
89463W        W57793  21.628   4.254   2.801
89464W        W57794  36.846  43.836   3.867
89465W        W57795  44.995  40.025  14.391
89466W        W57796  26.097   1.740  12.569
89467W        W57797  15.228  32.109   2.200
89468W        W57798  17.624  17.650  12.492
89469W        W57799  11.307  28.611   0.958
89470W        W57800  22.074  32.597  14.777
89471W        W57801  33.588  19.724   3.261
89472W        W57802  30.488   3.835   3.380
89473W        W57803  41.863  17.129  14.302
89474W        W57804  17.645  42.350   1.446
89475W        W57805  31.995  25.632  12.363
89476W        W57806  25.515  11.269  12.473
89477W        W57807  22.721   9.733   1.382
89478W        W57808  17.297  36.370   3.766
89479W        W57809  26.035   4.765  13.984
89480W        W57810  31.940  21.079  13.006
89481W        W57811   0.270  20.095   2.227
89482W        W57812  43.373   9.302  14.293
89483W        W57813  23.241  10.679  14.510
89484W        W57814   0.843   5.823   3.673
89485W        W57815  38.951  24.979  11.558
89486W        W57816  42.450  17.765  14.319
89487W        W57817  22.506  43.766   1.416
89488W        W57818  38.918  16.141   4.620
89489W        W57819  12.682  32.097  14.833
89490W        W57820  13.188  36.562  14.764
89491W        W57821  42.955  16.724  14.411
89492W        W57822  14.628   8.750   4.118
89493W        W57823   1.248  13.605  12.537
89494W        W57824  24.549  43.301  14.371
89495W        W57825   1.817  36.878  13.003
89496W        W57826  14.764  43.766  13.336
89497W        W57827   4.314   6.824   2.789
89498W        W57828  15.805   3.876   2.398
89499W        W57829  40.381  11.745   0.314
89500W        W57830  18.235  37.407   4.307
89501W        W57831  12.322  35.504  10.604
89502W        W57832  29.458  16.776   1.932
89503W        W57833  24.207  30.443  12.985
89504W        W57834  21.260  44.969  13.852
89505W        W57835  36.000  33.426   2.705
89506W        W57836  36.359  11.652   1.715
89507W        W57837   6.392   3.235   1.829
89508W        W57838  28.962  38.533  14.945
89509W        W57839  11.632  42.374   4.186
89510W        W57840  19.135  38.347   3.774
89511W        W57841   9.870   4.807   1.253
89512W        W57842  10.193  15.799   1.356
89513W        W57843  34.385  25.168  12.091
89514W        W57844  42.470  33.389   3.252
89515W        W57845  32.929  30.488  14.502
89516W        W57846   3.940  32.889   3.753
89517W        W57847  30.620  20.564  11.924
89518W        W57848  21.256  37.929   3.784
89519W        W57849  33.426  41.897  10.001
89520W        W57850  25.175  31.936   2.876
89521W        W57851  13.194   3.306  12.415
89522W        W57852  21.042  43.281   1.704
89523W        W57853  32.535   1.479   3.630
89524W        W57854  39.511   6.829   5.308
89525W        W57855  31.453   0.891   0.431
89526W        W57856  32.590   9.296   1.775
89527W        W57857  24.096  10.875   0.948
89528W        W57858  30.158   5.796   0.960
89529W        W57859  15.801  21.561  10.902
89530W        W57860   5.317  20.765   4.834
89531W        W57861   2.873  42.872   2.210
89532W        W57862   5.425  43.014  13.489
89533W        W57863   5.711  29.481   2.181
89534W        W57864   5.436   9.330  12.979
89535W        W57865  35.852  12.196  13.831
89536W        W57866   2.740  20.733   3.173
89537W        W57867  22.724  11.730   1.381
89538W        W57868  44.808  13.718   1.281
89539W        W57869  27.573   0.806  11.413
89540W        W57870  18.174  32.972   1.288
89541W        W57871  28.659   6.351   4.753
89542W        W57872  12.616  20.537   2.750
89543W        W57873  23.725   9.242  14.453
89544W        W57874   5.902  33.571   3.692
89545W        W57875  13.350   5.210   3.735
89546W        W57876  28.136   5.325   1.829
89547W        W57877  40.032   1.376  14.879
89548W        W57878  42.849  26.539   2.181
89549W        W57879   6.204  13.188   0.365
89550W        W57880  13.209  10.227   2.838
89551W        W57881  41.857   6.288  14.023
89552W        W57882  26.472  40.798  13.915
89553W        W57883  35.553  10.185   1.374
89554W        W57884  37.008   3.358  14.909
89555W        W57885  18.668  30.652   1.760
89556W        W57886  17.556  43.272  12.886
89557W        W57887  33.130  33.885  14.378
89558W        W57888  14.283  20.179  14.425
89559W        W57889  24.050   0.433  13.973
89560W        W57890  15.309   1.242  12.351
89561W        W57891  27.494  41.847  11.119
89562W        W57892  10.168  36.937   0.403
89563W        W57893  13.219  18.166  10.601
89564W        W57894  23.081  42.411  11.883
89565W        W57895  36.981   0.962  11.420
89566W        W57896   2.270   8.293   0.353
89567W        W57897  10.311   4.720  11.564
89568W        W57898   4.325  18.773   1.716
89569W        W57899  38.369  27.680   4.765
89570W        W57900  21.710   6.680  14.934
89571W        W57901  36.024  38.960   2.310
89572W        W57902  40.832  38.337  14.852
89573W        W57903  29.138  31.419   9.642
89574W        W57904  34.477   0.967   2.856
89575W        W57905  44.388   4.807  14.904
89576W        W57906  23.591  32.141  13.030
89577W        W57907  41.304   2.953  12.924
89578W        W57908   0.444  42.927  13.914
89579W        W57909  29.961  42.289  12.851
89580W        W57910  38.516  14.177   1.426
89581W        W57911  37.446  36.010   3.229
89582W        W57912  44.784   8.835  14.315
89583W        W57913  15.265  44.795   4.635
89584W        W57914  38.902  25.642  12.420
89585W        W57915  27.512  19.086  12.387
89586W        W57916  30.085  25.548  14.993
89587W        W57917  16.270  22.013  12.455
89588W        W57918  24.146  32.513   4.124
89589W        W57919  37.963   4.914  12.853
89590W        W57920   4.906   7.684   4.643
89591W        W57921  16.251  33.037   1.744
89592W        W57922  16.296   5.362   4.196
89593W        W57923  13.842  34.078  12.387
89594W        W57924   4.294  39.008  11.385
89595W        W57925   7.355  26.128  11.006
89596W        W57926  33.417  30.504  10.942
89597W        W57927  43.826  40.939   1.886
89598W        W57928  34.499  18.232   0.904
89599W        W57929  40.009  12.268  12.008
89600W        W57930  42.940   9.289   2.406
89601W        W57931  15.662  39.922  11.046
89602W        W57932   5.282  24.153   2.303
89603W        W57933  29.148  33.975  11.083
89604W        W57934  44.002  35.009   2.797
89605W        W57935   4.365  36.550   0.294
89606W        W57936  43.983   1.755   3.234
89607W        W57937   5.303  22.592  11.448
89608W        W57938  31.088   2.285  12.889
89609W        W57939  26.517  12.327   0.326
89610W        W57940  26.177  43.272   4.346
89611W        W57941  11.788  32.006  13.822
89612W        W57942  43.405  28.552   1.410
89613W        W57943  21.240   5.692   3.179
89614W        W57944  24.551  26.194   3.209
89615W        W57945  42.011   2.786   4.783
89616W        W57946  34.879   8.387  10.567
89617W        W57947  34.998  35.083   1.779
89618W        W57948  41.406  23.087   3.289
89619W        W57949   3.216  26.644  10.916
89620W        W57950  37.352  40.800   1.800
89621W        W57951  25.474   8.171   3.636
89622W        W57952   1.959  25.478  10.420
89623W        W57953  11.197  18.241  11.014
89624W        W57954  27.185  25.635  10.523
89625W        W57955  44.759  16.277  13.888
89626W        W57956  17.611   4.359  13.884
89627W        W57957  25.526   5.907  11.119
89628W        W57958  11.793  30.998  14.841
89629W        W57959   4.778  19.217  11.460
89630W        W57960  21.729  37.529   4.681
89631W        W57961  16.202   0.481  14.989
89632W        W57962  17.165  25.699  14.475
89633W        W57963  37.033  40.541   4.114
89634W        W57964  10.292   0.302   0.804
89635W        W57965  36.888   6.360   4.704
89636W        W57966  41.485  28.681  14.480
89637W        W57967  37.497   2.925   3.232
89638W        W57968  30.645  15.694  12.983
89639W        W57969  39.874  20.253  10.539
89640W        W57970  21.750  40.309  14.390
89641W        W57971   1.872  24.562  13.995
89642W        W57972  44.854  40.514   1.403
89643W        W57973  11.715  43.451  11.107
89644W        W57974  40.048  15.271   1.334
89645W        W57975  33.496   1.257   2.679
89646W        W57976  21.653  14.626   0.338
89647W        W57977  19.756  25.185  14.350
89648W        W57978  30.416   5.397   2.234
89649W        W57979  12.313   3.936  12.001
89650W        W57980   7.883   2.408  13.033
89651W        W57981   0.447  19.675  13.808
89652W        W57982  20.038  22.667   1.903
89653W        W57983   2.920  39.046   3.371
89654W        W57984  12.833  16.812  13.905
89655W        W57985  27.185  15.660  11.462
89656W        W57986   3.358   2.746   1.790
89657W        W57987   6.287  34.083  12.555
89658W        W57988  34.081  32.562   4.610
89659W        W57989  33.499  30.565   2.762
89660W        W57990  11.675   9.346   4.247
89661W        W57991  21.125  33.975   2.676
89662W        W57992   7.666  11.172  12.494
89663W        W57993  18.143   7.735  14.788
89664W        W57994  33.529  23.010   0.430
89665W        W57995  14.659   1.398  13.458
89666W        W57996  13.714  20.172  14.825
89667W        W57997  22.617  37.461   1.279
89668W        W57998  42.807  19.152  10.512
89669W        W57999   3.831  38.327   3.347
89670W        W58000  12.354  32.086  11.899
89671W        W58001  32.058  10.869   3.739
89672W        W58002   9.236  41.470   1.781
89673W        W58003  12.804   9.243   3.753
89674W        W58004  21.547   0.271  14.345
89675W        W58005  21.158  39.967  11.916
89676W        W58006  44.838  38.433  14.952
89677W        W58007  31.931  30.509   1.277
89678W        W58008   0.817   7.290   3.332
89679W        W58009  24.014  35.447   4.675
89680W        W58010  40.349  25.009   0.850
89681W        W58011  38.961  31.947   3.723
89682W        W58012  41.537   3.326  13.978
89683W        W58013  40.386  14.828   1.828
89684W        W58014  31.976  43.819  10.425
89685W        W58015  30.097  23.729  11.917
89686W        W58016  35.430   4.764  12.856
89687W        W58017  11.327  31.065  10.997
89688W        W58018  16.282  23.729   3.710
89689W        W58019  21.239   7.312   9.606
89690W        W58020   4.701   9.223   3.697
89691W        W58021  26.156  41.431   0.753
89692W        W58022   9.216  28.677   1.329
89693W        W58023   2.458  43.332   4.282
89694W        W58024   2.818   4.209   1.280
89695W        W58025   4.840  18.262   2.195
89696W        W58026   4.298  42.288  10.896
89697W        W58027  15.112  33.398  12.026
89698W        W58028  26.639  37.419  12.483
89699W        W58029  15.264   6.911  11.536
89700W        W58030  12.765  31.439   3.640
89701W        W58031  16.188  15.654   2.863
89702W        W58032  28.091   6.280   0.460
89703W        W58033  27.666  22.221   3.634
89704W        W58034  19.562  36.566   2.672
89705W        W58035  11.286  33.488  13.328
89706W        W58036  12.316  41.841   0.423
89707W        W58037  22.734  30.632   1.738
89708W        W58038  30.146  25.482   3.283
89709W        W58039  21.242  36.968   3.348
89710W        W58040  40.819  38.446  10.519
89711W        W58041  25.967  13.214   2.683
89712W        W58042  18.226  43.917  11.044
89713W        W58043  27.099  11.368   2.827
89714W        W58044  31.124   0.872   4.617
89715W        W58045  34.423   1.749   4.214
89716W        W58046  12.220  31.934  12.525
89717W        W58047  24.212   1.827   3.216
89718W        W58048  21.245   5.901  14.338
89719W        W58049  44.857  17.646  13.933
89720W        W58050  34.470  25.685   3.175
89721W        W58051  42.941  32.459   2.704
89722W        W58052  16.269   8.850  10.438
89723W        W58053   0.441  13.615   1.859
89724W        W58054   8.693  11.293  13.969
89725W        W58055  44.782  30.998   3.364
89726W        W58056  13.842  36.373   0.865
89727W        W58057   2.740  26.516   4.602
89728W        W58058  14.741  40.968   2.769
89729W        W58059  19.189  19.071  14.449
89730W        W58060  21.152   8.723  11.535
89731W        W58061   9.687  28.595   4.814
89732W        W58062  36.441  18.204  13.838
89733W        W58063  21.631  41.359   4.121
89734W        W58064  30.045  23.645  13.912
89735W        W58065  13.191  13.282   1.325
89736W        W58066  35.044  11.179  14.972
89737W        W58067  29.991   0.282  13.844
89738W        W58068  18.562   8.284  13.964
89739W        W58069   3.323  18.713   5.119
89740W        W58070  28.563  21.718  12.964
89741W        W58071  15.653  34.914  11.386
89742W        W58072  25.120   9.868  10.126
89743W        W58073  30.123  20.698  12.981
89744W        W58074  26.147  24.112   0.801
89745W        W58075  25.692  26.671   4.271
89746W        W58076  17.280  24.717   4.633
89747W        W58077   8.725  10.759   3.657
89748W        W58078  14.704  29.482  12.848
89749W        W58079  38.005  32.991  12.912
89750W        W58080  14.823  20.727   3.692
89751W        W58081  18.291   6.348  12.014
89752W        W58082   5.900  19.133   0.870
89753W        W58083  19.732  38.065  10.416
89754W        W58084  11.304  33.563   2.333
89755W        W58085   7.373  41.392   1.792
89756W        W58086  10.794  24.009  14.968
89757W        W58087  18.564  22.008  14.509
89758W        W58088   6.261  14.806   3.803
89759W        W58089  37.844  24.651  12.963
89760W        W58090  43.818  13.169  12.960
89761W        W58091   3.247  28.973  10.441
89762W        W58092  38.411  26.203  14.409
89763W        W58093  25.008  34.988  11.904
89764W        W58094  27.657   0.744  12.445
89765W        W58095  16.277  28.083  10.934
89766W        W58096  29.006  24.082   2.416
89767W        W58097  36.044  41.011   3.181
89768W        W58098   2.883  43.994  14.794
89769W        W58099  31.114   2.934   2.181
89770W        W58100   0.260   2.823   2.341
89771W        W58101  41.474  36.366  13.524
89772W        W58102   9.886   8.882  13.329
89773W        W58103  37.545  16.760  12.368
89774W        W58104  38.925  43.478   1.359
89775W        W58105   1.798  37.472   1.301
89776W        W58106  20.695  32.424  13.433
89777W        W58107   6.256  42.908   1.341
89778W        W58108  25.120  43.008   2.344
89779W        W58109  30.647  23.084  10.478
89780W        W58110   2.466   0.384  13.919
89781W        W58111   4.879  23.130   4.147
89782W        W58112  31.010   3.355  13.396
89783W        W58113  26.521  42.458   3.282
89784W        W58114  19.537  10.855  11.594
89785W        W58115  18.136  11.308   4.683
89786W        W58116  18.785  39.878  14.802
89787W        W58117  10.774  43.890   1.265
89788W        W58118  24.647  42.778   0.806
89789W        W58119  15.595  12.245   1.254
89790W        W58120  23.212  13.340  11.507
89791W        W58121   6.714  40.325  13.865
89792W        W58122   1.311  25.586  14.424
89793W        W58123  43.902  34.553   2.231
89794W        W58124  42.031  41.887  11.103
89795W        W58125  15.265   3.766   3.323
89796W        W58126  42.790   2.446   3.247
89797W        W58127  30.082  14.175  12.551
89798W        W58128  28.978  24.584   1.282
89799W        W58129   4.411  20.602   0.790
89800W        W58130  41.807  27.973  13.531
89801W        W58131  32.018   8.717  13.801
89802W        W58132  30.068  31.408   5.173
89803W        W58133  20.220  29.488   4.733
89804W        W58134  28.485  25.173   1.367
89805W        W58135  13.805  38.050  10.496
89806W        W58136  23.023  43.841   0.317
89807W        W58137  20.523  43.936  10.447
89808W        W58138  34.602  28.084  14.877
89809W        W58139  35.911  19.154   4.777
89810W        W58140  39.991  36.984   3.165
89811W        W58141  28.041  36.096  12.377
89812W        W58142  39.474  31.419  13.915
89813W        W58143   4.218  10.342  14.464
89814W        W58144  19.105  36.934   2.279
89815W        W58145  28.485  17.636   1.696
89816W        W58146  11.738  15.277  11.127
89817W        W58147  38.494  20.245   1.914
89818W        W58148  37.358  21.580   4.224
89819W        W58149  42.777  25.527  11.379
89820W        W58150  38.326  14.594   4.253
89821W        W58151  30.064  33.047   1.340
89822W        W58152   0.367   2.376   3.149
89823W        W58153  17.236  25.176   4.147
89824W        W58154  38.449  10.726   3.378
89825W        W58155  10.857   0.943   3.672
89826W        W58156  36.950   7.813  10.442
89827W        W58157   4.440  31.481   4.669
89828W        W58158  18.057  21.130   2.707
89829W        W58159  24.172   6.890  13.338
89830W        W58160   5.865  41.028   0.349
89831W        W58161  15.292  23.568  13.869
89832W        W58162  22.109  31.510  12.903
89833W        W58163  34.896   1.801  10.120
89834W        W58164  23.576  13.350   1.315
89835W        W58165  10.334  21.205  14.771
89836W        W58166  29.646   5.717  13.532
89837W        W58167  20.555  42.890  13.840
89838W        W58168   7.282  44.436  14.903
89839W        W58169  41.822  33.965  12.412
89840W        W58170  35.542   2.358   3.210
89841W        W58171  22.538   6.210  10.490
89842W        W58172  19.607  31.610   2.336
89843W        W58173  16.275  37.376  10.889
89844W        W58174  22.071  29.492   5.222
89845W        W58175  44.471   5.249   2.751
89846W        W58176  25.999  28.011   4.303
89847W        W58177  16.615  16.087   2.866
89848W        W58178  31.569   7.283   2.368
89849W        W58179  18.129  12.735  12.363
89850W        W58180   5.712   5.366  12.365
89851W        W58181   7.340   6.184   0.879
89852W        W58182  29.952  34.989  11.856
89853W        W58183  17.652   4.781   1.756
89854W        W58184  27.069  36.513   1.389
89855W        W58185  39.330   3.450   3.836
89856W        W58186  24.086  22.504  13.932
89857W        W58187   4.923  14.242  11.909
89858W        W58188  39.917   1.834   2.857
89859W        W58189  30.061  23.171  12.537
89860W        W58190  41.476  43.998   2.179
89861W        W58191  29.148  18.647  12.960
89862W        W58192   5.765  22.556   2.224
89863W        W58193  30.921  28.177   4.217
89864W        W58194  10.155  18.065   3.253
89865W        W58195  39.917  31.507   4.604
89866W        W58196   0.964  18.075   3.221
89867W        W58197   7.184  44.809  10.631
89868W        W58198  11.304   7.344   4.144
89869W        W58199  29.985  43.433   2.676
89870W        W58200  37.904   0.248   4.207
89871W        W58201  36.005  43.893  10.978
89872W        W58202  43.930  19.679  12.086
89873W        W58203  25.992  33.116  12.574
89874W        W58204  37.955   6.828  12.957
89875W        W58205  36.388  12.792   0.762
89876W        W58206   8.785   7.895  12.891
89877W        W58207  32.623  28.033  14.503
89878W        W58208   5.785   1.366   1.900
89879W        W58209  29.478  37.922  12.095
89880W        W58210   5.904  19.537  13.042
89881W        W58211  24.547  15.226   0.266
89882W        W58212  44.914  10.256  14.467
89883W        W58213  42.824  27.168  13.346
89884W        W58214  23.197  25.590   4.196
89885W        W58215  24.108  31.943   1.788
89886W        W58216  42.496   8.695   2.849
89887W        W58217  39.020  18.724  14.839
89888W        W58218  37.495  19.632   5.160
89889W        W58219  26.149  14.111   2.299
89890W        W58220   3.954  19.671   2.383
89891W        W58221  31.005  41.526  11.039
89892W        W58222   3.288  25.544   2.823
89893W        W58223  37.389  40.054  14.006
89894W        W58224  15.586  20.557  13.485
89895W        W58225  10.326   7.258  12.848
89896W        W58226   5.232  22.535  14.350
89897W        W58227   8.184  32.912   0.918
89898W        W58228  17.757   3.852  14.373
89899W        W58229  15.582  40.305  14.945
89900W        W58230   0.936  21.120   1.424
89901W        W58231  12.690  43.950  12.344
89902W        W58232  40.820  29.450  14.380
89903W        W58233  33.906  17.152  14.790
89904W        W58234   3.373  30.086   4.737
89905W        W58235   1.241  34.102  14.948
89906W        W58236  17.577   5.896   2.823
89907W        W58237  16.132  28.630  14.804
89908W        W58238  29.507  27.047   4.702
89909W        W58239  15.690  41.018   4.826
89910W        W58240  42.934  18.090  10.475
89911W        W58241   6.295  22.660   5.274
89912W        W58242  21.235  25.153   1.746
89913W        W58243  24.534  32.894   3.766
89914W        W58244  13.186  37.369  12.997
89915W        W58245  37.955   8.769   9.968
89916W        W58246   1.292  25.023   0.429
89917W        W58247   5.755  14.605  11.553
89918W        W58248  14.821  34.590   5.784
89919W        W58249   0.264  28.664  11.996
89920W        W58250   8.190  11.691  14.505
89921W        W58251  31.402  14.330  14.816
89922W        W58252  39.012   3.716   2.735
89923W        W58253   5.229   1.273  13.897
89924W        W58254   4.743  26.987   4.209
89925W        W58255   1.879  24.098   4.240
89926W        W58256   0.749  35.047   1.796
89927W        W58257   3.378  39.989  14.425
89928W        W58258  18.255   1.337   0.256
89929W        W58259  33.462  30.469  10.004
89930W        W58260  30.953  18.777   3.328
89931W        W58261  36.570  35.569  11.432
89932W        W58262  34.994  37.004  10.636
89933W        W58263   2.926  40.303   2.419
89934W        W58264   3.880  25.503  11.499
89935W        W58265  27.564   7.415  12.383
89936W        W58266  10.762  43.463  11.059
89937W        W58267  28.647  19.242  13.391
89938W        W58268  43.807  35.989  10.896
89939W        W58269  21.099  26.046  14.773
89940W        W58270  31.027   4.888  10.405
89941W        W58271  22.569  25.168  11.908
89942W        W58272  36.033  38.958  11.868
89943W        W58273  41.480  43.503   1.246
89944W        W58274  39.327  10.150  11.929
89945W        W58275  20.546   4.879  13.917
89946W        W58276  38.898   4.826   3.714
89947W        W58277  13.131   3.330  11.577
89948W        W58278  43.891  11.279   4.708
89949W        W58279  12.813  39.906   3.206
89950W        W58280  41.852  11.312   1.837
89951W        W58281  17.214  20.640  13.328
89952W        W58282  20.175  15.806  10.584
89953W        W58283  20.047  33.390   2.400
89954W        W58284  13.188   6.353   2.417
89955W        W58285  37.339   8.378   2.881
89956W        W58286  22.657  18.230   1.443
89957W        W58287  10.768  20.677  10.574
89958W        W58288  29.628  37.840  10.626
89959W        W58289  38.056   8.773   3.723
89960W        W58290  25.536  27.975   5.132
89961W        W58291  11.283  25.186   2.707
89962W        W58292  10.276  18.063   0.455
89963W        W58293  21.198   8.881  13.009
89964W        W58294  37.077  24.118  11.477
89965W        W58295  22.668  39.387   3.739
89966W        W58296  31.123  16.218   2.259
89967W        W58297   3.825  23.022  14.842
89968W        W58298  32.581  27.608   0.930
89969W        W58299  36.377  16.715  14.514
89970W        W58300  29.066  43.348  11.455
89971W        W58301  33.027  38.067   4.310
89972W        W58302   8.382  33.990   1.770
89973W        W58303   1.411   5.754   0.366
89974W        W58304  30.501  16.313  12.025
89975W        W58305  12.232  22.019  12.435
89976W        W58306  30.481  38.932   5.125
89977W        W58307  16.131  11.626   3.646
89978W        W58308  38.474  10.258  11.924
89979W        W58309  33.984  25.486   4.700
89980W        W58310  30.048  27.157   1.900
89981W        W58311   0.267  33.543  14.296
89982W        W58312   8.678  20.592   1.728
89983W        W58313  19.083  39.903  11.590
89984W        W58314  18.072  21.073   0.286
89985W        W58315  14.742  30.954  11.462
89986W        W58316  11.827  17.715  10.559
89987W        W58317   5.763  11.151  12.458
89988W        W58318  44.469  23.195   4.656
89989W        W58319   7.339  29.152  12.956
89990W        W58320  42.372  11.811   3.679
89991W        W58321  21.219  44.270   1.282
89992W        W58322  18.701  29.600   3.225
89993W        W58323  10.704   8.766  11.467
89994W        W58324  32.466  43.875   0.896
89995W        W58325   0.486  14.829   2.827
89996W        W58326   8.789  33.886   0.832
89997W        W58327   0.768  43.917   0.435
89998W        W58328  31.038  43.427   2.300
89999W        W58329   1.954  41.537  14.512
90000W        W58330  27.978  23.505  12.408
90001W        W58331  20.737   0.898  14.868
90002W        W58332  21.165  15.090  10.492
90003W        W58333   2.746  22.703   1.758
90004W        W58334  43.976  36.389   2.342
90005W        W58335   8.893  38.481   2.262
90006W        W58336  24.676  28.514   4.728
90007W        W58337  38.051  20.044   2.369
90008W        W58338  19.044  11.147  14.486
90009W        W58339  40.052  26.030   1.438
90010W        W58340  23.232  36.873  10.462
90011W        W58341  25.553  22.161   1.829
90012W        W58342   1.463   5.400   1.276
90013W        W58343  16.801  24.722   2.185
90014W        W58344  32.564  31.565  11.518
90015W        W58345  32.932   5.853   0.462
90016W        W58346  38.425  10.351   4.242
90017W        W58347  43.506   7.829  14.387
90018W        W58348  18.644  37.496  10.118
90019W        W58349  19.060   4.336   0.290
90020W        W58350  24.657  43.845  12.998
90021W        W58351  31.571  34.466   2.767
90022W        W58352  34.077  24.563  12.999
90023W        W58353   6.903   8.803  13.012
90024W        W58354  30.553  23.229   4.129
90025W        W58355   6.910   9.668   0.393
90026W        W58356  21.531  42.793  14.976
90027W        W58357  29.086  39.891   2.308
90028W        W58358   6.779  13.131  14.480
90029W        W58359  28.578  39.539   0.758
90030W        W58360   3.845  29.125   3.318
90031W        W58361   1.407  24.187   0.419
90032W        W58362  36.422   7.794   4.702
90033W        W58363   7.201  39.916   3.205
90034W        W58364   5.352  43.359  13.806
90035W        W58365   5.298  31.115  13.031
90036W        W58366   3.729  12.265  13.861
90037W        W58367  36.964  40.953  13.956
90038W        W58368  32.083  29.167   0.347
90039W        W58369  15.646   6.326   1.368
90040W        W58370   1.401  18.170  11.499
90041W        W58371   3.817  35.073   2.859
90042W        W58372  23.167  13.333  11.924
90043W        W58373   5.346   5.844   3.212
90044W        W58374   6.916  21.105   2.259
90045W        W58375  32.633  17.657  14.332
90046W        W58376  43.871  15.808  12.895
90047W        W58377  10.807   2.835   1.708
90048W        W58378  17.280  35.426  12.039
90049W        W58379  16.755   7.887  14.904
90050W        W58380   8.806   1.939   3.767
90051W        W58381  41.493  21.152   4.299
90052W        W58382  11.157  38.047  11.515
90053W        W58383  37.944  22.550  10.970
90054W        W58384  22.030  37.005  10.445
90055W        W58385   3.222  32.445   1.898
90056W        W58386  27.463  16.319  14.370
90057W        W58387  11.863  11.265   1.877
90058W        W58388  19.184  25.554  13.326
90059W        W58389  24.172  28.627  10.544
90060W        W58390  28.672  42.471   3.292
90061W        W58391  24.167  44.322  11.491
90062W        W58392   8.313  42.909   4.828
90063W        W58393   1.813  39.063  10.592
90064W        W58394   3.459  30.593   0.356
90065W        W58395  37.085  14.138   2.712
90066W        W58396   0.761  15.311   0.868
90067W        W58397   4.731  23.206  14.805
90068W        W58398   3.365  34.973   5.268
90069W        W58399  27.015   4.758   4.808
90070W        W58400  12.760  34.607   4.337
90071W        W58401  23.233  17.162   3.707
90072W        W58402  34.000  35.550  12.461
90073W        W58403  36.883  33.446   4.264
90074W        W58404  22.671  30.968   1.439
90075W        W58405  21.658  31.146  12.066
90076W        W58406  26.605  12.280   3.220
90077W        W58407  31.081  35.467   0.426
90078W        W58408  14.763  10.218   4.838
90079W        W58409  14.327  37.081  11.011
90080W        W58410   9.192  31.622   0.822
90081W        W58411  37.034  44.848   3.848
90082W        W58412   4.254  30.496  11.008
90083W        W58413  32.912  33.598   1.266
90084W        W58414  17.668  38.944   3.837
90085W        W58415  39.986  29.034  14.417
90086W        W58416  43.441   7.266  10.946
90087W        W58417  10.670  30.001  10.529
90088W        W58418  39.861  34.908   0.346
90089W        W58419  40.797  26.110   2.238
90090W        W58420  34.438  16.164   3.239
90091W        W58421  38.009  22.134   4.193
90092W        W58422   3.448   7.868  12.405
90093W        W58423  35.548  32.632   4.290
90094W        W58424  32.131  36.052  13.442
90095W        W58425  26.457  12.652   5.216
90096W        W58426   9.177  20.143   2.792
90097W        W58427  37.981  11.780   2.846
90098W        W58428  25.638  26.525   4.608
90099W        W58429   5.372  26.127   3.657
90100W        W58430  27.583  33.435   5.633
90101W        W58431   7.208  23.121   4.778
90102W        W58432  14.813   7.244   2.811
90103W        W58433  22.560  35.481  11.548
90104W        W58434  17.734  42.833   3.246
90105W        W58435  10.199  34.377  14.889
90106W        W58436  31.948   2.852  11.053
90107W        W58437  37.052   8.320  11.414
90108W        W58438  21.256  22.159   1.914
90109W        W58439   6.312  16.581  14.404
90110W        W58440   0.748  38.921  10.034
90111W        W58441  23.213  33.481   4.265
90112W        W58442  31.050  28.471  11.907
90113W        W58443  19.734  18.165  10.435
90114W        W58444  40.362  12.622   0.941
90115W        W58445  41.864   7.666   5.283
90116W        W58446  37.556  30.047   2.741
90117W        W58447  33.419  40.054  11.962
90118W        W58448  20.768  25.114  11.116
90119W        W58449  36.392  34.094  12.016
90120W        W58450   4.243   5.849   4.601
90121W        W58451  36.356  30.131   1.813
90122W        W58452  40.414  27.650  11.890
90123W        W58453  38.900  21.512   3.646
90124W        W58454  20.142   9.356  10.085
90125W        W58455  11.279  17.144  11.983
90126W        W58456   7.758  29.529   4.642
90127W        W58457  21.153   8.662  12.472
90128W        W58458  24.549   4.888  11.073
90129W        W58459  22.056  22.040  10.930
90130W        W58460  12.289  39.040  12.905
90131W        W58461  34.962  44.003   3.696
90132W        W58462  40.832  32.010  14.479
90133W        W58463   8.367  14.238   2.785
90134W        W58464   4.277  37.454   2.848
90135W        W58465   7.906  29.014   0.252
90136W        W58466   0.774  42.930   3.631
90137W        W58467  28.037  21.151  12.339
90138W        W58468  26.673  40.413   4.643
90139W        W58469  15.321  34.375  11.038
90140W        W58470   6.834   8.862  14.998
90141W        W58471  11.174  34.093  14.854
90142W        W58472  39.506  43.880   4.646
90143W        W58473  41.531  39.396   3.216
90144W        W58474  10.634  30.981   0.731
90145W        W58475  35.433   7.788  13.415
90146W        W58476   9.818   8.828   0.404
90147W        W58477   7.811  41.500   3.811
90148W        W58478  12.761  23.027  11.529
90149W        W58479  40.389  16.202  13.548
90150W        W58480  19.175   9.283  14.285
90151W        W58481   4.369  22.145  13.372
90152W        W58482  20.118  18.765   0.807
90153W        W58483  22.121  29.951  13.865
90154W        W58484   3.263  35.582   0.284
90155W        W58485   9.830  33.041  14.393
90156W        W58486  37.404   9.715  14.941
90157W        W58487   7.690   5.253   2.694
90158W        W58488   5.777  14.302   0.272
90159W        W58489  16.787  11.314  13.487
90160W        W58490  35.599   4.782  13.516
90161W        W58491   8.821   2.785  12.871
90162W        W58492  10.834   5.781  12.520
90163W        W58493  21.546  15.635   2.406
90164W        W58494  36.563  20.094  10.552
90165W        W58495  34.537  24.566   0.748
90166W        W58496  40.433  38.057  12.003
90167W        W58497  13.735  30.098   0.847
90168W        W58498  28.184  30.011  14.976
90169W        W58499   5.870  22.627   3.327
90170W        W58500  22.632   8.662   4.819
90171W        W58501  33.919   6.716   3.759
90172W        W58502  10.874  36.870  11.971
90173W        W58503  31.643  40.364  11.415
90174W        W58504  44.815   6.808   4.224
90175W        W58505  20.062  34.996  10.484
90176W        W58506  19.108  38.017  10.422
90177W        W58507   7.327  23.664   2.809
90178W        W58508  33.412   9.781   2.755
90179W        W58509  17.642  23.006  11.609
90180W        W58510  19.642  31.071  12.892
90181W        W58511   3.897  21.090   3.637
90182W        W58512  22.576  23.637  11.959
90183W        W58513  42.939  16.576   1.446
90184W        W58514  43.399  28.932   3.836
90185W        W58515  24.203  18.090   4.599
90186W        W58516  44.986  10.692  13.437
90187W        W58517   2.444  25.990   1.387
90188W        W58518  34.960   1.948   0.429
90189W        W58519  19.688  11.157  14.389
90190W        W58520  26.487  41.494   4.324
90191W        W58521  39.523  34.577   2.845
90192W        W58522  41.407  44.258  12.435
90193W        W58523  37.065  26.507  13.543
90194W        W58524  31.571  19.676   1.250
90195W        W58525  40.337  39.834  12.576
90196W        W58526  22.047  23.632  10.505
90197W        W58527  24.529  39.831   2.346
90198W        W58528  42.348  20.121  11.611
90199W        W58529  29.133   8.841  12.001
90200W        W58530  37.043   8.799   1.226
90201W        W58531   6.869  17.137  13.382
90202W        W58532  16.250  24.177   2.209
90203W        W58533  32.608  28.072  12.824
90204W        W58534  11.723  16.585   3.838
90205W        W58535  41.917   0.745   4.164
90206W        W58536  10.651   2.374  12.357
90207W        W58537   3.446   5.382   3.835
90208W        W58538  23.105   3.435  11.113
90209W        W58539  35.908  25.536   0.932
90210W        W58540  18.243  43.875   1.375
90211W        W58541  20.067  20.273   1.387
90212W        W58542  28.645  42.818   1.343
90213W        W58543  10.670  29.664   0.336
90214W        W58544  21.124  12.308   2.418
90215W        W58545  21.592  32.395   3.360
90216W        W58546  19.747  21.069  10.630
90217W        W58547  34.959  15.105   3.722
90218W        W58548  33.533  39.452   1.850
90219W        W58549  37.494   2.732   2.716
90220W        W58550   8.798  17.648   1.815
90221W        W58551  41.362  15.253  13.937
90222W        W58552  14.300  26.682  11.123
90223W        W58553  40.360  29.439  11.571
90224W        W58554  10.856  35.515  14.294
90225W        W58555  29.973   6.775  13.483
90226W        W58556  25.046   8.171  11.579
90227W        W58557  27.551   6.713   3.197
90228W        W58558  32.987  35.522   4.722
90229W        W58559  11.178  27.161   2.307
90230W        W58560  39.353   5.231  10.589
90231W        W58561  29.465  33.081   5.227
90232W        W58562   9.321  11.198   1.257
90233W        W58563   4.350  33.567  14.282
90234W        W58564  21.233  41.855   1.358
90235W        W58565  44.853  14.833   0.332
90236W        W58566   7.387  39.811   4.135
90237W        W58567  12.152  34.540  11.961
90238W        W58568   5.357  39.388   1.875
90239W        W58569  23.011  22.558   0.765
90240W        W58570  12.241   6.688  12.580
90241W        W58571   5.195  21.170  10.973
90242W        W58572  26.562  28.577   3.291
90243W        W58573  35.889  21.090   2.291
90244W        W58574   0.461  37.376  13.003
90245W        W58575  35.009  10.187   2.197
90246W        W58576  28.511   9.269   1.779
90247W        W58577  26.504  37.901   1.375
90248W        W58578  36.946   6.811   2.693
90249W        W58579   4.834  35.488   1.714
90250W        W58580  33.595  13.151  14.362
90251W        W58581  43.376  24.977   2.798
90252W        W58582  36.031  24.181   4.286
90253W        W58583  28.067  35.956  10.603
90254W        W58584   0.838  13.312   3.853
90255W        W58585  24.998  23.037   4.293
90256W        W58586  21.100  13.809   4.265
90257W        W58587   9.331  28.944  13.056
90258W        W58588  16.614  42.901   2.667
90259W        W58589   8.716  10.872   4.291
90260W        W58590   7.325   3.795  13.043
90261W        W58591   4.357   6.765  12.574
90262W        W58592  15.653  27.099   3.668
90263W        W58593   3.950  13.831  11.559
90264W        W58594  16.603  11.337   1.400
90265W        W58595  44.460  12.346  11.099
90266W        W58596  27.598  37.424   1.267
90267W        W58597  21.035   0.862  11.874
90268W        W58598  39.354   8.738   5.242
90269W        W58599  29.957  27.665  13.473
90270W        W58600  28.037  24.147   0.439
90271W        W58601  15.227  23.160  11.489
90272W        W58602  29.067  28.442   3.662
90273W        W58603  10.644  19.229   2.326
90274W        W58604  34.962  35.391  11.476
90275W        W58605  21.708  36.535  11.564
90276W        W58606  16.633  22.643  12.403
90277W        W58607   2.226   4.267   0.375
90278W        W58608  27.010  41.361   3.692
90279W        W58609  29.614  30.606   9.986
90280W        W58610   7.225  42.851  11.554
90281W        W58611   5.745   4.890  12.040
90282W        W58612   0.414  29.015   1.269
90283W        W58613  16.270   1.917  14.475
90284W        W58614  25.694   4.864   1.878
90285W        W58615  10.312   0.350   3.354
90286W        W58616  27.612   4.768  12.352
90287W        W58617   4.940   1.928   4.353
90288W        W58618  21.146   9.328  13.890
90289W        W58619  37.907  14.690  11.465
90290W        W58620  40.968   6.891   4.704
90291W        W58621  25.682  39.813   2.692
90292W        W58622  34.906  28.976  12.988
90293W        W58623   4.352  41.940   3.355
90294W        W58624  10.705  20.032   2.214
90295W        W58625   8.832   3.820   1.440
90296W        W58626  14.738  27.130   3.810
90297W        W58627  16.249  37.413  11.411
90298W        W58628  27.686   5.829   1.313
90299W        W58629   7.841  19.745  14.439
90300W        W58630  27.115  16.258  13.055
90301W        W58631  25.585   3.266  14.871
90302W        W58632  27.963   9.772  14.795
90303W        W58633   7.700  28.082  10.135
90304W        W58634  27.523   8.817  14.825
90305W        W58635   0.487  44.903  12.552
90306W        W58636   3.270  42.915  10.107
90307W        W58637  32.945  44.871  13.820
90308W        W58638  29.099   6.387  14.943
90309W        W58639  22.619  38.462   3.803
90310W        W58640   7.402  13.173  13.826
90311W        W58641  34.000   7.271   3.180
90312W        W58642  33.544  30.506   3.653
90313W        W58643  38.930   4.879  12.362
90314W        W58644   3.404  40.450  12.516
90315W        W58645  40.909  16.233  12.462
90316W        W58646   8.303  19.564   4.312
90317W        W58647  41.396   8.217   3.315
90318W        W58648  29.041  24.571  13.368
90319W        W58649   4.886   0.449  10.502
90320W        W58650  39.441   2.744  13.392
90321W        W58651  29.538  10.139   5.133
90322W        W58652  43.978   6.331  10.488
90323W        W58653  19.617  22.122  10.638
90324W        W58654  28.991  25.005   0.914
90325W        W58655  28.575  30.532  11.479
90326W        W58656  15.214   4.823  13.040
90327W        W58657  21.523  16.145   2.409
90328W        W58658  39.326   4.283  11.911
90329W        W58659  24.123  27.048  14.891
90330W        W58660  20.757   6.206  10.524
90331W        W58661  25.704  30.161   2.330
90332W        W58662  29.068  17.187   0.772
90333W        W58663  32.603  31.521  10.999
90334W        W58664   9.303  30.943   0.885
90335W        W58665  22.508  33.905   1.381
90336W        W58666   7.702   3.917  12.836
90337W        W58667  22.046  32.427  12.519
90338W        W58668  12.129  38.855  10.494
90339W        W58669   8.403   6.273   0.805
90340W        W58670  43.476   0.258   1.849
90341W        W58671  33.444  38.469  10.461
90342W        W58672  14.246   2.749  11.924
90343W        W58673   8.670  13.728   3.696
90344W        W58674   8.675  38.995  12.826
90345W        W58675  39.425  12.806  10.481
90346W        W58676  42.945  38.012   4.762
90347W        W58677  14.680  23.576   1.914
90348W        W58678  30.059  44.349  12.035
90349W        W58679   5.791  36.034  12.469
90350W        W58680  12.671  29.470  11.462
90351W        W58681  28.670  26.492   3.755
90352W        W58682  18.150   4.244   4.617
90353W        W58683  13.116  12.324   4.300
90354W        W58684   4.332  25.049  14.821
90355W        W58685  18.754   8.689   4.137
90356W        W58686  20.594  21.554   2.397
90357W        W58687  42.010  15.279   2.286
90358W        W58688  38.884  39.376   1.717
90359W        W58689  23.075  29.157   0.450
90360W        W58690  23.679  26.607  14.808
90361W        W58691  29.982  41.449  10.608
90362W        W58692  34.973  43.838   4.747
90363W        W58693   0.493  43.447   3.744
90364W        W58694   5.856  15.656  14.803
90365W        W58695  29.660  34.568  14.021
90366W        W58696   0.898  34.995   3.805
90367W        W58697  11.642  22.610   5.159
90368W        W58698  18.187  43.327  13.808
90369W        W58699   5.240  29.559   1.390
90370W        W58700   1.427  11.760  12.011
90371W        W58701  43.502  30.937  14.979
90372W        W58702  20.767  25.030   4.833
90373W        W58703   1.880  27.053  14.302
90374W        W58704  42.966  41.430   3.246
90375W        W58705   0.267  12.230  13.435
90376W        W58706  15.592   5.796  13.948
90377W        W58707  11.290   5.722  11.006
90378W        W58708  18.632  11.767  12.094
90379W        W58709  27.603  13.669  11.453
90380W        W58710  20.175  24.552   2.288
90381W        W58711  18.564  31.000  12.981
90382W        W58712  39.481  25.094  12.927
90383W        W58713  21.640  35.478   3.776
90384W        W58714   5.249  37.345  12.029
90385W        W58715  42.946  21.228  11.062
90386W        W58716   8.871  39.387   3.687
90387W        W58717  23.154  30.483   1.270
90388W        W58718  43.005   0.774   2.383
90389W        W58719  23.529  17.306  14.851
90390W        W58720   9.795  28.105   1.220
90391W        W58721  30.984  33.049   0.296
90392W        W58722   7.853  11.833   4.127
90393W        W58723  26.598  15.122  14.942
90394W        W58724  21.655  19.731   3.366
90395W        W58725   7.811  16.728   0.738
90396W        W58726   5.893  26.043   4.209
90397W        W58727  26.957  30.487  14.339
90398W        W58728  36.592  11.624  13.052
90399W        W58729   3.932  37.997   4.806
90400W        W58730  40.441   8.799  13.904
90401W        W58731  23.096  37.856   3.187
90402W        W58732  33.546   5.780   0.868
90403W        W58733  24.192   7.343  14.338
90404W        W58734   8.253  34.546  13.451
90405W        W58735  11.753   8.224   0.343
90406W        W58736   4.940  28.667  14.827
90407W        W58737  15.663  15.754  13.022
90408W        W58738   5.226   1.953  11.512
90409W        W58739  26.978  36.842  10.457
90410W        W58740  43.424   9.247  14.843
90411W        W58741  30.585   4.407   3.373
90412W        W58742  13.213  23.099   4.126
90413W        W58743  15.111  18.668  11.466
90414W        W58744  10.236   1.794   5.107
90415W        W58745   3.717  31.461  14.992
90416W        W58746  30.471  36.418  10.489
90417W        W58747   2.964  40.418  13.398
90418W        W58748  15.654   7.327  14.360
90419W        W58749  30.075  23.072  11.908
90420W        W58750  26.157   2.894   3.822
90421W        W58751  42.002   3.462   1.918
90422W        W58752  13.184   0.366  14.782
90423W        W58753  14.753  42.471   2.790
90424W        W58754  12.123  31.042  14.425
90425W        W58755   3.394  26.470   1.705
90426W        W58756  11.766  19.650   2.777
90427W        W58757   1.932  36.504  10.142
90428W        W58758  37.574  33.877  10.587
90429W        W58759   6.193   3.250   1.304
90430W        W58760   3.390   9.873   1.407
90431W        W58761  41.930  17.229  13.309
90432W        W58762  24.132   9.173  11.859
90433W        W58763  29.136  26.503  14.801
90434W        W58764   6.834  27.640   4.341
90435W        W58765  32.582   5.774   3.822
90436W        W58766  11.810  43.867   4.230
90437W        W58767   9.857  14.271  12.857
90438W        W58768  34.038   0.374  10.634
90439W        W58769  31.010   2.447  11.933
90440W        W58770  44.990  40.916  11.470
90441W        W58771  19.759   6.919   3.360
90442W        W58772  43.012   8.290  12.824
90443W        W58773  30.469  29.029   3.692
90444W        W58774  35.419  17.577  13.848
90445W        W58775  44.822   8.228   4.152
90446W        W58776  37.369  27.554  13.522
90447W        W58777  25.114  33.545   4.826
90448W        W58778   9.645  20.085  11.027
90449W        W58779  19.615  14.728   1.841
90450W        W58780  15.735  43.802   4.307
90451W        W58781  44.931  24.624  11.521
90452W        W58782  39.377  20.654  11.003
90453W        W58783  28.499  43.326  14.801
90454W        W58784  33.956  44.995  14.887
90455W        W58785   6.822  19.558  11.899
90456W        W58786  11.694  20.728   3.352
90457W        W58787  30.520  19.678   0.877
90458W        W58788  12.643  28.550   1.211
90459W        W58789  38.549  27.564  12.558
90460W        W58790   0.896  18.648  10.020
90461W        W58791  16.640  21.550  12.467
90462W        W58792  27.151  17.065   0.765
90463W        W58793  24.612  24.506   2.396
90464W        W58794   2.425  36.921   4.658
90465W        W58795   3.865  18.147   0.743
90466W        W58796   0.742  10.285   0.942
90467W        W58797   1.459   9.773  11.060
90468W        W58798  43.502  27.178   1.242
90469W        W58799  25.709  14.168  12.488
90470W        W58800   4.814  16.677   2.820
90471W        W58801  29.028   1.279  13.426
90472W        W58802  12.277  29.478   2.256
90473W        W58803  14.286  25.675  12.526
90474W        W58804  11.845  10.313  12.444
90475W        W58805  30.453  27.943  12.872
90476W        W58806  38.357  23.181   0.902
90477W        W58807  30.123  33.434  12.938
90478W        W58808  32.890  15.271   3.264
90479W        W58809  14.706  15.227   1.248
90480W        W58810  20.213   1.866  11.584
90481W        W58811  35.091  12.795  11.492
90482W        W58812  21.557   9.296   1.399
90483W        W58813  34.576  37.872   4.349
90484W        W58814   8.893  28.462   0.852
90485W        W58815  30.516   4.390  10.956
90486W        W58816  43.793  43.462  10.641
90487W        W58817   2.851  36.367  12.016
90488W        W58818  38.075  35.106  14.943
90489W        W58819  38.881  16.628  14.006
90490W        W58820  34.079  32.546   1.354
90491W        W58821   8.197   8.736  10.588
90492W        W58822  19.193  23.603  13.960
90493W        W58823  36.574  44.003   2.206
90494W        W58824  15.611  37.851   1.348
90495W        W58825   2.794  18.717   4.158
90496W        W58826  11.255  41.392   2.817
90497W        W58827  24.063   6.229  14.320
90498W        W58828   8.163   5.354   0.727
90499W        W58829  30.442  37.550   2.668
90500W        W58830  26.132  31.567   1.427
90501W        W58831   6.371  28.445  14.295
90502W        W58832  12.294  24.076   0.846
90503W        W58833   9.154   4.758  12.470
90504W        W58834  23.095  18.781  10.890
90505W        W58835  26.510   8.240   2.814
90506W        W58836  42.867  18.567   5.111
90507W        W58837   8.661   6.840  13.955
90508W        W58838   6.804  12.294  11.864
90509W        W58839   2.879  29.064  13.994
90510W        W58840  43.476  17.179  10.136
90511W        W58841   2.884   7.382  14.496
90512W        W58842   8.307  27.592   2.856
90513W        W58843  32.053  32.531  14.403
90514W        W58844  25.664   4.259  11.397
90515W        W58845  37.477  16.222   2.829
90516W        W58846  14.120  34.932  14.982
90517W        W58847  37.929  14.618   4.295
90518W        W58848  34.510   3.811  12.384
90519W        W58849   8.770  12.161  11.933
90520W        W58850   1.474  14.651  10.617
90521W        W58851  19.252  32.955   3.708
90522W        W58852  39.388  16.706   1.791
90523W        W58853  44.909  16.755   2.822
90524W        W58854  12.143  37.530  14.424
90525W        W58855   1.948  33.380   2.888
90526W        W58856  37.052  12.849   0.272
90527W        W58857  20.532  33.515   4.228
90528W        W58858   8.681  39.838  12.349
90529W        W58859  19.077  27.488  14.002
90530W        W58860  12.240  23.087   1.341
90531W        W58861   5.716  24.608   2.205
90532W        W58862  44.806  20.261   0.739
90533W        W58863  36.885   5.384  10.431
90534W        W58864  43.778  33.020  10.955
90535W        W58865  25.028   7.272  14.952
90536W        W58866  31.023  24.723  11.577
90537W        W58867  44.755  38.484  14.328
90538W        W58868  44.290  32.396  11.392
90539W        W58869  14.664  25.014  12.830
90540W        W58870  29.649  15.725  11.511
90541W        W58871  37.486  24.230   4.784
90542W        W58872   0.914   7.197  12.006
90543W        W58873  23.027  20.717   2.769
90544W        W58874  40.410   6.247  13.462
90545W        W58875  31.644  13.818  10.580
90546W        W58876   0.891  11.852  14.329
90547W        W58877  35.007  25.202   2.271
90548W        W58878  18.757  41.296  11.954
90549W        W58879   1.811  17.187   1.367
90550W        W58880   9.285  23.130  10.888
90551W        W58881  31.520  20.047   0.450
90552W        W58882  34.611  42.420   4.295
90553W        W58883  21.699   3.340   4.798
90554W        W58884   6.312  18.663  13.488
90555W        W58885   4.917  28.620  14.398
90556W        W58886  13.298  36.468   0.919
90557W        W58887  19.744  38.071   3.793
90558W        W58888   6.907  19.052   2.364
90559W        W58889  10.638   7.667   1.873
90560W        W58890  37.047  27.060   3.864
90561W        W58891  17.096  28.572   3.320
90562W        W58892   5.853  36.410   1.243
90563W        W58893  22.703  32.490   1.379
90564W        W58894   8.392  39.930  11.958
90565W        W58895  43.347  11.351   2.706
90566W        W58896   1.475  17.638   4.832
90567W        W58897  35.567  21.749   1.234
90568W        W58898  18.785  34.876  10.598
90569W        W58899  20.621   6.860  11.492
90570W        W58900   8.772  15.780  11.498
90571W        W58901  12.621  12.654  12.880
90572W        W58902  15.120  15.198   4.739
90573W        W58903  18.235  24.673  10.897
90574W        W58904  35.009  39.905   4.341
90575W        W58905  28.577  38.379   4.193
90576W        W58906  25.682  12.311  12.873
90577W        W58907  25.562  38.393   0.938
90578W        W58908  24.535   6.763   2.794
90579W        W58909  13.751   2.448  13.376
90580W        W58910  41.943  32.561   0.440
90581W        W58911  40.003  26.539   9.931
90582W        W58912  42.375  42.459  12.461
90583W        W58913   6.379   0.941   1.417
90584W        W58914  44.978  10.289  14.816
90585W        W58915  22.740  39.325   1.246
90586W        W58916  28.038   1.315  11.040
90587W        W58917  32.069   6.184  13.932
90588W        W58918  27.138  19.722  14.918
90589W        W58919   7.348   6.912   0.747
90590W        W58920  31.097  15.642  12.040
90591W        W58921  26.523   9.256  11.961
90592W        W58922  20.064  28.585   2.792
90593W        W58923  22.563  30.088  12.580
90594W        W58924  39.831  29.012  11.578
90595W        W58925  31.463  15.729  11.063
90596W        W58926  42.410   7.849  13.976
90597W        W58927  32.898  20.603  12.423
90598W        W58928   3.337  44.305  14.502
90599W        W58929   8.724  14.798  14.952
90600W        W58930  14.656  19.574   2.766
90601W        W58931  39.531  35.465  11.929
90602W        W58932  18.182  32.623   2.895
90603W        W58933  38.374   9.375   4.691
90604W        W58934  26.462  35.958  10.915
90605W        W58935   7.787  39.528   3.750
90606W        W58936  18.554  42.958  11.070
90607W        W58937  37.940  13.845   1.272
90608W        W58938  11.630  14.302   9.977
90609W        W58939  30.149   8.838   0.483
90610W        W58940  15.238  24.091  11.425
90611W        W58941  25.115  11.273  13.959
90612W        W58942  14.728  32.090   5.134
90613W        W58943  15.219  41.808   3.826
90614W        W58944  37.471  25.018  11.603
90615W        W58945   8.659  27.611   4.181
90616W        W58946  13.168  24.483   1.375
90617W        W58947  17.134  20.147   2.747
90618W        W58948  27.475   1.239  12.830
90619W        W58949   8.169   5.849  14.334
90620W        W58950  38.952   0.405   2.897
90621W        W58951  10.706  10.192   4.834
90622W        W58952  21.166  23.067  10.622
90623W        W58953  20.155  31.615  13.327
90624W        W58954  15.314  16.591   3.855
90625W        W58955  35.017  38.432   2.868
90626W        W58956  17.779  21.109   3.227
90627W        W58957  24.059  20.156  13.514
90628W        W58958  18.600  23.715   4.733
90629W        W58959  27.465  35.598  10.641
90630W        W58960  33.969   7.709  12.055
90631W        W58961  40.363   4.835   1.374
90632W        W58962   0.467  16.711  13.368
90633W        W58963  15.647   2.773   2.183
90634W        W58964   8.748   6.209   2.726
90635W        W58965  37.552  35.459   1.753
90636W        W58966  27.953  27.025   3.196
90637W        W58967  25.005  29.157   3.304
90638W        W58968  29.129  14.613  13.987
90639W        W58969  41.875  19.055  10.548
90640W        W58970  41.804  40.393   9.993
90641W        W58971  40.804  27.051   4.724
90642W        W58972  37.921  31.967   4.138
90643W        W58973   6.829   9.792   1.891
90644W        W58974  40.497  34.065   3.834
90645W        W58975  12.123   3.899   2.307
90646W        W58976  31.007  35.060  12.046
90647W        W58977  36.048  26.698   2.773
90648W        W58978  11.662  11.731   2.848
90649W        W58979  27.647  14.254   4.203
90650W        W58980  31.998  38.824   0.427
90651W        W58981  34.903  29.449   0.951
90652W        W58982  23.689   7.374   1.421
90653W        W58983  11.782  30.419  11.093
90654W        W58984  19.567   8.809  11.557
90655W        W58985  36.090   7.762   5.249
90656W        W58986   5.377  40.037  14.001
90657W        W58987  25.978  36.543   2.837
90658W        W58988  44.882  41.935   0.450
90659W        W58989  40.861   4.901  10.462
90660W        W58990   3.948  33.072   4.750
90661W        W58991   1.808  25.184  12.005
90662W        W58992   4.803   8.701  11.600
90663W        W58993  43.442  32.135   2.283
90664W        W58994  41.966  12.354   2.897
90665W        W58995  29.978  20.763  12.352
90666W        W58996  18.293  28.027  13.911
90667W        W58997  16.091  12.613  14.780
90668W        W58998  38.413  35.407   2.709
90669W        W58999  17.257  16.637   4.274
90670W        W59000   0.764   6.293   1.815
90671W        W59001   6.343  13.648   2.668
90672W        W59002  28.154  20.600  13.335
90673W        W59003  24.610  26.496   2.405
90674W        W59004  41.474  23.532   2.876
90675W        W59005  39.497  33.546   3.649
90676W        W59006  19.603  37.981   3.310
90677W        W59007  28.099  37.522  13.477
90678W        W59008  13.641  19.186  12.063
90679W        W59009  34.388  38.429   2.854
90680W        W59010   3.347   2.253   2.780
90681W        W59011   4.260   9.872  13.856
90682W        W59012   7.396  30.422   3.316
90683W        W59013   7.284  42.947   1.447
90684W        W59014  21.227  25.121   4.633
90685W        W59015  43.889  24.047   1.359
90686W        W59016  20.629  19.573  14.838
90687W        W59017  19.775  35.951  14.910
90688W        W59018  28.487  10.744  12.375
90689W        W59019  17.732  41.927   1.733
90690W        W59020  13.264  29.086   4.160
90691W        W59021  27.973  33.424  12.966
90692W        W59022   8.259  21.241  11.425
90693W        W59023  40.469  18.725   3.382
90694W        W59024  30.473  38.921  12.885
90695W        W59025  37.861  17.677   3.218
90696W        W59026  18.764  13.333  11.484
90697W        W59027  15.110  31.514  10.484
90698W        W59028  21.693   3.756   3.630
90699W        W59029  17.186  19.228  13.523
90700W        W59030  23.082  34.916   3.235
90701W        W59031  18.206  17.088   0.453
90702W        W59032   9.181   4.914   4.628
90703W        W59033  30.069  27.647  12.437
90704W        W59034   1.934  31.509  13.431
90705W        W59035  37.348  15.748   0.810
90706W        W59036   2.770  34.888  14.409
90707W        W59037   6.193   0.249   1.423
90708W        W59038  34.994  12.336  14.997
90709W        W59039  38.377  34.537   1.449
90710W        W59040  26.500  31.048   1.337
90711W        W59041  35.106  14.761  13.972
90712W        W59042  34.069  17.158   0.476
90713W        W59043   8.795  25.999   2.882
90714W        W59044   2.934  34.909  14.766
90715W        W59045  40.926  32.907  11.914
90716W        W59046   3.941  21.145  13.796
90717W        W59047  36.921  36.566   2.817
90718W        W59048  35.952  24.156  11.468
90719W        W59049  16.779   9.255  14.485
90720W        W59050  16.130  27.019   3.186
90721W        W59051  13.205  41.513   2.193
90722W        W59052  15.807  38.360   1.259
90723W        W59053  29.484  24.223   0.762
90724W        W59054  38.343  13.786  12.905
90725W        W59055  21.248  31.046  11.457
90726W        W59056   9.852  40.945  13.493
90727W        W59057  18.628  19.753   4.695
90728W        W59058   8.823  12.327   0.731
90729W        W59059  24.145  18.174   2.849
90730W        W59060  35.379  16.807   3.700
90731W        W59061  34.584  30.146  11.375
90732W        W59062  42.999  23.714  13.324
90733W        W59063  41.042  30.620   0.929
90734W        W59064  41.312  10.633   3.332
90735W        W59065  16.088  30.941   1.417
90736W        W59066  26.194  27.643  13.956
90737W        W59067  33.048  28.131   4.245
90738W        W59068  11.704  16.173   0.843
90739W        W59069  18.099   3.423   0.745
90740W        W59070  19.778  39.850  10.464
90741W        W59071  39.387  36.022  11.419
90742W        W59072   2.778  38.544  11.582
90743W        W59073  27.660  32.887   9.981
90744W        W59074   3.815  10.155  13.870
90745W        W59075  37.578   3.453   3.342
90746W        W59076  37.069  37.941   4.134
90747W        W59077  28.042  28.634   4.152
90748W        W59078  19.718   0.279   3.377
90749W        W59079  44.293  24.662   1.828
90750W        W59080  13.259  20.679  12.418
90751W        W59081  18.290  18.095   1.742
90752W        W59082  20.170  24.211   2.867
90753W        W59083  32.052  24.089  14.408
90754W        W59084  14.248  10.778  13.377
90755W        W59085  21.106  17.099   3.735
90756W        W59086  30.978   4.257  11.913
90757W        W59087  18.102  15.113   4.299
90758W        W59088  29.593  32.028  10.077
90759W        W59089   5.741  20.076  10.629
90760W        W59090  29.043  31.518  13.351
90761W        W59091  21.731  22.631  13.936
90762W        W59092  11.682  21.102   5.246
90763W        W59093   2.727   7.873   0.726
90764W        W59094  15.104  39.035   1.717
90765W        W59095  39.500  44.936  11.907
90766W        W59096  32.420  43.407   1.768
90767W        W59097  13.784  44.899  10.988
90768W        W59098  31.904  37.446   3.805
90769W        W59099  44.427   6.209   0.347
90770W        W59100  29.664  20.683   5.285
90771W        W59101   7.893   1.388   0.958
90772W        W59102  37.861   9.648   4.157
90773W        W59103  18.212   6.892   0.355
90774W        W59104  24.039   2.293   3.358
90775W        W59105  30.092  38.418   4.247
90776W        W59106   7.773  34.030  14.407
90777W        W59107  16.618  42.874   3.650
90778W        W59108  19.047  43.869   1.424
90779W        W59109  28.678  14.598  14.415
90780W        W59110  25.019  16.699  13.918
90781W        W59111   6.390  20.547   4.170
90782W        W59112  31.618  37.539  11.887
90783W        W59113  37.494  23.598   0.836
90784W        W59114  27.081  29.489  14.927
90785W        W59115   7.742  22.674   0.246
90786W        W59116  20.112  26.524   3.244
90787W        W59117  35.360   4.236   2.334
90788W        W59118  33.883  36.900   1.843
90789W        W59119   7.339  35.523  14.341
90790W        W59120  17.601  36.394   4.282
90791W        W59121  34.490  15.792   3.742
90792W        W59122  11.247   5.756   4.645
90793W        W59123  23.001   8.791  12.433
90794W        W59124  29.028   2.377  14.388
90795W        W59125   9.777   7.365   1.767
90796W        W59126  33.009  44.966   2.333
90797W        W59127  24.045   5.348  10.470
90798W        W59128   2.382  35.433   0.965
90799W        W59129   2.299  44.312  13.412
90800W        W59130  23.176   9.301  13.422
90801W        W59131  16.105  13.739  14.999
90802W        W59132  12.252  36.480  10.465
90803W        W59133  41.469  15.088   0.793
90804W        W59134  34.535  41.923  14.449
90805W        W59135  44.324  36.396  13.844
90806W        W59136   8.354  12.316   2.886
90807W        W59137   6.319  15.273  11.498
90808W        W59138  13.766  21.219  13.048
90809W        W59139  28.454   0.455  13.796
90810W        W59140  23.183  19.286  14.007
90811W        W59141  44.801  17.720   2.330
90812W        W59142  13.210  15.311  12.390
90813W        W59143   8.668  36.541   1.860
90814W        W59144  23.042  11.159  12.980
90815W        W59145   4.359  33.060  10.492
90816W        W59146  19.149  21.022  14.836
90817W        W59147  35.957  18.588   1.898
90818W        W59148  33.402  26.132  11.933
90819W        W59149  12.793  13.269   1.933
90820W        W59150   7.762  38.037   2.827
90821W        W59151  26.612  31.899  14.487
90822W        W59152  16.755   6.383   0.399
90823W        W59153   4.385  13.705   4.642
90824W        W59154  27.500  28.973  13.512
90825W        W59155  33.002  33.937  10.545
90826W        W59156  28.611  41.367   0.254
90827W        W59157  44.439  29.434  10.900
90828W        W59158  17.259  44.323  11.024
90829W        W59159  25.967  20.621  11.906
90830W        W59160  40.985  44.307  14.855
90831W        W59161  17.732  36.040  11.078
90832W        W59162  29.022  11.373   4.669
90833W        W59163  43.299  39.340   3.322
90834W        W59164  16.107  44.326  13.860
90835W        W59165  30.008  32.060  13.842
90836W        W59166  31.499  32.085   0.762
90837W        W59167   0.975  18.578  12.881
90838W        W59168   4.369   2.926  11.943
90839W        W59169   1.814  12.145  14.978
90840W        W59170  19.644  23.100   5.689
90841W        W59171  38.412  11.158   3.831
90842W        W59172  24.183  22.164  11.564
90843W        W59173  15.090  23.618   3.296
90844W        W59174   6.297  16.607   3.306
90845W        W59175  23.028  19.137   2.304
90846W        W59176  21.692  30.481  14.394
90847W        W59177  14.136  13.350  13.898
90848W        W59178   3.295  15.784  14.797
90849W        W59179  20.533  18.180  13.988
90850W        W59180  40.524   3.263  14.319
90851W        W59181  15.779  29.935  11.539
90852W        W59182   8.359  33.397   4.724
90853W        W59183   8.178  15.111  11.532
90854W        W59184  43.467  17.278  12.977
90855W        W59185   5.779   9.865   4.705
90856W        W59186  23.066   7.326   2.873
90857W        W59187  13.831  41.797   1.318
90858W        W59188  23.040  27.684   0.250
90859W        W59189   8.891  11.786   0.460
90860W        W59190   2.895  33.613   2.845
90861W        W59191  22.639   6.711  11.115
90862W        W59192  35.876   9.357   0.827
90863W        W59193  28.045  27.159  12.904
90864W        W59194  14.770   5.212   2.352
90865W        W59195   0.292  32.432  11.882
90866W        W59196   0.773   1.333   1.379
90867W        W59197  44.434  20.264   3.674
90868W        W59198  41.816  12.668   2.732
90869W        W59199  41.008  41.986   0.913
90870W        W59200  20.654   7.695  11.508
90871W        W59201   7.716  10.241  12.904
90872W        W59202   3.248  40.811   4.713
90873W        W59203  20.033  25.004  13.822
90874W        W59204  32.531  38.412  10.556
90875W        W59205  34.383  37.412  10.890
90876W        W59206  14.708  20.643   2.846
90877W        W59207  36.843  17.685  10.538
90878W        W59208  16.629   3.908  11.575
90879W        W59209   6.383  14.261  13.818
90880W        W59210   6.238   5.796   2.376
90881W        W59211   1.924  39.023   9.923
90882W        W59212  32.976  41.917  13.983
90883W        W59213  17.666  39.409  14.001
90884W        W59214  29.168  28.059  13.369
90885W        W59215  37.542  36.908  10.569
90886W        W59216  38.923   5.373  10.038
90887W        W59217  24.495  31.997   1.375
90888W        W59218  32.582  29.655  13.828
90889W        W59219  30.631  10.354  13.445
90890W        W59220  28.494  17.728   2.350
90891W        W59221  42.893  11.366   0.916
90892W        W59222   1.261  13.674  11.467
90893W        W59223  23.039  32.611   4.690
90894W        W59224  37.882  21.666   0.477
90895W        W59225  27.512  33.987   2.680
90896W        W59226  22.098  43.969  14.457
90897W        W59227  41.929  25.070  13.518
90898W        W59228   3.325  32.964   0.931
90899W        W59229  29.060  21.033   9.673
90900W        W59230  34.600  41.970  13.495
90901W        W59231  40.870  35.975  13.847
90902W        W59232   3.450  14.749  14.984
90903W        W59233  35.108  39.430  12.011
90904W        W59234  41.883  11.839   1.706
90905W        W59235  30.985  23.195  11.573
90906W        W59236   3.755  26.970   4.669
90907W        W59237  40.831   2.959  10.926
90908W        W59238  31.939  22.242   5.576
90909W        W59239  26.607  37.909  12.468
90910W        W59240  43.788  42.968   1.441
90911W        W59241  33.619  21.606  11.553
90912W        W59242  34.514  33.613  10.494
90913W        W59243  27.661  18.062  11.960
90914W        W59244   4.940   7.755  13.347
90915W        W59245  28.544  20.579   1.373
90916W        W59246  44.939  40.957   3.184
90917W        W59247  40.018   8.269   1.832
90918W        W59248  31.970   9.226   4.225
90919W        W59249  38.375  22.245   3.763
90920W        W59250  38.480  25.105  10.595
90921W        W59251   0.778  27.691   4.690
90922W        W59252  40.528  34.868   3.378
90923W        W59253  38.859  21.625  11.937
90924W        W59254  35.460   0.938  12.442
90925W        W59255  34.988  13.783   0.742
90926W        W59256  20.199   6.343   4.305
90927W        W59257  36.441  16.184   4.207
90928W        W59258  16.752  34.535   0.422
90929W        W59259  34.059  24.609  13.985
90930W        W59260  13.220  13.236   0.449
90931W        W59261   9.316  32.492  12.040
90932W        W59262   3.224  37.908  11.040
90933W        W59263  38.946   5.786   0.957
90934W        W59264  12.184  13.349  13.819
90935W        W59265  42.509  31.450  12.003
90936W        W59266  16.295  38.864  11.008
90937W        W59267  32.458  44.348   3.839
90938W        W59268   8.798   8.687  10.089
90939W        W59269   7.416  44.318  11.389
90940W        W59270  41.484  16.214  12.468
90941W        W59271  33.609   6.428   5.318
90942W        W59272  30.040  30.639  10.960
90943W        W59273   5.854  44.476  12.458
90944W        W59274  40.905  35.852   2.387
90945W        W59275  13.811  18.160  13.997
90946W        W59276  16.649   6.710   4.698
90947W        W59277  30.539  22.013   0.468
90948W        W59278  35.442  21.066  10.587
90949W        W59279  44.934   5.201  10.996
90950W        W59280  20.037  30.163   4.237
90951W        W59281   9.340  33.532  11.445
90952W        W59282  44.404  13.122  14.897
90953W        W59283   1.377  41.792  10.907
90954W        W59284  35.402  41.976   2.722
90955W        W59285  35.392  10.788  11.034
90956W        W59286  25.552  19.268  12.516
90957W        W59287  40.393   1.907   3.293
90958W        W59288  40.489  23.508  11.386
90959W        W59289  29.032  17.088  10.913
90960W        W59290   6.335  17.231   3.327
90961W        W59291  36.550  18.238  11.093
90962W        W59292   4.434  35.055   1.763
90963W        W59293  31.139   1.962   3.726
90964W        W59294  24.652  31.017  13.496
90965W        W59295  31.600   0.284   0.262
90966W        W59296  15.120  14.288   3.660
90967W        W59297   9.207  27.179  14.901
90968W        W59298   9.264   6.817  13.475
90969W        W59299  25.673  13.643   4.289
90970W        W59300   2.256  11.794  11.880
90971W        W59301  30.494   6.231  13.388
90972W        W59302   5.867  13.662  12.508
90973W        W59303  18.198  19.711   1.222
90974W        W59304  23.151  10.192  10.527
90975W        W59305  43.007  44.804   0.743
90976W        W59306  40.875   5.901  10.570
90977W        W59307  24.495  40.328  12.543
90978W        W59308  30.567  28.139   3.172
90979W        W59309  25.971  44.362   2.716
90980W        W59310  22.507   5.209  13.841
90981W        W59311  37.852   1.931  13.855
90982W        W59312  10.874  11.250  12.830
90983W        W59313   6.391  32.980   3.172
90984W        W59314  40.321  26.994  10.571
90985W        W59315  33.542  33.997  14.309
90986W        W59316  19.207  17.251   4.125
90987W        W59317  37.891  10.783   0.744
90988W        W59318  36.508  21.019   2.200
90989W        W59319  25.157  17.137   2.407
90990W        W59320  24.134  13.261   5.225
90991W        W59321  23.076  26.156  11.472
90992W        W59322   5.361  42.029  11.968
90993W        W59323  20.064  44.780   3.353
90994W        W59324  14.144  17.617  14.857
90995W        W59325   6.906  29.024   2.365
90996W        W59326  17.248  42.008  12.440
90997W        W59327  32.035  29.626  10.644
90998W        W59328  12.747  26.562  10.502
90999W        W59329  13.279  11.819  13.380
91000W        W59330  15.098  10.872   2.382
91001W        W59331  28.593  38.424  14.774
91002W        W59332   7.703   1.417   2.396
91003W        W59333   6.202  16.652   4.635
91004W        W59334  34.913  16.090  10.539
91005W        W59335  28.978  25.596   1.234
91006W        W59336  41.863  42.520   0.901
91007W        W59337  41.441  40.948  13.853
91008W        W59338  14.121  36.383   2.242
91009W        W59339   8.282  38.003  11.007
91010W        W59340  10.348  18.638  10.524
91011W        W59341  14.613   9.155   2.901
91012W        W59342  36.882  16.179  12.905
91013W        W59343  44.341   3.341  13.934
91014W        W59344   1.260  13.651   0.376
91015W        W59345  30.908  24.572  14.904
91016W        W59346  29.000  30.560   2.706
91017W        W59347  42.480   7.721  11.862
91018W        W59348  11.167  33.919   0.796
91019W        W59349  18.651  38.896  11.972
91020W        W59350  28.158  16.160  13.473
91021W        W59351  41.335   3.742   0.811
91022W        W59352  23.568   6.358  11.460
91023W        W59353  24.223  34.008   4.214
91024W        W59354  26.590  15.668  13.993
91025W        W59355  37.478  10.224  11.019
91026W        W59356  16.581  41.822   0.417
91027W        W59357  36.865  22.236  14.379
91028W        W59358  27.530  27.088  10.996
91029W        W59359  11.345  15.789   2.682
91030W        W59360  11.801   8.679   0.458
91031W        W59361  27.516  35.525   0.420
91032W        W59362  31.621  25.668   0.255
91033W        W59363   2.843   5.412   2.830
91034W        W59364  33.602  32.899   2.391
91035W        W59365  36.936  10.380  11.544
91036W        W59366  21.711  15.234   3.273
91037W        W59367   4.374  16.574  11.516
91038W        W59368  12.646  26.183  10.409
91039W        W59369  25.707  13.327   2.889
91040W        W59370  37.055  19.603   3.336
91041W        W59371  37.965  22.623   2.362
91042W        W59372  20.602  18.545   2.803
91043W        W59373   1.894   4.892   1.765
91044W        W59374  33.904   2.282  10.888
91045W        W59375  36.534  34.987  13.003
91046W        W59376  43.980  18.629  12.384
91047W        W59377  17.277  18.230   2.707
91048W        W59378  27.991   0.809  12.074
91049W        W59379  10.350  35.986  11.441
91050W        W59380  29.624   2.943  14.940
91051W        W59381  20.038   5.404   2.798
91052W        W59382  24.650  27.613  11.605
91053W        W59383   5.345   7.768   1.723
91054W        W59384   2.393   5.415   0.380
91055W        W59385   0.335  10.662  13.024
91056W        W59386  20.584  17.308   3.752
91057W        W59387  27.946  29.573  10.972
91058W        W59388  25.569  34.490   1.704
91059W        W59389  40.513  18.578  14.331
91060W        W59390  26.663   0.460  13.934
91061W        W59391  39.362  23.984  13.402
91062W        W59392  17.749  16.249   0.314
91063W        W59393  15.295  33.457  14.331
91064W        W59394   1.934   2.731  12.964
91065W        W59395   2.301  40.836   3.273
91066W        W59396  29.133   5.802  12.346
91067W        W59397  16.625  25.549   0.286
91068W        W59398  35.908   9.869  11.577
91069W        W59399   0.836  40.948   2.408
91070W        W59400   8.662   5.400  10.451
91071W        W59401  11.343  33.101   0.772
91072W        W59402  25.700  37.896   0.389
91073W        W59403  17.223  42.889  13.431
91074W        W59404  38.449  43.277   1.218
91075W        W59405  20.169   3.217  12.444
91076W        W59406   8.853  33.946  11.538
91077W        W59407  27.555  23.133  10.468
91078W        W59408  44.766  32.596  14.405
91079W        W59409  13.273  41.533  11.016
91080W        W59410  32.143  14.588   2.414
91081W        W59411  17.071  22.032   2.337
91082W        W59412  24.652  14.217  14.436
91083W        W59413  32.562  31.442  13.416
91084W        W59414  11.176  13.291  12.398
91085W        W59415  43.480  20.762  13.028
91086W        W59416  40.995  32.890  12.426
91087W        W59417   9.666  11.224  12.981
91088W        W59418  23.729  22.247   1.769
91089W        W59419  41.978  32.088  11.467
91090W        W59420  31.025  39.845  10.583
91091W        W59421  38.021   3.359   3.717
91092W        W59422   5.321  44.764   3.847
91093W        W59423  18.086   2.909  14.950
91094W        W59424  33.033  35.029  11.062
91095W        W59425  38.497  32.455   1.289
91096W        W59426  38.952  32.408  10.964
91097W        W59427   7.262   1.843  12.453
91098W        W59428   7.833  14.824   2.407
91099W        W59429  32.985  26.147  12.358
91100W        W59430  14.103  28.161  14.025
91101W        W59431  40.015  28.115   1.300
91102W        W59432  28.133   5.853   3.816
91103W        W59433  31.477  44.474   1.382
91104W        W59434  35.049   8.286  12.380
91105W        W59435  13.226  35.499  11.092
91106W        W59436  11.818   8.193  11.539
91107W        W59437  42.364  13.242  11.429
91108W        W59438  23.711  20.548  10.515
91109W        W59439   5.752   4.823  13.046
91110W        W59440  23.138  23.088  12.403
91111W        W59441  20.272  44.409   0.741
91112W        W59442  21.077  17.215   9.961
91113W        W59443  16.649  15.227  11.874
91114W        W59444  22.677  18.597   2.180
91115W        W59445  36.973  14.174  10.560
91116W        W59446   4.208  13.772   0.803
91117W        W59447  27.672  36.418  14.953
91118W        W59448  30.032  38.830   2.382
91119W        W59449  37.528  26.015   0.482
91120W        W59450  44.980  25.074  10.562
91121W        W59451  39.445  39.856   0.907
91122W        W59452   9.330  18.619   4.827
91123W        W59453  41.860  18.697   3.677
91124W        W59454  25.682  40.841   1.392
91125W        W59455  40.797  19.760   3.860
91126W        W59456  20.556   4.253  13.331
91127W        W59457   5.778  28.050   2.740
91128W        W59458  44.293  17.686  14.392
91129W        W59459  30.144  42.023   0.746
91130W        W59460  15.205  44.263  11.610
91131W        W59461  11.240  40.032  11.911
91132W        W59462  27.641  27.520  13.913
91133W        W59463  30.639   6.308   3.354
91134W        W59464  21.632  14.788   4.207
91135W        W59465  10.706   9.830   2.204
91136W        W59466  14.647  12.292  12.937
91137W        W59467  14.822  20.660  10.518
91138W        W59468  18.779   9.875   1.294
91139W        W59469   7.200  40.872   4.131
91140W        W59470  32.601  26.191   0.424
91141W        W59471  43.950  10.271  11.011
91142W        W59472  41.295  27.166   2.879
91143W        W59473  17.577  27.973   2.298
91144W        W59474  41.038   4.944   3.301
91145W        W59475  24.594  40.925   3.381
91146W        W59476  12.169  35.020   1.827
91147W        W59477  24.492  38.031   1.794
91148W        W59478  43.808  35.600  12.548
91149W        W59479  43.431   2.393  14.809
91150W        W59480  21.134  17.796   2.280
91151W        W59481  12.647  42.303   0.755
91152W        W59482  23.120  18.281   2.683
91153W        W59483  14.176  25.501  12.907
91154W        W59484   5.426   2.247   0.791
91155W        W59485  40.383  37.085  12.461
91156W        W59486   8.185  33.612   0.290
91157W        W59487  41.020   9.719  11.105
91158W        W59488  33.989  17.201   2.289
91159W        W59489  35.414  27.091   0.355
91160W        W59490  39.988  32.899  11.071
91161W        W59491  13.707   7.176   2.259
91162W        W59492  41.522  33.941   4.834
91163W        W59493  31.104  27.480   3.173
91164W        W59494   4.891  37.367  10.470
91165W        W59495  23.015  22.073  13.834
91166W        W59496   3.387  27.109  13.534
91167W        W59497  20.577  23.196   0.462
91168W        W59498  24.701  36.024   0.475
91169W        W59499  14.690  29.485  10.544
91170W        W59500  11.286  21.740   1.875
91171W        W59501  19.779  42.405  10.528
91172W        W59502   0.493  16.677   3.168
91173W        W59503  30.161  21.161  13.540
91174W        W59504  15.775   7.710  13.861
91175W        W59505  37.387  16.743  14.811
91176W        W59506  21.080   4.392   3.651
91177W        W59507  26.474   5.913   1.919
91178W        W59508  21.224  19.083   3.343
91179W        W59509  43.364   6.752  14.355
91180W        W59510  30.550   1.244   0.368
91181W        W59511  34.469  42.465  10.928
91182W        W59512  32.519  44.782  12.421
91183W        W59513   8.170  14.754  14.490
91184W        W59514  41.967   7.826  11.933
91185W        W59515   2.764  14.171  10.970
91186W        W59516  16.795  30.039  14.834
91187W        W59517  16.079   9.760  10.420
91188W        W59518   7.674  17.126  11.082
91189W        W59519   4.871   6.293   1.414
91190W        W59520   4.920   8.345  14.923
91191W        W59521  17.679  37.994   4.686
91192W        W59522  16.737  10.785  12.078
91193W        W59523  39.529   5.721   0.289
91194W        W59524  42.028  24.082   0.933
91195W        W59525  32.500  32.442  14.368
91196W        W59526  21.058  25.619  11.545
91197W        W59527   8.166  31.530  11.911
91198W        W59528  16.236  36.091  12.345
91199W        W59529  44.933   8.754   3.300
91200W        W59530   0.876  25.104   3.330
91201W        W59531  41.472  16.241  10.416
91202W        W59532  34.117  15.291   0.796
91203W        W59533  40.493  22.237   3.229
91204W        W59534  20.210  10.304  11.537
91205W        W59535  27.562  37.450   3.373
91206W        W59536  36.380  27.189   1.932
91207W        W59537  34.932  35.007   0.338
91208W        W59538   7.758  32.505  14.857
91209W        W59539   5.298   8.380  10.578
91210W        W59540  16.793  29.650   3.264
91211W        W59541   9.329  18.051   2.201
91212W        W59542   1.327  19.644  11.594
91213W        W59543   2.460   1.358   0.457
91214W        W59544  12.206  26.488  12.933
91215W        W59545  22.250   6.922   0.948
91216W        W59546   0.947  16.594  14.917
91217W        W59547   4.758  29.514  14.836
91218W        W59548  34.023  27.188  12.373
91219W        W59549  17.767  23.558  12.340
91220W        W59550  17.658   9.820  11.081
91221W        W59551  38.063  20.669  12.889
91222W        W59552  14.716  22.675  12.512
91223W        W59553  36.398  20.054  14.448
91224W        W59554  36.577   1.738   3.860
91225W        W59555  37.022  36.994   2.183
91226W        W59556  44.387  38.383  11.983
91227W        W59557  30.632  31.923   4.750
91228W        W59558   2.267  27.061  14.940
91229W        W59559  30.603  23.001  13.489
91230W        W59560  27.678   1.316  11.880
91231W        W59561   0.309  13.836   2.230
91232W        W59562  16.782  35.502  11.390
91233W        W59563  24.143  43.984   4.612
91234W        W59564   6.714  19.564  12.513
91235W        W59565  13.188  23.525   3.652
91236W        W59566  34.490  12.286  13.523
91237W        W59567  27.477  21.203  11.971
91238W        W59568  18.155  27.974   2.846
91239W        W59569  24.214  17.579   1.864
91240W        W59570  21.120  38.509   3.242
91241W        W59571  24.031  44.500   2.713
91242W        W59572  36.035   1.866  11.117
91243W        W59573  42.337   0.850  13.882
91244W        W59574  32.008  24.977  14.892
91245W        W59575  15.329  20.658   1.281
91246W        W59576  14.678  11.821  10.491
91247W        W59577  13.635  17.190   2.191
91248W        W59578  38.350  44.854   1.250
91249W        W59579   2.863  33.118   2.401
91250W        W59580  35.510   1.361   0.822
91251W        W59581  25.170  25.578  11.888
91252W        W59582  41.467  18.747   2.887
91253W        W59583  26.131  24.187  11.022
91254W        W59584   6.915  30.040  12.063
91255W        W59585  29.941  21.742   9.927
91256W        W59586  34.386  24.216  12.880
91257W        W59587   7.851  10.697  10.912
91258W        W59588  19.551  22.229   4.207
91259W        W59589  43.880   9.278  12.044
91260W        W59590  15.096   9.720   2.242
91261W        W59591  41.792  35.484   3.793
91262W        W59592  41.814  26.577   3.862
91263W        W59593  33.588  43.300   3.344
91264W        W59594  43.451  24.593  13.529
91265W        W59595  22.672   8.752  10.147
91266W        W59596  36.890   8.355  12.466
91267W        W59597  40.980   0.462   2.702
91268W        W59598  31.542  21.743  13.411
91269W        W59599   1.437   9.325  12.557
91270W        W59600  24.551  44.785   3.169
91271W        W59601   9.189  34.378  12.570
91272W        W59602  28.177   5.878   3.314
91273W        W59603  13.834  41.348  10.966
91274W        W59604  38.995   5.281  11.449
91275W        W59605  34.032  41.447   2.845
91276W        W59606  36.551  13.600  13.057
91277W        W59607   4.923  29.637   4.630
91278W        W59608  17.184  11.144  14.877
91279W        W59609   7.373   6.806   4.282
91280W        W59610  30.964   0.752  10.089
91281W        W59611  30.580  38.945   1.760
91282W        W59612  29.625   8.277  12.910
91283W        W59613  23.736   9.292   0.766
91284W        W59614  15.680  31.533   4.125
91285W        W59615  33.066  13.722  14.303
91286W        W59616  37.375   4.746   0.772
91287W        W59617  43.279  21.231  11.525
91288W        W59618  27.508  12.322  12.453
91289W        W59619  31.408  36.451  10.612
91290W        W59620  10.867  36.980   0.959
91291W        W59621  12.313  25.535   1.767
91292W        W59622   3.859  29.122  10.436
91293W        W59623  21.100  16.248   0.849
91294W        W59624  27.014  35.441   2.334
91295W        W59625  13.222   1.420  12.480
91296W        W59626  35.507  25.668   1.348
91297W        W59627  26.569   8.200  11.056
91298W        W59628  34.572  40.009  10.470
91299W        W59629  35.052  12.619  14.999
91300W        W59630  41.794  12.639  12.969
91301W        W59631  16.112  19.599   3.850
91302W        W59632  33.440  19.154  14.446
91303W        W59633  32.974  15.297   0.899
91304W        W59634  23.099  16.602   3.667
91305W        W59635  44.810  29.567  14.990
91306W        W59636  37.852  28.175  14.917
91307W        W59637   3.233   9.358   4.622
91308W        W59638  10.355  22.155   3.673
91309W        W59639  42.918   0.821   1.740
91310W        W59640  12.118  26.499   3.767
91311W        W59641  18.758  41.031   3.804
91312W        W59642  22.143  12.612   4.619
91313W        W59643  40.016  12.350  13.874
91314W        W59644  42.515  26.622   2.252
91315W        W59645  17.226  35.520  10.048
91316W        W59646  15.271   3.318  13.475
91317W        W59647  23.637  17.089   0.423
91318W        W59648   8.789  20.753  11.476
91319W        W59649  43.006   7.674   2.314
91320W        W59650  26.022  35.582   0.929
91321W        W59651  37.549   0.774   2.840
91322W        W59652  17.583   6.734  13.866
91323W        W59653  27.613  33.618  11.028
91324W        W59654  15.306  19.189  14.957
91325W        W59655  24.202  24.703   4.819
91326W        W59656  16.740  13.351  10.995
91327W        W59657  39.917  14.623  11.575
91328W        W59658  10.225  35.546   4.129
91329W        W59659  42.302   6.249   2.673
91330W        W59660  21.739  13.823   2.678
91331W        W59661  35.853  23.504   2.201
91332W        W59662   9.358  15.234   0.753
91333W        W59663  28.101  30.027  10.944
91334W        W59664  26.002  36.414  10.493
91335W        W59665  27.998  43.373  10.891
91336W        W59666  14.103  22.217   0.457
91337W        W59667  12.787  29.017  12.091
91338W        W59668  15.819  20.540  14.454
91339W        W59669  28.023  20.262   2.404
91340W        W59670  44.296  19.623   2.751
91341W        W59671   6.913   1.893   4.629
91342W        W59672  10.346  20.728  13.035
91343W        W59673  18.781  26.150   3.783
91344W        W59674  13.217  32.476   4.637
91345W        W59675  33.061  43.278   4.645
91346W        W59676  36.970  29.492   1.873
91347W        W59677   3.371  21.238  10.042
91348W        W59678  32.003   7.340  11.544
91349W        W59679  33.421  39.887   0.295
91350W        W59680  13.840   1.910   4.627
91351W        W59681  21.743   8.280   4.322
91352W        W59682  34.384   3.709  12.833
91353W        W59683   4.288  15.119  14.816
91354W        W59684  33.612  15.766   1.338
91355W        W59685   7.352  11.194  12.453
91356W        W59686   1.472   1.329  13.542
91357W        W59687   7.212  19.278  10.950
91358W        W59688  38.977  29.163   3.768
91359W        W59689  43.882  18.585   2.305
91360W        W59690   9.332  39.437  11.029
91361W        W59691  11.772   2.948  13.989
91362W        W59692  31.001   7.858   4.649
91363W        W59693   9.774  15.685  11.907
91364W        W59694  17.099  21.048   3.306
91365W        W59695  37.854  19.040   0.428
91366W        W59696  41.019   5.751   2.333
91367W        W59697  18.171  31.502  10.478
91368W        W59698   7.698  26.140  14.356
91369W        W59699   9.844  38.893  13.438
91370W        W59700  19.264  15.680  12.954
91371W        W59701  13.829   6.362   2.292
91372W        W59702  35.959  29.089   0.820
91373W        W59703  11.719  39.934   1.227
91374W        W59704   6.393  25.179  10.075
91375W        W59705   9.300  24.007   3.311
91376W        W59706  30.064  27.180  14.395
91377W        W59707  42.796  28.566  11.463
91378W        W59708  18.173  15.780  14.278
91379W        W59709   0.891  37.343  13.985
91380W        W59710  30.018   4.323   3.212
91381W        W59711  31.443  13.328  10.989
91382W        W59712  14.194  15.172   0.798
91383W        W59713  15.290  42.446   0.807
91384W        W59714  25.079  28.658  14.010
91385W        W59715  27.668  40.518   4.650
91386W        W59716  35.944  42.813  12.896
91387W        W59717  30.620  36.021   3.337
91388W        W59718   1.366  40.313   4.354
91389W        W59719  27.124  27.684  14.978
91390W        W59720  31.417  36.515   4.163
91391W        W59721   5.764   9.786  14.997
91392W        W59722   1.755  43.887   1.324
91393W        W59723   6.408  25.145   0.748
91394W        W59724  33.510  42.953  13.808
91395W        W59725  40.887  43.879   0.268
91396W        W59726  27.555   7.216  11.068
91397W        W59727  27.961  14.148  10.146
91398W        W59728   0.925  13.199   3.155
91399W        W59729  22.072   9.297  10.158
91400W        W59730  44.491  22.501  10.436
91401W        W59731  24.102  19.573  12.904
91402W        W59732  26.681  18.627   3.186
91403W        W59733  11.801  22.514   4.182
91404W        W59734  18.558  33.114  12.017
91405W        W59735  20.668  10.857   3.224
91406W        W59736  41.013  39.551  13.965
91407W        W59737  33.457  11.261   1.912
91408W        W59738  23.573  26.971   0.925
91409W        W59739  43.913  25.601   3.288
91410W        W59740   3.715  22.638  14.448
91411W        W59741  44.938  42.997  14.895
91412W        W59742  24.164  27.458   3.192
91413W        W59743  40.897  14.767   1.446
91414W        W59744  42.416  44.848  12.900
91415W        W59745  11.360  12.135   0.397
91416W        W59746  11.286  26.528  12.901
91417W        W59747   8.720  24.128   0.800
91418W        W59748  16.726  43.901  11.599
91419W        W59749  21.614  27.476   3.685
91420W        W59750  17.066   7.193  13.342
91421W        W59751  17.088  21.130   2.373
91422W        W59752  44.387  23.055  10.934
91423W        W59753  24.182   0.855  11.903
91424W        W59754  11.831  43.458   2.897
91425W        W59755  39.852  12.308   3.157
91426W        W59756  16.670   4.821  12.992
91427W        W59757  28.672  17.205  11.119
91428W        W59758  25.018   4.704  12.929
91429W        W59759  21.138  37.025   4.799
91430W        W59760   8.359  24.494   3.286
91431W        W59761  34.057  28.575  14.009
91432W        W59762  21.039  34.457   3.706
91433W        W59763  21.096  27.580   4.821
91434W        W59764  10.794   4.421  12.983
91435W        W59765  25.687  12.743  13.498
91436W        W59766  18.646  38.865  10.566
91437W        W59767  31.030  27.610  12.540
91438W        W59768  21.708  39.428   0.409
91439W        W59769  15.677   9.732   4.825
91440W        W59770  24.587  37.907  13.903
91441W        W59771  19.065  22.605  13.492
91442W        W59772   8.699  13.309  13.922
91443W        W59773  22.519  36.352   2.225
91444W        W59774  36.992  37.053  14.837
91445W        W59775   0.386  39.478  12.992
91446W        W59776  37.067   0.324  14.447
91447W        W59777  20.178  39.964   1.258
91448W        W59778  10.766  25.038  14.505
91449W        W59779  31.507   4.720   0.392
91450W        W59780  22.670  44.781  10.462
91451W        W59781  33.110  17.702  13.872
91452W        W59782   9.343  10.319  13.343
91453W        W59783  42.299  38.337  14.438
91454W        W59784  31.906  43.963   4.263
91455W        W59785   6.262  22.626  12.916
91456W        W59786  37.901  22.567  13.053
91457W        W59787  38.331  16.146  14.031
91458W        W59788  21.171  18.716   3.384
91459W        W59789  10.237  18.259   4.769
91460W        W59790  17.187  31.467  13.329
91461W        W59791  27.584  31.083  12.498
91462W        W59792  34.449  13.671   3.757
91463W        W59793  21.627  38.505  11.589
91464W        W59794  24.675  41.998   2.198
91465W        W59795  43.500  14.692  11.441
91466W        W59796   3.222   8.799   1.913
91467W        W59797  32.507  12.773  11.066
91468W        W59798  41.878   6.357  13.474
91469W        W59799   0.360  12.618  12.525
91470W        W59800  14.159  26.180  11.499
91471W        W59801  33.529  24.600  11.469
91472W        W59802  20.045  22.198   1.897
91473W        W59803  29.049  29.140   0.297
91474W        W59804   5.848  14.208  11.027
91475W        W59805  21.634   0.766   1.836
91476W        W59806   4.377   6.837  13.055
91477W        W59807   1.400  10.246   0.941
91478W        W59808  27.498  31.126   0.268
91479W        W59809  14.150  11.681  11.522
91480W        W59810   3.433  23.599  10.123
91481W        W59811  12.758  26.952   4.779
91482W        W59812  29.117  32.501  12.540
91483W        W59813  16.688  10.209   4.183
91484W        W59814   2.765  19.053   1.765
91485W        W59815   7.212  35.599  14.880
91486W        W59816  11.247  19.706   2.825
91487W        W59817  18.736  19.234  14.805
91488W        W59818  25.993   6.343  11.963
91489W        W59819   1.924  37.853   3.720
91490W        W59820   6.735  43.825  14.859
91491W        W59821  37.505  34.057  14.464
91492W        W59822  28.619  19.564   4.353
91493W        W59823  39.340  19.202   3.340
91494W        W59824   7.846  21.224   2.279
91495W        W59825   7.267  40.860  12.492
91496W        W59826  24.203  23.122  10.502
91497W        W59827  12.708   6.744   0.762
91498W        W59828  37.440  11.776   3.325
91499W        W59829  21.084  33.391  14.845
91500W        W59830  33.523  39.977  10.933
91501W        W59831  38.527   1.449   0.749
91502W        W59832  11.699  28.538  11.465
91503W        W59833  10.278  17.634  14.846
91504W        W59834  15.710  12.211   1.766
91505W        W59835  43.458  22.095  12.096
91506W        W59836  33.412  29.666   9.998
91507W        W59837  35.414  20.263  13.407
91508W        W59838  23.140  39.560   0.873
91509W        W59839  41.830  22.540  10.622
91510W        W59840  42.396   4.747  12.056
91511W        W59841  13.193  31.417   3.273
91512W        W59842  26.524  40.894  14.955
91513W        W59843  13.192  27.015  12.023
91514W        W59844  36.541  10.182  11.948
91515W        W59845   2.948  10.777  11.558
91516W        W59846  32.496  43.290  14.794
91517W        W59847  19.729  22.252   1.341
91518W        W59848  24.981  42.003  10.483
91519W        W59849   4.898  32.558  11.979
91520W        W59850  27.114  13.229   0.784
91521W        W59851  22.668  21.232  12.924
91522W        W59852  39.853   5.767  12.839
91523W        W59853  21.702  33.904  14.934
91524W        W59854  40.025  40.428   2.365
91525W        W59855  42.377  33.517   0.300
91526W        W59856  41.877  31.999   0.896
91527W        W59857  10.834  21.255  11.035
91528W        W59858  44.822  44.804   2.299
91529W        W59859  18.068  15.750  12.938
91530W        W59860  42.968   0.888  12.936
91531W        W59861  41.997   3.836   2.271
91532W        W59862   7.335  33.518   4.203
91533W        W59863  15.291  21.553  10.639
91534W        W59864   6.333  38.420  13.864
91535W        W59865   9.275  21.172   4.689
91536W        W59866  10.324   7.195   4.835
91537W        W59867   6.725  19.268  12.454
91538W        W59868  22.228  38.948  13.429
91539W        W59869  28.650  12.237   9.656
91540W        W59870  20.068  25.467  14.335
91541W        W59871  42.787   1.788   1.784
91542W        W59872  27.977   5.788  11.932
91543W        W59873  18.625  26.006  11.125
91544W        W59874  10.873  21.072   9.996
91545W        W59875  20.158  10.177  13.478
91546W        W59876  38.999  19.594   3.715
91547W        W59877  16.082  35.083   0.878
91548W        W59878  41.008   7.863   5.715
91549W        W59879  26.469  39.452   1.875
91550W        W59880  36.501  28.049   3.364
91551W        W59881  35.961  22.529   2.320
91552W        W59882   5.252  33.081   1.307
91553W        W59883  32.993  29.018  11.978
91554W        W59884  24.984  33.061  14.017
91555W        W59885  20.110   7.408  12.027
91556W        W59886  28.986   6.895  14.287
91557W        W59887  32.605  25.520  11.531
91558W        W59888  11.236   3.738   0.783
91559W        W59889  12.142   5.199  11.920
91560W        W59890  32.044  20.649   4.296
91561W        W59891  38.868  35.513   2.825
91562W        W59892  15.712  25.997   2.871
91563W        W59893  35.368   9.730   3.691
91564W        W59894  34.931   0.960  12.045
91565W        W59895  19.246  19.561   2.896
91566W        W59896  25.483   6.192  12.444
91567W        W59897  38.359  13.255   4.228
91568W        W59898   0.340  26.487   4.202
91569W        W59899  22.039  21.588  11.587
91570W        W59900   0.806  25.163   2.262
91571W        W59901   9.795  38.831  11.092
91572W        W59902  23.533  13.120   4.711
91573W        W59903   3.218  23.659   3.244
91574W        W59904  33.985  29.510  14.891
91575W        W59905  16.087   8.668  12.401
91576W        W59906  11.240  21.039   5.214
91577W        W59907  44.342  17.695  13.333
91578W        W59908  33.915  13.629  10.466
91579W        W59909  27.689   9.389  10.900
91580W        W59910  23.591  32.044   0.446
91581W        W59911  15.622  34.428   2.282
91582W        W59912  14.152  44.425  13.942
91583W        W59913  22.246  19.684   0.461
91584W        W59914  40.960  14.275  10.502
91585W        W59915  16.174  42.522  11.076
91586W        W59916  33.551  33.459   1.443
91587W        W59917  33.904  15.794   0.254
91588W        W59918  12.213  12.347  11.123
91589W        W59919  19.626   7.333   0.916
91590W        W59920  12.264  39.959   2.352
91591W        W59921  18.737   5.382   3.781
91592W        W59922  33.439   3.867  13.881
91593W        W59923   2.823   2.390  14.917
91594W        W59924  27.657  21.724  12.002
91595W        W59925  22.726   8.256  10.076
91596W        W59926  13.218  38.355  12.412
91597W        W59927  16.092   4.932   4.201
91598W        W59928  12.327  19.553   5.286
91599W        W59929  35.922  23.496   4.756
91600W        W59930   3.902   8.186   3.364
91601W        W59931  36.967  39.364  13.796
91602W        W59932  43.802   8.813  13.307
91603W        W59933  33.486   4.280  13.040
91604W        W59934  25.173  36.417  10.459
91605W        W59935  10.869   1.956   1.810
91606W        W59936  12.154  11.333   2.347
91607W        W59937   8.243  12.706  10.489
91608W        W59938   4.341  19.104   4.713
91609W        W59939  29.516  34.594   3.257
91610W        W59940  27.557  19.697   4.605
91611W        W59941   6.920  34.573   4.183
91612W        W59942  29.146  39.385   4.732
91613W        W59943   7.882  25.512  13.538
91614W        W59944  34.061  31.910   0.263
91615W        W59945   7.282  20.140   2.362
91616W        W59946  10.640  14.146   2.278
91617W        W59947  23.175   8.253  11.417
91618W        W59948  11.799  33.903  13.444
91619W        W59949  17.245  12.341  13.326
91620W        W59950  41.532  25.196   4.208
91621W        W59951  35.989   1.925  10.619
91622W        W59952   5.911  16.253  10.556
91623W        W59953  40.333  16.143  14.473
91624W        W59954  23.136  27.007   0.943
91625W        W59955  32.491   3.398  10.915
91626W        W59956   7.770   2.259   1.440
91627W        W59957  25.514   2.382   3.179
91628W        W59958  13.175   8.343   4.789
91629W        W59959  27.564  13.737   4.344
91630W        W59960   9.880  33.918   4.339
91631W        W59961   4.715  17.209   3.865
91632W        W59962  16.249  38.400   1.346
91633W        W59963  38.350  18.621   4.781
91634W        W59964   7.882  35.961  12.845
91635W        W59965  14.202   9.704   2.705
91636W        W59966   2.749   0.463   4.190
91637W        W59967  10.228   4.255  12.571
91638W        W59968  21.102   5.853   0.394
91639W        W59969   5.306  17.243  11.584
91640W        W59970   7.262  36.901  13.969
91641W        W59971  12.710   5.775   4.743
91642W        W59972  19.172  43.000  12.569
91643W        W59973  12.265   0.254  14.361
91644W        W59974  38.490  35.420   4.800
91645W        W59975  43.783  20.660  14.021
91646W        W59976  18.172  34.520   1.441
91647W        W59977   7.792   7.800  11.412
91648W        W59978  14.241   9.286  12.429
91649W        W59979   1.872   2.250  10.577
91650W        W59980  35.055   2.329  14.359
91651W        W59981  42.358  43.825  14.784
91652W        W59982   4.311  23.193  11.507
91653W        W59983  23.100  19.634  11.886
91654W        W59984  30.484  36.884  13.829
91655W        W59985  30.429   2.264   0.245
91656W        W59986   3.380  10.336  14.990
91657W        W59987  22.163  40.841   2.807
91658W        W59988  35.067   0.829  11.381
91659W        W59989  14.158  38.954  11.082
91660W        W59990  38.461   5.887   0.912
91661W        W59991   7.173  32.077   1.413
91662W        W59992  41.455  35.941   3.271
91663W        W59993  21.600   0.905   4.606
91664W        W59994   4.802   6.700   3.203
91665W        W59995  18.104  30.426  12.950
91666W        W59996  44.964  26.159  13.338
91667W        W59997  26.051  10.700  10.159
91668W        W59998  16.582  41.032   2.839
91669W        W59999   4.444  14.816   0.836
91670W        W60000  36.037  14.105   4.689
91671W        W60001  36.450  15.153   2.886
91672W        W60002  13.187  18.163  12.366
91673W        W60003   9.704  39.943   4.138
91674W        W60004  26.605  36.985  10.557
91675W        W60005   2.279  32.407   0.890
91676W        W60006  36.929  10.808  14.356
91677W        W60007  18.278   3.303   2.193
91678W        W60008  24.580  33.925  12.857
91679W        W60009  27.962  36.405  11.104
91680W        W60010  32.436  40.830  13.528
91681W        W60011  39.032   5.789  12.432
91682W        W60012  24.179  28.498  12.377
91683W        W60013  28.457   8.879  11.122
91684W        W60014  35.971  31.598  14.975
91685W        W60015  26.472  23.068  13.452
91686W        W60016  39.057  24.093  12.431
91687W        W60017   2.320  30.921  13.796
91688W        W60018  12.279  21.585   0.762
91689W        W60019   5.336  42.512  12.553
91690W        W60020  20.678  40.920   3.777
91691W        W60021  41.882  41.978   2.262
91692W        W60022  14.211  12.166  11.882
91693W        W60023  21.612   9.869   1.700
91694W        W60024  24.006  37.357   2.857
91695W        W60025  33.505  27.062   4.209
91696W        W60026  29.068  43.471   2.259
91697W        W60027   7.331  40.513  12.566
91698W        W60028  30.136  42.282  11.070
91699W        W60029  25.625  32.012  14.811
91700W        W60030  10.187  17.576   1.897
91701W        W60031   5.737  14.791   4.626
91702W        W60032  43.380  32.024   9.920
91703W        W60033  12.844   4.314   4.712
91704W        W60034   3.386  17.787   0.813
91705W        W60035  29.115  31.526  14.984
91706W        W60036  33.466  16.145  10.989
91707W        W60037  24.548  18.077   0.372
91708W        W60038  20.747  34.897   1.414
91709W        W60039  40.515  28.034  10.617
91710W        W60040  21.562  41.403  14.852
91711W        W60041  28.648  10.265  11.956
91712W        W60042  36.974  27.541  14.767
91713W        W60043   8.859  39.985   2.356
91714W        W60044  39.442   8.660  13.503
91715W        W60045  29.077   6.746   1.709
91716W        W60046  41.986  39.366  12.971
91717W        W60047   4.719  35.983   4.648
91718W        W60048  34.612  17.157   2.815
91719W        W60049  11.838  27.570  11.466
91720W        W60050   9.331  21.165  10.943
91721W        W60051  19.617  38.956  14.330
91722W        W60052  43.329  44.341  11.965
91723W        W60053  30.035  38.420  10.910
91724W        W60054   7.845  33.450   1.790
91725W        W60055  35.025  15.195   1.370
91726W        W60056   4.444  26.551  11.424
91727W        W60057  10.689  40.985  10.632
91728W        W60058  33.393  28.988   2.895
91729W        W60059  11.297  30.573   3.788
91730W        W60060  43.289  19.224   4.721
91731W        W60061  35.536  18.667  14.845
91732W        W60062  24.514  37.003   0.423
91733W        W60063  22.739  24.647  12.345
91734W        W60064  31.946   6.217   5.168
91735W        W60065  14.129  12.782  13.370
91736W        W60066  30.618  34.470   2.847
91737W        W60067   1.244  20.039   3.289
91738W        W60068   1.284  24.712  10.556
91739W        W60069   8.354  20.265  11.975
91740W        W60070  26.689  16.211  10.481
91741W        W60071  10.786  14.170  11.958
91742W        W60072  31.991  18.650   1.834
91743W        W60073  14.113  35.372   3.247
91744W        W60074  15.620  13.260  12.344
91745W        W60075   1.756   5.834   2.208
91746W        W60076  17.158  40.967  13.388
91747W        W60077  31.498  26.542   5.099
91748W        W60078  32.003  41.031  12.488
91749W        W60079  39.449  41.804  11.471
91750W        W60080  16.630  30.958  12.072
91751W        W60081  36.590  42.301   2.845
91752W        W60082  24.482  39.538   4.350
91753W        W60083  37.417  37.389   3.832
91754W        W60084  25.642  39.537  13.473
91755W        W60085  30.159  19.549   4.349
91756W        W60086   2.227  34.919  12.510
91757W        W60087  37.514  32.000   2.403
91758W        W60088  41.462  24.687   1.735
91759W        W60089   4.857  26.976   1.789
91760W        W60090  16.612  32.508   4.317
91761W        W60091  13.781   4.802   3.168
91762W        W60092  14.722  24.680  14.336
91763W        W60093  35.903   6.393  13.059
91764W        W60094   2.750  22.165  13.469
91765W        W60095  22.665  36.489  14.860
91766W        W60096  23.556  24.710   2.875
91767W        W60097   2.330  38.422   4.745
91768W        W60098  43.818  12.661  12.012
91769W        W60099  44.398  33.965  11.406
91770W        W60100   0.963   8.858  13.995
91771W        W60101   0.406   5.236  11.081
91772W        W60102  37.963  14.303  11.535
91773W        W60103  14.627  17.639  13.920
91774W        W60104  16.688  18.581  10.536
91775W        W60105  28.518  31.614   0.893
91776W        W60106  42.502  35.025   1.221
91777W        W60107  26.985   9.819  12.466
91778W        W60108  22.618  31.023  14.817
91779W        W60109  24.648  27.052   1.275
91780W        W60110  28.069  20.094  14.029
91781W        W60111   0.896  41.796  11.061
91782W        W60112   0.281  20.768  13.528
91783W        W60113  30.121  44.324   1.257
91784W        W60114  31.637  35.055   4.314
91785W        W60115  30.034  44.975  10.425
91786W        W60116   4.745   9.275  13.491
91787W        W60117   8.800  30.035  12.975
91788W        W60118  14.610  40.366   2.742
91789W        W60119  21.665  36.896   0.745
91790W        W60120  25.994   8.666  11.084
91791W        W60121  31.102  17.215   1.714
91792W        W60122  21.074   7.328  12.412
91793W        W60123  44.760  44.440  14.356
91794W        W60124  28.631  35.040  12.354
91795W        W60125  25.151  36.010   1.371
91796W        W60126  19.543  35.950   1.264
91797W        W60127  15.186  24.045   4.811
91798W        W60128  13.672  29.983  13.060
91799W        W60129   1.916  11.817   3.762
91800W        W60130  37.382  10.703  11.408
91801W        W60131  18.296   9.240   2.338
91802W        W60132   2.359  36.555   2.670
91803W        W60133   8.216  25.063   1.892
91804W        W60134  13.142  11.801  11.080
91805W        W60135  16.610  24.617  14.902
91806W        W60136  24.655  12.619   3.694
91807W        W60137   3.232   7.738   0.738
91808W        W60138   8.900  39.929  14.371
91809W        W60139  15.755  15.248   5.213
91810W        W60140   3.293  27.580   3.386
91811W        W60141  38.341  27.946   3.217
91812W        W60142   8.865  44.832  12.519
91813W        W60143  16.088  27.063   0.906
91814W        W60144  24.143  36.034   1.840
91815W        W60145  35.601  15.752   1.866
91816W        W60146  14.290  13.810   0.400
91817W        W60147  23.612  35.050  14.394
91818W        W60148  10.321  39.545   2.295
91819W        W60149   0.389  30.061  14.341
91820W        W60150  11.137   5.396  14.480
91821W        W60151   5.270  41.449   2.356
91822W        W60152   5.248   7.733   1.307
91823W        W60153  37.913  17.708   2.676
91824W        W60154  36.897  32.042   1.930
91825W        W60155  24.983  37.855   1.806
91826W        W60156   4.851  29.007  13.806
91827W        W60157   8.397  37.548   3.744
91828W        W60158   1.284  33.950  10.474
91829W        W60159  15.805  29.156  12.985
91830W        W60160   6.275  15.713   0.320
91831W        W60161   5.729  16.193   1.266
91832W        W60162  16.686  29.105   2.730
91833W        W60163  35.388  27.997  10.480
91834W        W60164  38.374  28.054   4.654
91835W        W60165  41.988   9.837  12.357
91836W        W60166  43.972   1.414   3.738
91837W        W60167  23.099   9.180   5.702
91838W        W60168  10.791  42.507   2.184
91839W        W60169  14.640  20.141  12.960
91840W        W60170  28.539   3.226   3.297
91841W        W60171  40.422  26.105  13.805
91842W        W60172   7.346   8.668   3.809
91843W        W60173  16.633  25.524   3.282
91844W        W60174  22.070   7.229  13.884
91845W        W60175  24.692  18.213  13.841
91846W        W60176  21.688  39.930   0.817
91847W        W60177  16.757   3.279   2.298
91848W        W60178   2.386  34.395  12.914
91849W        W60179  29.492  33.618   1.723
91850W        W60180  41.370  30.946   2.890
91851W        W60181  11.645  31.913   2.721
91852W        W60182   6.394  26.195  11.126
91853W        W60183  26.624  19.714   4.629
91854W        W60184  44.425   4.412  13.348
91855W        W60185  27.180  30.929  12.548
91856W        W60186  31.140  43.338  10.422
91857W        W60187  29.497  26.509   3.173
91858W        W60188  43.488  32.429   3.181
91859W        W60189  44.409   7.415  11.570
91860W        W60190  34.379  31.983  12.026
91861W        W60191  42.491  43.794   0.368
91862W        W60192  40.464  23.630   3.708
91863W        W60193   2.735  39.021  11.569
91864W        W60194  33.427  44.753  11.881
91865W        W60195  39.431   0.825   3.768
91866W        W60196   0.760  42.382   3.267
91867W        W60197  26.545  30.547  13.050
91868W        W60198  17.221  24.112  14.983
91869W        W60199   5.722   6.310  11.446
91870W        W60200  21.215  12.330  14.311
91871W        W60201  16.078   3.345  13.928
91872W        W60202   8.679  12.783  14.340
91873W        W60203  16.270  10.180  10.446
91874W        W60204  39.552  20.547  12.017
91875W        W60205  31.546  43.371  12.081
91876W        W60206  44.371  28.469  11.588
91877W        W60207  28.626  18.551   3.161
91878W        W60208  27.956   8.227  13.432
91879W        W60209  37.462   5.895  13.942
91880W        W60210   3.748  21.188   0.823
91881W        W60211  21.187  24.037  14.806
91882W        W60212  20.206  30.444  13.419
91883W        W60213  26.203  44.331  11.604
91884W        W60214  43.864  32.034   2.887
91885W        W60215  41.495  37.438  11.044
91886W        W60216  40.539   9.330   5.222
91887W        W60217   2.299   8.270   1.894
91888W        W60218  26.965   3.717   0.795
91889W        W60219  12.134  17.618   4.153
91890W        W60220  27.164  18.644  12.533
91891W        W60221   3.460  20.689   4.653
91892W        W60222   3.775   3.298  14.936
91893W        W60223  11.270  15.725   2.237
91894W        W60224  32.445  27.032  14.488
91895W        W60225  13.122  14.205   0.366
91896W        W60226  11.152  44.803   4.248
91897W        W60227  26.684  39.417  12.374
91898W        W60228  15.156   7.732  11.052
91899W        W60229  33.944  43.272   1.766
91900W        W60230  13.281   9.276   1.914
91901W        W60231   7.171  44.485   2.295
91902W        W60232  33.626  25.688   0.755
91903W        W60233  11.221  34.883  12.482
91904W        W60234  31.504   7.749   3.356
91905W        W60235  21.737  23.537  14.846
91906W        W60236  16.101   0.779  12.091
91907W        W60237  40.984   9.216   2.249
91908W        W60238  31.902  29.175   3.164
91909W        W60239   2.784  31.464   1.881
91910W        W60240  17.641  35.084  11.453
91911W        W60241  11.738  35.490  13.393
91912W        W60242  38.507   5.762  11.993
91913W        W60243  42.333  14.797   2.719
91914W        W60244  36.527   8.746   4.737
91915W        W60245  33.511  41.884  11.450
91916W        W60246  34.954  44.765   2.318
91917W        W60247  29.557   7.689  14.868
91918W        W60248  31.137  37.377   3.834
91919W        W60249  40.806  36.912   2.720
91920W        W60250   5.321  16.240  10.541
91921W        W60251  41.371  31.436  12.410
91922W        W60252  30.984  28.016   2.237
91923W        W60253  17.258  24.999   1.316
91924W        W60254  10.867  41.491   1.392
91925W        W60255  38.537  27.574   1.913
91926W        W60256  11.780  35.967  12.423
91927W        W60257   5.871  25.546   3.276
91928W        W60258  20.664  24.619  11.451
91929W        W60259  33.537  12.696  11.481
91930W        W60260  42.972  29.042  11.430
91931W        W60261  35.987  24.151  13.455
91932W        W60262  16.574  21.554  11.947
91933W        W60263  18.065  31.461   4.830
91934W        W60264  23.191  39.847  13.988
91935W        W60265  24.581  28.618   1.422
91936W        W60266  24.704   4.726  13.494
91937W        W60267  11.695  21.561   4.219
91938W        W60268   1.860   0.357  12.966
91939W        W60269   3.911  38.411   0.395
91940W        W60270   0.886  17.627   2.754
91941W        W60271  28.547  33.894  10.923
91942W        W60272  28.609  36.064  14.900
91943W        W60273  20.664  40.398  14.285
91944W        W60274  29.043  35.388  12.479
91945W        W60275  43.415  11.227  14.282
91946W        W60276   6.356  28.065  13.018
91947W        W60277  15.638   0.380  12.539
91948W        W60278   4.308  14.136  14.430
91949W        W60279  14.768  11.851   1.281
91950W        W60280  25.698  43.939   0.805
91951W        W60281  40.478  41.512   3.683
91952W        W60282  36.095  28.178   2.895
91953W        W60283  30.603  16.225   1.321
91954W        W60284  30.114  24.069   4.280
91955W        W60285  25.000  42.373  10.554
91956W        W60286   3.744  21.700   4.284
91957W        W60287  44.447  21.232   4.341
91958W        W60288  32.033  16.105   3.784
91959W        W60289  26.096  12.679  13.037
91960W        W60290   0.903  20.113  12.912
91961W        W60291   5.920  27.574   4.326
91962W        W60292  22.049  26.698   1.822
91963W        W60293  26.694   8.711   3.371
91964W        W60294  10.804   4.727  13.464
91965W        W60295  32.078  39.903  13.860
91966W        W60296  26.569  41.499  12.448
91967W        W60297  44.867  14.243  13.880
91968W        W60298  16.213  34.042  10.526
91969W        W60299   6.732  36.545   2.734
91970W        W60300  23.076  39.833  12.842
91971W        W60301  42.304  36.465   0.847
91972W        W60302  33.605   1.905  12.457
91973W        W60303   4.885  32.065   1.400
91974W        W60304  35.043  26.458   3.301
91975W        W60305  32.484   0.754  10.997
91976W        W60306  16.194  15.616  14.431
91977W        W60307  14.325  28.661  10.943
91978W        W60308  43.447   6.235  10.616
91979W        W60309  19.552  16.631  10.551
91980W        W60310  25.129  25.099  14.413
91981W        W60311  41.508  17.780  12.530
91982W        W60312  20.573  44.762  14.848
91983W        W60313  30.149  43.485  13.059
91984W        W60314  26.653  44.796  12.481
91985W        W60315  43.764  43.960  11.592
91986W        W60316  30.505   8.397  14.817
91987W        W60317  25.670  25.645  13.900
91988W        W60318  20.600   0.394   0.853
91989W        W60319  11.814  28.645   1.394
91990W        W60320  26.515  33.431   4.220
91991W        W60321  28.540  44.764   3.264
91992W        W60322  15.823  44.888   4.243
91993W        W60323  36.913  16.807  12.839
91994W        W60324  23.104  14.621  12.484
91995W        W60325  29.082  11.629  10.541
91996W        W60326   7.781   0.772  13.949
91997W        W60327  36.078  37.036   1.698
91998W        W60328  33.992   2.723  14.897
91999W        W60329   9.311  43.497  10.533
92000W        W60330  21.046  44.963  11.395
92001W        W60331   3.314  18.063  14.803
92002W        W60332   0.311  35.993   1.333
92003W        W60333  43.926  37.441   0.373
92004W        W60334   9.338  31.134  11.006
92005W        W60335  25.090  14.663  13.843
92006W        W60336   4.826  23.526   2.755
92007W        W60337   8.797  13.223   3.754
92008W        W60338   9.389   0.948  10.536
92009W        W60339  21.065  18.581  11.083
92010W        W60340  28.100  11.258  11.506
92011W        W60341  35.045   6.206  14.934
92012W        W60342  15.105   7.795   4.172
92013W        W60343  41.884  18.177  14.486
92014W        W60344  15.190   6.207   2.813
92015W        W60345  41.359   6.768  13.819
92016W        W60346   9.312   5.911  14.387
92017W        W60347  29.600  24.585   2.368
92018W        W60348  28.616  37.402   4.259
92019W        W60349  13.310  34.539   0.424
92020W        W60350  21.616  10.194  13.926
92021W        W60351  13.239   9.739  10.447
92022W        W60352  44.906  27.658  11.975
92023W        W60353   0.764   9.328  13.021
92024W        W60354   0.383  34.519   3.701
92025W        W60355  32.441  14.339   1.291
92026W        W60356  38.465   9.856  10.633
92027W        W60357  36.535   8.831  12.063
92028W        W60358  20.186   4.258  12.077
92029W        W60359   7.239  10.211  11.027
92030W        W60360  23.206   5.254   4.167
92031W        W60361   0.908  31.969   4.151
92032W        W60362   1.966   0.465  12.035
92033W        W60363  32.887  43.939  13.803
92034W        W60364  27.954  34.874   1.250
92035W        W60365   0.371  30.913  11.078
92036W        W60366  29.070  27.957   0.327
92037W        W60367  32.454  31.923   2.899
92038W        W60368   3.269   7.255   0.771
92039W        W60369  14.622  27.125  13.435
92040W        W60370  16.607  24.507   1.363
92041W        W60371  32.073  15.259   4.670
92042W        W60372  35.035   8.271  14.427
92043W        W60373  35.868  30.455   1.792
92044W        W60374   0.800  24.113   4.206
92045W        W60375   5.384  37.387   1.711
92046W        W60376  30.935  35.477   2.233
92047W        W60377  36.410  21.236  14.981
92048W        W60378   9.795  39.340   0.374
92049W        W60379   0.885  30.953   1.280
92050W        W60380  42.980  11.672  11.546
92051W        W60381  14.747  39.513  13.415
92052W        W60382   5.831   9.853   3.675
92053W        W60383  16.569  43.339  10.934
92054W        W60384  10.678  41.411   4.225
92055W        W60385  25.670   5.275  10.578
92056W        W60386  35.597  34.467  14.334
92057W        W60387   0.837  14.710  12.417
92058W        W60388  21.533  24.986  10.633
92059W        W60389  35.469  18.265   0.762
92060W        W60390  44.410   2.742   3.742
92061W        W60391  36.083  32.912  11.448
92062W        W60392  33.875  26.672   5.103
92063W        W60393  10.822  25.649  12.530
92064W        W60394  31.466  14.269  13.910
92065W        W60395  37.041  37.397   3.792
92066W        W60396  20.659  37.851  10.584
92067W        W60397   2.407  20.679   1.814
92068W        W60398  42.433  20.186  11.865
92069W        W60399  43.983  27.174  13.995
92070W        W60400  35.474   6.202   0.799
92071W        W60401  25.040  35.938  13.842
92072W        W60402  16.603  14.786   1.324
92073W        W60403  40.303  44.938   2.364
92074W        W60404  21.712   6.269  14.984
92075W        W60405  28.533   9.213  14.982
92076W        W60406  15.680  14.651  10.404
92077W        W60407  34.521  16.723   4.238
92078W        W60408  11.722  35.572   3.273
92079W        W60409  20.127  14.754   0.435
92080W        W60410  14.693   1.276  11.538
92081W        W60411  25.567  24.076   2.187
92082W        W60412  21.594  44.450  10.447
92083W        W60413  11.822  12.169   1.405
92084W        W60414  36.942   4.389   1.439
92085W        W60415  41.480  43.863   3.635
92086W        W60416  16.312  12.133   4.798
92087W        W60417  41.807  17.760   1.222
92088W        W60418  37.977  14.134   0.478
92089W        W60419   3.865  38.827   1.325
92090W        W60420   0.387  41.900   3.216
92091W        W60421  32.984  41.968  11.527
92092W        W60422  11.693  39.054   9.993
92093W        W60423  22.142  38.504  13.926
92094W        W60424  32.097  32.432   0.345
92095W        W60425  23.150  29.150  11.004
92096W        W60426  27.010   9.255   2.823
92097W        W60427  16.701  23.507  10.417
92098W        W60428  43.903   9.689  11.475
92099W        W60429  36.996  32.971   3.675
92100W        W60430  13.846  19.666   4.706
92101W        W60431  17.587   0.487   3.194
92102W        W60432  20.073  36.030   2.808
92103W        W60433  21.095  15.166   2.730
92104W        W60434  26.661   7.365   4.769
92105W        W60435  18.712  40.831  12.537
92106W        W60436  26.605  36.526   4.677
92107W        W60437  15.718  44.005   0.445
92108W        W60438   0.794  30.520   2.822
92109W        W60439  17.801  10.799  12.488
92110W        W60440  34.047  36.958  11.447
92111W        W60441  24.178  26.668   2.397
92112W        W60442  29.570  20.223  14.364
92113W        W60443  24.538  10.771  13.947
92114W        W60444  33.415  36.516  13.949
92115W        W60445  40.483  33.479   1.866
92116W        W60446  30.023  39.992  13.545
92117W        W60447  32.418  41.992  14.988
92118W        W60448   4.726   2.252  12.974
92119W        W60449   1.963   7.694   3.326
92120W        W60450  15.669   9.283  12.091
92121W        W60451   4.261  25.553   3.287
92122W        W60452  23.675   3.331   3.338
92123W        W60453  43.767  33.114   0.242
92124W        W60454   1.432  33.061   0.266
92125W        W60455  19.240  39.478   3.768
92126W        W60456  43.794   5.710  12.518
92127W        W60457  28.502  31.407  13.450
92128W        W60458  43.302  35.430  13.965
92129W        W60459  38.455  20.204   3.193
92130W        W60460  16.627  23.032  12.450
92131W        W60461   8.830  18.762  12.898
92132W        W60462  38.441  37.844  12.486
92133W        W60463  24.989   1.773  12.053
92134W        W60464  44.353   2.793   0.314
92135W        W60465  11.727  26.484  14.950
92136W        W60466  33.517  40.501   2.700
92137W        W60467  18.598  29.534  12.389
92138W        W60468  38.495  29.976  11.034
92139W        W60469   3.815  36.087  11.463
92140W        W60470  41.451  37.875   1.297
92141W        W60471  16.751  28.955   1.227
92142W        W60472   4.818  20.575  11.995
92143W        W60473  34.875  41.849   0.784
92144W        W60474  38.976  31.554   3.749
92145W        W60475   7.350  40.982   2.722
92146W        W60476  43.474  20.638   4.789
92147W        W60477  31.506  37.832  11.477
92148W        W60478  28.653  17.148  11.966
92149W        W60479  43.355   0.817  13.518
92150W        W60480  17.278  43.300   4.604
92151W        W60481   3.739  40.911  11.526
92152W        W60482  22.183  18.145  10.125
92153W        W60483  29.151  21.241   4.339
92154W        W60484  37.425  30.927  13.867
92155W        W60485  38.534   6.191  14.991
92156W        W60486  32.522  37.912   2.684
92157W        W60487  18.772  13.801  10.531
92158W        W60488  34.922   4.362   4.681
92159W        W60489  41.892  39.419   4.635
92160W        W60490  39.037  13.172  12.096
92161W        W60491  31.071  21.525  13.002
92162W        W60492  29.157  19.753   3.840
92163W        W60493  13.221  33.401  14.511
92164W        W60494  10.760  42.413  12.388
92165W        W60495  37.348  34.382  11.578
92166W        W60496   3.785  16.684   0.860
92167W        W60497  21.242  26.607  11.976
92168W        W60498  10.292  43.311   0.870
92169W        W60499  19.535   4.794  12.953
92170W        W60500  32.095  33.491   4.657
92171W        W60501  35.047  16.645  10.471
92172W        W60502   9.737   1.787  11.546
92173W        W60503  31.522  27.992   4.798
92174W        W60504  28.163   8.659  14.987
92175W        W60505  21.080  36.877  12.559
92176W        W60506  38.069  15.728   0.927
92177W        W60507   4.277  23.560  14.870
92178W        W60508   3.284   6.342  14.847
92179W        W60509   7.714  35.898  10.568
92180W        W60510  37.464  18.631  10.901
92181W        W60511  28.666  42.431  13.315
92182W        W60512  34.614   5.922   4.765
92183W        W60513  26.662  23.084  14.003
92184W        W60514  44.762  10.275   0.270
92185W        W60515  11.727   5.839   0.322
92186W        W60516  39.974  29.513   1.822
92187W        W60517  21.603  21.016   3.804
92188W        W60518  38.013  25.658  11.517
92189W        W60519  36.549  44.439   2.864
92190W        W60520  40.050  31.605  14.902
92191W        W60521  31.983  43.457  10.454
92192W        W60522  41.867   9.370   4.617
92193W        W60523  20.033  43.495  13.386
92194W        W60524  31.481  42.908   2.780
92195W        W60525  43.313   5.339   3.347
92196W        W60526  36.381  32.042   5.170
92197W        W60527  37.421   4.260   0.270
92198W        W60528  41.898  11.860   1.223
92199W        W60529  25.099  40.036   2.761
92200W        W60530   0.836  11.704   3.152
92201W        W60531  16.271  41.813   4.293
92202W        W60532  28.549  27.086   2.755
92203W        W60533  44.000  44.343  10.994
92204W        W60534  26.576  36.364  11.497
92205W        W60535   8.670   0.816  10.926
92206W        W60536  39.038  38.853  12.941
92207W        W60537  10.785   1.735  12.547
92208W        W60538  30.915  30.608   0.324
92209W        W60539  40.478  37.430  14.342
92210W        W60540  44.321  40.532  14.807
92211W        W60541   9.161  26.018  12.019
92212W        W60542  10.247  17.719   2.347
92213W        W60543   1.341  19.730   1.718
92214W        W60544  26.668  21.656  10.472
92215W        W60545   8.365  17.285  14.377
92216W        W60546  14.639  23.085   4.307
92217W        W60547  11.329  31.030   1.780
92218W        W60548  28.586  26.473  10.902
92219W        W60549   4.914  19.647   3.375
92220W        W60550  19.173   1.386   0.258
92221W        W60551  38.016  22.718   2.765
92222W        W60552  39.431  25.033   3.236
92223W        W60553  27.630  33.057   2.815
92224W        W60554  24.981  43.929   2.873
92225W        W60555  42.997  10.383  13.355
92226W        W60556  26.963  27.144   2.243
92227W        W60557   5.412  39.505   2.252
92228W        W60558  41.417  26.135   3.300
92229W        W60559  17.733  36.002  14.947
92230W        W60560   7.258  37.067  13.315
92231W        W60561  13.180  35.445   4.782
92232W        W60562  28.515  15.611   0.374
92233W        W60563   5.263   5.849   1.905
92234W        W60564   6.906  23.147  13.417
92235W        W60565  29.918  33.050  10.488
92236W        W60566  29.470  23.564  11.534
92237W        W60567  38.034  14.632  11.034
92238W        W60568  18.754  38.442  14.497
92239W        W60569   0.761   8.888  14.305
92240W        W60570  12.854  43.515   1.345
92241W        W60571  15.604  41.349   9.969
92242W        W60572  41.452  41.501  11.890
92243W        W60573  31.111  26.092  10.456
92244W        W60574  37.431  42.027   2.284
92245W        W60575  37.059  26.663   5.142
92246W        W60576  39.518  43.789   1.840
92247W        W60577  37.503   2.384   0.267
92248W        W60578   1.872  41.531   0.750
92249W        W60579  22.518  25.565  14.433
92250W        W60580   7.198  40.863   4.664
92251W        W60581  42.870   1.476  12.528
92252W        W60582   7.265   3.294   3.218
92253W        W60583  44.824   1.780  12.459
92254W        W60584   1.904   5.426   4.707
92255W        W60585  17.672   1.236  11.911
92256W        W60586  21.182   9.751  11.611
92257W        W60587  23.587  34.500   2.187
92258W        W60588  40.533   9.837   0.463
92259W        W60589  41.501   8.349   2.306
92260W        W60590   9.392  15.158   2.230
92261W        W60591  18.197  33.593   0.416
92262W        W60592  16.798  34.919   4.136
92263W        W60593  30.420  30.447   2.260
92264W        W60594  10.735  17.165   3.850
92265W        W60595  33.489  26.500   9.924
92266W        W60596  34.990  25.977   2.404
92267W        W60597  14.157   7.350   0.948
92268W        W60598  36.437  10.719  10.523
92269W        W60599  20.274  21.100   0.906
92270W        W60600  42.006  39.892  12.064
92271W        W60601  39.544  34.101  14.848
92272W        W60602  20.164  31.420  13.049
92273W        W60603  33.489  18.183   3.306
92274W        W60604  12.214  36.468  13.888
92275W        W60605  29.620  26.528  13.878
92276W        W60606  21.256  15.635   1.271
92277W        W60607  11.670   8.160  12.430
92278W        W60608  10.266  26.467  13.873
92279W        W60609  25.151  32.018  11.608
92280W        W60610  35.389  27.037  14.784
92281W        W60611   8.658  36.589  10.608
92282W        W60612  14.162   7.389   1.751
92283W        W60613   8.320  43.980   2.235
92284W        W60614  34.063   7.401   3.849
92285W        W60615  13.736  22.151  12.862
92286W        W60616  22.670   7.694   2.188
92287W        W60617  17.670  19.559   1.799
92288W        W60618  44.007  23.219   0.897
92289W        W60619  42.781  23.091  12.534
92290W        W60620  15.757  17.093  14.919
92291W        W60621  12.217  42.799   3.803
92292W        W60622  43.809  11.266   0.896
92293W        W60623  28.604  12.325  13.923
92294W        W60624  31.561  22.133   9.464
92295W        W60625   7.831  43.821   0.810
92296W        W60626  26.683   1.790  10.574
92297W        W60627  26.153  31.420  12.062
92298W        W60628  38.373  31.131  12.426
92299W        W60629  34.099   6.190  14.404
92300W        W60630  33.478  29.577  11.113
92301W        W60631  29.037   8.775   4.612
92302W        W60632  33.450  37.380   5.145
92303W        W60633  27.595  20.187   2.837
92304W        W60634  21.190  16.793   4.753
92305W        W60635  38.537  24.155   3.377
92306W        W60636  32.997   9.767  13.389
92307W        W60637  30.081  32.566  13.043
92308W        W60638  27.122  39.430  13.422
92309W        W60639  36.567  31.933  12.868
92310W        W60640  19.699   7.740  10.547
92311W        W60641  44.947  37.004  13.854
92312W        W60642  28.068  19.673  13.854
92313W        W60643  16.592  12.271  13.898
92314W        W60644   8.211  44.803   2.397
92315W        W60645   0.446  21.719  14.847
92316W        W60646  35.925  39.992  12.571
92317W        W60647  29.035  28.018  12.358
92318W        W60648  19.136  29.476   4.685
92319W        W60649   5.257  40.838  13.414
92320W        W60650  17.606  31.625  12.961
92321W        W60651  23.580  30.921   4.115
92322W        W60652  31.981  36.037  10.962
92323W        W60653  24.102   4.748  12.535
92324W        W60654  17.186   3.926  12.029
92325W        W60655  13.133   6.863   1.818
92326W        W60656  34.454   2.782  10.962
92327W        W60657  33.919  10.162  13.016
92328W        W60658  25.179  10.770  14.508
92329W        W60659  13.835  35.020   4.836
92330W        W60660  12.633  35.918   3.630
92331W        W60661  33.452  14.166   2.315
92332W        W60662  18.589   2.741  10.914
92333W        W60663   6.701   1.923  13.949
92334W        W60664  40.542  28.502   0.897
92335W        W60665  33.563  41.921  12.551
92336W        W60666  21.677  10.727  14.487
92337W        W60667  25.189  26.954   2.750
92338W        W60668  31.094  44.301  10.486
92339W        W60669  24.182  40.414  12.946
92340W        W60670  36.466  12.222   1.362
92341W        W60671  27.657  38.005   4.262
92342W        W60672  33.095  13.618   2.350
92343W        W60673  39.420   1.448  11.579
92344W        W60674  28.181   9.872   2.736
92345W        W60675  29.597  40.904  12.903
92346W        W60676  44.446  17.732  11.947
92347W        W60677  28.981  32.001  14.915
92348W        W60678  20.152  13.154   2.870
92349W        W60679  39.920  31.108  14.446
92350W        W60680  32.085  42.364  12.516
92351W        W60681  37.514  25.502  14.376
92352W        W60682  31.109  25.965  11.059
92353W        W60683  11.372  36.042  13.918
92354W        W60684  19.094  23.147  11.074
92355W        W60685  17.601  26.109  14.858
92356W        W60686  29.540  27.108   1.321
92357W        W60687  28.948  38.455  10.906
92358W        W60688  27.147  11.222  14.925
92359W        W60689   3.851  22.725   4.757
92360W        W60690  21.069  36.049   3.349
92361W        W60691   7.346  33.453  12.039
92362W        W60692   4.754  12.291   0.836
92363W        W60693  36.575  43.864   4.628
92364W        W60694  17.752  14.764   0.790
92365W        W60695  35.559  18.078  14.811
92366W        W60696  26.527  12.177  14.823
92367W        W60697  24.158  24.556   0.319
92368W        W60698  24.541  44.941  10.930
92369W        W60699  37.463  26.106  13.497
92370W        W60700  22.725   9.293  11.122
92371W        W60701   4.293  13.149   2.818
92372W        W60702  15.299  23.134  13.995
92373W        W60703  32.616   3.304   4.117
92374W        W60704  35.048  35.383   2.831
92375W        W60705  32.559   0.931   3.780
92376W        W60706  22.580  17.067   1.429
92377W        W60707   0.296  32.541  13.915
92378W        W60708   5.795  37.963  12.015
92379W        W60709  33.451  25.076  11.570
92380W        W60710   3.348   4.717   4.288
92381W        W60711  36.424   1.755  13.373
92382W        W60712  24.644  10.787  11.012
92383W        W60713  40.375  31.980   3.212
92384W        W60714  29.947  25.111  14.765
92385W        W60715  35.550  30.034  13.877
92386W        W60716  35.079  19.734  12.425
92387W        W60717  28.129   4.450   4.318
92388W        W60718  31.443  23.662   0.364
92389W        W60719  36.571   0.813  12.838
92390W        W60720  13.762  42.307  12.939
92391W        W60721  27.626  12.308   0.426
92392W        W60722   0.420  24.084   1.292
92393W        W60723  36.985  14.157   1.434
92394W        W60724  22.629  20.760  12.375
92395W        W60725  41.932  18.685   2.711
92396W        W60726   0.378  42.376   2.223
92397W        W60727  23.123  24.607   4.244
92398W        W60728  34.373  16.687  12.840
92399W        W60729  26.954  18.247   1.761
92400W        W60730  35.551  32.576   0.790
92401W        W60731  41.508  40.336   5.208
92402W        W60732  44.933   5.352   2.355
92403W        W60733  16.262  22.721   3.380
92404W        W60734   6.759  30.967  12.031
92405W        W60735  42.526  16.723   3.643
92406W        W60736  15.616  27.066  10.418
92407W        W60737  14.643  12.183   2.708
92408W        W60738  22.680  30.483  10.626
92409W        W60739  24.516  38.954  11.444
92410W        W60740   5.261  43.291  12.961
92411W        W60741  35.535  40.308   4.673
92412W        W60742   7.679  22.645   2.749
92413W        W60743  20.205   2.922   2.691
92414W        W60744  23.597  25.626   0.259
92415W        W60745   3.446   8.785   3.205
92416W        W60746   2.384  16.251  10.484
92417W        W60747  36.878  23.624  12.446
92418W        W60748  40.416  35.374  13.476
92419W        W60749   9.381  35.520  11.559
92420W        W60750   2.230  25.556  13.486
92421W        W60751  22.191  14.300   4.638
92422W        W60752   2.737  16.255   4.216
92423W        W60753  10.256   8.353  12.346
92424W        W60754  11.751  10.145   4.711
92425W        W60755  23.202   1.950  11.457
92426W        W60756  40.821   8.670   4.223
92427W        W60757  15.790  12.834  13.820
92428W        W60758  16.138   1.749   1.356
92429W        W60759   3.734   8.693  10.626
92430W        W60760  41.827  14.308  12.469
92431W        W60761  22.113  31.456  11.883
92432W        W60762  31.439  42.403  14.410
92433W        W60763  38.074  40.469   2.259
92434W        W60764   7.223   2.435  11.013
92435W        W60765  17.587   4.744   2.328
92436W        W60766  44.319   9.372   2.273
92437W        W60767  20.107  19.683   1.821
92438W        W60768  42.470  16.210   2.712
92439W        W60769  32.392   2.866   1.277
92440W        W60770  35.439  29.129  13.926
92441W        W60771  44.426  17.068  12.951
92442W        W60772   3.440  18.770   3.245
92443W        W60773  37.336  39.553   4.775
92444W        W60774  31.491  18.250  10.513
92445W        W60775  36.998   4.836  14.349
92446W        W60776  21.083  38.028   3.309
92447W        W60777   6.299  18.759   3.819
92448W        W60778  40.346  33.940  14.354
92449W        W60779  15.714  13.326   2.359
92450W        W60780   3.366  27.087   0.857
92451W        W60781  17.711  28.099  11.582
92452W        W60782  29.632  13.269   4.605
92453W        W60783  30.941  18.177  10.530
92454W        W60784  17.767  36.898   5.779
92455W        W60785   2.285  31.031  12.559
92456W        W60786  10.820   9.197  10.426
92457W        W60787  14.767   3.738  13.793
92458W        W60788   4.412  17.776  12.848
92459W        W60789   9.828  38.387  13.330
92460W        W60790   6.920   8.765  10.413
92461W        W60791  32.501  38.381   3.383
92462W        W60792  40.919   7.348   9.545
92463W        W60793   5.269   2.244  14.401
92464W        W60794  27.580  14.215  14.292
92465W        W60795  30.417  22.539  12.358
92466W        W60796  40.818  37.081   4.819
92467W        W60797  44.273  21.627  11.098
92468W        W60798   2.463  39.498   0.243
92469W        W60799  21.084  37.849   2.193
92470W        W60800  13.294  33.466  11.886
92471W        W60801  39.383  20.162   0.269
92472W        W60802   3.808  14.262  10.070
92473W        W60803  14.185  14.662  13.315
92474W        W60804   6.885  41.401  13.363
92475W        W60805   5.260  13.613   1.722
92476W        W60806  40.044  17.724   2.724
92477W        W60807  34.450  16.275  14.480
92478W        W60808  18.715  13.351  14.320
92479W        W60809  29.573  17.272   0.929
92480W        W60810   5.303  16.159  11.990
92481W        W60811  20.738  32.431  11.996
92482W        W60812  43.829  35.077   0.761
92483W        W60813  13.712  20.544  13.003
92484W        W60814  12.305  20.769  14.330
92485W        W60815  30.490  28.536  13.853
92486W        W60816  17.720  44.905  12.514
92487W        W60817  40.946  30.130   2.285
92488W        W60818   9.172  25.035   3.815
92489W        W60819   9.772   4.253  14.324
92490W        W60820  35.405   7.720   2.752
92491W        W60821  32.578  20.583  10.945
92492W        W60822   4.451  40.408  14.822
92493W        W60823  27.169  31.562   2.401
92494W        W60824  20.172  17.743   3.223
92495W        W60825  13.107  37.857  11.011
92496W        W60826  20.099  21.720   3.870
92497W        W60827  25.073  33.104  10.507
92498W        W60828   0.806  24.207  12.441
92499W        W60829  10.220  10.765   0.937
92500W        W60830  34.081  29.047  12.388
92501W        W60831  33.397  26.590   0.309
92502W        W60832  17.298   4.784  12.034
92503W        W60833  26.068  14.824   0.743
92504W        W60834  14.154  44.881  10.414
92505W        W60835  11.627  32.113   3.783
92506W        W60836  40.524  12.224  11.499
92507W        W60837  21.168  26.471  12.472
92508W        W60838  28.464  24.220   2.894
92509W        W60839  19.727   2.234   2.245
92510W        W60840   6.389  27.081   1.265
92511W        W60841  23.001  19.112   3.373
92512W        W60842  23.632  22.687  13.819
92513W        W60843  32.094  15.325   0.287
92514W        W60844  32.488  36.003  14.975
92515W        W60845   1.888  38.865   5.577
92516W        W60846  27.514  31.910  11.092
92517W        W60847  18.058   9.293  12.568
92518W        W60848  35.044  16.627  12.916
92519W        W60849  11.723  33.605   0.484
92520W        W60850   5.908  25.011  11.902
92521W        W60851  42.525   1.863   2.878
92522W        W60852  27.690  40.475   0.769
92523W        W60853  22.719   7.899   4.149
92524W        W60854  35.010  34.052   0.759
92525W        W60855  42.319  40.018   2.284
92526W        W60856   3.826  16.301   0.935
92527W        W60857   3.371   2.263   4.816
92528W        W60858  29.444  11.843  14.868
92529W        W60859  20.160   6.832   1.424
92530W        W60860  26.009  21.729   0.772
92531W        W60861   8.200  22.175   2.770
92532W        W60862   3.806  43.952   3.241
92533W        W60863  30.543  16.566  12.436
92534W        W60864   2.336  26.958   3.653
92535W        W60865  39.919  44.400  13.888
92536W        W60866  28.993  15.679   3.280
92537W        W60867  42.940  22.113  13.848
92538W        W60868  34.519   9.247  10.913
92539W        W60869  30.030  20.141  14.460
92540W        W60870  34.902  38.849  11.885
92541W        W60871   5.431  28.573   4.818
92542W        W60872  10.870  19.667  10.931
92543W        W60873  25.208  21.191  14.946
92544W        W60874  21.144   6.685  13.862
92545W        W60875  24.663   0.264  12.978
92546W        W60876  38.490  41.840   2.181
92547W        W60877  40.438  34.462   0.800
92548W        W60878  26.564  40.823  13.456
92549W        W60879   7.407   0.945   0.793
92550W        W60880  29.662  20.201   4.729
92551W        W60881  20.638   9.851   4.708
92552W        W60882   3.797  10.781  11.964
92553W        W60883  36.581  37.084  12.996
92554W        W60884  17.614  34.899   2.732
92555W        W60885  26.182  15.649  14.991
92556W        W60886  26.154  16.174   1.322
92557W        W60887  12.287  40.820  12.025
92558W        W60888  36.465  20.664   4.634
92559W        W60889  12.765  42.999  14.025
92560W        W60890  38.543   3.393  11.394
92561W        W60891  38.003  24.676  12.456
92562W        W60892   7.777  13.249  13.332
92563W        W60893  29.443  36.530  14.326
92564W        W60894  11.722  36.069   1.376
92565W        W60895  12.178  33.962  13.899
92566W        W60896  10.665   2.967   1.435
92567W        W60897  43.508  30.124  11.956
92568W        W60898  16.709  13.656  13.802
92569W        W60899  43.502  11.790  10.566
92570W        W60900   9.281  30.950   4.134
92571W        W60901  26.967  21.076   3.818
92572W        W60902  33.112  24.692   3.665
92573W        W60903  28.607   4.710  10.494
92574W        W60904  26.668  44.276  14.475
92575W        W60905   1.916  27.511  12.543
92576W        W60906  39.508  13.606   0.938
92577W        W60907  18.753  17.591  14.869
92578W        W60908  12.684   3.950   5.105
92579W        W60909  37.342  17.248  14.322
92580W        W60910  32.024  30.966  12.906
92581W        W60911  32.079  42.332  13.832
92582W        W60912  25.635  36.476   2.841
92583W        W60913  19.757  13.842  13.973
92584W        W60914   1.760  34.046  11.944
92585W        W60915  37.470   5.844  14.416
92586W        W60916   1.940  15.611   3.664
92587W        W60917   2.966  40.328   3.379
92588W        W60918  34.522   1.356   2.241
92589W        W60919  38.440  43.334  11.885
92590W        W60920  34.584  39.999   1.268
92591W        W60921   1.757   9.172  11.058
92592W        W60922  14.322  22.232   1.383
92593W        W60923  28.106   6.784  11.027
92594W        W60924  39.031  43.272  14.797
92595W        W60925   8.346  12.227  13.391
92596W        W60926  20.656  13.129   2.682
92597W        W60927  10.296  16.271   2.830
92598W        W60928   3.432  26.103  11.969
92599W        W60929  21.599  10.149  11.956
92600W        W60930   6.310  12.631   9.953
92601W        W60931   0.914  16.239  12.488
92602W        W60932   2.860  25.597   4.834
92603W        W60933  21.257  14.294   1.228
92604W        W60934  11.137   5.383   0.271
92605W        W60935   6.324  26.021   0.787
92606W        W60936  19.075  25.042   5.207
92607W        W60937  35.589  42.416  14.438
92608W        W60938  17.597  16.130  12.432
92609W        W60939   3.276  36.031   1.758
92610W        W60940  22.630  13.703   0.359
92611W        W60941  27.474  31.053  12.929
92612W        W60942  31.062  44.364  11.578
92613W        W60943   1.829  28.995   0.390
92614W        W60944  33.404  36.403   3.763
92615W        W60945  37.424  33.933   3.372
92616W        W60946  36.947   5.290   0.423
92617W        W60947  26.976  19.061  12.052
92618W        W60948  37.545  44.988  14.790
92619W        W60949  36.455  21.095  10.427
92620W        W60950  41.929   7.195  11.593
92621W        W60951  43.768  29.086   2.357
92622W        W60952  33.014   5.268  11.539
92623W        W60953  12.658  37.916  14.988
92624W        W60954   6.385  10.194   4.787
92625W        W60955  20.260  31.122  12.935
92626W        W60956  24.991  40.932  14.323
92627W        W60957  31.530  27.028   4.317
92628W        W60958  38.855  40.520   4.246
92629W        W60959  38.540  26.075  10.560
92630W        W60960   6.407   9.692   2.825
92631W        W60961  22.120   5.193  14.301
92632W        W60962  10.742  39.368   4.805
92633W        W60963  25.608  40.548  13.316
92634W        W60964  14.793   0.935   3.164
92635W        W60965  17.158  29.641   2.879
92636W        W60966  27.691  32.564   0.790
92637W        W60967  36.010  35.949  14.300
92638W        W60968  35.022  42.482  12.523
92639W        W60969  17.232   5.914  11.121
92640W        W60970   5.418   6.826  10.928
92641W        W60971  28.604  44.925   4.152
92642W        W60972  25.155  42.025   0.872
92643W        W60973  24.184   7.341  10.543
92644W        W60974  33.466  43.400   4.231
92645W        W60975  13.265  32.116   0.839
92646W        W60976  41.902  25.617  11.966
92647W        W60977   0.933  36.992   4.225
92648W        W60978  18.782  31.958  13.969
92649W        W60979  13.310  34.932  10.498
92650W        W60980  13.608  39.005  10.516
92651W        W60981  25.587   1.914   2.270
92652W        W60982  41.895  28.138   0.953
92653W        W60983   7.351   5.810  11.994
92654W        W60984  15.792  27.181  14.493
92655W        W60985  29.008  11.222  10.475
92656W        W60986  31.530  12.320  10.947
92657W        W60987  12.832  39.878  11.040
92658W        W60988  31.066  25.216  11.027
92659W        W60989  17.174  38.490  11.373
92660W        W60990  24.011  34.488  13.062
92661W        W60991  36.952  15.671   2.418
92662W        W60992  29.951   7.386   1.334
92663W        W60993   9.871  21.150   2.773
92664W        W60994  43.305  29.108   0.804
92665W        W60995   8.282  24.146  14.421
92666W        W60996  27.087  13.623   1.311
92667W        W60997   3.308  13.290   2.303
92668W        W60998  25.976  14.657  13.880
92669W        W60999  17.182  44.773   0.335
92670W        W61000  13.170  29.604   2.758
92671W        W61001  40.330   7.775  13.847
92672W        W61002  39.345  15.205   2.224
92673W        W61003  37.532  32.932   1.822
92674W        W61004  28.619  38.450   0.331
92675W        W61005  14.205  30.079  11.501
92676W        W61006  33.543  33.599  12.576
92677W        W61007   0.945  43.450   4.225
92678W        W61008  17.141   2.726  14.808
92679W        W61009  38.418  23.173   0.295
92680W        W61010  40.493   9.711   3.806
92681W        W61011  38.429  13.617  14.408
92682W        W61012  11.356  30.084   3.720
92683W        W61013  19.084  18.625   0.781
92684W        W61014  35.065  16.222   3.213
92685W        W61015  26.561  23.621  14.511
92686W        W61016   7.208  41.505   2.783
92687W        W61017   2.764  30.482   1.710
92688W        W61018  27.028  12.350  12.933
92689W        W61019   6.211  33.105   4.700
92690W        W61020  44.383  34.111   2.815
92691W        W61021  30.652  27.192   2.340
92692W        W61022  20.722  25.621  12.932
92693W        W61023  11.293  42.305  14.947
92694W        W61024  19.114   7.394  14.354
92695W        W61025  28.128  36.898  10.593
92696W        W61026   2.347  23.656   1.798
92697W        W61027  11.850   5.259  13.877
92698W        W61028  29.972   7.857   3.179
92699W        W61029  27.158  21.512  12.880
92700W        W61030   3.824  42.319   4.139
92701W        W61031  35.902  23.645  12.362
92702W        W61032  21.226  31.914  11.522
92703W        W61033  15.686  19.708  11.988
92704W        W61034  36.010   2.888   1.282
92705W        W61035  27.641  15.113  10.482
92706W        W61036  29.448  31.424  11.079
92707W        W61037  30.952  22.532  13.527
92708W        W61038  14.633  20.625  13.038
92709W        W61039  40.512  13.691  11.583
92710W        W61040  22.060  20.707  14.349
92711W        W61041  16.297   7.307   1.872
92712W        W61042  31.493  12.227   3.299
92713W        W61043   1.265  12.163   2.679
92714W        W61044   6.394   6.218   2.256
92715W        W61045   4.788   0.440  13.822
92716W        W61046  27.002  14.109  11.054
92717W        W61047   1.321  31.578  11.013
92718W        W61048  14.315  37.052   3.809
92719W        W61049  38.908  32.021  12.388
92720W        W61050  24.621  34.582   1.435
92721W        W61051  24.708  40.804  10.478
92722W        W61052  32.939  18.780   0.869
92723W        W61053  24.522  28.035   0.308
92724W        W61054  14.124  22.628  13.967
92725W        W61055  27.147  11.334  11.893
92726W        W61056  25.109  26.593  10.478
92727W        W61057  11.626  15.089  11.548
92728W        W61058  42.925  36.523   3.241
92729W        W61059  34.570  14.143  14.305
92730W        W61060  24.501  20.151   4.136
92731W        W61061  30.916  22.203   3.692
92732W        W61062  18.564   7.772   3.643
92733W        W61063  11.757  42.509   2.409
92734W        W61064  20.042  25.698  10.439
92735W        W61065  21.600  14.102  11.577
92736W        W61066  39.388   2.452   3.263
92737W        W61067  30.094  38.026   2.835
92738W        W61068  12.309   8.868  12.495
92739W        W61069   8.753  16.691   1.318
92740W        W61070   4.937   1.812   3.851
92741W        W61071  35.549  24.075  12.469
92742W        W61072  25.567  16.733  13.795
92743W        W61073   6.419  10.199  14.376
92744W        W61074  15.705   7.766  13.022
92745W        W61075  13.680  21.179   3.640
92746W        W61076  29.608   6.720  13.015
92747W        W61077  19.256  32.907  11.517
92748W        W61078  24.998  42.327   2.267
92749W        W61079  23.189  29.501   1.353
92750W        W61080   6.353   5.353   2.670
92751W        W61081  16.099  12.267   4.226
92752W        W61082  23.179  40.933   1.256
92753W        W61083  41.825  31.989  10.138
92754W        W61084  29.618  34.880  13.062
92755W        W61085  36.997   8.712   0.940
92756W        W61086   2.382  24.054  10.477
92757W        W61087  24.722  22.006   2.695
92758W        W61088  16.075  18.633  12.970
92759W        W61089   9.657  38.008  13.406
92760W        W61090  35.426  24.519  13.882
92761W        W61091  22.544  20.206   0.433
92762W        W61092   6.343  27.164   2.880
92763W        W61093   0.259   1.238   4.281
92764W        W61094  11.179  36.988   4.122
92765W        W61095  21.142  13.674   3.855
92766W        W61096  36.867  16.733  11.570
92767W        W61097   0.839   4.385  12.928
92768W        W61098   6.231  28.986   0.772
92769W        W61099  44.483  37.928   1.750
92770W        W61100  40.862   4.739   1.883
92771W        W61101  28.173  27.554  13.987
92772W        W61102   5.843  14.787   3.834
92773W        W61103   8.358  20.640   2.396
92774W        W61104   5.263   7.289  11.001
92775W        W61105  18.573  40.431   2.319
92776W        W61106   5.212  18.162   0.382
92777W        W61107   3.403  37.015  11.082
92778W        W61108  13.782  26.526  12.940
92779W        W61109  35.523  11.750  14.302
92780W        W61110  18.072   3.896  10.547
92781W        W61111  42.348   3.925  14.324
92782W        W61112  20.074  15.231   3.208
92783W        W61113   0.866  32.531   0.766
92784W        W61114   8.245  22.737   4.138
92785W        W61115  32.906   4.709   0.460
92786W        W61116   9.862  30.059  11.553
92787W        W61117  28.471  35.497  13.999
92788W        W61118  32.559  44.440  10.438
92789W        W61119  11.144   2.352  10.965
92790W        W61120   5.865  12.294   3.160
92791W        W61121  41.322   1.250  14.773
92792W        W61122  36.502  44.929  13.861
92793W        W61123  26.516  10.370  10.471
92794W        W61124   9.755  32.072   1.255
92795W        W61125  43.773   7.314  11.393
92796W        W61126  21.563   7.381   1.737
92797W        W61127  44.450   7.770  13.317
92798W        W61128  18.697   6.701  12.554
92799W        W61129  25.974   8.838   3.343
92800W        W61130   2.471   5.740   2.895
92801W        W61131  41.943  14.187   0.279
92802W        W61132  44.347   5.386   1.911
92803W        W61133   9.645  37.851  10.585
92804W        W61134  32.978  30.426  10.565
92805W        W61135  17.760   3.729  12.344
92806W        W61136  19.705  34.055  11.450
92807W        W61137   4.304  26.504  12.413
92808W        W61138  22.009  12.825   1.338
92809W        W61139  42.872  12.758  12.918
92810W        W61140  37.842  31.995   4.740
92811W        W61141   8.859  12.845   2.679
92812W        W61142  40.426  19.669  11.424
92813W        W61143   3.452  40.834  14.511
92814W        W61144  16.678  23.201   5.294
92815W        W61145  43.803   1.374  10.500
92816W        W61146   0.459  20.040  12.350
92817W        W61147  22.242  15.785  11.375
92818W        W61148  36.062  29.585   4.722
92819W        W61149  24.116  42.311  12.453
92820W        W61150   2.764  29.975   3.166
92821W        W61151  20.748   7.175  11.973
92822W        W61152  23.575   3.870  11.092
92823W        W61153   8.807   0.474   0.739
92824W        W61154  31.584  11.640  10.508
92825W        W61155   5.347  26.055  14.803
92826W        W61156  37.874  40.888   3.661
92827W        W61157   5.252  22.165  13.521
92828W        W61158  22.530  24.635   1.733
92829W        W61159   6.755  31.440   0.354
92830W        W61160  33.568  14.306   4.758
92831W        W61161   0.762  12.247   1.240
92832W        W61162  34.060  21.239   3.320
92833W        W61163  21.125  34.563   4.269
92834W        W61164  14.122  26.481  12.533
92835W        W61165   8.679   4.401   3.332
92836W        W61166   7.276  25.002  11.965
92837W        W61167  20.109  29.539   0.863
92838W        W61168  41.356   7.691   2.685
92839W        W61169  22.024  35.094  13.511
92840W        W61170   1.786  31.589   1.289
92841W        W61171  11.699  15.699  10.590
92842W        W61172  27.097  35.458  13.928
92843W        W61173  32.136  25.621  14.845
92844W        W61174   3.328  44.344   3.319
92845W        W61175   8.372   3.447  11.415
92846W        W61176  30.149  13.169  13.899
92847W        W61177   5.780  19.729   1.843
92848W        W61178  40.319   3.881   1.396
92849W        W61179   2.393  28.107   2.664
92850W        W61180  34.962  41.935   1.892
92851W        W61181  22.626   9.682   2.221
92852W        W61182  33.961  44.857  13.995
92853W        W61183  11.709  18.607   3.291
92854W        W61184  12.136  39.502   4.678
92855W        W61185  32.114   8.763  12.081
92856W        W61186  32.511  38.021  11.489
92857W        W61187   9.882  36.541  12.538
92858W        W61188  17.061   3.783   4.600
92859W        W61189  29.491  20.091  10.517
92860W        W61190  35.443  40.816  14.867
92861W        W61191  33.114  23.229  12.867
92862W        W61192  37.049  22.541  13.412
92863W        W61193   9.192  12.646   4.746
92864W        W61194   5.214   7.280  13.340
92865W        W61195  34.078   0.277  13.948
92866W        W61196  23.224  38.820   0.410
92867W        W61197  15.814  17.753   0.271
92868W        W61198  17.190  23.515  14.357
92869W        W61199  24.583   7.707  11.394
92870W        W61200  26.958   5.298  11.868
92871W        W61201   8.231  12.174  11.475
92872W        W61202   8.882  25.643  14.000
92873W        W61203   2.336  43.862  10.902
92874W        W61204  40.009  30.542  12.569
92875W        W61205   6.354  24.145   0.820
92876W        W61206  24.199   5.351   4.823
92877W        W61207   5.698  31.071  14.315
92878W        W61208   2.900  12.842  14.417
92879W        W61209  24.989  28.513   2.289
92880W        W61210  35.094  10.139   4.273
92881W        W61211  20.182  42.018  14.869
92882W        W61212  24.523  37.049   1.237
92883W        W61213  13.622   9.669  11.883
92884W        W61214   1.255  37.042   5.771
92885W        W61215  18.787   2.842   4.244
92886W        W61216   9.175  39.458   2.221
92887W        W61217   5.256  37.042   0.953
92888W        W61218  33.543  23.721   2.408
92889W        W61219   6.296  14.227  10.924
92890W        W61220  43.473  28.539  12.436
92891W        W61221   0.940  28.100   2.710
92892W        W61222  33.076  39.849  13.448
92893W        W61223  23.144  10.183   4.822
92894W        W61224  42.833   3.768  10.559
92895W        W61225  12.204  29.573  13.989
92896W        W61226  25.035   5.827   4.747
92897W        W61227  34.459  32.987   1.377
92898W        W61228   6.842  42.374   1.383
92899W        W61229  41.521  24.518   2.672
92900W        W61230   2.789   5.731   0.302
92901W        W61231  37.988  16.784   0.430
92902W        W61232   3.739  10.322   3.840
92903W        W61233  17.228   2.381  14.947
92904W        W61234  35.410  44.273   0.362
92905W        W61235  26.136  22.081   4.242
92906W        W61236  43.894  26.114   0.419
92907W        W61237  10.690  41.879  10.913
92908W        W61238  14.773  36.539  11.401
92909W        W61239   0.917  21.665   0.961
92910W        W61240  24.620  11.156   4.328
92911W        W61241  18.597  16.146   3.297
92912W        W61242  25.036  43.318   1.419
92913W        W61243   2.899  37.362   3.867
92914W        W61244  21.149   7.818   3.349
92915W        W61245   9.322  23.592   1.362
92916W        W61246  23.115  11.849  14.477
92917W        W61247  15.675  39.839  10.472
92918W        W61248  30.436   1.335  10.470
92919W        W61249  11.624   2.226   0.461
92920W        W61250  16.790  30.612  12.870
92921W        W61251  10.321  26.024   4.627
92922W        W61252   6.241  36.549   3.647
92923W        W61253  10.289  24.672   4.613
92924W        W61254  24.691  10.278   1.224
92925W        W61255  12.188  12.847  14.872
92926W        W61256  27.473  24.623   3.171
92927W        W61257  13.139  15.269  11.609
92928W        W61258   7.754  35.409   1.809
92929W        W61259  18.186  31.065  11.862
92930W        W61260   4.834  26.023  10.520
92931W        W61261  40.051   2.832  12.414
92932W        W61262   9.196  30.062   0.740
92933W        W61263  10.197  19.261   1.787
92934W        W61264   0.342  21.596  14.316
92935W        W61265  36.530  27.546  12.059
92936W        W61266  22.666  37.960   2.763
92937W        W61267  13.141  15.122   2.180
92938W        W61268  21.582  28.555   3.799
92939W        W61269  36.000  28.148   4.800
92940W        W61270  29.632  39.477  14.980
92941W        W61271   6.783  14.744   4.341
92942W        W61272  14.178  27.645  13.482
92943W        W61273  23.689  41.329  11.037
92944W        W61274  17.747  39.933  14.861
92945W        W61275  24.490  38.535   3.313
92946W        W61276   3.782   8.175  11.048
92947W        W61277  12.297  23.705  11.002
92948W        W61278   4.329  38.059  11.907
92949W        W61279  29.634  17.632   0.344
92950W        W61280  27.127  41.838  12.031
92951W        W61281  21.036  28.435   9.536
92952W        W61282  43.314  23.570   9.999
92953W        W61283  27.487   8.380  10.962
92954W        W61284  13.197  11.779   0.378
92955W        W61285  18.186   8.672   2.263
92956W        W61286  28.590  18.082   4.334
92957W        W61287   0.988  14.320   1.255
92958W        W61288  19.644   4.721   2.262
92959W        W61289  23.010  10.246  11.030
92960W        W61290  14.596  10.354   1.259
92961W        W61291  10.800  31.547  14.286
92962W        W61292  38.441  33.021   4.737
92963W        W61293  13.617  25.965  14.847
92964W        W61294  12.220  21.566  12.827
92965W        W61295  10.687  20.051   0.248
92966W        W61296  12.820  35.437  10.579
92967W        W61297  13.669  38.885  13.007
92968W        W61298  21.718  27.125   4.340
92969W        W61299  26.957  12.758  11.941
92970W        W61300  17.263  31.074   4.194
92971W        W61301  29.543  19.221  10.468
92972W        W61302  38.850  25.547   1.222
92973W        W61303  27.147  29.558  10.916
92974W        W61304  23.163  44.460  11.069
92975W        W61305  25.605  38.044  12.885
92976W        W61306  32.018  35.959   4.803
92977W        W61307  13.846   8.708  12.482
92978W        W61308  39.380   8.196   4.198
92979W        W61309  28.455  39.046   4.783
92980W        W61310  27.450   5.380   3.641
92981W        W61311   4.787  15.806   3.678
92982W        W61312   3.861  37.992   3.317
92983W        W61313  18.143  41.452   4.304
92984W        W61314  10.205   8.208   2.872
92985W        W61315  28.054  18.272   3.267
92986W        W61316  21.173  20.723  13.496
92987W        W61317  42.398  21.165   1.343
92988W        W61318   6.246   6.232   2.707
92989W        W61319  42.796  40.838  12.026
92990W        W61320  44.276  10.265  13.857
92991W        W61321  15.112   2.943   2.865
92992W        W61322  44.854  27.022   2.179
92993W        W61323  35.021  15.610   0.849
92994W        W61324  28.990  10.282  14.805
92995W        W61325  37.873   9.766   2.777
92996W        W61326  23.034  14.291  12.492
92997W        W61327  21.511  25.525  11.456
92998W        W61328  40.533  27.064  13.391
92999W        W61329  19.724  19.147   5.155
93000W        W61330  43.478  43.477   4.677
93001W        W61331  14.764   1.288   0.482
93002W        W61332  23.539  37.078  14.815
93003W        W61333  30.574   4.280   4.671
93004W        W61334  42.026  32.069   4.709
93005W        W61335  44.492  36.000   2.766
93006W        W61336  24.562  38.973   4.334
93007W        W61337  33.894  35.967   4.635
93008W        W61338  16.620  28.932  14.309
93009W        W61339   0.976  34.066   1.274
93010W        W61340  14.171  28.992   0.887
93011W        W61341  30.469  16.187   1.825
93012W        W61342  36.089  42.815  11.511
93013W        W61343   5.284  23.081   2.340
93014W        W61344  32.020  24.087   2.260
93015W        W61345  16.312  20.070   3.378
93016W        W61346  19.210  32.027  11.537
93017W        W61347   0.254  33.531   1.228
93018W        W61348   9.687  34.562   4.307
93019W        W61349   3.819  10.756   4.835
93020W        W61350  18.214  32.620  10.912
93021W        W61351   1.271  35.581   4.758
93022W        W61352  24.156  36.864  11.439
93023W        W61353  17.792   2.961  13.483
93024W        W61354  24.544  22.153   2.201
93025W        W61355  38.822   9.649   3.806
93026W        W61356  40.047  29.012   3.225
93027W        W61357  42.360  19.739  14.429
93028W        W61358   1.933  18.181  10.588
93029W        W61359  25.972  18.173   1.905
93030W        W61360  37.555  13.337  14.359
93031W        W61361  39.840  13.324  11.910
93032W        W61362  17.635  35.427   4.238
93033W        W61363  22.253  12.763  10.990
93034W        W61364  39.059  33.087   4.335
93035W        W61365  15.738  43.828   2.289
93036W        W61366   7.218   9.704  10.987
93037W        W61367  10.147   6.914  12.844
93038W        W61368  26.128  20.692   4.290
93039W        W61369  19.245  11.858   0.831
93040W        W61370  38.363  35.969  14.432
93041W        W61371  10.709  27.183  12.077
93042W        W61372  29.631  42.975   1.741
93043W        W61373  11.256  36.870  12.947
93044W        W61374  20.606  20.566  11.956
93045W        W61375  42.408  34.052   4.794
93046W        W61376  42.826  19.185   4.215
93047W        W61377  32.032  16.159  14.395
93048W        W61378  16.162  12.208   2.331
93049W        W61379  35.561  33.017  14.379
93050W        W61380  37.564  27.031   4.636
93051W        W61381  15.711  30.085   4.699
93052W        W61382  28.970  12.857  11.452
93053W        W61383  24.032  21.116   1.930
93054W        W61384   4.752  23.031   4.723
93055W        W61385  28.450  14.731   4.238
93056W        W61386  27.560  14.331  11.952
93057W        W61387  17.159  25.108  14.008
93058W        W61388  36.857   3.945  13.333
93059W        W61389   0.955  15.776  13.840
93060W        W61390  31.569   8.867   3.793
93061W        W61391   5.701  42.024   4.318
93062W        W61392  44.283  13.776   0.764
93063W        W61393  33.395   7.696   0.371
93064W        W61394  26.671   3.916  11.384
93065W        W61395  35.922  13.147   3.239
93066W        W61396  15.147  25.192  14.389
93067W        W61397  28.013  41.928  10.408
93068W        W61398  41.389   6.739   4.351
93069W        W61399  18.165  36.439   0.316
93070W        W61400  28.139   6.782  11.525
93071W        W61401  33.483  41.820  12.014
93072W        W61402  12.856   1.773   0.419
93073W        W61403  33.102   8.854  14.939
93074W        W61404  11.130   5.931   2.839
93075W        W61405  23.704  23.616   1.359
93076W        W61406  33.519  23.043  10.476
93077W        W61407   2.371  43.974   0.933
93078W        W61408  19.771  20.700   1.701
93079W        W61409  24.128   9.298  13.029
93080W        W61410  11.168  36.403   1.778
93081W        W61411   2.342  20.611   4.224
93082W        W61412   7.355  17.098   1.353
93083W        W61413  32.399  36.955  12.391
93084W        W61414  10.668  40.045  14.767
93085W        W61415   0.380  31.635   0.435
93086W        W61416   2.443  14.290   2.386
93087W        W61417   9.698   9.796   0.821
93088W        W61418  33.105   9.378   2.848
93089W        W61419  31.032   0.362  12.421
93090W        W61420  22.110   9.244   4.746
93091W        W61421   0.419   3.243  14.384
93092W        W61422  44.824  20.562  11.401
93093W        W61423  34.547  43.507   0.851
93094W        W61424   6.829  22.069  10.425
93095W        W61425  34.452  23.726  14.468
93096W        W61426  29.128  43.391  11.936
93097W        W61427  42.957  36.371  14.766
93098W        W61428  42.789  43.288   4.627
93099W        W61429  18.076  19.551  11.478
93100W        W61430  10.234  15.678   2.379
93101W        W61431  17.636  28.464  11.986
93102W        W61432  12.783   0.964   2.860
93103W        W61433  11.370   1.836   3.185
93104W        W61434  23.520   6.207  12.943
93105W        W61435  28.480  28.985  13.361
93106W        W61436   4.210  18.228  11.975
93107W        W61437  29.512   3.849  14.940
93108W        W61438  40.356   1.430   4.716
93109W        W61439  44.829  13.240  12.876
93110W        W61440  39.401  23.104   4.340
93111W        W61441  39.821  10.657  13.341
93112W        W61442  37.039   4.222  14.475
93113W        W61443  12.334   7.295  11.451
93114W        W61444  29.150  23.718  14.426
93115W        W61445  12.151  42.408  10.928
93116W        W61446  36.378   7.318   0.464
93117W        W61447  26.504   7.399   4.257
93118W        W61448   6.367  37.836  14.992
93119W        W61449   3.900   0.263  11.588
93120W        W61450  40.884  26.021  10.608
93121W        W61451  42.300  12.615  11.991
93122W        W61452   3.732  14.685   2.843
93123W        W61453  27.472  36.475   4.748
93124W        W61454  22.017  11.658  11.423
93125W        W61455   0.927  26.179  13.461
93126W        W61456  19.184  10.171   4.229
93127W        W61457  13.303  44.450  10.624
93128W        W61458  20.768  23.175   3.253
93129W        W61459  43.832  34.950   2.279
93130W        W61460  20.196  36.546  14.304
93131W        W61461  20.536   4.699  11.388
93132W        W61462   4.251  40.801  14.764
93133W        W61463  24.186  40.505   0.298
93134W        W61464  21.717   3.388   4.305
93135W        W61465  38.443   5.319   3.251
93136W        W61466  33.389  23.660  11.860
93137W        W61467   1.775  24.010  11.451
93138W        W61468  14.239  16.692  10.463
93139W        W61469  35.377  27.465   2.903
93140W        W61470  38.839   9.655  10.029
93141W        W61471  33.520  10.766   0.888
93142W        W61472  19.218   6.848   1.424
93143W        W61473  16.633  27.038  13.967
93144W        W61474  23.001  39.316   2.688
93145W        W61475  42.510  34.079  14.354
93146W        W61476  19.632  37.436  12.552
93147W        W61477  15.239   5.408   0.323
93148W        W61478  32.634  19.595   3.157
93149W        W61479   5.760  21.693  12.512
93150W        W61480   1.953  40.896   4.324
93151W        W61481  23.104  36.367  10.404
93152W        W61482   5.326  12.759  13.941
93153W        W61483  37.425  11.258   3.679
93154W        W61484  17.644  41.418  10.622
93155W        W61485  33.093  42.338  12.575
93156W        W61486   4.819  21.239  13.404
93157W        W61487   8.296   9.682  14.845
93158W        W61488  25.486  35.005   3.761
93159W        W61489  22.711  15.179  14.017
93160W        W61490  38.404   1.303  12.482
93161W        W61491   7.797  30.076  13.024
93162W        W61492  13.192  19.672   4.653
93163W        W61493  14.276  31.898   2.845
93164W        W61494  24.663  31.085   4.759
93165W        W61495   0.921  12.143  14.441
93166W        W61496  29.959  21.610  10.957
93167W        W61497  38.392  38.352  10.500
93168W        W61498  42.477   4.357  14.901
93169W        W61499  44.271  23.642  13.818
93170W        W61500  16.191   8.829  11.604
93171W        W61501   0.809  25.682   3.788
93172W        W61502  25.131   7.844   1.412
93173W        W61503  18.131  19.672  12.453
93174W        W61504   6.863  33.453   0.928
93175W        W61505  14.232  24.206  13.928
93176W        W61506  27.571  39.019   0.336
93177W        W61507  30.043  30.512   2.739
93178W        W61508  39.978   9.862  13.047
93179W        W61509  44.310   6.380   1.436
93180W        W61510  10.870  26.581   4.161
93181W        W61511   2.276  43.801   4.807
93182W        W61512   4.275  23.533  11.888
93183W        W61513  29.507   5.824  13.918
93184W        W61514  22.160  23.039  14.388
93185W        W61515  26.081  28.619   0.303
93186W        W61516  37.941  37.067  14.021
93187W        W61517  35.031   0.279   1.320
93188W        W61518  13.675  10.745  10.909
93189W        W61519  37.062  43.418   3.254
93190W        W61520  36.931   3.899   4.730
93191W        W61521   7.837  34.420  13.540
93192W        W61522   8.887  24.678  12.429
93193W        W61523   5.283  42.782   0.298
93194W        W61524   4.381  31.979   4.795
93195W        W61525  22.501  31.553   3.732
93196W        W61526  30.592  10.225   2.219
93197W        W61527  29.050   0.817  11.039
93198W        W61528  13.255  44.858  11.933
93199W        W61529  21.127   1.310   4.337
93200W        W61530  10.640   6.237   0.869
93201W        W61531  23.190   9.827   5.090
93202W        W61532  29.936  27.473   3.763
93203W        W61533  42.292   4.336   1.820
93204W        W61534  40.950  12.192   0.273
93205W        W61535  20.715   4.782   5.248
93206W        W61536  34.097  37.381   0.950
93207W        W61537  26.650  44.864   1.368
93208W        W61538  33.902  36.469   3.766
93209W        W61539  42.516  32.573  12.462
93210W        W61540  44.839  33.886   4.665
93211W        W61541  26.579  28.592   0.760
93212W        W61542  32.620   4.799   4.655
93213W        W61543  20.070  18.121  12.907
93214W        W61544  29.039  32.574  10.582
93215W        W61545  26.697  31.087   4.276
93216W        W61546   1.868  39.057   2.850
93217W        W61547  14.756  29.062  14.362
93218W        W61548  11.173   3.358   0.885
93219W        W61549   8.188  22.668   1.744
93220W        W61550   1.756  38.497   5.667
93221W        W61551  38.441  35.897   1.248
93222W        W61552  16.098   6.771  10.898
93223W        W61553  41.864  37.001   0.952
93224W        W61554  37.346  42.319  11.381
93225W        W61555  43.309  43.849   1.223
93226W        W61556   2.374  12.684  12.557
93227W        W61557  21.169  39.347  12.008
93228W        W61558   0.443  32.506  14.787
93229W        W61559  11.213  39.058   2.313
93230W        W61560  35.964   6.413  13.482
93231W        W61561  35.857  24.670   4.814
93232W        W61562  36.885  10.180  12.580
93233W        W61563  34.508  28.157  14.023
93234W        W61564  11.840   2.233  10.480
93235W        W61565  34.532  18.219  10.425
93236W        W61566  25.036  20.150  14.858
93237W        W61567   3.290   3.249   2.244
93238W        W61568   4.732  24.627   3.263
93239W        W61569  14.599  14.306  14.844
93240W        W61570  29.625  28.081   3.847
93241W        W61571   0.984  11.246   0.870
93242W        W61572  14.602  29.560   1.214
93243W        W61573  42.879  13.114  12.449
93244W        W61574  32.630  37.352   1.271
93245W        W61575   5.421  34.538   1.432
93246W        W61576  14.275  22.719  14.806
93247W        W61577   1.242  29.528   4.811
93248W        W61578  14.126  35.540  12.024
93249W        W61579  17.128  10.748  12.998
93250W        W61580  28.010  27.103  10.604
93251W        W61581  30.535  35.366   2.269
93252W        W61582  35.557  25.711   4.339
93253W        W61583  20.536  25.671   1.387
93254W        W61584  17.687  44.314   2.723
93255W        W61585  41.514  29.489   0.958
93256W        W61586  42.409  18.572   2.246
93257W        W61587  42.985  13.608   3.367
93258W        W61588  35.363  19.643   2.729
93259W        W61589  15.311  10.664  12.824
93260W        W61590  14.229  26.986   0.258
93261W        W61591   7.300  34.942   2.396
93262W        W61592  19.121   3.775  14.345
93263W        W61593   9.327  16.598  14.940
93264W        W61594  32.003  21.228   1.848
93265W        W61595  29.993   2.812  14.004
93266W        W61596  35.099  41.992  12.053
93267W        W61597  18.621  10.793   1.337
93268W        W61598  30.151  26.495   4.266
93269W        W61599   7.268  36.082   0.477
93270W        W61600  28.941  25.570  11.009
93271W        W61601   6.733   1.820   3.368
93272W        W61602  38.062   9.196  13.877
93273W        W61603   5.234   7.389   2.356
93274W        W61604  41.507  28.664   0.243
93275W        W61605   4.267  23.570   3.638
93276W        W61606  40.961  17.691   1.242
93277W        W61607   5.809  38.364  13.985
93278W        W61608  35.588  38.546   3.369
93279W        W61609   3.800   1.964  12.454
93280W        W61610   9.816  32.101  12.440
93281W        W61611  32.026  30.461  11.868
93282W        W61612  13.669  16.264   4.625
93283W        W61613   2.258  31.643   0.957
93284W        W61614  14.321  17.700   4.314
93285W        W61615  29.100  39.535  12.922
93286W        W61616  20.040  44.872  14.489
93287W        W61617  13.345  41.035  14.280
93288W        W61618  38.962   9.208   1.271
93289W        W61619  25.155  33.018  11.598
93290W        W61620   8.232  12.683   0.260
93291W        W61621   5.384   1.331   3.719
93292W        W61622  44.006   8.753  12.412
93293W        W61623  42.307  32.419   3.208
93294W        W61624   5.914   0.313   0.799
93295W        W61625  35.457  34.448   4.183
93296W        W61626   9.652  38.408   4.742
93297W        W61627  13.282  23.043   3.755
93298W        W61628   9.777  29.053   2.843
93299W        W61629  12.796  13.767  10.933
93300W        W61630  40.045   8.362   4.615
93301W        W61631   1.282  31.513  14.343
93302W        W61632   5.207  39.048   0.421
93303W        W61633  40.439  44.888  10.917
93304W        W61634   2.302  18.213  11.461
93305W        W61635   7.404  23.713   0.938
93306W        W61636   3.301   9.201   2.229
93307W        W61637   2.811   4.304  14.332
93308W        W61638  41.986   8.339  10.948
93309W        W61639   3.927  26.609  11.607
93310W        W61640  14.114  25.503  13.439
93311W        W61641   1.838  31.116  14.469
93312W        W61642  44.484  38.394   2.289
93313W        W61643  33.526  43.892  14.003
93314W        W61644   7.410  32.957   0.284
93315W        W61645   0.980  11.147   2.224
93316W        W61646  38.946   1.302  12.883
93317W        W61647  11.631  34.375   1.437
93318W        W61648   1.286  10.819   2.862
93319W        W61649   3.762   0.808  14.866
93320W        W61650   9.152  21.167   3.319
93321W        W61651  18.672  21.581  14.498
93322W        W61652  40.921  29.037  11.906
93323W        W61653  23.074  40.390   3.168
93324W        W61654  10.735  25.018   2.253
93325W        W61655   0.400  28.477   2.209
93326W        W61656   4.829  16.233  12.556
93327W        W61657   0.870  11.698   0.476
93328W        W61658  41.480  42.839  13.466
93329W        W61659  36.366  35.381  13.317
93330W        W61660  32.442  22.134  10.121
93331W        W61661  40.310  14.247  14.474
93332W        W61662  25.018  26.167   3.768
93333W        W61663  40.899   8.249   4.626
93334W        W61664  43.845  20.625   0.329
93335W        W61665  44.370  12.661   2.223
93336W        W61666  40.342  39.993  13.801
93337W        W61667  19.560   6.366  14.420
93338W        W61668  13.729  16.196  11.100
93339W        W61669  43.468   2.786  14.785
93340W        W61670  23.676  40.398   3.758
93341W        W61671  41.393  16.158  12.013
93342W        W61672  18.162  22.664   2.189
93343W        W61673  12.826   7.867  12.879
93344W        W61674  32.418  37.033  10.524
93345W        W61675  34.958  33.116   0.920
93346W        W61676  14.276  26.177  12.431
93347W        W61677  12.666  27.003   3.268
93348W        W61678  35.971  24.593   3.345
93349W        W61679   6.236  41.972   3.350
93350W        W61680  17.197  28.487   0.807
93351W        W61681  23.178  25.549   2.398
93352W        W61682  23.541  22.522  11.606
93353W        W61683  31.114  19.039  10.058
93354W        W61684  33.429  33.426  14.290
93355W        W61685  43.840  26.554  13.895
93356W        W61686  13.773  17.637  10.505
93357W        W61687  26.193  17.781   1.311
93358W        W61688   8.357  39.975  11.499
93359W        W61689   2.829  23.223   0.746
93360W        W61690   3.419  31.110   3.161
93361W        W61691  26.952  18.583  13.935
93362W        W61692  28.665   9.262  13.879
93363W        W61693  24.016  14.678  12.859
93364W        W61694  10.704  42.961   5.235
93365W        W61695  29.456  37.461   1.835
93366W        W61696  39.454  17.731   4.638
93367W        W61697  32.985   8.668   3.235
93368W        W61698   3.873  10.654  12.421
93369W        W61699  42.299   6.863   1.862
93370W        W61700  25.212   8.782   1.220
93371W        W61701  16.742  44.476  13.447
93372W        W61702   8.268  23.726   2.184
93373W        W61703   3.362  38.919  10.614
93374W        W61704  31.633  29.049  13.018
93375W        W61705  15.642  21.031   3.711
93376W        W61706  25.196  20.558   4.349
93377W        W61707  27.950  44.341  11.540
93378W        W61708  40.925   3.362   3.740
93379W        W61709  11.696  26.574   1.905
93380W        W61710  41.314  33.413   1.364
93381W        W61711  12.668   9.318   2.702
93382W        W61712   0.824  13.801  13.449
93383W        W61713  44.996  26.980   3.179
93384W        W61714  13.721  19.095  10.958
93385W        W61715  39.440   5.906  13.887
93386W        W61716  27.505  16.742   4.622
93387W        W61717   7.888   1.768  14.786
93388W        W61718  29.967  11.268  11.952
93389W        W61719  38.018  39.505  13.024
93390W        W61720  13.295  29.156   2.270
93391W        W61721  27.457   7.351  14.781
93392W        W61722  23.125  25.118   4.247
93393W        W61723  39.012  16.703  12.511
93394W        W61724   4.301  41.391  13.860
93395W        W61725   0.896   6.363  13.814
93396W        W61726  12.255  16.698  11.381
93397W        W61727  10.642  42.969  11.036
93398W        W61728  27.454  18.088   4.202
93399W        W61729  11.312  37.993   2.877
93400W        W61730  23.733  44.000   2.236
93401W        W61731  26.562  15.595  10.441
93402W        W61732  14.789  43.270  13.890
93403W        W61733  22.102  37.578   1.329
93404W        W61734   0.407   4.276   4.335
93405W        W61735  38.888  20.058   0.948
93406W        W61736  28.623   6.896  12.892
93407W        W61737  19.270   7.773   2.321
93408W        W61738  43.890  24.150  12.423
93409W        W61739   6.254  21.227   4.246
93410W        W61740   7.722   1.319  12.532
93411W        W61741  10.748  11.311  14.377
93412W        W61742  29.641  24.211  13.967
93413W        W61743  33.459  39.419   0.468
93414W        W61744   0.421  43.375   3.335
93415W        W61745  13.233  28.471  12.448
93416W        W61746  28.130  12.704  10.638
93417W        W61747   0.768  21.752   4.710
93418W        W61748  19.664  43.903  10.563
93419W        W61749  12.801  22.683   0.448
93420W        W61750  26.485  40.421  14.878
93421W        W61751  13.630  14.661  13.969
93422W        W61752  29.949  39.882   4.194
93423W        W61753  40.858  20.051  14.852
93424W        W61754  32.633   4.383  14.920
93425W        W61755  34.468   1.734  13.855
93426W        W61756  21.642  41.307  10.556
93427W        W61757  22.704  38.971  11.903
93428W        W61758  17.696   7.275   2.362
93429W        W61759  35.075  14.216  13.347
93430W        W61760  39.904  21.126   3.630
93431W        W61761   9.660  10.233   0.798
93432W        W61762  20.140  13.328  11.045
93433W        W61763   6.382   9.389  12.937
93434W        W61764  23.234   0.436  10.511
93435W        W61765  17.684  34.055   4.754
93436W        W61766  33.451  26.134   4.799
93437W        W61767  12.135  41.308   0.262
93438W        W61768   4.859  13.244   3.689
93439W        W61769  43.812  41.935  14.027
93440W        W61770  36.534  30.093   2.708
93441W        W61771  20.684   3.263   2.705
93442W        W61772  32.592  42.817  13.527
93443W        W61773   9.272  16.294   4.247
93444W        W61774  43.846   7.215  13.309
93445W        W61775  34.006  19.746   2.690
93446W        W61776   3.295   3.298   0.358
93447W        W61777   4.294  11.663  10.620
93448W        W61778   0.258  22.512  10.983
93449W        W61779  11.202   0.899  10.563
93450W        W61780  15.596  16.262  11.436
93451W        W61781   7.224  43.860   1.228
93452W        W61782  25.109  17.750  14.874
93453W        W61783  13.709  22.123  12.416
93454W        W61784   4.798  32.595   2.233
93455W        W61785  10.641   5.877  12.003
93456W        W61786  16.759  14.831  11.518
93457W        W61787  20.043  29.050  10.120
93458W        W61788  36.964  35.439  12.480
93459W        W61789  29.090  37.924  12.451
93460W        W61790  15.802  34.084  14.922
93461W        W61791  35.003  18.072   0.328
93462W        W61792   5.377  37.025   3.302
93463W        W61793  24.498  30.479   0.816
93464W        W61794  20.694  10.290   5.302
93465W        W61795   1.470  17.592  12.943
93466W        W61796  23.682  28.457   0.850
93467W        W61797  31.969  31.968   2.313
93468W        W61798  36.052   2.752  10.413
93469W        W61799  24.170  27.527  10.529
93470W        W61800  18.567  10.708  14.944
93471W        W61801  25.057  36.491   4.690
93472W        W61802  18.242  43.331   3.343
93473W        W61803  22.731  37.541  12.016
93474W        W61804  30.969  38.016  11.036
93475W        W61805  40.519  10.362  14.504
93476W        W61806  39.362   7.889  14.433
93477W        W61807  10.327   1.359   4.610
93478W        W61808  28.128  12.189   1.866
93479W        W61809  18.242  32.138   0.953
93480W        W61810  19.603   5.318   3.784
93481W        W61811  33.487  19.060  12.007
93482W        W61812  27.036  14.801  13.399
93483W        W61813  24.140  27.111  12.368
93484W        W61814  31.470   6.322  12.994
93485W        W61815  20.597  15.256  10.468
93486W        W61816  33.502  26.155  14.018
93487W        W61817  21.108  28.484   3.644
93488W        W61818   3.864   5.716   0.812
93489W        W61819   1.455   4.399   0.807
93490W        W61820  27.561   3.395   2.751
93491W        W61821  33.467   2.829   0.966
93492W        W61822   4.264  32.935  13.331
93493W        W61823  43.455  40.888   3.792
93494W        W61824  22.540  24.675  12.871
93495W        W61825  42.780  40.014  12.380
93496W        W61826   8.253  22.135  13.952
93497W        W61827  38.349  19.088   1.717
93498W        W61828  24.629  10.852   3.658
93499W        W61829  28.098   8.846  14.319
93500W        W61830   0.478  40.817   4.829
93501W        W61831  33.459  15.222   0.402
93502W        W61832  20.257  31.044  14.413
93503W        W61833  13.683  11.242   1.249
93504W        W61834  11.655   5.359   1.848
93505W        W61835   7.839  14.248  13.396
93506W        W61836   3.269   7.266   4.297
93507W        W61837  32.986  41.423   1.785
93508W        W61838  37.395  28.186   1.428
93509W        W61839  35.039  27.613  14.464
93510W        W61840   0.774  24.990   3.688
93511W        W61841   9.655  24.546  12.390
93512W        W61842  35.050  20.540   1.403
93513W        W61843   0.786  18.695   0.464
93514W        W61844  23.085  35.444   0.801
93515W        W61845  34.926  36.008   4.291
93516W        W61846  35.871  41.988   2.277
93517W        W61847  24.659  20.740   1.270
93518W        W61848   4.724   2.919  14.877
93519W        W61849   0.910  24.111  11.457
93520W        W61850   9.710  14.775  13.921
93521W        W61851  11.137   1.366   3.632
93522W        W61852  36.991  43.276  11.022
93523W        W61853  42.942  14.111  13.399
93524W        W61854  38.361  29.125  14.910
93525W        W61855  43.821  10.236   0.888
93526W        W61856  44.761  31.477   4.232
93527W        W61857   5.893  23.040  14.274
93528W        W61858   4.849  35.889   1.254
93529W        W61859  11.318  39.957  13.404
93530W        W61860  14.258  35.587   9.557
93531W        W61861  22.007   4.358   2.789
93532W        W61862  17.625   8.228   4.817
93533W        W61863  35.076  35.095  10.637
93534W        W61864  17.077  25.556  11.019
93535W        W61865  16.163  23.722  13.956
93536W        W61866  43.878  23.018  11.603
93537W        W61867   5.827  32.078   1.855
93538W        W61868  13.627   4.332  12.483
93539W        W61869   8.333  33.892  11.931
93540W        W61870   5.727  28.055   3.317
93541W        W61871   8.359   4.791   0.735
93542W        W61872  28.438   6.336   4.130
93543W        W61873  23.108  34.606  10.937
93544W        W61874  31.081  20.039   2.392
93545W        W61875  25.101  16.300   2.269
93546W        W61876  41.941  33.069  10.962
93547W        W61877  25.600  31.511  10.905
93548W        W61878  12.145  30.451  13.346
93549W        W61879   1.950   8.342  11.601
93550W        W61880  16.142   5.325  13.846
93551W        W61881  35.961  19.264   4.313
93552W        W61882   8.198  17.689  10.416
93553W        W61883  30.595  10.701  13.030
93554W        W61884   2.891  14.801  13.496
93555W        W61885  19.145   7.783  12.560
93556W        W61886  22.548  29.645  14.405
93557W        W61887  12.829  31.414  13.829
93558W        W61888  25.516  10.766   2.319
93559W        W61889  42.412  22.055  10.582
93560W        W61890  19.044  30.073   4.807
93561W        W61891   1.772  28.941  11.129
93562W        W61892   4.258   6.293   3.233
93563W        W61893  14.180  41.439  10.958
93564W        W61894  18.544  14.827   3.849
93565W        W61895  12.719   6.821   0.382
93566W        W61896  37.582  28.151   2.672
93567W        W61897  39.945   9.691   3.816
93568W        W61898  32.422  14.698   2.701
93569W        W61899  23.015  41.888   1.891
93570W        W61900  23.589  11.668  10.999
93571W        W61901  13.263  28.071   2.855
93572W        W61902  24.225  40.864   0.863
93573W        W61903  27.582   4.280  11.071
93574W        W61904   1.970  10.319   4.685
93575W        W61905  38.562   8.385   3.671
93576W        W61906   6.378  40.807   3.250
93577W        W61907  36.507  26.665   4.286
93578W        W61908  16.227   6.691  12.486
93579W        W61909  36.348   8.809   5.145
93580W        W61910  38.834  20.750   0.440
93581W        W61911   3.930  27.549   4.666
93582W        W61912  14.299  42.484  12.991
93583W        W61913   2.349  24.700  14.864
93584W        W61914  24.584  34.926   1.286
93585W        W61915  18.668  30.013   1.324
93586W        W61916  32.054  40.025   3.744
93587W        W61917  28.572  38.375   3.251
93588W        W61918  21.260  21.564  10.639
93589W        W61919  36.084  12.638  12.859
93590W        W61920   0.360  38.986  13.514
93591W        W61921  43.458  21.235  10.502
93592W        W61922  25.533  27.588  14.432
93593W        W61923  41.948  38.360  14.826
93594W        W61924  41.992  21.226  10.467
93595W        W61925  10.844  44.858   4.620
93596W        W61926  23.584  44.449   4.283
93597W        W61927  35.068  40.967  11.505
93598W        W61928  15.722   6.279  14.892
93599W        W61929  21.536  35.362  14.820
93600W        W61930  26.958  25.492  13.017
93601W        W61931  39.047  26.160   1.771
93602W        W61932  44.324  13.722   3.660
93603W        W61933  23.541  31.598  13.388
93604W        W61934  42.343   9.381  10.549
93605W        W61935  33.525  32.591  12.060
93606W        W61936  40.486   2.962  14.803
93607W        W61937   1.333  44.287  11.480
93608W        W61938  33.071  11.762  12.502
93609W        W61939  13.145  41.893   2.837
93610W        W61940  21.689  41.808  13.906
93611W        W61941  14.213  43.792  10.952
93612W        W61942  28.605  31.645  11.541
93613W        W61943  28.167   4.332  12.373
93614W        W61944  12.203  20.243  10.895
93615W        W61945  39.895  32.987   4.323
93616W        W61946  12.721  38.380  14.810
93617W        W61947   4.874   0.786  14.987
93618W        W61948  16.756  23.513   9.477
93619W        W61949  17.146   2.282  14.479
93620W        W61950  17.700   9.764  12.941
93621W        W61951  40.917  17.701  10.945
93622W        W61952  17.075  29.580   0.363
93623W        W61953  42.958  41.373   2.725
93624W        W61954   4.285  42.783   1.907
93625W        W61955  15.244  15.270  10.612
93626W        W61956  44.368  17.303   0.286
93627W        W61957  15.790   9.795  12.371
93628W        W61958  40.454  40.436  13.966
93629W        W61959  13.727   2.266   1.701
93630W        W61960  27.028  10.825  10.466
93631W        W61961  35.489  12.737  11.915
93632W        W61962   5.288   1.825   3.668
93633W        W61963   1.256  35.873  14.839
93634W        W61964   8.250  43.852   2.684
93635W        W61965  36.926   0.803   1.742
93636W        W61966  41.848  21.261  12.847
93637W        W61967   2.945  34.613  10.573
93638W        W61968  35.975  36.891   0.277
93639W        W61969   8.205   0.982   1.447
93640W        W61970  29.084   5.324   2.398
93641W        W61971   6.248   9.825   0.738
93642W        W61972  27.657  13.737   0.400
93643W        W61973  37.998  17.613  11.083
93644W        W61974  18.589  43.308  12.939
93645W        W61975   7.381   3.811  11.112
93646W        W61976  29.954  35.919   4.658
93647W        W61977   4.866  17.081   2.268
93648W        W61978  24.046  21.077   0.764
93649W        W61979  30.503  36.902   3.805
93650W        W61980  33.406  41.526  10.092
93651W        W61981   4.383  43.358  13.961
93652W        W61982  44.900  42.361   3.190
93653W        W61983  14.775  23.998   1.787
93654W        W61984  30.044   5.718  14.842
93655W        W61985  39.912  41.015   1.781
93656W        W61986  41.888  36.886  13.982
93657W        W61987  34.911  24.501   1.331
93658W        W61988  22.640  31.077  13.404
93659W        W61989  21.527   0.460  11.995
93660W        W61990  18.619   3.293  10.060
93661W        W61991  40.933   7.788   1.264
93662W        W61992   1.840   6.246   3.353
93663W        W61993  14.778  25.166   1.312
93664W        W61994  27.643  42.522  11.951
93665W        W61995  19.230  18.736   4.152
93666W        W61996  26.674  12.670   0.398
93667W        W61997  28.582  32.034   1.434
93668W        W61998  39.365   7.900  13.856
93669W        W61999  13.798  11.738  13.546
93670W        W62000  24.717   1.910   3.819
93671W        W62001  24.014  39.330   3.181
93672W        W62002  29.134   4.288   0.394
93673W        W62003  37.526  38.022  13.482
93674W        W62004  42.425  38.039   0.858
93675W        W62005  31.973  25.617   4.703
93676W        W62006  13.199  34.577   4.315
93677W        W62007   0.898   0.835   1.897
93678W        W62008   0.371   3.441   2.718
93679W        W62009  42.912  22.191  13.436
93680W        W62010  33.092  36.533   1.390
93681W        W62011  18.062  17.187  11.384
93682W        W62012  25.558  44.935  12.839
93683W        W62013   3.387  41.853   4.161
93684W        W62014  20.131  11.746   4.229
93685W        W62015  36.416  21.127   0.948
93686W        W62016  14.274   2.243   4.277
93687W        W62017  30.056  22.690   3.260
93688W        W62018   4.290  11.757  13.500
93689W        W62019  11.691  35.960   4.165
93690W        W62020   6.278  17.185  11.900
93691W        W62021  29.947   7.877   4.158
93692W        W62022  33.928  23.122   3.369
93693W        W62023  23.599  25.000  12.900
93694W        W62024  19.655  37.832  12.985
93695W        W62025  42.818   9.844   2.697
93696W        W62026   0.973   3.224   0.835
93697W        W62027  42.029   6.738  14.006
93698W        W62028  42.916  28.002   2.180
93699W        W62029  22.530  15.733   0.863
93700W        W62030  26.608  28.070  14.834
93701W        W62031  19.538   2.752  14.345
93702W        W62032   6.222  17.586   0.358
93703W        W62033  28.060  25.102   2.758
93704W        W62034  12.730  31.563   3.148
93705W        W62035  31.074   9.213   0.957
93706W        W62036  20.762  28.123  14.963
93707W        W62037  36.537   6.321  10.156
93708W        W62038  31.011  26.691  13.498
93709W        W62039  26.090   6.309   1.824
93710W        W62040   7.762   2.836  13.389
93711W        W62041   6.854   4.839  12.497
93712W        W62042  18.116   4.729  14.812
93713W        W62043  30.445  27.503   0.857
93714W        W62044  32.620  12.211  11.426
93715W        W62045  19.575  30.010  12.898
93716W        W62046   4.802  24.570  12.449
93717W        W62047  21.735  13.107  13.332
93718W        W62048  19.232  18.768  11.068
93719W        W62049  18.771   6.185   0.284
93720W        W62050  13.756   3.755  10.463
93721W        W62051  16.754  13.674  13.033
93722W        W62052  39.408   6.316  14.395
93723W        W62053  13.330  39.901   2.189
93724W        W62054  30.625  33.384   4.604
93725W        W62055  14.626  25.046  12.077
93726W        W62056  43.913  34.534   0.898
93727W        W62057  32.590   8.231   2.183
93728W        W62058   6.808  18.577   3.716
93729W        W62059  25.697  25.469   1.817
93730W        W62060  29.472  29.647   1.782
93731W        W62061  40.401   7.718  14.421
93732W        W62062  31.473   1.269   3.772
93733W        W62063   6.746  23.073   3.685
93734W        W62064  12.763   0.283   2.709
93735W        W62065  44.445  22.536   2.730
93736W        W62066  26.537   5.416  12.035
93737W        W62067   1.944  30.161  12.391
93738W        W62068   2.370  43.995   3.730
93739W        W62069  40.320   5.803  14.837
93740W        W62070  37.525  34.392   2.861
93741W        W62071   8.258  28.043   2.382
93742W        W62072  27.666  14.281   2.267
93743W        W62073   8.795  44.862   4.333
93744W        W62074  11.357  24.194   0.280
93745W        W62075   2.918   7.235  13.312
93746W        W62076  28.597   2.896  11.887
93747W        W62077  33.431  31.472   0.929
93748W        W62078  33.945  33.405   1.355
93749W        W62079   7.295  36.997   2.321
93750W        W62080  39.543  36.855   1.244
93751W        W62081  25.577  31.575   1.221
93752W        W62082  39.423  18.163  14.914
93753W        W62083  41.507  25.160  12.560
93754W        W62084  34.040   7.410   4.252
93755W        W62085  23.020  16.162  11.603
93756W        W62086  23.233   7.769  13.946
93757W        W62087   1.776  13.648  10.470
93758W        W62088   5.809  37.059  14.475
93759W        W62089  31.582  41.817  14.390
93760W        W62090   1.952   5.428   3.867
93761W        W62091  35.912  10.365   0.266
93762W        W62092  30.654  42.777   2.702
93763W        W62093  41.478   5.321   2.235
93764W        W62094  24.053   2.298  12.885
93765W        W62095  42.857  37.991   1.718
93766W        W62096   5.716  35.550  14.006
93767W        W62097  13.263  33.014  11.099
93768W        W62098  17.207  41.795  11.043
93769W        W62099   2.832   1.276  11.995
93770W        W62100  14.718  32.404  11.395
93771W        W62101  19.686   8.384  13.501
93772W        W62102  34.374  17.072   0.311
93773W        W62103   8.711   7.737   0.888
93774W        W62104  39.351  40.967   1.223
93775W        W62105   8.288  43.005   3.211
93776W        W62106  27.129  28.094   1.849
93777W        W62107  34.390  23.673  10.493
93778W        W62108  39.340  18.681  14.776
93779W        W62109  38.031   8.278   0.400
93780W        W62110  27.508   0.271   4.176
93781W        W62111   2.384   8.372  14.889
93782W        W62112  21.675  42.968  14.302
93783W        W62113  18.762  18.210   3.653
93784W        W62114  24.521  44.912  13.428
93785W        W62115  28.561   3.891   0.904
93786W        W62116  44.348  21.028   1.230
93787W        W62117   6.693  10.834   2.205
93788W        W62118  38.883   8.806  14.830
93789W        W62119   4.934  10.147   5.232
93790W        W62120  42.384  24.725   2.799
93791W        W62121  21.082   6.259  11.113
93792W        W62122  40.469  16.581  14.349
93793W        W62123  24.115  24.582   4.348
93794W        W62124  19.581  44.357   0.830
93795W        W62125   5.397  41.035  11.469
93796W        W62126  19.753   3.720   3.685
93797W        W62127  22.012   6.422  12.861
93798W        W62128  39.935  13.322   2.772
93799W        W62129  34.932   8.295   0.794
93800W        W62130  41.433  41.866  14.769
93801W        W62131  26.518  35.095  14.796
93802W        W62132  31.997   6.840   2.827
93803W        W62133  33.619  18.287  12.493
93804W        W62134  21.234  38.555   4.768
93805W        W62135   5.312  42.522  14.773
93806W        W62136  42.311  19.575   3.697
93807W        W62137  36.884   8.850   3.211
93808W        W62138  24.038   9.797  11.515
93809W        W62139  41.825   3.771   4.281
93810W        W62140  43.820  15.245  14.467
93811W        W62141   3.392  17.220  14.470
93812W        W62142   8.160   5.425   3.210
93813W        W62143  17.585  14.724   3.331
93814W        W62144  23.642  13.135   4.146
93815W        W62145  25.520  10.672  11.942
93816W        W62146  32.940  43.974   3.634
93817W        W62147   0.469  29.655  12.579
93818W        W62148  27.960  44.414  12.048
93819W        W62149   0.431  36.588   1.934
93820W        W62150  31.526  15.186   0.418
93821W        W62151  42.930  26.644   4.691
93822W        W62152  21.073  22.553   5.148
93823W        W62153  43.918   6.367   1.440
93824W        W62154  29.053   3.249  13.320
93825W        W62155  30.439   7.266   2.217
93826W        W62156  38.480   8.351  11.921
93827W        W62157  24.632   6.755   3.849
93828W        W62158   7.770  28.103   1.905
93829W        W62159   9.771  32.523  13.446
93830W        W62160  44.899  37.478   3.335
93831W        W62161   7.240  16.098   2.392
93832W        W62162  20.118  35.453   2.290
93833W        W62163  35.590  16.127   3.866
93834W        W62164  23.997  16.811  13.448
93835W        W62165  17.713  19.631  14.423
93836W        W62166   3.857   0.876   2.322
93837W        W62167  21.240  37.926   1.821
93838W        W62168  31.905  25.709   2.751
93839W        W62169  26.472  32.948   5.206
93840W        W62170  43.500  21.242  12.502
93841W        W62171  36.870   4.301   1.694
93842W        W62172   8.406  10.287   0.483
93843W        W62173  14.673  30.419   1.789
93844W        W62174  23.494  42.322   4.140
93845W        W62175  19.142  41.334  12.347
93846W        W62176  11.138  30.453  13.528
93847W        W62177   2.802   2.751  12.380
93848W        W62178  15.113  18.281   2.236
93849W        W62179   7.205  29.662   4.809
93850W        W62180  17.091  39.363  10.892
93851W        W62181  25.561  30.522  13.462
93852W        W62182  29.637  20.726   2.710
93853W        W62183  10.847  29.426   1.888
93854W        W62184  38.864  32.985   1.330
93855W        W62185   3.235  15.714   4.746
93856W        W62186   3.381   0.392  12.412
93857W        W62187  22.179  37.081   1.707
93858W        W62188  20.230  23.623  12.885
93859W        W62189   6.214  15.646  14.310
93860W        W62190   5.716  28.642   1.405
93861W        W62191  40.806  39.855   0.378
93862W        W62192   6.880  27.509   3.726
93863W        W62193  22.153  24.626   1.233
93864W        W62194   5.857   1.860   1.747
93865W        W62195  11.635   5.873  13.930
93866W        W62196   9.200  32.480   4.619
93867W        W62197   3.841  10.842  10.549
93868W        W62198  25.103  37.382  11.454
93869W        W62199  33.886  26.136  13.419
93870W        W62200  19.746  28.586  14.322
93871W        W62201  25.080   2.252   3.829
93872W        W62202  37.996  32.888  11.874
93873W        W62203  21.062  36.441  14.339
93874W        W62204  24.545  39.874  14.012
93875W        W62205  44.327   8.179  11.603
93876W        W62206  26.547  20.681  12.086
93877W        W62207   7.385  19.757  13.878
93878W        W62208  44.468   3.373  11.943
93879W        W62209  36.495   1.912  12.578
93880W        W62210  43.888  41.420   4.680
93881W        W62211   4.229  19.137  14.470
93882W        W62212  30.019  12.614  14.288
93883W        W62213  43.839   0.429  14.275
93884W        W62214   9.795  24.512   1.289
93885W        W62215  41.435   9.282  13.002
93886W        W62216   6.687  22.251   2.319
93887W        W62217  14.683  36.558   9.992
93888W        W62218  33.550   7.772   1.793
93889W        W62219  44.380  35.531  10.989
93890W        W62220  44.783  25.667  11.866
93891W        W62221  14.693  22.704  13.359
93892W        W62222  32.025  22.087  13.345
93893W        W62223  32.112  12.636  10.981
93894W        W62224  12.818  15.235   0.814
93895W        W62225  33.045  10.633   1.859
93896W        W62226  20.680  39.316  11.494
93897W        W62227  14.198  38.332  13.901
93898W        W62228  20.582  34.023  12.976
93899W        W62229  24.171   4.375  13.823
93900W        W62230   1.903  11.790   2.664
93901W        W62231  43.391  26.152   2.902
93902W        W62232  10.255  30.938   1.816
93903W        W62233   1.293  27.961   4.732
93904W        W62234  17.633  14.140   4.282
93905W        W62235  28.648  20.178   1.843
93906W        W62236  41.016  26.189   1.269
93907W        W62237  43.422  23.642  14.290
93908W        W62238  18.074  16.244   2.809
93909W        W62239  13.644  29.426   0.817
93910W        W62240   3.285   8.846  13.385
93911W        W62241  19.750  23.615  10.492
93912W        W62242  42.818  30.019  10.478
93913W        W62243   7.270   4.231   0.417
93914W        W62244  31.053  25.176   0.860
93915W        W62245  31.042  34.417   1.345
93916W        W62246  22.542  44.942  10.907
93917W        W62247   9.812  43.830  11.612
93918W        W62248  42.489  16.714  12.916
93919W        W62249  14.790  44.891  13.032
93920W        W62250  20.208  19.244  10.931
93921W        W62251   2.313   8.883  14.978
93922W        W62252  28.468  13.163   1.791
93923W        W62253  15.701  37.489   5.706
93924W        W62254  17.193  32.049   4.837
93925W        W62255  28.974  22.243  11.473
93926W        W62256  23.204   4.709  14.474
93927W        W62257  34.933  40.840   2.727
93928W        W62258   2.416  22.520  11.110
93929W        W62259   3.943   4.348  12.922
93930W        W62260   6.864  21.631   4.699
93931W        W62261   1.372  35.396   4.314
93932W        W62262  37.381  22.171  13.844
93933W        W62263  42.502  41.857  14.401
93934W        W62264  18.159  44.942   3.351
93935W        W62265  31.152  43.391   1.254
93936W        W62266  11.839  30.434   4.211
93937W        W62267  33.885  10.248  10.581
93938W        W62268  13.631  10.373  10.453
93939W        W62269  39.470  40.401  12.857
93940W        W62270  43.783  20.076  14.864
93941W        W62271  15.596  14.231  11.382
93942W        W62272  43.412  35.890   1.747
93943W        W62273  17.571  38.018   3.213
93944W        W62274  13.682  12.741  12.042
93945W        W62275  42.331  15.159  11.050
93946W        W62276  39.499  33.539  12.576
93947W        W62277  11.672  41.889   4.696
93948W        W62278  34.863  10.831   3.700
93949W        W62279  23.175  35.424  11.897
93950W        W62280  20.664   6.864   0.916
93951W        W62281  33.485  40.306  13.334
93952W        W62282  17.129  25.007   2.374
93953W        W62283  20.720  43.961  13.459
93954W        W62284  37.472  39.961  10.428
93955W        W62285  24.719  30.956   2.333
93956W        W62286   4.713   4.421   1.384
93957W        W62287  13.664   0.745   0.271
93958W        W62288  19.155  32.457   0.255
93959W        W62289   6.283  43.883  10.511
93960W        W62290  16.152  31.554  12.477
93961W        W62291   0.811  24.077  13.413
93962W        W62292  30.078  13.836   0.409
93963W        W62293  15.200  15.309   0.376
93964W        W62294  24.605   9.331  13.387
93965W        W62295  18.771  24.036   1.911
93966W        W62296  32.495  43.807   1.321
93967W        W62297   5.203  29.938   4.211
93968W        W62298  43.322  14.173  11.878
93969W        W62299  18.097  24.228  14.309
93970W        W62300  23.090  36.035  12.988
93971W        W62301  21.131   9.375   0.449
93972W        W62302  11.329  32.905  12.909
93973W        W62303  16.771  35.896  11.471
93974W        W62304  32.103  34.091  14.858
93975W        W62305  24.195   6.834  12.392
93976W        W62306  31.935   7.410  10.096
93977W        W62307  24.604  39.356  12.471
93978W        W62308  19.583  28.148   1.840
93979W        W62309  24.109  17.737  13.850
93980W        W62310  14.099  44.829   0.384
93981W        W62311  27.948  36.587   1.437
93982W        W62312  32.612  43.914   4.352
93983W        W62313  26.167  24.992   4.617
93984W        W62314  24.554  19.685   1.924
93985W        W62315   2.404   5.214  14.346
93986W        W62316  40.950  35.109  11.979
93987W        W62317  15.675   2.367   2.825
93988W        W62318  23.725  28.178   4.716
93989W        W62319   8.161  44.496  10.433
93990W        W62320  13.723  42.992   0.795
93991W        W62321   6.314  42.979  14.437
93992W        W62322  42.305   1.251  11.607
93993W        W62323  18.636   8.309   4.658
93994W        W62324  26.680  38.901   0.866
93995W        W62325  12.332  43.316  13.543
93996W        W62326  44.971  25.470   3.217
93997W        W62327   6.323  13.219   1.851
93998W        W62328  30.517   3.312   0.780
93999W        W62329  42.359  39.471   1.304
94000W        W62330  36.022   0.362  11.080
94001W        W62331  44.874  37.411  12.092
94002W        W62332  23.678  18.201   4.833
94003W        W62333  20.578   7.875  14.304
94004W        W62334   6.802  39.863   4.611
94005W        W62335   1.819  12.839  12.877
94006W        W62336   4.431  24.512  13.817
94007W        W62337  35.946  34.067   2.388
94008W        W62338  10.220  31.518   2.693
94009W        W62339  22.053  38.031  12.959
94010W        W62340  16.804   9.772  11.384
94011W        W62341   6.401  40.404  12.946
94012W        W62342   1.359  30.416  12.436
94013W        W62343  33.063  41.937   3.751
94014W        W62344   2.458  36.552  11.501
94015W        W62345  24.228  10.286  12.059
94016W        W62346   6.246  41.813   2.232
94017W        W62347  34.453  29.656   4.616
94018W        W62348  23.135  38.486  12.501
94019W        W62349  44.881  42.460  12.852
94020W        W62350   8.858  44.951   2.775
94021W        W62351  41.328   3.841  11.446
94022W        W62352   0.821  33.074  12.961
94023W        W62353   0.855  19.207   4.249
94024W        W62354  38.381  13.667  11.874
94025W        W62355  22.201  32.142   3.239
94026W        W62356  30.037  18.670  10.592
94027W        W62357   8.393  41.465   2.666
94028W        W62358  24.485   1.811   0.257
94029W        W62359  24.094  36.513  10.631
94030W        W62360  20.224  18.644  10.108
94031W        W62361   3.712   2.803   0.955
94032W        W62362  35.923   4.286   4.802
94033W        W62363  39.549   0.893  10.616
94034W        W62364  41.372   1.956  10.407
94035W        W62365   2.904  41.314  12.490
94036W        W62366  42.330  23.068  11.102
94037W        W62367  31.117  29.048   2.690
94038W        W62368  22.740  29.940  13.896
94039W        W62369   3.888  34.501  11.856
94040W        W62370  34.949  13.165  11.017
94041W        W62371  14.098  38.515   0.769
94042W        W62372   7.220  28.482  12.363
94043W        W62373  34.012  27.626  13.418
94044W        W62374  39.429   9.213  14.342
94045W        W62375  11.349  22.558   0.446
94046W        W62376  22.187  16.117   2.899
94047W        W62377  29.487  30.469  11.589
94048W        W62378  32.630  40.924   3.645
94049W        W62379  44.890  39.960   4.285
94050W        W62380  34.461  34.958  14.459
94051W        W62381  26.998  10.344   5.270
94052W        W62382  15.803  14.602   4.309
94053W        W62383   5.830   9.862  12.428
94054W        W62384  14.710  23.062  14.493
94055W        W62385   5.386  13.337   3.695
94056W        W62386   2.776   5.350  12.862
94057W        W62387  20.655  30.133   0.814
94058W        W62388  25.067  33.421  14.331
94059W        W62389  23.092  36.881  13.456
94060W        W62390  41.497  17.158  11.911
94061W        W62391  40.357  16.124   0.277
94062W        W62392  21.214  10.301  11.975
94063W        W62393  32.538  15.733  13.852
94064W        W62394  18.239  37.529   0.406
94065W        W62395   8.861  14.721  14.427
94066W        W62396  19.083  27.521  10.520
94067W        W62397  33.622  23.679   1.793
94068W        W62398   3.326  27.941  10.979
94069W        W62399  35.875  32.968  13.308
94070W        W62400  15.172  21.743   1.882
94071W        W62401  14.643  29.518  10.965
94072W        W62402  17.255  17.797   4.832
94073W        W62403  27.674  32.464  11.905
94074W        W62404   9.883  26.194   4.264
94075W        W62405  35.602  11.175   4.814
94076W        W62406  19.620  40.371   4.696
94077W        W62407  12.168  28.981  13.330
94078W        W62408   4.236  27.181  14.827
94079W        W62409  41.956  18.576  12.043
94080W        W62410  13.614  19.733   2.900
94081W        W62411  33.409  31.151   4.825
94082W        W62412  21.133  33.950   4.233
94083W        W62413   6.335   8.375   1.432
94084W        W62414   4.301   7.768   2.269
94085W        W62415  15.284  14.685  12.490
94086W        W62416  26.208  11.232  13.018
94087W        W62417   8.876  27.095  13.988
94088W        W62418   8.301  18.092  14.968
94089W        W62419  15.635   9.657  10.643
94090W        W62420   5.235  42.411   2.237
94091W        W62421  38.821  37.979   4.836
94092W        W62422  41.852  15.659  13.384
94093W        W62423  39.987   5.250  10.431
94094W        W62424  33.108   7.296   3.763
94095W        W62425  27.552  22.144  12.950
94096W        W62426  30.945   3.277   2.325
94097W        W62427  44.777  34.385   2.191
94098W        W62428  35.540  24.533   4.649
94099W        W62429  36.065   2.406   4.244
94100W        W62430  11.809  33.574  13.474
94101W        W62431  23.566  24.511  11.490
94102W        W62432  44.366  22.562   1.811
94103W        W62433   9.847  36.030   3.675
94104W        W62434  27.599  24.055  10.518
94105W        W62435   1.454   4.393  12.427
94106W        W62436   2.942  14.775  14.966
94107W        W62437   9.658  13.814   0.381
94108W        W62438   4.920  37.542   3.848
94109W        W62439  42.985  37.484   3.656
94110W        W62440  41.395  17.262   0.957
94111W        W62441  24.637   8.281   2.823
94112W        W62442   4.331  22.192   3.866
94113W        W62443   3.938   0.841   0.810
94114W        W62444  16.753  44.951   2.804
94115W        W62445  17.095  22.203  11.001
94116W        W62446  41.968   0.460  14.821
94117W        W62447  26.533  37.876   1.845
94118W        W62448  30.523  23.602   4.327
94119W        W62449  20.524   9.699  10.928
94120W        W62450  29.944  44.309   3.781
94121W        W62451  36.495  39.997  11.993
94122W        W62452  24.088   0.325  11.396
94123W        W62453  13.309   4.849   9.980
94124W        W62454  15.590  15.292   1.422
94125W        W62455   8.725   3.835   0.294
94126W        W62456  18.100  36.076   1.887
94127W        W62457   6.399   8.787   0.271
94128W        W62458  34.528  36.356  13.335
94129W        W62459  43.913  20.563   4.216
94130W        W62460  22.138  31.095   5.259
94131W        W62461   9.688  37.873  14.471
94132W        W62462  10.799  26.056   2.367
94133W        W62463  18.665  37.079  12.500
94134W        W62464  16.087  14.209   0.417
94135W        W62465  34.922  25.507  11.415
94136W        W62466   8.770  14.746  10.425
94137W        W62467  15.142  19.224   3.267
94138W        W62468  30.945  36.955   4.148
94139W        W62469   1.374   5.716   1.801
94140W        W62470  22.542   0.422   2.264
94141W        W62471  16.656  12.698  13.370
94142W        W62472  11.305   2.751   4.221
94143W        W62473  16.182  39.415   2.752
94144W        W62474  21.021  32.484  14.393
94145W        W62475  21.639  24.038   2.682
94146W        W62476   0.776  14.217  11.990
94147W        W62477   3.441  44.502   2.231
94148W        W62478   6.239  30.622   9.935
94149W        W62479  34.505   0.938   3.327
94150W        W62480  28.510  25.142  11.907
94151W        W62481  33.032  25.137   1.832
94152W        W62482  26.099   3.728  14.378
94153W        W62483  39.882  15.785   3.802
94154W        W62484   0.251  26.152   3.635
94155W        W62485  11.245  34.989   4.316
94156W        W62486   4.411  34.445   1.806
94157W        W62487  22.692  22.726  14.758
94158W        W62488  12.686  41.870   4.706
94159W        W62489  28.038  42.290  10.431
94160W        W62490  21.083  35.909   1.904
94161W        W62491   5.373  20.599   1.247
94162W        W62492  28.986  30.925  11.465
94163W        W62493   5.250  19.255   3.639
94164W        W62494  44.379  22.231   9.941
94165W        W62495   7.884   1.852   2.384
94166W        W62496  25.559  12.163   1.259
94167W        W62497  40.409  27.570  10.954
94168W        W62498  26.522   1.348  14.360
94169W        W62499  17.568   4.300  10.557
94170W        W62500  33.126  10.854   4.244
94171W        W62501   9.265  11.127  14.499
94172W        W62502  31.506  21.570   0.456
94173W        W62503  21.188  41.460   0.824
94174W        W62504  28.938   3.317   3.384
94175W        W62505   6.400  39.460   0.299
94176W        W62506  17.160  39.423  13.971
94177W        W62507  32.635  16.742  13.422
94178W        W62508  22.532  26.103  12.443
94179W        W62509  21.516  16.745  10.594
94180W        W62510   1.386  17.095  12.866
94181W        W62511  35.956  33.039  14.326
94182W        W62512  11.837  14.170  12.392
94183W        W62513  30.921  40.834   0.905
94184W        W62514  40.536   7.715   9.670
94185W        W62515  41.491  41.340   2.377
94186W        W62516  23.490  17.716   3.162
94187W        W62517  38.903  16.138   3.672
94188W        W62518  24.674   6.284   4.268
94189W        W62519   1.876  15.226   3.272
94190W        W62520   1.780  13.745  12.054
94191W        W62521  19.041  29.485   3.198
94192W        W62522  25.623  31.938  10.433
94193W        W62523  15.587   8.822  10.016
94194W        W62524  16.712  28.075  12.925
94195W        W62525  21.544  27.632   4.182
94196W        W62526   6.398  43.806   2.199
94197W        W62527  25.477  36.963  14.431
94198W        W62528  33.436   5.727  12.455
94199W        W62529  20.175  22.186  11.986
94200W        W62530  34.070  14.729   3.858
94201W        W62531   3.445  33.482  11.917
94202W        W62532  37.553  10.769  10.993
94203W        W62533   4.710  22.132   0.801
94204W        W62534  38.375  16.089  11.017
94205W        W62535  35.573  22.206   0.262
94206W        W62536  32.396   7.667   1.231
94207W        W62537  37.523  39.437  13.802
94208W        W62538  16.687  30.525  10.476
94209W        W62539  36.547  24.190   1.311
94210W        W62540   4.242  34.513   1.333
94211W        W62541  36.913  31.144   4.239
94212W        W62542  24.644  34.040   4.238
94213W        W62543   6.269  35.866  11.411
94214W        W62544  37.968  38.549   0.851
94215W        W62545  34.055  38.467   3.212
94216W        W62546  33.001  42.957   1.913
94217W        W62547  38.843  34.939  14.455
94218W        W62548  29.934   7.377  14.417
94219W        W62549  19.627   8.691  14.278
94220W        W62550   5.351   6.823   3.241
94221W        W62551  39.901  27.050   1.857
94222W        W62552  39.417  31.044   2.675
94223W        W62553  11.145  30.427  14.291
94224W        W62554  21.100  26.061  14.278
94225W        W62555   5.826  24.199  11.947
94226W        W62556  23.109   9.747   4.829
94227W        W62557  28.569  10.727   4.812
94228W        W62558  13.145  38.828   3.373
94229W        W62559  37.529  43.848   0.477
94230W        W62560  11.632  44.465  14.415
94231W        W62561   8.682   6.365  12.397
94232W        W62562   3.314  23.072   1.426
94233W        W62563  39.370   1.777   0.449
94234W        W62564  22.728  30.053   5.224
94235W        W62565  42.489  38.884   0.946
94236W        W62566  30.108  11.217  10.411
94237W        W62567  21.159  38.958  12.055
94238W        W62568  13.204   4.770   3.370
94239W        W62569  39.061  16.311   1.771
94240W        W62570   8.875  28.008   4.645
94241W        W62571  19.696  14.658  12.987
94242W        W62572  12.260  26.193  11.909
94243W        W62573  18.678  14.772  12.918
94244W        W62574  42.812  25.484   0.851
94245W        W62575  30.041  25.043   2.848
94246W        W62576   2.300  12.718   2.404
94247W        W62577  39.532  13.295   2.180
94248W        W62578  19.745  39.902   4.326
94249W        W62579  16.803  44.283   3.722
94250W        W62580   8.743  10.316   1.772
94251W        W62581  21.678  39.910   0.304
94252W        W62582   9.309   5.383   2.376
94253W        W62583  40.425  13.607   0.732
94254W        W62584  19.198  18.672  11.549
94255W        W62585  19.614  34.456   4.129
94256W        W62586  20.036   9.209  11.557
94257W        W62587  36.518  41.793  12.852
94258W        W62588  11.622  35.369   0.437
94259W        W62589  19.710  21.067  11.956
94260W        W62590  22.717  36.581  10.036
94261W        W62591  32.958  16.218  10.419
94262W        W62592  14.639  36.873  10.085
94263W        W62593  30.422   6.270  12.089
94264W        W62594  24.148  32.528  13.432
94265W        W62595  10.772  20.264  12.360
94266W        W62596  27.960  12.179  13.855
94267W        W62597  37.508   4.259   4.134
94268W        W62598  31.002  26.549  12.495
94269W        W62599  23.088  10.199   4.302
94270W        W62600  19.198   8.689   0.925
94271W        W62601  42.827  41.854  13.798
94272W        W62602  41.792   6.755  10.571
94273W        W62603  14.242  43.411  12.941
94274W        W62604  28.677  12.225  10.556
94275W        W62605  43.361  44.344   2.237
94276W        W62606  32.631   8.812  11.422
94277W        W62607  42.780   2.252   2.331
94278W        W62608  35.892  13.807   0.316
94279W        W62609  32.447   8.222   3.314
94280W        W62610  30.138  19.181   2.739
94281W        W62611  17.660  12.756   3.681
94282W        W62612  42.525   2.776  11.544
94283W        W62613  40.368  23.010  14.852
94284W        W62614   8.234  30.547  12.576
94285W        W62615  40.950  16.262   1.450
94286W        W62616  26.506  17.189   3.698
94287W        W62617   6.203  42.900   2.699
94288W        W62618  41.874   1.478   3.296
94289W        W62619  19.176   6.202   4.638
94290W        W62620  29.099  16.193  11.863
94291W        W62621  25.008   1.749  14.285
94292W        W62622  34.879  15.159  14.451
94293W        W62623  27.635  13.679  12.381
94294W        W62624   6.402  43.883   0.918
94295W        W62625  15.188   9.351  12.429
94296W        W62626  42.793  27.643   2.869
94297W        W62627   3.285  28.489  12.409
94298W        W62628  21.730  34.393   4.187
94299W        W62629  18.776   9.151  12.489
94300W        W62630   3.734  36.441  11.899
94301W        W62631  36.005  43.283   2.670
94302W        W62632  28.509  39.534  11.406
94303W        W62633  35.911  22.055  11.509
94304W        W62634  43.932   5.306  10.913
94305W        W62635  31.932  14.725  11.048
94306W        W62636  44.436   1.413   2.818
94307W        W62637  40.940  32.607  13.008
94308W        W62638  20.164  43.443   2.888
94309W        W62639  22.666  25.554   0.750
94310W        W62640  25.080  15.699  10.618
94311W        W62641   5.688   7.323  10.570
94312W        W62642  33.067  11.733  12.038
94313W        W62643  29.452  33.936   1.745
94314W        W62644  29.962   5.713  11.115
94315W        W62645  40.947   9.851  13.022
94316W        W62646  23.054  10.848  13.470
94317W        W62647  42.988  13.113   1.855
94318W        W62648  33.974  27.152  13.848
94319W        W62649  29.009   7.279   2.723
94320W        W62650  25.613  19.168   0.398
94321W        W62651  18.285  27.943   4.787
94322W        W62652  39.386  11.667   4.621
94323W        W62653  34.094  12.805   3.759
94324W        W62654   6.198  42.866  14.883
94325W        W62655  43.903  28.162  10.522
94326W        W62656   6.235   9.734  14.871
94327W        W62657  19.629  21.128   5.275
94328W        W62658  28.511  18.603   4.676
94329W        W62659  16.314  17.227  11.096
94330W        W62660  34.936  21.235  14.307
94331W        W62661  36.095  21.248  11.039
94332W        W62662   3.711   6.375  10.643
94333W        W62663  33.062  16.680   0.817
94334W        W62664   6.408  23.497  14.784
94335W        W62665  28.486   6.867   3.691
94336W        W62666   8.886  20.069   3.725
94337W        W62667  23.528  14.196  10.531
94338W        W62668  43.018  25.080  12.908
94339W        W62669  33.922  24.212   1.354
94340W        W62670  31.530  37.988   1.843
94341W        W62671  35.856  39.315   1.264
94342W        W62672  10.862  44.955   3.281
94343W        W62673  24.507  26.132  12.546
94344W        W62674  15.815  44.476  14.028
94345W        W62675  20.566  33.979  14.832
94346W        W62676  21.668  33.983   3.806
94347W        W62677  29.163   9.153  12.573
94348W        W62678  18.215  22.642   5.685
94349W        W62679  37.576  39.931  11.460
94350W        W62680  25.679  35.401  11.591
94351W        W62681  24.014  31.429  14.278
94352W        W62682  16.104  23.646   0.803
94353W        W62683  29.023  35.103  12.553
94354W        W62684  26.159  20.193   2.723
94355W        W62685  38.056   7.262   9.966
94356W        W62686  35.575  19.644  12.052
94357W        W62687   9.868  24.173  12.034
94358W        W62688  10.746  25.655   4.760
94359W        W62689  16.679   2.292  12.440
94360W        W62690   0.875  10.368   2.299
94361W        W62691  11.836   5.739   1.890
94362W        W62692  26.053  44.817  13.505
94363W        W62693  13.181  22.716  11.496
94364W        W62694   0.762  27.559  11.058
94365W        W62695  39.822  25.521  12.838
94366W        W62696  30.438  30.078  11.427
94367W        W62697  30.561  44.940   1.878
94368W        W62698   5.194  22.692  10.512
94369W        W62699  21.753  27.484   1.222
94370W        W62700   4.711  20.186   0.913
94371W        W62701  15.246  42.875  13.889
94372W        W62702   0.896  26.602   1.846
94373W        W62703  39.901  18.713   3.251
94374W        W62704  32.907  21.557  12.563
94375W        W62705   6.333  11.826   0.413
94376W        W62706  11.688   3.411   1.767
94377W        W62707   0.290  38.858   2.307
94378W        W62708  11.373  21.531  13.983
94379W        W62709  33.058  21.131   2.371
94380W        W62710  40.045   7.227   0.415
94381W        W62711  21.619   5.796   3.335
94382W        W62712   4.323  35.490   3.273
94383W        W62713  39.486  14.761  12.058
94384W        W62714  40.026  29.978  14.861
94385W        W62715  26.057  35.552  14.363
94386W        W62716   8.749   4.750   0.857
94387W        W62717  30.433   5.812  13.919
94388W        W62718   0.329  10.767   2.290
94389W        W62719  26.124  12.281   3.688
94390W        W62720   0.374  44.801   3.706
94391W        W62721  41.378  20.106   2.845
94392W        W62722   4.791  15.325  13.339
94393W        W62723  17.223  19.612   0.735
94394W        W62724  26.510  24.544   3.152
94395W        W62725  14.153  40.971  10.920
94396W        W62726  24.000   6.264   9.985
94397W        W62727  31.424   2.448   0.779
94398W        W62728  41.983   0.299   4.171
94399W        W62729  13.193  42.984  14.394
94400W        W62730  42.433   2.755   1.788
94401W        W62731  31.077  32.429  11.968
94402W        W62732   8.263  20.637   4.830
94403W        W62733  13.791  22.998   0.878
94404W        W62734   3.782  40.344   3.842
94405W        W62735  39.990  39.000  11.466
94406W        W62736  44.491   5.786   0.863
94407W        W62737   1.271   3.310   3.860
94408W        W62738  14.605  23.575  14.277
94409W        W62739  29.040   2.420   2.738
94410W        W62740   2.811   4.761   1.255
94411W        W62741  42.849  15.268  11.112
94412W        W62742   5.243  34.592   1.766
94413W        W62743   7.848  37.074  14.296
94414W        W62744  31.515  37.369   3.747
94415W        W62745  13.121  38.923  10.155
94416W        W62746   1.247  29.608  11.062
94417W        W62747  37.440  37.425   4.708
94418W        W62748  27.025  24.541   4.815
94419W        W62749  14.302   5.320  11.066
94420W        W62750  39.898  17.152  12.374
94421W        W62751  24.070  29.007  14.833
94422W        W62752  39.066  27.086  11.463
94423W        W62753  22.542  10.679   2.351
94424W        W62754  28.104  14.296   4.119
94425W        W62755  43.788   0.899   1.812
94426W        W62756  16.221  14.237  12.471
94427W        W62757  39.882  24.572  13.364
94428W        W62758  34.981  43.396   3.147
94429W        W62759   0.252  12.729  12.084
94430W        W62760  11.630   6.287  12.857
94431W        W62761  35.891  32.556  12.449
94432W        W62762  33.112   7.709  14.280
94433W        W62763  21.660  32.564  10.559
94434W        W62764  36.538   4.339  13.448
94435W        W62765  43.508   2.344   4.324
94436W        W62766   3.937  18.632  13.918
94437W        W62767  14.776  33.578  12.982
94438W        W62768  38.942  31.572   0.278
94439W        W62769  43.394   1.333   3.630
94440W        W62770  29.522  19.097  12.521
94441W        W62771  42.282  36.057   1.784
94442W        W62772  23.506  41.951  13.541
94443W        W62773  12.766  11.864  11.906
94444W        W62774  21.671   5.871   4.626
94445W        W62775  17.701   1.978  12.398
94446W        W62776  31.543  20.198  13.361
94447W        W62777  32.922  39.948  14.434
94448W        W62778  26.053  20.723  12.422
94449W        W62779   6.819  20.149   2.329
94450W        W62780   5.779  19.153   3.824
94451W        W62781  38.403  35.465  13.880
94452W        W62782  39.018  16.700   3.273
94453W        W62783  18.269  17.746   4.636
94454W        W62784   3.898   2.439  12.849
94455W        W62785  35.950  37.919  11.038
94456W        W62786   4.752  40.907  11.915
94457W        W62787  27.618  34.602  12.057
94458W        W62788  11.186   8.268  14.814
94459W        W62789  38.040  21.592   2.897
94460W        W62790  44.331  39.030   3.744
94461W        W62791  30.131  14.820   4.202
94462W        W62792  10.716  44.290   4.252
94463W        W62793   3.876  28.025  13.409
94464W        W62794  22.042  19.735  14.448
94465W        W62795   3.828  28.541   1.325
94466W        W62796   1.413  25.584   4.171
94467W        W62797  18.207   3.885  13.316
94468W        W62798  27.594   3.891  14.788
94469W        W62799  34.997   2.307   2.792
94470W        W62800   9.311  29.925  13.031
94471W        W62801  29.446  42.336   0.479
94472W        W62802   4.806  44.322  14.901
94473W        W62803  22.218  31.406  13.485
94474W        W62804  40.031  31.019  12.061
94475W        W62805   9.873  40.450   2.363
94476W        W62806  12.712  21.571  13.914
94477W        W62807  32.908  38.938   3.233
94478W        W62808  18.111  36.362   2.263
94479W        W62809  34.508  41.907   1.925
94480W        W62810  19.110  39.351   1.824
94481W        W62811  36.887  33.541  12.010
94482W        W62812  24.190  18.174   0.957
94483W        W62813  23.710  30.526   4.681
94484W        W62814  31.473  19.094   0.863
94485W        W62815   7.739   7.360  14.879
94486W        W62816   7.202  18.711  11.084
94487W        W62817  43.989  22.022  12.858
94488W        W62818  26.113  41.000  11.539
94489W        W62819  14.265  16.669   1.830
94490W        W62820  42.357  14.611  14.995
94491W        W62821   4.816  38.068  10.526
94492W        W62822  39.923  20.244  10.988
94493W        W62823  31.949  25.527   5.208
94494W        W62824  24.541  11.865   3.319
94495W        W62825  34.972  40.893   3.200
94496W        W62826  44.929  34.875  12.049
94497W        W62827  38.514   7.780  14.843
94498W        W62828  28.084  43.943  12.358
94499W        W62829  17.728  44.767  13.023
94500W        W62830  36.541  38.023  11.969
94501W        W62831  13.688  35.556   0.766
94502W        W62832  27.007  24.699   1.261
94503W        W62833  31.497  36.061   1.234
94504W        W62834   8.790  35.059   5.278
94505W        W62835  17.142  43.866  13.016
94506W        W62836  16.640  24.999  14.384
94507W        W62837  23.655  31.007  12.049
94508W        W62838  34.073  40.344  11.490
94509W        W62839  22.604  18.681   1.287
94510W        W62840   3.349  41.799   1.733
94511W        W62841  19.178  43.385   0.342
94512W        W62842   5.197   3.296   0.464
94513W        W62843  29.473  27.647  13.432
94514W        W62844  33.440  16.132  10.076
94515W        W62845  22.032  39.514   1.245
94516W        W62846  21.665  22.011  11.462
94517W        W62847   0.479  35.370  10.473
94518W        W62848  30.561  35.054   0.445
94519W        W62849  32.538   0.784   4.191
94520W        W62850  19.773  36.903   1.788
94521W        W62851  14.602  11.822   4.206
94522W        W62852  23.194  21.224  10.576
94523W        W62853  26.981  11.649   4.693
94524W        W62854  18.590   9.854   3.308
94525W        W62855  17.739   3.848  13.316
94526W        W62856  28.143  13.125   5.196
94527W        W62857  20.159  36.445  12.077
94528W        W62858  28.153  25.065   1.778
94529W        W62859   2.904  33.415   1.816
94530W        W62860  26.693   5.354  14.896
94531W        W62861   1.810  34.582  11.128
94532W        W62862  43.991  43.986   3.232
94533W        W62863  12.711  36.999   3.341
94534W        W62864   0.480  36.402   0.862
94535W        W62865  30.048  18.638  11.869
94536W        W62866  26.549  41.419   4.605
94537W        W62867   7.762   8.698   2.861
94538W        W62868   9.720  33.438  14.860
94539W        W62869  10.248  11.140  14.032
94540W        W62870  18.560  16.798  13.058
94541W        W62871  34.560   8.893  14.788
94542W        W62872  24.662   5.335  14.312
94543W        W62873  43.796  23.691   3.359
94544W        W62874  15.798   6.756   5.112
94545W        W62875   1.828  43.984  13.030
94546W        W62876  19.278  30.461   4.276
94547W        W62877   6.281   1.915  11.462
94548W        W62878  17.702   6.383  13.499
94549W        W62879  37.507  31.080   4.823
94550W        W62880  35.559  16.146   4.815
94551W        W62881  35.432  26.480   0.409
94552W        W62882  36.961  14.110   4.691
94553W        W62883   0.975   4.748  10.036
94554W        W62884  17.283  26.495   3.157
94555W        W62885  44.293  25.121  14.442
94556W        W62886  12.175  25.035  12.372
94557W        W62887  20.090  13.778  12.054
94558W        W62888   8.868  43.314   0.473
94559W        W62889  30.445   9.223  10.971
94560W        W62890  21.715   0.859  14.389
94561W        W62891  35.538  39.341  12.912
94562W        W62892  10.658  33.874   1.295
94563W        W62893  39.527  29.938  11.007
94564W        W62894  27.546  10.705  11.959
94565W        W62895  43.380   6.303   2.361
94566W        W62896   1.302   1.388  12.092
94567W        W62897   8.668  11.815  13.020
94568W        W62898  42.501  10.651  11.420
94569W        W62899  33.523  26.582  13.416
94570W        W62900   9.735  19.231  13.792
94571W        W62901  11.805  28.143  12.021
94572W        W62902  19.135  22.567  13.023
94573W        W62903  14.635  10.339   1.728
94574W        W62904  25.603  44.269  14.445
94575W        W62905  11.169   8.679   1.820
94576W        W62906  30.160  43.020   0.388
94577W        W62907  44.947  40.390  13.408
94578W        W62908  35.529  14.642  14.365
94579W        W62909  11.739  26.683  12.504
94580W        W62910  20.611  22.113  11.909
94581W        W62911  17.730   0.800  13.538
94582W        W62912  13.799  42.389   2.720
94583W        W62913  31.978  10.788  11.377
94584W        W62914  40.375  13.835   0.289
94585W        W62915   7.343  31.589   1.875
94586W        W62916   1.249  23.157  12.888
94587W        W62917  20.043  11.625   3.372
94588W        W62918  37.529  39.063  12.525
94589W        W62919  42.462   7.345  14.031
94590W        W62920   4.770   9.257  13.894
94591W        W62921  21.565  21.138   2.819
94592W        W62922  21.711   1.347   3.274
94593W        W62923  16.812  23.623   0.444
94594W        W62924  39.414   5.749  14.323
94595W        W62925  12.212  36.851   1.700
94596W        W62926   9.869  34.428   2.665
94597W        W62927  32.477   3.722   2.732
94598W        W62928  34.937  21.023  12.448
94599W        W62929  24.533   5.218  13.396
94600W        W62930  40.051  27.544   4.335
94601W        W62931  36.042  43.779  14.310
94602W        W62932  41.932   0.844  10.494
94603W        W62933   7.736   2.338   0.389
94604W        W62934   5.858  11.296   2.762
94605W        W62935  33.025  10.187   4.617
94606W        W62936   7.181  19.258  13.344
94607W        W62937  36.010  27.564  11.035
94608W        W62938  15.743  20.214  10.953
94609W        W62939  17.116  44.386   1.706
94610W        W62940  15.170  25.034   2.294
94611W        W62941  35.863  24.082   1.366
94612W        W62942  36.078   6.369   3.780
94613W        W62943  40.011  24.577   0.337
94614W        W62944   6.211  31.101  14.308
94615W        W62945   3.906  27.144  12.466
94616W        W62946  30.499  14.800   4.634
94617W        W62947  26.984  33.528   0.440
94618W        W62948  44.775  44.891   3.349
94619W        W62949  42.968  39.499   1.710
94620W        W62950  11.276  23.596   3.773
94621W        W62951   7.318  36.557  11.049
94622W        W62952  27.627  39.361  12.579
94623W        W62953   1.323  18.610   3.176
94624W        W62954  27.095   6.292   1.802
94625W        W62955  13.227  16.269   2.760
94626W        W62956   5.362   0.358   3.745
94627W        W62957  19.215  15.784  13.868
94628W        W62958  43.343  33.929   3.199
94629W        W62959  42.909  22.013  12.042
94630W        W62960   6.805   3.410  14.420
94631W        W62961  11.792  39.405   2.262
94632W        W62962   3.770   8.356  14.301
94633W        W62963  15.743  26.640  11.570
94634W        W62964   3.748  43.837  13.894
94635W        W62965  22.998  37.524  14.379
94636W        W62966  42.365  18.696  11.425
94637W        W62967   2.755  28.532   2.232
94638W        W62968  27.030  15.661   2.323
94639W        W62969  27.072  43.366  13.841
94640W        W62970  34.064  38.326  14.314
94641W        W62971  21.607  42.901  13.376
94642W        W62972  43.891   7.274  12.556
94643W        W62973   9.223  42.483   2.834
94644W        W62974   5.705  42.875  14.840
94645W        W62975  36.951  15.791  10.553
94646W        W62976  24.034  18.647  12.853
94647W        W62977  35.553   0.743  12.054
94648W        W62978  30.089  21.579   9.608
94649W        W62979  17.152  20.060   4.175
94650W        W62980  44.826  42.840  14.025
94651W        W62981  25.621  41.869   2.412
94652W        W62982   8.836  34.541   2.399
94653W        W62983  41.013  44.303   3.240
94654W        W62984  19.153   1.972  12.895
94655W        W62985  34.503  19.688  11.930
94656W        W62986   5.395  42.822  10.492
94657W        W62987  34.887  17.793  14.514
94658W        W62988   6.337   8.879   0.792
94659W        W62989   3.817   7.739  13.961
94660W        W62990  15.089   3.833  12.077
94661W        W62991  38.339  31.121  14.320
94662W        W62992  18.556   9.295  14.370
94663W        W62993  16.233  41.446  13.834
94664W        W62994  16.110  10.311  13.531
94665W        W62995  41.397   7.852  12.851
94666W        W62996   0.748   1.834  10.408
94667W        W62997   1.962  35.916   4.204
94668W        W62998   2.453  25.609   4.209
94669W        W62999  32.620  40.417  12.069
94670W        W63000  35.505  38.876   3.194
94671W        W63001   0.312   9.844  10.426
94672W        W63002  20.627  36.586  12.959
94673W        W63003  23.557   0.839  12.392
94674W        W63004  14.707  16.702  11.407
94675W        W63005   9.812  33.613  13.508
94676W        W63006  38.913  15.693  12.964
94677W        W63007  14.634  33.020  11.000
94678W        W63008   0.437  15.178  12.940
94679W        W63009   3.418  33.030   3.720
94680W        W63010  38.053  30.076   4.822
94681W        W63011  34.464   1.779  14.911
94682W        W63012  12.776   6.876   1.931
94683W        W63013  43.442   5.357  12.482
94684W        W63014  30.015   3.288   1.861
94685W        W63015  28.937  14.702  13.314
94686W        W63016   1.271   0.946  12.557
94687W        W63017  33.554   0.861  13.417
94688W        W63018  26.538  34.903   2.720
94689W        W63019   8.721  39.396  14.346
94690W        W63020   2.740  11.226   2.204
94691W        W63021  13.213  26.521  10.930
94692W        W63022  21.650  27.605  12.406
94693W        W63023   1.263  34.380   1.443
94694W        W63024  12.141   6.425   0.944
94695W        W63025  19.164  32.518  11.866
94696W        W63026   2.291   4.231   4.707
94697W        W63027  38.414  44.296   3.150
94698W        W63028  10.240  18.642   0.892
94699W        W63029  10.866   0.901   0.783
94700W        W63030  23.150  33.021  11.091
94701W        W63031  39.830   1.395   4.625
94702W        W63032  15.747  37.051  13.809
94703W        W63033   6.388  17.266   0.323
94704W        W63034  29.027  38.413  12.383
94705W        W63035  22.562  32.429   4.315
94706W        W63036  40.808  24.167  10.486
94707W        W63037   3.225   6.417  13.862
94708W        W63038  21.544  34.908  11.377
94709W        W63039  27.518  11.234   1.227
94710W        W63040   4.897  18.120   0.449
94711W        W63041  27.688   4.920   1.894
94712W        W63042  10.154   9.395  10.641
94713W        W63043  18.183  11.147  14.499
94714W        W63044  42.318  10.723   0.756
94715W        W63045  38.874   2.275  12.418
94716W        W63046  33.030  42.798  12.094
94717W        W63047  14.263  31.137   1.917
94718W        W63048  36.016  37.484   4.182
94719W        W63049   3.237  26.695  12.894
94720W        W63050  18.151  25.095  10.552
94721W        W63051  18.564  26.675  11.573
94722W        W63052  12.812  36.491   2.392
94723W        W63053  11.344  41.953  11.903
94724W        W63054  26.480  32.044  13.873
94725W        W63055  22.214  39.378   3.274
94726W        W63056   6.858  37.025  12.842
94727W        W63057  23.715   1.866  14.894
94728W        W63058  40.397  24.035  14.384
94729W        W63059   1.295  11.357   4.648
94730W        W63060  36.090  44.330  14.306
94731W        W63061   3.324   6.401  11.883
94732W        W63062  13.294  25.030  10.019
94733W        W63063  38.852  27.990  10.995
94734W        W63064  15.688  15.313   3.365
94735W        W63065  28.510  34.013   5.624
94736W        W63066  13.238  21.042  14.435
94737W        W63067  25.057  11.848   3.695
94738W        W63068  14.130   4.933  14.510
94739W        W63069  42.922  37.067   2.251
94740W        W63070  33.456  33.963   4.660
94741W        W63071  41.027   8.751   0.753
94742W        W63072  28.598  25.619   4.221
94743W        W63073  36.977  20.656  14.962
94744W        W63074   2.422  12.346   4.246
94745W        W63075  14.800  32.913   0.873
94746W        W63076  20.204  21.550   2.276
94747W        W63077  26.685  20.625   4.600
94748W        W63078  37.423  44.300   5.187
94749W        W63079  33.584  23.024   3.311
94750W        W63080   4.221   7.854  14.995
94751W        W63081  21.598  24.665  10.597
94752W        W63082   2.370  10.365   3.342
94753W        W63083  42.865  38.515   1.244
94754W        W63084  17.697  27.562   0.317
94755W        W63085  21.515  40.997  12.463
94756W        W63086   7.287  38.347   4.806
94757W        W63087   8.359  30.116  14.839
94758W        W63088  42.526  17.224   4.703
94759W        W63089  11.372   9.250  12.992
94760W        W63090  25.526  30.050  14.922
94761W        W63091  39.953  42.817  12.948
94762W        W63092   9.342  34.491  13.955
94763W        W63093  31.095  27.463  12.061
94764W        W63094  35.402  10.826  13.013
94765W        W63095  23.129   2.440  13.028
94766W        W63096   9.246  19.741   5.267
94767W        W63097  42.836  32.018  14.987
94768W        W63098  10.274   9.225  10.974
94769W        W63099  35.431  12.193  10.405
94770W        W63100  41.009  41.307   4.115
94771W        W63101  28.935  35.542   3.739
94772W        W63102   3.722  26.002  11.386
94773W        W63103  37.846  23.509   2.715
94774W        W63104  35.384  13.351   0.840
94775W        W63105  25.090   8.389   2.765
94776W        W63106   8.229  14.795  14.815
94777W        W63107  32.030   8.778  13.426
94778W        W63108  12.226  28.011   2.384
94779W        W63109  38.353  30.636   5.275
94780W        W63110  28.681  22.228  11.964
94781W        W63111  31.531  12.236  14.445
94782W        W63112  18.669  17.680  12.047
94783W        W63113  35.592   9.349  12.384
94784W        W63114   4.250  35.367  12.978
94785W        W63115  11.776  28.545  10.500
94786W        W63116   9.178  14.130  12.558
94787W        W63117   3.436  40.399  13.365
94788W        W63118  35.038  11.642   5.111
94789W        W63119   7.675  42.295  11.583
94790W        W63120  18.712  34.484  10.540
94791W        W63121  22.529  35.976   4.294
94792W        W63122  11.764  18.085   3.233
94793W        W63123   8.684  18.132   4.345
94794W        W63124  22.020  41.441  12.878
94795W        W63125   1.376  39.811   3.245
94796W        W63126  38.570   1.977   4.648
94797W        W63127  26.209  10.747  11.472
94798W        W63128  29.474  32.031  12.075
94799W        W63129  14.098  24.586   3.753
94800W        W63130  39.371  30.430   5.259
94801W        W63131  36.515   7.783  10.485
94802W        W63132   5.330   4.257   1.440
94803W        W63133  10.139  23.991  11.107
94804W        W63134  19.244  19.063  10.897
94805W        W63135   9.704  42.298  12.922
94806W        W63136   5.293  17.243  13.864
94807W        W63137  10.838  27.187   0.321
94808W        W63138  26.001   7.850   3.332
94809W        W63139   2.372  18.551  12.383
94810W        W63140  32.067   9.300  13.833
94811W        W63141   3.430  20.044  14.927
94812W        W63142  16.587  36.497  10.546
94813W        W63143  16.581   4.245   0.417
94814W        W63144  13.221  31.543   2.318
94815W        W63145  30.936  11.731   1.260
94816W        W63146   1.800  22.685  11.954
94817W        W63147   6.838   5.207   0.418
94818W        W63148  11.242   8.267   1.252
94819W        W63149  19.236  23.122  14.460
94820W        W63150  42.971  21.684  13.976
94821W        W63151  14.137   3.714  11.857
94822W        W63152   0.308  19.183   0.770
94823W        W63153  29.470   4.707   3.277
94824W        W63154  41.925  21.728  14.512
94825W        W63155  25.491  35.908   2.345
94826W        W63156  42.008  18.767   1.298
94827W        W63157   8.786  19.275  11.077
94828W        W63158  44.464   2.282  14.931
94829W        W63159  25.128  20.199   1.225
94830W        W63160  14.113  32.062   5.131
94831W        W63161  17.770  32.979  11.473
94832W        W63162  40.020  40.845  11.059
94833W        W63163  15.645  19.226   4.291
94834W        W63164   9.732  44.906  10.556
94835W        W63165  17.163   0.929   4.726
94836W        W63166  17.297  10.713   3.851
94837W        W63167  33.967  39.536   3.845
94838W        W63168   5.254  27.126   0.783
94839W        W63169  37.430  41.824  14.446
94840W        W63170  33.458  32.986  14.891
94841W        W63171  26.682  35.096   0.395
94842W        W63172   1.757  43.796   0.882
94843W        W63173  44.932   6.238  10.485
94844W        W63174  10.166  26.683  11.964
94845W        W63175  37.545   5.691   4.747
94846W        W63176  39.424  14.221  13.014
94847W        W63177   5.408  39.854  11.479
94848W        W63178  14.803  30.578   3.732
94849W        W63179   0.396  26.667  10.938
94850W        W63180  33.905  30.153   2.398
94851W        W63181  37.001  21.228  13.540
94852W        W63182  15.690   0.435   4.346
94853W        W63183  35.445  31.606   3.299
94854W        W63184  27.033  43.372   0.398
94855W        W63185  30.508  15.696   2.321
94856W        W63186  18.186  20.045   4.266
94857W        W63187  27.143  22.162   0.735
94858W        W63188  15.311  25.974  11.070
94859W        W63189  20.049  33.444  12.471
94860W        W63190  32.901  28.147  14.929
94861W        W63191   4.313  12.120   4.820
94862W        W63192  28.450  15.118  14.014
94863W        W63193  17.761  13.705   4.730
94864W        W63194  42.891  29.056  13.513
94865W        W63195  35.927  27.007  11.592
94866W        W63196  21.262   3.825  12.574
94867W        W63197  14.718  25.157   5.269
94868W        W63198   9.771  35.364  14.480
94869W        W63199   1.879  32.631  10.891
94870W        W63200  13.762  40.391   0.411
94871W        W63201  18.785  39.426  14.505
94872W        W63202   7.234  25.088   2.799
94873W        W63203  24.488  29.147   4.772
94874W        W63204  25.656   9.823   3.862
94875W        W63205  31.945  25.154   2.861
94876W        W63206  40.537  21.630  13.971
94877W        W63207  26.021   5.192   3.260
94878W        W63208  22.561   7.848  12.926
94879W        W63209  39.896  22.233  13.328
94880W        W63210  39.449  42.476   4.281
94881W        W63211   3.733   3.872   3.814
94882W        W63212  26.151   6.290  11.007
94883W        W63213  13.241  26.667  10.447
94884W        W63214  15.182  35.067  12.389
94885W        W63215  29.608  40.025   2.392
94886W        W63216  23.610   4.227  13.823
94887W        W63217   8.311   4.938   2.413
94888W        W63218  40.321  44.970   3.300
94889W        W63219   1.758   7.276   1.917
94890W        W63220  14.721   4.791  12.956
94891W        W63221  41.534  19.246  14.783
94892W        W63222  25.103  12.689   4.688
94893W        W63223  16.160  13.810  12.444
94894W        W63224   0.465   5.428   2.680
94895W        W63225  27.096  42.317   0.932
94896W        W63226   7.752  35.069   3.154
94897W        W63227  24.575  26.957   3.864
94898W        W63228   5.345  21.102   3.195
94899W        W63229  34.373  31.017  12.579
94900W        W63230   1.267  14.167   2.756
94901W        W63231  14.258  17.135   2.288
94902W        W63232  17.307  30.566  12.880
94903W        W63233  11.761  38.999  10.456
94904W        W63234  15.654  18.148   4.142
94905W        W63235  33.072  28.457   4.710
94906W        W63236  34.902  31.970   0.352
94907W        W63237  20.700  24.665  13.049
94908W        W63238  12.330  15.587  12.858
94909W        W63239  39.373  38.956  10.009
94910W        W63240  36.468  13.234   2.274
94911W        W63241  23.718   6.706   2.356
94912W        W63242  30.453  40.976  12.013
94913W        W63243  31.937  40.946   3.222
94914W        W63244  16.255  11.708   1.332
94915W        W63245  34.583  29.563   2.889
94916W        W63246  36.856  23.638   4.289
94917W        W63247   4.368  19.760  13.517
94918W        W63248  42.005  39.979   3.150
94919W        W63249  41.934  37.870  10.438
94920W        W63250   5.396   6.877  12.824
94921W        W63251  39.816  26.154  11.556
94922W        W63252  38.329  30.561  14.342
94923W        W63253  28.664  29.533   2.390
94924W        W63254  44.933  13.639  13.384
94925W        W63255  41.918  26.203   1.259
94926W        W63256  10.802   3.307  10.407
94927W        W63257  43.330  21.629  11.596
94928W        W63258   9.191  12.755  14.482
94929W        W63259  24.230  22.058   3.769
94930W        W63260  12.296   8.665  11.900
94931W        W63261  28.181  23.580   0.924
94932W        W63262  37.391  43.777  12.482
94933W        W63263   3.938   1.879  11.915
94934W        W63264  14.656  43.866  14.337
94935W        W63265  22.183  39.409   1.718
94936W        W63266  35.990  12.142  12.556
94937W        W63267   2.836  40.438   4.724
94938W        W63268  42.321   5.925   3.808
94939W        W63269   8.189  35.522  11.089
94940W        W63270   3.900  34.864   0.398
94941W        W63271  36.087  38.403  12.437
94942W        W63272  19.240  10.644   0.854
94943W        W63273  31.964  30.447  13.480
94944W        W63274  40.043  43.332   3.200
94945W        W63275  30.632  14.644   2.799
94946W        W63276  41.791  30.654   0.480
94947W        W63277  42.513  38.475   0.872
94948W        W63278  31.965   0.454  14.811
94949W        W63279   9.313  28.946   4.682
94950W        W63280  28.133   0.311  11.035
94951W        W63281  29.040   4.829  12.974
94952W        W63282   9.777  33.568   1.221
94953W        W63283  36.354  32.139  12.454
94954W        W63284  40.422  23.145  12.461
94955W        W63285  20.595  41.475  13.452
94956W        W63286   2.437  13.254   3.150
94957W        W63287  44.759  22.694  11.492
94958W        W63288  33.876  16.133   4.117
94959W        W63289   6.731   0.848   2.694
94960W        W63290  38.428   2.831   4.159
94961W        W63291   5.884  27.128   3.796
94962W        W63292  43.920  17.181  11.477
94963W        W63293  17.119  31.144  13.867
94964W        W63294  18.194  23.018   4.818
94965W        W63295  16.176  11.666  10.484
94966W        W63296   0.988  16.758   4.198
94967W        W63297  28.475  16.267   2.402
94968W        W63298   8.895  13.775   1.340
94969W        W63299   2.946  36.448  12.554
94970W        W63300  15.753  25.193   3.368
94971W        W63301  27.080  36.866  10.898
94972W        W63302  35.400  24.044  11.031
94973W        W63303  30.474  20.214   0.395
94974W        W63304  39.868  20.577  14.992
94975W        W63305  40.809  37.906  10.626
94976W        W63306  23.593  18.153  14.869
94977W        W63307  44.318  33.539   0.908
94978W        W63308  41.432  17.761   4.636
94979W        W63309   5.330  43.002  13.942
94980W        W63310  12.123  30.650  10.458
94981W        W63311  34.882   5.689  10.566
94982W        W63312  21.234  33.082  11.585
94983W        W63313   2.827  17.270  13.987
94984W        W63314  22.612  21.031  13.499
94985W        W63315   7.260  41.863  10.578
94986W        W63316  33.496  43.816   3.798
94987W        W63317   2.425  14.115  14.395
94988W        W63318  10.772  38.820  10.585
94989W        W63319  24.079  34.106   3.790
94990W        W63320  42.325  19.599   1.705
94991W        W63321   1.333  10.209  10.962
94992W        W63322  10.197  30.996   3.170
94993W        W63323   9.800  16.673   4.191
94994W        W63324  27.018   5.239  11.099
94995W        W63325  37.086   8.330   1.723
94996W        W63326  35.888  25.682  11.533
94997W        W63327  21.676  27.018  11.376
94998W        W63328  41.421  44.364  13.502
94999W        W63329  12.796  11.337  13.962
95000W        W63330  38.047  44.302  10.637
95001W        W63331   8.773  39.342  12.448
95002W        W63332  38.450  22.539   4.629
95003W        W63333  19.129  21.081  13.031
95004W        W63334  16.274  15.589   3.218
95005W        W63335   5.907  37.858  13.487
95006W        W63336  22.747  32.475  11.099
95007W        W63337   4.902  34.447   4.652
95008W        W63338  43.461  26.580   2.847
95009W        W63339  19.694  30.058   9.948
95010W        W63340   6.824  28.138   1.334
95011W        W63341  30.606  31.897   1.309
95012W        W63342  32.502  38.848  14.499
95013W        W63343  17.723  20.046   3.651
95014W        W63344  15.321  38.430   3.172
95015W        W63345  42.390   7.373   2.405
95016W        W63346   4.437  40.449  12.477
95017W        W63347  40.318  31.913   1.842
95018W        W63348   7.799   1.473   3.255
95019W        W63349  11.257  33.980  14.016
95020W        W63350  35.418  36.931  10.959
95021W        W63351  10.302  20.083   1.339
95022W        W63352  18.749   0.787  11.958
95023W        W63353   6.702   3.301   1.816
95024W        W63354  17.736  34.058  12.083
95025W        W63355  26.122   4.763   3.337
95026W        W63356  44.315  35.083   5.161
95027W        W63357  34.965  20.103  11.995
95028W        W63358  29.033  40.317   1.220
95029W        W63359  42.867  31.141   5.217
95030W        W63360   3.272  20.256   4.643
95031W        W63361  28.470  23.166   1.355
95032W        W63362  15.216   7.371   4.806
95033W        W63363  35.447   4.828  14.433
95034W        W63364  23.597  29.623  10.952
95035W        W63365   7.783   8.207   3.255
95036W        W63366  41.365  26.695  14.933
95037W        W63367  26.495  11.335   3.857
95038W        W63368  32.997   2.398   0.832
95039W        W63369  18.117  37.397   3.382
95040W        W63370  30.914  38.338   4.310
95041W        W63371  10.140   8.813   0.961
95042W        W63372  26.698   3.230   2.326
95043W        W63373  26.024  23.711  13.414
95044W        W63374  19.597  41.474   1.406
95045W        W63375  34.577   9.796   0.888
95046W        W63376  13.146  30.465   4.177
95047W        W63377  22.249   2.805  12.406
95048W        W63378  21.149  18.184  13.439
95049W        W63379  25.477  38.031  14.012
95050W        W63380   5.783  13.607  10.594
95051W        W63381  35.372   5.812  11.014
95052W        W63382   9.203  12.759   2.276
95053W        W63383  12.747  34.069   3.688
95054W        W63384  38.433  19.582  12.950
95055W        W63385  19.049  28.051   4.156
95056W        W63386  39.914   4.231   0.748
95057W        W63387  14.208   6.700   0.369
95058W        W63388  41.529   5.738  11.504
95059W        W63389  35.462  41.432   4.728
95060W        W63390  32.486  38.847   4.761
95061W        W63391  29.015  17.303  11.907
95062W        W63392  40.337  41.888   1.743
95063W        W63393  40.405  42.486  10.427
95064W        W63394   5.275  31.473  10.450
95065W        W63395  34.481  33.552  14.974
95066W        W63396   5.368  12.617  11.892
95067W        W63397  40.337  32.527  14.860
95068W        W63398   9.263  31.153  12.071
95069W        W63399  28.942  18.129  12.075
95070W        W63400   2.424   2.814   4.799
95071W        W63401   3.944  12.796  10.072
95072W        W63402  23.055  33.548   1.312
95073W        W63403  27.475   3.934  12.473
95074W        W63404  11.732  12.185  14.787
95075W        W63405  11.132  28.168  13.359
95076W        W63406  35.456  25.700  12.405
95077W        W63407  36.961  14.698  11.424
95078W        W63408  16.086  27.575  11.590
95079W        W63409  23.142  22.194   2.891
95080W        W63410  25.180  40.345   4.209
95081W        W63411  16.802   9.230   4.325
95082W        W63412   4.432   6.707  11.393
95083W        W63413  34.408   7.298  14.820
95084W        W63414  39.866  43.966   1.702
95085W        W63415  38.899   2.397  14.856
95086W        W63416  12.180  18.555   4.788
95087W        W63417  14.214   4.254   2.309
95088W        W63418  26.111  27.519   2.340
95089W        W63419  20.726  37.895   4.221
95090W        W63420  31.447  31.995  12.978
95091W        W63421   4.212  41.396   0.847
95092W        W63422  18.611   4.448   4.263
95093W        W63423   6.825  16.312  12.053
95094W        W63424   4.323  39.899  13.962
95095W        W63425   1.951   5.219   3.199
95096W        W63426   1.403  30.568  14.306
95097W        W63427  15.217  44.430  12.910
95098W        W63428   6.891  29.953  12.393
95099W        W63429  30.585  11.722  14.831
95100W        W63430  25.643  23.232  11.383
95101W        W63431   9.646   0.395  12.479
95102W        W63432  36.993  37.424   4.619
95103W        W63433   9.387  16.813  13.015
95104W        W63434  39.520   3.747  12.455
95105W        W63435   9.303   7.283   5.165
95106W        W63436  41.307  27.458   3.342
95107W        W63437  20.712  30.136  10.609
95108W        W63438  30.499  20.552  14.490
95109W        W63439  28.549  23.665  14.942
95110W        W63440  22.622  14.212  12.532
95111W        W63441  34.045  37.958   0.379
95112W        W63442   4.338  21.643   3.235
95113W        W63443  34.039  22.615   1.850
95114W        W63444  18.144  22.576   9.992
95115W        W63445  20.072   9.203   1.849
95116W        W63446  12.324  42.308   2.222
95117W        W63447  14.331  24.195   1.217
95118W        W63448   9.283  18.129  14.367
95119W        W63449   2.848   4.363  13.338
95120W        W63450  44.961   2.791  10.891
95121W        W63451  10.771  14.185   4.611
95122W        W63452  20.756  42.457   1.335
95123W        W63453  19.659  33.426   4.354
95124W        W63454   1.304   5.864   3.767
95125W        W63455  38.456  27.539   4.289
95126W        W63456  11.138  40.805   3.366
95127W        W63457  18.261  23.000  14.824
95128W        W63458  19.537  26.161  13.377
95129W        W63459   6.891   3.936   4.792
95130W        W63460   6.783   8.869   0.793
95131W        W63461   0.487  43.435  12.872
95132W        W63462  42.405  39.375  14.919
95133W        W63463  20.069  19.222  12.006
95134W        W63464  15.282  37.885  12.481
95135W        W63465   0.971  37.075   0.929
95136W        W63466  36.023  33.919   2.876
95137W        W63467  14.696   0.891  14.885
95138W        W63468  40.817  10.709  12.870
95139W        W63469  40.021  41.875  10.499
95140W        W63470  43.345  41.511  13.048
95141W        W63471  41.445  34.075   3.661
95142W        W63472  38.856  13.839  10.146
95143W        W63473  17.649  21.732  13.428
95144W        W63474  25.605  10.366   9.956
95145W        W63475   8.879  35.017   3.179
95146W        W63476  43.318  18.174  13.051
95147W        W63477  31.582  39.953  13.916
95148W        W63478  33.934  32.467  12.511
95149W        W63479  42.893  22.528   4.206
95150W        W63480  13.763  25.140   3.196
95151W        W63481  16.148   4.377   0.817
95152W        W63482   6.695  16.285  13.850
95153W        W63483   4.416  28.160  12.064
95154W        W63484  21.610  10.143   9.629
95155W        W63485  10.274  44.816  11.377
95156W        W63486  16.747  28.113   0.281
95157W        W63487  30.562  15.625  13.347
95158W        W63488  29.577  16.635   0.821
95159W        W63489  18.125  18.785   3.761
95160W        W63490  17.250  31.460  11.378
95161W        W63491  31.907  27.654  14.383
95162W        W63492  43.514  30.429   2.337
95163W        W63493  37.854  40.456  14.000
95164W        W63494  20.727  20.143   0.387
95165W        W63495  22.095  28.438  13.408
95166W        W63496  43.896  20.230   0.324
95167W        W63497  19.113  40.309  11.426
95168W        W63498   9.843  15.326   4.141
95169W        W63499  43.382   9.366   1.427
95170W        W63500  23.112  27.096  11.606
95171W        W63501   3.381  37.012   0.862
95172W        W63502  29.928  24.582   4.242
95173W        W63503  31.092  16.637   4.226
95174W        W63504  28.678  35.446  13.053
95175W        W63505  37.008  31.967  13.943
95176W        W63506   1.780   8.284  12.070
95177W        W63507  16.731  44.475  14.023
95178W        W63508  20.642  18.263  12.375
95179W        W63509  19.113  10.809  13.434
95180W        W63510  37.386  20.563   3.781
95181W        W63511  10.198  30.973   2.353
95182W        W63512  39.902   9.815  11.076
95183W        W63513  14.598  30.658   2.183
95184W        W63514  44.437  17.693  11.599
95185W        W63515  24.481   9.665  13.010
95186W        W63516  32.891   9.246  12.066
95187W        W63517  21.212  34.426   3.193
95188W        W63518  28.606  20.633  11.093
95189W        W63519  23.042   7.327  10.598
95190W        W63520  29.474  44.425   5.285
95191W        W63521  27.166  13.278   3.750
95192W        W63522  41.896   2.273   0.939
95193W        W63523  19.228   7.365  13.924
95194W        W63524  36.443  23.663  13.894
95195W        W63525   5.910   2.924   0.480
95196W        W63526   2.736  19.132  11.436
95197W        W63527  40.508  17.655  14.770
95198W        W63528   2.449  18.757   0.752
95199W        W63529  24.688  33.878   2.835
95200W        W63530  21.580  25.469  11.037
95201W        W63531  33.126   3.870   1.850
95202W        W63532  17.730  23.694   0.866
95203W        W63533  25.161  29.527   2.337
95204W        W63534   3.268  44.847   2.715
95205W        W63535  21.211  14.682  14.426
95206W        W63536  24.547  39.403  11.947
95207W        W63537   2.232  16.746   3.852
95208W        W63538  34.891  35.474   1.885
95209W        W63539  30.496  15.196  13.893
95210W        W63540  33.536  25.679  14.386
95211W        W63541  33.512  13.798   4.183
95212W        W63542  38.895  15.757  11.499
95213W        W63543  24.080  16.621   0.404
95214W        W63544  34.943  28.049  14.382
95215W        W63545  22.181   0.941  13.352
95216W        W63546  16.202   0.983  10.639
95217W        W63547   7.205   9.254   2.811
95218W        W63548   4.259  12.697  12.876
95219W        W63549  15.140  42.470   0.354
95220W        W63550  31.623  39.931   3.700
95221W        W63551  16.635  36.546   0.331
95222W        W63552   9.311  15.786   2.789
95223W        W63553   4.753  32.965   4.354
95224W        W63554  16.147   7.666   1.416
95225W        W63555  32.436  44.475  12.859
95226W        W63556  43.347  40.416   3.639
95227W        W63557   3.295  41.324   2.692
95228W        W63558  24.116   2.460   2.851
95229W        W63559  13.155  26.155   2.185
95230W        W63560  41.854  22.130   4.346
95231W        W63561  36.530  29.995  10.997
95232W        W63562  42.913  32.534   3.758
95233W        W63563   2.460  31.986  12.569
95234W        W63564  27.144  29.664   3.219
95235W        W63565  35.994  41.983  10.998
95236W        W63566  31.984  29.481   4.141
95237W        W63567  26.164  15.724  11.129
95238W        W63568  20.269  28.509  12.343
95239W        W63569  13.653   0.818  14.310
95240W        W63570  44.807  37.884  13.900
95241W        W63571  37.972  30.593   5.166
95242W        W63572  27.000  27.600   3.292
95243W        W63573  23.711  36.557   3.649
95244W        W63574  34.542  23.573  11.061
95245W        W63575  28.571  24.662  13.440
95246W        W63576  43.417  23.083  12.384
95247W        W63577  25.688   7.802   3.700
95248W        W63578  38.892  22.709   1.897
95249W        W63579  14.209  41.987  12.426
95250W        W63580  24.502  22.660  10.905
95251W        W63581  20.542  36.571  12.548
95252W        W63582  17.247  30.546  10.443
95253W        W63583  16.304  39.336   1.922
95254W        W63584  26.579  25.705   1.915
95255W        W63585  29.573  39.815  14.920
95256W        W63586  15.090   6.712  14.864
95257W        W63587  17.261   5.200   3.273
95258W        W63588  14.812  38.478   1.727
95259W        W63589  18.626  10.249   4.236
95260W        W63590  35.021   6.873   1.723
95261W        W63591  10.323  13.201   0.737
95262W        W63592  33.021  34.594  12.443
95263W        W63593  38.960  22.071   3.794
95264W        W63594  41.481  16.800  14.798
95265W        W63595  14.825   4.253   1.298
95266W        W63596  29.042  39.857  12.545
95267W        W63597  43.394  10.288   0.273
95268W        W63598  22.121  28.164   4.235
95269W        W63599   4.829  25.132   4.157
95270W        W63600  33.060  17.255  13.483
95271W        W63601  15.747  37.011   2.261
95272W        W63602  17.720  23.099   4.726
95273W        W63603   2.461  18.229  12.342
95274W        W63604  27.141   6.682  10.434
95275W        W63605   4.439  37.882  10.422
95276W        W63606  10.254  31.013  13.385
95277W        W63607  26.101  18.170   2.230
95278W        W63608  43.854   2.238   2.780
95279W        W63609  33.000  13.732   2.727
95280W        W63610  41.378  31.411   2.308
95281W        W63611  12.791   0.776  10.975
95282W        W63612  34.534  33.556  12.898
95283W        W63613  30.028  30.476  12.387
95284W        W63614  22.174   5.816  14.365
95285W        W63615  33.584  24.117  10.521
95286W        W63616  18.616  17.118   4.802
95287W        W63617  36.995  33.048  14.370
95288W        W63618  19.193  39.492  14.468
95289W        W63619  22.199   7.799  14.867
95290W        W63620  37.531  22.735   0.875
95291W        W63621  28.488  29.990  12.576
95292W        W63622   0.843  29.483  11.373
95293W        W63623  15.257  37.575  12.003
95294W        W63624  44.852   1.331  14.936
95295W        W63625   2.426  10.727   4.337
95296W        W63626  27.006  20.639   1.699
95297W        W63627  17.178  44.892   1.710
95298W        W63628   2.441  28.604  14.001
95299W        W63629  11.732  33.076   2.272
95300W        W63630  27.455   3.451   0.449
95301W        W63631   2.767  16.192  12.940
95302W        W63632  35.907  36.565  13.455
95303W        W63633  15.165  28.503   2.378
95304W        W63634  42.516  35.479  13.058
95305W        W63635  36.864  38.432   4.197
95306W        W63636   6.391   7.275   4.316
95307W        W63637  36.015  29.579   3.732
95308W        W63638   8.355   4.769   2.717
95309W        W63639  19.729  41.382  14.025
95310W        W63640  44.010   5.863  14.924
95311W        W63641   7.765  19.687  12.438
95312W        W63642   1.946   0.467  11.072
95313W        W63643   0.925  32.038  13.395
95314W        W63644  23.583  23.119   1.827
95315W        W63645   7.910  44.944   1.242
95316W        W63646   1.779   1.887  14.959
95317W        W63647   9.808  20.573  12.432
95318W        W63648  27.592  30.095  10.560
95319W        W63649  16.757  12.742   3.210
95320W        W63650   3.298  31.440  11.399
95321W        W63651  37.518  30.574  12.579
95322W        W63652  16.759  24.075  14.771
95323W        W63653  13.637  12.321   4.602
95324W        W63654  15.730  29.554   3.864
95325W        W63655  31.148  38.827   1.798
95326W        W63656  17.751  28.464  13.793
95327W        W63657  44.824  34.399  12.008
95328W        W63658  21.521  13.314   0.816
95329W        W63659  24.979   7.765   4.122
95330W        W63660  42.828  10.221   5.298
95331W        W63661  37.989  21.643  11.435
95332W        W63662  22.551  16.745  11.118
95333W        W63663  34.994  41.832   0.371
95334W        W63664   1.470  43.277  14.758
95335W        W63665  16.127  29.632   1.336
95336W        W63666  18.634  26.088   5.587
95337W        W63667  26.179  41.337  11.101
95338W        W63668   5.688  11.777  14.012
95339W        W63669  35.575  10.154   5.227
95340W        W63670  32.920  10.772  13.890
95341W        W63671  25.673  26.600   3.728
95342W        W63672  12.701   0.483  14.308
95343W        W63673   4.295   7.195   1.309
95344W        W63674  12.248  17.607  14.774
95345W        W63675  40.440  10.698  11.964
95346W        W63676  39.401  25.529  11.538
95347W        W63677  41.821  10.743   2.262
95348W        W63678  18.715   9.151  13.399
95349W        W63679  30.061   1.868   2.336
95350W        W63680  34.117  36.489   1.904
95351W        W63681  44.913  38.451   2.669
95352W        W63682  14.197  40.939  13.396
95353W        W63683  32.100  24.200  13.855
95354W        W63684  38.421  26.524  11.907
95355W        W63685   5.750  31.921  11.518
95356W        W63686  13.136   7.670  11.576
95357W        W63687   1.398  32.525  14.374
95358W        W63688  42.964  30.153   0.459
95359W        W63689  40.468  20.680   1.859
95360W        W63690  25.610  38.548  14.395
95361W        W63691   1.396  22.220   3.151
95362W        W63692   7.190  19.715  14.823
95363W        W63693  17.614  23.072  13.524
95364W        W63694  41.846  13.619   3.835
95365W        W63695   2.357  11.859   3.262
95366W        W63696   2.913  18.205  13.345
95367W        W63697   0.837  30.513   4.295
95368W        W63698  19.131  24.688   0.416
95369W        W63699  34.877   6.838   3.827
95370W        W63700  20.760  26.527   2.722
95371W        W63701  20.122  23.692   1.440
95372W        W63702  43.950   6.196  12.372
95373W        W63703   9.280  37.574  12.060
95374W        W63704  27.584  21.675   3.784
95375W        W63705   0.900   5.283  10.553
95376W        W63706  24.627  12.717  10.477
95377W        W63707  30.656  19.268   1.718
95378W        W63708   7.249  39.967   2.366
95379W        W63709   1.397  26.078   4.817
95380W        W63710   9.230  30.150  14.851
95381W        W63711   2.285  29.987  11.861
95382W        W63712  27.189   0.767  14.020
95383W        W63713  22.643  18.070   0.937
95384W        W63714  26.070  19.701   0.918
95385W        W63715   0.391  25.489  13.453
95386W        W63716   1.236  39.063  13.947
95387W        W63717   3.399   2.240   1.798
95388W        W63718  22.515   2.845  14.397
95389W        W63719  21.237   5.851   3.644
95390W        W63720  32.071  16.073  14.979
95391W        W63721   7.696   6.814   2.855
95392W        W63722  31.475  32.887  10.530
95393W        W63723  28.986  36.894  11.458
95394W        W63724   8.313  36.504   0.331
95395W        W63725   4.239   4.888   4.683
95396W        W63726  31.589  36.440   2.323
95397W        W63727  31.124  18.677  11.128
95398W        W63728  40.890  17.653  11.916
95399W        W63729  15.674  39.552  14.880
95400W        W63730   0.348  26.623  11.521
95401W        W63731  30.941  37.540  13.326
95402W        W63732  39.482  38.494  12.868
95403W        W63733  15.193  21.132  12.875
95404W        W63734   3.788  26.988   1.911
95405W        W63735  44.260   8.253   0.874
95406W        W63736   5.262  35.014  13.422
95407W        W63737  41.895  38.335   4.200
95408W        W63738   6.359  19.662   5.132
95409W        W63739  30.557  31.439  11.404
95410W        W63740  29.984  14.697   0.421
95411W        W63741  20.567   6.377  12.863
95412W        W63742  30.590  37.391  14.424
95413W        W63743  42.823  42.912   3.786
95414W        W63744  23.569  18.283  10.538
95415W        W63745  38.351  21.555  14.449
95416W        W63746  10.806  30.655   2.667
95417W        W63747   2.813  41.944  10.551
95418W        W63748  26.026   6.804  10.451
95419W        W63749  31.419   3.716   2.304
95420W        W63750  27.687  37.081   2.336
95421W        W63751  25.643  11.236   3.383
95422W        W63752   3.244  21.695   2.262
95423W        W63753  21.144  27.052   0.750
95424W        W63754   7.387  29.538   2.795
95425W        W63755  34.982  24.684  12.971
95426W        W63756  19.753   3.392   3.669
95427W        W63757  11.683   6.892   0.378
95428W        W63758  44.319   2.918  10.915
95429W        W63759  15.100  27.085  12.078
95430W        W63760  20.267  12.632  11.119
95431W        W63761  40.404  27.559   4.262
95432W        W63762  18.754  41.437  14.000
95433W        W63763  22.747  11.147   4.232
95434W        W63764  21.740  30.482   2.673
95435W        W63765  27.625  18.089  10.982
95436W        W63766  31.537  33.896  11.060
95437W        W63767   4.349  13.815  10.480
95438W        W63768  16.808  17.098   4.254
95439W        W63769  12.317  37.859   3.208
95440W        W63770  10.757  30.554  13.050
95441W        W63771  23.207  38.413  10.420
95442W        W63772   2.877  39.997   2.186
95443W        W63773  37.337  23.193  11.398
95444W        W63774  26.067  18.147   0.395
95445W        W63775  14.610  39.890   3.692
95446W        W63776  23.599  42.805   0.942
95447W        W63777  25.218  44.932   3.170
95448W        W63778   6.912   0.438  14.493
95449W        W63779  41.041   3.459   1.316
95450W        W63780   5.367  36.891  10.955
95451W        W63781  16.598  17.721   0.770
95452W        W63782   9.301   3.283   1.320
95453W        W63783  18.163  29.437  14.493
95454W        W63784  27.058  37.458   4.301
95455W        W63785  40.028  25.663  12.399
95456W        W63786  32.533  14.786   4.643
95457W        W63787   1.888  43.020   2.211
95458W        W63788  30.495  34.587   4.277
95459W        W63789   8.396   3.950   1.410
95460W        W63790   1.370  28.108   0.893
95461W        W63791   0.758  16.702   2.672
95462W        W63792  32.535  29.452   2.179
95463W        W63793  26.529   8.191   2.297
95464W        W63794  11.360  13.267  10.984
95465W        W63795   6.416  44.853   4.784
95466W        W63796  33.130  30.034   0.438
95467W        W63797  11.197  43.873   4.799
95468W        W63798  16.729   4.255   4.196
95469W        W63799  27.672  39.365  10.474
95470W        W63800  40.490   3.301   5.108
95471W        W63801  29.508  32.621   4.740
95472W        W63802  40.375  30.534  14.955
95473W        W63803  24.066   7.354   4.149
95474W        W63804  23.984   3.408  12.850
95475W        W63805   8.263  40.986   4.611
95476W        W63806  34.437  36.924  10.985
95477W        W63807  21.124  41.843   1.703
95478W        W63808   9.183  12.829  11.606
95479W        W63809   9.820   7.337   0.805
95480W        W63810  43.964  16.102  13.993
95481W        W63811  40.389  40.009   1.910
95482W        W63812  22.557  37.936  12.482
95483W        W63813  27.945   1.751   3.316
95484W        W63814  31.452  42.438   3.370
95485W        W63815  32.517  30.618  11.554
95486W        W63816  10.190  37.370  14.362
95487W        W63817  14.162  26.084   4.741
95488W        W63818  16.135  36.573  12.546
95489W        W63819   6.855  25.493   2.371
95490W        W63820  38.547  19.077  11.004
95491W        W63821   1.464  35.072   1.341
95492W        W63822   6.339  30.622   1.720
95493W        W63823  14.335  12.712  14.817
95494W        W63824  42.319   3.250  14.462
95495W        W63825  26.606  31.458   1.368
95496W        W63826  35.503   2.949   1.291
95497W        W63827  29.046  23.609   1.913
95498W        W63828   4.918  27.687   3.644
95499W        W63829  32.934  39.861   3.870
95500W        W63830  20.112  24.686  11.451
95501W        W63831  40.881  10.666  12.511
95502W        W63832  20.743  44.887  11.980
95503W        W63833  12.624  23.215   3.796
95504W        W63834  35.871  16.217   3.231
95505W        W63835  32.912  41.970  11.865
95506W        W63836   4.782  23.120   2.359
95507W        W63837   8.349  32.087  11.541
95508W        W63838  17.617  23.033   1.744
95509W        W63839   9.806   9.212   1.232
95510W        W63840  34.890  31.098   2.730
95511W        W63841  36.452  16.591  12.424
95512W        W63842  15.215  35.934   3.813
95513W        W63843  43.437  42.385   4.116
95514W        W63844   7.678  22.516   3.729
95515W        W63845  26.071  36.900   4.625
95516W        W63846   5.218  17.083   0.768
95517W        W63847  33.885  33.587   4.623
95518W        W63848  42.370  15.737   2.677
95519W        W63849   9.312  40.999  11.585
95520W        W63850  44.354  17.247  14.825
95521W        W63851  35.463  39.061   2.769
95522W        W63852  41.037  24.548   4.262
95523W        W63853  28.030   4.819   4.745
95524W        W63854  26.521  24.628   1.404
95525W        W63855   7.308  35.361  12.883
95526W        W63856  13.350   1.396  13.910
95527W        W63857  16.574  34.119  14.792
95528W        W63858  21.250   2.439   1.371
95529W        W63859  29.167   2.748   0.264
95530W        W63860  15.128  18.109   3.768
95531W        W63861   3.355   0.294  13.821
95532W        W63862  39.012  29.919   1.907
95533W        W63863  16.102  26.064  10.629
95534W        W63864  33.510   1.281  11.476
95535W        W63865  32.416  30.092   4.233
95536W        W63866   9.860   3.741  11.933
95537W        W63867  38.973  13.839   0.736
95538W        W63868  31.960  12.359   2.380
95539W        W63869  18.223   1.759   1.873
95540W        W63870  19.761  11.136   1.909
95541W        W63871  12.278  40.031   4.336
95542W        W63872  10.234  28.956  13.455
95543W        W63873  18.755  27.636   4.329
95544W        W63874   1.419   3.373   2.265
95545W        W63875  31.510  11.230   3.310
95546W        W63876  30.460  30.632   0.852
95547W        W63877  12.352  10.277  13.902
95548W        W63878  33.568  11.798  10.097
95549W        W63879  24.642   8.272  14.282
95550W        W63880  25.987  26.969  10.891
95551W        W63881  40.917  17.731   1.829
95552W        W63882   4.255  41.890   2.839
95553W        W63883  30.965  31.050   3.349
95554W        W63884   9.241  26.980   2.875
95555W        W63885  27.654  29.097   4.792
95556W        W63886  35.457  18.116   4.722
95557W        W63887  16.141  41.887   1.699
95558W        W63888  14.647  12.714  14.363
95559W        W63889  42.498  30.987   3.234
95560W        W63890  25.146  38.522   1.725
95561W        W63891  28.184  34.598  13.343
95562W        W63892  15.271  11.322  12.017
95563W        W63893  12.188   2.438  13.504
95564W        W63894  12.730  32.561  13.351
95565W        W63895  12.768  41.440  13.027
95566W        W63896  13.181  21.582   2.384
95567W        W63897   8.845  22.679  12.405
95568W        W63898  29.007  43.923   2.409
95569W        W63899  13.815  14.200  12.076
95570W        W63900  24.607  18.236  12.929
95571W        W63901  13.814  19.174   0.853
95572W        W63902  40.390  13.294  13.321
95573W        W63903   4.924  21.614   4.128
95574W        W63904  38.884  14.239   2.890
95575W        W63905  20.267  42.413  11.403
95576W        W63906  44.270  30.924  13.346
95577W        W63907  23.228  43.817  12.004
95578W        W63908   1.769  34.080   1.312
95579W        W63909  23.554  27.468  13.905
95580W        W63910  31.441  35.549  14.032
95581W        W63911  44.455  19.188  13.884
95582W        W63912  26.082  43.848   0.869
95583W        W63913  20.130  37.489   3.254
95584W        W63914  27.975  10.139  13.823
95585W        W63915   0.470  15.772   3.211
95586W        W63916  16.730  32.406   0.349
95587W        W63917   9.357  26.563   0.769
95588W        W63918   6.910  20.032   0.342
95589W        W63919  22.563  15.711  10.918
95590W        W63920  25.092  33.123  12.531
95591W        W63921  41.318   9.648   2.900
95592W        W63922  25.965  32.051   1.845
95593W        W63923   6.759  28.145   4.765
95594W        W63924  16.738  26.675   5.100
95595W        W63925   7.895   4.866  11.966
95596W        W63926   2.338  11.786   5.188
95597W        W63927  44.322  40.951  10.944
95598W        W63928  34.549  33.952   4.211
95599W        W63929  29.536  27.466  11.569
95600W        W63930  35.492   6.851  12.921
95601W        W63931  39.358  20.613  14.765
95602W        W63932   0.871  33.453  10.058
95603W        W63933  22.506   0.783   2.690
95604W        W63934  24.003  35.590   1.231
95605W        W63935   8.389  19.174   0.789
95606W        W63936  22.226  34.057   3.357
95607W        W63937  13.808  40.368  11.582
95608W        W63938  31.435  23.569  14.289
95609W        W63939  12.798  22.093  11.881
95610W        W63940   3.853   8.241  14.807
95611W        W63941  12.142  25.588  14.824
95612W        W63942  14.751  22.126  10.551
95613W        W63943  35.593   7.274   3.287
95614W        W63944  41.021  37.402  14.912
95615W        W63945  41.979   1.480  10.468
95616W        W63946  18.275  11.266  14.899
95617W        W63947  33.621  44.307  12.826
95618W        W63948  21.588   8.761   2.693
95619W        W63949  40.845  27.975  12.356
95620W        W63950  13.625  30.468   3.238
95621W        W63951  30.935  23.995  14.836
95622W        W63952  19.583  35.097  12.835
95623W        W63953  44.849   6.403   0.774
95624W        W63954  32.396  24.200   0.262
95625W        W63955  41.448  34.461   1.785
95626W        W63956   7.725   5.358  14.782
95627W        W63957   4.856   5.378   2.825
95628W        W63958  21.629   2.321  13.992
95629W        W63959  16.590  23.048   1.226
95630W        W63960  25.587   9.712   1.288
95631W        W63961   8.834  16.692   0.380
95632W        W63962  41.346   2.834   2.241
95633W        W63963  32.919  13.317  14.489
95634W        W63964  44.359  24.177  10.922
95635W        W63965   2.960  43.484  13.894
95636W        W63966  17.732  16.674  13.979
95637W        W63967  32.094  10.835   4.126
95638W        W63968   5.195  15.234   1.433
95639W        W63969  28.442   8.712   0.752
95640W        W63970  43.979  17.751  14.859
95641W        W63971   5.701  37.052   0.854
95642W        W63972   2.437   8.275   2.829
95643W        W63973  29.003  43.993  12.500
95644W        W63974   9.662  25.530   0.768
95645W        W63975  20.121  21.135  12.022
95646W        W63976  33.884  38.371  13.971
95647W        W63977  19.564  16.249  11.927
95648W        W63978  31.639  33.944   4.620
95649W        W63979  38.337  24.995   1.844
95650W        W63980   6.402  32.502  11.388
95651W        W63981  10.334  11.694   3.631
95652W        W63982  37.465  31.117   3.344
95653W        W63983   1.950  19.736  11.087
95654W        W63984  16.127  42.999   4.791
95655W        W63985  19.063  31.014  11.552
95656W        W63986  39.919   2.723  14.502
95657W        W63987  26.665  26.698  12.383
95658W        W63988   7.179  30.503   0.392
95659W        W63989  41.036   1.840  10.981
95660W        W63990  40.908  37.508   0.949
95661W        W63991   8.301   9.678  10.520
95662W        W63992  19.548  32.518  13.356
95663W        W63993  32.015  17.083   3.162
95664W        W63994  11.745  44.858   3.786
95665W        W63995  38.048  44.857  11.595
95666W        W63996  36.385   8.245   4.695
95667W        W63997  21.090  40.311  13.029
95668W        W63998  16.079  38.945   4.646
95669W        W63999  44.301  24.008   1.317
95670W        W64000  20.262  35.430   2.706
95671W        W64001  43.890   6.737  12.032
95672W        W64002  17.256   7.707  12.438
95673W        W64003  23.097  30.018   0.796
95674W        W64004  19.154  25.534   0.928
95675W        W64005   7.340  12.818  14.880
95676W        W64006   8.895   3.446   2.307
95677W        W64007  18.143  13.262  13.909
95678W        W64008  21.180   9.381   2.240
95679W        W64009  13.616  16.205   4.184
95680W        W64010   1.955  15.322  14.832
95681W        W64011  11.210  20.070   2.252
95682W        W64012  36.374  28.151  10.121
95683W        W64013  40.411  22.571   5.131
95684W        W64014  27.542  34.049   0.446
95685W        W64015  41.466  37.910  14.286
95686W        W64016  25.485  31.005   3.633
95687W        W64017  28.540  30.009   1.323
95688W        W64018  29.967  11.182  11.013
95689W        W64019  35.450  26.499   2.728
95690W        W64020   5.302  36.857   9.466
95691W        W64021   8.798  12.805   0.951
95692W        W64022  20.170  28.978  10.592
95693W        W64023  37.989  24.213  11.598
95694W        W64024  34.415  19.082   4.698
95695W        W64025  17.153  10.850   1.854
95696W        W64026  36.470  27.017  12.831
95697W        W64027  23.991  25.524  14.887
95698W        W64028  41.503  28.439  13.015
95699W        W64029  20.632  26.694   4.292
95700W        W64030  12.727  24.503  10.433
95701W        W64031  34.061  28.551  10.442
95702W        W64032  38.932  38.047  14.899
95703W        W64033  10.361  21.562  14.988
95704W        W64034  25.635  31.568  14.355
95705W        W64035  44.895  44.884  10.446
95706W        W64036  14.187   3.832   0.807
95707W        W64037  18.660  26.138  13.458
95708W        W64038   6.821  23.013  11.465
95709W        W64039   5.884  13.124   2.413
95710W        W64040   2.767  43.305   1.378
95711W        W64041   4.367  23.593   2.797
95712W        W64042  16.088  41.940   2.382
95713W        W64043  28.973  27.094  12.339
95714W        W64044  34.950  26.208   4.612
95715W        W64045  29.112  26.187  11.419
95716W        W64046  25.652   0.449  14.350
95717W        W64047  29.120  18.603  14.367
95718W        W64048  36.013  31.943   4.723
95719W        W64049   0.449  37.337  14.412
95720W        W64050  35.005   1.788  12.028
95721W        W64051  32.522  44.994   1.775
95722W        W64052  25.027  32.926   4.299
95723W        W64053   8.390  20.696   1.823
95724W        W64054   5.262  27.012  11.981
95725W        W64055  29.551  33.428   2.810
95726W        W64056  44.933  43.507  12.375
95727W        W64057  12.115  34.547   1.228
95728W        W64058  38.438  43.321  13.983
95729W        W64059   5.826  23.688  11.593
95730W        W64060  19.270  41.869  10.455
95731W        W64061  16.750   8.704  12.346
95732W        W64062  12.200  16.282   3.792
95733W        W64063   1.483  10.643  14.381
95734W        W64064  11.792  37.348   2.898
95735W        W64065  44.408  17.265  11.388
95736W        W64066  29.523  13.219  14.767
95737W        W64067  25.490   9.700  12.438
95738W        W64068   6.833  39.931   3.714
95739W        W64069   7.199   6.859  10.640
95740W        W64070  23.164  16.661   0.799
95741W        W64071  35.950  22.227   3.277
95742W        W64072  24.698  29.618   1.336
95743W        W64073  26.627  16.616   0.388
95744W        W64074  21.074  25.680   1.749
95745W        W64075  38.549  14.802   4.599
95746W        W64076  19.095  27.660  12.023
95747W        W64077  24.721   5.211  12.403
95748W        W64078  10.690  33.389   4.276
95749W        W64079  27.549  31.085  10.625
95750W        W64080   6.753   8.195   0.736
95751W        W64081  40.475  38.445  12.421
95752W        W64082  17.154  33.447  14.824
95753W        W64083  31.561   4.414   2.717
95754W        W64084   3.404  23.517   2.326
95755W        W64085  19.132  38.947  10.969
95756W        W64086  42.396  28.561  14.924
95757W        W64087   0.784  26.995  12.908
95758W        W64088  19.695  26.492   1.289
95759W        W64089  39.851  24.585   0.951
95760W        W64090  29.011   3.396  12.441
95761W        W64091  28.078  33.050  13.824
95762W        W64092  40.861  32.002   1.785
95763W        W64093  40.851  36.999   3.339
95764W        W64094  27.126  19.586   4.694
95765W        W64095  12.251  38.828  10.916
95766W        W64096  24.634  11.662  12.862
95767W        W64097   8.781   0.392  10.906
95768W        W64098   7.374   2.340   1.798
95769W        W64099   3.390  11.633  14.338
95770W        W64100  19.608  39.513   3.785
95771W        W64101  15.262   8.688   0.345
95772W        W64102  33.384   8.688  11.531
95773W        W64103  21.135  35.950  14.032
95774W        W64104  27.541  41.437  14.952
95775W        W64105  15.207  17.648  10.964
95776W        W64106  11.622  31.602   0.905
95777W        W64107  16.804  11.775   2.779
95778W        W64108  32.142  37.855   4.740
95779W        W64109  10.140  35.012  14.809
95780W        W64110   5.306  36.450  12.475
95781W        W64111  27.569  14.204   0.747
95782W        W64112  24.590  23.020  14.999
95783W        W64113  31.510   1.328  13.443
95784W        W64114   8.202   7.695   0.258
95785W        W64115  27.114   5.744  11.056
95786W        W64116   4.803  36.063  11.108
95787W        W64117  37.560  13.765   2.666
95788W        W64118  17.786  25.567  10.092
95789W        W64119   3.716  34.032  12.577
95790W        W64120  35.917   8.375  14.773
95791W        W64121  34.993  15.244  14.994
95792W        W64122  44.354  20.155   4.303
95793W        W64123   2.729   6.835   1.243
95794W        W64124  30.443  40.345  11.979
95795W        W64125  18.721  41.535   2.731
95796W        W64126  12.850   2.249   3.310
95797W        W64127  31.951  36.559  13.403
95798W        W64128  39.555  10.221   1.285
95799W        W64129   4.776  20.058  13.354
95800W        W64130  39.372  43.831  13.494
95801W        W64131  29.517  15.700  14.999
95802W        W64132  41.896   5.385  13.837
95803W        W64133  28.100  33.395   3.688
95804W        W64134   7.395  21.613   2.237
95805W        W64135   2.431  40.985   4.157
95806W        W64136  25.123  17.777  11.918
95807W        W64137  22.684  21.078   2.388
95808W        W64138  19.536  15.674   0.319
95809W        W64139  33.980   0.454  13.449
95810W        W64140  36.885  24.705   4.257
95811W        W64141  44.902  14.744  11.986
95812W        W64142  13.165  14.241  10.027
95813W        W64143  10.711  43.838  12.558
95814W        W64144  19.601   0.817   3.229
95815W        W64145  24.216  35.101  11.972
95816W        W64146  32.557  31.637  13.886
95817W        W64147  11.840  12.169  13.508
95818W        W64148  44.994  26.479  13.962
95819W        W64149  34.040  11.824  12.493
95820W        W64150   0.256  21.262  14.949
95821W        W64151  40.866   8.759   1.311
95822W        W64152  39.821  25.199   2.702
95823W        W64153  12.183  41.489   3.767
95824W        W64154  39.894  44.281  11.948
95825W        W64155  16.602  18.253  12.345
95826W        W64156  25.609  37.352  14.378
95827W        W64157  44.371  19.085  13.489
95828W        W64158  28.048   8.197  13.890
95829W        W64159   0.790   1.922   4.710
95830W        W64160  28.098  19.775  10.521
95831W        W64161  13.841  16.625  11.895
95832W        W64162   2.963  13.664   1.277
95833W        W64163  20.564  19.283  12.512
95834W        W64164  43.974  28.508   2.860
95835W        W64165  41.848  43.301   3.788
95836W        W64166  37.420  36.944   2.315
95837W        W64167   1.248  35.095   4.287
95838W        W64168  22.744   9.791   9.922
95839W        W64169   7.267  10.644   0.955
95840W        W64170   8.697  32.508  14.363
95841W        W64171  14.251  27.557  12.948
95842W        W64172  12.746  37.909   0.763
95843W        W64173  25.216  12.652  13.996
95844W        W64174  40.406  12.297   0.766
95845W        W64175  17.756   0.803  10.613
95846W        W64176  15.737  44.268  11.004
95847W        W64177   9.812  31.044   1.425
95848W        W64178   4.438  16.597  11.058
95849W        W64179  14.175  43.807  10.545
95850W        W64180  28.143  13.836  11.974
95851W        W64181   1.899  29.661   1.406
95852W        W64182  29.462  29.563  11.451
95853W        W64183  32.562  21.616   1.390
95854W        W64184  26.075  24.645   0.934
95855W        W64185  19.049  35.900   1.719
95856W        W64186  14.693  24.615   2.730
95857W        W64187   9.753  34.913   0.320
95858W        W64188  17.627  39.911  10.433
95859W        W64189  11.632  35.084   0.929
95860W        W64190  22.555  35.376  12.465
95861W        W64191  15.737  12.805  13.467
95862W        W64192  33.896   2.272   2.287
95863W        W64193  33.527  24.973   4.809
95864W        W64194  22.619   7.849   5.089
95865W        W64195  35.387  28.675   1.343
95866W        W64196  30.095  42.951  11.060
95867W        W64197  10.297  27.182  11.520
95868W        W64198  33.898   4.450   1.451
95869W        W64199  23.697   0.270  10.972
95870W        W64200  28.507  24.989   4.723
95871W        W64201  25.593  32.909  13.868
95872W        W64202   1.483  29.516  11.392
95873W        W64203  26.509  38.456   2.400
95874W        W64204  34.391  26.080   3.737
95875W        W64205  22.142  40.911  11.560
95876W        W64206  26.633  11.802   4.261
95877W        W64207  20.752  42.950  10.503
95878W        W64208  37.892  12.698   4.774
95879W        W64209  19.652   9.258  10.528
95880W        W64210   1.281  11.296   3.287
95881W        W64211  28.625  24.023  10.928
95882W        W64212  27.459  30.993  11.040
95883W        W64213  31.062  23.546   2.354
95884W        W64214   9.265  16.116   2.876
95885W        W64215  26.616  40.389   2.359
95886W        W64216   7.360  41.398  12.521
95887W        W64217  22.663  32.927   1.850
95888W        W64218  20.746  24.181  14.407
95889W        W64219  30.497  14.704  14.853
95890W        W64220   4.717  37.427  11.967
95891W        W64221  30.630  26.168  11.890
95892W        W64222  42.989   0.450   2.809
95893W        W64223  14.813   6.890   2.744
95894W        W64224   4.296  33.974  14.358
95895W        W64225  13.681   9.702  10.924
95896W        W64226  22.171   4.224   1.753
95897W        W64227  27.125  44.773  11.602
95898W        W64228   5.376  36.427   0.385
95899W        W64229  33.999  20.642   1.336
95900W        W64230  24.198  18.125   5.240
95901W        W64231   4.240  14.702  10.583
95902W        W64232  12.692  35.543   3.801
95903W        W64233   9.762  41.905   0.283
95904W        W64234  36.850  25.168  12.555
95905W        W64235  19.128  26.534  14.828
95906W        W64236  14.137  18.268  13.414
95907W        W64237  43.831  44.926  13.391
95908W        W64238  43.793  37.344   3.150
95909W        W64239  10.643  17.681   0.385
95910W        W64240  27.455  20.527   1.386
95911W        W64241   7.812  37.000  12.929
95912W        W64242   9.391  37.076   1.430
95913W        W64243  36.461  38.833   2.742
95914W        W64244  19.546  13.340   5.149
95915W        W64245  34.878   6.308   3.288
95916W        W64246  29.994  31.464   9.984
95917W        W64247  35.404  24.700  14.867
95918W        W64248   5.709  23.627  11.083
95919W        W64249  35.001  25.014  12.347
95920W        W64250   7.278  30.975   4.169
95921W        W64251   9.158   7.326   1.364
95922W        W64252  26.197  25.963   3.252
95923W        W64253   2.269  15.694  12.016
95924W        W64254  20.052  39.363   4.675
95925W        W64255  39.826  42.922   4.146
95926W        W64256  32.583  16.299  14.398
95927W        W64257   1.277  17.301   4.350
95928W        W64258  29.949  19.244   0.420
95929W        W64259   3.254   1.381  11.050
95930W        W64260  44.388  37.041  14.299
95931W        W64261  33.969  23.492  11.989
95932W        W64262   4.892  25.662  12.509
95933W        W64263  17.794  24.083   0.330
95934W        W64264  11.134   9.657   2.835
95935W        W64265  13.735  15.286  10.503
95936W        W64266   3.268  27.588   4.678
95937W        W64267  40.487   2.859  11.575
95938W        W64268  27.536  10.287  11.420
95939W        W64269   5.314   8.257  11.944
95940W        W64270   9.779   1.328  10.538
95941W        W64271   6.874  11.852  12.839
95942W        W64272  33.051  16.598   1.384
95943W        W64273  17.074  29.538  14.821
95944W        W64274  27.666  28.062  10.932
95945W        W64275  41.522  25.066   2.795
95946W        W64276  38.519   0.311  11.929
95947W        W64277  36.484  43.338   2.252
95948W        W64278  34.008  15.294  11.593
95949W        W64279  39.890  32.117   3.800
95950W        W64280   7.397  44.492   1.746
95951W        W64281  30.921  10.747  13.365
95952W        W64282   4.823  35.484   0.446
95953W        W64283  26.049   2.751  12.952
95954W        W64284   7.263  13.733   2.335
95955W        W64285  39.542  38.422  13.427
95956W        W64286  43.929  13.644  14.909
95957W        W64287  18.653   3.326  11.863
95958W        W64288  14.340  39.894   0.376
95959W        W64289   3.955  19.744   2.784
95960W        W64290  26.066   8.687   1.240
95961W        W64291  34.454   2.800  14.868
95962W        W64292  30.918  12.149   1.727
95963W        W64293  28.011   1.336  11.408
95964W        W64294   9.356   6.417   1.280
95965W        W64295   2.897  24.513  11.997
95966W        W64296  27.163   8.789   5.164
95967W        W64297  18.247  24.513   3.793
95968W        W64298  28.940  30.438  14.418
95969W        W64299  12.271  39.999  13.907
95970W        W64300  13.685  35.047   1.833
95971W        W64301  39.386   7.417   2.303
95972W        W64302   5.780  11.371  14.360
95973W        W64303  25.676  33.980  13.314
95974W        W64304  32.100  12.824  13.791
95975W        W64305  27.054  16.748   3.734
95976W        W64306  22.999   0.763   4.232
95977W        W64307  23.589  40.000   2.191
95978W        W64308   5.292  37.546   2.393
95979W        W64309   8.735  36.055  12.530
95980W        W64310  16.667  36.384   4.828
95981W        W64311  16.784  16.568   4.696
95982W        W64312  11.225  13.274   4.160
95983W        W64313  20.760  36.573   4.776
95984W        W64314  43.933  11.657   2.309
95985W        W64315  31.594  36.913   2.380
95986W        W64316  27.562   8.857   3.274
95987W        W64317  44.999   8.265  13.438
95988W        W64318   9.393  31.000   2.848
95989W        W64319  11.351   1.791   0.879
95990W        W64320  40.043  11.293  12.957
95991W        W64321  10.173   3.293  14.928
95992W        W64322  11.266   0.312  11.020
95993W        W64323  37.497  26.050   1.291
95994W        W64324  31.598  25.490  11.954
95995W        W64325  21.546  32.141   0.405
95996W        W64326  32.068  34.492   4.252
95997W        W64327  40.842  43.376  12.871
95998W        W64328  17.197  13.791   3.322
95999W        W64329  29.967  38.442  12.440
96000W        W64330  13.267  14.714  10.607
96001W        W64331  10.697  32.129   1.265
96002W        W64332  16.313  34.935  10.997
96003W        W64333  40.448  20.689   2.669
96004W        W64334  25.636  11.255  13.531
96005W        W64335  11.157   6.753  13.850
96006W        W64336   3.225  43.882   1.714
96007W        W64337  20.716  31.097   3.693
96008W        W64338  10.244  16.574  12.393
96009W        W64339  22.007  32.420   2.775
96010W        W64340  42.875  36.352   2.764
96011W        W64341  15.249  37.081   1.805
96012W        W64342  33.116  10.851   0.287
96013W        W64343  37.868  32.942  14.978
96014W        W64344  21.705   8.842   4.697
96015W        W64345  42.776  26.521   1.913
96016W        W64346  21.132   7.383   5.319
96017W        W64347  11.764  35.022  13.933
96018W        W64348   5.842  31.421   1.738
96019W        W64349  11.692   1.419   3.245
96020W        W64350  15.083   0.922  13.971
96021W        W64351  11.683  43.871  11.395
96022W        W64352  22.101  17.229  11.390
96023W        W64353  32.449  39.351  13.432
96024W        W64354  31.430  33.972   3.326
96025W        W64355  10.835  12.830  14.909
96026W        W64356  37.071  25.064  13.311
96027W        W64357  25.145  40.329   2.797
96028W        W64358   3.280   9.726  12.431
96029W        W64359  18.783  23.178  12.969
96030W        W64360  43.303  36.956  13.493
96031W        W64361  37.047  35.964  10.519
96032W        W64362  15.725  18.743  10.505
96033W        W64363  38.902  19.218  12.828
96034W        W64364  37.437   0.986  10.462
96035W        W64365  17.079  30.477  13.865
96036W        W64366   8.196  34.525  13.047
96037W        W64367  28.167  16.166  12.929
96038W        W64368  26.131  30.652   0.443
96039W        W64369  17.690  35.524   2.413
96040W        W64370  15.100  42.354  10.625
96041W        W64371  14.249  19.059   4.603
96042W        W64372  25.060  40.931  14.794
96043W        W64373   1.921  35.880   4.653
96044W        W64374  41.039  10.196   2.902
96045W        W64375  32.580  35.967   2.272
96046W        W64376  12.722  37.431   4.164
96047W        W64377  32.991   7.750  14.879
96048W        W64378  20.762  14.135  11.074
96049W        W64379   0.277  42.459   4.244
96050W        W64380  24.193  23.599  13.456
96051W        W64381  26.973  33.108  14.450
96052W        W64382  35.407  23.489   0.436
96053W        W64383  25.006   6.376  12.004
96054W        W64384  11.720  20.522  10.522
96055W        W64385  29.011  20.274  14.920
96056W        W64386  25.511  23.675  12.483
96057W        W64387  31.598   2.297   0.365
96058W        W64388  37.031  36.955   3.351
96059W        W64389  22.065   8.220   2.837
96060W        W64390   4.434  35.024   0.440
96061W        W64391  34.876  16.251  12.963
96062W        W64392  22.090   1.436  14.948
96063W        W64393  24.993  27.656   4.615
96064W        W64394  17.567  36.976  12.951
96065W        W64395   2.939  42.868  12.376
96066W        W64396  39.385  24.505   1.714
96067W        W64397   0.270  19.144   2.388
96068W        W64398   9.274  16.652  13.926
96069W        W64399  21.731   1.735   2.900
96070W        W64400  14.786  43.341   3.208
96071W        W64401  37.547  10.720  10.514
96072W        W64402  12.117  13.235   4.239
96073W        W64403  40.980   6.720   3.828
96074W        W64404  24.555  35.105   0.896
96075W        W64405  22.006  11.322  12.360
96076W        W64406   7.707  22.022  10.991
96077W        W64407  10.177  31.433   0.930
96078W        W64408  16.762  27.953   2.786
96079W        W64409  38.361  13.781   3.236
96080W        W64410  37.935   5.743   0.328
96081W        W64411  11.198   7.220  12.006
96082W        W64412  43.512   9.777  12.091
96083W        W64413  29.044  38.013   1.351
96084W        W64414  23.718  12.277  12.089
96085W        W64415  21.037  25.099  10.133
96086W        W64416  15.671   9.288   3.316
96087W        W64417  43.400  12.705   0.810
96088W        W64418  44.825  19.062  10.948
96089W        W64419  35.876   8.732  14.902
96090W        W64420   0.394  24.134  13.878
96091W        W64421  29.943  17.686  14.408
96092W        W64422  32.511  19.266   2.719
96093W        W64423   6.805   8.278   2.392
96094W        W64424  37.055  14.758   2.234
96095W        W64425  18.573  33.076  14.397
96096W        W64426   7.260  37.877  13.828
96097W        W64427   7.869   0.802  14.950
96098W        W64428  37.566   8.844  11.927
96099W        W64429  10.879  31.093  11.992
96100W        W64430  26.536  42.412  13.428
96101W        W64431  12.792   3.222   2.346
96102W        W64432  17.271  18.185   4.711
96103W        W64433  35.867  15.211  11.532
96104W        W64434   4.209  37.384   2.390
96105W        W64435   5.740  41.474   2.699
96106W        W64436  22.532  41.790   0.886
96107W        W64437  44.899   7.246  12.008
96108W        W64438  28.660  30.152  11.466
96109W        W64439  32.890  30.458   0.740
96110W        W64440   5.752  22.148  12.491
96111W        W64441  29.044  29.424  14.872
96112W        W64442  11.859  33.543   4.831
96113W        W64443  31.050  26.007  11.956
96114W        W64444  44.376  40.423  12.079
96115W        W64445  26.065  12.835   2.209
96116W        W64446  25.607  16.217   4.268
96117W        W64447   7.280   5.898  10.537
96118W        W64448  12.279  33.471   3.843
96119W        W64449   6.368  22.012   2.225
96120W        W64450   5.707  40.862  13.945
96121W        W64451  40.997  16.184   3.780
96122W        W64452  16.624  42.463   4.258
96123W        W64453   0.864  16.584  11.891
96124W        W64454  14.209  37.079   1.240
96125W        W64455  32.084  19.647   9.662
96126W        W64456  23.033  26.048  14.888
96127W        W64457  43.345  36.507  11.095
96128W        W64458  34.420  27.588  14.333
96129W        W64459  28.676   6.383  12.440
96130W        W64460  32.018  12.736   2.849
96131W        W64461  24.130   5.852  11.870
96132W        W64462  25.634  35.497   2.763
96133W        W64463  26.515  39.848   2.382
96134W        W64464  21.754   7.675  11.053
96135W        W64465  16.304  14.314   4.233
96136W        W64466  22.042   6.220  12.446
96137W        W64467  15.740  39.319   5.107
96138W        W64468   5.774   4.732   1.226
96139W        W64469   6.699  18.279   1.831
96140W        W64470  10.862  37.062   4.728
96141W        W64471  38.855   3.897   4.292
96142W        W64472  24.087  30.488   1.439
96143W        W64473  40.038   2.445  12.877
96144W        W64474  41.817  15.793  11.574
96145W        W64475  44.898  38.050   2.298
96146W        W64476   8.728  29.926   0.424
96147W        W64477  16.688  32.430  12.027
96148W        W64478  18.689  29.523  13.406
96149W        W64479  44.881  10.785   2.369
96150W        W64480  22.219   6.715  10.539
96151W        W64481  39.325  12.759   2.398
96152W        W64482  13.819  13.688  12.578
96153W        W64483  40.926   9.803   2.353
96154W        W64484  38.827  23.144  10.482
96155W        W64485  32.595  29.979   2.753
96156W        W64486  31.478   0.810   1.218
96157W        W64487   7.808  29.479  11.017
96158W        W64488  43.803  26.131  11.463
96159W        W64489  27.559   7.328  10.618
96160W        W64490  24.537  10.342   3.716
96161W        W64491  17.792  41.943   1.381
96162W        W64492   8.757  15.583  14.849
96163W        W64493   6.349   7.375  11.455
96164W        W64494  35.469  13.783  12.877
96165W        W64495  32.084   8.883   0.415
96166W        W64496  26.050   6.316   4.810
96167W        W64497  40.942  36.077  13.532
96168W        W64498  44.274  40.898  14.476
96169W        W64499  40.502  18.285  13.012
96170W        W64500   0.844   5.837   4.628
96171W        W64501   1.970  27.190  11.532
96172W        W64502  44.281  29.484  10.527
96173W        W64503  23.665   7.739  12.375
96174W        W64504   6.205  15.267  12.423
96175W        W64505  35.855  44.288  10.422
96176W        W64506  44.839   4.437   1.283
96177W        W64507  40.802  21.084   3.706
96178W        W64508   0.432  27.658   3.320
96179W        W64509   6.796  33.586  14.941
96180W        W64510  25.029   4.894  11.526
96181W        W64511  35.045  13.148   5.209
96182W        W64512   2.947  11.366  13.406
96183W        W64513   9.645  43.381  12.982
96184W        W64514  34.596   2.414   1.346
96185W        W64515  19.183  30.559   2.898
96186W        W64516  43.489  25.994   4.617
96187W        W64517  12.730  38.837  12.948
96188W        W64518   8.820  44.988   0.868
96189W        W64519   6.423  16.135  13.321
96190W        W64520  21.111   2.245   4.148
96191W        W64521  33.411  15.652   3.161
96192W        W64522  42.313  38.956   4.304
96193W        W64523  30.504   1.808   2.787
96194W        W64524  26.137  35.410   3.289
96195W        W64525  19.163  33.037   2.316
96196W        W64526   1.432  39.520   4.139
96197W        W64527   1.265  37.442  13.921
96198W        W64528  20.732  37.075  11.963
96199W        W64529  32.035   3.785  11.106
96200W        W64530  40.950  17.154  10.557
96201W        W64531  26.136   9.802   0.252
96202W        W64532  11.126  33.563   2.757
96203W        W64533  31.922  40.901  10.990
96204W        W64534  34.577   5.777   3.867
96205W        W64535  16.777  32.451  13.033
96206W        W64536   9.704  27.650   3.822
96207W        W64537  39.370  24.628  10.937
96208W        W64538  30.610  24.666  14.405
96209W        W64539  14.636  29.460  13.889
96210W        W64540  22.590  13.165   2.885
96211W        W64541  30.018  16.173  14.886
96212W        W64542  43.429  29.963   1.755
96213W        W64543   6.690  17.641  10.450
96214W        W64544   4.848  12.259   3.220
96215W        W64545   3.293  34.040   1.218
96216W        W64546  39.015  13.229  13.429
96217W        W64547  10.685  33.409  12.948
96218W        W64548   8.201  15.591  14.333
96219W        W64549  42.403  17.061  14.951
96220W        W64550  12.279   8.682  11.543
96221W        W64551  30.444  24.094  10.470
96222W        W64552  44.781  41.820  12.927
96223W        W64553  37.544   7.862  13.351
96224W        W64554  26.688  39.029   2.666
96225W        W64555   2.302  39.546   4.152
96226W        W64556   4.790  19.777   9.964
96227W        W64557  10.872  26.558  12.987
96228W        W64558  40.874  38.067   2.768
96229W        W64559  24.085  28.488  11.075
96230W        W64560  25.711  37.946  11.928
96231W        W64561  27.163  36.483   3.683
96232W        W64562   9.197  44.394  11.856
96233W        W64563  14.170   2.810   3.333
96234W        W64564  11.221   3.317  13.372
96235W        W64565  20.189   9.687   0.759
96236W        W64566  22.150  43.372  12.559
96237W        W64567   4.310  38.997   2.873
96238W        W64568  31.911   8.198   3.363
96239W        W64569  15.695  44.439   1.423
96240W        W64570  16.702  24.212   4.814
96241W        W64571  26.668  29.509  11.574
96242W        W64572  41.965   6.915   0.426
96243W        W64573  44.439  27.154  11.497
96244W        W64574   6.911  31.979  11.968
96245W        W64575  33.528   2.790   4.837
96246W        W64576  18.152  29.498   2.883
96247W        W64577  36.491  40.423  11.573
96248W        W64578  18.555   1.390  14.345
96249W        W64579  21.222  38.452   1.721
96250W        W64580  44.942  31.566  10.526
96251W        W64581  28.109  41.034  10.487
96252W        W64582  29.020  14.635  11.095
96253W        W64583  12.848  11.130  11.547
96254W        W64584  25.115  42.443  11.989
96255W        W64585  39.006  42.790  10.007
96256W        W64586  29.603  44.281  10.534
96257W        W64587  17.558  28.096  10.466
96258W        W64588  19.679  27.575   3.660
96259W        W64589   4.346  25.210  10.601
96260W        W64590  36.017  17.788   0.945
96261W        W64591  37.081   2.867   4.197
96262W        W64592  43.802  42.439  13.928
96263W        W64593  14.159  43.804  11.986
96264W        W64594  23.995  10.656  10.502
96265W        W64595  44.787  23.240   4.280
96266W        W64596  33.955  18.284   0.366
96267W        W64597   2.957  36.908  10.005
96268W        W64598   0.325  17.653  11.025
96269W        W64599  15.655  15.235  12.053
96270W        W64600  15.645  25.191  10.630
96271W        W64601  36.519  15.670  14.313
96272W        W64602  20.062  40.817  13.452
96273W        W64603  37.542   2.301   3.833
96274W        W64604  16.674  16.141  11.418
96275W        W64605  41.466  10.139   3.830
96276W        W64606  42.428  18.670   1.718
96277W        W64607  25.536  32.001  13.313
96278W        W64608  36.444   9.166   0.811
96279W        W64609  22.651  43.967   2.761
96280W        W64610  31.576  20.188  10.496
96281W        W64611  37.576  17.742   1.247
96282W        W64612  43.280  33.059   1.753
96283W        W64613  42.783  11.739  14.004
96284W        W64614   2.932  37.888   2.297
96285W        W64615  13.349   9.875  12.550
96286W        W64616  32.079  22.648   4.650
96287W        W64617   0.281   1.874  11.080
96288W        W64618  15.090  28.536   0.297
96289W        W64619   6.206  19.646  14.438
96290W        W64620  31.951   2.870  14.965
96291W        W64621   8.299  39.860  12.450
96292W        W64622  28.652  16.573   0.888
96293W        W64623  27.012  22.018   4.204
96294W        W64624  10.302  14.779  13.942
96295W        W64625  44.918  19.632   0.789
96296W        W64626   3.320  13.778   1.446
96297W        W64627  10.381  37.846   2.337
96298W        W64628  44.835  33.881  12.857
96299W        W64629  42.440   4.819  14.292
96300W        W64630   8.305  31.586  14.307
96301W        W64631  28.053  10.343  14.328
96302W        W64632  42.337   9.738  13.940
96303W        W64633  37.502  26.628  14.973
96304W        W64634   5.306   7.665  14.883
96305W        W64635  38.503  43.867  12.867
96306W        W64636  12.240   0.766   4.623
96307W        W64637  35.602  25.000  13.930
96308W        W64638  14.803  13.255   0.386
96309W        W64639  26.028  37.431  12.094
96310W        W64640   2.323  26.175  11.539
96311W        W64641  16.779  30.538   3.323
96312W        W64642  14.193  20.062  14.990
96313W        W64643  10.304  31.041  14.869
96314W        W64644  30.451  32.977   1.739
96315W        W64645  23.546  36.524  13.862
96316W        W64646  11.720  40.937   2.747
96317W        W64647  17.691  31.545   2.882
96318W        W64648  21.592   6.241  11.932
96319W        W64649  43.508  44.324  11.460
96320W        W64650   5.347   9.829   3.865
96321W        W64651  40.429  38.328  12.844
96322W        W64652   0.407   2.437   2.321
96323W        W64653  37.932   4.325   4.783
96324W        W64654   3.827  38.865  14.503
96325W        W64655  34.506  11.750   3.683
96326W        W64656   9.723  12.783  14.281
96327W        W64657  18.790   0.445  13.509
96328W        W64658   1.851  28.165   1.318
96329W        W64659   8.209  37.985   3.311
96330W        W64660   6.742  23.551   2.194
96331W        W64661   1.444  27.487  13.867
96332W        W64662  33.880  18.656   0.316
96333W        W64663  20.081   3.320   5.197
96334W        W64664  29.055  26.134   2.198
96335W        W64665   3.260   6.729  13.323
96336W        W64666   8.251  28.576  12.450
96337W        W64667  14.283  21.142  13.426
96338W        W64668  34.971  44.309   2.786
96339W        W64669  12.802  32.510   1.215
96340W        W64670  41.010  43.401  11.514
96341W        W64671  36.578   5.391   1.270
96342W        W64672  40.986  22.212   3.296
96343W        W64673  30.617  38.530   3.794
96344W        W64674  35.031   6.903   3.218
96345W        W64675   7.872  22.038  12.498
96346W        W64676  15.698  23.172  13.826
96347W        W64677  28.589  20.261  13.982
96348W        W64678  25.689  16.095  14.956
96349W        W64679  39.392  29.158   0.941
96350W        W64680  25.616   3.811   2.728
96351W        W64681   6.892  23.031   4.801
96352W        W64682  16.753  31.527   4.708
96353W        W64683  31.637  14.197  12.390
96354W        W64684   8.259  34.951   1.248
96355W        W64685  39.002  24.513   0.819
96356W        W64686  16.219  39.490   4.305
96357W        W64687  33.889  41.936  14.910
96358W        W64688  36.967  43.972  12.024
96359W        W64689  37.912  16.120  11.432
96360W        W64690   3.850  14.835  10.584
96361W        W64691  44.492  11.850   4.744
96362W        W64692  39.916  19.587  14.337
96363W        W64693   2.462   3.922  10.588
96364W        W64694  28.610  18.636  10.607
96365W        W64695   9.870  21.053   2.195
96366W        W64696  27.025   7.372   0.877
96367W        W64697   1.803   4.341   4.718
96368W        W64698   5.271  22.710  12.542
96369W        W64699   9.152  28.082  14.838
96370W        W64700   2.866   6.735   3.739
96371W        W64701   8.810   5.305   0.769
96372W        W64702   0.314  34.910  11.071
96373W        W64703  31.036   0.961  10.449
96374W        W64704  20.095  30.093  12.927
96375W        W64705  29.546  21.642   3.344
96376W        W64706  15.680  10.714  10.983
96377W        W64707  24.118  33.511   4.255
96378W        W64708  30.937  34.891   1.373
96379W        W64709   0.956  15.705   0.928
96380W        W64710  36.031  35.531  13.791
96381W        W64711  44.901   8.288   3.774
96382W        W64712  44.942  36.539  10.564
96383W        W64713  39.971   0.407  11.927
96384W        W64714   4.262   2.889   0.843
96385W        W64715  28.536  20.215   3.720
96386W        W64716  35.065  24.682   1.879
96387W        W64717  42.378  37.083  12.554
96388W        W64718  22.022  25.678   2.860
96389W        W64719  21.252  15.319  10.085
96390W        W64720  26.089  11.860  13.475
96391W        W64721  17.283  11.745  12.345
96392W        W64722  43.912  16.263  13.515
96393W        W64723   1.942   9.239  14.828
96394W        W64724  25.519  40.962   0.308
96395W        W64725  35.855  25.479   3.373
96396W        W64726  34.983  29.544   2.691
96397W        W64727  38.535  41.041  10.518
96398W        W64728  37.876   0.975  12.921
96399W        W64729  30.055  31.921   0.905
96400W        W64730  37.486  11.180   4.318
96401W        W64731  19.268   9.156  13.821
96402W        W64732  15.215  17.191  11.559
96403W        W64733  11.287  28.444  13.962
96404W        W64734  24.984  36.376  10.999
96405W        W64735  40.335  26.164   4.163
96406W        W64736  21.700   8.745  13.008
96407W        W64737  10.728   8.794   2.752
96408W        W64738   2.731  25.971  13.963
96409W        W64739  14.212  31.119  10.496
96410W        W64740  39.455  14.651   2.804
96411W        W64741  43.862  19.043   0.888
96412W        W64742  20.226  16.587   2.409
96413W        W64743  18.640  15.796  12.005
96414W        W64744  19.543   9.741   5.296
96415W        W64745   9.720  23.083   4.203
96416W        W64746   4.440  35.366   1.290
96417W        W64747  43.851   8.370  13.877
96418W        W64748  29.426  40.465   1.248
96419W        W64749  13.666  20.219   0.359
96420W        W64750   6.397   4.242   0.336
96421W        W64751  32.900  32.065  14.993
96422W        W64752   5.377  36.406  14.477
96423W        W64753  26.554  11.777   2.206
96424W        W64754  37.893  19.044   4.629
96425W        W64755  30.527  39.884  14.510
96426W        W64756  38.863  16.208  13.332
96427W        W64757  17.105  12.830  12.970
96428W        W64758  34.865   3.893  13.349
96429W        W64759  28.057  15.587   2.733
96430W        W64760  44.764   5.874   1.400
96431W        W64761  33.991  44.481   0.261
96432W        W64762  38.867  33.403  11.562
96433W        W64763  30.014  11.359   2.712
96434W        W64764  22.207  40.820   4.602
96435W        W64765  11.765  36.415  12.455
96436W        W64766  41.501  41.439  10.909
96437W        W64767  27.476  28.525  11.901
96438W        W64768   8.264  43.825  11.894
96439W        W64769  38.028  35.575   0.854
96440W        W64770   3.856   4.903  11.969
96441W        W64771  23.515  41.431  10.574
96442W        W64772   5.253  28.162   4.687
96443W        W64773   5.315  28.450   3.378
96444W        W64774  32.936   4.933   1.309
96445W        W64775  40.903  26.008   4.649
96446W        W64776  38.523   7.178   0.903
96447W        W64777  18.186   4.794   4.751
96448W        W64778  34.107   9.249  12.468
96449W        W64779  31.060  15.269   4.832
96450W        W64780  30.973  33.457  14.945
96451W        W64781  38.840  18.650  13.356
96452W        W64782  19.210  20.733  14.485
96453W        W64783  11.325   9.707   3.198
96454W        W64784   0.755  26.576  12.420
96455W        W64785  18.050  23.140   1.769
96456W        W64786  29.985  15.657   2.184
96457W        W64787  43.285  41.941  12.541
96458W        W64788  28.592  26.203  11.876
96459W        W64789  44.356   4.369  11.889
96460W        W64790  40.329   3.792   3.367
96461W        W64791   5.246   1.378  11.470
96462W        W64792   7.300   1.266  14.851
96463W        W64793  21.220   5.290   2.690
96464W        W64794  23.653   4.430  11.989
96465W        W64795  34.920  16.219  12.460
96466W        W64796  13.330  25.598  11.568
96467W        W64797  10.825  32.631  14.759
96468W        W64798  17.274  25.707  12.558
96469W        W64799  42.397  13.795  10.453
96470W        W64800  30.645  15.216   3.298
96471W        W64801  30.004  17.122  10.622
96472W        W64802  44.940  10.217  11.064
96473W        W64803  30.516  34.497  12.841
96474W        W64804  32.931  29.034   3.152
96475W        W64805  33.053  35.926   4.692
96476W        W64806  29.091  31.012  14.376
96477W        W64807  34.105  38.509  13.461
96478W        W64808  44.770  28.049   0.320
96479W        W64809  13.148  17.574   0.913
96480W        W64810  24.495  42.492   4.200
96481W        W64811  36.034  28.504   1.283
96482W        W64812  35.920   1.905   1.428
96483W        W64813  30.483  19.769   0.446
96484W        W64814  27.088   5.326   2.381
96485W        W64815  38.858   1.265   3.777
96486W        W64816  43.010  14.196  12.342
96487W        W64817  22.187   4.432   4.201
96488W        W64818  44.403   2.775  11.484
96489W        W64819  19.702  27.591   2.707
96490W        W64820  39.352  44.317  11.401
96491W        W64821  23.634  37.883   4.720
96492W        W64822  38.030   1.777  12.378
96493W        W64823  33.950  37.978   3.188
96494W        W64824   0.944  12.611   2.300
96495W        W64825  31.931   4.748  14.001
96496W        W64826  35.870  10.701  11.970
96497W        W64827  10.760  31.085  13.525
96498W        W64828   1.412  37.499  10.509
96499W        W64829   3.819  16.705  12.440
96500W        W64830   0.818  21.701  12.979
96501W        W64831  36.867  39.390  11.482
96502W        W64832  23.032   9.819   3.226
96503W        W64833  14.280   2.368   3.752
96504W        W64834  10.242  10.727  13.503
96505W        W64835  43.991  10.202   4.276
96506W        W64836  41.435  31.056   4.642
96507W        W64837  16.305  19.639  13.535
96508W        W64838  18.064  41.894   0.798
96509W        W64839   3.753  34.377   2.698
96510W        W64840   1.404  37.540   5.208
96511W        W64841  20.733  23.145  14.361
96512W        W64842  31.436  17.610   3.669
96513W        W64843  13.738  19.267   1.811
96514W        W64844  15.792  21.619  12.040
96515W        W64845  32.082  18.067   1.348
96516W        W64846  14.303  29.445  11.591
96517W        W64847  11.813   0.804  14.837
96518W        W64848  38.330  29.604  14.311
96519W        W64849  10.793  28.064   1.885
96520W        W64850  39.426   5.225  10.035
96521W        W64851  35.986  40.001   3.273
96522W        W64852  40.946  41.377   1.408
96523W        W64853  43.004  19.560   3.342
96524W        W64854  37.874  37.985  13.842
96525W        W64855  33.512   9.270   3.726
96526W        W64856  40.515  38.051  11.454
96527W        W64857   4.287  44.278  10.604
96528W        W64858   9.768  40.530  12.864
96529W        W64859  38.832   6.243   1.905
96530W        W64860  29.487  31.605  14.339
96531W        W64861  41.913  18.587  13.059
96532W        W64862  30.469  33.109   3.220
96533W        W64863  20.215  28.630   3.298
96534W        W64864  40.342  37.393   4.605
96535W        W64865  20.534  16.653  12.369
96536W        W64866   9.319   9.268   0.939
96537W        W64867  32.488  32.461   3.653
96538W        W64868  34.425   5.393   2.879
96539W        W64869  23.528  31.626  12.912
96540W        W64870  25.674   6.296  11.105
96541W        W64871   3.930  36.532   0.388
96542W        W64872   2.358   5.817   4.675
96543W        W64873   5.227  25.586   0.746
96544W        W64874  24.995  34.923  12.357
96545W        W64875  17.192  23.504   2.668
96546W        W64876  37.960  40.535  11.896
96547W        W64877  22.047  43.998  14.888
96548W        W64878  33.527   5.437   2.181
96549W        W64879   1.883   1.412   4.118
96550W        W64880  39.431  37.414  10.068
96551W        W64881   6.319   7.384  11.957
96552W        W64882   8.899   7.877  14.769
96553W        W64883  38.510   9.869  12.060
96554W        W64884  40.324  35.546   0.824
96555W        W64885  38.530  25.013  12.452
96556W        W64886  19.155  39.835   0.891
96557W        W64887  40.947   4.897  12.900
96558W        W64888  27.664  41.385  13.846
96559W        W64889  12.639  35.922  10.470
96560W        W64890  41.511  25.580   0.849
96561W        W64891   8.685  26.637   4.319
96562W        W64892   4.219  32.137   0.314
96563W        W64893  25.637   4.343   3.659
96564W        W64894  25.144  24.631   3.661
96565W        W64895   2.458  36.375   9.980
96566W        W64896  13.750  39.379   2.356
96567W        W64897  25.088  25.160   0.249
96568W        W64898  25.086  20.541   2.756
96569W        W64899  21.709   6.203  11.533
96570W        W64900  36.861  40.386  14.470
96571W        W64901   3.736   3.260  12.915
96572W        W64902  29.597  41.897   1.236
96573W        W64903  42.470  16.113  10.520
96574W        W64904   6.754  41.413   1.425
96575W        W64905  35.423  42.907   3.685
96576W        W64906   7.344  38.535  10.901
96577W        W64907  38.984  29.574   5.238
96578W        W64908   9.166  16.119  10.445
96579W        W64909  36.842   8.395   1.430
96580W        W64910  22.053  34.924   3.676
96581W        W64911  12.168   6.323   1.708
96582W        W64912  20.158  37.346   1.343
96583W        W64913  30.018  36.460   4.295
96584W        W64914  15.119  31.136   1.320
96585W        W64915  13.687  36.477   1.449
96586W        W64916  34.057  32.961   3.637
96587W        W64917  20.149  14.173   3.798
96588W        W64918  37.413  24.583  13.984
96589W        W64919  24.500  37.555  10.944
96590W        W64920  28.109  35.043   5.233
96591W        W64921   7.182  36.426  10.521
96592W        W64922  36.975  20.729   1.381
96593W        W64923   7.724  23.040   0.942
96594W        W64924  12.219   1.850  14.847
96595W        W64925  15.762  44.921  14.836
96596W        W64926  28.442  37.071  13.828
96597W        W64927   0.428  11.791  11.598
96598W        W64928  17.602   1.938  13.991
96599W        W64929  44.320  34.921  14.942
96600W        W64930  24.696  42.992  11.114
96601W        W64931   5.857  10.238  10.492
96602W        W64932   2.299  18.206   3.371
96603W        W64933  39.475  13.258  12.072
96604W        W64934  43.490  39.386  14.495
96605W        W64935  42.888  16.116  10.512
96606W        W64936  20.659   0.366   4.330
96607W        W64937  35.866  40.030   4.293
96608W        W64938  21.105   1.330  14.793
96609W        W64939  28.148  40.404  13.994
96610W        W64940   2.780  43.347   3.249
96611W        W64941  18.593  27.118  13.508
96612W        W64942  44.449  18.584   2.396
96613W        W64943  34.870  34.106   4.659
96614W        W64944  18.689   9.231   1.903
96615W        W64945  23.609   2.935   3.366
96616W        W64946  21.630   5.427   2.210
96617W        W64947  34.967  20.123   2.820
96618W        W64948  39.517   2.900   3.384
96619W        W64949  34.009  14.601  10.540
96620W        W64950  32.591  14.340   3.199
96621W        W64951  11.314  31.631  12.997
96622W        W64952  18.662   4.402   0.343
96623W        W64953  37.556  23.074  10.891
96624W        W64954  30.645  19.601   4.233
96625W        W64955  32.471   1.933   3.291
96626W        W64956  42.841  21.654   4.297
96627W        W64957  23.175   5.400   1.233
96628W        W64958  18.758  38.494  13.426
96629W        W64959  40.005   3.295  13.022
96630W        W64960   5.303   6.398  11.017
96631W        W64961  25.487  32.435  12.498
96632W        W64962  36.951  26.517  12.841
96633W        W64963   6.378  18.120  10.037
96634W        W64964  38.518  23.016  10.451
96635W        W64965  34.010  44.458  10.983
96636W        W64966  20.249  26.978  12.460
96637W        W64967  37.370  41.021   1.379
96638W        W64968  20.756  12.325   0.405
96639W        W64969  34.883   0.285   9.949
96640W        W64970  10.679  25.113   1.299
96641W        W64971   7.190  26.988  13.990
96642W        W64972  31.057  38.361  12.557
96643W        W64973  37.959  34.975  10.429
96644W        W64974  21.112  14.697   4.683
96645W        W64975   5.689  13.281   4.747
96646W        W64976   7.290  34.075  13.353
96647W        W64977  43.295   2.415  13.383
96648W        W64978  16.300  12.677  14.398
96649W        W64979  24.642   8.378  10.465
96650W        W64980  29.524  23.519  14.874
96651W        W64981   1.836  34.954   0.873
96652W        W64982   0.939  42.362  12.879
96653W        W64983   4.909  20.113   1.385
96654W        W64984  20.219  18.160  10.512
96655W        W64985  14.286  27.067   4.142
96656W        W64986  13.695  18.230   4.190
96657W        W64987  20.637  20.056   2.310
96658W        W64988   7.867  13.140  11.062
96659W        W64989   5.234  40.810   4.618
96660W        W64990  35.986  19.124  14.515
96661W        W64991  17.202  38.498  10.633
96662W        W64992  26.999   4.266  13.029
96663W        W64993  15.119  34.046  14.019
96664W        W64994  28.158  43.439  12.919
96665W        W64995  17.794  21.619  11.548
96666W        W64996  44.263  25.007   1.376
96667W        W64997  35.906   9.217   2.669
96668W        W64998  34.877   0.926   0.933
96669W        W64999  25.143  36.503   0.948
96670W        W65000  41.969  41.464  13.790
96671W        W65001  32.418  40.319  13.533
96672W        W65002  37.349  14.596   4.631
96673W        W65003  24.528  18.070   0.772
96674W        W65004  29.068  34.115   4.657
96675W        W65005  29.118  38.401  13.482
96676W        W65006  40.872   5.767   4.608
96677W        W65007  35.548  37.838   4.735
96678W        W65008  32.015   5.207   4.313
96679W        W65009  11.159  31.952  13.924
96680W        W65010  38.567  25.620   2.739
96681W        W65011  13.230  19.095   1.781
96682W        W65012  36.562  18.123  12.844
96683W        W65013  12.155  21.543  13.799
96684W        W65014  23.635  38.835   3.197
96685W        W65015   9.250   0.922   1.786
96686W        W65016  23.135  21.641   4.154
96687W        W65017  10.314  15.234   4.257
96688W        W65018  18.719  17.780  14.427
96689W        W65019  13.219  44.489   4.669
96690W        W65020  40.364  39.039   5.084
96691W        W65021  38.914  26.114  11.583
96692W        W65022  41.492   3.233  11.393
96693W        W65023  21.048   5.916  14.807
96694W        W65024  11.136  27.674   4.786
96695W        W65025  28.681  38.482  14.351
96696W        W65026  41.316   4.245   0.358
96697W        W65027   0.267  38.474   0.914
96698W        W65028  19.547   6.920  11.883
96699W        W65029  20.200  40.487  10.505
96700W        W65030  12.230  19.602   0.819
96701W        W65031  24.117   2.448   1.347
96702W        W65032  36.942  24.671  10.407
96703W        W65033  28.956  41.358   4.143
96704W        W65034   2.468   7.896   0.795
96705W        W65035  13.139  31.431   1.892
96706W        W65036  16.667  34.063   1.386
96707W        W65037  11.257  14.141  12.844
96708W        W65038  39.832  23.689   1.424
96709W        W65039  38.061  36.935   0.850
96710W        W65040  20.555  10.877   3.721
96711W        W65041  29.592  20.604  14.908
96712W        W65042  32.070  15.221  11.975
96713W        W65043  18.244  41.839   1.898
96714W        W65044  16.625  10.187  10.997
96715W        W65045   4.406  20.273   1.873
96716W        W65046   2.407  34.370  10.427
96717W        W65047  16.150  19.047   4.143
96718W        W65048  24.080  28.953  14.448
96719W        W65049  20.649  40.874  12.076
96720W        W65050  40.798  19.728   2.696
96721W        W65051  15.824  20.726  11.025
96722W        W65052  42.969  41.831  13.511
96723W        W65053  15.669  23.530   2.683
96724W        W65054  16.143  17.672  13.479
96725W        W65055  31.621  35.927   0.861
96726W        W65056  35.603  33.876   0.311
96727W        W65057  17.679  16.628  14.951
96728W        W65058   3.852  14.133  11.876
96729W        W65059  28.992  38.991  14.513
96730W        W65060  11.765  35.541   4.314
96731W        W65061  22.564  36.003  10.097
96732W        W65062  26.092  33.501  14.315
96733W        W65063  31.538  10.327  12.345
96734W        W65064  35.889  32.531   3.678
96735W        W65065  20.704  29.601  11.008
96736W        W65066  39.554  25.966   2.418
96737W        W65067  30.568  23.161   3.326
96738W        W65068  33.513  23.129  12.447
96739W        W65069  44.341  15.763   1.295
96740W        W65070  22.098   8.268  14.281
96741W        W65071  21.253  28.599   5.291
96742W        W65072  15.112   3.416  13.808
96743W        W65073  24.098  25.578  10.567
96744W        W65074  12.231  30.530  13.037
96745W        W65075  34.077  42.928  12.022
96746W        W65076   3.844  23.033   1.709
96747W        W65077  15.294   7.681   3.294
96748W        W65078  28.159  22.745   1.821
96749W        W65079  30.936  38.879   0.358
96750W        W65080   6.271  23.562  10.444
96751W        W65081  37.344  44.772  11.909
96752W        W65082  43.015  19.584  12.062
96753W        W65083  41.401  13.797   0.434
96754W        W65084   9.294  40.414  12.529
96755W        W65085  41.948  14.704   2.821
96756W        W65086  32.491   8.278  13.051
96757W        W65087  34.070   4.228   3.697
96758W        W65088  24.987  36.441   3.377
96759W        W65089   1.457   0.921  10.442
96760W        W65090  37.030  30.145  14.489
96761W        W65091  26.964  22.524   0.334
96762W        W65092   7.683  33.548  12.873
96763W        W65093  21.049  10.381   2.854
96764W        W65094  10.732  14.768  11.412
96765W        W65095  11.160  29.929   0.430
96766W        W65096  34.898  35.499   4.731
96767W        W65097  20.752  27.099  10.598
96768W        W65098  31.140   3.946  13.834
96769W        W65099  38.954  15.771  12.045
96770W        W65100  39.028  28.591  13.399
96771W        W65101   4.301   1.261  13.855
96772W        W65102  37.353   4.443  11.100
96773W        W65103  15.292  36.448   1.757
96774W        W65104  21.137  35.959  12.468
96775W        W65105  14.834  20.557   0.738
96776W        W65106   9.758  42.890   0.790
96777W        W65107  35.555  12.628  10.637
96778W        W65108   9.778  30.421   3.774
96779W        W65109  21.154  33.929  11.118
96780W        W65110  24.151  42.912  14.396
96781W        W65111  41.993  12.339   1.429
96782W        W65112  13.148  13.351  12.011
96783W        W65113  30.453  13.624   0.301
96784W        W65114   5.824  10.641   3.831
96785W        W65115   8.827  18.085   2.716
96786W        W65116  15.775   2.415  11.397
96787W        W65117   6.754   8.687   2.221
96788W        W65118  18.195  25.972  12.021
96789W        W65119  39.035  15.233  12.089
96790W        W65120  30.483  21.182  10.970
96791W        W65121  32.513  11.774  13.944
96792W        W65122  30.504   0.865  14.942
96793W        W65123   1.924  36.994   2.300
96794W        W65124  14.629  15.585   0.436
96795W        W65125  10.841  37.058  10.628
96796W        W65126  43.994  35.923   2.260
96797W        W65127   7.389  44.421  13.996
96798W        W65128  24.485  40.422   2.348
96799W        W65129  14.665  36.433  10.977
96800W        W65130  38.533   0.453   2.674
96801W        W65131  15.775  32.039  14.031
96802W        W65132  44.756  23.672  11.598
96803W        W65133   3.880  33.437   4.597
96804W        W65134  12.744  13.235  12.538
96805W        W65135  15.762  17.200  14.315
96806W        W65136   7.370  33.424   5.307
96807W        W65137   1.963  37.985   1.334
96808W        W65138  31.497   0.446  13.041
96809W        W65139  42.825  16.292  14.782
96810W        W65140  31.029  19.712   1.353
96811W        W65141  27.155  14.690   1.255
96812W        W65142  37.521  23.726  13.417
96813W        W65143  37.835  32.519   3.832
96814W        W65144  22.551  32.492  14.466
96815W        W65145  38.049  21.540  13.836
96816W        W65146  35.469   9.879   1.840
96817W        W65147  25.044  21.065  13.884
96818W        W65148  33.592  43.905  10.966
96819W        W65149   0.743   7.391  13.844
96820W        W65150  32.107  34.554  12.404
96821W        W65151  22.008  17.653   5.158
96822W        W65152  40.008  33.602  13.793
96823W        W65153  19.087  38.497   0.743
96824W        W65154  43.424  11.828   4.241
96825W        W65155  11.357  42.009  13.956
96826W        W65156  28.507  17.154   4.282
96827W        W65157  31.448  26.169  12.058
96828W        W65158  28.045   1.302   0.830
96829W        W65159  28.102  43.851   4.793
96830W        W65160   6.688  34.085   4.636
96831W        W65161  13.653  16.659  10.431
96832W        W65162  15.654  43.021  11.987
96833W        W65163  24.057  15.176  10.948
96834W        W65164  29.013  28.083   1.236
96835W        W65165  13.136  16.124  13.383
96836W        W65166  16.615   6.776   4.155
96837W        W65167   2.912  12.822  12.023
96838W        W65168   2.358  29.629  12.373
96839W        W65169  33.583  20.089  14.775
96840W        W65170   0.274  40.872  14.368
96841W        W65171  28.131  31.961  12.963
96842W        W65172   3.459  36.908  12.362
96843W        W65173  43.843  21.613   1.259
96844W        W65174  16.588   0.466  11.458
96845W        W65175  25.484  15.579   1.244
96846W        W65176  14.735  15.700   0.907
96847W        W65177   0.281  39.450   1.275
96848W        W65178  13.246  10.767   0.819
96849W        W65179   6.349   1.754   4.157
96850W        W65180   3.354  22.209   3.187
96851W        W65181  10.191  30.065   3.866
96852W        W65182  32.487  30.522   2.325
96853W        W65183  37.543   5.337   4.250
96854W        W65184  36.980  40.319  11.059
96855W        W65185  38.496  42.879  10.955
96856W        W65186   2.308  39.828   0.729
96857W        W65187   7.677   0.757  10.487
96858W        W65188  10.214  24.626   0.839
96859W        W65189  27.066  33.508  10.579
96860W        W65190   2.890  42.360   2.879
96861W        W65191  32.121  21.560  10.450
96862W        W65192   4.812   7.209   3.834
96863W        W65193   5.382  23.226  13.839
96864W        W65194  23.156  17.725   2.301
96865W        W65195  41.789   3.332  11.008
96866W        W65196  31.925   6.754  11.036
96867W        W65197  29.555  41.523   0.341
96868W        W65198  23.129  39.916   1.321
96869W        W65199   1.845   9.162   2.344
96870W        W65200  26.167  38.424  14.366
96871W        W65201  15.196  16.579   1.211
96872W        W65202  10.268  31.606   9.988
96873W        W65203  29.563  23.725  10.472
96874W        W65204   4.711  34.897   4.757
96875W        W65205  43.005  19.241   3.258
96876W        W65206  23.177  28.484   4.211
96877W        W65207  31.073   2.900   2.745
96878W        W65208   1.953   5.764   3.736
96879W        W65209  34.371  30.602   1.856
96880W        W65210  33.125   3.760   3.177
96881W        W65211   5.413  37.924  14.825
96882W        W65212  29.149   3.291   3.851
96883W        W65213   2.318  13.685  11.429
96884W        W65214   3.875  25.584  14.007
96885W        W65215  24.055   7.274  12.487
96886W        W65216  10.287  26.572   4.818
96887W        W65217   8.725  23.576   3.176
96888W        W65218  22.719   2.771   4.285
96889W        W65219  17.108   0.370  12.533
96890W        W65220  17.775  24.536  12.950
96891W        W65221  43.915  17.678   3.368
96892W        W65222  27.064  43.884   3.805
96893W        W65223  15.734  18.754   4.640
96894W        W65224   6.737  38.515  11.909
96895W        W65225  20.096  15.701   1.913
96896W        W65226  17.756  42.453   1.906
96897W        W65227   2.849  28.661  14.762
96898W        W65228   9.250  39.527   3.224
96899W        W65229  40.427  21.201   3.805
96900W        W65230  11.136  13.754   4.812
96901W        W65231  19.091  43.354  10.432
96902W        W65232  18.227  12.785   2.358
96903W        W65233  19.251  28.966  11.090
96904W        W65234  12.759   5.385  13.469
96905W        W65235  18.563  10.640  13.040
96906W        W65236  32.970  44.386  13.509
96907W        W65237  31.534  22.067  10.933
96908W        W65238  24.582  40.961   1.892
96909W        W65239  33.540  42.861   2.878
96910W        W65240  38.914   2.864   4.686
96911W        W65241  44.459  40.952  12.953
96912W        W65242  20.199   6.209   2.311
96913W        W65243  21.752  23.574  10.412
96914W        W65244  29.090  15.268  14.397
96915W        W65245  12.748   8.879  14.763
96916W        W65246   5.814  23.617  12.901
96917W        W65247  37.348  29.565  14.932
96918W        W65248  29.638  27.064   1.840
96919W        W65249  43.887  40.958   3.653
96920W        W65250  17.081  24.078  13.472
96921W        W65251  12.839  14.113   0.766
96922W        W65252  36.470   5.863  10.615
96923W        W65253  31.911  30.994  12.570
96924W        W65254  36.401  43.463  11.380
96925W        W65255  33.382   5.341   1.304
96926W        W65256  32.036  22.033   2.851
96927W        W65257  38.872   8.669   1.258
96928W        W65258  36.069  23.715  10.606
96929W        W65259   0.914  44.880  11.452
96930W        W65260  36.429  27.640   1.906
96931W        W65261  10.213  30.114   0.852
96932W        W65262  15.131   2.731  10.906
96933W        W65263  33.505  40.855  14.013
96934W        W65264  11.311  14.612   0.253
96935W        W65265  37.032   5.840   1.699
96936W        W65266  17.295  37.581  13.412
96937W        W65267  23.017   1.346   0.266
96938W        W65268  12.357  20.203   0.470
96939W        W65269  44.348  16.623   2.408
96940W        W65270  30.475  33.480  10.999
96941W        W65271  15.167  40.885   3.224
96942W        W65272  13.716  20.703   1.393
96943W        W65273  33.980  41.338   3.325
96944W        W65274  19.098  25.515  10.106
96945W        W65275   5.216  35.986  10.984
96946W        W65276  43.426   7.895   4.249
96947W        W65277   7.343  24.605  14.507
96948W        W65278  30.951   4.895  11.535
96949W        W65279  35.934  43.404   0.929
96950W        W65280   5.875  39.407   0.740
96951W        W65281  10.816   0.323   0.876
96952W        W65282  14.621   2.949   0.424
96953W        W65283   7.841  14.820  13.843
96954W        W65284  13.752   2.732  13.902
96955W        W65285  20.136  40.894  14.842
96956W        W65286  23.586   0.279  13.959
96957W        W65287  24.684  12.210   1.425
96958W        W65288   8.688  30.542  10.997
96959W        W65289  34.902  41.482  13.902
96960W        W65290  11.174  40.361  11.113
96961W        W65291  27.467  11.714   3.735
96962W        W65292   9.734   5.933  14.883
96963W        W65293  15.126  22.515  14.825
96964W        W65294  25.119  17.689  11.597
96965W        W65295  43.463  10.286   0.850
96966W        W65296  31.574   3.930   3.159
96967W        W65297  25.043  23.125  12.901
96968W        W65298  24.568  39.536   0.282
96969W        W65299  32.483  38.832   9.926
96970W        W65300  41.898  21.730  13.946
96971W        W65301  25.537  35.396  14.461
96972W        W65302  44.940   5.202   4.350
96973W        W65303  37.503  14.724   3.271
96974W        W65304   1.345  18.667  14.380
96975W        W65305  39.323   7.220   2.893
96976W        W65306  24.046   6.216   1.786
96977W        W65307  25.618  30.124  13.053
96978W        W65308  36.516  43.829  13.814
96979W        W65309  41.505  30.528  14.965
96980W        W65310  29.962   3.406  11.474
96981W        W65311   3.434  11.360   1.356
96982W        W65312  33.891  32.101   4.676
96983W        W65313  31.426   3.269  12.493
96984W        W65314  16.106   6.733   2.887
96985W        W65315  20.534  23.100  11.069
96986W        W65316  15.681  36.087   3.686
96987W        W65317  14.747  14.648   3.216
96988W        W65318  18.632  28.956  12.387
96989W        W65319  13.708   3.927   0.858
96990W        W65320  20.087  38.845   1.932
96991W        W65321  41.789  39.949   0.781
96992W        W65322  18.730  26.195   4.639
96993W        W65323  18.760  28.072  11.447
96994W        W65324  43.805  37.080  14.988
96995W        W65325  17.207  15.276   0.353
96996W        W65326  38.057  27.686   4.794
96997W        W65327  20.688   4.448   3.822
96998W        W65328   5.827  26.174   3.161
96999W        W65329  16.592  36.045   5.211
97000W        W65330   6.371   2.733  12.957
97001W        W65331  29.161  31.953   1.713
97002W        W65332   2.789  34.905   3.784
97003W        W65333  12.235  10.691   4.699
97004W        W65334   9.715  29.552   2.382
97005W        W65335  37.017   9.743   4.236
97006W        W65336   6.804  20.625   3.704
97007W        W65337  30.014  29.469   1.752
97008W        W65338  36.354  26.531   2.334
97009W        W65339  42.926  16.227  11.481
97010W        W65340  40.479   0.423  11.586
97011W        W65341  43.438  21.710   2.343
97012W        W65342  26.617  16.626  12.013
97013W        W65343  15.788  31.143   2.857
97014W        W65344  10.305  16.154   1.334
97015W        W65345   3.784   8.700   4.617
97016W        W65346  31.908   2.897   2.412
97017W        W65347  25.167   2.729   2.794
97018W        W65348   9.352   3.402   0.857
97019W        W65349  40.031   2.349  12.061
97020W        W65350  30.129  13.728  11.490
97021W        W65351   4.824  38.364   2.201
97022W        W65352  13.348  35.455   4.345
97023W        W65353   4.431  43.865   4.781
97024W        W65354  25.009  12.223   5.146
97025W        W65355  32.548  19.741   9.459
97026W        W65356  44.875  35.023  14.018
97027W        W65357  29.063  17.194  12.977
97028W        W65358  19.120  33.881  13.968
97029W        W65359  29.018   3.352   2.884
97030W        W65360  24.025  39.975  12.528
97031W        W65361  25.672  20.203   1.218
97032W        W65362  34.571   5.752  11.613
97033W        W65363  27.110   6.741   1.854
97034W        W65364  34.894  21.675   4.196
97035W        W65365  28.982  28.601  12.512
97036W        W65366   4.842  43.941  11.113
97037W        W65367  30.117  44.866  13.536
97038W        W65368  29.607  30.576   2.363
97039W        W65369  38.861  37.554  14.772
97040W        W65370  36.932   9.694   0.764
97041W        W65371   4.732  21.248   2.290
97042W        W65372  18.780  40.966  13.507
97043W        W65373  22.672  11.313  14.302
97044W        W65374  20.115   3.753   3.370
97045W        W65375  36.424  27.955   0.752
97046W        W65376  39.555  19.538   2.861
97047W        W65377  37.934  39.029   4.175
97048W        W65378  11.331  44.380   2.322
97049W        W65379  41.041  22.159   0.810
97050W        W65380   0.764   2.348   3.853
97051W        W65381  23.637  34.504  11.029
97052W        W65382  32.031   0.916   2.800
97053W        W65383   1.243  20.217   2.684
97054W        W65384  20.137  20.618  13.309
97055W        W65385  11.756  38.933  12.524
97056W        W65386   1.264  40.478  14.294
97057W        W65387  20.561   2.847   3.696
97058W        W65388  14.321   5.254   1.295
97059W        W65389  27.102  14.815  12.826
97060W        W65390   5.276   4.942   2.801
97061W        W65391  14.781  13.289  11.551
97062W        W65392  32.563  34.592  10.935
97063W        W65393  28.116  21.577  14.312
97064W        W65394  27.163   3.740   4.654
97065W        W65395  20.051  25.568   1.439
97066W        W65396   0.309  19.662   1.429
97067W        W65397  44.913  18.790   4.737
97068W        W65398  42.357   9.179   3.751
97069W        W65399  29.102   4.944   1.884
97070W        W65400   8.706  34.517  13.433
97071W        W65401  44.875  22.017   3.756
97072W        W65402   6.878   2.897  13.863
97073W        W65403   7.240  23.160   0.350
97074W        W65404  44.798  22.527  14.001
97075W        W65405  25.695  22.146   4.760
97076W        W65406  44.854  43.830  13.473
97077W        W65407   9.313  22.521   0.471
97078W        W65408  29.452  41.794   1.749
97079W        W65409   1.883   9.809  12.485
97080W        W65410  29.016  23.155   3.675
97081W        W65411  21.728   1.237   2.759
97082W        W65412  41.299  17.234  14.425
97083W        W65413  36.549   3.318  14.887
97084W        W65414  14.137  19.213  14.278
97085W        W65415   2.773  19.244   1.277
97086W        W65416  25.590  35.469  12.962
97087W        W65417  27.666  16.596   4.220
97088W        W65418  32.899  42.008   2.356
97089W        W65419  17.116  40.419   1.350
97090W        W65420  14.215  32.494   4.183
97091W        W65421  11.373  36.541  13.810
97092W        W65422  24.515  20.041   2.330
97093W        W65423  37.454  13.315   1.897
97094W        W65424  39.889  15.761  10.632
97095W        W65425  20.715   7.786  13.459
97096W        W65426  42.984  33.446  14.823
97097W        W65427   1.265  44.886   1.734
97098W        W65428  12.140  15.110  10.601
97099W        W65429  37.066  25.965  13.995
97100W        W65430  25.475  11.224   9.995
97101W        W65431   7.752  37.566  10.633
97102W        W65432  32.601   9.659  13.872
97103W        W65433  35.969  36.421   2.330
97104W        W65434   0.376  15.238  10.894
97105W        W65435  18.226   2.356  14.404
97106W        W65436  20.677  10.671  13.044
97107W        W65437  34.440   0.792  13.825
97108W        W65438   1.931   2.432  12.875
97109W        W65439   1.285  18.218  12.017
97110W        W65440  42.797  39.974   3.330
97111W        W65441   3.741   6.723   0.769
97112W        W65442  22.036  13.761  10.583
97113W        W65443   8.754  14.705   1.927
97114W        W65444   0.913  32.979   0.267
97115W        W65445   5.854  36.380   3.654
97116W        W65446  29.142  32.923   0.308
97117W        W65447  33.471  10.844   4.283
97118W        W65448  17.702  43.019   4.733
97119W        W65449  38.025  37.431  13.851
97120W        W65450  29.088   8.856   0.338
97121W        W65451  21.052  30.621  12.087
97122W        W65452  11.173   3.820   3.168
97123W        W65453  29.162  17.198   3.720
97124W        W65454  16.578  27.607  11.857
97125W        W65455   8.251   8.234   3.796
97126W        W65456  42.845  33.959   1.395
97127W        W65457   1.866  42.484  11.387
97128W        W65458  37.427  29.015  11.046
97129W        W65459  26.690  32.050   3.150
97130W        W65460  33.100   6.680  12.893
97131W        W65461  28.674  21.531  11.472
97132W        W65462   2.897  17.771  10.951
97133W        W65463  22.645   1.942  11.411
97134W        W65464  31.097  15.313  14.442
97135W        W65465  17.184  37.027  13.375
97136W        W65466  22.614   3.226   0.731
97137W        W65467  23.995   5.895   4.698
97138W        W65468   3.247  10.725   1.789
97139W        W65469  31.645   5.733   3.355
97140W        W65470  35.494   5.329  13.503
97141W        W65471  42.838  40.314  11.033
97142W        W65472   9.334   9.233   2.875
97143W        W65473  39.842  40.970  11.531
97144W        W65474  30.111  24.688   4.705
97145W        W65475  10.249  20.238  13.369
97146W        W65476  41.444  38.556  13.353
97147W        W65477  43.894  17.643  14.369
97148W        W65478  42.975  31.966   1.841
97149W        W65479  10.351  25.101   1.931
97150W        W65480  13.809  30.123   3.668
97151W        W65481  35.373   1.798  10.481
97152W        W65482  34.932  23.064   2.694
97153W        W65483  24.086  44.819  11.021
97154W        W65484  22.036   8.284   1.391
97155W        W65485  39.385  40.856  12.996
97156W        W65486  10.815   9.167  11.017
97157W        W65487   5.235   3.394  12.511
97158W        W65488  19.560  26.982   3.339
97159W        W65489  24.624  20.614  14.845
97160W        W65490  11.858  40.959   4.674
97161W        W65491  29.600  43.274   1.925
97162W        W65492  40.407  24.974   5.186
97163W        W65493  23.731  30.421   3.169
97164W        W65494  21.077  38.975   0.747
97165W        W65495  42.932   2.261  11.602
97166W        W65496   1.858  37.542  11.075
97167W        W65497  44.814  25.066   2.255
97168W        W65498   1.851  25.675   4.147
97169W        W65499  42.288  28.631  11.533
97170W        W65500  10.225  43.288  11.571
97171W        W65501  40.393  24.215   2.412
97172W        W65502   0.838  43.813   1.219
97173W        W65503  21.081  12.634   1.408
97174W        W65504  28.038  35.094  11.471
97175W        W65505  18.760  29.049  11.032
97176W        W65506  14.804  41.338   4.630
97177W        W65507  22.153  21.624   0.802
97178W        W65508  37.979  26.060   3.756
97179W        W65509  13.690  22.018  11.442
97180W        W65510  15.639  39.826  13.501
97181W        W65511   5.931  37.020  10.529
97182W        W65512  23.706  10.836   0.264
97183W        W65513  29.094   3.912  14.946
97184W        W65514  15.113  20.250   1.775
97185W        W65515  16.280   7.279   2.233
97186W        W65516  25.113   5.869   3.358
97187W        W65517   0.310  34.033   1.729
97188W        W65518   2.806  39.445   4.235
97189W        W65519  16.643   1.790  14.505
97190W        W65520   0.361  20.114  14.473
97191W        W65521  19.594  29.475  10.412
97192W        W65522  28.477  12.823  11.396
97193W        W65523  35.061  33.514   3.859
97194W        W65524  40.046  21.023  14.879
97195W        W65525  32.057  29.549  13.357
97196W        W65526  26.076  37.531   0.419
97197W        W65527   3.310  37.980  14.937
97198W        W65528  28.504  13.626  10.563
97199W        W65529  42.491  11.263  13.019
97200W        W65530  13.187   6.243   1.725
97201W        W65531  43.490  12.655   3.275
97202W        W65532  11.363  18.263   2.785
97203W        W65533  21.640   0.452   3.295
97204W        W65534  31.519  18.088  11.051
97205W        W65535  36.388  13.209   1.415
97206W        W65536   0.355  37.539  11.417
97207W        W65537  29.474   0.908  10.505
97208W        W65538  36.566  22.526  11.411
97209W        W65539   6.720   2.414   4.302
97210W        W65540   5.412  28.039  13.532
97211W        W65541  21.597  32.510  11.998
97212W        W65542   2.349  30.057   0.911
97213W        W65543   6.705  32.957  14.497
97214W        W65544  25.030  11.804  13.384
97215W        W65545  12.280   7.278   2.215
97216W        W65546  28.118  41.327   0.397
97217W        W65547  41.409  29.609  13.528
97218W        W65548   6.731  10.777   3.249
97219W        W65549   2.734  27.110   2.259
97220W        W65550  13.150  40.516  11.045
97221W        W65551  32.496  39.875  10.582
97222W        W65552   2.841   3.289  11.424
97223W        W65553  20.090  27.622  10.511
97224W        W65554   8.288  37.844   0.479
97225W        W65555  39.531  39.838   0.277
97226W        W65556  43.283  13.154   1.701
97227W        W65557  29.972  27.614   4.786
97228W        W65558  27.077  42.393   3.794
97229W        W65559  29.547  25.562  12.973
97230W        W65560  15.768  37.878   4.805
97231W        W65561   3.811  15.577  13.861
97232W        W65562  15.753  20.153  14.844
97233W        W65563  41.528  11.757   3.735
97234W        W65564  10.183  44.972  14.317
97235W        W65565   2.742  40.797   4.823
97236W        W65566  31.929  30.455   0.244
97237W        W65567   2.930  38.055   0.242
97238W        W65568  33.526   9.813   3.870
97239W        W65569  27.038  18.225  11.005
97240W        W65570  40.887  17.062  13.802
97241W        W65571   7.183  10.352   2.727
97242W        W65572  38.940  12.156  13.307
97243W        W65573   1.786   7.764   1.249
97244W        W65574  13.814   1.948   0.446
97245W        W65575  19.777  41.430   4.812
97246W        W65576  43.417   6.686  13.912
97247W        W65577  34.604  36.083   1.244
97248W        W65578  12.172  36.450   3.650
97249W        W65579  38.928  39.815   0.244
97250W        W65580  32.043  26.474   2.706
97251W        W65581  23.119  12.143   0.892
97252W        W65582  28.628  21.188   2.814
97253W        W65583  36.022  33.101   4.174
97254W        W65584  13.617  40.950   0.252
97255W        W65585   0.475  31.514  13.846
97256W        W65586  24.503  13.611   4.690
97257W        W65587  31.938  17.640  11.026
97258W        W65588  39.392  14.149   4.830
97259W        W65589  17.207  24.070  12.905
97260W        W65590  30.161  13.727   1.871
97261W        W65591   8.772  16.305   4.637
97262W        W65592  35.530  15.094  11.600
97263W        W65593   8.271  11.675   3.853
97264W        W65594  44.421  39.983   2.870
97265W        W65595   5.229   6.817  13.904
97266W        W65596   6.229  31.638  10.634
97267W        W65597  30.640   3.385   4.160
97268W        W65598  29.024  22.198   3.384
97269W        W65599   1.811  16.709   1.903
97270W        W65600  12.334  19.264   0.836
97271W        W65601  22.716  16.153   3.749
97272W        W65602   9.345  15.177   2.708
97273W        W65603  32.463  34.585   3.290
97274W        W65604  44.944  31.520  14.856
97275W        W65605  33.082  24.156  10.603
97276W        W65606  18.056  44.965   0.816
97277W        W65607   0.753  17.701   0.483
97278W        W65608  30.909  31.054   0.256
97279W        W65609   0.367   1.457   2.896
97280W        W65610   2.280  19.562  13.815
97281W        W65611  37.411  24.680  13.390
97282W        W65612   3.455  16.626  13.899
97283W        W65613  20.223   4.781   0.465
97284W        W65614  22.572  12.166  12.859
97285W        W65615  31.500  10.379   1.308
97286W        W65616  16.598  36.855   3.766
97287W        W65617  19.763  27.121   0.963
97288W        W65618  35.553  20.080   2.199
97289W        W65619  26.537   9.263   0.912
97290W        W65620  18.673  12.772  13.969
97291W        W65621  33.619  36.572   4.806
97292W        W65622  22.573  16.135   0.453
97293W        W65623   0.891  25.060   2.695
97294W        W65624  16.180  44.972  10.440
97295W        W65625   0.754   0.929  12.031
97296W        W65626  25.160  12.764  10.594
97297W        W65627  18.617  15.256   2.679
97298W        W65628  23.023  25.675   0.767
97299W        W65629  28.979   0.874   2.732
97300W        W65630  36.935  33.099  11.521
97301W        W65631  39.058  11.356   2.303
97302W        W65632  10.731  39.810  14.017
97303W        W65633  26.582  42.346   0.379
97304W        W65634  10.264   5.691  13.944
97305W        W65635   9.332  18.553  10.610
97306W        W65636   9.352  27.674   3.869
97307W        W65637  38.937  41.448  10.622
97308W        W65638  33.479  11.749   2.402
97309W        W65639  37.433  11.783   4.733
97310W        W65640  25.999  31.150   2.737
97311W        W65641  23.132  29.644  10.451
97312W        W65642  35.963  28.047  11.456
97313W        W65643  41.788  23.512  13.357
97314W        W65644   5.376  12.684   1.729
97315W        W65645  16.716  20.050  11.571
97316W        W65646  31.574   1.892  10.999
97317W        W65647  13.688  22.652  12.826
97318W        W65648  43.323  32.584   2.368
97319W        W65649   0.371  16.222  12.975
97320W        W65650  32.482  38.337   3.662
97321W        W65651  30.615  21.560  14.929
97322W        W65652  25.995   2.283   4.656
97323W        W65653  24.583  10.695   1.346
97324W        W65654  28.634  41.480   1.800
97325W        W65655   0.766  16.567  12.387
97326W        W65656   0.304  11.149   0.785
97327W        W65657  11.260  12.765  11.599
97328W        W65658  36.853  24.049   0.420
97329W        W65659  32.449   0.468  12.384
97330W        W65660  26.115  33.897  11.538
97331W        W65661  44.988   0.776  14.902
97332W        W65662  30.050  26.134   3.682
97333W        W65663  38.370  16.809  14.971
97334W        W65664  17.091  28.501  13.343
97335W        W65665  14.607  19.691  11.104
97336W        W65666  18.711   8.805   5.248
97337W        W65667   6.717  40.028  13.323
97338W        W65668  41.042  29.432   1.399
97339W        W65669  12.784   1.474  14.937
97340W        W65670  17.065  11.629   1.213
97341W        W65671  28.055  39.916   0.944
97342W        W65672  29.167   0.462  12.938
97343W        W65673   0.936  44.808   1.867
97344W        W65674  17.092  16.667  14.948
97345W        W65675  17.765   7.855  12.986
97346W        W65676  18.283  29.469  10.545
97347W        W65677  35.061  22.097  13.942
97348W        W65678   8.363   1.886   2.263
97349W        W65679  16.095  13.794  11.077
97350W        W65680  26.121  38.346  13.942
97351W        W65681  38.496  44.868   4.116
97352W        W65682   3.457  32.926  13.041
97353W        W65683  21.629  28.187  10.046
97354W        W65684  27.941  26.038  14.967
97355W        W65685  34.068  27.048   2.180
97356W        W65686  30.923  43.788   0.355
97357W        W65687  21.018  29.026   2.810
97358W        W65688  21.070   2.229  10.459
97359W        W65689  15.292   6.815   4.137
97360W        W65690  23.191  15.638   0.375
97361W        W65691   5.288  40.898   0.293
97362W        W65692  39.912  11.361  10.472
97363W        W65693   6.235  33.077  10.435
97364W        W65694  43.428  19.613   4.197
97365W        W65695  33.556  17.164  11.945
97366W        W65696  17.136  30.966  11.116
97367W        W65697  38.451  28.451   3.275
97368W        W65698   8.835  38.931   0.344
97369W        W65699   0.450  12.838   0.929
97370W        W65700  19.215  24.697  13.384
97371W        W65701  37.081  28.074   0.406
97372W        W65702  39.407  35.004  11.961
97373W        W65703   2.920   0.871  14.324
97374W        W65704  27.603  23.599   2.193
97375W        W65705  28.933  31.572   2.409
97376W        W65706   4.914  41.473   0.779
97377W        W65707  21.720  21.162   1.864
97378W        W65708  21.684  14.705  12.855
97379W        W65709  33.076   3.297   0.934
97380W        W65710  26.967  35.604  10.995
97381W        W65711  38.061  34.569  12.880
97382W        W65712  38.429  11.691  10.485
97383W        W65713  17.077  17.164   4.751
97384W        W65714  43.965  14.695   1.251
97385W        W65715  21.711  39.917   2.228
97386W        W65716  31.911  30.577  10.616
97387W        W65717  25.164  19.765   4.614
97388W        W65718  29.593  27.185   2.739
97389W        W65719  16.306   2.921  13.847
97390W        W65720  12.143  19.203   3.150
97391W        W65721  30.489  43.305   0.243
97392W        W65722  19.650  17.640   3.311
97393W        W65723  42.396  28.672  14.494
97394W        W65724  39.436  25.043  14.275
97395W        W65725  13.813  37.432   3.302
97396W        W65726  15.692  15.593   1.448
97397W        W65727   6.882   7.764   2.890
97398W        W65728  15.302  33.392  12.501
97399W        W65729  17.181   4.777  10.462
97400W        W65730  15.645  34.566   3.810
97401W        W65731  22.722  40.468  10.906
97402W        W65732  21.157   3.719   1.350
97403W        W65733   2.724  36.358  11.396
97404W        W65734   6.393   4.761   1.736
97405W        W65735  39.971  28.487   4.759
97406W        W65736  16.170  28.620  13.033
97407W        W65737  17.669  37.058  11.994
97408W        W65738  41.294  32.581  11.100
97409W        W65739  15.743  20.736   1.808
97410W        W65740  28.986  22.741  14.946
97411W        W65741  41.422  25.118   4.661
97412W        W65742  42.951  27.470  12.987
97413W        W65743  13.180  17.626  13.503
97414W        W65744   5.403   3.815  14.465
97415W        W65745   3.298  16.199   0.447
97416W        W65746   0.956   3.435   1.711
97417W        W65747  14.240  42.833  10.044
97418W        W65748  38.884  24.664   9.996
97419W        W65749   6.748  34.404  14.005
97420W        W65750  34.049  19.111   2.238
97421W        W65751  11.179  22.584  10.900
97422W        W65752   3.910   5.916  11.005
97423W        W65753  13.131  38.511   4.680
97424W        W65754  31.118  37.047   0.808
97425W        W65755  43.281   2.298   2.311
97426W        W65756   7.739  21.025  12.433
97427W        W65757  17.767  28.567   3.670
97428W        W65758  24.675  19.629   4.805
97429W        W65759  27.609   0.324  13.395
97430W        W65760   5.275  28.568   1.788
97431W        W65761   8.370  27.534  11.871
97432W        W65762  41.020  39.058   1.796
97433W        W65763  15.774  24.162   2.701
97434W        W65764  13.139  18.094   2.853
97435W        W65765  15.095   6.823  14.019
97436W        W65766  13.603   1.427  14.773
97437W        W65767  34.021  16.280  14.459
97438W        W65768  31.490  41.412  11.980
97439W        W65769  12.132  21.538   2.367
97440W        W65770  27.487  11.248  14.858
97441W        W65771  21.621  43.337   2.410
97442W        W65772  26.105  20.070  11.979
97443W        W65773  10.698  36.935   2.865
97444W        W65774  20.070   7.796   0.962
97445W        W65775  41.938  17.122   4.625
97446W        W65776  19.205  35.925   3.204
97447W        W65777  15.211  34.462   4.799
97448W        W65778  24.635   1.885   3.284
97449W        W65779  39.900  23.552  11.573
97450W        W65780  42.023   6.876   4.723
97451W        W65781  40.516  39.385   0.441
97452W        W65782  36.429   7.353  12.468
97453W        W65783  34.514  27.669   4.278
97454W        W65784  29.965  24.028  13.955
97455W        W65785   4.374  35.595  13.528
97456W        W65786   6.294  30.572   2.685
97457W        W65787  28.014  14.732   0.353
97458W        W65788  12.135   6.372  12.049
97459W        W65789  31.119  40.043  14.924
97460W        W65790  33.411  21.545  12.864
97461W        W65791  10.785  44.876  14.014
97462W        W65792  38.032   8.845  12.862
97463W        W65793  12.776  22.522   4.717
97464W        W65794   9.665   8.197  13.996
97465W        W65795  26.961  40.310   2.344
97466W        W65796   1.406   2.867  14.782
97467W        W65797  27.111  19.766   2.322
97468W        W65798  32.078  26.594  10.974
97469W        W65799  44.875  23.585   0.449
97470W        W65800  30.513  20.714  12.573
97471W        W65801  36.963  18.077   1.317
97472W        W65802  43.456  25.049  14.799
97473W        W65803  16.717  30.485  10.914
97474W        W65804  23.018  44.495   4.300
97475W        W65805  22.211  35.465  14.482
97476W        W65806   8.328   8.298   1.261
97477W        W65807  11.242   0.892   1.233
97478W        W65808  17.141  21.552  14.452
97479W        W65809  25.025   5.283   2.831
97480W        W65810   9.860  23.675  12.952
97481W        W65811  11.188  11.788  13.340
97482W        W65812   6.278  44.265  14.908
97483W        W65813  36.085  24.163   1.863
97484W        W65814   8.736   1.255   3.191
97485W        W65815  41.523  35.588  13.392
97486W        W65816  12.751   6.744  12.938
97487W        W65817   2.279   4.917  11.098
97488W        W65818  42.919  27.092   1.279
97489W        W65819   6.184  25.087   1.336
97490W        W65820  22.540  37.976   1.330
97491W        W65821  23.668  23.583  12.580
97492W        W65822  17.742  10.669  14.822
97493W        W65823   8.815  31.098   0.832
97494W        W65824  42.812  25.084  12.061
97495W        W65825  22.564  32.130  12.356
97496W        W65826  15.224  37.966   5.123
97497W        W65827  38.924  19.584   2.253
97498W        W65828  19.205   2.267  12.989
97499W        W65829  23.513  21.570  11.930
97500W        W65830  37.494   4.308   2.796
97501W        W65831  32.096  28.555   3.221
97502W        W65832  37.986  20.052  10.632
97503W        W65833  18.613  27.982  14.360
97504W        W65834  38.976   5.747  13.003
97505W        W65835  24.037  17.599   0.449
97506W        W65836  15.304  41.024   3.649
97507W        W65837  12.694  31.957  12.433
97508W        W65838  12.292  26.182  14.922
97509W        W65839  22.076  43.510   3.284
97510W        W65840  38.477  35.105  13.899
97511W        W65841  31.540  16.234   1.379
97512W        W65842  20.523  30.432   2.245
97513W        W65843  14.165  31.427   2.205
97514W        W65844  30.023  30.137   3.843
97515W        W65845  44.990  43.909   4.155
97516W        W65846   8.336  24.592  10.475
97517W        W65847   6.688  40.917   0.259
97518W        W65848   8.883  19.751   3.253
97519W        W65849  12.754  17.662   4.715
97520W        W65850  23.544  11.155   3.703
97521W        W65851  44.387  14.610   1.312
97522W        W65852  44.857  30.150  11.901
97523W        W65853   0.867   9.815   3.165
97524W        W65854   1.432  25.174  14.921
97525W        W65855   5.211  29.537  10.943
97526W        W65856  43.839  42.786  10.589
97527W        W65857  24.028  24.993  13.433
97528W        W65858  21.704  23.112   0.730
97529W        W65859  43.836  34.381   3.737
97530W        W65860  15.301  18.708  14.481
97531W        W65861   4.756  36.044   2.883
97532W        W65862   9.309  25.642  11.514
97533W        W65863  19.241  30.131   0.244
97534W        W65864  12.711   7.848  10.920
97535W        W65865   0.417  27.115  14.922
97536W        W65866   7.831  41.386  10.041
97537W        W65867   9.349  13.667   2.253
97538W        W65868  13.657  23.720  13.876
97539W        W65869  32.996  40.042  13.059
97540W        W65870  40.917   1.297   2.320
97541W        W65871   0.300  43.355  11.106
97542W        W65872  43.815  37.502   4.132
97543W        W65873  20.114  36.027   5.121
97544W        W65874  29.067  20.189  12.093
97545W        W65875  25.549  24.539  11.547
97546W        W65876  21.554  35.551   4.189
97547W        W65877  32.496  20.621  13.967
97548W        W65878   8.834  40.345   1.271
97549W        W65879  23.620  14.667   3.695
97550W        W65880  27.055  23.627   2.893
97551W        W65881  11.670   9.333   4.781
97552W        W65882  36.878  10.246   4.623
97553W        W65883  24.071  22.668   2.266
97554W        W65884  12.214   1.468   4.695
97555W        W65885   7.698  16.152  11.590
97556W        W65886  30.647  26.970  13.454
97557W        W65887  11.630   6.753   4.656
97558W        W65888  25.490  13.303   2.241
97559W        W65889  26.968  43.984  11.073
97560W        W65890  27.604  25.157  13.019
97561W        W65891  31.515  19.220   4.149
97562W        W65892  26.196   0.985  13.313
97563W        W65893  26.629  19.264  10.576
97564W        W65894  10.783  37.381  12.861
97565W        W65895  35.993   4.220   1.429
97566W        W65896  11.842  29.938  14.985
97567W        W65897  35.876  18.658   0.762
97568W        W65898  42.361  14.824   2.237
97569W        W65899  14.222  36.068  13.358
97570W        W65900  38.949  35.598   3.775
97571W        W65901   6.206  39.944   9.960
97572W        W65902  31.071  21.171   4.783
97573W        W65903  18.154  10.206   0.914
97574W        W65904  13.166   9.768   2.812
97575W        W65905  32.451  13.743  14.798
97576W        W65906  20.683  13.641   0.799
97577W        W65907  13.743  37.080   3.743
97578W        W65908  36.854  30.433  10.565
97579W        W65909  30.561  13.740   1.334
97580W        W65910   0.276   9.828  13.846
97581W        W65911  36.366  21.552  14.959
97582W        W65912   6.377  35.958   0.311
97583W        W65913  43.832  27.055  13.473
97584W        W65914   5.332   8.698   3.684
97585W        W65915   5.846   9.786   3.315
97586W        W65916  25.043  14.114  12.931
97587W        W65917  20.228  16.286  11.959
97588W        W65918  10.226   4.797   0.282
97589W        W65919  21.222  44.758   3.680
97590W        W65920  35.481  27.495   3.220
97591W        W65921  24.678  38.892   2.844
97592W        W65922  16.103  24.154  14.790
97593W        W65923   9.886  35.865   2.695
97594W        W65924   6.899  24.554   4.249
97595W        W65925  44.927   5.755  11.926
97596W        W65926  13.612   2.469   3.147
97597W        W65927  23.103   6.732  13.049
97598W        W65928  30.643   3.424   1.313
97599W        W65929  25.139  10.735  10.532
97600W        W65930  11.167  16.245  13.429
97601W        W65931  40.862  38.999  11.062
97602W        W65932  32.905   8.700  10.543
97603W        W65933  14.808   7.823  14.412
97604W        W65934  21.688  25.472   2.877
97605W        W65935  30.100  11.298   3.340
97606W        W65936  22.075  26.693   3.804
97607W        W65937   8.808  31.002  12.847
97608W        W65938   7.223  15.310  11.381
97609W        W65939   6.333  22.250   3.151
97610W        W65940   0.819  37.379  14.428
97611W        W65941  25.606  31.631   4.650
97612W        W65942  37.011   5.325  12.394
97613W        W65943  15.816  35.427  14.936
97614W        W65944  11.336  24.094  12.399
97615W        W65945  39.812   5.199   2.265
97616W        W65946  19.251   6.362  13.378
97617W        W65947  41.936  29.142  12.519
97618W        W65948  27.448  26.683   0.912
97619W        W65949   5.765  33.954  12.059
97620W        W65950  38.881  39.501  13.819
97621W        W65951  10.231   2.828   0.374
97622W        W65952  14.339   6.682  14.784
97623W        W65953  34.579   8.869  11.982
97624W        W65954  17.187   5.730   1.839
97625W        W65955  16.305  43.433  13.387
97626W        W65956  25.605  32.968   0.303
97627W        W65957  34.553  36.411   4.250
97628W        W65958   6.296  18.665   4.773
97629W        W65959  30.123   9.242   3.662
97630W        W65960  38.401  15.211   0.262
97631W        W65961  30.022  33.996  14.980
97632W        W65962  35.082   9.759  13.397
97633W        W65963  23.694  41.502  14.433
97634W        W65964  32.437  29.605  12.384
97635W        W65965   9.222  12.675   2.835
97636W        W65966  42.884  22.055   4.285
97637W        W65967  18.643  29.048  11.974
97638W        W65968   4.206  25.120   4.821
97639W        W65969   4.399  11.635   4.220
97640W        W65970   2.967  33.047   0.314
97641W        W65971  28.053  10.281   2.362
97642W        W65972  21.250   1.928  10.512
97643W        W65973  42.290  27.560   3.762
97644W        W65974  44.907   1.446  11.043
97645W        W65975  36.928  31.474   4.241
97646W        W65976  39.446  14.130   1.253
97647W        W65977  33.131  11.804  10.589
97648W        W65978  33.947  39.001   2.793
97649W        W65979  14.591  21.720  14.983
97650W        W65980   9.685  38.064   3.842
97651W        W65981  40.309  35.493   4.674
97652W        W65982  16.097  31.925   3.333
97653W        W65983   6.219  24.072   0.344
97654W        W65984   4.706  41.526  10.428
97655W        W65985  16.579   6.367   4.774
97656W        W65986  41.819  42.014   4.278
97657W        W65987  19.177  43.396   0.730
97658W        W65988  34.882   4.342  14.989
97659W        W65989  40.967   4.365   0.911
97660W        W65990  14.155   4.790   0.308
97661W        W65991  36.558  41.806  14.366
97662W        W65992  26.501   2.409   4.327
97663W        W65993  14.789   6.689  14.772
97664W        W65994  35.488  13.230   1.337
97665W        W65995  17.676  34.006   3.344
97666W        W65996  15.759  25.114  10.941
97667W        W65997   0.756  26.976  14.867
97668W        W65998   1.882  32.498   1.701
97669W        W65999  31.532  44.327  13.489
97670W        W66000  14.591  11.677   9.935
97671W        W66001  11.725  32.516  13.966
97672W        W66002   6.751  13.203  11.482
97673W        W66003   9.235  41.984   1.771
97674W        W66004   3.286  44.364  12.005
97675W        W66005  29.645  25.984  11.475
97676W        W66006   7.718   3.828   3.295
97677W        W66007  23.032  25.181  14.790
97678W        W66008  26.955   9.878  10.936
97679W        W66009  35.874   3.340  10.499
97680W        W66010  17.563   8.185   2.772
97681W        W66011   7.376  16.204   3.327
97682W        W66012  20.265  21.231  13.521
97683W        W66013  36.887   3.911   3.705
97684W        W66014   7.859  30.041   0.861
97685W        W66015  36.874  10.821   1.307
97686W        W66016   9.166  42.515  14.855
97687W        W66017  41.033   4.352  14.467
97688W        W66018  17.306  17.204   0.296
97689W        W66019  36.478  20.665   1.935
97690W        W66020  35.951  10.657   4.674
97691W        W66021   1.943  11.295  10.578
97692W        W66022  40.826   6.267   5.777
97693W        W66023   2.766  20.626  13.957
97694W        W66024   5.321  12.283   0.248
97695W        W66025  36.991  41.493  12.974
97696W        W66026  26.109  32.967   1.231
97697W        W66027  41.906  24.510  11.401
97698W        W66028  21.565  16.644   1.288
97699W        W66029   9.222  13.600   1.276
97700W        W66030  28.645  41.389   2.365
97701W        W66031  30.485  23.621   3.743
97702W        W66032  11.208   5.758   0.444
97703W        W66033   6.791  33.051   1.781
97704W        W66034  33.011  21.727   4.315
97705W        W66035  14.173   4.733  14.870
97706W        W66036  21.124  13.110   3.217
97707W        W66037  17.264   3.443   4.627
97708W        W66038  42.025  39.012  10.507
97709W        W66039  14.221  22.017   3.754
97710W        W66040  28.128  29.000  11.931
97711W        W66041  23.726  18.709   4.755
97712W        W66042  12.697  11.741   1.431
97713W        W66043   9.809  23.086   1.838
97714W        W66044  32.524  25.966  14.924
97715W        W66045  44.285   1.326   3.712
97716W        W66046  41.937  17.154   0.259
97717W        W66047  24.125  35.902  12.384
97718W        W66048  25.699   4.281  10.948
97719W        W66049   4.362  12.256   2.840
97720W        W66050  21.079  44.797   1.823
97721W        W66051   2.822  21.100  10.014
97722W        W66052  11.678  10.160  14.789
97723W        W66053  26.042  25.580   4.783
97724W        W66054  24.007  44.977  12.493
97725W        W66055   2.945  36.058  13.333
97726W        W66056  39.025  38.982  12.468
97727W        W66057   4.732   1.731  12.448
97728W        W66058  13.696  31.912  10.516
97729W        W66059  41.500   8.180  14.764
97730W        W66060  39.517  33.561   1.273
97731W        W66061  12.303  12.311  11.587
97732W        W66062  10.291  42.921  14.444
97733W        W66063  12.362  14.833  11.396
97734W        W66064  27.673  39.524   1.925
97735W        W66065  19.160   9.347  14.990
97736W        W66066  10.341  22.205  11.886
97737W        W66067  40.977  38.508   3.834
97738W        W66068   8.820  15.643  13.918
97739W        W66069   4.219  32.586   1.902
97740W        W66070   5.404  39.989  14.892
97741W        W66071  40.883  22.732  11.531
97742W        W66072   4.889  30.087   4.673
97743W        W66073  32.949  32.981   0.466
97744W        W66074  15.649   9.835   9.926
97745W        W66075   0.863  25.149   1.906
97746W        W66076  37.383  16.092   3.167
97747W        W66077  43.400  29.594  12.457
97748W        W66078  32.612  25.606  13.441
97749W        W66079   8.832  35.505   4.292
97750W        W66080  19.550  23.005   4.304
97751W        W66081  29.962  26.579  10.924
97752W        W66082  16.289  32.002   0.379
97753W        W66083  32.414   2.737  12.409
97754W        W66084   2.737  13.243  13.025
97755W        W66085  25.640   0.966  10.110
97756W        W66086  18.571  19.241   2.798
97757W        W66087  36.381  27.458   4.310
97758W        W66088  31.917  18.769  12.918
97759W        W66089  13.176  40.040   3.253
97760W        W66090   7.780  35.102   0.960
97761W        W66091  19.753   1.765   1.241
97762W        W66092  11.694   6.417  11.380
97763W        W66093  18.749  41.439   5.319
97764W        W66094   0.809  37.030  11.524
97765W        W66095  22.064  18.711   3.301
97766W        W66096  17.801  40.313  13.969
97767W        W66097  14.209  15.793  10.455
97768W        W66098  17.172   5.204  13.982
97769W        W66099  36.027   3.350   2.817
97770W        W66100  36.562  42.504  12.471
97771W        W66101   2.824   3.288  11.925
97772W        W66102  28.464  38.844  13.957
97773W        W66103   1.429  29.431   3.690
97774W        W66104  24.072  10.220  13.920
97775W        W66105  12.130  37.361  10.419
97776W        W66106  43.320  39.039   4.599
97777W        W66107  21.525  25.999  13.821
97778W        W66108  17.102  22.087  14.854
97779W        W66109   6.682  44.457   1.719
97780W        W66110  35.546  38.453  10.519
97781W        W66111  38.902  17.091  12.529
97782W        W66112  21.749   3.346   1.423
97783W        W66113  42.482  13.282   4.241
97784W        W66114  20.133  24.184  13.418
97785W        W66115  16.752  21.529  13.979
97786W        W66116  41.528  42.992  13.902
97787W        W66117   2.836   4.774  11.581
97788W        W66118  19.079  26.609   3.751
97789W        W66119  40.527   9.289  12.983
97790W        W66120  29.461  18.551   0.415
97791W        W66121   1.845  12.229   4.250
97792W        W66122   9.882  43.486   1.282
97793W        W66123  10.342   5.693   1.719
97794W        W66124   7.686   6.371  13.044
97795W        W66125  10.733  14.178  12.557
97796W        W66126  36.857  34.390  14.497
97797W        W66127  34.898  36.399  13.031
97798W        W66128  41.980  41.470   0.769
97799W        W66129   4.804  13.290  12.963
97800W        W66130  12.141   7.727  11.535
97801W        W66131   8.874   0.799   1.319
97802W        W66132  19.105  23.232   1.727
97803W        W66133  31.951   1.848  10.532
97804W        W66134   9.690  33.122  12.401
97805W        W66135  29.452  33.485  10.470
97806W        W66136  29.525  40.426   1.900
97807W        W66137  33.469   5.689  14.841
97808W        W66138   6.359  43.981   1.913
97809W        W66139  39.376   1.856  13.510
97810W        W66140   6.338  43.271   4.836
97811W        W66141  31.514  20.037   0.836
97812W        W66142  26.972  14.786  10.617
97813W        W66143   7.378  35.575  11.384
97814W        W66144   6.223  14.660  13.394
97815W        W66145  18.203  22.056  12.924
97816W        W66146   5.362  26.479  12.345
97817W        W66147  43.902  33.616   1.703
97818W        W66148  17.772  11.657   3.704
97819W        W66149  44.878  22.175   4.239
97820W        W66150   1.807  17.061  12.042
97821W        W66151  36.395  36.411  10.499
97822W        W66152   5.377  13.738  14.353
97823W        W66153  23.053  13.333   3.658
97824W        W66154  39.432  41.032  14.764
97825W        W66155  39.958  39.436   2.322
97826W        W66156  40.799  24.640  13.414
97827W        W66157   1.343  41.031   3.265
97828W        W66158  13.259  30.610  10.548
97829W        W66159  37.352  35.369  13.925
97830W        W66160  18.239   9.759  12.392
97831W        W66161  13.258  20.120   4.195
97832W        W66162   8.257  20.675  11.006
97833W        W66163  38.353  43.494  11.498
97834W        W66164   0.949   4.811   1.785
97835W        W66165   1.322  13.134  12.921
97836W        W66166  39.547  39.018  12.515
97837W        W66167  18.594   1.876  13.806
97838W        W66168   4.283  35.600  10.507
97839W        W66169  32.106  26.469  13.473
97840W        W66170  10.239   8.815  11.942
97841W        W66171  22.630  40.956  13.915
97842W        W66172  11.366  14.669   2.872
97843W        W66173  17.089  27.582  14.448
97844W        W66174  24.677  32.991  13.055
97845W        W66175  31.481  36.463  12.086
97846W        W66176  37.579  25.627   0.780
97847W        W66177   8.887   2.293   3.358
97848W        W66178  26.202   7.779  13.832
97849W        W66179  41.491  22.048  11.124
97850W        W66180   3.363   9.833   2.222
97851W        W66181  38.367  36.561   0.766
97852W        W66182  20.524   7.335  14.356
97853W        W66183  31.001  40.525   0.951
97854W        W66184   0.422  21.033  12.402
97855W        W66185   2.733  20.144   2.841
97856W        W66186  42.807  41.375  10.639
97857W        W66187  18.727  33.990   2.725
97858W        W66188  27.086  39.903   3.738
97859W        W66189  39.504   3.953  13.503
97860W        W66190   1.418  11.211   2.249
97861W        W66191  37.873   4.829  10.911
97862W        W66192   6.398   5.305  12.933
97863W        W66193   1.789  24.137   4.676
97864W        W66194  24.524  38.939  10.989
97865W        W66195  17.166  14.098   0.781
97866W        W66196  35.490   1.895  12.830
97867W        W66197  15.252  31.504  11.045
97868W        W66198  26.531   1.941  12.074
97869W        W66199   4.444  25.034   3.236
97870W        W66200  28.544  24.170   0.290
97871W        W66201   9.168  26.070   2.896
97872W        W66202  29.429   5.779   1.279
97873W        W66203  21.224  14.240  10.563
97874W        W66204  44.413  38.372   1.797
97875W        W66205  14.321   7.785   1.829
97876W        W66206  22.168  27.587  10.147
97877W        W66207  10.175  35.374  10.497
97878W        W66208  29.146  24.123   4.732
97879W        W66209   4.805   7.347  10.482
97880W        W66210   6.195  23.535  12.024
97881W        W66211  20.132  19.704   1.392
97882W        W66212  13.273  14.247   2.778
97883W        W66213  34.485  12.189  12.964
97884W        W66214  34.579   1.313   1.829
97885W        W66215  35.036  44.826  11.114
97886W        W66216  29.488  11.811  12.412
97887W        W66217  10.340  34.003   4.233
97888W        W66218  22.700  43.934   2.280
97889W        W66219  40.341  29.661   2.202
97890W        W66220  11.828   5.219  11.041
97891W        W66221   1.929   4.828   1.236
97892W        W66222   3.341  16.276  12.554
97893W        W66223  37.071   4.312  12.430
97894W        W66224  37.840  38.835  11.996
97895W        W66225  40.471  29.512   0.444
97896W        W66226   9.282  34.911   1.723
97897W        W66227   2.786  21.092  14.908
97898W        W66228  10.701  29.963  14.831
97899W        W66229   4.239  34.107   3.353
97900W        W66230   2.321  42.917   1.696
97901W        W66231  15.680  11.777   4.334
97902W        W66232  39.543  27.166  10.891
97903W        W66233  44.786  30.078   0.805
97904W        W66234   2.259   7.738  11.428
97905W        W66235  42.406   2.247   0.326
97906W        W66236  37.056  42.983  12.980
97907W        W66237  21.568  21.600  11.411
97908W        W66238  38.496  31.535  12.893
97909W        W66239  37.412  16.723   3.348
97910W        W66240   3.728  20.174  12.909
97911W        W66241  40.545  29.668  12.396
97912W        W66242  17.675  21.231  12.346
97913W        W66243  15.119   6.739   1.435
97914W        W66244  42.959  12.194   4.785
97915W        W66245  16.587   9.235  12.913
97916W        W66246  33.060  35.452  13.834
97917W        W66247   2.960   5.709   3.815
97918W        W66248  10.370   3.783   3.644
97919W        W66249  15.327  25.585  10.562
97920W        W66250   5.283   5.293   2.855
97921W        W66251  11.858   5.923  10.441
97922W        W66252   7.678  36.514   4.311
97923W        W66253  41.349  13.776   1.790
97924W        W66254  30.519   1.245  14.988
97925W        W66255   6.799   5.771  13.892
97926W        W66256  40.370  31.472  12.920
97927W        W66257  15.787  37.338  11.994
97928W        W66258  12.646  28.541   3.802
97929W        W66259  24.061  35.877   9.990
97930W        W66260  42.015  20.643   2.785
97931W        W66261   2.472  10.848  13.513
97932W        W66262  23.025  38.858   1.724
97933W        W66263   1.280   2.759  10.970
97934W        W66264  12.195  24.191   0.437
97935W        W66265  19.048   4.894   4.138
97936W        W66266  17.643   2.412   1.760
97937W        W66267  33.880  24.164   1.884
97938W        W66268  17.690  22.724   2.729
97939W        W66269   6.858  27.059  13.816
97940W        W66270  25.605  22.563  10.073
97941W        W66271  12.129  17.248   4.771
97942W        W66272  15.249  40.508  11.942
97943W        W66273   9.281  30.135   0.285
97944W        W66274  37.502  32.008   9.938
97945W        W66275  30.969  17.570   0.923
97946W        W66276   8.188  12.327  14.453
97947W        W66277  33.468  41.429   2.853
97948W        W66278  24.189  30.630  14.019
97949W        W66279   6.273   3.895  11.017
97950W        W66280  13.733  19.181   1.367
97951W        W66281  31.989   8.404  13.352
97952W        W66282  34.007  10.327  12.346
97953W        W66283  29.655  39.932   2.814
97954W        W66284   1.385  22.204  14.013
97955W        W66285  28.645   8.347   0.420
97956W        W66286  41.314  27.542   3.838
97957W        W66287  15.233  28.940  13.898
97958W        W66288  37.340  24.686  10.903
97959W        W66289  44.389  24.197  11.881
97960W        W66290   2.913  34.966  12.823
97961W        W66291  10.786  11.214  11.858
97962W        W66292   8.335  21.231   3.201
97963W        W66293  35.110  44.921   0.457
97964W        W66294  18.147  29.034  12.986
97965W        W66295  33.047  40.392   3.281
97966W        W66296   6.835  41.385  13.003
97967W        W66297  26.471  35.902   4.254
97968W        W66298  12.275  18.749   4.156
97969W        W66299   6.758  25.688   3.365
97970W        W66300  44.404  44.795  14.443
97971W        W66301   5.909  13.614  13.337
97972W        W66302   6.891  25.600  14.810
97973W        W66303  25.668  24.229   0.736
97974W        W66304  35.867   1.897   1.850
97975W        W66305   2.795  31.610   1.408
97976W        W66306   6.213  10.730   4.769
97977W        W66307  15.601  40.541  13.316
97978W        W66308  12.267  25.055  14.811
97979W        W66309  11.244  14.158  11.914
97980W        W66310  12.305  43.804   1.747
97981W        W66311  37.346  28.457   1.311
97982W        W66312  42.030  28.960   1.319
97983W        W66313   8.731  33.568  13.499
97984W        W66314  31.055  23.121   9.596
97985W        W66315  25.029   3.394   2.807
97986W        W66316  37.863  42.839  14.388
97987W        W66317  32.068   5.786  14.867
97988W        W66318  37.364   6.683   1.775
97989W        W66319  31.132   4.382  13.044
97990W        W66320  29.075  23.096   4.167
97991W        W66321  28.454   9.804   4.194
97992W        W66322  34.599  19.125  14.877
97993W        W66323  38.408   0.873   4.641
97994W        W66324  15.688  39.538  11.011
97995W        W66325  40.492  39.535  13.355
97996W        W66326  39.894   8.165   3.372
97997W        W66327  35.074  23.997   2.703
97998W        W66328  35.507  17.657   2.759
97999W        W66329  32.403  29.430   1.924
98000W        W66330  32.434  38.370   0.432
98001W        W66331  11.779  25.527   3.379
98002W        W66332  37.085   3.454  11.983
98003W        W66333  20.729   0.907  12.341
98004W        W66334  20.189  32.092   2.727
98005W        W66335  32.913  44.877  10.450
98006W        W66336  24.621  18.545   0.793
98007W        W66337  21.066  30.989  14.443
98008W        W66338   5.374  18.578  11.470
98009W        W66339  42.281   5.877  10.638
98010W        W66340  41.519  35.978  14.770
98011W        W66341  41.490  14.249   3.305
98012W        W66342   6.863  21.111  13.839
98013W        W66343  20.183  23.557  11.034
98014W        W66344  44.500  23.084   1.710
98015W        W66345   0.369  41.848  11.939
98016W        W66346   2.435  33.035  13.872
98017W        W66347  42.861   1.426  10.570
98018W        W66348  12.127  37.028   2.679
98019W        W66349  44.361  17.246   4.813
98020W        W66350   1.856  34.572   2.896
98021W        W66351   9.300  23.622  12.352
98022W        W66352   0.828  28.553  12.004
98023W        W66353  33.971  35.892  10.419
98024W        W66354  44.780  26.111  12.969
98025W        W66355  22.060  23.512   1.863
98026W        W66356  38.377  43.409   2.385
98027W        W66357  39.516   6.420  10.432
98028W        W66358   6.711  41.878  11.932
98029W        W66359   7.761  39.530  12.521
98030W        W66360   3.854  32.113  14.774
98031W        W66361  33.110  44.381  10.416
98032W        W66362  38.976  10.669  11.471
98033W        W66363  12.334  32.403   2.334
98034W        W66364   6.316  16.119  10.442
98035W        W66365   8.786  38.506   4.618
98036W        W66366  27.004  33.516   9.939
98037W        W66367  15.655  22.747   3.262
98038W        W66368  38.472  44.417   2.683
98039W        W66369  21.106  43.294   2.826
98040W        W66370  23.199   6.270   4.768
98041W        W66371  20.122  19.705  12.343
98042W        W66372  13.676  22.082  13.446
98043W        W66373  27.160  39.492   0.945
98044W        W66374  37.034   2.336   1.217
98045W        W66375  44.888  28.640  14.982
98046W        W66376  29.496   3.870  13.995
98047W        W66377  18.700   6.760   1.891
98048W        W66378  36.498  39.893  14.885
98049W        W66379   3.442  16.122   4.660
98050W        W66380   5.905  11.702  12.544
98051W        W66381   9.700  21.076  11.390
98052W        W66382   4.754  26.488   3.806
98053W        W66383  35.975  22.170  10.942
98054W        W66384  17.264   9.876   1.803
98055W        W66385  32.979  17.112   0.273
98056W        W66386  10.271  13.257   5.290
98057W        W66387  24.539  35.109   2.208
98058W        W66388  37.578  29.072  13.514
98059W        W66389  25.993  23.096   1.712
98060W        W66390  34.582  29.596   0.481
98061W        W66391  34.970  42.499   0.408
98062W        W66392  23.682   6.813   3.745
98063W        W66393   3.804  36.874  10.984
98064W        W66394  16.640  22.036  11.962
98065W        W66395  14.708  31.614  12.952
98066W        W66396  10.742  38.053   3.824
98067W        W66397   2.779  33.396   4.219
98068W        W66398  17.105  18.245  12.887
98069W        W66399  14.306  10.369  14.406
98070W        W66400  40.011  36.519  11.968
98071W        W66401  31.432   2.345   4.321
98072W        W66402  44.309  30.013   2.776
98073W        W66403   1.972  41.480  14.010
98074W        W66404   8.672  34.986  10.991
98075W        W66405   4.750  33.485  11.071
98076W        W66406  10.811  10.727  11.597
98077W        W66407  29.492  37.471  12.552
98078W        W66408   8.770  15.133   3.232
98079W        W66409  43.304  37.866   3.268
98080W        W66410  35.945  42.360   2.691
98081W        W66411  29.059  22.011  11.026
98082W        W66412   7.891   7.197  11.037
98083W        W66413   7.730   9.180  11.974
98084W        W66414  17.562  13.799   0.369
98085W        W66415  16.246  37.962  10.033
98086W        W66416  18.093   4.830  14.457
98087W        W66417  30.154  19.268  11.008
98088W        W66418  35.945  20.722  11.099
98089W        W66419   0.877  25.192  14.850
98090W        W66420  25.972  16.147  14.954
98091W        W66421  20.219  40.999   2.266
98092W        W66422  27.967   5.361  11.475
98093W        W66423  42.985  39.434   4.128
98094W        W66424   7.816   4.852  12.367
98095W        W66425  21.234  21.257  10.536
98096W        W66426  29.607  15.764  12.949
98097W        W66427  27.632  13.224  12.417
98098W        W66428  41.382  13.237   1.400
98099W        W66429  19.619   0.271  12.436
98100W        W66430  44.756   8.660   4.203
98101W        W66431  36.358  42.005   5.255
98102W        W66432   5.308  14.833   2.803
98103W        W66433  31.415  10.694  13.351
98104W        W66434   3.256  42.886   1.839
98105W        W66435  14.629   2.430  11.976
98106W        W66436   9.777  12.212   4.801
98107W        W66437  19.616  35.506  10.935
98108W        W66438  17.558   4.742  12.935
98109W        W66439  36.466  21.122   1.911
98110W        W66440  12.760  18.740   1.786
98111W        W66441   8.686  10.646  12.556
98112W        W66442  33.024  28.019   3.315
98113W        W66443  40.855  30.482  13.803
98114W        W66444  16.729   1.289   4.285
98115W        W66445  37.066  33.031  13.381
98116W        W66446  16.217  34.102  13.318
98117W        W66447  18.758  10.349  13.469
98118W        W66448  44.957  23.129  10.509
98119W        W66449  23.077  10.141  11.459
98120W        W66450   9.735  14.738  10.444
98121W        W66451  40.819  18.292  13.929
98122W        W66452   7.884  16.253  10.531
98123W        W66453  40.445  32.411  11.461
98124W        W66454  26.629   7.330  13.968
98125W        W66455   7.398  14.725  12.398
98126W        W66456  13.336  27.574   3.640
98127W        W66457   2.239  31.049   1.881
98128W        W66458   2.830  39.841   0.743
98129W        W66459  14.338  26.041   3.199
98130W        W66460  44.832  18.689   4.219
98131W        W66461  37.014  38.426   2.284
98132W        W66462  32.607  12.253  11.972
98133W        W66463  25.216  42.841  11.563
98134W        W66464  20.723   9.695  10.156
98135W        W66465   5.782  15.306   0.755
98136W        W66466  15.273  10.231  10.569
98137W        W66467   4.725  15.137  12.450
98138W        W66468  25.214   5.788  12.853
98139W        W66469  16.634   4.437   1.426
98140W        W66470   6.692  27.500  14.331
98141W        W66471  43.450   0.838   0.409
98142W        W66472  40.405  44.344  13.455
98143W        W66473  16.632  14.786  10.608
98144W        W66474   9.165  21.546  13.044
98145W        W66475  44.325  38.420  13.903
98146W        W66476  28.033  13.306   0.388
98147W        W66477  32.599   7.860   0.370
98148W        W66478  14.772  23.085  12.845
98149W        W66479   7.388   4.757   0.788
98150W        W66480  27.457  25.644  12.566
98151W        W66481  25.021  30.502   1.699
98152W        W66482  15.213  38.384  12.884
98153W        W66483  22.050  26.169  11.494
98154W        W66484   7.711  21.086   4.778
98155W        W66485  27.973  33.542  10.042
98156W        W66486  25.655  23.040   2.241
98157W        W66487  20.606   3.907   4.258
98158W        W66488  35.511  44.854  11.553
98159W        W66489  42.838   2.240  13.917
98160W        W66490  33.594   4.710  10.565
98161W        W66491  19.677  29.630  12.945
98162W        W66492   9.285  26.613   1.874
98163W        W66493   0.816  19.150  11.579
98164W        W66494  39.325  15.791   4.734
98165W        W66495  34.018  17.694  14.463
98166W        W66496  41.797   2.850   1.348
98167W        W66497   0.493  34.058   2.765
98168W        W66498  14.676  26.192   1.887
98169W        W66499  10.290  37.422  10.444
98170W        W66500  10.764  23.193  12.575
98171W        W66501  32.039  12.161   3.812
98172W        W66502  40.921   4.374   3.769
98173W        W66503   9.697  25.594   0.267
98174W        W66504  44.474  44.419   1.357
98175W        W66505  21.571   9.246  14.512
98176W        W66506  10.270  42.517   0.336
98177W        W66507  15.245  19.120  14.342
98178W        W66508   4.405  21.139   1.701
98179W        W66509  43.014   3.840   1.368
98180W        W66510   6.884  31.995   5.245
98181W        W66511  40.911   6.701   1.786
98182W        W66512  17.777  28.522  13.003
98183W        W66513  16.080   9.748   4.120
98184W        W66514   7.328  30.444  13.797
98185W        W66515   0.266  44.380   2.679
98186W        W66516  24.601   1.294  13.534
98187W        W66517  16.595  12.774   1.917
98188W        W66518   3.721  12.151   3.288
98189W        W66519  25.596  39.550   0.268
98190W        W66520  39.046  25.009  10.533
98191W        W66521  23.070  20.668   4.808
98192W        W66522  35.090   4.226  13.317
98193W        W66523  30.488  19.179   3.684
98194W        W66524  17.094  42.915   1.784
98195W        W66525   6.770   6.397   3.767
98196W        W66526  32.944  22.214   3.633
98197W        W66527  42.897   3.383  14.970
98198W        W66528  36.512   8.279  11.499
98199W        W66529  31.063  17.611   2.388
98200W        W66530  22.682  13.308  12.461
98201W        W66531  28.511  34.935  12.965
98202W        W66532  33.105  23.625   0.753
98203W        W66533  21.757  34.455   4.645
98204W        W66534  17.074  13.752  14.940
98205W        W66535  31.408  13.797   1.274
98206W        W66536  11.789  14.269   3.760
98207W        W66537  16.225  34.956  13.327
98208W        W66538   9.328  24.211   0.888
98209W        W66539   0.338  34.557   1.834
98210W        W66540  15.712   3.849   0.422
98211W        W66541  10.144  37.486   1.843
98212W        W66542  28.476  44.770  10.558
98213W        W66543   1.418   6.207  12.351
98214W        W66544   2.312  20.616  11.574
98215W        W66545   1.431   6.247  10.595
98216W        W66546  19.158  34.440   3.675
98217W        W66547  38.944  35.377  11.897
98218W        W66548  26.990  44.949   0.428
98219W        W66549  29.152   0.940  11.951
98220W        W66550  16.803  38.876   4.624
98221W        W66551  29.579   1.257  14.481
98222W        W66552  20.584   7.290   9.636
98223W        W66553  28.617   2.231   3.857
98224W        W66554  24.973  21.226  10.104
98225W        W66555  22.597  20.536   2.407
98226W        W66556  38.429  25.583  12.982
98227W        W66557  10.360  33.956   1.921
98228W        W66558  26.974  16.656  14.304
98229W        W66559   9.682  37.466  12.454
98230W        W66560  32.433  44.947  12.933
98231W        W66561   8.359  37.065   1.868
98232W        W66562  31.148  43.993   3.684
98233W        W66563  36.039  16.201  10.635
98234W        W66564  18.597  26.671   4.783
98235W        W66565  21.613  28.482  13.820
98236W        W66566  35.987  36.484   4.825
98237W        W66567  14.665   5.824  10.096
98238W        W66568  34.913  13.128   3.304
98239W        W66569  38.370  28.568   4.250
98240W        W66570   6.678   7.884  13.415
98241W        W66571  37.884  14.205   3.720
98242W        W66572  24.516  26.631  10.970
98243W        W66573  33.044  19.231  13.026
98244W        W66574  29.585  43.391   0.895
98245W        W66575  28.140  14.753   0.907
98246W        W66576  18.121  24.715  14.830
98247W        W66577  37.865   4.428   0.936
98248W        W66578  23.223  30.981   2.720
98249W        W66579   1.793  27.626   0.793
98250W        W66580  29.955  42.928   4.256
98251W        W66581  19.093  17.291   2.824
98252W        W66582   2.324  18.646  13.408
98253W        W66583  27.111  19.246   2.777
98254W        W66584  29.985  10.310  14.829
98255W        W66585  12.693   8.253  14.349
98256W        W66586  12.759   5.300   4.122
98257W        W66587  24.679  40.976   2.895
98258W        W66588  18.675  17.764   0.404
98259W        W66589  29.091  37.566  12.485
98260W        W66590  42.966  22.745  10.414
98261W        W66591  31.492   4.901   4.206
98262W        W66592  14.101   1.294   1.212
98263W        W66593  28.182  29.994  14.362
98264W        W66594  42.791   5.216   2.798
98265W        W66595  25.982  37.414  13.952
98266W        W66596  25.629   7.718  14.389
98267W        W66597   9.354  37.536  10.553
98268W        W66598   8.241   6.876  11.400
98269W        W66599   4.359  40.036  11.416
98270W        W66600  18.257  31.076   4.317
98271W        W66601  30.953  10.839   0.880
98272W        W66602  26.703  30.965   3.715
98273W        W66603   9.755  26.616   3.231
98274W        W66604   6.418  40.369   3.770
98275W        W66605   7.286  43.819   2.250
98276W        W66606   7.830  34.033   0.352
98277W        W66607   1.324  25.666  10.922
98278W        W66608  40.025   7.848  10.570
98279W        W66609  26.508  22.694  10.513
98280W        W66610  19.585  44.398   4.803
98281W        W66611  32.467  34.568  11.398
98282W        W66612  44.926  33.463   3.704
98283W        W66613  16.158  14.211  11.097
98284W        W66614  41.339  26.682   3.156
98285W        W66615  42.785  18.199   2.377
98286W        W66616  31.965  38.051   0.763
98287W        W66617  10.872  32.557   0.864
98288W        W66618  12.288  16.712  10.549
98289W        W66619   9.277   7.734   3.307
98290W        W66620  26.041  18.256  14.470
98291W        W66621  25.589  28.006   4.789
98292W        W66622  29.977  14.256   1.787
98293W        W66623  38.390  17.711   1.735
98294W        W66624  16.627  13.700   4.676
98295W        W66625  20.235  19.552   4.770
98296W        W66626  30.006  25.081   4.644
98297W        W66627  19.084   7.703   4.682
98298W        W66628  12.792   6.877  11.497
98299W        W66629   6.421  25.123   3.384
98300W        W66630   8.291  13.200  13.357
98301W        W66631  32.456   0.478  13.473
98302W        W66632   7.269  29.472  11.881
98303W        W66633  31.529  39.362  11.483
98304W        W66634  26.003  41.803  12.493
98305W        W66635  32.979  17.700  12.039
98306W        W66636   8.664   3.357   0.748
98307W        W66637  39.038   8.320  11.967
98308W        W66638  16.723   4.208   0.824
98309W        W66639   5.389  32.028   1.262
98310W        W66640  12.712   4.448  12.067
98311W        W66641  27.574  12.729   1.220
98312W        W66642  12.309  30.466   0.466
98313W        W66643   9.885  29.429  13.887
98314W        W66644  22.727   9.264   0.799
98315W        W66645   8.842   7.281   3.284
98316W        W66646  44.290  16.309   4.746
98317W        W66647  18.743  44.419   4.777
98318W        W66648  23.006   7.760  12.829
98319W        W66649  39.552  11.852  13.850
98320W        W66650   9.793  44.812  12.399
98321W        W66651  19.664  30.525  10.480
98322W        W66652  22.604  13.214  13.043
98323W        W66653  12.749  23.732   1.706
98324W        W66654  35.521  30.581  12.428
98325W        W66655  28.641  14.161   4.733
98326W        W66656  41.019  14.808   4.764
98327W        W66657  11.276  20.201  10.941
98328W        W66658   9.241  26.105  14.308
98329W        W66659  36.411  11.155   0.841
98330W        W66660  41.956  15.316   4.676
98331W        W66661  37.422  12.359  14.914
98332W        W66662  39.535  20.553  13.824
98333W        W66663  24.045  33.430  12.389
98334W        W66664  35.970  18.060   3.660
98335W        W66665  38.437  23.567  13.962
98336W        W66666  39.962  30.069   2.851
98337W        W66667  12.770  38.417  11.601
98338W        W66668  12.779  18.149  10.508
98339W        W66669  23.004   7.675  12.006
98340W        W66670   6.919  31.589   2.336
98341W        W66671  32.018  38.339   1.324
98342W        W66672  41.354  31.630   3.698
98343W        W66673   1.239  39.363   3.641
98344W        W66674  16.756   3.741  11.905
98345W        W66675   0.474  32.437  11.485
98346W        W66676   0.854  17.149  11.088
98347W        W66677  30.016   3.811  10.911
98348W        W66678   0.942  41.301  13.028
98349W        W66679  42.859  39.471  12.876
98350W        W66680  41.925  31.640  14.763
98351W        W66681  18.676  36.575  13.910
98352W        W66682  18.115   3.843  11.404
98353W        W66683  22.010   0.425   3.328
98354W        W66684  17.746  20.700   1.369
98355W        W66685  40.305   2.419  11.451
98356W        W66686   8.682  24.611   1.827
98357W        W66687  39.936   6.315   4.193
98358W        W66688  34.886  42.927   5.252
98359W        W66689   5.806   6.794  11.068
98360W        W66690  10.377  31.949  10.976
98361W        W66691   3.953  10.336   4.215
98362W        W66692  13.315  19.534   1.778
98363W        W66693  25.687  25.660   2.837
98364W        W66694  14.186   5.934  11.964
98365W        W66695  36.076   7.716  10.888
98366W        W66696  26.010  44.806   4.758
98367W        W66697  12.295  32.616   0.320
98368W        W66698   2.454  38.016  10.536
98369W        W66699  43.819  27.533  14.759
98370W        W66700  23.061  20.553   0.911
98371W        W66701  21.725   2.312  12.966
98372W        W66702  36.491  10.778   1.784
98373W        W66703  39.958  36.031  12.856
98374W        W66704  12.624  23.594  13.327
98375W        W66705   5.861   1.459  12.404
98376W        W66706  37.360  17.709   2.836
98377W        W66707  35.916  26.533  12.995
98378W        W66708  29.531  40.432  13.483
98379W        W66709  13.280  31.513   4.243
98380W        W66710   7.790  42.866  12.911
98381W        W66711  21.611   0.745   3.709
98382W        W66712   2.933  12.201   0.748
98383W        W66713  40.845  21.143  13.422
98384W        W66714   3.380  29.498  11.037
98385W        W66715  11.264  36.891   3.707
98386W        W66716  24.643  44.308   3.736
98387W        W66717  28.673  37.008   0.867
98388W        W66718  30.032  38.897  11.522
98389W        W66719   2.837  19.275  12.342
98390W        W66720  20.675  28.970  11.430
98391W        W66721  34.416   7.683  13.010
98392W        W66722  35.046   9.186   1.294
98393W        W66723  15.144  16.194   3.827
98394W        W66724  37.059  25.691   4.784
98395W        W66725  14.702  34.370  10.972
98396W        W66726  44.276   7.768   4.812
98397W        W66727  16.608  28.116   3.181
98398W        W66728  12.139  15.632   0.795
98399W        W66729  28.538  32.982   0.407
98400W        W66730  26.552  31.998   0.912
98401W        W66731   2.765   4.816  14.335
98402W        W66732  29.047  31.482  10.467
98403W        W66733   1.288  42.520   0.785
98404W        W66734  18.621  33.565  11.445
98405W        W66735  39.509  21.192  11.944
98406W        W66736  13.641   4.826   4.285
98407W        W66737  35.998  32.131   3.718
98408W        W66738  24.060  18.169   3.386
98409W        W66739  44.401  19.276   1.932
98410W        W66740  11.745   1.811  12.071
98411W        W66741  33.423  37.526  12.830
98412W        W66742   7.371  30.458   3.636
98413W        W66743  18.761   7.176   5.130
98414W        W66744   7.872  31.536  12.980
98415W        W66745  32.136  16.807   2.393
98416W        W66746  19.171  34.530   2.847
98417W        W66747  20.736  26.020   3.707
98418W        W66748  21.139  25.551   2.241
98419W        W66749   7.408  40.303   1.746
98420W        W66750  15.165   3.947  11.113
98421W        W66751   6.695  28.941   4.768
98422W        W66752  19.533  37.464   3.785
98423W        W66753  20.566  38.553  13.463
98424W        W66754  15.659  44.318   3.764
98425W        W66755  10.769  37.471   2.249
98426W        W66756  29.557   0.422  10.104
98427W        W66757  15.158  12.761   3.732
98428W        W66758  34.463   3.808  10.450
98429W        W66759  19.667  30.029   5.207
98430W        W66760   2.377  38.011   0.753
98431W        W66761  26.700   5.770   2.264
98432W        W66762  19.176  19.188   4.186
98433W        W66763  25.526  26.100   1.904
98434W        W66764   1.976  18.731  14.354
98435W        W66765   4.423  20.260  11.573
98436W        W66766  25.098  21.225  10.998
98437W        W66767  23.086  19.678  10.973
98438W        W66768  40.904  23.075  11.525
98439W        W66769  13.212  30.115  14.327
98440W        W66770  39.925  20.524   1.774
98441W        W66771  42.806  10.842  10.540
98442W        W66772  13.833   4.263  11.444
98443W        W66773   9.782  24.630  14.286
98444W        W66774  19.628  36.881  13.021
98445W        W66775  16.718  14.620  11.094
98446W        W66776  36.062  42.400   1.829
98447W        W66777  43.407   9.188   4.663
98448W        W66778  20.555  14.745   3.275
98449W        W66779  10.338  39.328   0.394
98450W        W66780  21.158  27.008   4.293
98451W        W66781   9.755  44.838   3.148
98452W        W66782  27.019  10.269   2.360
98453W        W66783   0.786  24.102  14.365
98454W        W66784  27.155  10.636   1.442
98455W        W66785   3.332  13.703   4.696
98456W        W66786  20.100  13.159  14.494
98457W        W66787  41.355   1.886  13.064
98458W        W66788  39.500  15.585   0.785
98459W        W66789  33.499  20.113   3.775
98460W        W66790  40.960  32.466   0.755
98461W        W66791  32.514   6.410  13.485
98462W        W66792  11.661   3.928  14.274
98463W        W66793   7.709   4.278  11.982
98464W        W66794   8.717   1.753   2.268
98465W        W66795  40.472   3.931   2.697
98466W        W66796  18.548   6.306   1.427
98467W        W66797   8.180  31.647  14.994
98468W        W66798  12.164  32.902   0.447
98469W        W66799  22.180  22.507  13.333
98470W        W66800  12.263  40.962   4.829
98471W        W66801  40.443  41.452  14.939
98472W        W66802  32.916  28.152   1.747
98473W        W66803  24.227   9.148  12.492
98474W        W66804  11.653  17.274   2.289
98475W        W66805  29.058  28.574  13.384
98476W        W66806  21.715  25.545   3.235
98477W        W66807  19.750   0.985  14.405
98478W        W66808   8.261  14.273  12.359
98479W        W66809   5.264   0.424  12.861
98480W        W66810  28.010  37.425   0.861
98481W        W66811   6.845  33.958  10.972
98482W        W66812  25.040  12.710  12.368
98483W        W66813  28.181   6.293  12.363
98484W        W66814  15.174  39.543  10.515
98485W        W66815   4.863  32.481  12.553
98486W        W66816   5.853  40.447   1.326
98487W        W66817   2.732  20.527  14.943
98488W        W66818  32.078  20.073  12.524
98489W        W66819  43.808  30.126   3.154
98490W        W66820  29.578  16.715   1.384
98491W        W66821   9.668   8.244   2.668
98492W        W66822   0.975  17.147   5.092
98493W        W66823  37.050  27.092  13.370
98494W        W66824  21.677  13.835  14.940
98495W        W66825  35.404   7.385   0.753
98496W        W66826  25.540  43.871  10.497
98497W        W66827  36.020  24.139  10.579
98498W        W66828  13.261   0.949   1.808
98499W        W66829  14.230  33.473  11.444
98500W        W66830   0.908  13.131  14.415
98501W        W66831   4.271  35.583   4.832
98502W        W66832  24.175  17.638   3.312
98503W        W66833  34.046  29.030   4.350
98504W        W66834   7.795  25.624   4.255
98505W        W66835  38.480  29.573   3.751
98506W        W66836  10.262  44.989  10.903
98507W        W66837  10.235  19.542   0.753
98508W        W66838  42.462  32.609   1.312
98509W        W66839  28.679  31.443   4.748
98510W        W66840  20.244  43.480  11.901
98511W        W66841   3.419  43.948  13.941
98512W        W66842  18.562   2.821  11.861
98513W        W66843  24.160  23.637   5.261
98514W        W66844  24.112  21.656  10.590
98515W        W66845  37.905  12.761  13.453
98516W        W66846  32.392  44.859   3.348
98517W        W66847   7.314  44.316   3.641
98518W        W66848  38.471  25.671   1.911
98519W        W66849  13.260  44.382   9.937
98520W        W66850  43.484  12.677  11.597
98521W        W66851  30.118  14.746  14.362
98522W        W66852  39.005  12.255  13.853
98523W        W66853   1.298  17.628  11.409
98524W        W66854  27.596   6.310  10.566
98525W        W66855  39.334   3.861   3.752
98526W        W66856  39.416  32.625   2.890
98527W        W66857  10.323  35.450  13.320
98528W        W66858  31.007   7.875  11.564
98529W        W66859  40.408  41.464  12.579
98530W        W66860  11.237  21.222   1.255
98531W        W66861  13.825   7.903  13.843
98532W        W66862   1.907  10.760  13.955
98533W        W66863  29.123   1.432  13.871
98534W        W66864   9.155  30.149   1.428
98535W        W66865  13.657  24.108  10.915
98536W        W66866  29.573  14.124  11.881
98537W        W66867  32.961  42.795   0.767
98538W        W66868  20.157  42.472   1.414
98539W        W66869  33.458  23.191   0.832
98540W        W66870   6.780  10.226   4.813
98541W        W66871  21.571  11.811  12.379
98542W        W66872  21.110   9.704   1.266
98543W        W66873   5.727  28.677   2.321
98544W        W66874   5.911  22.083   3.636
98545W        W66875  13.257  37.461   3.309
98546W        W66876  38.405   0.898  11.113
98547W        W66877  13.735  31.487   4.597
98548W        W66878  37.871  30.946   3.813
98549W        W66879  35.598  18.743   4.203
98550W        W66880  36.039  42.508  12.385
98551W        W66881   7.719  33.605   0.874
98552W        W66882  25.983  41.993  13.920
98553W        W66883  24.151  25.708   2.727
98554W        W66884  18.551  40.509  12.950
98555W        W66885  22.606  14.311   3.299
98556W        W66886  26.017  40.438  12.457
98557W        W66887  27.628  11.130   4.124
98558W        W66888  39.034   8.698  11.534
98559W        W66889  19.179  32.114   3.708
98560W        W66890  38.966   1.384   2.300
98561W        W66891  44.438  37.953   2.375
98562W        W66892   9.328  18.150   4.148
98563W        W66893  37.468  38.880   4.155
98564W        W66894  31.145  22.033  14.021
98565W        W66895  27.638   4.438   4.639
98566W        W66896   9.209   7.408  13.923
98567W        W66897   7.791  27.684  11.115
98568W        W66898  14.764   0.744   4.755
98569W        W66899  38.397   1.898  12.341
98570W        W66900   8.734  20.539  10.966
98571W        W66901   8.268  41.014  14.441
98572W        W66902   9.157  22.155  13.472
98573W        W66903  32.453  14.779  12.032
98574W        W66904  13.665  42.524   3.762
98575W        W66905   8.330  26.691   4.817
98576W        W66906  24.193  37.848  14.484
98577W        W66907  18.162  21.664   3.792
98578W        W66908  16.162  13.819  12.021
98579W        W66909  14.217  10.339   1.381
98580W        W66910   8.202  23.066   2.299
98581W        W66911  41.293  18.739   1.383
98582W        W66912  41.798  35.998   2.254
98583W        W66913  10.699  23.985   2.366
98584W        W66914  14.272   4.711  12.905
98585W        W66915   2.252   6.758   2.853
98586W        W66916  41.992  21.229  11.093
98587W        W66917  14.679   9.705   2.702
98588W        W66918   0.785   9.300   0.344
98589W        W66919  36.967  15.269   4.157
98590W        W66920  30.102  43.977   0.754
98591W        W66921  17.227   3.268   0.880
98592W        W66922  38.377  22.154  13.330
98593W        W66923   9.780  20.666   0.379
98594W        W66924  35.417  26.202  14.949
98595W        W66925  16.122  28.461   4.719
98596W        W66926   8.386  22.014   1.726
98597W        W66927  31.944   8.291   0.798
98598W        W66928  15.198   2.897   0.245
98599W        W66929  11.176  29.622  13.797
98600W        W66930   3.396  40.356   5.262
98601W        W66931  24.664  24.149  10.533
98602W        W66932   7.319  23.101  13.444
98603W        W66933   9.162   4.734  11.043
98604W        W66934  41.520  14.271   4.804
98605W        W66935  32.052  25.701   0.249
98606W        W66936  26.018  21.086  14.411
98607W        W66937  15.645  38.838  11.869
98608W        W66938  42.296  27.582   2.716
98609W        W66939   0.769  29.094  10.921
98610W        W66940  36.489   7.849   2.310
98611W        W66941   6.737  34.893  14.392
98612W        W66942   2.935   4.825  11.901
98613W        W66943   9.261  39.354   3.716
98614W        W66944  15.784   7.882  12.493
98615W        W66945  39.399  44.439  12.560
98616W        W66946  29.114  10.737   4.818
98617W        W66947  15.222   9.301   1.385
98618W        W66948  28.441   0.819  13.960
98619W        W66949  35.068  39.475   4.332
98620W        W66950  26.525  26.056  13.529
98621W        W66951  13.291  33.433  13.834
98622W        W66952  36.367  28.147  11.939
98623W        W66953  16.603  25.710   2.402
98624W        W66954  31.407   0.460   2.878
98625W        W66955  18.108  30.591  11.518
98626W        W66956   0.880  23.549  10.892
98627W        W66957  38.325   7.788   5.245
98628W        W66958  33.568   9.160   3.252
98629W        W66959   5.393  40.477  13.490
98630W        W66960  39.972   9.253   5.594
98631W        W66961  18.553  44.930   0.299
98632W        W66962  17.801   6.762  11.924
98633W        W66963   8.808  15.716  14.358
98634W        W66964  30.065  26.109  10.957
98635W        W66965  36.588  15.319  10.589
98636W        W66966  19.109  19.561  12.008
98637W        W66967  10.368  10.320   1.335
98638W        W66968  19.106  31.086   5.145
98639W        W66969   7.905   4.237  14.987
98640W        W66970   2.338   6.681  11.115
98641W        W66971  22.217   1.951   1.234
98642W        W66972  14.824   3.324  11.989
98643W        W66973   9.662  40.415  12.369
98644W        W66974  40.896   5.429   4.220
98645W        W66975  23.641  38.360  14.395
98646W        W66976  13.206  23.543   1.384
98647W        W66977  23.039  17.132  12.046
98648W        W66978  17.189  14.198  10.955
98649W        W66979  17.638   3.407   2.376
98650W        W66980  36.063  21.534  13.811
98651W        W66981  21.208  22.688  11.463
98652W        W66982  13.669  15.672  13.876
98653W        W66983  28.133  44.864   0.952
98654W        W66984   9.321  37.348  13.392
98655W        W66985  31.442  34.503  14.348
98656W        W66986  25.971  37.977  14.855
98657W        W66987  34.476  39.919   2.793
98658W        W66988   2.850  14.215   1.331
98659W        W66989  29.059  33.556   5.210
98660W        W66990  21.106  32.596  13.063
98661W        W66991  44.853  28.014  12.923
98662W        W66992  33.021   4.280   3.149
98663W        W66993  13.190  44.376   2.247
98664W        W66994  43.388  22.236  11.422
98665W        W66995  29.987  41.397   4.182
98666W        W66996   5.341  28.569   0.400
98667W        W66997  26.085   4.316  12.933
98668W        W66998  11.633  44.494   4.609
98669W        W66999  22.696  20.047   3.666
98670W        W67000   3.915  31.072   2.841
98671W        W67001  35.033  19.240   0.737
98672W        W67002  13.272  39.865  11.989
98673W        W67003  12.706   8.822   0.402
98674W        W67004  43.956  42.334   2.194
98675W        W67005  42.405   9.273  11.439
98676W        W67006  13.631  24.495  11.455
98677W        W67007  35.048  38.467  10.468
98678W        W67008  40.308  32.499  13.945
98679W        W67009   0.887  17.654  13.892
98680W        W67010  12.803   4.344  11.108
98681W        W67011  43.501  18.727  11.049
98682W        W67012   9.691  40.495   2.664
98683W        W67013  39.854   2.335   0.867
98684W        W67014   8.369  35.972  10.575
98685W        W67015   5.327   5.687  11.030
98686W        W67016   6.235  10.673  12.944
98687W        W67017  14.624   9.238   3.652
98688W        W67018  29.590  43.487  14.301
98689W        W67019  36.505  28.446  14.372
98690W        W67020   2.310  41.028   1.334
98691W        W67021   3.345   2.421  12.015
98692W        W67022   0.951   7.806  14.474
98693W        W67023   3.443  25.698  13.887
98694W        W67024  18.679   9.284   1.332
98695W        W67025  25.515  27.459  10.983
98696W        W67026  32.115  36.062  10.547
98697W        W67027   1.749  23.032   4.234
98698W        W67028  35.602  34.086  13.004
98699W        W67029  32.134  16.709  12.956
98700W        W67030   0.291   0.255   2.720
98701W        W67031   2.404  17.612   4.157
98702W        W67032  34.059  14.241   1.796
98703W        W67033   9.222  35.916   1.381
98704W        W67034  19.124  22.139   2.332
98705W        W67035  22.739  23.731  10.626
98706W        W67036  40.958  17.667   3.778
98707W        W67037  26.487  32.993  13.859
98708W        W67038  42.392  25.471   4.261
98709W        W67039  24.529  33.432  13.913
98710W        W67040  26.092  12.614   2.737
98711W        W67041   1.815  27.019   1.412
98712W        W67042  18.553  34.394   1.801
98713W        W67043  41.528  27.490   0.809
98714W        W67044  37.477  38.032   1.381
98715W        W67045   7.764  18.750   3.223
98716W        W67046  26.057  44.960  13.029
98717W        W67047  30.031  26.678   3.241
98718W        W67048  39.027  20.186  10.493
98719W        W67049  22.090  19.644  11.961
98720W        W67050  28.964  31.133   1.379
98721W        W67051   2.287  21.550   4.246
98722W        W67052  27.587   7.815  10.546
98723W        W67053  10.362  43.833   1.916
98724W        W67054  34.940  30.977  13.505
98725W        W67055  35.541   3.716   1.256
98726W        W67056  23.593  26.674   3.687
98727W        W67057  15.278  42.490  13.431
98728W        W67058  32.581  42.356  11.045
98729W        W67059  14.244  21.646   2.196
98730W        W67060  43.457  40.330  12.912
98731W        W67061  19.100  36.901  12.394
98732W        W67062  22.209  10.335   0.964
98733W        W67063   2.270   3.327   4.759
98734W        W67064  15.233  30.489  13.857
98735W        W67065   5.924  37.040   3.747
98736W        W67066  20.618  11.692   0.331
98737W        W67067  32.488  12.851   0.765
98738W        W67068  10.828   0.929  12.934
98739W        W67069  22.607  28.642  14.421
98740W        W67070  40.989  23.105  12.832
98741W        W67071  21.017  31.419  11.516
98742W        W67072  15.239   2.768   4.329
98743W        W67073  12.191  37.368  12.499
98744W        W67074  33.500  32.514  13.929
98745W        W67075  33.510  27.046   1.330
98746W        W67076  44.795   6.799   3.630
98747W        W67077   6.837   8.259  11.608
98748W        W67078  13.196   5.748   2.809
98749W        W67079  34.950  40.951  12.952
98750W        W67080   5.861  30.631  14.339
98751W        W67081  32.128  26.500  10.408
98752W        W67082  42.401  33.942  10.957
98753W        W67083   9.338  18.226  12.537
98754W        W67084  40.382  25.557   9.941
98755W        W67085  33.911  39.883  13.845
98756W        W67086  14.629  24.050  10.573
98757W        W67087  24.591  37.061   1.821
98758W        W67088  38.046  42.809  13.342
98759W        W67089   1.857  11.828  14.912
98760W        W67090   1.849  39.054   3.220
98761W        W67091  19.092  21.693  12.934
98762W        W67092  36.432  42.408  12.981
98763W        W67093   0.279  17.561   1.390
98764W        W67094   0.948   4.289  11.500
98765W        W67095   9.721  14.736   2.320
98766W        W67096  13.732  42.281  14.456
98767W        W67097  16.124  38.909   2.720
98768W        W67098   7.773  31.607  11.993
98769W        W67099  12.636  16.243   4.835
98770W        W67100   2.816   7.744  14.335
98771W        W67101  25.057  14.738   4.660
98772W        W67102  29.622  28.106   2.707
98773W        W67103   2.810  35.937  14.294
98774W        W67104  24.632  15.310  13.528
98775W        W67105  27.041  36.429   1.702
98776W        W67106  14.200  30.642   2.279
98777W        W67107  33.080  12.711  11.025
98778W        W67108   1.316  19.727   2.418
98779W        W67109  17.223  42.283  10.616
98780W        W67110   0.828  44.337  11.926
98781W        W67111  14.835  40.363   0.363
98782W        W67112   6.267  12.244  11.422
98783W        W67113  21.625  36.548  14.898
98784W        W67114  23.547  15.802   0.480
98785W        W67115  25.535  43.973   2.828
98786W        W67116   0.336  29.500  14.770
98787W        W67117  32.565  24.051  14.481
98788W        W67118  38.924   4.865  12.919
98789W        W67119  42.329   8.755   0.734
98790W        W67120  21.627  19.577  14.319
98791W        W67121  25.674  10.377  13.870
98792W        W67122  12.722  38.536   1.769
98793W        W67123  27.150  13.213  13.056
98794W        W67124   5.923  33.057  13.452
98795W        W67125  24.118  27.190   2.269
98796W        W67126  12.308   2.878   1.904
98797W        W67127  21.748   4.431   1.220
98798W        W67128  24.002  40.876   1.794
98799W        W67129  14.293   9.756   3.209
98800W        W67130  34.065   2.750   3.228
98801W        W67131   8.369  35.381   0.775
98802W        W67132  27.004  29.953   2.362
98803W        W67133  44.396  13.647   1.710
98804W        W67134  16.654   0.377   3.273
98805W        W67135  25.568  42.387   0.417
98806W        W67136   3.344  15.696  12.460
98807W        W67137   2.858  32.114  14.340
98808W        W67138  18.719  27.946   0.407
98809W        W67139   2.925  44.952  11.377
98810W        W67140  29.149  29.035   2.875
98811W        W67141  15.292  36.050  11.485
98812W        W67142  30.512   0.759   2.871
98813W        W67143  34.435  42.854  13.414
98814W        W67144  33.458   4.874  10.938
98815W        W67145  28.016  43.302   1.737
98816W        W67146  15.670   8.717   2.843
98817W        W67147  30.554   3.882   4.231
98818W        W67148  22.586  39.335  11.398
98819W        W67149  10.338   1.887   1.343
98820W        W67150  24.496  11.152   1.843
98821W        W67151  14.168  16.614  11.574
98822W        W67152  17.581  28.536  10.955
98823W        W67153  42.937  34.000  10.540
98824W        W67154  30.998  33.463  11.419
98825W        W67155  27.954  34.521   0.355
98826W        W67156  38.896   2.261   2.838
98827W        W67157   4.743  34.072  12.089
98828W        W67158  26.602   7.667   5.128
98829W        W67159  30.657  36.355   0.757
98830W        W67160  12.790  36.577  11.576
98831W        W67161  26.177  24.521  11.539
98832W        W67162   9.168  31.490  14.909
98833W        W67163  10.258   9.244   2.259
98834W        W67164  12.296  14.667  13.329
98835W        W67165  20.136  32.103   2.291
98836W        W67166  42.397  15.177   1.413
98837W        W67167  23.091  31.968  11.492
98838W        W67168   2.966  30.530  10.432
98839W        W67169  43.920  42.913   3.774
98840W        W67170   6.737  29.966  14.771
98841W        W67171  41.357  39.855  10.486
98842W        W67172  17.720  13.169   2.825
98843W        W67173   5.860  12.167   0.342
98844W        W67174  19.721  25.549   3.217
98845W        W67175  12.734  38.423  12.408
98846W        W67176  19.042  29.951  11.936
98847W        W67177   3.397   7.253   3.325
98848W        W67178   1.379  31.999   3.761
98849W        W67179   6.325   5.406  11.021
98850W        W67180  21.619  18.116  10.054
98851W        W67181  12.153  43.815  12.974
98852W        W67182  10.197   2.851   1.914
98853W        W67183  28.938  13.782   3.723
98854W        W67184  19.578   4.280  14.845
98855W        W67185  39.021   4.943   2.743
98856W        W67186  27.097  26.086   1.289
98857W        W67187  40.906  21.602  11.384
98858W        W67188  44.420  32.019  13.511
98859W        W67189  35.906   8.300   4.641
98860W        W67190  30.431  39.020  10.543
98861W        W67191  37.049  35.925   1.235
98862W        W67192  25.592  38.828   3.320
98863W        W67193   7.812   6.864   3.326
98864W        W67194   7.866  28.022   3.701
98865W        W67195  39.530  41.949  14.955
98866W        W67196  43.770  11.146   2.381
98867W        W67197   4.240  24.199   0.806
98868W        W67198  14.817   3.778   1.367
98869W        W67199  35.009  31.974  10.603
98870W        W67200  43.486   0.838  12.567
98871W        W67201   9.225  30.483  14.987
98872W        W67202  27.567   3.240  11.608
98873W        W67203  38.830  28.979   3.223
98874W        W67204  10.764  33.022   0.847
98875W        W67205   7.234  13.316   4.259
98876W        W67206  33.932  33.393   3.168
98877W        W67207   4.733   8.808  12.065
98878W        W67208  19.185  15.754  10.135
98879W        W67209   3.772  13.760   1.898
98880W        W67210   4.359  36.033  12.521
98881W        W67211  42.004  23.053   0.893
98882W        W67212  24.669   9.244  12.564
98883W        W67213  40.990  14.182   3.169
98884W        W67214   6.298  37.850  11.928
98885W        W67215  28.980  21.094  10.958
98886W        W67216  20.682  33.470  13.979
98887W        W67217  12.319  42.356   3.661
98888W        W67218  15.182  32.482  13.477
98889W        W67219  18.778  32.905   1.446
98890W        W67220   9.223  42.324  13.511
98891W        W67221  21.642  37.541  14.785
98892W        W67222  23.533  14.825   4.250
98893W        W67223  41.851   3.346  12.366
98894W        W67224  31.913  44.878  12.851
98895W        W67225   5.322  41.511   2.776
98896W        W67226  28.538  27.152  12.514
98897W        W67227   0.859  22.690  13.042
98898W        W67228  27.192   9.211  13.398
98899W        W67229  40.440  38.390  10.970
98900W        W67230  41.309   4.778  13.057
98901W        W67231   8.711  19.048  12.405
98902W        W67232  37.347   8.201  12.920
98903W        W67233  10.226  30.099   2.276
98904W        W67234  19.648   6.857  12.935
98905W        W67235  30.635  31.495   3.748
98906W        W67236  44.898  12.305   3.856
98907W        W67237  37.914  30.078  13.329
98908W        W67238  36.858   7.231  12.364
98909W        W67239  20.162  22.143   4.605
98910W        W67240  26.956  24.699  11.445
98911W        W67241   4.216  26.955  14.445
98912W        W67242  36.895  23.227  14.856
98913W        W67243  26.090  24.135   2.312
98914W        W67244  22.600  15.313   4.203
98915W        W67245  19.722  29.497   2.696
98916W        W67246  15.215   4.266  14.287
98917W        W67247  33.408  17.596   3.631
98918W        W67248  44.813  27.041  13.307
98919W        W67249  20.105   1.880  12.381
98920W        W67250   2.282  11.657  10.611
98921W        W67251  17.797  22.722   0.952
98922W        W67252   8.729  41.420  12.889
98923W        W67253  35.008  16.246  11.430
98924W        W67254  33.876   7.759   4.192
98925W        W67255  27.004   3.879  12.880
98926W        W67256  42.965  26.102  11.429
98927W        W67257  43.882  35.971   1.871
98928W        W67258  33.466  28.671  10.487
98929W        W67259  42.428  32.977  14.891
98930W        W67260  23.612  28.642   3.851
98931W        W67261  13.800   9.643  13.362
98932W        W67262  27.180   2.758   2.833
98933W        W67263  31.053   6.825  11.021
98934W        W67264   9.696  28.989  12.577
98935W        W67265  20.066  35.476   4.288
98936W        W67266  16.158   1.836   3.820
98937W        W67267  29.952  26.578   1.414
98938W        W67268   0.345  17.086   0.849
98939W        W67269  36.490   6.282  14.886
98940W        W67270  23.155   7.838   9.616
98941W        W67271  29.974  31.148  13.057
98942W        W67272   9.324  17.306  11.109
98943W        W67273  30.941   4.306   3.309
98944W        W67274  43.914  36.060  12.376
98945W        W67275  31.957   9.288   3.780
98946W        W67276  21.730  30.577   1.428
98947W        W67277  22.743  14.754  11.913
98948W        W67278  20.535  33.469   3.213
98949W        W67279  15.794  23.509   1.720
98950W        W67280  39.466  29.480   1.753
98951W        W67281   4.263  30.638  13.887
98952W        W67282  26.961  16.771  11.604
98953W        W67283  41.946   4.220   4.632
98954W        W67284  27.532   1.381   0.343
98955W        W67285  29.623  37.891   1.766
98956W        W67286   0.328  31.081   2.194
98957W        W67287   7.231  12.172   2.376
98958W        W67288  41.537  22.500   4.706
98959W        W67289  16.655  13.758   2.807
98960W        W67290  17.707   6.875   0.323
98961W        W67291  28.585   8.723  11.896
98962W        W67292  27.688   2.403   2.709
98963W        W67293  32.143  12.843   0.924
98964W        W67294  40.940   5.690   0.478
98965W        W67295  30.960  43.353   0.367
98966W        W67296  36.971  33.552   0.921
98967W        W67297  35.004  29.069   0.954
98968W        W67298  12.350  16.646   1.888
98969W        W67299  32.044  15.292  14.977
98970W        W67300  19.218  17.589  13.423
98971W        W67301  31.076  29.535  12.838
98972W        W67302  14.234  19.634   3.711
98973W        W67303   7.733  26.134  11.039
98974W        W67304  31.940  41.990   2.704
98975W        W67305   6.726   5.799   1.331
98976W        W67306  22.139  36.007   1.313
98977W        W67307  35.960  29.628  13.466
98978W        W67308  36.954  23.010   1.217
98979W        W67309  21.048  34.071  12.577
98980W        W67310  30.001   9.669   2.710
98981W        W67311  32.571  24.605   2.706
98982W        W67312  35.003  31.590  10.496
98983W        W67313  12.801  41.823   2.691
98984W        W67314  34.396  19.570   2.787
98985W        W67315  13.827  27.494  10.474
98986W        W67316   3.836  34.983  10.541
98987W        W67317  23.586  33.559  13.501
98988W        W67318  22.201   2.903  12.984
98989W        W67319   2.226  16.768   4.751
98990W        W67320   8.850  25.672  14.810
98991W        W67321  31.544  32.027  10.468
98992W        W67322   0.969  19.102  11.127
98993W        W67323  15.272  29.158  13.059
98994W        W67324  30.075  21.612  14.874
98995W        W67325  23.139  38.533  14.010
98996W        W67326   0.290   4.728  12.481
98997W        W67327  27.495  20.074  11.564
98998W        W67328   3.320  11.174   0.897
98999W        W67329  21.699  39.852  14.029
99000W        W67330  30.444  23.993  12.034
99001W        W67331  25.041  42.338   1.332
99002W        W67332  33.556  13.305  11.537
99003W        W67333  28.061  30.985  11.949
99004W        W67334  31.535  22.075   2.289
99005W        W67335  24.144  42.452   1.792
99006W        W67336  19.040  17.725   2.798
99007W        W67337  24.073  20.533   4.726
99008W        W67338  28.012  29.563  13.027
99009W        W67339   1.921  23.727   4.784
99010W        W67340  30.155   7.713  11.966
99011W        W67341  42.884  40.031  11.556
99012W        W67342  19.568  43.833  13.956
99013W        W67343   6.915  23.692   2.763
99014W        W67344  42.937  38.051   0.929
99015W        W67345  41.997  41.869  12.850
99016W        W67346  16.209  32.571   2.902
99017W        W67347  31.922  27.038  11.107
99018W        W67348  38.932   4.768  12.011
99019W        W67349   0.264  37.857   2.265
99020W        W67350  12.234  42.384  14.828
99021W        W67351  23.127  39.035  14.468
99022W        W67352  35.419  37.501   1.907
99023W        W67353  33.878   9.675   1.219
99024W        W67354   5.728  13.267  14.468
99025W        W67355  12.645   0.267  12.476
99026W        W67356  38.546  32.956  12.575
99027W        W67357  21.709  35.501  13.010
99028W        W67358   4.448  43.955  13.308
99029W        W67359   5.800  18.269   0.776
99030W        W67360   5.307  12.816   3.204
99031W        W67361  24.138  10.336   1.759
99032W        W67362  19.231  43.930   3.272
99033W        W67363  16.745  41.027   3.239
99034W        W67364   4.372   4.310   2.189
99035W        W67365  14.133  25.606  14.902
99036W        W67366  40.813  40.432   0.841
99037W        W67367  42.351  36.024   0.363
99038W        W67368  21.036   6.406   3.314
99039W        W67369  41.994  21.048  11.881
99040W        W67370   2.883  13.770  11.419
99041W        W67371  24.668  38.914  14.371
99042W        W67372  28.526  42.436   0.302
99043W        W67373  39.420   9.307   4.699
99044W        W67374  44.986  29.074  11.006
99045W        W67375  44.845   8.241  12.033
99046W        W67376  43.788  16.730   0.908
99047W        W67377   6.695   5.257   3.737
99048W        W67378   0.956  25.971   2.391
99049W        W67379  39.450  20.088  14.414
99050W        W67380  23.497  13.180  14.866
99051W        W67381   3.441   2.238   0.435
99052W        W67382  14.294   4.413   3.792
99053W        W67383  33.050  26.637  14.805
99054W        W67384  43.887  32.564  10.578
99055W        W67385  32.889  22.645  14.898
99056W        W67386  16.795  28.969  10.498
99057W        W67387  33.384   7.372  12.484
99058W        W67388  10.377  36.429  11.526
99059W        W67389  22.668  16.075  12.071
99060W        W67390  20.108  43.332  14.396
99061W        W67391  23.527  20.063  12.085
99062W        W67392  20.568  35.470  11.531
99063W        W67393   0.789  14.331   1.727
99064W        W67394  36.982  38.981  10.894
99065W        W67395   9.250   9.278  14.314
99066W        W67396  22.611   5.439  12.542
99067W        W67397  28.517  43.515   2.285
99068W        W67398  32.424  21.591  11.591
99069W        W67399  24.554  38.467   1.235
99070W        W67400  32.557  27.608   3.809
99071W        W67401  15.183   9.385  14.394
99072W        W67402   9.778  27.993  13.352
99073W        W67403   3.737  38.984  10.433
99074W        W67404   9.669   8.660  12.401
99075W        W67405  18.623  22.570   4.342
99076W        W67406  26.612  17.286   0.376
99077W        W67407  10.755   7.285  14.445
99078W        W67408  30.504  23.650  12.351
99079W        W67409  38.552  24.038   3.755
99080W        W67410  11.862  26.133  14.944
99081W        W67411  25.973  32.602  12.530
99082W        W67412  14.278   6.851  11.102
99083W        W67413  40.001  13.176  12.572
99084W        W67414  33.906  28.979   1.377
99085W        W67415  30.912   7.213   1.846
99086W        W67416  18.279  12.172   2.737
99087W        W67417  18.765   4.373  13.413
99088W        W67418  30.111  39.963   3.384
99089W        W67419  12.199  27.098   3.213
99090W        W67420  15.672   6.837  13.973
99091W        W67421  15.797   3.824  11.611
99092W        W67422  11.178  26.673   1.238
99093W        W67423   5.246  19.149   4.354
99094W        W67424  33.556   0.290   4.704
99095W        W67425  28.457   9.305   4.636
99096W        W67426   6.266  25.534   2.415
99097W        W67427  42.492  41.791   4.180
99098W        W67428  26.200  12.194   1.743
99099W        W67429   9.719  24.111   4.598
99100W        W67430  41.356  35.383  13.820
99101W        W67431  27.590  43.515   4.339
99102W        W67432  10.359  43.999   2.746
99103W        W67433  15.107  11.642  13.469
99104W        W67434  40.833   8.788  13.934
99105W        W67435  15.225   5.796  13.024
99106W        W67436  14.283  24.102   1.807
99107W        W67437  26.563  15.321  13.346
99108W        W67438  16.085  41.882   0.838
99109W        W67439  27.625  19.039   4.625
99110W        W67440  29.536  29.146  11.575
99111W        W67441  28.103   4.266   0.940
99112W        W67442   7.698  32.070   4.331
99113W        W67443  29.586  30.471   1.440
99114W        W67444  32.535  29.154  11.088
99115W        W67445  12.697  22.532   1.230
99116W        W67446  22.517  27.592   2.882
99117W        W67447  12.204  34.441  10.609
99118W        W67448   8.740  29.649   2.750
99119W        W67449   6.361  35.013  12.467
99120W        W67450   5.281  10.216   3.771
99121W        W67451  28.483  28.514   3.677
99122W        W67452  15.101  25.584  14.913
99123W        W67453  39.368  36.936  11.920
99124W        W67454  20.524  35.883   0.391
99125W        W67455  43.017  37.342   0.812
99126W        W67456  21.039  23.707  11.587
99127W        W67457  12.332  40.852  11.497
99128W        W67458   8.741  20.228  12.511
99129W        W67459  43.887   0.263   0.376
99130W        W67460  37.043   3.329  10.567
99131W        W67461  28.650  31.404   1.414
99132W        W67462   7.811  34.863   1.695
99133W        W67463   7.312  20.265   4.818
99134W        W67464  18.171  23.121   4.274
99135W        W67465  28.174   5.741   4.623
99136W        W67466   6.779  21.733  13.507
99137W        W67467  10.745  16.159  12.550
99138W        W67468  25.189  27.165  14.419
99139W        W67469   1.290   1.482  14.809
99140W        W67470  38.903  21.224  11.549
99141W        W67471  40.548  26.669   3.811
99142W        W67472   4.431  12.137  11.592
99143W        W67473  29.014  23.088  12.964
99144W        W67474  20.107  38.360  11.544
99145W        W67475  28.943  20.102   4.766
99146W        W67476   0.299  36.433  11.057
99147W        W67477  35.401  25.587  11.558
99148W        W67478  32.572  10.725   4.117
99149W        W67479  33.485  35.990  10.047
99150W        W67480   1.392  31.995   9.959
99151W        W67481  37.493  23.228   1.713
99152W        W67482  10.686   1.886   0.743
99153W        W67483  37.872   3.715  11.496
99154W        W67484  13.347   7.833  12.488
99155W        W67485   8.177  41.813  11.905
99156W        W67486  21.070   3.298  13.505
99157W        W67487   6.242  26.467   0.915
99158W        W67488  29.016  36.921  14.282
99159W        W67489  20.210  31.433  14.374
99160W        W67490  43.439  22.030   2.886
99161W        W67491  34.964  32.963  11.953
99162W        W67492  41.900   6.874   2.243
99163W        W67493  25.486  27.660   4.246
99164W        W67494  40.884  31.508  10.958
99165W        W67495   0.374  29.492  11.524
99166W        W67496  20.645  14.644   3.830
99167W        W67497  24.525   3.248   2.399
99168W        W67498  42.013  10.258  11.015
99169W        W67499  32.075  42.377   4.690
99170W        W67500  36.022  32.394  13.540
99171W        W67501  13.248  44.879   4.764
99172W        W67502  40.380  35.096  13.976
99173W        W67503  20.534  38.911   3.662
99174W        W67504  41.959  26.125   1.858
99175W        W67505  14.695  40.345   3.250
99176W        W67506   0.303  34.053  13.464
99177W        W67507  18.597  43.913  11.496
99178W        W67508  37.345   9.194   4.352
99179W        W67509  28.941  44.335  12.073
99180W        W67510  26.117  22.214   2.779
99181W        W67511  10.708  10.804   2.184
99182W        W67512  42.466  18.081   1.727
99183W        W67513   9.801   5.247   4.223
99184W        W67514  33.487  11.262  11.089
99185W        W67515  24.222  31.518  11.539
99186W        W67516  29.591   4.721  10.557
99187W        W67517  13.818  10.338  14.808
99188W        W67518  42.908  19.171  11.558
99189W        W67519  42.493  22.617   2.299
99190W        W67520  17.291  26.026  14.314
99191W        W67521  12.807  18.217  12.397
99192W        W67522  38.564  31.539   0.432
99193W        W67523  25.582   9.743   5.090
99194W        W67524  39.502  39.393  11.572
99195W        W67525  41.026  34.378  11.556
99196W        W67526  43.288   0.823  14.906
99197W        W67527  42.005   6.827  12.351
99198W        W67528  34.377  39.931  11.373
99199W        W67529  15.231   3.410   2.854
99200W        W67530   4.410  10.373   0.758
99201W        W67531  39.848  36.870   1.249
99202W        W67532  16.595  38.838   1.909
99203W        W67533  13.623   6.767   4.827
99204W        W67534  32.931  11.832  13.997
99205W        W67535  28.049  40.398   0.256
99206W        W67536  20.120  23.018  13.441
99207W        W67537  34.396  32.576   1.439
99208W        W67538   0.948  28.946   3.836
99209W        W67539  25.695  36.935  14.996
99210W        W67540  13.682   1.313  13.413
99211W        W67541  26.467  40.435  14.022
99212W        W67542  44.470  36.958   3.786
99213W        W67543   5.297  42.361   0.961
99214W        W67544  18.600  21.046   5.086
99215W        W67545   8.259  26.487   3.741
99216W        W67546  29.494  30.162  13.851
99217W        W67547  39.912   2.422  13.394
99218W        W67548  33.504  16.632   4.722
99219W        W67549   4.906  19.147   1.245
99220W        W67550  35.099   0.316  12.079
99221W        W67551  40.891   0.979   0.935
99222W        W67552  42.792  28.098   0.786
99223W        W67553  11.272  43.431   4.802
99224W        W67554  22.747   6.380  12.536
99225W        W67555  33.993  25.164  12.578
99226W        W67556  32.962  22.528   4.838
99227W        W67557   7.281  26.093   0.776
99228W        W67558  35.952   1.255   4.649
99229W        W67559  37.476  25.977   2.283
99230W        W67560  27.508  33.386  12.009
99231W        W67561  11.811   9.675   3.177
99232W        W67562  11.293  30.038   0.817
99233W        W67563  40.038   6.896   1.237
99234W        W67564   1.474  33.445   0.262
99235W        W67565  21.546  15.731   3.793
99236W        W67566  18.140   5.234   0.806
99237W        W67567  30.964  44.933  11.542
99238W        W67568  41.961  20.695   4.285
99239W        W67569  10.171  31.972   5.183
99240W        W67570  42.470  14.230  12.025
99241W        W67571   3.353  31.505  10.548
99242W        W67572  14.232   9.184  13.425
99243W        W67573  34.989  11.825   1.801
99244W        W67574  37.058  30.005  13.461
99245W        W67575  20.651   2.327   0.862
99246W        W67576  31.108  10.780   2.366
99247W        W67577  17.076  27.029   1.814
99248W        W67578  32.049  15.640   1.331
99249W        W67579   6.852  20.123   2.813
99250W        W67580   3.794  42.300  14.894
99251W        W67581   5.332  31.609   2.256
99252W        W67582  13.759   1.891   0.734
99253W        W67583   6.292  33.428  12.468
99254W        W67584  14.226  27.162   4.681
99255W        W67585  36.985  39.443  11.925
99256W        W67586   6.676  33.069   3.645
99257W        W67587  22.109  44.448  12.978
99258W        W67588  30.594   4.385  12.358
99259W        W67589  21.581  30.628  11.107
99260W        W67590  32.399   0.979   1.380
99261W        W67591  11.660  10.853   3.813
99262W        W67592   9.326  42.371   0.939
99263W        W67593  28.056  19.271  14.765
99264W        W67594  19.723  44.912   3.651
99265W        W67595  42.291   8.659   0.421
99266W        W67596  32.084   0.312  10.033
99267W        W67597  35.936  32.602  14.985
99268W        W67598  21.547   7.869   3.278
99269W        W67599  29.030  41.857  13.813
99270W        W67600  35.901   4.816   1.816
99271W        W67601  34.019   5.247   0.348
99272W        W67602   2.842  35.488   0.269
99273W        W67603  42.499  25.133  12.074
99274W        W67604   4.721  14.152  13.382
99275W        W67605  26.544  27.549   2.854
99276W        W67606  15.086   4.221   3.660
99277W        W67607  19.199   2.920  10.591
99278W        W67608  39.008   4.377   1.438
99279W        W67609  13.188  37.012   2.812
99280W        W67610  11.812  44.312  14.823
99281W        W67611  14.787  27.571   4.193
99282W        W67612  29.156  10.663   1.757
99283W        W67613   0.480  24.001  13.365
99284W        W67614  37.967   7.708   2.418
99285W        W67615  13.656  36.549   4.675
99286W        W67616  16.288   7.712  12.062
99287W        W67617  42.444  18.127   3.823
99288W        W67618  41.439   0.306  12.051
99289W        W67619  14.109   1.245   3.869
99290W        W67620  28.057  41.940  11.119
99291W        W67621  31.008  42.798  10.631
99292W        W67622  24.633  28.492   2.252
99293W        W67623  42.362  38.377  13.812
99294W        W67624  36.440  23.689   3.761
99295W        W67625   0.375  40.957   2.419
99296W        W67626  26.169   6.318   1.360
99297W        W67627  25.031  11.664   0.730
99298W        W67628  42.998  33.594   1.721
99299W        W67629  21.027  16.073  14.940
99300W        W67630  32.518  24.048  13.454
99301W        W67631  22.048   3.793   1.696
99302W        W67632   5.294  25.494  10.440
99303W        W67633  30.472   4.325   1.818
99304W        W67634  38.420  30.029   2.873
99305W        W67635  12.238  17.280   0.423
99306W        W67636   0.381  15.109   2.832
99307W        W67637  15.106   4.712  12.511
99308W        W67638  39.383  26.670   0.290
99309W        W67639  14.173  36.907  11.539
99310W        W67640  40.321  20.192   4.771
99311W        W67641  37.506  31.444  10.605
99312W        W67642  13.290  40.539  13.492
99313W        W67643  11.273   4.245  10.479
99314W        W67644  18.788  37.942   2.301
99315W        W67645   6.774   0.273  13.413
99316W        W67646  39.000  35.098   0.437
99317W        W67647  23.641  44.890   3.206
99318W        W67648   9.676  28.452   0.902
99319W        W67649  33.981  23.235   3.636
99320W        W67650  43.292  40.882  14.826
99321W        W67651  10.175  37.475   2.308
99322W        W67652  27.068  19.141  10.575
99323W        W67653  24.548  24.495   0.393
99324W        W67654  15.717  42.956  14.317
99325W        W67655   6.875  36.008   0.392
99326W        W67656   4.933  16.687   3.684
99327W        W67657  30.960  11.645  14.468
99328W        W67658  43.396  38.954  11.558
99329W        W67659   9.217  40.885   2.198
99330W        W67660  10.799   9.228   4.257
99331W        W67661  26.532  10.742  12.867
99332W        W67662  15.660  30.006   3.323
99333W        W67663  29.594  13.678   4.114
99334W        W67664  44.841  27.024  12.416
99335W        W67665  22.146   6.201   0.800
99336W        W67666  35.384  28.097   1.343
99337W        W67667  40.410  37.992   2.887
99338W        W67668  37.381  26.541  12.889
99339W        W67669   7.675   8.817  12.877
99340W        W67670   2.725  29.460  11.586
99341W        W67671   9.689   4.254   3.346
99342W        W67672  28.163  15.241  10.478
99343W        W67673  41.460   7.191  13.383
99344W        W67674  17.082  39.951   3.384
99345W        W67675  32.993  32.025  11.577
99346W        W67676  21.078  37.942   1.429
99347W        W67677  39.814  29.590  14.776
99348W        W67678   6.292  15.661  14.917
99349W        W67679  19.227  36.540   0.873
99350W        W67680  39.314   5.338  14.277
99351W        W67681  27.547  18.653  12.897
99352W        W67682  16.597  44.008  12.363
99353W        W67683  13.285   0.447  13.000
99354W        W67684  30.148  20.647  10.104
99355W        W67685  14.292  32.029   4.306
99356W        W67686  24.008  27.610   4.221
99357W        W67687  24.196  21.708   4.191
99358W        W67688  24.036  40.394  13.453
99359W        W67689   7.226  41.401   3.357
99360W        W67690  28.605  17.735   4.113
99361W        W67691  11.299  26.602  13.855
99362W        W67692  36.027  42.859   4.239
99363W        W67693   5.290  12.292  14.864
99364W        W67694  33.556  42.884  10.977
99365W        W67695  12.314  30.037  10.601
99366W        W67696  12.625  27.077  11.541
99367W        W67697  10.151  15.149   3.747
99368W        W67698  15.296  13.723  13.395
99369W        W67699   5.271   5.213   1.722
99370W        W67700  36.881  21.258  14.829
99371W        W67701   4.757   7.180  11.072
99372W        W67702  34.017  22.134  14.315
99373W        W67703  25.119  11.279   1.857
99374W        W67704  26.197  24.025  10.568
99375W        W67705  20.189  36.980  14.333
99376W        W67706  42.286  36.919  14.336
99377W        W67707   8.854  26.139  13.426
99378W        W67708  11.152  19.563  14.324
99379W        W67709   2.779  20.270  11.055
99380W        W67710  44.419  24.025   1.759
99381W        W67711  11.842  17.799  14.839
99382W        W67712  43.472  32.124  14.894
99383W        W67713  23.022  15.247   3.158
99384W        W67714  35.984  27.112   2.216
99385W        W67715  27.619   7.870   2.789
99386W        W67716  32.420  36.348  11.911
99387W        W67717  30.477  17.574  10.947
99388W        W67718  44.872  41.486  14.911
99389W        W67719   7.902  27.946   4.133
99390W        W67720  23.219   2.910  11.933
99391W        W67721  41.842   1.362   1.855
99392W        W67722   2.327  40.359   3.377
99393W        W67723   4.349  32.963  11.569
99394W        W67724  42.907  24.167  13.968
99395W        W67725  26.619  39.528  13.839
99396W        W67726  24.133  43.779  13.431
99397W        W67727  20.562  17.174   2.361
99398W        W67728  40.018  26.111   4.826
99399W        W67729  41.983  26.661   4.809
99400W        W67730  38.918   0.855   0.902
99401W        W67731  14.732  10.244   2.278
99402W        W67732  15.325   7.190  11.427
99403W        W67733  40.989   3.837   2.891
99404W        W67734  31.429  44.871  13.381
99405W        W67735  29.470  21.189   1.334
99406W        W67736   7.286  19.040   4.712
99407W        W67737   2.754  11.141  12.958
99408W        W67738  41.523  27.047   3.304
99409W        W67739   9.825  20.223   4.831
99410W        W67740  42.992  44.810   2.268
99411W        W67741   9.869   1.762   3.369
99412W        W67742   5.840  19.154  13.462
99413W        W67743  34.544  17.265  14.784
99414W        W67744  38.033   1.737   3.716
99415W        W67745  12.633  18.692   3.754
99416W        W67746   1.872  13.604   3.676
99417W        W67747  12.846  42.805   0.733
99418W        W67748  10.166  28.623   1.755
99419W        W67749  11.817  27.141  12.894
99420W        W67750  21.059  21.616  14.927
99421W        W67751   2.738  20.766   4.668
99422W        W67752  36.969  15.599   1.709
99423W        W67753  14.716  44.784  11.464
99424W        W67754  36.061  22.251   2.781
99425W        W67755  33.959  41.017  11.921
99426W        W67756  14.302  26.138   0.774
99427W        W67757  26.161  23.634  14.006
99428W        W67758  14.834  12.620  11.106
99429W        W67759   1.414  40.904  10.912
99430W        W67760   8.312  37.023  10.472
99431W        W67761  40.391  32.999   1.336
99432W        W67762  11.130  11.174  14.471
99433W        W67763  34.963  14.199   0.740
99434W        W67764  35.891  12.748  11.912
99435W        W67765  13.703  40.408   4.125
99436W        W67766  23.584  29.101   4.642
99437W        W67767  18.758  19.568   4.201
99438W        W67768  40.326   5.421   1.716
99439W        W67769  31.973  28.058  12.448
99440W        W67770   7.344  37.021  12.514
99441W        W67771  10.365  22.553   0.275
99442W        W67772   5.432  31.986  11.503
99443W        W67773  27.561  26.507   0.465
99444W        W67774   9.848  34.001  14.493
99445W        W67775  19.728  28.446   3.251
99446W        W67776   7.259  25.654  11.431
99447W        W67777  36.856   9.254  14.496
99448W        W67778  32.494  40.330   1.306
99449W        W67779  14.675  15.748   1.367
99450W        W67780  20.221  17.190   2.731
99451W        W67781   6.394   4.433  14.424
99452W        W67782  15.674  27.524  14.801
99453W        W67783  18.165  29.553   2.376
99454W        W67784  32.953   9.279   2.367
99455W        W67785  44.940  38.434  11.946
99456W        W67786  40.417  10.239   5.297
99457W        W67787  24.718  18.613  14.955
99458W        W67788  36.371  35.458  14.304
99459W        W67789   6.406  37.976  14.003
99460W        W67790  14.716   5.854  14.911
99461W        W67791  20.762  18.190   0.377
99462W        W67792   2.241   6.285   2.801
99463W        W67793   4.253  26.073  14.487
99464W        W67794  40.952  40.399  14.416
99465W        W67795  37.509   0.876   4.717
99466W        W67796   0.409   5.768   1.809
99467W        W67797  41.877  16.075   4.226
99468W        W67798  40.033  28.118  11.578
99469W        W67799  27.160   2.938   3.366
99470W        W67800  41.314  44.847  11.083
99471W        W67801   7.287  30.573   4.785
99472W        W67802   2.286   3.442  14.808
99473W        W67803  32.532  33.537  11.999
99474W        W67804   6.802  36.073   4.617
99475W        W67805   3.800  37.362  13.352
99476W        W67806  24.520  29.041   1.851
99477W        W67807  25.045   3.937   4.748
99478W        W67808  27.596  40.864   3.715
99479W        W67809  35.451  34.414  12.463
99480W        W67810   1.254   2.439  13.938
99481W        W67811  22.660  17.581   9.980
99482W        W67812  24.583  20.119  12.957
99483W        W67813   8.800  34.975   2.724
99484W        W67814   3.244  33.610  11.452
99485W        W67815  43.483  38.925   0.752
99486W        W67816   5.364  38.881  13.970
99487W        W67817  40.881  23.215   1.308
99488W        W67818  25.706  38.015   3.322
99489W        W67819   4.865  33.591   5.090
99490W        W67820  11.781  12.722   1.420
99491W        W67821  23.116   6.870   3.292
99492W        W67822   7.825  26.548   4.645
99493W        W67823  25.713   0.763   2.389
99494W        W67824  12.629  16.676   3.821
99495W        W67825   0.960  38.365  12.069
99496W        W67826  20.170  39.937  12.048
99497W        W67827  39.487  25.161  11.428
99498W        W67828  37.862  33.549   3.845
99499W        W67829   9.390   7.794  13.043
99500W        W67830   8.358   7.370  14.805
99501W        W67831   2.828  37.550  11.486
99502W        W67832  24.987  39.407  10.507
99503W        W67833   7.909  43.881   3.710
99504W        W67834  31.626  35.599   4.267
99505W        W67835  31.624  40.420   1.235
99506W        W67836  32.622  30.131  11.889
99507W        W67837   3.818  43.459  10.571
99508W        W67838   6.903  40.912   4.272
99509W        W67839  35.442  20.130   0.246
99510W        W67840  24.482  24.627   1.259
99511W        W67841  17.564  21.035  14.802
99512W        W67842  24.663  32.054  11.080
99513W        W67843  26.967  32.039  13.051
99514W        W67844  16.167   3.252   1.822
99515W        W67845  44.827  34.880   0.371
99516W        W67846   8.759  17.771  10.496
99517W        W67847  11.779   8.280  11.036
99518W        W67848  38.359  22.087  12.566
99519W        W67849   2.394   3.353   2.676
99520W        W67850   0.981  31.425  13.062
99521W        W67851  37.000  19.279   1.444
99522W        W67852  33.559  27.042   2.807
99523W        W67853  10.155  14.326   1.881
99524W        W67854  23.688  15.791   0.874
99525W        W67855   6.905  41.915   2.379
99526W        W67856  20.097   4.758  14.454
99527W        W67857  23.120  10.743   2.262
99528W        W67858  25.483  42.518  11.126
99529W        W67859  19.220  40.915  11.999
99530W        W67860   6.213  38.949  10.016
99531W        W67861  37.010   4.235   2.274
99532W        W67862  30.434  34.461  14.828
99533W        W67863  12.847   7.666  12.504
99534W        W67864  16.123   7.782  13.324
99535W        W67865   2.236  16.249   0.840
99536W        W67866  22.537  15.127  12.963
99537W        W67867  26.538  18.546  12.547
99538W        W67868  44.879  39.334  13.823
99539W        W67869  32.539  32.900   0.329
99540W        W67870   6.726  17.556  11.870
99541W        W67871  24.516  41.469  12.003
99542W        W67872  40.418  31.567   2.811
99543W        W67873  11.830  18.660  14.505
99544W        W67874   4.327  17.223  14.339
99545W        W67875   9.349  20.238   2.357
99546W        W67876  17.654  39.337   4.718
99547W        W67877   8.337  30.544  11.455
99548W        W67878  34.463  21.157   0.753
99549W        W67879  27.097   3.854  10.503
99550W        W67880   3.333  30.517   2.805
99551W        W67881   9.655  11.748  14.858
99552W        W67882   1.749  37.340  11.440
99553W        W67883  27.484  33.590  12.908
99554W        W67884   2.841  32.048  11.462
99555W        W67885   3.394  36.423  13.905
99556W        W67886   4.765  17.751   0.858
99557W        W67887  42.391  40.033  11.890
99558W        W67888  32.965  43.441   0.472
99559W        W67889  23.694  33.594   1.788
99560W        W67890  22.214  20.197  12.357
99561W        W67891  31.436  43.397   4.148
99562W        W67892  16.599  30.015   0.267
99563W        W67893  35.900  15.764  14.784
99564W        W67894  26.595  19.184  11.472
99565W        W67895  40.882   8.401   0.298
99566W        W67896  21.247   7.414  11.033
99567W        W67897   3.764  27.476  13.437
99568W        W67898  17.559  27.085   1.731
99569W        W67899  31.585  43.771   3.254
99570W        W67900  28.668  32.057  10.569
99571W        W67901  13.621   6.737  13.514
99572W        W67902  28.946  29.118   2.364
99573W        W67903  39.416  35.587   4.274
99574W        W67904  17.087  39.443   4.260
99575W        W67905  38.050   3.246  10.645
99576W        W67906  23.555   2.872   4.609
99577W        W67907  21.172  11.236  10.644
99578W        W67908  25.575  25.989   2.855
99579W        W67909   8.222  30.158   4.797
99580W        W67910  38.915  27.612   3.823
99581W        W67911  22.531   5.195   3.256
99582W        W67912  32.410  33.076  12.558
99583W        W67913  12.231  24.630  14.893
99584W        W67914  26.208  28.095   2.315
99585W        W67915  15.257   1.789   2.266
99586W        W67916  28.941  21.134  13.465
99587W        W67917   7.315   5.365   2.350
99588W        W67918  20.239  34.019  14.925
99589W        W67919  29.981  42.350   4.695
99590W        W67920  34.003   8.405   3.763
99591W        W67921  22.996  19.761  12.470
99592W        W67922  41.854   1.933   0.865
99593W        W67923  33.390   8.791  10.139
99594W        W67924  16.771   9.208  13.470
99595W        W67925  36.907  24.579  12.464
99596W        W67926  21.258  34.414   4.641
99597W        W67927  44.801  12.155   0.380
99598W        W67928  30.149  12.186   3.737
99599W        W67929  29.144  13.767  14.986
99600W        W67930  23.105  35.564   4.729
99601W        W67931   4.306   0.845   2.357
99602W        W67932  22.554  29.011   5.798
99603W        W67933  30.933  34.079  11.456
99604W        W67934  21.709  41.940   2.816
99605W        W67935  23.630  25.185   1.254
99606W        W67936  24.189   2.883   1.905
99607W        W67937   0.477  32.457   2.324
99608W        W67938  30.478  12.762  11.045
99609W        W67939  31.609  27.683   2.826
99610W        W67940   9.686  18.757   1.295
99611W        W67941  42.457  15.154  13.485
99612W        W67942  33.486  36.992   1.430
99613W        W67943  10.349  43.368  13.050
99614W        W67944  38.557  24.137   4.120
99615W        W67945  20.606  41.481   2.205
99616W        W67946  17.149  15.710  13.812
99617W        W67947  24.171  19.775   0.804
99618W        W67948  19.549  40.463   0.390
99619W        W67949  33.970  31.086   2.398
99620W        W67950   1.250  11.625  11.408
99621W        W67951   2.296  19.266   3.340
99622W        W67952  15.811   7.700   0.366
99623W        W67953  32.109   8.751   2.367
99624W        W67954  23.100  12.633  11.522
99625W        W67955  12.294  34.428  12.930
99626W        W67956   3.393  40.869  13.988
99627W        W67957   4.313  34.517   0.358
99628W        W67958   5.195   9.285  13.471
99629W        W67959  15.311  11.235  13.395
99630W        W67960  38.861  42.384  12.863
99631W        W67961   1.361  22.696  11.604
99632W        W67962  30.021   5.380   3.707
99633W        W67963  15.193  21.704   4.729
99634W        W67964  18.081  41.812  14.865
99635W        W67965   8.261  31.061   0.380
99636W        W67966  20.195  29.461   4.335
99637W        W67967  22.093  14.751   4.160
99638W        W67968   4.303  19.535   3.156
99639W        W67969   8.786  31.434   0.853
99640W        W67970  11.288  39.850   4.256
99641W        W67971  16.623  14.819  12.398
99642W        W67972  16.721  21.578   4.667
99643W        W67973  17.213  17.577   2.200
99644W        W67974  25.668  17.120   4.691
99645W        W67975  22.520  24.033  14.869
99646W        W67976   9.792  36.458   1.287
99647W        W67977   1.283  17.139  13.501
99648W        W67978  31.569  42.289   4.299
99649W        W67979   1.836  10.162  12.003
99650W        W67980   2.752  24.004  14.948
99651W        W67981  20.082  32.126  10.597
99652W        W67982  22.717  12.734  12.054
99653W        W67983   1.936  31.511  11.116
99654W        W67984  37.363  15.672   1.884
99655W        W67985  35.993  42.510  11.592
99656W        W67986  32.895  23.052  13.983
99657W        W67987  40.982  24.561   3.674
99658W        W67988   5.804  13.194  14.786
99659W        W67989  24.129  34.117   1.823
99660W        W67990  29.118   5.910   3.366
99661W        W67991  22.050  13.723  12.555
99662W        W67992  21.192  17.605  14.808
99663W        W67993  43.462  15.129   1.854
99664W        W67994   4.751   2.910   0.872
99665W        W67995  26.095   9.372  12.867
99666W        W67996  36.567  11.271  10.622
99667W        W67997  28.170   0.863  13.892
99668W        W67998  15.255   2.305   4.240
99669W        W67999   0.268  36.913   4.141
99670W        W68000   8.244  20.716   2.667
99671W        W68001  41.478  29.428  10.457
99672W        W68002  25.561  24.054   0.350
99673W        W68003   2.835   1.876   0.348
99674W        W68004  15.241  16.734   4.207
99675W        W68005  25.707  16.758  11.483
99676W        W68006  12.330  11.689   4.826
99677W        W68007  14.133   3.449  13.322
99678W        W68008   2.248  27.543  13.490
99679W        W68009  12.705  31.151   3.366
99680W        W68010  16.214  42.791   2.872
99681W        W68011  35.592  16.776  10.978
99682W        W68012  10.712   2.452   0.758
99683W        W68013  27.519  42.444  14.940
99684W        W68014  30.117  14.145   3.183
99685W        W68015   0.888  43.318   2.286
99686W        W68016   5.706  36.978   1.880
99687W        W68017  26.671  36.040   4.753
99688W        W68018  13.736  12.277  12.436
99689W        W68019  34.120  19.647  11.392
99690W        W68020  33.547  27.152  11.867
99691W        W68021   6.299  23.119   3.206
99692W        W68022  37.920  28.110  13.461
99693W        W68023  37.028  23.075   2.666
99694W        W68024   7.745   1.799  13.411
99695W        W68025  32.000   7.396  14.929
99696W        W68026   9.723  22.248  14.817
99697W        W68027  19.099   5.806  12.370
99698W        W68028  15.308  34.396   0.253
99699W        W68029   4.269  21.109   3.836
99700W        W68030  35.544  24.651   4.323
99701W        W68031   3.365  41.899   2.729
99702W        W68032  25.611   5.795  13.001
99703W        W68033   5.393  39.413   2.854
99704W        W68034  12.769  30.968   4.310
99705W        W68035  13.295  19.648  13.531
99706W        W68036   9.780  18.787  10.542
99707W        W68037   7.746   8.788  10.912
99708W        W68038  21.595  40.860   3.192
99709W        W68039   3.757  15.184   4.697
99710W        W68040  33.389  44.412   5.314
99711W        W68041   2.266  39.043  11.071
99712W        W68042  36.860  31.527  12.096
99713W        W68043  18.558  12.344  12.096
99714W        W68044  20.587   7.898  14.778
99715W        W68045  34.901  23.516   2.333
99716W        W68046  14.593  43.778   0.378
99717W        W68047  25.556  12.688  10.902
99718W        W68048  29.635   9.344   3.295
99719W        W68049  32.997   9.318  14.784
99720W        W68050  15.766  10.764   4.317
99721W        W68051   4.295  30.579   0.376
99722W        W68052  40.929  36.397  14.481
99723W        W68053  19.262  44.352   1.743
99724W        W68054   9.661  13.235  10.956
99725W        W68055   1.359  12.829  14.921
99726W        W68056  33.879  25.632  14.353
99727W        W68057   8.736  16.698  12.972
99728W        W68058   9.379  25.049  12.092
99729W        W68059  25.673  13.602  12.343
99730W        W68060  27.094   5.238  14.009
99731W        W68061  12.636   4.889  13.811
99732W        W68062  40.509  20.572  11.482
99733W        W68063  21.602   1.805   1.335
99734W        W68064  23.693  35.092   2.283
99735W        W68065  29.632  31.448   4.764
99736W        W68066  40.357   7.845   5.268
99737W        W68067  37.076  41.988   1.804
99738W        W68068  40.479  42.934   2.406
99739W        W68069  35.944  28.091  11.982
99740W        W68070   8.801  17.109  10.963
99741W        W68071  30.494  15.199  12.342
99742W        W68072  17.106  36.929  14.874
99743W        W68073  13.645   9.203  13.350
99744W        W68074  40.318  43.304  13.416
99745W        W68075   7.218   0.936  11.385
99746W        W68076   4.782  27.456  12.916
99747W        W68077  28.970  37.950   3.260
99748W        W68078  33.599  32.092  11.036
99749W        W68079  23.595  40.383  12.001
99750W        W68080  42.462  31.444   4.609
99751W        W68081  23.151   9.259   4.222
99752W        W68082  15.118  20.613  14.905
99753W        W68083  18.079  14.628   1.381
99754W        W68084  41.962  36.950   2.313
99755W        W68085  41.906  30.058   3.275
99756W        W68086  33.475   8.807   5.134
99757W        W68087  13.779  23.078   4.297
99758W        W68088   1.938  16.719  12.476
99759W        W68089  11.317   6.690   2.199
99760W        W68090  37.085  18.139   3.292
99761W        W68091  36.408  14.193  14.875
99762W        W68092  32.473  16.794   0.337
99763W        W68093  16.231   7.692   2.395
99764W        W68094  22.724  39.025  11.124
99765W        W68095  26.656  39.506   0.810
99766W        W68096  21.563  23.529  11.456
99767W        W68097  42.855  32.452  10.912
99768W        W68098   4.359   2.813   0.401
99769W        W68099   1.961  18.782  12.415
99770W        W68100   4.403  23.730  12.357
99771W        W68101  23.102   9.200  14.773
99772W        W68102  12.310  37.426   4.151
99773W        W68103   4.853  10.875   1.915
99774W        W68104  43.927  34.909   4.656
99775W        W68105  20.076   8.212   2.808
99776W        W68106  28.065  13.213   0.731
99777W        W68107  35.580  24.662   2.857
99778W        W68108  14.114  28.649  12.077
99779W        W68109  24.220  37.002   4.731
99780W        W68110  11.804  41.307   1.723
99781W        W68111   2.805  42.955   0.435
99782W        W68112  37.988  13.317  10.914
99783W        W68113  23.994  15.209   0.294
99784W        W68114  39.459  41.445   3.688
99785W        W68115  40.440  16.132  13.026
99786W        W68116   9.337  13.186  14.918
99787W        W68117  32.624   6.226   3.687
99788W        W68118  43.863  41.415  11.944
99789W        W68119  22.106  30.971  11.518
99790W        W68120  35.916  30.023   0.951
99791W        W68121  15.652  18.660   9.984
99792W        W68122   5.295  17.594   2.224
99793W        W68123  23.083  18.211  10.642
99794W        W68124  14.767  13.286   2.274
99795W        W68125  23.710  31.148  12.840
99796W        W68126  32.392   3.956  10.405
99797W        W68127  17.065   7.745  11.593
99798W        W68128  41.794   6.326  10.062
99799W        W68129  19.174   6.747   0.248
99800W        W68130  38.405   2.402   1.349
99801W        W68131   5.309   2.851   3.147
99802W        W68132  18.755  36.566   0.853
99803W        W68133  22.199  44.981   2.670
99804W        W68134  20.638   4.780   2.703
99805W        W68135  32.119   1.374  10.469
99806W        W68136  32.418  44.279  13.971
99807W        W68137   2.294  26.022  12.488
99808W        W68138  34.593  19.721  12.913
99809W        W68139  27.171  43.809   0.414
99810W        W68140  30.935  21.685   1.357
99811W        W68141   4.391  44.986   0.756
99812W        W68142  41.477   1.874   0.769
99813W        W68143  28.173  33.912   4.611
99814W        W68144  41.813  32.602   2.902
99815W        W68145  30.129  34.411  10.904
99816W        W68146  34.892   7.239  11.384
99817W        W68147  28.113  38.339  13.322
99818W        W68148   9.320  43.440   0.289
99819W        W68149  19.251  18.296   4.152
99820W        W68150  43.459  35.466  12.350
99821W        W68151  17.626  15.815   3.382
99822W        W68152  25.493  27.481   0.416
99823W        W68153   9.368  11.130   3.297
99824W        W68154  19.115  30.473  12.438
99825W        W68155   5.247   1.833   4.327
99826W        W68156  36.931   9.228  11.029
99827W        W68157  19.252  25.074   3.380
99828W        W68158  14.777  22.236   3.274
99829W        W68159  43.447  14.795   2.865
99830W        W68160   8.863  22.036   1.273
99831W        W68161  38.420  44.277  11.006
99832W        W68162  43.482   5.803  12.828
99833W        W68163   9.675  22.586  14.870
99834W        W68164  33.584   6.896  13.061
99835W        W68165  39.029  33.916   0.823
99836W        W68166  37.390   7.306  10.970
99837W        W68167   7.838  21.696  14.461
99838W        W68168   0.418  30.552   3.688
99839W        W68169  22.195  23.559  14.455
99840W        W68170  21.629  44.804  12.452
99841W        W68171  38.867  27.989  10.605
99842W        W68172  22.547  43.430   1.241
99843W        W68173  40.511  26.649  10.123
99844W        W68174  30.924   2.897   4.341
99845W        W68175  23.640  24.648   2.195
99846W        W68176  27.555  25.025   1.876
99847W        W68177  26.030  44.373  14.815
99848W        W68178  39.837  37.468  12.518
99849W        W68179   2.830  21.624   1.836
99850W        W68180   6.205  24.587  13.424
99851W        W68181  16.672  16.206  10.617
99852W        W68182  37.030  42.017  14.509
99853W        W68183  32.114  13.163   0.772
99854W        W68184  35.384  30.478  11.979
99855W        W68185  20.713  24.155  13.819
99856W        W68186   9.689  37.343  11.434
99857W        W68187  34.455  10.289  11.462
99858W        W68188  30.611  22.207  10.092
99859W        W68189   1.780  37.025   5.716
99860W        W68190  34.076  22.559  14.977
99861W        W68191  44.881  18.220  13.898
99862W        W68192  37.373  34.387   2.366
99863W        W68193  37.948  39.507   3.632
99864W        W68194  36.922  34.867   0.759
99865W        W68195  21.048  19.204   5.148
99866W        W68196   8.885   2.383   4.254
99867W        W68197  43.370   8.210  14.971
99868W        W68198  30.598   6.192  12.545
99869W        W68199   0.893   7.889   3.697
99870W        W68200  31.906  42.387   4.299
99871W        W68201  43.400  32.564  10.476
99872W        W68202  38.364  14.154   4.146
99873W        W68203  15.147   4.916   1.869
99874W        W68204  44.391  18.109  11.390
99875W        W68205  30.908  27.473  14.464
99876W        W68206  40.365  19.658  11.091
99877W        W68207  10.653  10.845  13.971
99878W        W68208  24.496   2.913  11.425
99879W        W68209  32.472  12.352   1.836
99880W        W68210   7.905  22.588   4.658
99881W        W68211   5.696  17.256  11.099
99882W        W68212  10.857  32.497  10.997
99883W        W68213  24.144  44.851  13.986
99884W        W68214  24.125  42.400   0.476
99885W        W68215  33.552  44.409   3.166
99886W        W68216   0.934  16.789  12.978
99887W        W68217  12.855  41.506   4.168
99888W        W68218  39.840  38.944  14.299
99889W        W68219  19.211  26.632   1.904
99890W        W68220  20.725  41.388   3.229
99891W        W68221  34.484  18.557   3.156
99892W        W68222   8.196   2.851  13.838
99893W        W68223  35.915  17.225  14.846
99894W        W68224   6.246  19.101   1.371
99895W        W68225   5.403   7.209   0.367
99896W        W68226  13.271  16.713   0.939
99897W        W68227   2.813  13.340  10.404
99898W        W68228   6.822   1.431  12.536
99899W        W68229  16.762  44.974   2.228
99900W        W68230  43.934   0.468   2.305
99901W        W68231  16.805   1.264  12.455
99902W        W68232  26.990  37.012  13.858
99903W        W68233  31.501  19.546   9.563
99904W        W68234  36.050  29.076  11.868
99905W        W68235  20.165  37.377   3.844
99906W        W68236  32.094   9.177  12.351
99907W        W68237   0.385  24.176  14.862
99908W        W68238  37.521  25.519  13.378
99909W        W68239   8.224  44.901  11.984
99910W        W68240  38.391  31.406   3.306
99911W        W68241  27.950  21.591  12.086
99912W        W68242  26.665  14.671   3.243
99913W        W68243  40.911  14.322  10.916
99914W        W68244  19.706  14.316  11.938
99915W        W68245  33.434  43.297  12.348
99916W        W68246  19.275  16.716   2.758
99917W        W68247   3.929  26.556  10.473
99918W        W68248   8.248  41.494   4.167
99919W        W68249   2.901   0.432  10.930
99920W        W68250  30.914  37.566   1.783
99921W        W68251   9.669  30.628   0.388
99922W        W68252  40.489  23.121   0.762
99923W        W68253  43.821  30.566   4.151
99924W        W68254  39.523  15.739  10.606
99925W        W68255  39.876  20.747   4.789
99926W        W68256  28.963  15.779  11.982
99927W        W68257  37.552  21.661  11.054
99928W        W68258   1.909  41.008  11.515
99929W        W68259  13.762  28.460  11.533
99930W        W68260   7.677   8.699   4.759
99931W        W68261  25.472  33.579   4.770
99932W        W68262  40.394  36.915  11.556
99933W        W68263   7.339  12.626  13.398
99934W        W68264  24.216   4.940  14.453
99935W        W68265  44.859  30.555  12.858
99936W        W68266  34.994  25.984  14.304
99937W        W68267  20.220  29.928   0.288
99938W        W68268  24.112   9.774   2.662
99939W        W68269  34.055  13.692   1.905
99940W        W68270  19.049  37.947   2.771
99941W        W68271   3.245  29.050  14.481
99942W        W68272  24.583   5.727   4.233
99943W        W68273  42.879  22.730  13.036
99944W        W68274  14.798  23.106   4.766
99945W        W68275  43.771  17.124  11.946
99946W        W68276  31.994  18.083  11.995
99947W        W68277  21.207  33.992  14.441
99948W        W68278  26.030  22.524   1.847
99949W        W68279  42.926   5.283   4.718
99950W        W68280  20.561   0.761   1.293
99951W        W68281   2.935  44.404  14.974
99952W        W68282  10.227  18.660   4.664
99953W        W68283  17.572  25.516  13.901
99954W        W68284  15.586  36.492   3.273
99955W        W68285  14.305  37.053  13.039
99956W        W68286  43.796  38.396   4.779
99957W        W68287   1.818  36.869  11.048
99958W        W68288   1.759   7.269  10.950
99959W        W68289  15.752  22.554   1.722
99960W        W68290  30.063  13.625   4.253
99961W        W68291  17.149  39.847   9.922
99962W        W68292  17.242  11.170   1.368
99963W        W68293  16.740  32.015  13.828
99964W        W68294  22.663   3.295   4.202
99965W        W68295   7.228  18.702  12.872
99966W        W68296  22.221  29.628  11.057
99967W        W68297   8.396  26.194   3.360
99968W        W68298  26.607  38.974   3.861
99969W        W68299  40.871   9.878  14.983
99970W        W68300  33.601  38.427   1.753
99971W        W68301  15.202  13.634  12.844
99972W        W68302  19.621  10.711   4.189
99973W        W68303  22.726  25.213  12.983
99974W        W68304   8.284   2.899   3.864
99975W        W68305  23.011  29.047  14.375
99976W        W68306  23.711  24.486   1.284
99977W        W68307  25.069  35.995  10.964
99978W        W68308   5.302   6.282   3.157
99979W        W68309  34.554  35.381  11.487
99980W        W68310  34.033  10.364   4.330
99981W        W68311  27.945   2.782  13.810
99982W        W68312  32.434  11.171   3.264
99983W        W68313  27.194   2.792  13.334
99984W        W68314  15.245  38.052   1.829
99985W        W68315  30.097  13.277   0.437
99986W        W68316  28.567  29.148   2.348
99987W        W68317   3.314  18.569   2.373
99988W        W68318  43.359  25.971   1.326
99989W        W68319  18.190  11.766   3.848
99990W        W68320  41.915   2.798   3.273
99991W        W68321  35.063  14.320   5.273
99992W        W68322  12.811  18.097   4.687
99993W        W68323  13.834  38.447  13.315
99994W        W68324  12.263  10.291  14.947
99995W        W68325  10.821  25.594  14.774
99996W        W68326  25.010  29.001  12.462
99997W        W68327  38.069  43.861  12.913
99998W        W68328  28.037   7.795  12.575
99999W        W68329   7.331  23.008   0.804
    0W        W68330  17.201   1.859  10.504
    1W        W68331   4.288  35.391   3.650
    2W        W68332   5.308  26.620   1.741
    3W        W68333  13.644   2.827   2.894
    4W        W68334  10.683  24.711   4.806
    5W        W68335  35.431  13.747  13.839
    6W        W68336   0.880   6.237   1.291
    7W        W68337  44.487  12.854   0.841
    8W        W68338  15.776   8.208   3.852
    9W        W68339  32.950  40.838   1.309
   10W        W68340  32.030  23.060   0.411
   11W        W68341  38.852  11.280  11.568
   12W        W68342  43.434  35.386   1.780
   13W        W68343  18.144  10.340   3.636
   14W        W68344  16.609   9.824   4.194
   15W        W68345   9.177  40.310  14.928
   16W        W68346  12.179   5.322  10.576
   17W        W68347  28.605  12.330   2.226
   18W        W68348  44.368  34.885  11.548
   19W        W68349  28.670   1.428  12.915
   20W        W68350  18.282  27.588  12.388
   21W        W68351  33.606  11.785   0.364
   22W        W68352   4.727  21.571   1.816
   23W        W68353  17.245  39.556  14.361
   24W        W68354  31.464  10.680   0.303
   25W        W68355  28.576  39.853  13.492
   26W        W68356   8.733  40.341  14.913
   27W        W68357  16.570  25.178   9.597
   28W        W68358  41.027  27.500  14.468
   29W        W68359  20.106  30.147   2.717
   30W        W68360  22.100  29.148  12.504
   31W        W68361  30.979  39.343  14.808
   32W        W68362   8.267  27.095   2.185
   33W        W68363   0.476   6.302  14.949
   34W        W68364  23.238  12.267  14.443
   35W        W68365  10.141  20.227  14.991
   36W        W68366  12.661  11.243   3.667
   37W        W68367  24.517  18.196   3.714
   38W        W68368  27.000  16.311   4.198
   39W        W68369   5.247   3.733   3.252
   40W        W68370  20.103  31.152   2.389
   41W        W68371  30.482  43.360  12.520
   42W        W68372  31.520   4.729   1.766
   43W        W68373  10.204   2.274  12.000
   44W        W68374  18.651  33.982  14.925
   45W        W68375  18.694   8.768  13.388
   46W        W68376  40.950  22.611  14.890
   47W        W68377  21.569   7.859  14.320
   48W        W68378  35.040  20.631   1.849
   49W        W68379   8.219  38.442   3.800
   50W        W68380  13.198  21.027   1.267
   51W        W68381   5.814  35.873   3.719
   52W        W68382  31.626  31.444   4.837
   53W        W68383  11.793   8.181   1.358
   54W        W68384  11.186  37.539  10.957
   55W        W68385  19.255  29.497  10.945
   56W        W68386  36.050   5.701   1.829
   57W        W68387  19.120  35.864  13.996
   58W        W68388  43.515  34.533   0.348
   59W        W68389   7.413  33.540   1.231
   60W        W68390  35.405  36.049  10.427
   61W        W68391  42.939  36.000   1.277
   62W        W68392  32.420  11.189  14.503
   63W        W68393  35.031  34.511  14.912
   64W        W68394   6.417  41.360  14.339
   65W        W68395  26.140   9.232   3.789
   66W        W68396  14.762  34.394   4.297
   67W        W68397   3.938   2.898  13.879
   68W        W68398  10.721  32.041   2.403
   69W        W68399   5.203  16.740   3.379
   70W        W68400  25.151  42.310  12.395
   71W        W68401  14.744  19.076   2.306
   72W        W68402   1.453  31.112  13.882
   73W        W68403  38.411  21.242   4.243
   74W        W68404  41.386  10.788  13.891
   75W        W68405   0.782  26.046   4.750
   76W        W68406  27.540   2.750   2.293
   77W        W68407  25.549  24.108   1.305
   78W        W68408  19.648  39.854  12.438
   79W        W68409   1.290  31.614  13.794
   80W        W68410  10.664  25.203   3.241
   81W        W68411  37.053  37.374   0.331
   82W        W68412  22.734  44.008  10.411
   83W        W68413   5.396  19.177  10.547
   84W        W68414   8.224  16.229   2.737
   85W        W68415  12.767  38.851  13.383
   86W        W68416   6.699  38.387   3.698
   87W        W68417  31.137  40.388  13.882
   88W        W68418  27.003  41.351   0.728
   89W        W68419  43.513  35.063  10.941
   90W        W68420   6.192  10.784  14.404
   91W        W68421  23.732  33.497   3.238
   92W        W68422  12.335  22.191   2.322
   93W        W68423   2.736  43.496  12.858
   94W        W68424  25.676  40.906  12.444
   95W        W68425   8.764  40.326  12.882
   96W        W68426   7.736  32.067   1.808
   97W        W68427  23.055  30.563   0.921
   98W        W68428  44.438  43.389  13.443
   99W        W68429   5.259  24.141   1.394
  100W        W68430  11.271  43.401   3.339
  101W        W68431  23.223  38.329  14.292
  102W        W68432  16.721   9.265   3.178
  103W        W68433  32.426  41.851  13.427
  104W        W68434   8.217  17.789  13.916
  105W        W68435  14.817  39.891  12.419
  106W        W68436   4.263  16.813   1.214
  107W        W68437  29.147  23.081  13.327
  108W        W68438  16.674  25.650  12.425
  109W        W68439  23.995   5.299  14.963
  110W        W68440   3.732  34.960  12.435
  111W        W68441  13.300  39.021  12.010
  112W        W68442  13.747  28.476  12.427
  113W        W68443  43.820  20.034  12.560
  114W        W68444  36.389  10.229   3.759
  115W        W68445  36.940  20.604   2.397
  116W        W68446  38.844  23.206   1.384
  117W        W68447  33.910  44.807   1.704
  118W        W68448  14.765  16.271  11.876
  119W        W68449  22.037   3.924  11.904
  120W        W68450  30.515  19.254  11.461
  121W        W68451  43.981  42.378   1.724
  122W        W68452  19.192  13.762   3.713
  123W        W68453   6.305  20.623  13.876
  124W        W68454  27.029  44.905  12.403
  125W        W68455  18.669   7.266   2.273
  126W        W68456  33.618  17.792  12.509
  127W        W68457  21.053  27.162   2.691
  128W        W68458  43.869  35.929  13.847
  129W        W68459  17.175  39.834  11.858
  130W        W68460  10.869  38.841  10.157
  131W        W68461   3.285  26.574  14.294
  132W        W68462  29.624  15.266  12.447
  133W        W68463  37.551  40.347   4.665
  134W        W68464   9.678   5.434  12.476
  135W        W68465  27.646   0.380  10.499
  136W        W68466  22.071   1.787   3.708
  137W        W68467  15.632  10.206  10.940
  138W        W68468  11.841  18.782   5.112
  139W        W68469  15.713  11.206  11.374
  140W        W68470  20.272  19.624  10.500
  141W        W68471  43.830   8.167  12.903
  142W        W68472   7.757  41.910  13.940
  143W        W68473  31.010  19.601   9.447
  144W        W68474  23.512  33.948  13.929
  145W        W68475   5.314  24.519  14.954
  146W        W68476  34.038   5.881  13.962
  147W        W68477  14.812  28.030  14.938
  148W        W68478  37.837  42.777   5.306
  149W        W68479  35.374   0.330  11.513
  150W        W68480   0.491  40.427   0.749
  151W        W68481   8.739  32.622   1.931
  152W        W68482   8.665  23.616  10.958
  153W        W68483  27.140   1.328  10.566
  154W        W68484  31.589  10.298   4.141
  155W        W68485   3.778   4.418   1.387
  156W        W68486   5.375  28.082  10.635
  157W        W68487   6.303  32.046  14.430
  158W        W68488  17.232   7.804  13.043
  159W        W68489  12.179   2.311   0.366
  160W        W68490  43.450   9.381   2.748
  161W        W68491   1.442  26.197   0.909
  162W        W68492  40.446  27.150  10.964
  163W        W68493  17.618   4.860   0.964
  164W        W68494   4.360  31.596  11.985
  165W        W68495   5.808  44.402   4.693
  166W        W68496   8.257  34.116   1.245
  167W        W68497  20.599  25.666  12.088
  168W        W68498  17.591   6.363   0.932
  169W        W68499  21.212   2.259   1.769
  170W        W68500  18.092  44.772   4.154
  171W        W68501  28.055   7.712   3.835
  172W        W68502  32.114   6.400   4.211
  173W        W68503  37.408  18.128   4.667
  174W        W68504  20.604   6.713   4.134
  175W        W68505   5.770  38.328   4.689
  176W        W68506   5.742  24.220  14.961
  177W        W68507  21.092  30.951  12.424
  178W        W68508  36.879  24.591   3.635
  179W        W68509  36.479  21.238  10.903
  180W        W68510  22.636  43.007  13.496
  181W        W68511  32.092  43.836  10.007
  182W        W68512   3.411  39.554   2.858
  183W        W68513  30.544  41.953  11.109
  184W        W68514   5.218  41.042  12.434
  185W        W68515  19.546  31.994   2.806
  186W        W68516   3.914  18.163   4.155
  187W        W68517  24.487  27.060  13.906
  188W        W68518  25.542  28.618  11.463
  189W        W68519  25.049  20.115   4.113
  190W        W68520  21.590  26.474  11.090
  191W        W68521  26.023   5.322  14.415
  192W        W68522  14.631   8.693  11.112
  193W        W68523  12.217  35.037   2.766
  194W        W68524  27.478   9.164   1.830
  195W        W68525   9.174  25.204  11.604
  196W        W68526  22.043  39.823  14.411
  197W        W68527  19.658  24.038   1.296
  198W        W68528  33.483  16.647   2.404
  199W        W68529  23.659  29.976  13.030
  200W        W68530  28.012   5.231  12.084
  201W        W68531  23.029  31.046  11.610
  202W        W68532  42.855   3.743  12.826
  203W        W68533  15.750  11.316  12.543
  204W        W68534   5.423  11.333   3.217
  205W        W68535  42.509  29.612  13.335
  206W        W68536  44.993  32.501   2.341
  207W        W68537  27.479   5.799   1.830
  208W        W68538   1.758  26.674  11.591
  209W        W68539   2.857   8.192   2.861
  210W        W68540  15.169  13.697   0.481
  211W        W68541  38.559  37.884   0.804
  212W        W68542  10.271  28.615  12.346
  213W        W68543   5.276  42.442   1.766
  214W        W68544  26.672   9.680   4.283
  215W        W68545   9.883   2.273  12.851
  216W        W68546   3.792  24.227   2.383
  217W        W68547  12.856   5.256  13.012
  218W        W68548  22.127  10.851   2.723
  219W        W68549  34.422  13.217  13.058
  220W        W68550  29.119   3.235   4.144
  221W        W68551  20.670   9.302  14.876
  222W        W68552  36.883  15.701  13.929
  223W        W68553  30.549  15.716   0.835
  224W        W68554  10.794  21.512  10.895
  225W        W68555  36.364   1.436  14.369
  226W        W68556  19.674  29.567   5.141
  227W        W68557  36.469  23.683  11.602
  228W        W68558  12.857  44.383   4.148
  229W        W68559   3.784  32.037  12.940
  230W        W68560   8.258  37.408   4.795
  231W        W68561  27.114  35.544  10.587
  232W        W68562  19.195  31.475   3.197
  233W        W68563  38.458  44.883  11.417
  234W        W68564  13.169   3.267  10.148
  235W        W68565  38.074  22.593   3.168
  236W        W68566  43.847  33.402  12.041
  237W        W68567   0.986  25.998  11.906
  238W        W68568  31.070  22.071  10.904
  239W        W68569  27.527  25.975   1.268
  240W        W68570  12.634  13.285   4.327
  241W        W68571  37.929   8.318  14.862
  242W        W68572  10.681  20.242   2.885
  243W        W68573   7.747  42.891  11.976
  244W        W68574  10.348  18.544  11.409
  245W        W68575  36.980  40.914  12.478
  246W        W68576   9.354  44.829  10.890
  247W        W68577  37.933  22.542   1.735
  248W        W68578  10.687  34.592   3.201
  249W        W68579   8.370   6.309   4.773
  250W        W68580  27.947  41.351   3.350
  251W        W68581  20.263  19.051  12.359
  252W        W68582  14.188  28.069  14.469
  253W        W68583   7.190   1.400   3.798
  254W        W68584  39.883  25.079   4.213
  255W        W68585  12.216   8.840   4.611
  256W        W68586  25.486   6.404   3.731
  257W        W68587   0.388  31.439   2.873
  258W        W68588  11.369  38.879  11.874
  259W        W68589  25.535  39.545  14.472
  260W        W68590  21.118   3.342  14.021
  261W        W68591   8.381  44.848  12.360
  262W        W68592  17.134   3.321   5.204
  263W        W68593  18.266  11.816  11.009
  264W        W68594  44.309   9.159   3.733
  265W        W68595  35.504  40.876  13.391
  266W        W68596  11.320  44.498   1.356
  267W        W68597  31.444  33.924  12.024
  268W        W68598  41.025  26.617  10.047
  269W        W68599  41.427  21.262   3.200
  270W        W68600   4.913   0.390   1.276
  271W        W68601   6.271  24.523   0.301
  272W        W68602   9.825  21.019  14.311
  273W        W68603  16.581  10.232  12.853
  274W        W68604  44.380  25.679  13.475
  275W        W68605  44.490  11.331   4.766
  276W        W68606  10.814  18.587   4.725
  277W        W68607  42.410  29.481   4.690
  278W        W68608   1.418  14.737  13.922
  279W        W68609   6.768  32.425  13.854
  280W        W68610  42.956   9.658  12.423
  281W        W68611   4.938  20.550   3.842
  282W        W68612   8.401   9.857  14.395
  283W        W68613   1.256  31.909   4.254
  284W        W68614   5.436  21.062  13.334
  285W        W68615  29.933  23.229   4.828
  286W        W68616  20.043  33.384  10.948
  287W        W68617  23.077  36.557  13.478
  288W        W68618  23.129  22.523  14.022
  289W        W68619  21.129   1.451  10.593
  290W        W68620   2.388  29.019  13.886
  291W        W68621  25.065  28.985   0.272
  292W        W68622  40.514   8.811   5.214
  293W        W68623  10.369  16.692   2.668
  294W        W68624  10.875  15.151  10.430
  295W        W68625  26.469   9.393  14.511
  296W        W68626  29.172  16.211  11.082
  297W        W68627   0.304  26.055   2.415
  298W        W68628  30.016  37.032   0.421
  299W        W68629  34.006  21.565  14.369
  300W        W68630   6.687  38.440   4.628
  301W        W68631  40.430  31.898   3.844
  302W        W68632  26.508  26.694   0.850
  303W        W68633  17.696  14.794   1.267
  304W        W68634   3.310  31.433   4.159
  305W        W68635  26.985   8.292   4.265
  306W        W68636  10.720  43.788   3.236
  307W        W68637   2.454   4.408  12.525
  308W        W68638  16.658  43.878  14.492
  309W        W68639  39.556  12.351   2.892
  310W        W68640  22.523  41.813   4.663
  311W        W68641  37.342   7.760   0.313
  312W        W68642  18.080   6.908  13.908
  313W        W68643   3.730  20.234  10.456
  314W        W68644  38.959  16.688  11.448
  315W        W68645  13.759   1.911   3.176
  316W        W68646  36.008  30.164  12.952
  317W        W68647   6.678  11.826  14.865
  318W        W68648  22.703  44.376  11.579
  319W        W68649  39.818  21.052  14.464
  320W        W68650  32.557  40.367  12.415
  321W        W68651   1.842   8.675  14.301
  322W        W68652  26.977   7.291  12.526
  323W        W68653  25.144  20.631  11.061
  324W        W68654  15.150  32.047  14.984
  325W        W68655   1.784  22.516  14.012
  326W        W68656  16.241  19.585   3.354
  327W        W68657   2.830  42.499   3.323
  328W        W68658  19.258  30.041  10.041
  329W        W68659   6.876  42.833   5.295
  330W        W68660  32.415  12.752   3.844
  331W        W68661  12.228  18.221  10.482
  332W        W68662  44.934  27.983  11.454
  333W        W68663   6.789   2.415   0.855
  334W        W68664  14.317   7.910  12.456
  335W        W68665  16.654  32.047   0.741
  336W        W68666  20.259  37.372  11.005
  337W        W68667   9.270  31.067   2.314
  338W        W68668   8.801  17.104   1.927
  339W        W68669  20.656  16.167  12.940
  340W        W68670  27.645  26.569   1.268
  341W        W68671  37.372  18.173  11.444
  342W        W68672   3.300  28.559   0.318
  343W        W68673  40.979   5.917  12.001
  344W        W68674  41.941  33.396  13.436
  345W        W68675   0.446  43.797  11.070
  346W        W68676  42.953  20.064  10.613
  347W        W68677   5.416  30.588  14.393
  348W        W68678  31.126  36.046  10.425
  349W        W68679  33.557  22.156   1.233
  350W        W68680  31.607   0.781  14.943
  351W        W68681  24.713  32.464  11.115
  352W        W68682  16.751   0.367   1.336
  353W        W68683  12.268  12.668   3.670
  354W        W68684  17.062  25.152   1.802
  355W        W68685  11.684   3.217  13.887
  356W        W68686   0.364  35.496  14.024
  357W        W68687  41.968  44.755  13.314
  358W        W68688  31.997  17.568  12.964
  359W        W68689  26.479  41.009   3.154
  360W        W68690  10.784   9.884   1.330
  361W        W68691  23.237  15.669   3.333
  362W        W68692  24.565  34.418   2.851
  363W        W68693  27.465  25.610  14.766
  364W        W68694  36.444  26.530   3.684
  365W        W68695   4.864  44.832  12.960
  366W        W68696  34.048  16.678  12.893
  367W        W68697  23.092   6.728   3.721
  368W        W68698  20.170  43.938  11.918
  369W        W68699  44.282  37.339   3.171
  370W        W68700  41.954  28.597  10.906
  371W        W68701  35.508   5.235  12.492
  372W        W68702  18.604  29.925  13.477
  373W        W68703  32.523  15.790  14.279
  374W        W68704  14.791  32.926   1.853
  375W        W68705   2.453  16.252  11.570
  376W        W68706  26.988  19.738  14.319
  377W        W68707   5.405  43.354   2.251
  378W        W68708  12.831  31.908   3.220
  379W        W68709  39.343   2.273  13.993
  380W        W68710  38.406  17.727  10.484
  381W        W68711  29.494  24.651   0.796
  382W        W68712   3.940  25.179   4.652
  383W        W68713  39.049  42.961  10.642
  384W        W68714   9.276  33.052  10.958
  385W        W68715  20.261  24.216   2.186
  386W        W68716   2.458  28.560  10.578
  387W        W68717  16.176  19.112  14.323
  388W        W68718  18.280  33.063   2.850
  389W        W68719  43.359  11.279   4.291
  390W        W68720   5.837  36.071   4.618
  391W        W68721   5.249  43.279  13.326
  392W        W68722  25.712  20.064   0.757
  393W        W68723  32.577  43.425  11.397
  394W        W68724   0.460  23.217   1.876
  395W        W68725  23.611  13.320   0.304
  396W        W68726  27.053  31.950   2.355
  397W        W68727  28.952   1.330   2.891
  398W        W68728  20.101   2.734   4.143
  399W        W68729   1.425  39.391  11.068
  400W        W68730  21.046  26.515   3.666
  401W        W68731  26.625  14.254   3.747
  402W        W68732  19.269  12.828  14.495
  403W        W68733  17.225  21.109  11.122
  404W        W68734  38.054  36.095   4.762
  405W        W68735  21.558   2.883  14.942
  406W        W68736   8.825  32.888   0.460
  407W        W68737  23.610  23.713   1.860
  408W        W68738  14.631  31.125   2.367
  409W        W68739  24.546   8.204  13.374
  410W        W68740  15.118  20.529  12.056
  411W        W68741  44.838  36.349  14.343
  412W        W68742  22.008  29.574  14.019
  413W        W68743  30.082   5.722   2.248
  414W        W68744  34.077   5.227   3.330
  415W        W68745  28.477  32.058   4.758
  416W        W68746   6.825   1.809   3.653
  417W        W68747   8.701  39.038  12.015
  418W        W68748   8.777  19.730  12.478
  419W        W68749   8.165  23.209  13.476
  420W        W68750   7.284  32.110   4.276
  421W        W68751   6.756  38.400  12.340
  422W        W68752   6.907  32.125   4.660
  423W        W68753  10.337  41.863  14.807
  424W        W68754  34.509   4.315  12.536
  425W        W68755   1.344  40.469   2.786
  426W        W68756  36.404  10.269  10.453
  427W        W68757  37.399   4.436  14.911
  428W        W68758  26.606   5.205  10.542
  429W        W68759  35.930  40.515  10.949
  430W        W68760  32.018  42.499  10.928
  431W        W68761   1.300  28.657   4.642
  432W        W68762  37.339   9.191  14.289
  433W        W68763  10.225  33.066  11.008
  434W        W68764  22.665  21.250   4.689
  435W        W68765  43.389  17.580  14.435
  436W        W68766   2.278   7.389   1.825
  437W        W68767  16.568   9.731   1.225
  438W        W68768   1.958  33.920   2.279
  439W        W68769   9.182  32.500   4.238
  440W        W68770  33.930  28.134   1.328
  441W        W68771  15.129  14.157  11.856
  442W        W68772  15.163  39.924   4.309
  443W        W68773  14.776  23.220  12.037
  444W        W68774   1.413  20.531  11.384
  445W        W68775  16.100  44.933  14.030
  446W        W68776  16.703  35.973   2.416
  447W        W68777  28.969   1.342  10.551
  448W        W68778  12.272  26.489  13.899
  449W        W68779   7.792  41.322  13.860
  450W        W68780  15.244   4.809   2.708
  451W        W68781  41.482  38.040  10.441
  452W        W68782  29.113  19.132  12.938
  453W        W68783  30.107  39.408   2.872
  454W        W68784   9.881  24.711  14.974
  455W        W68785  40.543  30.561   1.261
  456W        W68786  11.639   2.433   3.747
  457W        W68787  40.441  18.062   3.779
  458W        W68788  24.623  44.879  12.964
  459W        W68789  22.627  33.101   4.757
  460W        W68790  20.612  39.929  11.116
  461W        W68791  30.586  42.516   4.754
  462W        W68792  38.049  38.939  10.981
  463W        W68793  28.439  32.090  14.981
  464W        W68794  37.536  14.213   2.186
  465W        W68795   5.749   5.852  14.291
  466W        W68796   2.397   5.219  12.917
  467W        W68797  33.610  25.532   0.398
  468W        W68798  30.045  18.077  13.922
  469W        W68799  26.484  25.049   0.839
  470W        W68800  36.538  40.460  13.888
  471W        W68801  11.368   0.390   2.716
  472W        W68802   9.769  25.585  12.504
  473W        W68803  34.500   2.935   4.696
  474W        W68804  38.568  21.173  14.290
  475W        W68805   1.905  41.418  12.932
  476W        W68806  37.412  33.117  10.982
  477W        W68807  29.530  34.909   5.257
  478W        W68808  42.327  29.087  11.426
  479W        W68809  33.494   1.871  14.353
  480W        W68810  42.354  40.309  14.960
  481W        W68811  13.775  32.088   3.342
  482W        W68812  12.704   0.826  14.406
  483W        W68813   3.280  33.524  10.633
  484W        W68814  18.243   0.391   3.837
  485W        W68815  44.479  11.694  10.983
  486W        W68816   2.306   7.269  13.948
  487W        W68817  15.290  27.547   1.407
  488W        W68818  44.429  34.562  12.952
  489W        W68819  35.017   7.692   4.333
  490W        W68820  44.774  40.002   1.309
  491W        W68821  25.536  16.672  11.902
  492W        W68822  26.654  36.965   4.320
  493W        W68823  24.547  25.494  14.313
  494W        W68824  38.955  23.999   1.728
  495W        W68825  36.900   1.897   0.915
  496W        W68826  40.475  31.140   4.270
  497W        W68827   2.827  10.862   4.631
  498W        W68828  30.917   5.363  14.833
  499W        W68829  29.507  30.529  13.853
  500W        W68830  28.009  22.192   3.841
  501W        W68831  13.631  36.493   4.315
  502W        W68832  41.977  37.477   4.810
  503W        W68833  11.281  18.270  10.524
  504W        W68834  12.621  13.236  13.901
  505W        W68835   9.754  29.450  14.902
  506W        W68836  18.262  27.950   0.390
  507W        W68837   7.863  44.854  13.987
  508W        W68838  43.438  37.875   2.344
  509W        W68839  42.352  43.979  10.937
  510W        W68840  22.561  38.856  13.823
  511W        W68841  33.975  36.008  11.570
  512W        W68842  12.790   6.334   0.399
  513W        W68843  44.448  13.743   4.290
  514W        W68844  31.001  22.542   2.391
  515W        W68845  20.207  32.628  13.972
  516W        W68846  23.547   7.327  12.990
  517W        W68847  16.239  34.047   4.794
  518W        W68848   8.405  33.932  14.361
  519W        W68849  25.482  28.964   4.696
  520W        W68850  43.772   9.295   0.360
  521W        W68851  44.754  33.505   1.832
  522W        W68852  12.142  32.507  14.862
  523W        W68853  44.270  27.570   1.383
  524W        W68854  16.153   0.957  10.931
  525W        W68855   0.898  22.692   0.390
  526W        W68856  34.457   6.285   0.376
  527W        W68857  33.911  19.672  13.855
  528W        W68858  12.172  25.123  10.973
  529W        W68859  18.611  31.910   0.400
  530W        W68860  26.639  15.155   0.250
  531W        W68861   0.318   8.165  11.577
  532W        W68862  25.143  40.413  13.985
  533W        W68863   6.300  24.152  11.435
  534W        W68864  38.908  40.473  13.809
  535W        W68865  44.914  35.998   2.343
  536W        W68866  33.386  15.256  12.555
  537W        W68867  12.136  23.160   0.264
  538W        W68868  40.865   0.897   4.832
  539W        W68869   6.392  37.858  12.869
  540W        W68870  23.526  34.942  11.033
  541W        W68871  16.603  34.585   4.727
  542W        W68872  15.165   4.265   2.394
  543W        W68873  36.087   9.784   0.960
  544W        W68874   1.950   5.269   4.184
  545W        W68875  17.697  34.082  12.546
  546W        W68876  16.290  16.123  11.549
  547W        W68877  29.049  35.467   0.920
  548W        W68878  38.869  14.775   1.264
  549W        W68879   3.217   3.836  13.009
  550W        W68880  26.976   3.722  11.090
  551W        W68881  44.869  22.031  13.061
  552W        W68882  24.042  41.393   0.746
  553W        W68883  10.276  29.127   4.731
  554W        W68884   3.396   5.394  12.481
  555W        W68885  28.618  24.549   3.857
  556W        W68886  41.301  15.158   4.717
  557W        W68887  22.113  44.760  10.480
  558W        W68888  29.937  31.412   1.413
  559W        W68889  18.152  15.624   3.660
  560W        W68890  43.985  21.582  12.071
  561W        W68891  40.998  24.115   4.144
  562W        W68892  26.599  37.086  14.305
  563W        W68893  21.021  34.870   2.702
  564W        W68894  22.580  10.694   0.789
  565W        W68895  42.518  17.211  11.985
  566W        W68896  44.869  39.380   1.313
  567W        W68897  35.957  32.989   1.399
  568W        W68898  10.798  38.425  14.470
  569W        W68899  24.151   8.671  13.329
  570W        W68900   7.375  30.557  11.592
  571W        W68901   6.705   9.337  14.845
  572W        W68902  34.519  26.098  13.504
  573W        W68903  31.132   5.419  11.490
  574W        W68904  11.175   5.237   0.806
  575W        W68905   9.266  16.676   0.883
  576W        W68906  22.553  43.918   1.844
  577W        W68907  19.265  40.992  14.304
  578W        W68908  39.432  15.182  10.890
  579W        W68909  13.698  11.248  11.028
  580W        W68910  13.628  38.874   0.245
  581W        W68911   5.785   9.811   2.184
  582W        W68912  31.646  21.592  14.889
  583W        W68913  37.848  11.252  13.897
  584W        W68914  15.291  40.003   3.271
  585W        W68915  23.139   6.283   1.298
  586W        W68916   9.721  26.145   1.264
  587W        W68917  39.950  24.108  12.006
  588W        W68918  23.595  35.902  13.384
  589W        W68919   9.222   3.952  12.534
  590W        W68920   6.277   4.268   2.326
  591W        W68921  29.168  37.536  14.301
  592W        W68922   5.271   6.379   4.608
  593W        W68923  12.761   8.230   2.232
  594W        W68924  36.384  41.907  13.919
  595W        W68925  40.361  24.515   2.733
  596W        W68926  17.587  15.259   2.784
  597W        W68927  25.034  35.856  10.482
  598W        W68928  44.001  28.544  11.962
  599W        W68929  38.996  18.574   0.833
  600W        W68930   4.405  22.198   2.189
  601W        W68931  15.300  12.228   2.756
  602W        W68932  16.811   4.272   3.735
  603W        W68933  15.761  20.247  10.563
  604W        W68934  38.020  17.731   1.829
  605W        W68935   7.406  41.329   0.948
  606W        W68936  37.408  36.397  14.843
  607W        W68937  24.569   0.748   1.433
  608W        W68938   5.241  40.441   1.451
  609W        W68939  14.277  29.650  13.054
  610W        W68940  34.466  19.118   1.891
  611W        W68941  12.845  10.731  13.823
  612W        W68942  37.538  27.661   1.408
  613W        W68943  22.574  30.075   5.775
  614W        W68944  10.761  35.500   4.826
  615W        W68945  14.744  25.674  14.283
  616W        W68946  26.561  14.741   0.268
  617W        W68947   9.731  14.757   4.124
  618W        W68948  14.679   5.250   4.691
  619W        W68949  22.693   7.332   9.963
  620W        W68950  29.583  32.887   1.416
  621W        W68951   8.161  33.892   0.405
  622W        W68952  25.090  25.522   3.374
  623W        W68953  21.161  39.358  14.791
  624W        W68954  33.913  26.619   3.330
  625W        W68955  13.174  30.532  14.812
  626W        W68956  27.551  24.067   2.364
  627W        W68957  25.507  44.928   0.819
  628W        W68958  37.075   7.902   3.642
  629W        W68959   4.374  38.469  11.544
  630W        W68960  34.404  37.520   3.702
  631W        W68961  34.489  42.302  12.077
  632W        W68962   5.699   2.766   1.230
  633W        W68963  23.531  31.602  11.000
  634W        W68964  11.665  31.471  12.465
  635W        W68965  29.562  31.626  14.791
  636W        W68966  23.526   7.231   2.393
  637W        W68967  11.369  15.688  10.979
  638W        W68968  44.503  25.661  11.108
  639W        W68969  30.026  40.908   1.815
  640W        W68970  27.133  40.378  11.606
  641W        W68971  40.317  32.037   0.401
  642W        W68972   1.913  14.098  12.856
  643W        W68973  31.619  33.505   0.819
  644W        W68974  18.658  28.159  12.527
  645W        W68975  42.883  31.625  11.112
  646W        W68976  13.633  38.556  12.491
  647W        W68977  11.314  16.673  12.425
  648W        W68978  34.484  17.735  11.004
  649W        W68979  14.212  36.043  12.925
  650W        W68980  10.841   3.909  13.512
  651W        W68981  44.383   7.860  13.838
  652W        W68982  10.326   6.806   1.404
  653W        W68983  20.738  23.019  13.411
  654W        W68984  16.698  13.155   1.885
  655W        W68985  30.136   6.368   0.938
  656W        W68986  19.762  19.701   1.791
  657W        W68987  26.020  19.654   1.754
  658W        W68988   0.825  19.709   3.789
  659W        W68989   3.260   2.872  11.037
  660W        W68990  11.160  16.726  13.545
  661W        W68991  16.674  41.918  10.619
  662W        W68992   0.432  29.550   4.631
  663W        W68993  44.969  39.025   0.446
  664W        W68994  35.537  20.243  12.067
  665W        W68995  27.088   4.356   0.789
  666W        W68996   4.776  30.629   1.318
  667W        W68997  37.342  31.100   2.808
  668W        W68998  26.622  40.342   3.319
  669W        W68999  18.167  12.287  11.447
  670W        W69000  28.985  22.671   3.214
  671W        W69001  38.965  18.571  13.820
  672W        W69002   6.370  36.491  11.073
  673W        W69003  17.791   7.911  13.340
  674W        W69004  36.408  39.923   3.729
  675W        W69005  26.566  13.148  12.511
  676W        W69006  31.027  20.554   5.083
  677W        W69007  24.685  23.699  14.285
  678W        W69008  29.613  15.104   2.347
  679W        W69009  17.148   2.334   1.909
  680W        W69010  13.173  13.234   4.635
  681W        W69011  36.045  42.021  13.314
  682W        W69012  18.705  44.505   5.303
  683W        W69013  41.929  37.901   3.360
  684W        W69014  42.494   0.433  13.907
  685W        W69015  16.610  34.473  11.519
  686W        W69016  36.376  24.976   5.135
  687W        W69017   5.218  36.975   0.435
  688W        W69018  20.231   4.819  13.877
  689W        W69019  24.215   5.402   2.681
  690W        W69020  31.944  42.778   0.758
  691W        W69021  33.032   1.892  11.921
  692W        W69022  35.894  21.746   4.144
  693W        W69023  36.467  10.212   4.759
  694W        W69024  25.554  21.598  14.759
  695W        W69025  23.571  27.659   0.345
  696W        W69026  19.673   6.408   2.669
  697W        W69027  42.387   0.804   3.852
  698W        W69028  26.462  40.382  11.513
  699W        W69029  29.632   5.790   0.782
  700W        W69030  19.136  11.368   3.168
  701W        W69031  20.172  16.778  13.450
  702W        W69032  15.584  30.536   3.766
  703W        W69033  34.098  39.995  13.395
  704W        W69034  24.683   3.429  12.365
  705W        W69035  39.316   8.675   0.932
  706W        W69036  43.869  28.500   4.829
  707W        W69037  22.579  42.014  14.772
  708W        W69038  24.186  41.929  12.942
  709W        W69039  12.187  37.564   3.811
  710W        W69040  33.525   5.789  10.427
  711W        W69041  30.561  14.633   3.763
  712W        W69042  40.999  15.807   3.723
  713W        W69043  23.689  38.563  11.403
  714W        W69044  13.214  44.501   1.926
  715W        W69045  40.323  28.944   3.710
  716W        W69046  40.475  27.034   1.379
  717W        W69047  30.000   5.862  11.896
  718W        W69048   2.323  14.598   4.602
  719W        W69049  34.495  31.499  11.407
  720W        W69050  10.672  11.344   2.718
  721W        W69051  18.669  13.835   1.906
  722W        W69052  33.947  17.176  10.539
  723W        W69053  10.828  43.868   3.788
  724W        W69054  12.829  18.750  12.044
  725W        W69055  15.580   0.380  12.904
  726W        W69056  39.377   7.301  11.865
  727W        W69057  16.571  10.859  12.389
  728W        W69058   0.278  40.457   1.223
  729W        W69059  41.496  36.928   2.285
  730W        W69060  24.141  19.201  11.433
  731W        W69061  10.325   9.168  13.955
  732W        W69062  28.503   2.922  10.935
  733W        W69063  43.810   7.300   1.246
  734W        W69064  37.871  21.650  13.437
  735W        W69065  29.127  36.972   1.724
  736W        W69066  13.331  18.266   9.923
  737W        W69067  40.036  18.230  13.996
  738W        W69068   4.430  20.576  14.790
  739W        W69069  44.379  33.498   2.887
  740W        W69070   6.391  23.058   4.658
  741W        W69071  39.550   5.712   5.767
  742W        W69072  31.027  29.542  13.988
  743W        W69073  44.286  38.068  11.394
  744W        W69074   4.359  40.346   4.776
  745W        W69075  30.627   2.359  12.851
  746W        W69076  36.015   9.760   1.445
  747W        W69077   2.232   9.778  10.919
  748W        W69078  18.209  40.009  12.022
  749W        W69079  24.622  17.596  13.391
  750W        W69080  38.921  23.088   3.385
  751W        W69081  13.791   3.908  13.832
  752W        W69082  21.539  25.661  14.970
  753W        W69083   3.345   6.331   3.363
  754W        W69084  20.543  27.449   1.319
  755W        W69085  14.331  28.630  14.921
  756W        W69086  13.648  35.885   4.265
  757W        W69087  37.459  10.356   2.842
  758W        W69088   9.679   3.709   3.164
  759W        W69089  33.586  16.206   1.224
  760W        W69090  31.106  41.983   0.469
  761W        W69091  27.635  17.774   3.185
  762W        W69092   0.914  12.732   9.921
  763W        W69093  11.354   2.856  10.609
  764W        W69094  29.081  21.097   4.604
  765W        W69095   3.787  36.947  14.914
  766W        W69096  20.202  32.455  13.060
  767W        W69097   3.861  35.482  13.063
  768W        W69098  34.890  29.175  11.578
  769W        W69099  22.245  19.604   4.266
  770W        W69100  28.050  29.668   4.784
  771W        W69101  41.424   7.819  13.502
  772W        W69102  38.036  19.201   2.667
  773W        W69103  40.798  11.291  14.414
  774W        W69104  40.891  43.808  13.513
  775W        W69105   6.747   2.456  13.805
  776W        W69106  15.578  32.563   2.391
  777W        W69107  44.948   4.793  13.438
  778W        W69108   8.689  34.608   2.782
  779W        W69109   3.807   6.875  14.450
  780W        W69110  10.853   1.421  11.876
  781W        W69111   7.227  29.444  12.480
  782W        W69112  21.240  33.928  12.986
  783W        W69113  11.747  23.627  14.845
  784W        W69114  21.232  42.816   2.251
  785W        W69115   8.817  16.666  14.800
  786W        W69116  40.382  26.683  11.462
  787W        W69117  36.577  35.872  14.286
  788W        W69118  44.426  41.843  14.363
  789W        W69119  28.181  16.724   1.215
  790W        W69120  15.793  16.116   4.316
  791W        W69121  30.116  42.944   0.901
  792W        W69122  18.256  14.200  13.793
  793W        W69123   2.798  44.295  13.910
  794W        W69124  13.632  43.294  14.503
  795W        W69125  20.101  40.360  12.445
  796W        W69126  25.557  40.882   4.306
  797W        W69127  31.011  19.607   0.819
  798W        W69128  22.574  21.569  12.512
  799W        W69129  19.605  35.939   3.669
  800W        W69130  19.735  17.632   4.264
  801W        W69131  30.157   1.377   1.801
  802W        W69132  13.782  14.649  14.410
  803W        W69133  19.253  27.663  12.537
  804W        W69134   4.305  17.203  13.795
  805W        W69135  36.044  43.996   3.230
  806W        W69136   5.736  10.698   4.246
  807W        W69137   9.309  33.406  12.365
  808W        W69138  32.132  37.083   3.851
  809W        W69139  36.036  34.007  13.005
  810W        W69140  18.150  12.657  13.792
  811W        W69141  22.026  21.552   3.813
  812W        W69142   9.785  38.958   0.789
  813W        W69143  24.507  10.745  11.529
  814W        W69144  16.283  24.982  10.446
  815W        W69145  42.332  44.967  14.004
  816W        W69146  43.836   6.909   3.348
  817W        W69147  29.939  21.670   5.237
  818W        W69148  44.910  23.172  13.485
  819W        W69149  10.249  15.150   0.751
  820W        W69150  24.048  40.954  11.085
  821W        W69151  14.624   0.938  12.573
  822W        W69152  31.455  31.145   0.967
  823W        W69153  21.582  15.200   4.229
  824W        W69154  11.353  24.096   1.222
  825W        W69155  17.206  15.158  11.542
  826W        W69156  30.989   2.882   4.634
  827W        W69157  44.470  23.587   1.212
  828W        W69158  41.995  41.891  11.406
  829W        W69159  26.174  11.357   4.153
  830W        W69160   0.957  34.905   0.917
  831W        W69161  25.049   0.874   5.168
  832W        W69162  24.500  37.436  12.936
  833W        W69163  21.704  23.617   4.829
  834W        W69164  43.980   9.277  10.575
  835W        W69165  14.180  42.027   4.336
  836W        W69166   7.263  30.054   1.433
  837W        W69167  20.054  12.664   1.387
  838W        W69168   4.323   7.305   3.705
  839W        W69169   9.216  12.283  13.495
  840W        W69170  34.021  33.599   3.823
  841W        W69171  27.491  38.381  12.544
  842W        W69172  14.637   1.753  12.880
  843W        W69173  37.078   6.209   3.750
  844W        W69174   7.312  31.114   2.259
  845W        W69175  35.516  41.903   0.320
  846W        W69176  34.044   3.807  14.367
  847W        W69177   0.402  10.842  12.368
  848W        W69178  25.185  26.176  13.374
  849W        W69179  29.442  27.594   0.800
  850W        W69180  21.047  37.380  11.919
  851W        W69181  31.566  42.418   3.785
  852W        W69182  25.505  20.187  14.832
  853W        W69183   5.373   8.766   4.262
  854W        W69184  27.600  25.963   1.715
  855W        W69185  11.219  40.472  12.469
  856W        W69186  14.291  15.795  14.810
  857W        W69187  19.130   5.223   4.331
  858W        W69188  42.315  25.215   2.747
  859W        W69189  28.155   1.401  14.325
  860W        W69190   9.797   7.788  11.900
  861W        W69191  30.973  20.159   0.430
  862W        W69192  17.175   4.250  13.830
  863W        W69193   1.828   7.329  12.399
  864W        W69194   5.773   1.885  11.991
  865W        W69195  39.318   7.752   1.313
  866W        W69196  32.536  19.647  14.406
  867W        W69197   6.677  41.007   1.319
  868W        W69198   9.168  32.993   4.224
  869W        W69199   8.750  12.217   3.750
  870W        W69200  15.086  40.041  13.969
  871W        W69201  26.152  39.354   2.893
  872W        W69202  38.854  31.456  11.440
  873W        W69203   1.864  23.165   3.775
  874W        W69204   7.207  31.427   0.774
  875W        W69205  33.456  31.962   3.694
  876W        W69206  27.969   0.458   0.948
  877W        W69207  39.465  31.044   1.734
  878W        W69208  22.694  39.418   2.263
  879W        W69209  38.859  21.076  10.548
  880W        W69210  34.896   8.242  13.905
  881W        W69211  32.421  37.956   1.418
  882W        W69212  42.844   1.806   0.298
  883W        W69213  33.126   9.708   3.189
  884W        W69214  25.216   2.948  12.859
  885W        W69215  20.259  24.986   1.291
  886W        W69216   7.684  19.536   2.675
  887W        W69217  17.131  31.529   1.802
  888W        W69218  17.661  32.531  13.046
  889W        W69219  33.616  38.536   4.145
  890W        W69220  19.561  10.757   1.326
  891W        W69221  44.935  14.808  12.907
  892W        W69222  11.310  13.830  12.397
  893W        W69223  32.961  20.206   5.798
  894W        W69224   3.452  42.364  14.984
  895W        W69225  26.654   8.873  14.506
  896W        W69226  25.208  14.599  10.989
  897W        W69227  16.637  14.651  14.298
  898W        W69228  41.498  35.406  10.516
  899W        W69229  31.487  33.883  12.868
  900W        W69230  37.439  38.554  13.533
  901W        W69231  17.627  16.602  10.437
  902W        W69232  43.303  34.478  12.415
  903W        W69233  11.679  26.659  12.030
  904W        W69234  44.442  22.538  12.351
  905W        W69235  28.525  12.298  12.474
  906W        W69236  22.141  35.080   1.308
  907W        W69237  25.606  18.776  14.407
  908W        W69238  36.352   2.348   1.427
  909W        W69239  17.197  39.026  12.508
  910W        W69240  42.466  28.955  11.997
  911W        W69241   6.231  31.618  13.525
  912W        W69242   2.944  16.634   4.827
  913W        W69243  35.581  42.890  13.824
  914W        W69244  33.493  38.546   0.940
  915W        W69245  22.036  10.323  13.022
  916W        W69246  32.125   7.676   2.244
  917W        W69247  22.568  36.933   3.211
  918W        W69248  28.451  36.873   3.331
  919W        W69249  32.545  19.661   3.781
  920W        W69250  27.102  10.318  12.080
  921W        W69251  11.836  17.213  12.893
  922W        W69252  31.558  13.756   0.299
  923W        W69253  39.046  32.400  13.941
  924W        W69254  12.170  31.995  14.465
  925W        W69255  17.702   6.312  12.358
  926W        W69256  37.580  20.531   0.949
  927W        W69257  21.605  26.641   3.703
  928W        W69258  11.163  16.607   4.249
  929W        W69259  13.302  27.197  10.569
  930W        W69260  36.844   7.707   4.618
  931W        W69261  23.225   4.216   1.213
  932W        W69262  37.843  24.163   2.197
  933W        W69263   9.167   1.367   4.340
  934W        W69264  16.276  34.470  10.061
  935W        W69265  36.388  43.828  11.581
  936W        W69266  25.216  28.521   0.924
  937W        W69267  21.122  32.022  14.822
  938W        W69268  22.178   8.225   4.320
  939W        W69269  22.078   2.819  14.909
  940W        W69270  38.887   1.775  12.909
  941W        W69271   4.370  35.075   4.255
  942W        W69272  38.966  36.965  11.054
  943W        W69273  15.728  18.218  11.524
  944W        W69274   1.734  27.590  14.021
  945W        W69275  21.687   3.953  10.587
  946W        W69276  11.279  43.971   2.274
  947W        W69277  35.576  14.682   3.636
  948W        W69278   9.393   1.780   4.635
  949W        W69279  44.262  44.978  13.927
  950W        W69280  29.512  38.825   1.819
  951W        W69281  34.588  22.109   0.250
  952W        W69282  19.130   9.833   1.371
  953W        W69283  25.964  34.067  12.432
  954W        W69284  23.532  33.558  12.368
  955W        W69285  43.912   6.734   4.174
  956W        W69286  31.090  44.804   4.168
  957W        W69287  19.762  15.722   1.703
  958W        W69288  44.351  23.017   4.199
  959W        W69289  31.993  36.365   1.745
  960W        W69290  31.903  33.424   1.861
  961W        W69291  16.644  10.360  14.980
  962W        W69292  35.901  43.781   3.731
  963W        W69293  36.378  30.005   0.803
  964W        W69294  44.388  24.493  12.470
  965W        W69295  18.214  24.178  13.800
  966W        W69296   4.446   8.239  13.336
  967W        W69297  11.729  15.775   5.185
  968W        W69298  28.058  24.516   3.728
  969W        W69299  42.377  12.848  11.041
  970W        W69300   0.788  11.180   3.669
  971W        W69301   1.443  42.882  14.438
  972W        W69302  29.920  20.545   2.678
  973W        W69303  33.388   5.919  13.493
  974W        W69304  29.172   5.376  11.988
  975W        W69305  25.620  28.082  11.038
  976W        W69306   1.925  29.957  12.007
  977W        W69307  37.029  29.043  12.530
  978W        W69308  12.754  22.220  11.403
  979W        W69309  37.453  37.074   4.331
  980W        W69310  34.966  39.372  10.414
  981W        W69311  15.618  40.472  10.599
  982W        W69312  20.729  44.001   3.158
  983W        W69313  44.391   4.398   2.673
  984W        W69314   3.735  21.237   1.750
  985W        W69315  29.478  34.935  14.509
  986W        W69316  23.566  20.112   4.171
  987W        W69317  17.792  22.565  13.830
  988W        W69318   5.250   5.928  12.486
  989W        W69319   6.306  38.968  14.962
  990W        W69320  28.512  33.928   5.202
  991W        W69321   4.707  30.053  14.503
  992W        W69322  20.596  40.910   0.380
  993W        W69323  20.581  31.090   4.275
  994W        W69324   8.191  18.272   3.221
  995W        W69325  40.880  28.673  12.427
  996W        W69326  27.519  10.841  14.496
  997W        W69327  10.695  41.036  11.116
  998W        W69328  13.697  39.863   0.736
  999W        W69329  26.060  12.140  14.400
 1000W        W69330  15.310  18.255   3.255
 1001W        W69331  19.768  14.188   1.450
 1002W        W69332  21.146  28.680   0.886
 1003W        W69333  41.847   7.356  10.057
 1004W        W69334  38.848  15.606   3.150
 1005W        W69335  42.951  32.565  11.565
 1006W        W69336  21.245  38.914   0.289
 1007W        W69337   4.241  12.283  11.879
 1008W        W69338  21.693  16.123  11.101
 1009W        W69339  22.201   0.864   2.873
 1010W        W69340  24.185  39.871  11.464
 1011W        W69341  15.235   9.729  14.421
 1012W        W69342  18.156  23.201  10.058
 1013W        W69343  31.941   5.251   1.704
 1014W        W69344  22.567  26.498  14.423
 1015W        W69345   1.971   3.952  11.458
 1016W        W69346   1.477  27.064   2.385
 1017W        W69347  37.892  44.779  10.969
 1018W        W69348  21.075  22.082  11.887
 1019W        W69349  12.763   9.835  12.826
 1020W        W69350  37.446  41.473  14.998
 1021W        W69351   8.785  19.249  14.347
 1022W        W69352  11.324  13.337  13.823
 1023W        W69353  27.999  41.359  11.411
 1024W        W69354   8.322   9.779  11.900
 1025W        W69355   0.450  14.334  12.938
 1026W        W69356  17.080   7.828   4.751
 1027W        W69357  34.902  32.030   9.990
 1028W        W69358  31.075  28.155   1.249
 1029W        W69359  15.754  22.602  12.952
 1030W        W69360  12.790  16.229  12.029
 1031W        W69361  37.038  30.930   2.713
 1032W        W69362  40.453  26.475   4.308
 1033W        W69363  40.456  20.102   0.436
 1034W        W69364   2.428  32.423  12.500
 1035W        W69365   9.754   2.939  13.518
 1036W        W69366  42.502  21.250   0.888
 1037W        W69367  32.453  21.541  11.047
 1038W        W69368  21.576  28.562   1.263
 1039W        W69369  13.235  37.068  14.882
 1040W        W69370  16.625   5.337   4.834
 1041W        W69371  31.958   8.714  14.427
 1042W        W69372  20.690   5.921   2.337
 1043W        W69373   7.748  22.659  11.495
 1044W        W69374  35.853  11.754  11.868
 1045W        W69375  43.852  14.281   4.667
 1046W        W69376  35.599  23.642  14.348
 1047W        W69377  26.459  28.673  11.051
 1048W        W69378  19.778   6.412  11.126
 1049W        W69379  37.515  25.987  14.829
 1050W        W69380  31.495  41.828  14.825
 1051W        W69381  26.569  27.999   3.858
 1052W        W69382  10.355  23.054  11.579
 1053W        W69383  35.857  15.819  13.436
 1054W        W69384  11.360   4.437   0.875
 1055W        W69385  23.698   2.913  11.553
 1056W        W69386  43.401  44.480   0.930
 1057W        W69387   7.372   0.905  12.373
 1058W        W69388   9.312  29.499  12.552
 1059W        W69389  10.353  15.622  10.494
 1060W        W69390  36.382  42.403   2.239
 1061W        W69391  35.603  35.997   4.646
 1062W        W69392  37.570  41.517  11.460
 1063W        W69393  38.875  12.723  13.342
 1064W        W69394   4.239  34.038  14.970
 1065W        W69395   9.162  16.098  14.899
 1066W        W69396   2.314  40.391   3.700
 1067W        W69397  20.045  20.251  11.010
 1068W        W69398  23.011   3.423   1.374
 1069W        W69399  41.466  18.703   4.341
 1070W        W69400   4.299  27.670   3.275
 1071W        W69401  31.605  17.639   0.357
 1072W        W69402  35.943  16.257   1.420
 1073W        W69403  19.773  31.955  10.544
 1074W        W69404  19.675  11.632   1.437
 1075W        W69405  23.007   6.227  14.961
 1076W        W69406   3.810  35.985  13.887
 1077W        W69407   8.371  18.786  11.092
 1078W        W69408  17.744  13.267   1.357
 1079W        W69409  37.938  16.176   1.935
 1080W        W69410  24.553  26.053  11.481
 1081W        W69411   5.245  14.141   0.272
 1082W        W69412   3.376  33.092  12.465
 1083W        W69413   9.284  44.366  10.404
 1084W        W69414   8.294  40.309  13.323
 1085W        W69415  33.486   6.197  13.410
 1086W        W69416  34.072  13.826   4.808
 1087W        W69417  11.853  24.114   5.100
 1088W        W69418  42.469  25.012   3.798
 1089W        W69419  44.974  41.868   0.925
 1090W        W69420  32.391  33.877   3.725
 1091W        W69421  11.716  32.609  14.324
 1092W        W69422  41.428  26.495   4.705
 1093W        W69423  16.785  42.938  10.977
 1094W        W69424  44.800  34.403  14.301
 1095W        W69425  26.525  23.620  11.948
 1096W        W69426  34.407  18.739  12.949
 1097W        W69427   7.687   3.314  10.551
 1098W        W69428  12.233  40.529  14.385
 1099W        W69429  19.184  34.871  13.545
 1100W        W69430  26.113  38.496   2.249
 1101W        W69431  10.773   1.338  10.929
 1102W        W69432  37.981  29.975  13.833
 1103W        W69433  33.037  27.964  11.941
 1104W        W69434  29.524  32.111   3.307
 1105W        W69435   7.781   4.349   2.352
 1106W        W69436  25.150  32.442  11.994
 1107W        W69437  12.351  19.164   2.397
 1108W        W69438  44.822  18.789  10.502
 1109W        W69439  18.073  38.028   3.187
 1110W        W69440  25.043   1.819   4.837
 1111W        W69441   2.452   4.797  14.995
 1112W        W69442   0.946  10.735   0.276
 1113W        W69443   5.799  27.189  12.440
 1114W        W69444   7.270  39.974  12.953
 1115W        W69445  20.767  37.957   0.316
 1116W        W69446  32.063   4.236   0.482
 1117W        W69447  38.883  26.077   4.715
 1118W        W69448  23.111  27.661  14.452
 1119W        W69449  10.262  26.055   1.438
 1120W        W69450   8.712  24.145   1.448
 1121W        W69451  21.052  44.281  10.483
 1122W        W69452  10.876  29.462  11.520
 1123W        W69453  15.690  42.945   9.986
 1124W        W69454  42.918  11.309  13.523
 1125W        W69455  32.889   4.288   0.933
 1126W        W69456  31.414  27.074   0.316
 1127W        W69457  26.567  34.903   1.846
 1128W        W69458   8.733  30.638  12.840
 1129W        W69459   6.408  40.381  12.055
 1130W        W69460  25.052  39.327   3.661
 1131W        W69461  37.084  25.039   0.367
 1132W        W69462   3.916  21.039  12.034
 1133W        W69463  22.559   4.389  14.472
 1134W        W69464   7.734  42.784   3.642
 1135W        W69465  18.750  35.434  11.982
 1136W        W69466  34.010   2.269  14.983
 1137W        W69467  19.126  25.650  12.040
 1138W        W69468  38.872  38.077  10.493
 1139W        W69469  12.680  19.677  12.849
 1140W        W69470  43.898  44.766  10.615
 1141W        W69471  40.305  30.513   2.804
 1142W        W69472  38.360   8.263   3.145
 1143W        W69473  11.761   5.700   2.676
 1144W        W69474  35.505   9.787   1.283
 1145W        W69475  24.985  27.018  13.542
 1146W        W69476  38.448  44.406  10.464
 1147W        W69477  14.136  38.384   2.279
 1148W        W69478  24.646  28.164   3.188
 1149W        W69479  35.518   4.297   3.778
 1150W        W69480   1.302  44.767  13.467
 1151W        W69481  42.931  19.130  14.843
 1152W        W69482  42.858   0.776  10.405
 1153W        W69483  13.839  15.800  12.438
 1154W        W69484  23.672  23.643   0.393
 1155W        W69485  23.150  43.892   2.830
 1156W        W69486  21.190  19.672  11.579
 1157W        W69487  34.895  19.770  13.482
 1158W        W69488  22.240  11.865   2.379
 1159W        W69489  15.721  37.552  14.394
 1160W        W69490   7.764  41.934   3.275
 1161W        W69491  23.686  24.506   3.774
 1162W        W69492  20.670   6.863   2.867
 1163W        W69493   8.695   2.764  13.418
 1164W        W69494  43.274  19.240  12.022
 1165W        W69495  38.841  43.345   0.731
 1166W        W69496  29.654  44.285   1.442
 1167W        W69497  30.412  20.677   9.986
 1168W        W69498   2.257  13.131  12.527
 1169W        W69499  15.110  10.772  12.455
 1170W        W69500  30.477  36.553  12.379
 1171W        W69501  30.928  31.435  14.976
 1172W        W69502  18.774  12.162   3.160
 1173W        W69503  24.665  30.643  12.075
 1174W        W69504  19.219  26.156   2.242
 1175W        W69505  26.047  44.299   0.807
 1176W        W69506  19.706  20.683   0.348
 1177W        W69507  26.981  14.333   5.155
 1178W        W69508   4.793  41.895  11.123
 1179W        W69509  39.844   2.372   0.357
 1180W        W69510  11.699  39.838  12.510
 1181W        W69511  36.478  34.902   3.755
 1182W        W69512  27.041   8.704   9.929
 1183W        W69513  37.461  43.813   3.385
 1184W        W69514  36.922   5.917   2.338
 1185W        W69515  28.514  33.105  11.025
 1186W        W69516   6.338  28.567  13.482
 1187W        W69517  21.168  17.085  14.398
 1188W        W69518  30.629  44.828  11.402
 1189W        W69519  23.635   5.413   4.830
 1190W        W69520  27.527  22.604   4.730
 1191W        W69521  19.074  18.704  13.395
 1192W        W69522  31.548  16.727  13.440
 1193W        W69523  24.155  27.685  14.379
 1194W        W69524  17.118  26.063  13.930
 1195W        W69525   1.305  38.904  11.952
 1196W        W69526  14.807  36.867   4.684
 1197W        W69527  30.612  13.667  11.119
 1198W        W69528  31.484  28.009  12.544
 1199W        W69529  36.019  38.534  12.999
 1200W        W69530  29.467  37.901  11.000
 1201W        W69531   1.913  32.585   1.261
 1202W        W69532  41.851  13.124   0.949
 1203W        W69533   9.794  32.903   2.738
 1204W        W69534  33.533  26.984   1.918
 1205W        W69535  11.241  10.159  14.278
 1206W        W69536  35.376  36.508   1.434
 1207W        W69537  21.174   4.920   3.345
 1208W        W69538  14.129  12.840   3.713
 1209W        W69539   0.259  12.680  12.972
 1210W        W69540  23.508  35.484   2.306
 1211W        W69541  20.228  32.921  13.538
 1212W        W69542   7.882   8.665   0.431
 1213W        W69543  15.317  24.514   1.709
 1214W        W69544  40.319  32.136   4.602
 1215W        W69545  17.238  35.576  14.002
 1216W        W69546  35.998  43.910   1.379
 1217W        W69547  40.317  41.042  14.942
 1218W        W69548  19.725  33.494   1.285
 1219W        W69549  39.539   6.238   1.815
 1220W        W69550  40.044   3.899  11.876
 1221W        W69551  11.313  11.630   2.777
 1222W        W69552  12.657   6.744  13.374
 1223W        W69553  44.780  24.636   0.771
 1224W        W69554  30.025  18.728  12.956
 1225W        W69555   0.264  15.296   2.335
 1226W        W69556  20.174  39.899   1.703
 1227W        W69557   6.319   4.371   4.774
 1228W        W69558  17.141  35.980   2.851
 1229W        W69559  27.094  22.171   2.825
 1230W        W69560  24.568  42.501  11.111
 1231W        W69561  35.973   5.318  11.044
 1232W        W69562  31.139  13.663  11.479
 1233W        W69563  37.948  17.676   1.436
 1234W        W69564  23.116  11.242  11.424
 1235W        W69565  43.805  33.542  14.898
 1236W        W69566  13.827  15.176  11.500
 1237W        W69567  37.413  11.791   1.724
 1238W        W69568   5.309   3.382  13.493
 1239W        W69569  25.593  41.034  12.929
 1240W        W69570  25.663  39.032   4.141
 1241W        W69571  40.357  24.627   2.216
 1242W        W69572   4.288  22.723  11.557
 1243W        W69573  28.186  13.168  11.440
 1244W        W69574  31.962   1.800  13.369
 1245W        W69575  36.483  31.087   4.268
 1246W        W69576   7.837   4.274   4.120
 1247W        W69577  38.470  24.228   0.482
 1248W        W69578  44.269  37.359   0.365
 1249W        W69579  29.624   3.913  12.403
 1250W        W69580  20.753  37.877   2.863
 1251W        W69581  14.210  19.131  11.113
 1252W        W69582  12.690  11.236  13.026
 1253W        W69583  37.510   5.914   1.242
 1254W        W69584  41.923  33.901  11.595
 1255W        W69585  31.547   9.150  10.446
 1256W        W69586  41.309  38.565  12.826
 1257W        W69587   7.269  11.858  12.364
 1258W        W69588   4.395  30.463  14.932
 1259W        W69589  28.539   6.697  11.980
 1260W        W69590   5.383  24.662  13.851
 1261W        W69591  19.248  31.153   1.739
 1262W        W69592  22.170  14.757   2.263
 1263W        W69593   4.259  41.395   1.286
 1264W        W69594  29.070   0.252  14.921
 1265W        W69595  19.780   1.385   3.797
 1266W        W69596   0.383  15.718  13.029
 1267W        W69597   0.396  12.766   2.747
 1268W        W69598   5.350  26.554   3.699
 1269W        W69599  42.357  37.918  14.884
 1270W        W69600  19.095  10.832  13.821
 1271W        W69601  40.826  10.649  10.435
 1272W        W69602   9.667  16.184  12.414
 1273W        W69603   6.342  26.974   3.759
 1274W        W69604   3.726  40.820   4.219
 1275W        W69605  31.124  28.968  11.886
 1276W        W69606  21.532  18.789  13.471
 1277W        W69607  28.135   2.900  11.995
 1278W        W69608  36.868   9.180  13.958
 1279W        W69609  13.656  19.742   1.334
 1280W        W69610  27.170  44.280   2.837
 1281W        W69611   9.374  10.872   2.836
 1282W        W69612  38.913   1.755  14.804
 1283W        W69613  31.568  11.236  11.040
 1284W        W69614  30.971  10.851   1.855
 1285W        W69615  28.050   1.335   3.163
 1286W        W69616  42.019   1.264   1.409
 1287W        W69617   4.263  17.154   3.195
 1288W        W69618  27.084  42.305  14.786
 1289W        W69619  36.899  25.107   2.385
 1290W        W69620  44.816  10.205  13.359
 1291W        W69621  14.252  14.751   2.418
 1292W        W69622   1.360   6.686  12.942
 1293W        W69623  16.785  31.548  11.463
 1294W        W69624  14.772  30.926  13.924
 1295W        W69625  15.111  43.490  14.501
 1296W        W69626  29.534  11.817   4.668
 1297W        W69627  32.931   9.153   0.812
 1298W        W69628  27.671  30.657   1.790
 1299W        W69629  34.019  12.712  12.444
 1300W        W69630   5.405   6.773   0.360
 1301W        W69631  37.915  42.325   1.767
 1302W        W69632  23.239  10.341  12.390
 1303W        W69633  13.266  31.604  11.482
 1304W        W69634  25.575  25.595  12.378
 1305W        W69635  37.468  43.843  10.899
 1306W        W69636   8.304   0.282   4.660
 1307W        W69637  26.484  26.137  11.028
 1308W        W69638  34.614   2.328   3.361
 1309W        W69639   0.423  28.578  11.118
 1310W        W69640  13.129  32.484   3.639
 1311W        W69641  25.633   3.332  11.984
 1312W        W69642  10.324   7.783  13.968
 1313W        W69643  37.878  35.985   2.358
 1314W        W69644  29.055   8.698   1.228
 1315W        W69645  27.033   8.684   2.680
 1316W        W69646  12.138  14.268  14.935
 1317W        W69647  27.562  37.430  13.913
 1318W        W69648  29.582  36.546   1.310
 1319W        W69649   5.406   9.675  12.559
 1320W        W69650  33.109  30.525   0.373
 1321W        W69651  30.951  18.714   2.682
 1322W        W69652  15.807  11.624  14.911
 1323W        W69653  21.054   6.726   4.166
 1324W        W69654  25.513  41.897   2.686
 1325W        W69655  44.470  43.919  13.953
 1326W        W69656   8.795   9.254  13.448
 1327W        W69657  44.276  40.534  10.985
 1328W        W69658   6.359  34.012  10.927
 1329W        W69659  14.188   4.832   0.845
 1330W        W69660  26.189  40.048   0.437
 1331W        W69661  34.072  29.059  13.373
 1332W        W69662  36.043  26.096  12.972
 1333W        W69663  29.157  18.767   1.301
 1334W        W69664  14.200  18.107   2.259
 1335W        W69665  15.681  19.669  13.962
 1336W        W69666  27.613  28.122  14.489
 1337W        W69667  12.181   6.758   0.475
 1338W        W69668  15.113  18.087   1.853
 1339W        W69669   6.277  10.203  13.033
 1340W        W69670  32.909  25.537   2.277
 1341W        W69671   2.439  43.923  13.933
 1342W        W69672  20.178  36.975   0.965
 1343W        W69673  20.045  35.589   0.308
 1344W        W69674  19.175  29.466  13.437
 1345W        W69675   7.781  33.445   3.745
 1346W        W69676  44.274  22.097  11.081
 1347W        W69677   7.766  39.961   4.661
 1348W        W69678  39.869  32.439   0.947
 1349W        W69679  27.108  31.480  14.801
 1350W        W69680   5.228  10.853  10.985
 1351W        W69681  44.913  41.892   2.775
 1352W        W69682  11.785  32.512  14.793
 1353W        W69683  34.916  34.599  13.445
 1354W        W69684  24.133  26.207  14.317
 1355W        W69685  27.478  21.216   0.903
 1356W        W69686   2.759  34.404   0.876
 1357W        W69687  13.605  39.318   1.785
 1358W        W69688  40.476  32.416  11.126
 1359W        W69689  12.616  31.494   0.844
 1360W        W69690  11.621  16.096  11.006
 1361W        W69691  39.022  38.944   1.219
 1362W        W69692  26.644  40.841   0.729
 1363W        W69693  19.740  12.643  10.039
 1364W        W69694  20.676  16.779   5.215
 1365W        W69695  23.070  22.679   2.205
 1366W        W69696  39.423  17.767  14.793
 1367W        W69697  31.946  14.786   3.227
 1368W        W69698  29.658  11.698   0.920
 1369W        W69699  21.135   2.851   2.256
 1370W        W69700  15.121  17.664  14.333
 1371W        W69701  32.994  22.013  14.333
 1372W        W69702   1.354  12.683   1.744
 1373W        W69703  24.026   8.759  12.354
 1374W        W69704  25.076  35.415   1.817
 1375W        W69705   3.868  28.080  12.914
 1376W        W69706  14.297  32.064  13.807
 1377W        W69707  23.201   4.928  12.393
 1378W        W69708  20.162  35.876  11.977
 1379W        W69709  20.134  25.046   2.694
 1380W        W69710   3.849  11.301  13.392
 1381W        W69711   9.180  36.098   3.172
 1382W        W69712  29.527  31.935  13.808
 1383W        W69713  10.263  22.224  12.549
 1384W        W69714  40.922  37.974  13.911
 1385W        W69715   6.912  29.103  11.876
 1386W        W69716  36.967  10.183  11.999
 1387W        W69717  38.406  18.086  10.407
 1388W        W69718   4.758  12.833   3.183
 1389W        W69719   5.233  37.066  10.109
 1390W        W69720  39.555  40.495  10.958
 1391W        W69721  15.707   8.230   2.678
 1392W        W69722  42.295  36.024   3.851
 1393W        W69723  20.112  34.550   0.932
 1394W        W69724  42.388  14.717   0.755
 1395W        W69725  11.682  11.824  11.012
 1396W        W69726  44.788   4.743   0.296
 1397W        W69727  15.176  24.695  14.811
 1398W        W69728  35.052  31.981   4.334
 1399W        W69729   5.898   4.218   4.260
 1400W        W69730  33.416  35.054   2.289
 1401W        W69731  44.903   2.730  12.484
 1402W        W69732  42.321  44.343   1.824
 1403W        W69733  14.665  21.579   0.401
 1404W        W69734  39.316  21.103  14.346
 1405W        W69735  31.009   1.312  14.794
 1406W        W69736  21.750  16.587  14.347
 1407W        W69737  32.416   3.429   2.755
 1408W        W69738  39.056  26.659   3.343
 1409W        W69739  19.046  19.077  11.585
 1410W        W69740  26.693  31.429   0.778
 1411W        W69741  29.035  44.922   1.410
 1412W        W69742  38.387  27.686   0.347
 1413W        W69743  43.399  32.604  12.964
 1414W        W69744  29.976  30.488   0.326
 1415W        W69745  37.357  11.172  13.392
 1416W        W69746  13.623  18.084   0.777
 1417W        W69747  32.593  35.999   0.788
 1418W        W69748  20.235   4.738   4.750
 1419W        W69749  44.874   2.232   4.608
 1420W        W69750  37.958  38.865   3.238
 1421W        W69751   0.906  13.781  14.889
 1422W        W69752  23.544  23.599   3.826
 1423W        W69753   6.205  18.604  14.833
 1424W        W69754   2.430  32.035   1.415
 1425W        W69755  29.516  16.132   4.774
 1426W        W69756  11.798  22.522   2.668
 1427W        W69757  31.441  10.185  10.496
 1428W        W69758  22.696   7.195  11.477
 1429W        W69759  31.426  12.708  11.105
 1430W        W69760  20.529  24.178   4.132
 1431W        W69761  32.466   2.942   4.799
 1432W        W69762   1.378   8.674   4.327
 1433W        W69763  18.107  27.175   2.394
 1434W        W69764  33.443   1.795   3.774
 1435W        W69765  40.885  23.699  10.930
 1436W        W69766  14.296  36.095   1.765
 1437W        W69767  33.602  18.179  10.144
 1438W        W69768   7.875  11.742   0.248
 1439W        W69769  24.028   1.791   2.726
 1440W        W69770  14.108  26.017   0.481
 1441W        W69771  21.564  29.162  14.841
 1442W        W69772  13.669  22.132   4.303
 1443W        W69773  14.773  17.716  14.276
 1444W        W69774  24.517  39.850  11.922
 1445W        W69775  13.611  41.471   0.743
 1446W        W69776  37.020  27.169  13.974
 1447W        W69777   7.367   3.845   0.884
 1448W        W69778  22.125  27.015  13.928
 1449W        W69779  37.462   0.846  10.981
 1450W        W69780  36.035  21.568   0.243
 1451W        W69781  10.331  37.339   3.179
 1452W        W69782   9.180  18.094  10.022
 1453W        W69783  30.926  14.783  12.904
 1454W        W69784  33.126  23.542   0.451
 1455W        W69785  18.736  43.792   4.247
 1456W        W69786  21.191  31.549   0.477
 1457W        W69787  38.562  30.650  12.010
 1458W        W69788   6.692  11.749  11.389
 1459W        W69789  19.607   8.688  13.464
 1460W        W69790   5.193   3.754  13.444
 1461W        W69791  13.136   7.299   2.383
 1462W        W69792  22.679   8.793   3.310
 1463W        W69793  23.684   1.785  11.510
 1464W        W69794  39.883  38.420  14.956
 1465W        W69795  42.937  29.918   3.630
 1466W        W69796  10.202  30.032  13.030
 1467W        W69797  39.415  25.549   1.849
 1468W        W69798   6.914  27.064  12.861
 1469W        W69799  37.445  33.040  14.447
 1470W        W69800  44.425   7.400  10.913
 1471W        W69801  14.716  18.117  11.997
 1472W        W69802  32.569   1.894  12.442
 1473W        W69803  38.929  18.088   1.811
 1474W        W69804  11.770  39.316   1.751
 1475W        W69805  18.644  21.566  13.333
 1476W        W69806  25.525   7.698   1.370
 1477W        W69807   5.849   4.944   0.806
 1478W        W69808  20.578  44.298   2.259
 1479W        W69809   0.406  35.569   2.239
 1480W        W69810  30.552  31.468  12.083
 1481W        W69811  18.169  28.485   0.310
 1482W        W69812   0.956  21.170   2.306
 1483W        W69813  20.175  30.523   1.433
 1484W        W69814  18.232  10.740  12.889
 1485W        W69815  40.307  11.364  14.808
 1486W        W69816  20.053  23.021   0.431
 1487W        W69817   8.297   6.270   3.383
 1488W        W69818  22.095  12.188   4.168
 1489W        W69819  16.680  24.605  10.620
 1490W        W69820  32.007  24.669  12.511
 1491W        W69821  44.001  14.787   0.469
 1492W        W69822  36.849  38.073  12.511
 1493W        W69823  18.663   4.394  12.026
 1494W        W69824  35.445  22.622   2.354
 1495W        W69825  43.783  14.201  14.833
 1496W        W69826   0.865  34.388   4.806
 1497W        W69827   2.433  43.938   0.426
 1498W        W69828   1.770  15.308  13.936
 1499W        W69829  13.322  32.096  12.485
 1500W        W69830   4.848   0.306   3.204
 1501W        W69831  23.574   5.261  11.964
 1502W        W69832   8.765  31.090   0.381
 1503W        W69833   7.412   9.214   1.871
 1504W        W69834  43.379  12.661  13.327
 1505W        W69835  41.800   9.648  14.952
 1506W        W69836  39.482  28.063  10.553
 1507W        W69837   7.754  17.260   1.276
 1508W        W69838   9.271  15.777  14.410
 1509W        W69839  29.042  16.177   1.250
 1510W        W69840  18.787  20.088   3.162
 1511W        W69841   7.223  28.598  11.578
 1512W        W69842   1.750   7.335   3.319
 1513W        W69843   4.814   5.292  14.514
 1514W        W69844   2.918  17.606   4.689
 1515W        W69845  41.406  25.510   4.640
 1516W        W69846  35.984  35.106  12.994
 1517W        W69847  40.988  13.617   3.688
 1518W        W69848  32.110  23.563  10.538
 1519W        W69849  23.096  17.244  13.452
 1520W        W69850  43.003   4.270  14.929
 1521W        W69851   6.292  28.529   1.368
 1522W        W69852  42.868  18.776   0.923
 1523W        W69853  10.315  16.740  10.428
 1524W        W69854  26.608  24.640   4.233
 1525W        W69855  12.818  25.045  14.372
 1526W        W69856  43.931  44.391  13.035
 1527W        W69857  43.500  18.552  11.948
 1528W        W69858  23.987  36.589   3.704
 1529W        W69859  25.184  25.188   1.245
 1530W        W69860  16.239  18.692  10.535
 1531W        W69861   8.266  15.642   4.289
 1532W        W69862  18.788  25.674  13.314
 1533W        W69863  37.496   2.298  10.985
 1534W        W69864   2.864   0.445  10.488
 1535W        W69865  44.444  39.325   4.199
 1536W        W69866  42.913   8.882  11.970
 1537W        W69867   1.299  42.300   2.865
 1538W        W69868  13.804  15.784   0.470
 1539W        W69869  20.037  16.301  14.996
 1540W        W69870   9.281  23.042  12.844
 1541W        W69871  10.151  22.125   1.915
 1542W        W69872  27.677  42.992   2.805
 1543W        W69873  30.126   1.275  14.326
 1544W        W69874  29.468  20.650   5.628
 1545W        W69875  18.595  26.981   0.256
 1546W        W69876  28.077  32.417   0.340
 1547W        W69877  35.906   9.296  12.830
 1548W        W69878   9.224  15.631   1.769
 1549W        W69879   6.424   4.411   0.818
 1550W        W69880  31.091  35.090   4.146
 1551W        W69881  16.160  17.763  14.513
 1552W        W69882  18.745   1.797  10.093
 1553W        W69883  37.931  13.194   0.967
 1554W        W69884  23.035  10.190   1.884
 1555W        W69885   3.292   9.395  12.440
 1556W        W69886  37.969  37.424   1.838
 1557W        W69887   5.438   0.328   4.835
 1558W        W69888  30.128   3.724   1.725
 1559W        W69889   7.383  11.328   3.173
 1560W        W69890  17.718  39.857   0.454
 1561W        W69891  24.230  16.255  14.454
 1562W        W69892  15.712  40.459   4.118
 1563W        W69893   3.419  25.503   3.680
 1564W        W69894  28.619  42.473   1.803
 1565W        W69895   8.740  14.099  12.474
 1566W        W69896  12.659  29.070  14.939
 1567W        W69897  31.500   7.376   3.781
 1568W        W69898   0.884  37.378  10.967
 1569W        W69899  21.611  23.098   1.366
 1570W        W69900  30.545  36.407  11.424
 1571W        W69901  37.895  14.321   2.391
 1572W        W69902  41.431  17.246   0.247
 1573W        W69903  16.791  31.055   3.185
 1574W        W69904  24.227  38.541  13.962
 1575W        W69905  19.215  12.348   1.370
 1576W        W69906  14.755   8.337  12.057
 1577W        W69907   6.259  22.522   4.271
 1578W        W69908  39.520  25.604  12.537
 1579W        W69909  38.048  37.540  10.517
 1580W        W69910  11.172  30.573   1.737
 1581W        W69911  13.146  32.138  13.411
 1582W        W69912  29.081  38.387   0.397
 1583W        W69913  42.389  19.556   0.273
 1584W        W69914  30.519  12.748  13.545
 1585W        W69915  30.949  16.783  12.083
 1586W        W69916   5.934  36.364  13.325
 1587W        W69917  10.711  12.262  13.913
 1588W        W69918   4.436  40.387   2.250
 1589W        W69919  38.529  12.204  11.856
 1590W        W69920   6.349  37.533   1.899
 1591W        W69921  20.209  39.059  14.795
 1592W        W69922  21.593  40.417  11.492
 1593W        W69923  33.904  20.653   3.665
 1594W        W69924  39.825  25.066  13.425
 1595W        W69925  23.144  11.758   1.755
 1596W        W69926  30.030  28.441   0.800
 1597W        W69927  39.497  30.488  12.454
 1598W        W69928  26.549  28.071   2.236
 1599W        W69929  12.218  23.652  11.911
 1600W        W69930   4.274   4.886  11.924
 1601W        W69931   1.805  22.126  10.634
 1602W        W69932  22.616   9.173  12.088
 1603W        W69933  20.534  18.188  10.596
 1604W        W69934  18.160  32.391  13.508
 1605W        W69935  35.976  36.445   3.337
 1606W        W69936  21.744  24.693   0.916
 1607W        W69937  21.039  35.429   4.645
 1608W        W69938   6.744  33.566  14.006
 1609W        W69939  34.118   7.233   2.350
 1610W        W69940  15.244  35.904   1.888
 1611W        W69941  30.504  35.871  11.399
 1612W        W69942  27.956  38.023  11.585
 1613W        W69943  27.017   0.760  13.011
 1614W        W69944  27.582   2.375   1.794
 1615W        W69945  25.556  32.922  11.559
 1616W        W69946  17.771  34.589   3.805
 1617W        W69947  40.366  17.732  11.422
 1618W        W69948  26.030   3.230   5.176
 1619W        W69949   1.843  28.513  10.617
 1620W        W69950  43.778  22.043  11.569
 1621W        W69951  42.953  35.871  10.478
 1622W        W69952  35.424  17.786   0.370
 1623W        W69953  10.862   2.954   3.674
 1624W        W69954   1.424  37.496  13.385
 1625W        W69955  19.588  23.697   3.642
 1626W        W69956  23.548   6.865   1.811
 1627W        W69957  30.915  25.147   2.408
 1628W        W69958   3.782  41.801   0.909
 1629W        W69959  33.507  13.741   0.779
 1630W        W69960   9.280  12.332  10.427
 1631W        W69961  28.951  43.323   3.710
 1632W        W69962  39.454  22.642   0.387
 1633W        W69963  26.123  13.111   1.331
 1634W        W69964  37.014  29.486   3.362
 1635W        W69965  19.685  43.492  11.498
 1636W        W69966  41.031  38.865  13.386
 1637W        W69967  44.803   9.386  10.954
 1638W        W69968  13.147  13.742  14.469
 1639W        W69969  21.720  30.504  10.104
 1640W        W69970   0.870  25.055   0.274
 1641W        W69971  29.052  24.552   4.276
 1642W        W69972  40.983  24.022   4.788
 1643W        W69973  17.134  23.494   5.114
 1644W        W69974  34.500  32.537   0.885
 1645W        W69975   0.368  38.975  11.441
 1646W        W69976  41.328  43.285   4.625
 1647W        W69977  27.627  26.077  14.450
 1648W        W69978  36.505  44.995   0.815
 1649W        W69979  17.638  26.590  13.373
 1650W        W69980  10.767  11.758   2.226
 1651W        W69981  35.093  29.604  12.946
 1652W        W69982  22.106  32.983   1.319
 1653W        W69983  40.034  37.545   1.284
 1654W        W69984  27.592  34.416   1.278
 1655W        W69985  22.645  38.556  10.509
 1656W        W69986   9.654  16.600  11.384
 1657W        W69987  11.137   2.458   4.174
 1658W        W69988  44.259  12.833  11.090
 1659W        W69989  11.728  22.169   3.829
 1660W        W69990   3.431  20.063   1.405
 1661W        W69991  42.011  25.526  14.932
 1662W        W69992  23.193  33.049   3.320
 1663W        W69993  15.263  30.000  13.324
 1664W        W69994  44.895  11.836   1.282
 1665W        W69995   3.852  35.087  14.284
 1666W        W69996   6.851  35.911  12.837
 1667W        W69997  26.589  14.181   1.384
 1668W        W69998  28.071  14.195   1.754
 1669W        W69999   5.312  29.583   1.698
 1670W        W70000  33.887  27.494   2.811
 1671W        W70001  27.168  39.836  12.092
 1672W        W70002  28.584  17.265  13.889
 1673W        W70003   5.427   9.318   4.324
 1674W        W70004  20.159  44.360  12.968
 1675W        W70005  19.543   8.358   4.600
 1676W        W70006  24.532  31.616   0.388
 1677W        W70007  44.848  43.316  13.857
 1678W        W70008  16.192  43.420  12.466
 1679W        W70009  41.038   2.880   4.827
 1680W        W70010   1.282   9.764   1.737
 1681W        W70011   8.836  42.419  14.372
 1682W        W70012  14.136  35.525  14.020
 1683W        W70013  16.631  41.463  14.869
 1684W        W70014  39.838  10.244  10.916
 1685W        W70015  34.888  41.297   1.853
 1686W        W70016  25.145  12.184   4.828
 1687W        W70017  16.793   9.248  13.892
 1688W        W70018  16.670  22.095  12.868
 1689W        W70019  44.457  38.986   2.695
 1690W        W70020  43.459  30.003   2.710
 1691W        W70021  40.815  24.050  14.886
 1692W        W70022  14.155  21.122  12.354
 1693W        W70023  15.593   1.444   1.757
 1694W        W70024  29.107   1.272   4.139
 1695W        W70025   8.212   9.655   0.811
 1696W        W70026  30.628  21.187   0.756
 1697W        W70027   0.782  22.127  11.417
 1698W        W70028  23.510  33.547  14.295
 1699W        W70029  44.393  11.737  13.910
 1700W        W70030  36.991  27.003  14.442
 1701W        W70031  34.911   2.951  12.445
 1702W        W70032  28.541  11.155  12.942
 1703W        W70033  18.649  16.755  10.936
 1704W        W70034   2.834  10.767   1.721
 1705W        W70035  35.397  39.328   0.360
 1706W        W70036   7.783   9.820   2.259
 1707W        W70037   1.743  25.997  10.461
 1708W        W70038  24.675  32.448   3.168
 1709W        W70039  19.687  37.074  10.414
 1710W        W70040  16.567  37.879   3.657
 1711W        W70041  37.023   9.715   3.343
 1712W        W70042  44.466  18.609   3.727
 1713W        W70043  15.213  42.869  11.012
 1714W        W70044  37.856  16.673  14.980
 1715W        W70045  12.182  39.810  11.921
 1716W        W70046   6.689  35.508   4.113
 1717W        W70047  24.525  41.909   4.299
 1718W        W70048   6.298   5.707   4.769
 1719W        W70049  21.183   9.202   2.666
 1720W        W70050  37.368  23.595  12.823
 1721W        W70051  25.161  13.305  14.026
 1722W        W70052  42.343  23.060  10.484
 1723W        W70053  34.575  25.610  13.024
 1724W        W70054   2.285   6.735  13.517
 1725W        W70055  26.998  30.554  12.909
 1726W        W70056   7.846   6.367   1.391
 1727W        W70057  28.004  25.082  10.580
 1728W        W70058  43.980  18.654  11.873
 1729W        W70059  19.098  40.938   1.261
 1730W        W70060  25.644   7.818   0.886
 1731W        W70061  42.488  26.168  11.496
 1732W        W70062  20.547  11.745   2.347
 1733W        W70063  36.428  23.082  13.866
 1734W        W70064  14.732   9.292  11.501
 1735W        W70065   1.976  26.037   2.674
 1736W        W70066   5.724   1.926   4.275
 1737W        W70067   8.396  11.189   0.754
 1738W        W70068  38.970  43.473  11.447
 1739W        W70069  23.034  29.959   1.867
 1740W        W70070  31.998   9.686  12.855
 1741W        W70071  16.310   4.796   3.215
 1742W        W70072  13.750  30.040   4.310
 1743W        W70073   5.790   0.760  12.857
 1744W        W70074  12.323  28.503  13.844
 1745W        W70075  18.166  25.472   3.682
 1746W        W70076  38.441  15.256   2.186
 1747W        W70077  40.036  11.641  10.624
 1748W        W70078  16.272   6.414  13.804
 1749W        W70079  25.015  32.009   0.883
 1750W        W70080   5.203   2.383   2.225
 1751W        W70081   1.896  44.900   0.749
 1752W        W70082  17.799  24.550   1.852
 1753W        W70083  22.154  34.028  12.564
 1754W        W70084  26.976   8.739  12.076
 1755W        W70085  37.540  44.955  13.028
 1756W        W70086   1.732   1.458  11.516
 1757W        W70087  44.801  12.840  14.962
 1758W        W70088  36.480  42.389   4.141
 1759W        W70089  11.344   0.356  13.951
 1760W        W70090  27.081  42.383  12.074
 1761W        W70091  26.633   3.865   1.245
 1762W        W70092  30.100   8.872   4.744
 1763W        W70093  39.008  22.144   4.763
 1764W        W70094  42.444  26.458  10.582
 1765W        W70095  42.899   8.822   1.248
 1766W        W70096   5.389  18.231   1.218
 1767W        W70097   5.372  18.675   0.260
 1768W        W70098  34.397   8.172  11.927
 1769W        W70099   1.813  26.646   1.401
 1770W        W70100  27.989  24.671   0.283
 1771W        W70101  25.165   4.232  11.911
 1772W        W70102  11.695  21.113  11.042
 1773W        W70103  19.750  37.449   2.687
 1774W        W70104   5.815   8.160  11.102
 1775W        W70105  34.941  16.594   0.352
 1776W        W70106  35.515  30.628  10.467
 1777W        W70107   4.870  10.856  14.393
 1778W        W70108   4.869  33.089   0.323
 1779W        W70109  25.181   5.751  13.812
 1780W        W70110  44.445  27.990  13.022
 1781W        W70111  27.677   9.846   4.171
 1782W        W70112  15.310  21.731   1.305
 1783W        W70113   2.818   2.354   3.293
 1784W        W70114   1.824   9.858  14.335
 1785W        W70115  13.744  31.144   0.755
 1786W        W70116  35.096  33.457   1.930
 1787W        W70117  21.060   7.844   5.236
 1788W        W70118  23.605  37.859  10.937
 1789W        W70119  34.587  17.234   4.178
 1790W        W70120  44.888  32.920  14.905
 1791W        W70121  21.144  32.937  10.580
 1792W        W70122  21.057   3.334  14.993
 1793W        W70123  15.821  23.135   0.242
 1794W        W70124  34.378  10.664   0.436
 1795W        W70125  32.410   6.746   2.750
 1796W        W70126  41.008  13.134   0.465
 1797W        W70127  26.101  32.444   2.332
 1798W        W70128  11.268  18.678   0.739
 1799W        W70129   7.195  29.069  13.887
 1800W        W70130  33.106  32.007  11.997
 1801W        W70131  17.127  31.113  12.876
 1802W        W70132  39.351  36.467   3.188
 1803W        W70133   0.764  42.808  10.948
 1804W        W70134  44.938  32.903   2.838
 1805W        W70135   6.784   6.358   4.647
 1806W        W70136  37.372  42.851   1.801
 1807W        W70137  41.303  13.639  13.948
 1808W        W70138  30.138  10.781   4.204
 1809W        W70139   9.191  20.634  12.940
 1810W        W70140  26.655  22.519  12.534
 1811W        W70141  41.872   2.778  12.454
 1812W        W70142  24.496  27.544   0.399
 1813W        W70143   2.877  37.506   2.730
 1814W        W70144  26.058  22.660  11.466
 1815W        W70145  44.869  15.252   2.875
 1816W        W70146  24.029  30.566   4.635
 1817W        W70147  33.950  37.952  14.967
 1818W        W70148   4.297   3.400   0.763
 1819W        W70149  27.050   6.306   3.289
 1820W        W70150  38.329  17.264  11.858
 1821W        W70151  39.468  43.400   0.760
 1822W        W70152   2.852  36.859  14.990
 1823W        W70153   7.261   8.752  10.945
 1824W        W70154  26.641   2.325  10.932
 1825W        W70155   0.849  20.067   0.326
 1826W        W70156   6.679  20.693   1.282
 1827W        W70157  31.552  30.015   0.246
 1828W        W70158  37.020  16.725   0.324
 1829W        W70159  21.055   7.694  14.815
 1830W        W70160  13.224  27.151   4.722
 1831W        W70161  31.483  21.174  14.807
 1832W        W70162  27.691   7.748   3.852
 1833W        W70163  28.171  30.462   4.725
 1834W        W70164  42.448  14.095   4.642
 1835W        W70165  23.995   9.888   4.658
 1836W        W70166   6.243  44.823   1.391
 1837W        W70167  12.233  10.681   1.426
 1838W        W70168  21.173  28.512  10.953
 1839W        W70169  42.964  42.427   0.394
 1840W        W70170  32.498   1.774   5.252
 1841W        W70171  19.122   6.792   0.756
 1842W        W70172  28.020  43.931   3.318
 1843W        W70173   0.974  28.167  13.348
 1844W        W70174  25.162   2.924   1.315
 1845W        W70175  17.791  43.269   4.714
 1846W        W70176  38.922  11.749  12.028
 1847W        W70177   4.760  38.893   4.745
 1848W        W70178  44.466  13.264   4.817
 1849W        W70179  23.518  37.548   4.323
 1850W        W70180  38.338  10.224   0.408
 1851W        W70181   1.883  27.666  13.461
 1852W        W70182  29.467  25.051  11.397
 1853W        W70183  13.334  37.341  11.029
 1854W        W70184  32.456  29.935  12.994
 1855W        W70185  17.656  12.208   0.923
 1856W        W70186  13.119  20.713  11.886
 1857W        W70187  26.037  29.639  10.524
 1858W        W70188  42.869  35.462  14.838
 1859W        W70189  27.521  32.070  13.353
 1860W        W70190  44.468  42.876  13.992
 1861W        W70191  25.101  39.907   1.360
 1862W        W70192  14.168  29.154   3.863
 1863W        W70193  22.663  32.938   4.230
 1864W        W70194   3.725  28.939  14.963
 1865W        W70195  42.953  16.727   3.256
 1866W        W70196   6.771   3.763  13.398
 1867W        W70197   9.774  17.768  12.891
 1868W        W70198  35.583  24.051   1.921
 1869W        W70199  32.553  18.660   0.303
 1870W        W70200   9.839  30.547  11.016
 1871W        W70201  42.486   8.885  12.455
 1872W        W70202  42.301   1.425  12.901
 1873W        W70203  28.146  33.027   1.400
 1874W        W70204  31.978  24.140   3.657
 1875W        W70205  35.506  27.462   4.174
 1876W        W70206   2.291  38.553   3.314
 1877W        W70207  20.202  18.632  13.400
 1878W        W70208   1.333  36.447  14.330
 1879W        W70209  23.613  18.711   1.223
 1880W        W70210  23.611  42.480  10.956
 1881W        W70211  24.479  15.233   1.868
 1882W        W70212  39.921   6.738   3.660
 1883W        W70213  11.788  20.044   1.382
 1884W        W70214  15.212  41.847  13.451
 1885W        W70215  42.011   1.756  11.513
 1886W        W70216  22.622  31.071  12.036
 1887W        W70217  44.828  11.144  11.441
 1888W        W70218   7.219  32.005   3.299
 1889W        W70219  23.067   8.889   3.696
 1890W        W70220  13.710   3.791   0.422
 1891W        W70221  38.948   9.310  11.117
 1892W        W70222  27.134  29.166  13.901
 1893W        W70223  31.469  24.713  11.385
 1894W        W70224  20.584  26.479  11.006
 1895W        W70225  44.890   2.434  14.815
 1896W        W70226  28.983  28.018  11.051
 1897W        W70227  35.038  15.084  13.039
 1898W        W70228  33.897  11.757   4.233
 1899W        W70229  26.673  24.186   4.349
 1900W        W70230  30.032  32.900  14.988
 1901W        W70231   9.837  29.161   4.251
 1902W        W70232  33.892  44.399   4.733
 1903W        W70233  19.189   1.461  14.025
 1904W        W70234   2.840  28.143  14.779
 1905W        W70235   4.332  13.821  11.603
 1906W        W70236   3.461  37.383  11.440
 1907W        W70237  24.071  37.580   3.775
 1908W        W70238   7.389  28.059  14.502
 1909W        W70239  35.870   5.791   1.351
 1910W        W70240  44.301  10.203  14.329
 1911W        W70241  18.594  44.338   0.477
 1912W        W70242  18.221   2.758  12.463
 1913W        W70243   7.410   4.802  13.824
 1914W        W70244  40.519  25.634   2.867
 1915W        W70245  27.167   9.852   3.847
 1916W        W70246   0.949  42.826  11.443
 1917W        W70247   4.723  40.952   4.613
 1918W        W70248  16.269  40.365  12.015
 1919W        W70249  23.694   3.394   5.288
 1920W        W70250  21.081  25.088  11.537
 1921W        W70251  38.462   5.382  12.414
 1922W        W70252   6.821  38.869   0.829
 1923W        W70253  40.024  19.236  14.409
 1924W        W70254  35.382  33.488   2.241
 1925W        W70255  27.092  12.357  14.875
 1926W        W70256  26.548   9.237   9.577
 1927W        W70257   5.326  19.224   2.326
 1928W        W70258  34.507  13.829  14.501
 1929W        W70259  10.855  28.477   4.236
 1930W        W70260  36.025  40.422  14.932
 1931W        W70261  44.282  20.219  10.442
 1932W        W70262   5.779  24.046  11.611
 1933W        W70263  34.421  39.554   4.708
 1934W        W70264   1.406   7.187  11.413
 1935W        W70265  19.633   5.206  11.005
 1936W        W70266   9.333  15.215   4.148
 1937W        W70267  13.292  40.042  11.013
 1938W        W70268  21.599   4.777   4.114
 1939W        W70269  29.664   0.824   3.328
 1940W        W70270  24.082  19.717   4.828
 1941W        W70271   4.857  15.134   2.864
 1942W        W70272  13.818  10.864  13.491
 1943W        W70273  42.936  30.069  13.848
 1944W        W70274   9.212  21.047  10.538
 1945W        W70275  26.642  24.569  14.842
 1946W        W70276  26.153  15.152  14.510
 1947W        W70277  25.519  20.628   4.289
 1948W        W70278  36.920  10.165  13.394
 1949W        W70279   9.179  40.839  13.376
 1950W        W70280  14.264  10.139   0.878
 1951W        W70281  28.963   0.982   3.294
 1952W        W70282  11.714  30.969  13.950
 1953W        W70283   5.772  41.467   1.822
 1954W        W70284  21.043  16.680  10.636
 1955W        W70285  13.814  30.117  14.935
 1956W        W70286  42.482  32.014   3.287
 1957W        W70287  34.108  25.190   4.256
 1958W        W70288  17.586   5.362   2.405
 1959W        W70289  26.968  38.891  10.426
 1960W        W70290   2.756  19.150   3.375
 1961W        W70291  28.033  24.540   1.884
 1962W        W70292   0.887   8.166  10.645
 1963W        W70293   6.201  32.899   4.243
 1964W        W70294  28.650  24.678  11.413
 1965W        W70295  23.499  26.522   0.308
 1966W        W70296  11.812  30.545  10.582
 1967W        W70297  16.310  27.508   0.328
 1968W        W70298   5.872  24.018  14.464
 1969W        W70299  34.456   8.344  13.957
 1970W        W70300   4.885  44.460  12.356
 1971W        W70301  12.750  32.628  12.477
 1972W        W70302  20.683  13.177   0.892
 1973W        W70303  34.103  34.958  14.761
 1974W        W70304  35.956  36.407  14.785
 1975W        W70305   3.850  15.233  13.851
 1976W        W70306  15.138   5.834  14.789
 1977W        W70307  26.011  31.510  12.568
 1978W        W70308  10.297  23.713  13.348
 1979W        W70309  27.512   5.791  14.936
 1980W        W70310  18.775  33.440  10.077
 1981W        W70311  29.054   9.830  12.540
 1982W        W70312  25.008   3.774   3.870
 1983W        W70313  23.661  38.386   4.284
 1984W        W70314  20.245  12.172   4.158
 1985W        W70315   0.268  25.201  11.936
 1986W        W70316  25.635  44.891  11.062
 1987W        W70317  14.269  22.086   0.750
 1988W        W70318   4.248  24.075  10.483
 1989W        W70319   1.957  34.107   2.677
 1990W        W70320  29.520  22.507  11.565
 1991W        W70321  39.399  41.807  14.350
 1992W        W70322   1.394  15.717  11.942
 1993W        W70323  23.081   4.883   3.751
 1994W        W70324  37.074  18.662  14.384
 1995W        W70325  38.924  27.540  13.337
 1996W        W70326   1.954  33.886  13.381
 1997W        W70327  37.345  39.469   1.242
 1998W        W70328  38.985  23.215  12.938
 1999W        W70329  23.641  31.989  12.014
 2000W        W70330  14.751   5.387  14.344
 2001W        W70331  22.189  10.338   1.328
 2002W        W70332  23.729   8.367   4.226
 2003W        W70333  13.769  14.700  13.325
 2004W        W70334   9.669  15.638  14.293
 2005W        W70335  44.863  34.404   3.200
 2006W        W70336  11.705  20.169  13.954
 2007W        W70337  11.371   6.783   1.705
 2008W        W70338  33.057  36.086  13.044
 2009W        W70339  32.060  13.601  11.977
 2010W        W70340  34.955  33.578  12.566
 2011W        W70341  38.363  35.996  11.063
 2012W        W70342   6.920  37.426   4.730
 2013W        W70343  22.104  22.056  12.059
 2014W        W70344   3.395   1.463  10.621
 2015W        W70345   2.228  34.384  12.475
 2016W        W70346  28.471   4.412  12.563
 2017W        W70347  20.643  42.810   3.830
 2018W        W70348  44.260  30.475  11.559
 2019W        W70349  33.572  27.624  14.501
 2020W        W70350  35.862  16.682  12.093
 2021W        W70351  41.296  38.039  11.982
 2022W        W70352  19.258  23.627   1.226
 2023W        W70353  42.013  16.735  13.385
 2024W        W70354   6.838  36.994  10.435
 2025W        W70355  14.261  36.398  12.468
 2026W        W70356  21.534  39.383  11.015
 2027W        W70357  11.633  21.659  14.969
 2028W        W70358  18.758  15.717   2.380
 2029W        W70359  18.772  13.304   4.250
 2030W        W70360  43.326  30.090  14.435
 2031W        W70361   3.751  40.032   0.389
 2032W        W70362   5.793  30.482   1.211
 2033W        W70363  37.983  36.986  11.866
 2034W        W70364  22.010  28.533   3.757
 2035W        W70365  28.602  28.569   3.347
 2036W        W70366  29.952  31.057   3.726
 2037W        W70367  33.126  29.155   2.401
 2038W        W70368   5.343  28.102   1.219
 2039W        W70369  33.962  15.793  10.946
 2040W        W70370  28.050  22.231   3.232
 2041W        W70371  22.053   1.245   1.282
 2042W        W70372  15.276  30.507  12.480
 2043W        W70373  41.464  21.651  12.892
 2044W        W70374  31.599  34.873  12.888
 2045W        W70375   8.308   7.398  10.532
 2046W        W70376  39.832  29.108   2.759
 2047W        W70377   4.750  27.078   1.393
 2048W        W70378  11.817  20.692  11.399
 2049W        W70379   3.841  13.136  12.021
 2050W        W70380  27.079  11.310   0.797
 2051W        W70381   5.426  41.353   0.321
 2052W        W70382  30.913   4.854   4.188
 2053W        W70383  28.944  19.626  12.026
 2054W        W70384  40.485  26.549   4.795
 2055W        W70385   8.663  21.684  12.867
 2056W        W70386  38.926  16.752  11.085
 2057W        W70387  11.777  44.308  12.006
 2058W        W70388   5.233  31.440  12.475
 2059W        W70389  31.906  38.430   0.857
 2060W        W70390   6.919   6.204  13.536
 2061W        W70391  15.709  13.772  13.044
 2062W        W70392  26.187   8.397  10.920
 2063W        W70393  36.365  13.252  13.357
 2064W        W70394  28.022  10.272  11.887
 2065W        W70395   3.817  16.294  13.349
 2066W        W70396  31.081  35.075   3.368
 2067W        W70397  24.085  22.516   4.216
 2068W        W70398  22.012  31.510   3.306
 2069W        W70399   8.868   9.645  12.865
 2070W        W70400  34.919  26.144  12.970
 2071W        W70401   3.446   6.188  10.574
 2072W        W70402  33.938  42.481   4.718
 2073W        W70403  36.045  18.213  13.818
 2074W        W70404  32.467  31.978  12.851
 2075W        W70405  14.659  35.390   0.306
 2076W        W70406  30.055  33.558  12.570
 2077W        W70407   7.786  31.082   3.169
 2078W        W70408  12.143  33.071  13.943
 2079W        W70409  17.235  15.089   2.220
 2080W        W70410  18.778  30.537  14.355
 2081W        W70411   7.834  12.273   0.355
 2082W        W70412  36.858  26.186   2.843
 2083W        W70413  28.976  29.573  12.061
 2084W        W70414   4.239  41.979   2.264
 2085W        W70415  33.094   8.794  13.052
 2086W        W70416  14.220  12.266   1.708
 2087W        W70417  37.848   7.263   0.400
 2088W        W70418   9.802  34.435   1.303
 2089W        W70419   4.904  22.558  11.378
 2090W        W70420  37.083  24.678   1.296
 2091W        W70421   6.257  37.338   2.902
 2092W        W70422   2.373  33.518   0.314
 2093W        W70423  17.698  23.018   3.646
 2094W        W70424   2.741  38.949  10.121
 2095W        W70425  14.794  32.630   2.785
 2096W        W70426  20.230  28.561   3.642
 2097W        W70427  43.960  30.983  10.991
 2098W        W70428  29.548  39.351  12.577
 2099W        W70429  25.578   0.920  13.439
 2100W        W70430  11.714  23.537  13.034
 2101W        W70431  25.691  39.888   4.773
 2102W        W70432  29.995  35.023   3.739
 2103W        W70433  11.631  20.536   1.303
 2104W        W70434  11.283  35.407  12.000
 2105W        W70435  12.153   0.489  10.998
 2106W        W70436  32.965   9.329  13.461
 2107W        W70437  38.035  27.033  11.931
 2108W        W70438   1.354  28.672   0.337
 2109W        W70439  44.445   2.363   4.661
 2110W        W70440  32.440   1.355  10.511
 2111W        W70441   6.287  41.947  14.421
 2112W        W70442  31.615   6.185   3.303
 2113W        W70443  20.208  22.650   4.269
 2114W        W70444  38.875  30.643   0.343
 2115W        W70445   2.453  10.215  14.926
 2116W        W70446  19.113  23.533   9.555
 2117W        W70447  28.185  40.357   2.751
 2118W        W70448  43.504  13.106  10.939
 2119W        W70449   5.700  24.638  12.560
 2120W        W70450   8.736  20.525  13.543
 2121W        W70451   4.290  36.362   9.651
 2122W        W70452  42.863  10.373  11.024
 2123W        W70453  40.433   7.408  13.476
 2124W        W70454  38.962   4.336  14.283
 2125W        W70455  24.609  33.565  11.950
 2126W        W70456   8.383  30.124  11.015
 2127W        W70457  16.149  19.691  11.011
 2128W        W70458  37.943   4.856  10.064
 2129W        W70459  20.590  33.455  10.485
 2130W        W70460  10.207   6.899   3.685
 2131W        W70461  42.792  15.588  11.597
 2132W        W70462   7.304  19.227  12.094
 2133W        W70463  32.898  37.060   1.798
 2134W        W70464   2.424  38.880   3.701
 2135W        W70465  27.038  29.037   1.849
 2136W        W70466  15.600  43.859  12.387
 2137W        W70467  39.033  25.615  12.967
 2138W        W70468  38.381  13.752  13.308
 2139W        W70469  42.849  31.620  12.414
 2140W        W70470   9.870  38.328  11.104
 2141W        W70471  38.353   2.785  13.035
 2142W        W70472   7.365  28.615   3.734
 2143W        W70473  40.548  10.149   4.769
 2144W        W70474   6.793   5.873   3.837
 2145W        W70475  35.958  42.327   3.233
 2146W        W70476   3.351  35.584   5.173
 2147W        W70477   6.777   0.957  10.497
 2148W        W70478  35.524  22.672  13.016
 2149W        W70479  12.244   9.884  10.596
 2150W        W70480  23.030   8.878  14.488
 2151W        W70481   9.248  19.709  13.865
 2152W        W70482  43.318  43.408   0.464
 2153W        W70483  37.020  21.137   4.772
 2154W        W70484  43.935  13.205   4.821
 2155W        W70485   5.220  40.516   3.162
 2156W        W70486  43.858  22.152  14.399
 2157W        W70487   5.911  44.845  11.607
 2158W        W70488  14.681  37.049  14.480
 2159W        W70489  16.741  14.198  12.918
 2160W        W70490  26.563   3.762  14.925
 2161W        W70491  38.896  12.323   3.296
 2162W        W70492  19.637   7.258  11.930
 2163W        W70493   3.379  16.710   2.707
 2164W        W70494  44.452  19.638   4.764
 2165W        W70495  33.408  40.983  13.458
 2166W        W70496   1.741  39.839   4.332
 2167W        W70497  31.010  35.988   4.151
 2168W        W70498  16.797  19.580   3.252
 2169W        W70499  11.790  36.515   2.744
 2170W        W70500  12.207   3.393  14.966
 2171W        W70501  22.704  28.974  14.924
 2172W        W70502  28.639  26.145   4.301
 2173W        W70503  33.940  39.416   2.872
 2174W        W70504  36.431  13.308  14.315
 2175W        W70505  29.556  21.250  11.875
 2176W        W70506  44.842  35.073   2.668
 2177W        W70507  40.000  17.708   0.303
 2178W        W70508   1.910  22.090   0.413
 2179W        W70509  13.769  37.879   3.656
 2180W        W70510  11.724  44.959  11.458
 2181W        W70511  17.593   1.345   2.187
 2182W        W70512  13.324  39.359   1.383
 2183W        W70513  19.064  21.706  12.377
 2184W        W70514  16.648   2.430  11.477
 2185W        W70515  30.067  29.486  14.469
 2186W        W70516  32.439   1.414  11.058
 2187W        W70517  42.804  24.525   3.864
 2188W        W70518   3.375  17.111   4.749
 2189W        W70519   4.894   0.368  10.043
 2190W        W70520  11.336  36.571  11.959
 2191W        W70521  23.089  15.224   1.252
 2192W        W70522  34.409  43.359  13.933
 2193W        W70523  32.406   8.760   3.183
 2194W        W70524  17.111  33.041  14.870
 2195W        W70525   6.215  40.547  10.642
 2196W        W70526   0.486  25.007  14.010
 2197W        W70527  12.334  17.075   4.354
 2198W        W70528  30.642  14.245  11.428
 2199W        W70529  25.000  12.721   1.264
 2200W        W70530  37.833   9.163   2.206
 2201W        W70531  24.042  35.599  13.408
 2202W        W70532  17.592  43.342  14.813
 2203W        W70533  12.131  26.162   1.851
 2204W        W70534  30.591  14.238   1.373
 2205W        W70535  16.145  38.872  14.325
 2206W        W70536  43.407  35.485   4.700
 2207W        W70537  23.499  14.301   3.242
 2208W        W70538   3.906  31.526   4.616
 2209W        W70539  43.450  34.949  11.953
 2210W        W70540  34.979   4.799   3.781
 2211W        W70541   5.818  22.059  13.061
 2212W        W70542  38.073  43.970   0.307
 2213W        W70543  44.435  32.469  14.898
 2214W        W70544  23.001  18.292   9.588
 2215W        W70545  19.715   0.328  13.837
 2216W        W70546  18.264   4.247  10.942
 2217W        W70547  15.199  23.609   2.804
 2218W        W70548  11.232  35.852  12.082
 2219W        W70549   4.865   9.681   2.706
 2220W        W70550  19.609  11.269  12.969
 2221W        W70551  27.620  36.924  11.512
 2222W        W70552  28.112  10.189   1.732
 2223W        W70553  17.662  22.608  10.416
 2224W        W70554   1.338  41.363   3.633
 2225W        W70555  35.901  14.100  11.498
 2226W        W70556   7.350  43.412   1.924
 2227W        W70557  11.242  41.933   2.889
 2228W        W70558   4.811  18.295  12.001
 2229W        W70559  33.428  42.394  11.019
 2230W        W70560  28.553  33.445   2.891
 2231W        W70561   3.397  41.828   3.843
 2232W        W70562  40.457  25.555   1.793
 2233W        W70563  12.857  25.469   3.164
 2234W        W70564  30.953  39.991  14.396
 2235W        W70565  15.644  26.563   2.178
 2236W        W70566  15.124  32.898  11.461
 2237W        W70567  31.138  23.223  12.394
 2238W        W70568  11.788  24.217   0.387
 2239W        W70569  14.260  24.518  11.384
 2240W        W70570   2.724  15.138   0.802
 2241W        W70571  44.793  25.064  12.461
 2242W        W70572  38.058  26.510  12.934
 2243W        W70573   3.285  42.016   2.281
 2244W        W70574  39.872  23.090  12.491
 2245W        W70575  35.439  40.050  12.846
 2246W        W70576  31.975   5.309  12.440
 2247W        W70577  14.241  13.108   3.741
 2248W        W70578  25.167  21.616   1.277
 2249W        W70579   7.867  30.414   0.888
 2250W        W70580  35.018   8.860  14.003
 2251W        W70581   3.299  35.912   3.709
 2252W        W70582  13.711  30.560   2.794
 2253W        W70583  39.534  13.129   3.343
 2254W        W70584  18.595  36.541  14.960
 2255W        W70585  13.162   5.923  11.416
 2256W        W70586  24.189  34.423   1.727
 2257W        W70587   7.876  16.650  13.311
 2258W        W70588  36.544  20.562   0.929
 2259W        W70589  18.711   8.830   3.639
 2260W        W70590  31.948  20.044   0.850
 2261W        W70591  43.780  23.232  12.475
 2262W        W70592  16.233   6.388   1.385
 2263W        W70593  31.023  31.522  10.409
 2264W        W70594   9.215   9.754   4.299
 2265W        W70595  41.809  22.650   0.779
 2266W        W70596  31.076  13.131  14.374
 2267W        W70597   8.751  21.747   1.934
 2268W        W70598  43.856  10.862  13.038
 2269W        W70599   8.233  12.214  12.574
 2270W        W70600  27.015  21.545  12.020
 2271W        W70601  29.469  17.188  10.927
 2272W        W70602   1.476  23.520  14.777
 2273W        W70603  24.545   1.360   2.279
 2274W        W70604  23.024  36.060  11.485
 2275W        W70605  23.515  33.879  13.476
 2276W        W70606  24.111  31.515   0.344
 2277W        W70607  14.334  15.823   1.724
 2278W        W70608  12.664  24.684   1.220
 2279W        W70609   4.758  42.458   3.829
 2280W        W70610  28.941  17.236   2.871
 2281W        W70611  29.104  16.243   2.869
 2282W        W70612  36.841   9.742  12.446
 2283W        W70613   7.178  36.540  13.893
 2284W        W70614  17.282  44.765  14.311
 2285W        W70615  15.657  38.941   3.847
 2286W        W70616   0.814  35.471  12.940
 2287W        W70617   3.865  39.858  13.032
 2288W        W70618  19.729   7.820   2.734
 2289W        W70619  43.382   8.291   0.965
 2290W        W70620  44.864   5.690   4.688
 2291W        W70621  43.486   4.767   0.282
 2292W        W70622  11.659   7.260   0.244
 2293W        W70623  26.040   9.311   1.260
 2294W        W70624  44.464   3.753  12.938
 2295W        W70625  20.572  24.690   1.265
 2296W        W70626  10.277  24.528  14.298
 2297W        W70627  43.439   0.474   0.340
 2298W        W70628   1.929  19.223  11.449
 2299W        W70629  37.444   9.706   2.268
 2300W        W70630  29.654  36.964   1.374
 2301W        W70631   3.251  21.106   2.790
 2302W        W70632  15.193   5.434   4.192
 2303W        W70633  10.857   2.751  14.445
 2304W        W70634  23.048  13.168   0.765
 2305W        W70635  17.190   5.770  10.455
 2306W        W70636  23.051  12.248  11.859
 2307W        W70637  12.260  27.191   2.831
 2308W        W70638  39.851  27.650   2.288
 2309W        W70639   4.729  14.094  11.121
 2310W        W70640  33.549  39.835  10.482
 2311W        W70641  37.545  10.864  14.966
 2312W        W70642  32.925  37.040  13.406
 2313W        W70643  34.382  44.485  13.524
 2314W        W70644  43.004   8.836   5.208
 2315W        W70645  25.009  36.936   3.214
 2316W        W70646  18.269  30.440  14.309
 2317W        W70647  37.565  26.692   1.732
 2318W        W70648   3.777   2.240   3.270
 2319W        W70649  29.561  31.494   5.624
 2320W        W70650  33.437  20.197   0.398
 2321W        W70651  22.594  33.909   0.423
 2322W        W70652  22.563  12.829   1.409
 2323W        W70653  18.628  34.515  10.960
 2324W        W70654   0.458  22.085   4.348
 2325W        W70655  26.618  43.800   0.808
 2326W        W70656  28.058   6.828  14.463
 2327W        W70657  18.760  20.528   1.697
 2328W        W70658  26.642  37.558  14.376
 2329W        W70659  44.819   5.905   4.202
 2330W        W70660  42.320  40.807   4.820
 2331W        W70661  33.059  38.040  14.906
 2332W        W70662  30.103  33.567  11.959
 2333W        W70663  44.259  28.494   1.405
 2334W        W70664  43.789  32.440  14.842
 2335W        W70665   1.899  25.646   3.774
 2336W        W70666  16.149  25.015   3.787
 2337W        W70667  38.004   6.799  10.010
 2338W        W70668  10.871  15.769   1.700
 2339W        W70669  36.961  27.131   4.312
 2340W        W70670  11.657   0.873  13.030
 2341W        W70671   0.780   3.740  12.342
 2342W        W70672  20.647  27.979  10.916
 2343W        W70673  28.640  39.054  11.103
 2344W        W70674   7.674  37.378   4.689
 2345W        W70675  36.353  34.414   2.723
 2346W        W70676  31.522  22.706  12.538
 2347W        W70677  16.094  36.358   3.347
 2348W        W70678   7.199  10.718  13.948
 2349W        W70679  31.145  23.666   4.772
 2350W        W70680  12.825  18.087   0.730
 2351W        W70681  38.342   2.722  11.038
 2352W        W70682  18.224  27.944  13.511
 2353W        W70683  19.747  33.407   2.371
 2354W        W70684  16.205   3.844   3.210
 2355W        W70685  33.885  18.695  13.412
 2356W        W70686  30.136  25.602  13.862
 2357W        W70687  27.528  42.996   1.346
 2358W        W70688  30.007  22.515   2.353
 2359W        W70689   6.834  27.620   2.812
 2360W        W70690  33.040  27.687  10.590
 2361W        W70691  19.189  16.704   0.941
 2362W        W70692   3.772  22.105   1.443
 2363W        W70693   5.716  19.724  10.550
 2364W        W70694  34.429  27.520  10.567
 2365W        W70695  34.946  42.409   3.353
 2366W        W70696  37.953  14.815   1.798
 2367W        W70697  42.799  37.051  14.860
 2368W        W70698  28.439   1.925   4.684
 2369W        W70699  14.297  17.722  12.533
 2370W        W70700  12.193   7.739  14.443
 2371W        W70701  30.523  15.718   4.800
 2372W        W70702  11.271  13.653   2.824
 2373W        W70703  36.543  26.140   4.832
 2374W        W70704   3.721  19.175   3.321
 2375W        W70705  15.268  32.529  11.939
 2376W        W70706  12.274   5.689   1.356
 2377W        W70707  13.347  22.133   4.806
 2378W        W70708   1.245  39.893  11.522
 2379W        W70709  29.547  41.326  11.474
 2380W        W70710   0.938  11.234  12.038
 2381W        W70711   6.919  41.355  11.445
 2382W        W70712  13.224   6.845  12.946
 2383W        W70713  15.238   2.361   1.242
 2384W        W70714  14.742  37.523  12.053
 2385W        W70715  37.556   1.423  10.405
 2386W        W70716  33.569  23.502  13.417
 2387W        W70717  27.670  17.284  13.526
 2388W        W70718   3.426  41.831  11.402
 2389W        W70719  16.280  21.670   3.644
 2390W        W70720  33.035  21.537  13.795
 2391W        W70721  30.098   4.734   1.769
 2392W        W70722  32.080  14.126  14.852
 2393W        W70723  27.095  25.066  13.852
 2394W        W70724  12.683  18.776  14.808
 2395W        W70725   2.933  30.157   1.813
 2396W        W70726   3.301   6.883   3.844
 2397W        W70727  37.518   3.340   2.214
 2398W        W70728  26.192   0.480  11.093
 2399W        W70729  38.549  43.797  13.993
 2400W        W70730  43.504  35.006  13.442
 2401W        W70731   7.806  35.389   1.233
 2402W        W70732  41.512  19.065   1.300
 2403W        W70733   2.426  40.426   0.786
 2404W        W70734  34.522  25.674   1.811
 2405W        W70735  32.138  37.926  11.890
 2406W        W70736  11.290  30.156  11.590
 2407W        W70737   2.867   4.848  14.870
 2408W        W70738  37.534  29.073  12.490
 2409W        W70739  35.578  27.476  12.015
 2410W        W70740  32.903  42.358  11.016
 2411W        W70741  27.560  18.761   0.362
 2412W        W70742  28.081  13.321   2.791
 2413W        W70743   8.707  11.836  10.544
 2414W        W70744   0.963  44.409  10.462
 2415W        W70745   0.458   2.785  14.985
 2416W        W70746   0.284  40.326   4.284
 2417W        W70747  10.635  20.604  11.590
 2418W        W70748  10.679  26.647  10.902
 2419W        W70749  43.292  12.170   2.203
 2420W        W70750  32.606  29.033   0.908
 2421W        W70751  35.993  11.240  11.570
 2422W        W70752  14.185  24.614   0.254
 2423W        W70753   8.808  38.972  14.325
 2424W        W70754  24.617  25.115  11.024
 2425W        W70755   1.249  37.848  11.065
 2426W        W70756   7.870  11.635   4.681
 2427W        W70757  11.747  20.216  14.965
 2428W        W70758   9.787  16.704   2.889
 2429W        W70759  28.640   2.467   1.871
 2430W        W70760   3.914  44.908  12.505
 2431W        W70761   9.854  42.434   0.802
 2432W        W70762   3.884  35.465  14.342
 2433W        W70763   0.955  39.503   0.346
 2434W        W70764  40.447   7.847   0.307
 2435W        W70765  31.465  14.109  14.505
 2436W        W70766  25.138  18.560   4.203
 2437W        W70767  27.985  22.239   1.774
 2438W        W70768  32.602  23.007   3.660
 2439W        W70769   5.412  10.345  12.501
 2440W        W70770  16.175  41.016   2.741
 2441W        W70771  24.671   3.374   4.774
 2442W        W70772  23.698  16.762  13.812
 2443W        W70773   2.917  10.720  12.544
 2444W        W70774  33.411  39.402   4.742
 2445W        W70775  42.956  42.967  13.927
 2446W        W70776  21.199   6.696   3.742
 2447W        W70777  27.608  20.273  14.487
 2448W        W70778   8.756   1.401  12.892
 2449W        W70779  29.549  23.057  11.577
 2450W        W70780  41.315  38.501   0.298
 2451W        W70781  12.660  13.117   4.754
 2452W        W70782  31.424   6.401  13.519
 2453W        W70783   5.439  31.630   3.358
 2454W        W70784  12.752  10.759  10.430
 2455W        W70785  41.420  29.168  10.475
 2456W        W70786  43.009  31.070  12.501
 2457W        W70787  30.430  33.537  14.414
 2458W        W70788  28.101  21.711  12.977
 2459W        W70789   5.317  23.736   2.809
 2460W        W70790  39.818   8.825  12.506
 2461W        W70791  10.824  16.223   2.888
 2462W        W70792  42.512  20.087  14.457
 2463W        W70793  31.098  32.125  13.533
 2464W        W70794  36.383  33.536   4.269
 2465W        W70795  29.484  38.334   3.380
 2466W        W70796  15.270  27.155  13.419
 2467W        W70797   0.331   4.772  10.459
 2468W        W70798   9.202   1.862  13.831
 2469W        W70799  24.610  27.611  10.940
 2470W        W70800  24.213  36.056  13.007
 2471W        W70801   0.378  31.534  13.419
 2472W        W70802  22.663  33.897   1.849
 2473W        W70803   2.761  23.134  14.985
 2474W        W70804   0.821  13.783   1.264
 2475W        W70805  26.627  38.490  13.468
 2476W        W70806  34.600  15.249   2.709
 2477W        W70807  41.433  10.144  11.004
 2478W        W70808  23.654  30.080   4.243
 2479W        W70809  31.132  33.451   1.378
 2480W        W70810  42.379   4.816   5.112
 2481W        W70811  38.029  29.593   0.267
 2482W        W70812  27.977  22.204  10.412
 2483W        W70813  42.981  18.273   4.190
 2484W        W70814   6.720  28.153   0.953
 2485W        W70815  20.162  25.625  11.098
 2486W        W70816  21.655  26.520  14.419
 2487W        W70817  36.940  43.432  11.968
 2488W        W70818  21.211  14.118   4.345
 2489W        W70819  36.921  37.924  13.019
 2490W        W70820  37.904   2.881   0.257
 2491W        W70821  37.407  13.668   3.335
 2492W        W70822  30.964   8.726   4.659
 2493W        W70823  44.363  40.807  13.335
 2494W        W70824  18.713  44.283  14.863
 2495W        W70825  15.244  44.502   3.756
 2496W        W70826  44.502  19.616  12.961
 2497W        W70827   3.420  11.843  12.865
 2498W        W70828  26.686  11.689   3.715
 2499W        W70829   5.827   0.823  10.512
 2500W        W70830  10.319   0.286   1.718
 2501W        W70831  35.576  13.226   2.738
 2502W        W70832  22.510  22.531  14.426
 2503W        W70833  19.594  24.714  11.093
 2504W        W70834  35.440   8.280   1.861
 2505W        W70835   5.753  31.589  12.358
 2506W        W70836   7.200  31.967  12.484
 2507W        W70837  43.450  25.009   1.289
 2508W        W70838  29.446  27.050  12.856
 2509W        W70839  15.614  17.128  13.811
 2510W        W70840  17.632  29.638  12.346
 2511W        W70841  19.199  31.054   0.297
 2512W        W70842   5.213   6.690   1.428
 2513W        W70843  41.963  17.775  13.366
 2514W        W70844  42.837   0.779  14.870
 2515W        W70845  32.603  10.380   0.840
 2516W        W70846  39.031  41.792   3.333
 2517W        W70847  30.601  15.216  13.401
 2518W        W70848   1.453   7.314  14.278
 2519W        W70849  26.158   5.423  13.374
 2520W        W70850  14.667  31.494  13.960
 2521W        W70851  10.730  40.943   1.855
 2522W        W70852   6.699   3.848   3.216
 2523W        W70853   5.402  38.890  14.995
 2524W        W70854  26.142  11.697  13.802
 2525W        W70855  22.536  20.241  14.810
 2526W        W70856  38.454  28.541   2.831
 2527W        W70857  21.063  26.095   3.272
 2528W        W70858  31.457  28.583   1.312
 2529W        W70859   7.846   8.196   4.645
 2530W        W70860   7.892  27.979  12.474
 2531W        W70861  23.530  44.993   2.783
 2532W        W70862   3.932  23.128   3.745
 2533W        W70863   9.877  16.583   4.730
 2534W        W70864  13.699   3.361   4.222
 2535W        W70865   2.926  15.142   0.448
 2536W        W70866   2.837  14.625   3.639
 2537W        W70867   1.789  34.403  11.406
 2538W        W70868   9.387  20.272  12.008
 2539W        W70869  34.973   0.824  12.516
 2540W        W70870  44.335  33.084   3.347
 2541W        W70871   1.325  13.831   1.299
 2542W        W70872  15.220  13.635   4.671
 2543W        W70873  35.955  21.650  11.978
 2544W        W70874  28.479  15.770  13.385
 2545W        W70875  29.981   9.767   0.440
 2546W        W70876  28.076  18.268   5.220
 2547W        W70877  27.020  20.592  11.964
 2548W        W70878   3.902  25.704   1.341
 2549W        W70879  14.328  31.580   3.181
 2550W        W70880  38.048  27.590   1.398
 2551W        W70881  23.202  11.146   4.634
 2552W        W70882  10.342  15.147   3.207
 2553W        W70883   3.723  32.473   1.451
 2554W        W70884  22.554  39.360  12.476
 2555W        W70885   9.264   0.967   4.769
 2556W        W70886  28.091  11.718  13.811
 2557W        W70887  22.016  26.991  14.467
 2558W        W70888  11.673  15.704  13.968
 2559W        W70889   7.767  32.925   2.246
 2560W        W70890  24.623  41.857  14.909
 2561W        W70891  16.634  23.032  13.517
 2562W        W70892  10.729   5.907   4.631
 2563W        W70893  22.556   7.293  13.038
 2564W        W70894  12.282   3.952   4.235
 2565W        W70895  43.789  18.126  12.506
 2566W        W70896  18.711  37.499   0.336
 2567W        W70897  15.587  42.803   1.372
 2568W        W70898  31.051  14.615  14.338
 2569W        W70899  20.572  28.613  12.021
 2570W        W70900  43.974  43.498   4.704
 2571W        W70901   3.884  12.645   0.410
 2572W        W70902  33.978  41.966   4.636
 2573W        W70903  15.649  35.394  13.997
 2574W        W70904  29.061   8.398   2.197
 2575W        W70905   7.855   9.676  13.886
 2576W        W70906  20.524  28.929  13.940
 2577W        W70907  10.844   5.702  13.932
 2578W        W70908  40.466  43.476   4.269
 2579W        W70909  41.381  21.729   3.152
 2580W        W70910  25.617  37.021  10.634
 2581W        W70911  34.916  22.726   0.257
 2582W        W70912  34.897   7.820  11.919
 2583W        W70913   6.775  33.534  13.339
 2584W        W70914  30.420  39.035   2.366
 2585W        W70915  39.552  23.176   0.334
 2586W        W70916   0.435  19.551  10.943
 2587W        W70917  16.722   5.280  14.955
 2588W        W70918  23.648  36.890  13.953
 2589W        W70919  26.076  31.545   4.158
 2590W        W70920  41.333  29.583   3.333
 2591W        W70921  36.572  30.560  12.096
 2592W        W70922  12.727  32.557  11.475
 2593W        W70923   2.384   0.801   0.897
 2594W        W70924  44.391   3.908   4.701
 2595W        W70925  23.725   0.983   3.743
 2596W        W70926   6.223  19.050   0.274
 2597W        W70927  28.588   6.408   2.668
 2598W        W70928   8.380  36.885  14.333
 2599W        W70929  31.979  41.797  14.511
 2600W        W70930  11.326  17.563   1.438
 2601W        W70931  43.513  38.842   3.637
 2602W        W70932  11.179  17.713   0.356
 2603W        W70933  24.611  18.659   1.259
 2604W        W70934  18.580  12.783  14.781
 2605W        W70935  44.792   2.377  11.593
 2606W        W70936  35.940  16.149   0.266
 2607W        W70937  16.751  19.135  10.931
 2608W        W70938  42.789  10.852   3.249
 2609W        W70939   5.790  17.691  12.074
 2610W        W70940   3.930  30.501  11.973
 2611W        W70941  26.000  42.353   2.217
 2612W        W70942  40.532  11.153  11.444
 2613W        W70943  16.755   9.258  11.592
 2614W        W70944  23.639  12.312  11.600
 2615W        W70945  27.473  22.565   1.370
 2616W        W70946  43.991   7.336   3.810
 2617W        W70947  40.430  24.033  13.443
 2618W        W70948  39.438   0.937   0.339
 2619W        W70949  35.541  18.260   0.438
 2620W        W70950  42.525  33.480   4.669
 2621W        W70951  28.133   2.759  14.359
 2622W        W70952  25.556  37.907   1.781
 2623W        W70953   3.336   9.358   2.712
 2624W        W70954  42.992  25.008  14.914
 2625W        W70955  43.793  39.944   4.114
 2626W        W70956   1.238  15.264   0.419
 2627W        W70957   4.779  32.544  10.434
 2628W        W70958  34.517  14.713   0.806
 2629W        W70959  34.578  26.689   3.710
 2630W        W70960  31.001   2.425  14.955
 2631W        W70961  11.692  18.193   3.837
 2632W        W70962  37.055  11.197   0.346
 2633W        W70963  11.743  20.760   4.211
 2634W        W70964  12.188  21.216  13.018
 2635W        W70965  32.080   2.737   3.753
 2636W        W70966  44.968   9.853   2.812
 2637W        W70967  17.703   8.703  13.897
 2638W        W70968  18.160  41.443   0.731
 2639W        W70969  36.903  28.491   2.326
 2640W        W70970  33.974  31.004  14.902
 2641W        W70971  19.149  34.121   3.185
 2642W        W70972   2.836   3.430   0.892
 2643W        W70973  44.389  37.914   4.802
 2644W        W70974  18.549  12.306   0.358
 2645W        W70975  25.139  24.491   1.792
 2646W        W70976  28.471  12.857  10.408
 2647W        W70977  22.664   8.786  13.054
 2648W        W70978  43.349  33.512  11.941
 2649W        W70979  34.101  14.676  13.800
 2650W        W70980  31.573  28.060   1.787
 2651W        W70981  44.287  18.564   1.830
 2652W        W70982  32.929  24.119   0.939
 2653W        W70983  15.251   9.681  14.837
 2654W        W70984  32.930  20.220  13.916
 2655W        W70985  33.014   6.364  12.968
 2656W        W70986  31.105   8.758   1.907
 2657W        W70987  26.528  42.338  11.435
 2658W        W70988   5.421  26.622   2.183
 2659W        W70989  27.525  17.177   2.765
 2660W        W70990  19.773  19.606   2.253
 2661W        W70991  18.282  10.694  13.368
 2662W        W70992  13.635   0.787  12.510
 2663W        W70993  15.805  19.205  11.530
 2664W        W70994  13.733  11.177  13.435
 2665W        W70995   4.381  19.628  12.068
 2666W        W70996  25.111   3.792   0.855
 2667W        W70997  34.077   6.206  12.074
 2668W        W70998  29.048  26.970  14.445
 2669W        W70999   6.365  11.349   3.203
 2670W        W71000  22.509  25.079  13.512
 2671W        W71001  32.005  44.861   4.302
 2672W        W71002  41.383  25.712  12.373
 2673W        W71003  23.129   3.721   0.302
 2674W        W71004  23.021  30.972  13.868
 2675W        W71005  27.998   2.794  14.770
 2676W        W71006  33.599  42.463   1.709
 2677W        W71007  27.691  21.557  13.036
 2678W        W71008  40.463  22.218   3.780
 2679W        W71009  28.158  20.050  11.934
 2680W        W71010  39.874  20.040   0.768
 2681W        W71011  26.556  31.577   4.211
 2682W        W71012  12.778   4.423   2.221
 2683W        W71013   1.238  27.449  11.077
 2684W        W71014  17.072  29.088  10.995
 2685W        W71015  21.246  40.957  10.994
 2686W        W71016  21.041  42.522  11.021
 2687W        W71017  21.554  30.657  11.921
 2688W        W71018   3.285   1.827   3.633
 2689W        W71019  15.781  20.635  12.005
 2690W        W71020  27.990  37.862  10.457
 2691W        W71021  21.141  15.623   5.225
 2692W        W71022  22.613  35.917   4.742
 2693W        W71023  12.306  38.568  14.371
 2694W        W71024  18.064  14.132   1.223
 2695W        W71025  19.194  12.842  13.465
 2696W        W71026  24.028  29.973   0.338
 2697W        W71027  19.097  24.022  14.911
 2698W        W71028   0.433   4.329   4.649
 2699W        W71029  23.587  11.867  12.531
 2700W        W71030   6.255  19.152   3.178
 2701W        W71031  26.166  40.505   4.632
 2702W        W71032  19.158  10.367  14.780
 2703W        W71033  44.982  20.141   4.691
 2704W        W71034  29.043   6.883   3.274
 2705W        W71035  26.702  37.520  12.022
 2706W        W71036  15.189   0.945  14.961
 2707W        W71037  22.196  16.172   1.426
 2708W        W71038  35.071  15.727   0.448
 2709W        W71039   0.331  18.289  13.366
 2710W        W71040  40.323  15.778   3.642
 2711W        W71041  35.971   3.285  10.143
 2712W        W71042   9.246  34.905  13.858
 2713W        W71043  29.090  22.572  11.127
 2714W        W71044  29.937  24.626  12.850
 2715W        W71045  42.348  44.867   2.225
 2716W        W71046  36.468   0.764   3.754
 2717W        W71047  44.838  39.857   1.818
 2718W        W71048  32.449  44.374   2.830
 2719W        W71049  44.817  29.126  10.530
 2720W        W71050  13.340   0.867   3.169
 2721W        W71051  20.096  27.482  14.458
 2722W        W71052   5.308  38.355   1.415
 2723W        W71053  41.448   4.394  13.472
 2724W        W71054  22.666  25.083  10.000
 2725W        W71055   2.273  24.125   0.783
 2726W        W71056   3.900  26.132  13.035
 2727W        W71057  38.069  25.492  14.886
 2728W        W71058  44.795  26.088   2.215
 2729W        W71059   5.245  16.162  12.876
 2730W        W71060  44.998   7.288  10.914
 2731W        W71061   4.911   7.214  10.052
 2732W        W71062   2.926  17.581  13.361
 2733W        W71063  31.409  36.504  13.945
 2734W        W71064  32.124  26.057   1.860
 2735W        W71065  33.032  32.575  10.641
 2736W        W71066  37.538  10.179   3.814
 2737W        W71067  34.425  12.766   2.749
 2738W        W71068  27.531  11.626  13.831
 2739W        W71069  16.710  32.618   1.325
 2740W        W71070  31.025  44.319   3.179
 2741W        W71071  18.545  34.901   1.364
 2742W        W71072  37.529  34.946  13.317
 2743W        W71073  41.518  35.012  11.593
 2744W        W71074   5.786  44.994   4.174
 2745W        W71075  40.545   4.210  14.428
 2746W        W71076  44.326   2.733  13.518
 2747W        W71077   6.314  37.071  13.975
 2748W        W71078   0.430   3.392   3.262
 2749W        W71079   7.360  14.214  13.978
 2750W        W71080   3.352  17.753   2.293
 2751W        W71081  28.530  42.810  10.493
 2752W        W71082  13.735  32.601  10.447
 2753W        W71083   8.297  25.620   0.955
 2754W        W71084  18.224  31.917  13.541
 2755W        W71085   3.941  10.155   0.923
 2756W        W71086  17.066  14.777   4.741
 2757W        W71087   3.330  40.456   1.397
 2758W        W71088   1.913   4.852   2.732
 2759W        W71089  20.231  10.726   0.734
 2760W        W71090  30.970  24.715  10.643
 2761W        W71091   4.401  19.678   2.224
 2762W        W71092   0.868  17.299  14.359
 2763W        W71093  38.014   5.419   1.383
 2764W        W71094  19.206   6.770   3.194
 2765W        W71095  35.602  37.979  13.937
 2766W        W71096   5.420   9.287  12.380
 2767W        W71097  17.297  11.841  14.854
 2768W        W71098  15.154  34.468   1.396
 2769W        W71099  35.049  10.341  12.871
 2770W        W71100  38.846   5.221   3.731
 2771W        W71101  11.840  39.393   0.469
 2772W        W71102  39.499  19.119   0.856
 2773W        W71103  41.898  43.861  14.277
 2774W        W71104  11.693  27.014   1.264
 2775W        W71105  37.572   5.263  12.021
 2776W        W71106  14.827  12.755  12.447
 2777W        W71107  11.822  31.994  11.462
 2778W        W71108   1.391   8.720   2.292
 2779W        W71109  34.528   5.884  10.551
 2780W        W71110  29.110  24.596   0.284
 2781W        W71111  37.501  35.015  14.908
 2782W        W71112  41.018  37.922  14.928
 2783W        W71113  22.724  34.410   0.824
 2784W        W71114   8.822   3.247  11.998
 2785W        W71115  43.782  34.564  11.122
 2786W        W71116  13.770  26.079  13.807
 2787W        W71117  24.695   3.301  13.452
 2788W        W71118  23.736  35.011   2.844
 2789W        W71119  26.033  24.681  13.388
 2790W        W71120  21.058   2.794  14.935
 2791W        W71121  43.282  33.047   1.349
 2792W        W71122  17.657  31.514  11.450
 2793W        W71123  40.045   6.680   4.150
 2794W        W71124  33.073  28.474  12.940
 2795W        W71125  28.519  11.321   5.675
 2796W        W71126  40.517   5.703  13.387
 2797W        W71127  21.750  28.601  14.759
 2798W        W71128  40.468   2.324   4.161
 2799W        W71129  14.683  43.361  11.405
 2800W        W71130  15.189  15.155  12.863
 2801W        W71131  13.619  14.104   2.851
 2802W        W71132  40.404  36.504   3.703
 2803W        W71133   2.324  23.110   3.294
 2804W        W71134  40.041  11.221  12.032
 2805W        W71135  29.114   7.693  11.998
 2806W        W71136  11.295   6.885  14.483
 2807W        W71137  26.952  41.471   0.363
 2808W        W71138  12.758   3.721  13.022
 2809W        W71139  28.623   3.382   1.811
 2810W        W71140  27.575  27.148   3.349
 2811W        W71141  19.127  29.593  13.968
 2812W        W71142  42.469  13.263  10.943
 2813W        W71143   4.802  38.372  10.139
 2814W        W71144  22.557  23.715   3.154
 2815W        W71145  24.643   3.246   1.309
 2816W        W71146  15.270  28.067   0.734
 2817W        W71147  36.579  41.937   1.392
 2818W        W71148  36.073  41.527   4.158
 2819W        W71149  17.680  14.258   0.872
 2820W        W71150  40.930  28.107   0.339
 2821W        W71151   9.886  18.160  11.913
 2822W        W71152  40.887  37.573  12.446
 2823W        W71153   1.834  19.152   4.131
 2824W        W71154  35.457  16.631  10.479
 2825W        W71155   7.718  22.185  13.486
 2826W        W71156   3.358  12.807   1.316
 2827W        W71157  36.413  27.171  13.354
 2828W        W71158  16.218  34.402  13.316
 2829W        W71159   3.780  44.397  11.583
 2830W        W71160   3.946   1.344  10.593
 2831W        W71161  18.649  29.954   4.341
 2832W        W71162  44.941   1.765  14.282
 2833W        W71163   8.758  15.289   1.723
 2834W        W71164  35.447   4.770   1.776
 2835W        W71165  41.348  37.035  13.358
 2836W        W71166  32.558  15.812  10.113
 2837W        W71167  22.743   9.657  10.927
 2838W        W71168   6.385  38.470  11.441
 2839W        W71169  30.599  34.564   1.275
 2840W        W71170  25.205  24.651  13.799
 2841W        W71171   1.345  27.555   2.723
 2842W        W71172  13.252   9.779  14.315
 2843W        W71173  30.135  13.258   2.332
 2844W        W71174  14.095  31.936   4.713
 2845W        W71175  14.822  43.897   4.646
 2846W        W71176   2.390  11.325  13.992
 2847W        W71177  26.667  31.464   5.135
 2848W        W71178  15.164  42.958  12.510
 2849W        W71179  34.378  17.620  14.778
 2850W        W71180  27.673  19.281   2.686
 2851W        W71181  31.047  17.082  10.928
 2852W        W71182  34.448  41.479   1.393
 2853W        W71183  20.673   6.896   1.375
 2854W        W71184  22.626  14.321   1.853
 2855W        W71185  34.495  36.984  10.544
 2856W        W71186  35.532  19.239  14.924
 2857W        W71187  33.471  25.535  13.517
 2858W        W71188   8.810  37.425   2.285
 2859W        W71189  30.033  19.159   1.232
 2860W        W71190   8.895   2.922  10.638
 2861W        W71191   9.875   9.250   3.798
 2862W        W71192  14.654  38.386   4.811
 2863W        W71193  10.366   5.357   3.644
 2864W        W71194  33.530   5.725  14.026
 2865W        W71195  20.073  14.249  11.430
 2866W        W71196   0.487  33.560   4.124
 2867W        W71197  29.939  17.726  10.452
 2868W        W71198  29.081   4.890   0.368
 2869W        W71199  23.086  36.547  12.964
 2870W        W71200  14.771  37.895  10.093
 2871W        W71201  39.486  18.711  11.404
 2872W        W71202  13.835  18.225   3.771
 2873W        W71203  32.036  32.021  13.863
 2874W        W71204  28.542   4.268   1.339
 2875W        W71205  10.820  32.621  11.922
 2876W        W71206  41.525  26.084  11.067
 2877W        W71207  10.844   4.807   1.376
 2878W        W71208  40.347  38.848  11.971
 2879W        W71209  31.580  26.584   1.330
 2880W        W71210  43.953  22.533   4.659
 2881W        W71211  16.726   8.887  11.591
 2882W        W71212  39.044  16.722   2.377
 2883W        W71213   2.457  17.669  11.535
 2884W        W71214  31.591   1.237   2.892
 2885W        W71215  35.859  18.547  12.553
 2886W        W71216  41.924  29.155  13.928
 2887W        W71217  41.936  20.563   3.836
 2888W        W71218  33.490  27.059  13.994
 2889W        W71219  42.414  32.438   2.735
 2890W        W71220   1.750   6.755   3.197
 2891W        W71221   5.720  33.893  13.865
 2892W        W71222  41.436  34.947  14.824
 2893W        W71223  10.295  39.964  10.593
 2894W        W71224  35.519   8.753   0.818
 2895W        W71225   9.850  20.092  13.542
 2896W        W71226  19.753   6.410   1.720
 2897W        W71227  12.153   5.824  13.865
 2898W        W71228  31.104  10.744   2.704
 2899W        W71229  26.997  33.081  11.869
 2900W        W71230  36.536   6.246   2.708
 2901W        W71231  30.651   1.932  12.514
 2902W        W71232   7.385  15.122  12.542
 2903W        W71233   2.904  34.097   4.686
 2904W        W71234   7.899  18.208  14.276
 2905W        W71235  32.948  11.697  12.965
 2906W        W71236  18.102   9.243   0.451
 2907W        W71237  18.124  15.241   3.669
 2908W        W71238  35.007  12.295   1.215
 2909W        W71239  24.668  13.351  12.976
 2910W        W71240  18.754   6.823  10.495
 2911W        W71241   4.872  26.145  11.046
 2912W        W71242  27.571   3.239  12.441
 2913W        W71243   2.317  24.625  10.567
 2914W        W71244  28.631  21.029   4.150
 2915W        W71245  39.412  43.432  14.935
 2916W        W71246  43.910  20.060  11.591
 2917W        W71247  22.602  26.143  12.942
 2918W        W71248  15.707  14.106  10.043
 2919W        W71249   9.209   4.260  13.796
 2920W        W71250  18.055  11.220   2.282
 2921W        W71251   2.751  31.502  11.393
 2922W        W71252  41.860  24.076  14.390
 2923W        W71253  14.172  22.668  13.011
 2924W        W71254   9.827  34.508  12.475
 2925W        W71255   3.769  30.933  13.046
 2926W        W71256  12.355   5.360   0.362
 2927W        W71257  31.962  35.456   1.739
 2928W        W71258  34.947  32.612   0.735
 2929W        W71259  19.567   9.223  12.495
 2930W        W71260  39.004   7.876   2.247
 2931W        W71261  37.554  14.261   3.663
 2932W        W71262  15.646  35.417  14.313
 2933W        W71263  34.595   6.323   0.765
 2934W        W71264  24.075  34.057   1.439
 2935W        W71265  16.726   8.367   1.881
 2936W        W71266  27.003  12.246  10.597
 2937W        W71267  43.453  32.568  14.499
 2938W        W71268  12.155  20.546  13.461
 2939W        W71269  39.527   4.244   0.812
 2940W        W71270   6.803  19.689  14.463
 2941W        W71271  27.631  27.648  12.873
 2942W        W71272  40.421  17.204   4.235
 2943W        W71273  17.254  10.348   1.397
 2944W        W71274   2.446   7.778  11.899
 2945W        W71275  26.178  41.864   0.257
 2946W        W71276  39.003  34.480  12.418
 2947W        W71277  34.019  15.694   2.894
 2948W        W71278  43.768  24.178  13.819
 2949W        W71279  33.046   1.421  12.345
 2950W        W71280   0.250  16.600  11.461
 2951W        W71281   7.305  38.505   4.232
 2952W        W71282   5.306   9.357   1.718
 2953W        W71283  23.627  13.131  10.910
 2954W        W71284  13.279   2.950  14.786
 2955W        W71285   8.179  20.556   3.649
 2956W        W71286  30.414  14.289   4.187
 2957W        W71287   8.901  14.639  13.484
 2958W        W71288  37.945  23.204  12.459
 2959W        W71289  22.627  32.945  12.002
 2960W        W71290  32.139  21.173   3.312
 2961W        W71291   2.412  19.732  10.587
 2962W        W71292  19.773   7.712   4.244
 2963W        W71293  24.074  22.563   1.832
 2964W        W71294  42.908  25.986  12.358
 2965W        W71295  24.132  23.167   2.669
 2966W        W71296   0.417  34.036   4.303
 2967W        W71297  20.746  36.089   1.255
 2968W        W71298  40.973  14.223   1.248
 2969W        W71299  26.057  10.848   3.334
 2970W        W71300   8.246  36.574  10.999
 2971W        W71301  32.008  23.723   1.440
 2972W        W71302  39.978  14.265  14.021
 2973W        W71303  13.618   9.257   1.820
 2974W        W71304  33.910   4.337  10.980
 2975W        W71305   0.260  22.135   3.236
 2976W        W71306  41.889   7.901   3.688
 2977W        W71307  37.578   2.949  14.785
 2978W        W71308  28.940   9.796   3.185
 2979W        W71309  26.621  15.207  10.117
 2980W        W71310  43.315   3.832  10.562
 2981W        W71311  25.550  38.530  12.923
 2982W        W71312   2.918  13.242  14.451
 2983W        W71313  26.511  18.162  11.859
 2984W        W71314   0.444  27.568   1.860
 2985W        W71315  22.145  42.972   3.343
 2986W        W71316  23.551  33.416   4.275
 2987W        W71317   5.873  36.920  12.408
 2988W        W71318  19.116   9.346   0.859
 2989W        W71319  17.563  28.152  14.856
 2990W        W71320  11.685  20.145  10.404
 2991W        W71321  35.395  15.691  13.808
 2992W        W71322  34.599  15.319   1.776
 2993W        W71323  17.160  34.095   1.912
 2994W        W71324  39.952  11.647  13.331
 2995W        W71325  43.347  16.649   0.343
 2996W        W71326  37.061   1.312   4.272
 2997W        W71327  27.983  22.636  12.830
 2998W        W71328  36.950  21.244   0.469
 2999W        W71329  21.089   4.369   4.271
 3000W        W71330  31.077  20.620   2.338
 3001W        W71331  42.908  13.687  13.352
 3002W        W71332  13.338   6.790  12.404
 3003W        W71333  35.389  20.136  14.361
 3004W        W71334   3.858  38.937  10.894
 3005W        W71335  12.156  29.054   4.771
 3006W        W71336   5.223   7.852  11.966
 3007W        W71337  32.494  36.458  11.569
 3008W        W71338   4.780  33.893   1.783
 3009W        W71339  11.214   4.779   3.842
 3010W        W71340  25.981  30.113  10.520
 3011W        W71341  36.366  42.863   4.791
 3012W        W71342   3.888  20.208  13.845
 3013W        W71343  28.179  11.841   4.678
 3014W        W71344  42.987   8.170  12.381
 3015W        W71345  25.162  15.789  13.326
 3016W        W71346  30.433  29.482  11.961
 3017W        W71347  39.829   2.912   3.295
 3018W        W71348  36.980   7.291  11.416
 3019W        W71349   8.370  14.699   3.336
 3020W        W71350  37.939  15.658  11.998
 3021W        W71351  21.171  31.580  12.558
 3022W        W71352  27.665   5.896  11.874
 3023W        W71353   8.773   1.410  10.490
 3024W        W71354  38.348  28.931  12.500
 3025W        W71355   3.333  22.188   3.738
 3026W        W71356   9.372   4.223  14.815
 3027W        W71357  18.647  39.338   2.764
 3028W        W71358  44.369  24.578   0.893
 3029W        W71359  35.365  22.015   0.805
 3030W        W71360  21.117  19.540   3.711
 3031W        W71361  44.866   7.827   2.743
 3032W        W71362  43.496  29.065   2.298
 3033W        W71363  12.305  40.979   3.632
 3034W        W71364  18.087  16.566   4.291
 3035W        W71365  26.994  42.428   3.299
 3036W        W71366   6.869   6.327   1.365
 3037W        W71367  12.227   9.317   3.363
 3038W        W71368  36.069  15.252   1.318
 3039W        W71369   4.761  12.220  11.542
 3040W        W71370   2.819  22.995  12.086
 3041W        W71371  12.724   5.928  10.450
 3042W        W71372  36.957  37.490  13.530
 3043W        W71373  43.427  27.183   0.389
 3044W        W71374  31.018  31.405  13.509
 3045W        W71375  30.614  36.934   3.364
 3046W        W71376   7.769  16.653  11.550
 3047W        W71377  14.124  35.977  13.929
 3048W        W71378  41.820   1.284  11.447
 3049W        W71379  18.212   5.849   2.693
 3050W        W71380  22.112  18.224   4.798
 3051W        W71381  37.909  25.109   2.772
 3052W        W71382  37.528  10.220   4.648
 3053W        W71383  33.606   9.758   3.320
 3054W        W71384  43.839  39.812   2.704
 3055W        W71385   1.770  28.673  14.415
 3056W        W71386  42.893  39.952   4.660
 3057W        W71387  37.016  38.876  12.840
 3058W        W71388  39.454  13.677  11.916
 3059W        W71389  21.030   9.691   0.954
 3060W        W71390   6.234  35.857   2.272
 3061W        W71391  34.112  31.592   2.315
 3062W        W71392  39.873   6.872   2.837
 3063W        W71393  41.037  12.214   3.239
 3064W        W71394  32.973  33.880   2.376
 3065W        W71395  28.950  21.104  12.032
 3066W        W71396  21.262  14.810  11.509
 3067W        W71397  22.504  42.473   3.680
 3068W        W71398  28.455  34.924  13.997
 3069W        W71399  16.590  17.268  12.948
 3070W        W71400  29.667  15.135  10.538
 3071W        W71401   9.232   8.772  13.006
 3072W        W71402  28.161   0.438  12.049
 3073W        W71403  26.151  40.377   2.394
 3074W        W71404  29.463   7.223  14.913
 3075W        W71405  23.661   1.842  10.536
 3076W        W71406  11.756  13.621   0.440
 3077W        W71407  35.858  26.464   0.914
 3078W        W71408  11.339  37.853  10.628
 3079W        W71409  27.512   3.944   2.352
 3080W        W71410  10.173  36.923  11.096
 3081W        W71411  17.286  32.510   0.336
 3082W        W71412  31.039  22.090   4.160
 3083W        W71413  43.304   1.866  10.115
 3084W        W71414   7.908  41.365  10.967
 3085W        W71415   5.864  10.228  11.989
 3086W        W71416  15.652  44.891  14.458
 3087W        W71417  38.444  28.642  14.801
 3088W        W71418  15.669  29.989  12.373
 3089W        W71419  44.388  32.505  14.451
 3090W        W71420  12.307  32.473  11.938
 3091W        W71421  24.020   1.763  14.810
 3092W        W71422  12.724  31.071   1.309
 3093W        W71423  18.053  37.411  14.402
 3094W        W71424   3.407   5.744  11.983
 3095W        W71425   1.907  42.831  12.907
 3096W        W71426  35.548   2.337  10.424
 3097W        W71427  30.593  41.339   3.256
 3098W        W71428  18.765  13.250   5.321
 3099W        W71429  18.186  44.293   1.746
 3100W        W71430  40.000  22.509  12.091
 3101W        W71431  35.009   5.407  12.343
 3102W        W71432  17.639  39.867   0.962
 3103W        W71433  15.122   7.811   0.294
 3104W        W71434  23.651   4.773   3.667
 3105W        W71435  41.530   4.854   2.193
 3106W        W71436   9.386  38.987  14.284
 3107W        W71437  25.588  37.959   0.762
 3108W        W71438  14.703  35.574  13.906
 3109W        W71439   2.331  19.188   4.727
 3110W        W71440  24.009  20.203   2.713
 3111W        W71441  24.685  22.078   0.284
 3112W        W71442  37.387  19.261  13.915
 3113W        W71443   2.254  21.097  10.075
 3114W        W71444  33.082   8.878  12.473
 3115W        W71445  22.674  34.877  11.530
 3116W        W71446  28.971  13.608   0.373
 3117W        W71447  29.171  32.987   4.718
 3118W        W71448  19.164  16.727  12.409
 3119W        W71449  33.614  21.663  12.445
 3120W        W71450  39.922  36.443   2.318
 3121W        W71451  41.444  28.449  11.385
 3122W        W71452  40.032  43.379  14.455
 3123W        W71453  35.062   0.446   3.716
 3124W        W71454  20.048   3.878   0.390
 3125W        W71455  43.516   6.260   0.730
 3126W        W71456   0.751  20.577  13.314
 3127W        W71457  43.282  14.135  14.459
 3128W        W71458  41.507   2.258  10.534
 3129W        W71459  39.370  14.716  12.480
 3130W        W71460  34.438  38.961   1.352
 3131W        W71461  21.180  22.054  12.475
 3132W        W71462   4.324  39.548  14.869
 3133W        W71463  27.041  34.972  10.896
 3134W        W71464   1.748  15.622   2.326
 3135W        W71465  20.155   5.774   0.337
 3136W        W71466   4.437  33.111  12.538
 3137W        W71467   5.222  43.514  11.444
 3138W        W71468  16.625   9.215   2.205
 3139W        W71469   0.272  41.936   4.126
 3140W        W71470  28.932  26.606  14.402
 3141W        W71471  36.575  30.046   0.301
 3142W        W71472  11.292   2.867   1.340
 3143W        W71473   8.397  34.458   1.857
 3144W        W71474   7.720  21.644   1.805
 3145W        W71475  32.097  39.976  13.497
 3146W        W71476  17.748  36.484  10.439
 3147W        W71477  38.054  29.634   0.960
 3148W        W71478  19.184  37.010   3.312
 3149W        W71479  38.404   7.307   0.284
 3150W        W71480  19.106   1.754  13.504
 3151W        W71481   5.869  33.473   3.322
 3152W        W71482  18.727  38.898   2.277
 3153W        W71483   8.326  38.880   0.774
 3154W        W71484  39.033   8.836  11.120
 3155W        W71485   4.227  30.142   3.301
 3156W        W71486  17.171  24.187   0.261
 3157W        W71487  17.266  26.468  10.122
 3158W        W71488  41.844  26.621  12.451
 3159W        W71489  30.161  22.642   1.227
 3160W        W71490  37.059  10.641  10.987
 3161W        W71491  38.018   2.871  14.903
 3162W        W71492   7.335  38.077   4.659
 3163W        W71493   9.787   4.910  13.504
 3164W        W71494  38.041   8.723  11.550
 3165W        W71495  39.987  31.413   2.197
 3166W        W71496  33.061   4.769   2.748
 3167W        W71497  27.123  41.016  12.565
 3168W        W71498  17.768   1.859   2.746
 3169W        W71499  23.017   9.302   4.761
 3170W        W71500  17.733  18.203  14.337
 3171W        W71501   4.753  29.483   3.706
 3172W        W71502  32.974  43.502   3.346
 3173W        W71503  23.140  12.809   3.355
 3174W        W71504   7.841  22.997  14.416
 3175W        W71505  39.475  17.589   0.413
 3176W        W71506  17.584  31.990   2.189
 3177W        W71507  43.354  24.224   1.857
 3178W        W71508  24.988  10.165  13.326
 3179W        W71509  14.590  12.271  14.397
 3180W        W71510   9.170  31.529   1.707
 3181W        W71511  32.930   3.747   4.788
 3182W        W71512   5.238  28.027   2.826
 3183W        W71513  24.484  28.164  12.928
 3184W        W71514  31.479  21.721   3.169
 3185W        W71515   1.413  23.725  10.965
 3186W        W71516  41.841  32.031   3.187
 3187W        W71517  30.432  23.596   2.803
 3188W        W71518  20.038   5.861  14.898
 3189W        W71519  10.175  19.711   3.661
 3190W        W71520  31.967  41.013   1.313
 3191W        W71521  41.449  10.779  11.606
 3192W        W71522   7.735  12.322  13.525
 3193W        W71523   9.164  34.396  12.942
 3194W        W71524   2.936  33.060   1.374
 3195W        W71525  19.602  42.458  11.899
 3196W        W71526  12.172  24.196  12.904
 3197W        W71527  40.896  24.084  13.896
 3198W        W71528  13.265   4.353   3.724
 3199W        W71529  39.409  35.876   0.822
 3200W        W71530  15.667  42.286   1.874
 3201W        W71531  17.595  25.153  13.475
 3202W        W71532  25.632  42.298  14.473
 3203W        W71533  34.872  38.916  12.398
 3204W        W71534  28.514  38.835   3.250
 3205W        W71535  11.170   8.366  10.454
 3206W        W71536   3.372  21.713  12.547
 3207W        W71537  32.601   9.394   3.668
 3208W        W71538  12.182  32.024  13.532
 3209W        W71539  14.281   0.875  12.461
 3210W        W71540  13.157  25.521   0.277
 3211W        W71541  13.821  41.979   0.966
 3212W        W71542   9.183  17.107   3.863
 3213W        W71543  14.695  20.705  12.350
 3214W        W71544  33.439  19.094   1.898
 3215W        W71545  35.029  30.082   3.189
 3216W        W71546   5.868  26.040   4.629
 3217W        W71547  18.078  18.562   1.250
 3218W        W71548  42.792  15.198  12.082
 3219W        W71549  37.350  16.275   0.471
 3220W        W71550  27.582  36.980  12.881
 3221W        W71551  40.494  15.639  12.055
 3222W        W71552  13.655  37.936  14.950
 3223W        W71553  30.145  26.630   1.707
 3224W        W71554  28.469   7.237  12.471
 3225W        W71555  21.539   0.267   4.625
 3226W        W71556  13.265  28.140  12.876
 3227W        W71557  24.114  11.802  13.344
 3228W        W71558  34.437  13.159   4.337
 3229W        W71559  24.522  34.925   3.846
 3230W        W71560  24.675  32.987   4.327
 3231W        W71561  35.530  10.190  13.374
 3232W        W71562   2.464  19.272  12.095
 3233W        W71563  41.467  18.775  12.078
 3234W        W71564  42.829  29.064   2.868
 3235W        W71565  40.501  11.756  12.982
 3236W        W71566   8.178  29.661  12.049
 3237W        W71567  42.405  21.614   1.697
 3238W        W71568  25.071  10.847  12.038
 3239W        W71569  18.271  40.808  12.470
 3240W        W71570   7.892  26.584  10.600
 3241W        W71571  27.104  20.572  10.489
 3242W        W71572  34.873  33.068  14.343
 3243W        W71573  34.868  29.042  12.015
 3244W        W71574  42.009   4.777   5.276
 3245W        W71575  30.538  39.347  14.010
 3246W        W71576  12.199  38.564  13.531
 3247W        W71577   7.272  29.160   2.286
 3248W        W71578  36.852  34.027   3.783
 3249W        W71579   3.250  31.103  14.507
 3250W        W71580  41.996  42.498   4.676
 3251W        W71581  22.577  21.183   3.736
 3252W        W71582  26.609   3.383   2.684
 3253W        W71583  20.584  34.516   3.823
 3254W        W71584  36.477  15.319  13.835
 3255W        W71585   2.388  22.731   0.739
 3256W        W71586   8.247   1.818  10.556
 3257W        W71587  33.542  29.922   3.370
 3258W        W71588   2.738  27.549   1.860
 3259W        W71589  35.858  34.065  11.955
 3260W        W71590  21.129  10.140  14.851
 3261W        W71591  11.790  32.405  13.056
 3262W        W71592  23.516   2.813   3.806
 3263W        W71593  39.051   3.302   3.746
 3264W        W71594   2.895  33.952   1.359
 3265W        W71595   6.846   5.762  12.504
 3266W        W71596  31.074  36.459   3.747
 3267W        W71597  15.624  38.821   1.733
 3268W        W71598  30.083  12.215  11.904
 3269W        W71599  19.177   6.248  11.453
 3270W        W71600  25.577  18.078   2.212
 3271W        W71601  27.593  28.024  14.918
 3272W        W71602  25.708  13.675  14.342
 3273W        W71603   5.343  11.319  14.959
 3274W        W71604  38.003  36.449   0.278
 3275W        W71605  14.626  26.618  12.865
 3276W        W71606  22.747  12.677   4.336
 3277W        W71607  31.963  44.352  14.786
 3278W        W71608  10.789   4.762   0.794
 3279W        W71609  29.624  19.093   4.689
 3280W        W71610  17.589   4.782  11.603
 3281W        W71611  39.947  19.095  10.584
 3282W        W71612   6.342  21.077   1.286
 3283W        W71613   3.781   9.194  14.889
 3284W        W71614   2.813  39.491   1.366
 3285W        W71615  23.108  10.699  14.804
 3286W        W71616  15.603  32.106   9.931
 3287W        W71617  41.885  21.664  11.962
 3288W        W71618  34.973   7.773   2.788
 3289W        W71619  14.703  18.060   4.192
 3290W        W71620  41.469  21.205   0.296
 3291W        W71621  22.211  31.022  12.950
 3292W        W71622  22.548  17.149   1.779
 3293W        W71623  13.720  24.193  11.954
 3294W        W71624  30.908  16.676  12.881
 3295W        W71625  40.407  31.016  11.069
 3296W        W71626  35.585  40.483  11.125
 3297W        W71627   6.277  32.625   0.952
 3298W        W71628  14.633  38.007  11.509
 3299W        W71629  12.636   5.882   0.914
 3300W        W71630   6.910  31.078   0.937
 3301W        W71631  30.978  41.930  14.873
 3302W        W71632  31.043  44.468   1.779
 3303W        W71633  33.906  28.493  11.545
 3304W        W71634   5.860  35.592   4.789
 3305W        W71635  40.865  16.704  14.406
 3306W        W71636   9.648  17.208  14.881
 3307W        W71637  26.032  23.226   0.422
 3308W        W71638  12.841   9.696   1.429
 3309W        W71639  23.998  15.680   1.395
 3310W        W71640  35.598  31.602   4.241
 3311W        W71641  23.007  18.289   0.368
 3312W        W71642  36.862  12.705  13.411
 3313W        W71643   4.441  36.463  14.879
 3314W        W71644  38.006  10.760   0.302
 3315W        W71645   6.274  39.522   1.871
 3316W        W71646  11.833  14.148  14.473
 3317W        W71647  22.063  15.686  10.888
 3318W        W71648  34.993   5.370   4.165
 3319W        W71649  40.411  21.565   3.151
 3320W        W71650  34.032  35.928  12.995
 3321W        W71651  43.437   8.696  13.536
 3322W        W71652  27.940   6.811  12.860
 3323W        W71653  16.132  34.393   0.424
 3324W        W71654  31.646  16.630  12.074
 3325W        W71655  36.374   3.429   5.084
 3326W        W71656  40.502  25.123   4.259
 3327W        W71657   9.218   7.787   1.918
 3328W        W71658  24.624   1.893  10.929
 3329W        W71659  24.651  21.056  14.299
 3330W        W71660   4.297   7.837  13.408
 3331W        W71661  26.571  11.345   4.693
 3332W        W71662  11.299  29.994  11.127
 3333W        W71663   7.228  36.353   0.332
 3334W        W71664  20.734  33.479  14.822
 3335W        W71665  44.409  28.074  13.858
 3336W        W71666  36.968  16.194   2.238
 3337W        W71667   1.453  19.769   3.320
 3338W        W71668  33.435  42.897  11.407
 3339W        W71669  15.611  29.919   2.680
 3340W        W71670  16.310  38.488  11.881
 3341W        W71671  35.036  10.367  12.013
 3342W        W71672  31.038  35.602  14.945
 3343W        W71673  18.088  22.521  12.389
 3344W        W71674   0.345  19.638  13.421
 3345W        W71675  40.962  43.432  12.451
 3346W        W71676  28.680  21.691   4.699
 3347W        W71677   1.372  12.739   3.683
 3348W        W71678  21.214  11.144  11.390
 3349W        W71679  11.280   8.294  12.531
 3350W        W71680   2.840  19.725   4.320
 3351W        W71681   0.921  36.569  14.952
 3352W        W71682  23.509  39.999   2.667
 3353W        W71683  14.815  11.169   3.711
 3354W        W71684  27.159  26.202  12.088
 3355W        W71685  10.316  20.142  12.058
 3356W        W71686  27.683  38.920   1.811
 3357W        W71687  21.155  11.817   2.663
 3358W        W71688  11.293  16.218   0.350
 3359W        W71689   6.794  14.659   0.266
 3360W        W71690   1.452   4.310   1.725
 3361W        W71691  43.788  28.159  11.896
 3362W        W71692  36.053   0.476   3.716
 3363W        W71693  27.168   7.341  14.452
 3364W        W71694   9.211  39.863   0.301
 3365W        W71695  13.714  20.744  14.498
 3366W        W71696  17.199  41.871   3.822
 3367W        W71697   5.200  12.359   4.288
 3368W        W71698  24.165  26.651   5.211
 3369W        W71699   3.295  12.274  11.503
 3370W        W71700  28.522  12.228   1.320
 3371W        W71701  20.260  43.471   2.386
 3372W        W71702  22.650   5.739   3.722
 3373W        W71703  33.958  11.827  11.433
 3374W        W71704  34.043  24.974   2.767
 3375W        W71705  32.471  34.087   1.266
 3376W        W71706  42.487   8.828   1.779
 3377W        W71707  33.498  29.139  11.900
 3378W        W71708   1.243  33.545   9.997
 3379W        W71709  16.223  38.907   0.900
 3380W        W71710  27.197  22.550  14.464
 3381W        W71711  14.624  14.335  11.469
 3382W        W71712  15.209   6.316   4.261
 3383W        W71713  12.737  28.663  10.404
 3384W        W71714  39.909  10.830  11.599
 3385W        W71715  33.090  29.929  10.549
 3386W        W71716   2.386   2.400   0.396
 3387W        W71717  23.127  11.167   0.367
 3388W        W71718  38.072  43.299   4.740
 3389W        W71719  44.928  13.768   3.667
 3390W        W71720   4.209   9.755  11.412
 3391W        W71721  38.011  13.297   1.230
 3392W        W71722  27.565  32.428   1.331
 3393W        W71723   5.722   5.316  12.915
 3394W        W71724   5.200  19.162   2.829
 3395W        W71725  35.541  21.240  13.478
 3396W        W71726  32.058  11.303  12.427
 3397W        W71727  24.573   0.359  11.553
 3398W        W71728   4.781   1.299   9.951
 3399W        W71729  26.594  27.627   4.699
 3400W        W71730   8.240   2.354   0.318
 3401W        W71731  20.262  25.555   3.166
 3402W        W71732   0.805  38.913   3.840
 3403W        W71733   2.297  15.798  11.573
 3404W        W71734   6.266  34.945  14.031
 3405W        W71735   2.755  21.523  12.891
 3406W        W71736  44.963   1.242   4.680
 3407W        W71737  44.823  33.040  13.394
 3408W        W71738  21.682  35.973   0.258
 3409W        W71739  43.480   4.867  11.481
 3410W        W71740  37.376  27.487   0.764
 3411W        W71741  17.144  12.351  10.948
 3412W        W71742  33.992  26.109   1.766
 3413W        W71743  29.503  29.034  13.848
 3414W        W71744  33.050  31.477  11.129
 3415W        W71745  29.532  26.970  12.470
 3416W        W71746  29.971   4.815  11.033
 3417W        W71747  32.927   5.814   1.220
 3418W        W71748  19.705   7.850  13.055
 3419W        W71749  29.530  42.922  14.465
 3420W        W71750  33.423  17.198   1.374
 3421W        W71751   5.233  10.727  11.581
 3422W        W71752  42.294  38.378  11.457
 3423W        W71753  27.673  29.471  13.992
 3424W        W71754  25.111  18.162  14.353
 3425W        W71755  27.668  19.213   0.891
 3426W        W71756  41.439   2.295  13.932
 3427W        W71757  15.128  33.424  13.047
 3428W        W71758  44.767  44.867   1.795
 3429W        W71759  22.524   7.177  14.308
 3430W        W71760   6.697  13.191   4.704
 3431W        W71761  36.077  23.025  10.892
 3432W        W71762  13.225  28.160   4.660
 3433W        W71763   7.299  36.843  11.898
 3434W        W71764   8.345  24.641  11.910
 3435W        W71765  23.653   6.835  12.090
 3436W        W71766  12.856  19.100   3.871
 3437W        W71767  27.118  28.125   1.290
 3438W        W71768  29.518  42.319   1.366
 3439W        W71769   8.233   9.294  12.011
 3440W        W71770  14.199  43.002  13.359
 3441W        W71771  43.018   3.306   3.221
 3442W        W71772  39.004   7.283  11.028
 3443W        W71773   5.898   6.362  13.962
 3444W        W71774  16.706   8.330   0.441
 3445W        W71775  32.950  29.622   0.428
 3446W        W71776  29.049  33.884   3.846
 3447W        W71777  38.422  27.087  10.899
 3448W        W71778  32.409  31.551   4.208
 3449W        W71779  41.829  15.161   1.741
 3450W        W71780  14.153  31.535   4.722
 3451W        W71781  25.533  41.845   1.219
 3452W        W71782  39.979  11.255   4.250
 3453W        W71783  11.832  41.497   2.884
 3454W        W71784  33.089  17.580   2.686
 3455W        W71785  23.686  36.035   0.742
 3456W        W71786   8.174  32.496   2.278
 3457W        W71787   4.719   6.778  12.953
 3458W        W71788  23.006  18.724   1.873
 3459W        W71789   7.265  24.178   3.158
 3460W        W71790  39.316  31.040   0.408
 3461W        W71791  38.386  23.574   0.463
 3462W        W71792  27.947   5.207  10.540
 3463W        W71793  24.506  36.567   2.396
 3464W        W71794  42.352  32.022   1.771
 3465W        W71795  41.328  21.034  10.955
 3466W        W71796  42.906  20.580  13.472
 3467W        W71797  32.134  38.833   5.161
 3468W        W71798   6.323   9.678  10.100
 3469W        W71799  26.481  37.559   9.963
 3470W        W71800  40.929  39.537   4.725
 3471W        W71801  24.654  33.931  14.310
 3472W        W71802   5.873  40.511   1.863
 3473W        W71803  35.859  22.570   4.715
 3474W        W71804  10.158  26.101   0.408
 3475W        W71805  41.892  19.150  14.799
 3476W        W71806  41.825  26.464   3.272
 3477W        W71807  36.473  25.564  13.484
 3478W        W71808   3.247   3.776  10.595
 3479W        W71809  27.646  20.223   1.794
 3480W        W71810   9.260  25.018  11.115
 3481W        W71811  18.558  40.892   2.208
 3482W        W71812  28.669  34.528  11.948
 3483W        W71813   3.911  24.486  12.495
 3484W        W71814  33.111  11.310   2.282
 3485W        W71815  10.139  12.327  10.587
 3486W        W71816  38.981  41.801   2.840
 3487W        W71817  32.604  15.316   2.743
 3488W        W71818  11.130   9.368  11.086
 3489W        W71819  41.310  36.981  14.451
 3490W        W71820   4.209  10.807   4.724
 3491W        W71821   4.699  44.327   5.118
 3492W        W71822  15.100  35.381  10.978
 3493W        W71823  12.761  38.493   0.324
 3494W        W71824   2.861   8.709   1.343
 3495W        W71825   7.401  36.457  13.504
 3496W        W71826   6.294  17.187  14.828
 3497W        W71827  29.012  35.023  10.523
 3498W        W71828   8.764  32.057   2.407
 3499W        W71829  10.819  23.000  10.536
 3500W        W71830  10.352  42.291  11.053
 3501W        W71831   5.417   8.284  12.430
 3502W        W71832  43.471  28.041  13.817
 3503W        W71833  39.420   1.868   4.759
 3504W        W71834  38.034   8.171  11.552
 3505W        W71835  38.002  10.229   2.347
 3506W        W71836  28.036  14.694   1.219
 3507W        W71837  39.891  16.239   0.309
 3508W        W71838  13.703  13.123   4.775
 3509W        W71839   4.911  35.557  10.519
 3510W        W71840  15.657  29.566   5.265
 3511W        W71841  24.491  10.206  12.381
 3512W        W71842  43.951  32.003   4.777
 3513W        W71843   1.871  14.618  14.333
 3514W        W71844  32.574  29.638   4.299
 3515W        W71845  11.850  29.653  10.575
 3516W        W71846  21.523  11.635   3.856
 3517W        W71847  10.768  18.115   3.215
 3518W        W71848   6.185  42.524   1.696
 3519W        W71849  20.237  43.850  14.327
 3520W        W71850  10.712  15.188  12.381
 3521W        W71851  25.970   8.368   1.236
 3522W        W71852  44.966   6.789   0.772
 3523W        W71853  10.849  43.777   4.726
 3524W        W71854  14.203  14.243  11.567
 3525W        W71855   2.748  32.627  11.374
 3526W        W71856  23.112  32.527   3.364
 3527W        W71857  18.706   4.272  14.816
 3528W        W71858  39.440  25.578  11.885
 3529W        W71859  39.360  10.335   2.898
 3530W        W71860  22.033  39.004  11.591
 3531W        W71861  43.911  27.033   2.241
 3532W        W71862  33.492  34.379   4.267
 3533W        W71863   7.297   5.313  11.902
 3534W        W71864  41.336  40.929  12.996
 3535W        W71865   2.445   3.887   0.809
 3536W        W71866  21.594   0.986  14.789
 3537W        W71867   4.284   4.931  13.797
 3538W        W71868   6.745   8.688  13.398
 3539W        W71869  35.474  14.313  14.445
 3540W        W71870  31.090  43.816   4.731
 3541W        W71871   1.427   6.891  10.547
 3542W        W71872  20.549   5.697  10.405
 3543W        W71873  43.277  42.862   0.961
 3544W        W71874  35.444  17.677  14.414
 3545W        W71875  27.944  38.964  10.949
 3546W        W71876  40.815  11.639   3.702
 3547W        W71877  13.719  41.861  11.416
 3548W        W71878   3.275  10.276  13.924
 3549W        W71879   3.732  36.355   3.247
 3550W        W71880  30.584  38.842   1.286
 3551W        W71881   5.390  22.210   1.908
 3552W        W71882  32.071   1.894   3.298
 3553W        W71883  14.604  23.586   4.614
 3554W        W71884  17.765  36.354   3.247
 3555W        W71885  18.225   0.317   2.815
 3556W        W71886  29.663  40.989  14.295
 3557W        W71887  23.631  36.955  11.528
 3558W        W71888  37.847  41.004   4.302
 3559W        W71889  26.494  36.045  12.445
 3560W        W71890  38.358   2.370   0.797
 3561W        W71891   4.344  39.431   5.253
 3562W        W71892   5.281  40.959   2.828
 3563W        W71893  17.142  30.554   2.695
 3564W        W71894  14.234  35.104  10.985
 3565W        W71895   0.448  14.334  14.379
 3566W        W71896  21.710  21.249  10.565
 3567W        W71897  40.925  39.902   4.615
 3568W        W71898  14.195  39.544  11.577
 3569W        W71899  37.431  28.933   0.276
 3570W        W71900  16.118  37.467  10.581
 3571W        W71901   4.867   3.754  12.033
 3572W        W71902   1.795  32.402  12.856
 3573W        W71903  19.246  14.655   2.409
 3574W        W71904  29.662   9.341   1.443
 3575W        W71905  21.568  26.620  13.005
 3576W        W71906   4.867  44.837  14.360
 3577W        W71907  30.033   9.853   2.307
 3578W        W71908  40.826   9.266   3.185
 3579W        W71909  10.875  29.937   4.754
 3580W        W71910   9.701   7.865  11.121
 3581W        W71911   7.206  43.490   4.607
 3582W        W71912  44.492  10.659   4.662
 3583W        W71913  12.856  16.665  12.999
 3584W        W71914   5.687  30.520   4.727
 3585W        W71915  20.538  27.521   2.887
 3586W        W71916  14.340   4.337  13.982
 3587W        W71917  10.160   7.290  11.405
 3588W        W71918  37.543  42.444   1.786
 3589W        W71919  17.766  38.060   2.837
 3590W        W71920  34.417  40.037  11.004
 3591W        W71921  32.496  32.994   2.346
 3592W        W71922  35.599  24.115  14.810
 3593W        W71923   6.781  26.964   2.311
 3594W        W71924  22.567  10.860  10.944
 3595W        W71925  32.609  18.215   1.449
 3596W        W71926   6.753   4.881  13.541
 3597W        W71927  33.989  34.397  14.361
 3598W        W71928  28.528  21.666  10.643
 3599W        W71929   7.706  24.613   1.440
 3600W        W71930  33.094  38.067  14.310
 3601W        W71931  24.613  35.426   4.285
 3602W        W71932  26.023  44.384   3.335
 3603W        W71933  25.470   5.315   3.662
 3604W        W71934  37.945  23.669  13.837
 3605W        W71935   2.429  22.612  13.007
 3606W        W71936   1.328  21.082   1.894
 3607W        W71937  26.982  38.482   4.665
 3608W        W71938   2.738  35.000  13.401
 3609W        W71939  17.718  19.726   0.789
 3610W        W71940  40.336  33.453   3.696
 3611W        W71941  40.853  17.291  14.978
 3612W        W71942  19.213   1.800   2.680
 3613W        W71943   8.862  31.507  13.863
 3614W        W71944  43.885  25.646  14.934
 3615W        W71945   2.915   2.796  10.436
 3616W        W71946   8.715   2.235  13.456
 3617W        W71947  37.023  32.029   0.835
 3618W        W71948  15.086  24.105   3.664
 3619W        W71949  28.515  18.199   2.736
 3620W        W71950   5.325  27.135   1.904
 3621W        W71951  10.790  29.565  13.512
 3622W        W71952  17.062  12.692   0.385
 3623W        W71953   6.237  35.492   1.283
 3624W        W71954   6.910   3.785  13.907
 3625W        W71955  29.669  36.431   1.874
 3626W        W71956  27.613  21.153  14.776
 3627W        W71957  37.413  21.035   0.325
 3628W        W71958  23.561   0.371   1.358
 3629W        W71959  22.075  31.974   1.241
 3630W        W71960   0.329  30.582  12.509
 3631W        W71961  42.486   8.401  10.993
 3632W        W71962   1.884  11.288   4.284
 3633W        W71963  13.154  22.133   3.770
 3634W        W71964  24.149  34.937  10.928
 3635W        W71965  37.951   2.242  14.760
 3636W        W71966  23.129  34.025  10.906
 3637W        W71967  40.429  31.547   1.752
 3638W        W71968  18.282   8.260  14.847
 3639W        W71969  17.113   4.314  11.539
 3640W        W71970  26.640  24.059   1.224
 3641W        W71971  16.742  25.663   4.133
 3642W        W71972   0.314  13.744   3.341
 3643W        W71973  35.948  15.693   0.353
 3644W        W71974   4.416   6.679   4.141
 3645W        W71975  32.988  35.480  10.518
 3646W        W71976  36.866   1.294  12.908
 3647W        W71977  13.321  10.384  14.418
 3648W        W71978  17.127  18.238  10.021
 3649W        W71979  12.202   4.258   1.803
 3650W        W71980  29.638  34.102  11.954
 3651W        W71981  26.463  29.060  11.588
 3652W        W71982  22.540  17.185  11.547
 3653W        W71983  26.105  42.394   1.867
 3654W        W71984  36.851  38.922  12.006
 3655W        W71985  17.091  29.567  11.097
 3656W        W71986  30.502  24.628  13.411
 3657W        W71987  39.886  13.814  13.054
 3658W        W71988  25.567  13.112  14.359
 3659W        W71989  20.246  10.214  10.109
 3660W        W71990  11.136  33.572  13.907
 3661W        W71991  28.434  32.074  11.525
 3662W        W71992  24.027  13.230   1.753
 3663W        W71993   5.250  13.335   4.605
 3664W        W71994  28.501  22.240   4.794
 3665W        W71995  31.903  33.511  11.485
 3666W        W71996  31.564  13.260  14.346
 3667W        W71997  21.729  42.801   3.690
 3668W        W71998  43.852  11.142   3.195
 3669W        W71999  15.791  30.549  12.950
 3670W        W72000   7.765   3.372   1.360
 3671W        W72001  37.933  17.643   4.760
 3672W        W72002   4.731  15.251   0.275
 3673W        W72003  27.021  31.519   2.720
 3674W        W72004   4.908  13.684  14.346
 3675W        W72005  40.538  44.754   2.689
 3676W        W72006   4.260  26.993   1.294
 3677W        W72007  21.732  19.232  11.975
 3678W        W72008  28.156  12.720   1.813
 3679W        W72009   3.747  35.524  10.438
 3680W        W72010   4.909  44.350   1.708
 3681W        W72011  39.386  39.060  13.419
 3682W        W72012   8.750  14.154   0.743
 3683W        W72013  12.852  20.249  14.923
 3684W        W72014  22.686  34.092  14.768
 3685W        W72015  25.478   6.786  14.869
 3686W        W72016  41.877  36.448  14.803
 3687W        W72017  42.366  38.387  12.935
 3688W        W72018  28.017   1.448  12.083
 3689W        W72019  35.535  42.900   5.276
 3690W        W72020  25.481  18.166  10.525
 3691W        W72021  28.170  42.953   0.426
 3692W        W72022  21.124  11.248  10.071
 3693W        W72023  43.883  10.645  13.938
 3694W        W72024  21.082  16.210   4.649
 3695W        W72025  22.234  34.420   1.781
 3696W        W72026  29.495  24.993  10.102
 3697W        W72027  44.856  16.632  12.520
 3698W        W72028  40.508  37.913   4.795
 3699W        W72029   4.734  33.565  12.986
 3700W        W72030  17.573  32.460   3.681
 3701W        W72031  15.100  35.371   4.826
 3702W        W72032  30.612  11.809   2.193
 3703W        W72033   4.409  38.397   5.143
 3704W        W72034  29.638  21.072  10.635
 3705W        W72035  20.578  22.603   4.823
 3706W        W72036  15.672  28.113   4.191
 3707W        W72037  32.018  35.419   3.840
 3708W        W72038  30.010   5.371  13.904
 3709W        W72039  18.767   2.278   2.724
 3710W        W72040  11.350  12.817  10.621
 3711W        W72041  36.944  15.713  11.488
 3712W        W72042  40.021  10.735  12.356
 3713W        W72043  14.160  16.074  11.435
 3714W        W72044  20.609  37.954  11.908
 3715W        W72045  10.300  23.200  13.920
 3716W        W72046  17.198  22.607   3.249
 3717W        W72047   9.366   2.829  12.093
 3718W        W72048  11.302  17.194  11.396
 3719W        W72049  11.280  23.132  13.054
 3720W        W72050   1.745  16.176  13.807
 3721W        W72051  22.714   6.829   3.767
 3722W        W72052  42.798   0.358  11.002
 3723W        W72053  42.985  23.507  13.005
 3724W        W72054  36.370  27.461  13.344
 3725W        W72055  14.729  24.022  11.509
 3726W        W72056  34.030   8.828   4.132
 3727W        W72057  11.354  40.897   2.771
 3728W        W72058  40.303  38.381  11.495
 3729W        W72059  41.497  38.535  11.006
 3730W        W72060  42.507  42.012  12.951
 3731W        W72061  39.500  32.596   0.921
 3732W        W72062  25.707  38.403  13.345
 3733W        W72063  21.172  24.103   1.813
 3734W        W72064   0.758  29.451   0.776
 3735W        W72065   9.675  27.088   3.811
 3736W        W72066  22.208   8.322   4.793
 3737W        W72067   6.870  14.648   1.324
 3738W        W72068   8.667  13.232   4.702
 3739W        W72069  13.212  27.600   0.263
 3740W        W72070  38.984  17.680  13.512
 3741W        W72071  44.423  15.145  10.574
 3742W        W72072  41.807  15.692  10.061
 3743W        W72073  38.992  26.609  13.054
 3744W        W72074  41.032   9.865   1.211
 3745W        W72075  43.355  30.564   1.354
 3746W        W72076  42.848   6.296   5.090
 3747W        W72077  22.224  21.111  12.486
 3748W        W72078   6.848  39.527   3.803
 3749W        W72079  44.405  43.341   2.724
 3750W        W72080  25.118  23.011   2.831
 3751W        W72081  18.113  26.110   9.935
 3752W        W72082  13.667   3.335  14.819
 3753W        W72083  16.219  18.080  13.941
 3754W        W72084   6.265  20.550   3.305
 3755W        W72085   8.798  37.507  14.920
 3756W        W72086  30.073  30.140  11.543
 3757W        W72087  43.341  23.227   1.847
 3758W        W72088  34.462  39.953   1.813
 3759W        W72089  31.444  25.480   0.774
 3760W        W72090  26.145  41.438  12.428
 3761W        W72091  37.548  30.602  12.979
 3762W        W72092  26.060  18.201  13.392
 3763W        W72093  14.333  27.164  13.421
 3764W        W72094  36.002   3.836   2.323
 3765W        W72095  39.820  20.047   1.716
 3766W        W72096  35.089  19.187   1.227
 3767W        W72097   9.799  13.226   4.331
 3768W        W72098  37.345  11.821   2.320
 3769W        W72099   7.192  21.243  14.981
 3770W        W72100  28.468  39.992   1.817
 3771W        W72101  33.435  34.491  13.880
 3772W        W72102  12.225  20.271  11.431
 3773W        W72103   1.895  21.168  14.933
 3774W        W72104   3.791  22.542   2.768
 3775W        W72105   8.847  35.398   2.806
 3776W        W72106  30.612  28.594   1.344
 3777W        W72107  24.020  18.160   2.389
 3778W        W72108  23.207  31.119  11.897
 3779W        W72109  22.113   8.343  11.495
 3780W        W72110  15.652  33.974  11.453
 3781W        W72111  13.320  18.752  13.833
 3782W        W72112  22.662  23.037  11.014
 3783W        W72113  21.568  28.493  11.441
 3784W        W72114  34.382  41.387  10.452
 3785W        W72115  25.156  16.749  14.278
 3786W        W72116  26.066  44.443   4.160
 3787W        W72117  41.309  26.469  11.443
 3788W        W72118  15.602  10.142  13.057
 3789W        W72119  10.155   2.880   2.752
 3790W        W72120   6.314  18.212  14.410
 3791W        W72121  31.642  26.086  11.002
 3792W        W72122  43.357  36.098   3.837
 3793W        W72123  19.147  11.815   0.269
 3794W        W72124  35.018   6.298   3.686
 3795W        W72125  14.293  20.759  12.908
 3796W        W72126  31.141  30.656  10.140
 3797W        W72127   0.399  17.263  10.588
 3798W        W72128  35.879   1.949  11.464
 3799W        W72129  14.712  13.705  10.525
 3800W        W72130  23.584  36.859   0.894
 3801W        W72131  18.668  41.520   0.255
 3802W        W72132  42.526  27.948  12.529
 3803W        W72133   7.892  17.658   2.847
 3804W        W72134  19.079  40.811  14.870
 3805W        W72135  29.054  19.210   0.881
 3806W        W72136  41.981  26.586  10.973
 3807W        W72137  15.729  24.040  14.909
 3808W        W72138  19.117  26.162  14.784
 3809W        W72139  18.296  25.607  12.928
 3810W        W72140  20.199  33.929   2.857
 3811W        W72141  36.965   3.386   5.301
 3812W        W72142  31.432   5.389  11.036
 3813W        W72143  30.985  34.411  11.989
 3814W        W72144  16.745  35.969  10.943
 3815W        W72145  26.967   9.241  12.920
 3816W        W72146  11.356  14.700   4.630
 3817W        W72147   4.247  22.697   0.385
 3818W        W72148   5.254   2.942   0.379
 3819W        W72149   0.853  18.596   4.837
 3820W        W72150  27.501  20.686   1.915
 3821W        W72151  12.221  20.710   1.294
 3822W        W72152   1.382   6.364   0.912
 3823W        W72153  33.086  20.044   9.603
 3824W        W72154  39.992  40.997  13.982
 3825W        W72155   1.397  28.500   1.733
 3826W        W72156  26.503  43.296   1.448
 3827W        W72157  30.937  43.017   3.703
 3828W        W72158  28.478  20.220   1.260
 3829W        W72159  42.466  35.963  13.363
 3830W        W72160  10.692  22.131  11.883
 3831W        W72161  36.524  42.938   0.906
 3832W        W72162   4.380  28.953   2.281
 3833W        W72163   8.808  18.219  11.463
 3834W        W72164  43.983   7.289  11.004
 3835W        W72165  16.655  27.472  12.485
 3836W        W72166  26.657   2.793   2.808
 3837W        W72167   6.426  38.421  14.835
 3838W        W72168  37.466  32.027  12.829
 3839W        W72169  12.205  30.975  12.869
 3840W        W72170  34.529  42.853  12.999
 3841W        W72171  19.775  42.310  14.785
 3842W        W72172  35.086  10.243   0.349
 3843W        W72173  14.748   1.855  14.871
 3844W        W72174  24.608  11.682   0.845
 3845W        W72175  39.977   2.759   4.725
 3846W        W72176   5.743   6.777   3.773
 3847W        W72177  41.381  38.513   0.746
 3848W        W72178  44.866  30.659  13.532
 3849W        W72179   6.255  41.309  12.014
 3850W        W72180  42.514   2.469   0.914
 3851W        W72181  41.795  34.601  11.491
 3852W        W72182  42.801   8.665  13.337
 3853W        W72183   9.285  20.604   4.335
 3854W        W72184  10.837  10.151  10.443
 3855W        W72185  28.574   1.471  11.921
 3856W        W72186   8.391   6.836  14.015
 3857W        W72187  28.184  23.674   3.846
 3858W        W72188  34.881  26.081  11.385
 3859W        W72189   7.328  42.303  13.015
 3860W        W72190   1.846  37.522   4.190
 3861W        W72191  24.672   8.310   1.923
 3862W        W72192  32.053   7.892   0.396
 3863W        W72193  36.963  26.668  11.064
 3864W        W72194  15.264  35.533  14.488
 3865W        W72195  36.592  13.830   0.905
 3866W        W72196   4.224   9.262   4.826
 3867W        W72197  35.475  28.593  13.460
 3868W        W72198  11.716   2.300   4.760
 3869W        W72199  33.531  40.519   0.745
 3870W        W72200  16.707   2.819   4.143
 3871W        W72201  26.095  34.010   1.373
 3872W        W72202  19.086  29.099  12.030
 3873W        W72203  22.733  12.296  10.595
 3874W        W72204  35.870  26.503  13.377
 3875W        W72205   9.674  13.231  12.951
 3876W        W72206  33.885  29.938  14.959
 3877W        W72207  31.558  16.078  14.994
 3878W        W72208  38.331  28.941  13.491
 3879W        W72209  23.213  26.687   3.154
 3880W        W72210  26.071  31.932   1.387
 3881W        W72211  31.010  40.343  11.554
 3882W        W72212  26.681  10.148   4.208
 3883W        W72213   3.303  33.086   2.289
 3884W        W72214   6.902   5.886  14.977
 3885W        W72215   6.855  28.443  13.889
 3886W        W72216  30.102  14.727   1.269
 3887W        W72217  23.170   1.746  14.335
 3888W        W72218   9.341  10.278   1.430
 3889W        W72219  33.478  38.932   2.330
 3890W        W72220  31.418  15.726   1.894
 3891W        W72221  17.249  33.411  13.023
 3892W        W72222   8.883  43.926  12.085
 3893W        W72223  30.480  10.829  11.964
 3894W        W72224  24.041  38.467  12.371
 3895W        W72225  17.559  17.725   4.284
 3896W        W72226  26.995  34.030  14.964
 3897W        W72227   4.816  40.993   2.326
 3898W        W72228  42.947  36.934  13.374
 3899W        W72229  25.606  26.092   3.844
 3900W        W72230  34.563  16.584  11.605
 3901W        W72231  42.373  29.175   3.760
 3902W        W72232  12.782  24.564  12.546
 3903W        W72233  24.081  26.561   4.160
 3904W        W72234  22.077  11.221  13.933
 3905W        W72235  41.825  34.448  10.076
 3906W        W72236  23.145  10.781   0.787
 3907W        W72237  31.934  16.302   0.912
 3908W        W72238  13.134  18.238  13.991
 3909W        W72239   7.905  25.112   3.855
 3910W        W72240   9.158  17.229   1.299
 3911W        W72241  43.821  18.115  11.399
 3912W        W72242  16.599  35.414   2.306
 3913W        W72243  38.428  27.072   2.324
 3914W        W72244  39.957  36.887  11.572
 3915W        W72245  43.409  10.788   4.119
 3916W        W72246  20.555  26.676   1.341
 3917W        W72247  14.769  39.992  11.867
 3918W        W72248   2.293  36.031  13.033
 3919W        W72249   9.752   9.394  13.977
 3920W        W72250  26.686  25.579  11.090
 3921W        W72251  36.092  34.548  13.504
 3922W        W72252  14.643  43.394  12.560
 3923W        W72253   4.352  28.136   3.864
 3924W        W72254   3.720  30.959  13.813
 3925W        W72255   9.214   3.932  10.933
 3926W        W72256  44.886  21.263  10.129
 3927W        W72257  15.291  26.482   2.874
 3928W        W72258  19.102  13.844   2.258
 3929W        W72259   4.750  22.622   2.328
 3930W        W72260  33.019  44.997  12.041
 3931W        W72261  19.650  37.521  14.512
 3932W        W72262  41.926  26.479   0.463
 3933W        W72263  17.196   8.765   1.390
 3934W        W72264  22.577  11.764   1.900
 3935W        W72265  18.683  44.838   3.158
 3936W        W72266  22.248  28.539  10.963
 3937W        W72267   8.699  24.130  12.531
 3938W        W72268  24.184  26.128   3.279
 3939W        W72269   3.400  39.950   4.715
 3940W        W72270   1.767  19.170   1.731
 3941W        W72271   3.319  12.688  14.473
 3942W        W72272  38.343  42.883   4.254
 3943W        W72273   4.387  13.667  14.407
 3944W        W72274  38.518  42.283  12.441
 3945W        W72275  10.713  35.939   1.888
 3946W        W72276  16.592  43.508  11.451
 3947W        W72277  17.748  18.237   1.443
 3948W        W72278   3.928   9.714  13.392
 3949W        W72279  15.630   0.908  11.548
 3950W        W72280  37.580  15.270  10.569
 3951W        W72281  13.152  15.789  13.820
 3952W        W72282  43.381  44.454  13.406
 3953W        W72283  26.118   5.340  10.510
 3954W        W72284  29.509  11.632   2.859
 3955W        W72285  38.495  18.150   3.374
 3956W        W72286   0.746  15.225  12.832
 3957W        W72287  36.376   4.798  10.577
 3958W        W72288   0.957  20.170  13.383
 3959W        W72289  31.920   1.354  13.426
 3960W        W72290  36.436  29.647  10.549
 3961W        W72291  26.669  33.437   0.884
 3962W        W72292   8.311  14.637   2.693
 3963W        W72293   6.360  20.171   4.677
 3964W        W72294  34.570  12.857  10.971
 3965W        W72295  33.078  41.424  14.809
 3966W        W72296  31.589  11.794  11.422
 3967W        W72297  41.485  12.614  12.463
 3968W        W72298  27.559  12.843  14.360
 3969W        W72299   1.839  37.038  13.492
 3970W        W72300  41.499  22.130  13.460
 3971W        W72301  22.709  38.898   1.783
 3972W        W72302  37.471  18.715   0.306
 3973W        W72303   9.692  24.714   2.736
 3974W        W72304   8.196  21.088   0.810
 3975W        W72305  44.894  30.478   3.798
 3976W        W72306   9.326   0.409  12.906
 3977W        W72307   7.730  14.599   3.791
 3978W        W72308  43.786  36.423  11.377
 3979W        W72309  18.778   3.345  11.116
 3980W        W72310  31.063  34.585  11.011
 3981W        W72311  41.946  18.291   1.323
 3982W        W72312  37.879  16.720   4.125
 3983W        W72313  14.164  20.046  13.975
 3984W        W72314  33.898  38.847  12.404
 3985W        W72315   0.281   6.800   0.245
 3986W        W72316  31.638  21.055  11.890
 3987W        W72317  12.811  39.437  10.532
 3988W        W72318  18.152  13.225   3.321
 3989W        W72319   1.243  29.502   2.721
 3990W        W72320  36.554  32.913   1.792
 3991W        W72321  39.000   2.269   4.113
 3992W        W72322  43.012   4.303   1.398
 3993W        W72323  23.579  32.132  11.503
 3994W        W72324   0.462  15.092   3.764
 3995W        W72325  25.191  30.085  10.962
 3996W        W72326  26.120  25.133   1.401
 3997W        W72327   8.726  10.359  10.611
 3998W        W72328  43.441  29.031   2.793
 3999W        W72329  24.702  19.123  13.801
 4000W        W72330  42.454  32.627   2.266
 4001W        W72331   7.798  30.456   3.781
 4002W        W72332  35.513  12.141   3.323
 4003W        W72333   4.761  41.488  12.882
 4004W        W72334  42.887  31.120  10.606
 4005W        W72335  34.969   0.924  13.441
 4006W        W72336  25.678  33.389   3.849
 4007W        W72337  42.306  18.618   1.308
 4008W        W72338  40.409  32.548  11.896
 4009W        W72339  25.175   4.233   0.334
 4010W        W72340   8.807   5.693  12.908
 4011W        W72341  42.939  25.995  13.825
 4012W        W72342  29.502   2.456   2.290
 4013W        W72343  10.726  27.451   0.427
 4014W        W72344  43.349  24.644   2.872
 4015W        W72345   2.415  21.222  14.928
 4016W        W72346  23.583   8.836  13.892
 4017W        W72347  13.701  26.116  10.567
 4018W        W72348  44.432  24.215   2.314
 4019W        W72349  30.976  41.036  11.986
 4020W        W72350   4.369   2.944  12.422
 4021W        W72351  29.984   0.840   0.781
 4022W        W72352  27.486  42.297   1.700
 4023W        W72353  19.239  17.669   1.318
 4024W        W72354   3.823   7.209   5.183
 4025W        W72355  17.127  28.667  14.797
 4026W        W72356  39.319   4.244   0.301
 4027W        W72357  34.870  21.127   1.382
 4028W        W72358  12.353  25.590  14.365
 4029W        W72359  15.716  27.079  13.531
 4030W        W72360  42.933  11.129   4.730
 4031W        W72361  35.411  22.576  13.827
 4032W        W72362  31.990  34.948   0.806
 4033W        W72363  10.281  12.267   3.365
 4034W        W72364  27.604  44.825   1.372
 4035W        W72365  17.302  26.030   5.295
 4036W        W72366  11.241  38.058   4.325
 4037W        W72367  35.038  27.519  12.885
 4038W        W72368  31.455  21.539   3.668
 4039W        W72369  29.424   6.222   4.247
 4040W        W72370  17.232  12.308   3.746
 4041W        W72371  44.394   7.186   2.404
 4042W        W72372  40.915   8.817   3.206
 4043W        W72373  19.692   9.362   4.833
 4044W        W72374  25.607  37.486   1.923
 4045W        W72375  15.101  12.723   1.807
 4046W        W72376   1.346  29.095   0.863
 4047W        W72377   4.728  30.654  14.804
 4048W        W72378  14.822  44.474   2.357
 4049W        W72379  27.098  26.005   2.857
 4050W        W72380  44.841  25.704  13.457
 4051W        W72381  38.030   8.184   5.623
 4052W        W72382  36.463  24.559  11.539
 4053W        W72383  35.106  21.168   4.153
 4054W        W72384  21.570   7.372   0.252
 4055W        W72385  19.068  39.958   0.377
 4056W        W72386  15.766  11.722   3.707
 4057W        W72387  20.564  16.161  11.005
 4058W        W72388  13.818  18.551  12.340
 4059W        W72389  19.589  36.552   2.385
 4060W        W72390  17.200   0.867   0.376
 4061W        W72391  14.215   0.813   0.901
 4062W        W72392   8.718   1.436  13.795
 4063W        W72393  38.396   9.389  12.847
 4064W        W72394  17.185  11.187  14.439
 4065W        W72395  12.688  27.624  13.972
 4066W        W72396  37.855  39.330  13.924
 4067W        W72397  14.271  33.986  11.105
 4068W        W72398  16.609  37.930  10.897
 4069W        W72399  16.272  11.785  11.120
 4070W        W72400   3.377  39.954  14.765
 4071W        W72401  11.321  43.825   4.248
 4072W        W72402  12.664  24.705  13.045
 4073W        W72403  38.868  44.378   2.323
 4074W        W72404  28.978  23.630   4.275
 4075W        W72405  33.592   2.360   0.776
 4076W        W72406  17.660  30.538   2.696
 4077W        W72407  39.887  34.043   4.818
 4078W        W72408  15.138  26.643  10.888
 4079W        W72409  19.593  21.215   2.314
 4080W        W72410  17.719   7.709   2.771
 4081W        W72411  32.550  43.906   4.749
 4082W        W72412   8.703   3.799   4.624
 4083W        W72413  14.614  17.787  12.079
 4084W        W72414  22.605  16.606  13.388
 4085W        W72415  15.257  22.253  13.936
 4086W        W72416  30.479  28.054  10.462
 4087W        W72417  17.604  27.170  11.552
 4088W        W72418  14.237   5.206  13.831
 4089W        W72419  18.570  23.575  14.407
 4090W        W72420  24.550  44.758  10.626
 4091W        W72421  36.070  44.865  11.551
 4092W        W72422  33.427  21.049  13.458
 4093W        W72423  22.505  31.537   2.888
 4094W        W72424  35.578   6.293   0.390
 4095W        W72425  19.193  29.500  12.907
 4096W        W72426   4.352  39.491  12.979
 4097W        W72427  34.410  36.921   1.366
 4098W        W72428  26.485  21.677  12.959
 4099W        W72429  30.476  21.225   2.240
 4100W        W72430  38.374  39.406   4.131
 4101W        W72431  35.448  28.018   3.248
 4102W        W72432  15.648  14.592   2.274
 4103W        W72433  44.971   8.769  12.067
 4104W        W72434  23.210  35.498  14.890
 4105W        W72435   5.361  15.116  11.868
 4106W        W72436  33.034  16.250   2.210
 4107W        W72437  25.495  34.960   4.115
 4108W        W72438   9.807  16.099   2.308
 4109W        W72439   8.686   9.725   2.784
 4110W        W72440  21.135  33.551  13.920
 4111W        W72441  28.534   7.707   4.701
 4112W        W72442  35.970  30.651  13.434
 4113W        W72443  44.301  39.343  14.467
 4114W        W72444   4.762  17.171   0.940
 4115W        W72445  16.662  11.729  14.814
 4116W        W72446  22.565  26.642  10.074
 4117W        W72447  38.410  24.673  13.892
 4118W        W72448  10.175   1.788   2.758
 4119W        W72449  33.082  12.735   4.752
 4120W        W72450  36.464  39.356   0.271
 4121W        W72451  24.063  39.500  11.456
 4122W        W72452   3.348  40.451  11.975
 4123W        W72453  27.134   9.226  11.420
 4124W        W72454  25.641  17.604  12.477
 4125W        W72455   3.340  37.026   1.449
 4126W        W72456   4.296  27.661  14.029
 4127W        W72457  15.684  32.400   0.838
 4128W        W72458  31.633   9.788   1.415
 4129W        W72459  24.191  43.499  13.054
 4130W        W72460  32.120   0.858  10.908
 4131W        W72461  26.190  43.370  10.941
 4132W        W72462  42.001  10.348   2.358
 4133W        W72463  34.949  33.883  11.873
 4134W        W72464   7.752  21.250  12.092
 4135W        W72465  34.051  34.983  14.027
 4136W        W72466  28.028  40.386  10.416
 4137W        W72467   2.374  10.178   1.837
 4138W        W72468  28.610  20.583  13.795
 4139W        W72469  11.852   4.734  14.909
 4140W        W72470  29.174   5.398   4.217
 4141W        W72471  14.278  42.432  12.438
 4142W        W72472  33.904  34.931  10.530
 4143W        W72473  43.287  19.713  10.983
 4144W        W72474  18.054  17.198   1.850
 4145W        W72475  10.299  36.077   0.963
 4146W        W72476  29.150  23.084   2.663
 4147W        W72477   3.898  44.429  11.933
 4148W        W72478   5.777  11.175  12.012
 4149W        W72479  28.183  20.142   3.805
 4150W        W72480  43.459  14.275   0.895
 4151W        W72481  28.019  39.909   9.921
 4152W        W72482   5.330   8.170   3.248
 4153W        W72483  28.670  18.682   1.410
 4154W        W72484  36.011   1.243   1.257
 4155W        W72485   7.841  18.248  10.418
 4156W        W72486   1.476  42.942   0.451
 4157W        W72487  33.955  12.770  10.562
 4158W        W72488  36.863  37.886   2.830
 4159W        W72489  41.038  20.686  10.456
 4160W        W72490  22.039  37.349   2.278
 4161W        W72491  42.930  14.825  10.506
 4162W        W72492  26.146  34.408  14.958
 4163W        W72493   1.734  12.774   4.142
 4164W        W72494  11.712  34.903  13.388
 4165W        W72495   4.400  27.620  14.329
 4166W        W72496  14.677  23.566  12.492
 4167W        W72497  37.866  29.093   0.934
 4168W        W72498  18.612  26.570  13.914
 4169W        W72499  37.987  11.658   3.667
 4170W        W72500  24.528  14.791   0.874
 4171W        W72501  32.437   4.291   2.267
 4172W        W72502  37.878  37.464   4.261
 4173W        W72503  40.961  40.921   1.795
 4174W        W72504  24.166  10.197   3.832
 4175W        W72505  38.432  16.584  10.967
 4176W        W72506  27.458  11.628   0.317
 4177W        W72507  25.972  31.926  10.593
 4178W        W72508   6.361  17.075   4.728
 4179W        W72509   7.337  42.917   3.257
 4180W        W72510  40.478  20.057   3.291
 4181W        W72511  28.514  20.150  14.495
 4182W        W72512  11.373  43.965  13.340
 4183W        W72513  37.957  23.180   1.237
 4184W        W72514   6.349  15.621   3.753
 4185W        W72515   5.198  23.018   3.379
 4186W        W72516   2.364   8.657   3.170
 4187W        W72517  18.191  19.164  13.458
 4188W        W72518   4.791   6.887  10.005
 4189W        W72519   3.759  39.925  14.790
 4190W        W72520  24.137  18.701  14.314
 4191W        W72521  22.096  10.844  12.054
 4192W        W72522   4.826   4.282   4.774
 4193W        W72523   6.401  43.875  14.321
 4194W        W72524  18.747  11.867   1.222
 4195W        W72525  24.479  40.388   3.188
 4196W        W72526  32.063  20.614  10.531
 4197W        W72527  43.884  15.091  12.996
 4198W        W72528   9.827  28.028   3.733
 4199W        W72529  30.069  41.986   3.166
 4200W        W72530   6.727  17.184  14.942
 4201W        W72531  39.479  27.688  13.034
 4202W        W72532   6.197   6.718   1.371
 4203W        W72533   5.357  34.912   4.763
 4204W        W72534   9.215  15.182  13.056
 4205W        W72535  27.993  25.977  12.035
 4206W        W72536  43.883  28.151  13.328
 4207W        W72537   6.197  44.791  14.807
 4208W        W72538   9.697  33.117  10.467
 4209W        W72539  34.475  31.543   0.352
 4210W        W72540  31.525  43.905   4.633
 4211W        W72541  22.641  27.587  11.471
 4212W        W72542  30.064   8.397  11.082
 4213W        W72543  32.077  19.259  13.896
 4214W        W72544   5.280  44.361   1.217
 4215W        W72545  40.811  15.258   1.704
 4216W        W72546  32.952   5.856   2.326
 4217W        W72547  30.479  12.272  10.598
 4218W        W72548  36.893  33.079  12.894
 4219W        W72549  40.005  35.082  11.448
 4220W        W72550   6.918  36.897  14.025
 4221W        W72551  30.136  30.143   2.893
 4222W        W72552   7.786   2.451  11.967
 4223W        W72553   0.945  12.611  11.554
 4224W        W72554  16.079  19.092   0.884
 4225W        W72555  22.026  28.045  14.381
 4226W        W72556  43.927  29.579  10.520
 4227W        W72557  13.607  40.039  12.888
 4228W        W72558  31.502  26.672  12.354
 4229W        W72559   8.310  30.067  11.518
 4230W        W72560   7.411  20.057  10.893
 4231W        W72561   6.241  14.313  12.926
 4232W        W72562   6.226   3.345   4.170
 4233W        W72563   2.417  15.195  11.396
 4234W        W72564   8.690  25.605  13.457
 4235W        W72565  27.570   2.814  11.037
 4236W        W72566  18.139  43.378   2.779
 4237W        W72567   8.346  43.303  13.978
 4238W        W72568  14.596  29.921   2.341
 4239W        W72569  42.785  34.960  12.943
 4240W        W72570  31.536   0.951   2.829
 4241W        W72571  11.206  21.564   3.170
 4242W        W72572  19.281  27.152   4.615
 4243W        W72573  35.568  11.785   3.385
 4244W        W72574  13.801  44.797   4.646
 4245W        W72575  31.606  25.096  14.311
 4246W        W72576  18.775  26.178  14.352
 4247W        W72577  36.028  17.085   0.940
 4248W        W72578  21.196  37.474  10.050
 4249W        W72579  26.481  36.410  12.885
 4250W        W72580  17.226  22.693  10.544
 4251W        W72581  23.568  44.979   4.711
 4252W        W72582   5.916  30.935   3.674
 4253W        W72583   3.420  28.178   0.809
 4254W        W72584  33.433  33.973   2.667
 4255W        W72585   6.279  16.634   1.218
 4256W        W72586  14.711  44.445   4.259
 4257W        W72587  24.626  26.981  14.959
 4258W        W72588  21.559   9.236  12.540
 4259W        W72589  33.534  32.490   0.962
 4260W        W72590  41.531  35.446   3.636
 4261W        W72591  24.036  32.461  11.555
 4262W        W72592  30.595  40.523  11.391
 4263W        W72593   6.763   0.981  11.578
 4264W        W72594  30.961   0.440   2.836
 4265W        W72595  31.012  32.995   2.184
 4266W        W72596  21.546  12.759   2.206
 4267W        W72597  33.111  18.731   4.623
 4268W        W72598   5.307  31.508  11.989
 4269W        W72599  38.036  34.106  11.463
 4270W        W72600  23.491  21.736  11.432
 4271W        W72601  27.563   5.849  13.999
 4272W        W72602   9.250  12.182   4.293
 4273W        W72603  24.984   7.746  13.908
 4274W        W72604   5.315  12.245  12.007
 4275W        W72605  24.982  26.465   0.868
 4276W        W72606  12.642   5.214   4.608
 4277W        W72607   0.315   1.346   1.353
 4278W        W72608   3.427  10.838  13.869
 4279W        W72609   6.718  43.972  13.031
 4280W        W72610   1.296  30.622   2.301
 4281W        W72611  20.678  17.648  11.431
 4282W        W72612  35.896  42.972  12.044
 4283W        W72613   7.809  41.848  11.926
 4284W        W72614  11.836   2.812   0.876
 4285W        W72615  38.417  41.819   0.794
 4286W        W72616  26.464  12.127   2.271
 4287W        W72617  25.653  21.616   3.374
 4288W        W72618   7.266  18.284  13.028
 4289W        W72619  24.054  10.241   0.743
 4290W        W72620  19.723  12.311  11.475
 4291W        W72621  43.801   0.482   0.825
 4292W        W72622   4.233  19.664  14.275
 4293W        W72623  22.049  29.159  11.477
 4294W        W72624  10.353  26.584   3.302
 4295W        W72625  25.162   7.729  11.007
 4296W        W72626  32.582  38.469  11.553
 4297W        W72627   7.231  32.552   0.948
 4298W        W72628  20.755  39.963   1.772
 4299W        W72629  29.027  34.956   4.219
 4300W        W72630  34.946  14.317  12.486
 4301W        W72631  43.811  21.057   1.889
 4302W        W72632  40.339  21.240  13.872
 4303W        W72633  22.119   2.852  11.422
 4304W        W72634  19.223   5.841   1.788
 4305W        W72635  41.428   6.762  11.100
 4306W        W72636   0.312  28.552   1.415
 4307W        W72637   2.374  27.997   3.221
 4308W        W72638   5.890  10.719   2.331
 4309W        W72639   0.878   6.209  14.474
 4310W        W72640  43.927  35.106  14.500
 4311W        W72641  12.349  19.669  12.981
 4312W        W72642   4.868  22.535   3.289
 4313W        W72643  33.395  25.088   3.347
 4314W        W72644  14.106  11.347   4.152
 4315W        W72645  32.937   7.808   0.383
 4316W        W72646   2.813   7.851  13.413
 4317W        W72647  34.882   4.363  11.590
 4318W        W72648  41.294  29.022  14.851
 4319W        W72649  29.631  34.572  11.088
 4320W        W72650   6.295  21.699  13.547
 4321W        W72651  24.531  30.099   1.387
 4322W        W72652   4.844  33.118   1.766
 4323W        W72653  21.571  11.794  12.924
 4324W        W72654  14.313  39.508   1.799
 4325W        W72655   5.808  41.826  12.413
 4326W        W72656   0.839  42.028  12.837
 4327W        W72657   4.754   4.828  11.387
 4328W        W72658  37.956  21.176   2.764
 4329W        W72659   2.229  21.603   2.773
 4330W        W72660  15.774   5.857   0.735
 4331W        W72661   4.449  37.024   0.473
 4332W        W72662   7.333  12.177  13.871
 4333W        W72663  36.071  15.225  12.497
 4334W        W72664   8.740  27.972   3.374
 4335W        W72665  39.015  25.034  14.365
 4336W        W72666   7.179  24.493  11.934
 4337W        W72667   6.901  41.945  11.123
 4338W        W72668  14.666   0.814  13.426
 4339W        W72669  32.573  19.067   4.210
 4340W        W72670  22.233  40.828   1.211
 4341W        W72671   0.978  41.536   3.731
 4342W        W72672   2.297   0.311   1.800
 4343W        W72673  12.810   1.447   0.411
 4344W        W72674  24.532   4.769  11.407
 4345W        W72675   4.859  13.270  11.382
 4346W        W72676  23.493   2.724   1.776
 4347W        W72677  40.501   7.823   2.812
 4348W        W72678   7.767  15.273  14.895
 4349W        W72679  23.551   9.231   4.262
 4350W        W72680   3.285  30.505   0.950
 4351W        W72681   0.492   6.375  14.350
 4352W        W72682  35.510  32.117  14.894
 4353W        W72683  21.706  35.485  11.917
 4354W        W72684  11.806  19.053  10.504
 4355W        W72685   3.459  14.679   3.840
 4356W        W72686  14.252   6.907  13.526
 4357W        W72687  13.161  17.644  12.429
 4358W        W72688  26.122  25.659   4.217
 4359W        W72689  13.662   1.742   3.678
 4360W        W72690  24.635   8.381   4.789
 4361W        W72691  34.046   9.646  13.958
 4362W        W72692  18.274   8.867  14.857
 4363W        W72693  44.369  26.172  11.416
 4364W        W72694  16.215  28.185   3.241
 4365W        W72695  30.128  27.002   0.446
 4366W        W72696  27.576  31.940  12.065
 4367W        W72697  38.823  40.399  14.804
 4368W        W72698  29.584  37.863   1.384
 4369W        W72699  12.223  34.406   0.367
 4370W        W72700  14.728  13.239  13.466
 4371W        W72701  35.372  24.624   0.272
 4372W        W72702   7.668  33.586   2.686
 4373W        W72703   6.717  44.951  14.286
 4374W        W72704  19.568  34.922   2.900
 4375W        W72705  27.099  30.043  14.414
 4376W        W72706  25.218   3.409  13.310
 4377W        W72707  11.720   1.789  11.510
 4378W        W72708   1.243   6.847  11.411
 4379W        W72709   5.802   1.454   3.696
 4380W        W72710   7.820  12.272  11.122
 4381W        W72711  42.004  28.970  11.056
 4382W        W72712  11.176  17.657   2.358
 4383W        W72713  14.591  11.756   1.699
 4384W        W72714  26.079  31.911   4.263
 4385W        W72715  26.459  41.976  11.493
 4386W        W72716   4.210  19.250  12.061
 4387W        W72717  23.109  37.969  13.870
 4388W        W72718  23.054   8.732   0.465
 4389W        W72719  28.137  44.964   4.683
 4390W        W72720  30.066  18.598  11.568
 4391W        W72721  18.578  35.036   4.227
 4392W        W72722  34.517   2.395  11.597
 4393W        W72723  39.908  12.198  12.852
 4394W        W72724   7.336  11.764   4.198
 4395W        W72725  43.296  22.604  12.895
 4396W        W72726  29.449  13.187  12.003
 4397W        W72727   3.458   0.948   3.180
 4398W        W72728  27.091   3.250  10.563
 4399W        W72729   9.672   0.433   1.437
 4400W        W72730  42.368  27.990  11.933
 4401W        W72731  28.953  33.977   4.301
 4402W        W72732  29.951  22.719   4.717
 4403W        W72733  34.429  10.719  14.319
 4404W        W72734  14.737  21.214   2.863
 4405W        W72735  12.814  20.172   1.275
 4406W        W72736  38.859  15.280  13.353
 4407W        W72737  23.712   8.247  12.031
 4408W        W72738  44.991  24.051   1.248
 4409W        W72739  10.743  39.945   1.390
 4410W        W72740   9.805  41.417  13.804
 4411W        W72741   6.860  31.121   4.229
 4412W        W72742  44.816  41.829  10.508
 4413W        W72743  38.000  20.091  11.866
 4414W        W72744  23.187  23.146   0.938
 4415W        W72745   9.393  43.875   2.193
 4416W        W72746  18.728   2.726   1.308
 4417W        W72747  21.612   6.882  11.561
 4418W        W72748  30.008  22.602   4.294
 4419W        W72749  31.584  29.512  14.024
 4420W        W72750  33.404  21.061   2.800
 4421W        W72751  31.419  42.796   0.897
 4422W        W72752  16.639  12.627  10.603
 4423W        W72753  43.933   5.316   2.690
 4424W        W72754  32.593  22.076   3.166
 4425W        W72755  28.650  43.970   2.267
 4426W        W72756  30.078  24.009   4.662
 4427W        W72757   5.850  12.650   0.905
 4428W        W72758  40.390  29.097   0.314
 4429W        W72759   0.800  11.162  14.362
 4430W        W72760   4.905  10.359  14.019
 4431W        W72761  18.239  42.029  11.592
 4432W        W72762  35.104   1.781   1.288
 4433W        W72763  39.848  36.577   3.706
 4434W        W72764  26.089  38.550   0.323
 4435W        W72765   5.247  32.540  14.942
 4436W        W72766  13.185   9.277   3.361
 4437W        W72767  38.032  10.215   2.804
 4438W        W72768  29.053  20.760  10.413
 4439W        W72769  33.001  39.968  11.455
 4440W        W72770  21.058   5.930  13.355
 4441W        W72771   9.341  10.799  14.908
 4442W        W72772  42.320   3.891   3.836
 4443W        W72773  44.791  32.116   0.888
 4444W        W72774   1.330  11.248  10.642
 4445W        W72775  28.031   1.790   4.732
 4446W        W72776  33.560  27.680   4.177
 4447W        W72777  25.055  41.950   2.351
 4448W        W72778  22.181  14.777   0.372
 4449W        W72779  36.978  37.964  14.447
 4450W        W72780  22.726   5.730  10.461
 4451W        W72781  10.149   3.714   2.780
 4452W        W72782  13.724  42.297  12.069
 4453W        W72783  35.449  21.546   2.246
 4454W        W72784  28.980  39.029  10.957
 4455W        W72785  17.268  35.395   2.313
 4456W        W72786  17.564  27.170   3.290
 4457W        W72787  21.693  20.678   2.179
 4458W        W72788  24.529  18.237  14.417
 4459W        W72789  29.159  41.016  10.546
 4460W        W72790   7.394   6.789   1.238
 4461W        W72791  18.631  18.758   2.208
 4462W        W72792  23.202  34.045   4.740
 4463W        W72793   3.432   4.910   2.821
 4464W        W72794  17.642  35.010  12.442
 4465W        W72795  21.738   0.441  11.523
 4466W        W72796   0.456  43.788  12.868
 4467W        W72797   5.313   5.208  14.894
 4468W        W72798  39.557  18.675  12.541
 4469W        W72799   6.840  22.736   0.249
 4470W        W72800  17.068  35.955   4.261
 4471W        W72801  17.184  29.968  13.051
 4472W        W72802  39.548  44.979   4.648
 4473W        W72803  41.039  19.056  12.548
 4474W        W72804   8.301  18.585   4.273
 4475W        W72805  16.670  14.607  14.827
 4476W        W72806  28.176   0.272   3.729
 4477W        W72807  32.401  38.466   1.323
 4478W        W72808   0.820  39.950   3.172
 4479W        W72809  31.615   0.304  13.990
 4480W        W72810   5.756   7.739  14.448
 4481W        W72811  21.264  30.545   5.695
 4482W        W72812  12.172  15.823   3.848
 4483W        W72813   0.319  25.515   3.282
 4484W        W72814  35.053  22.206  13.444
 4485W        W72815  31.964  29.458   4.662
 4486W        W72816  24.080   3.950  14.927
 4487W        W72817  39.837  42.507  12.021
 4488W        W72818  20.648  42.877   4.242
 4489W        W72819  15.158  17.088  12.505
 4490W        W72820  38.971   3.441   0.765
 4491W        W72821  15.795  21.066   2.863
 4492W        W72822   2.271   9.767  11.475
 4493W        W72823  42.874  44.322   3.163
 4494W        W72824  28.120   9.152   1.272
 4495W        W72825  24.699  25.020   0.280
 4496W        W72826   3.775  41.366  14.285
 4497W        W72827  43.782  43.362  11.518
 4498W        W72828  18.660  42.838   3.728
 4499W        W72829   1.945   1.252   1.353
 4500W        W72830  12.770  28.048   3.701
 4501W        W72831  39.895  43.818  11.515
 4502W        W72832  38.849  25.712   2.205
 4503W        W72833   1.796  43.484   1.257
 4504W        W72834  26.093  20.045   0.879
 4505W        W72835  24.625  21.209   4.702
 4506W        W72836  26.080  43.456   0.340
 4507W        W72837  42.347  17.188  10.531
 4508W        W72838  13.770  36.927  11.952
 4509W        W72839   6.377  34.060   0.783
 4510W        W72840  20.055  20.618   2.726
 4511W        W72841  40.899  21.260   2.410
 4512W        W72842  39.357  35.524  14.362
 4513W        W72843   7.394  42.359   1.354
 4514W        W72844   4.944   5.721  12.454
 4515W        W72845  41.296  20.724   4.311
 4516W        W72846  33.414  30.105  14.406
 4517W        W72847  38.345  29.640   1.886
 4518W        W72848  34.426  24.695   2.402
 4519W        W72849  27.137  37.525  10.580
 4520W        W72850  25.969   2.829  13.363
 4521W        W72851  38.043  13.737  13.807
 4522W        W72852  20.037  20.139  12.533
 4523W        W72853   8.738  34.405  10.436
 4524W        W72854  23.156  30.984   4.687
 4525W        W72855   0.867  28.481   4.767
 4526W        W72856  17.071   6.334   5.210
 4527W        W72857  37.934  17.132  13.000
 4528W        W72858   3.878  40.021  13.816
 4529W        W72859  15.685  22.048   1.740
 4530W        W72860  26.127   8.875  12.844
 4531W        W72861  30.151   8.227   3.221
 4532W        W72862   2.868   7.342   4.327
 4533W        W72863   0.803  33.582   4.187
 4534W        W72864  36.523  13.737   4.769
 4535W        W72865  15.594  33.990  12.881
 4536W        W72866  22.019  23.606  11.070
 4537W        W72867  27.633  11.306  13.422
 4538W        W72868  40.540   1.346  12.353
 4539W        W72869  10.327  44.891   0.910
 4540W        W72870  21.741  44.788   1.734
 4541W        W72871  24.703  32.139   0.467
 4542W        W72872   8.693  27.603   0.420
 4543W        W72873  44.316  36.960   0.328
 4544W        W72874  24.698  25.516   3.764
 4545W        W72875  43.303  15.195  14.838
 4546W        W72876   9.189   6.246  14.984
 4547W        W72877  33.583  10.186   4.614
 4548W        W72878  13.822  24.094  13.921
 4549W        W72879  44.764   5.919   2.743
 4550W        W72880   9.287  16.703  12.080
 4551W        W72881  24.484  19.155   1.850
 4552W        W72882  28.118   4.922   2.321
 4553W        W72883  43.792  41.313   3.380
 4554W        W72884  44.893  10.142  13.842
 4555W        W72885  42.420   3.459  13.359
 4556W        W72886  13.323   1.836  10.046
 4557W        W72887   8.753  14.705   3.347
 4558W        W72888  41.322  37.492  10.591
 4559W        W72889  36.563  43.302  12.851
 4560W        W72890  31.109  41.942  14.329
 4561W        W72891  34.900   3.227   1.302
 4562W        W72892  36.503  35.036   5.182
 4563W        W72893  16.101  43.825   1.822
 4564W        W72894  40.051   5.800   3.814
 4565W        W72895  36.073  12.773  10.502
 4566W        W72896  35.882  28.583  14.436
 4567W        W72897  27.942  30.939   4.244
 4568W        W72898  44.776  17.233  14.343
 4569W        W72899  28.668  33.009  12.978
 4570W        W72900   1.266  27.051   3.289
 4571W        W72901  28.147   2.338  12.885
 4572W        W72902  36.463  29.060   4.637
 4573W        W72903   8.217  26.089  12.835
 4574W        W72904   5.875  22.045   4.116
 4575W        W72905  15.765  28.597   0.313
 4576W        W72906  31.515  33.080  11.124
 4577W        W72907  19.773   4.796  11.012
 4578W        W72908  24.977   0.344  13.371
 4579W        W72909  17.691  25.648   0.451
 4580W        W72910  10.201   4.370   9.964
 4581W        W72911  42.980  18.126  13.465
 4582W        W72912  17.085   7.289   4.669
 4583W        W72913  23.108  25.108  12.833
 4584W        W72914  36.435  32.518   1.926
 4585W        W72915  40.316   9.702  13.326
 4586W        W72916  23.240  16.611  14.336
 4587W        W72917  17.092  30.526   1.331
 4588W        W72918   3.728  35.944   5.794
 4589W        W72919  26.156   9.664  10.037
 4590W        W72920  40.456  15.213  14.314
 4591W        W72921  35.056  21.033   0.256
 4592W        W72922  32.478  27.692  14.422
 4593W        W72923  13.621  33.414  10.509
 4594W        W72924  43.875  13.112   2.309
 4595W        W72925   0.448  25.642  14.002
 4596W        W72926  40.905  22.589   3.165
 4597W        W72927  11.722  27.117  11.040
 4598W        W72928  37.070  12.791   1.271
 4599W        W72929  23.502  25.047  11.958
 4600W        W72930  19.180  44.338  12.917
 4601W        W72931  30.074  40.868  11.028
 4602W        W72932   8.787   1.775  12.084
 4603W        W72933  38.055  41.487  12.516
 4604W        W72934   7.182  35.506  13.347
 4605W        W72935  25.989   1.346   3.180
 4606W        W72936  15.210  18.154  12.924
 4607W        W72937   5.921  19.176  14.884
 4608W        W72938  29.649   1.368  14.001
 4609W        W72939  22.531  44.001  14.486
 4610W        W72940  23.044  12.752   0.352
 4611W        W72941  33.018   9.752  10.516
 4612W        W72942   1.882  28.103  10.957
 4613W        W72943   5.745  21.616  13.450
 4614W        W72944   2.335  40.979   0.865
 4615W        W72945  21.144  31.950   1.358
 4616W        W72946  28.152  28.506   0.456
 4617W        W72947  43.769  39.852  12.905
 4618W        W72948  10.312   0.872   5.202
 4619W        W72949   9.185  35.857  13.055
 4620W        W72950  38.827  20.578   1.748
 4621W        W72951  28.098  39.384   4.125
 4622W        W72952  26.124  21.165   3.748
 4623W        W72953   8.758  40.347   4.161
 4624W        W72954  13.125   5.241  14.335
 4625W        W72955   4.931  32.094   1.856
 4626W        W72956   3.348   8.743   1.256
 4627W        W72957  16.155   9.391  13.895
 4628W        W72958  17.250   7.787  13.385
 4629W        W72959  26.498  16.108   0.415
 4630W        W72960   7.821   2.726   3.744
 4631W        W72961  10.210  26.457   1.303
 4632W        W72962  42.356  10.665   2.738
 4633W        W72963  39.913  20.634  11.597
 4634W        W72964  17.307   6.827   0.292
 4635W        W72965   7.822  32.558  14.444
 4636W        W72966  42.999   1.444  14.000
 4637W        W72967   2.312  15.607   9.996
 4638W        W72968  29.455  44.767   1.253
 4639W        W72969  36.057  18.051  11.881
 4640W        W72970  39.435   4.935  10.485
 4641W        W72971  18.637   9.391   3.362
 4642W        W72972  19.182  17.167  11.914
 4643W        W72973  32.553  37.881   2.335
 4644W        W72974   6.883  42.777   0.461
 4645W        W72975   4.234  21.206  14.291
 4646W        W72976  29.455  43.881   1.783
 4647W        W72977   9.786   6.184   4.308
 4648W        W72978   3.298  33.408   4.728
 4649W        W72979   7.787  10.690  12.396
 4650W        W72980  16.076  35.450  13.871
 4651W        W72981  22.599  23.504   4.208
 4652W        W72982  36.377   1.292  10.567
 4653W        W72983  32.998   1.245  13.419
 4654W        W72984  34.425  42.416  13.980
 4655W        W72985  12.220  12.141  14.340
 4656W        W72986  21.093  10.354  12.494
 4657W        W72987  42.455  18.090  13.887
 4658W        W72988   7.230   1.359  12.010
 4659W        W72989  30.642   6.349   4.686
 4660W        W72990   8.795  44.841  10.926
 4661W        W72991   8.747  15.755   1.807
 4662W        W72992  14.753  33.512   3.667
 4663W        W72993  26.689  27.978  10.988
 4664W        W72994  18.182  37.381  14.910
 4665W        W72995   0.429   1.371   1.874
 4666W        W72996  13.251  11.168   3.681
 4667W        W72997   1.379   1.842  13.322
 4668W        W72998  15.168  44.991  11.543
 4669W        W72999   5.770  26.683  14.804
 4670W        W73000  40.462  36.088   5.167
 4671W        W73001   0.327   1.962  14.469
 4672W        W73002  19.239  23.096   9.632
 4673W        W73003   1.380  15.206  13.344
 4674W        W73004  27.491  10.735   1.210
 4675W        W73005   9.838  23.682  11.399
 4676W        W73006   6.338  33.956   1.896
 4677W        W73007   1.919  16.749   2.715
 4678W        W73008   9.221  38.930  14.961
 4679W        W73009  19.059   2.381  11.995
 4680W        W73010  28.962   4.929  14.456
 4681W        W73011   6.246  18.198  13.838
 4682W        W73012  42.860  21.600   0.335
 4683W        W73013  35.522  39.449   3.707
 4684W        W73014   3.374  15.693  11.428
 4685W        W73015  11.150  17.077   0.958
 4686W        W73016  17.290   2.279   2.717
 4687W        W73017  43.932  26.543   2.266
 4688W        W73018  25.526  31.111  10.552
 4689W        W73019  41.419   3.829   0.333
 4690W        W73020  43.380  30.085  11.450
 4691W        W73021  29.100   3.431  10.591
 4692W        W73022  19.136  20.168   2.815
 4693W        W73023   1.311   3.825   3.271
 4694W        W73024   4.772  32.902  14.486
 4695W        W73025  28.143  31.528   2.187
 4696W        W73026  44.802  27.467  12.494
 4697W        W73027  19.757  41.011  10.897
 4698W        W73028   1.309  14.217   3.863
 4699W        W73029  37.572   4.369  12.934
 4700W        W73030  36.018   2.398  14.457
 4701W        W73031  31.910   8.335   1.934
 4702W        W73032   9.338  38.386   3.371
 4703W        W73033   2.771  35.890   4.188
 4704W        W73034   5.303  10.729   1.365
 4705W        W73035  28.122  19.087   2.245
 4706W        W73036  15.120  14.724   4.712
 4707W        W73037  37.862  43.408   0.339
 4708W        W73038  39.926  22.724  13.490
 4709W        W73039  25.077   3.365   2.289
 4710W        W73040  39.527  44.879   1.264
 4711W        W73041   0.949   4.878  14.453
 4712W        W73042  35.935   2.939  13.405
 4713W        W73043  34.409  36.937  12.858
 4714W        W73044   5.222  29.936  11.976
 4715W        W73045  39.496   2.314  14.969
 4716W        W73046  43.397  23.569   1.380
 4717W        W73047  38.462  30.952  11.961
 4718W        W73048  34.988  22.029   4.639
 4719W        W73049   8.284  36.053   2.319
 4720W        W73050  16.790  17.588   2.767
 4721W        W73051   2.777  32.564  12.497
 4722W        W73052  41.485  32.063   2.262
 4723W        W73053  20.215  26.464   9.972
 4724W        W73054  41.976  41.016  13.816
 4725W        W73055   5.317  18.672  14.000
 4726W        W73056  17.074   6.806   4.314
 4727W        W73057  21.069  25.554  12.040
 4728W        W73058  22.183  41.455  13.935
 4729W        W73059  32.090  43.270  14.301
 4730W        W73060  19.133   5.364  12.058
 4731W        W73061   7.805  29.954  10.629
 4732W        W73062   5.268  10.154   3.258
 4733W        W73063  31.018   8.328  10.895
 4734W        W73064  32.134  26.490  12.059
 4735W        W73065   8.299  36.051   4.114
 4736W        W73066   4.829   0.937   3.849
 4737W        W73067  35.530  11.206   2.215
 4738W        W73068   0.446  24.685  13.432
 4739W        W73069   5.809  44.878   0.895
 4740W        W73070  42.352  19.248   3.735
 4741W        W73071  35.101  32.624  13.859
 4742W        W73072  15.824   5.812   1.212
 4743W        W73073   3.764   8.695   3.323
 4744W        W73074  24.661  22.713  11.857
 4745W        W73075  40.827   2.921   0.265
 4746W        W73076  16.607   2.789   0.850
 4747W        W73077  28.076  13.774   2.742
 4748W        W73078  11.847   0.894   3.773
 4749W        W73079  20.696  26.576  12.943
 4750W        W73080   2.230  40.427  13.012
 4751W        W73081  35.021  27.622  11.576
 4752W        W73082  40.882   1.752  13.863
 4753W        W73083  23.622  16.801   1.702
 4754W        W73084   9.235   3.808   2.335
 4755W        W73085   1.436  18.287  14.901
 4756W        W73086   7.366  36.037  11.474
 4757W        W73087  20.619   5.267  11.550
 4758W        W73088  10.834  40.547   1.283
 4759W        W73089  23.005  31.461   3.669
 4760W        W73090  29.622  32.560  12.454
 4761W        W73091  40.858   9.335  10.596
 4762W        W73092   2.432   2.904   3.649
 4763W        W73093   7.672  12.774  10.638
 4764W        W73094  12.743  15.162   2.807
 4765W        W73095  12.216  32.598   3.366
 4766W        W73096  26.037  41.459  14.354
 4767W        W73097  25.188  34.029   0.965
 4768W        W73098  13.840  23.504   1.289
 4769W        W73099  39.492  19.092  10.948
 4770W        W73100   9.211   7.908  14.440
 4771W        W73101  20.053  42.784  14.308
 4772W        W73102  19.547  14.220  10.495
 4773W        W73103  37.541  29.088  14.451
 4774W        W73104  17.079  15.760   4.317
 4775W        W73105  15.773  44.984   4.772
 4776W        W73106   6.699  11.686  13.864
 4777W        W73107   5.876  21.534  10.925
 4778W        W73108  37.342  30.913  13.326
 4779W        W73109  43.989  30.446  12.006
 4780W        W73110   7.671  29.159  12.410
 4781W        W73111  33.581  18.131   0.871
 4782W        W73112  15.308  32.044   0.774
 4783W        W73113   8.183   0.302   3.785
 4784W        W73114  15.228  37.547   1.808
 4785W        W73115  38.878  33.913   4.692
 4786W        W73116  33.570   0.443  13.029
 4787W        W73117  28.607  37.009   1.915
 4788W        W73118   7.228  12.694  11.450
 4789W        W73119  25.638  11.861  12.500
 4790W        W73120  11.810  32.513   1.390
 4791W        W73121  43.973   1.966   2.281
 4792W        W73122   7.314  20.703  13.034
 4793W        W73123  25.984   5.307   2.806
 4794W        W73124  31.919  40.340   1.819
 4795W        W73125   7.722  43.816   4.677
 4796W        W73126  32.955  27.179  14.803
 4797W        W73127  34.435  24.648   4.819
 4798W        W73128  40.538  23.178  11.378
 4799W        W73129  14.330  22.182   3.364
 4800W        W73130  32.576  35.004   4.685
 4801W        W73131  41.037  17.558   2.335
 4802W        W73132   9.348  40.976  14.330
 4803W        W73133  33.573   6.288   4.707
 4804W        W73134   9.372  34.469   3.259
 4805W        W73135  24.724  33.506   2.857
 4806W        W73136   4.818   2.773   3.824
 4807W        W73137  14.162  11.666  12.872
 4808W        W73138   0.855  40.914   2.738
 4809W        W73139   6.334  40.818  11.881
 4810W        W73140  37.556  24.186  14.278
 4811W        W73141  26.610   9.723  11.861
 4812W        W73142  28.440  42.805  13.521
 4813W        W73143   5.881  37.559  10.918
 4814W        W73144  11.724  38.936  12.924
 4815W        W73145  30.069  14.677   2.792
 4816W        W73146  24.605  16.079   0.400
 4817W        W73147   3.224  15.234   0.823
 4818W        W73148  24.601   5.794  14.826
 4819W        W73149  18.127  22.183   5.674
 4820W        W73150   5.273  30.018  12.545
 4821W        W73151  24.653  38.918  14.817
 4822W        W73152  17.288  36.451  10.015
 4823W        W73153  25.553  26.670  10.573
 4824W        W73154  23.181   1.973   2.291
 4825W        W73155   8.377  11.660   4.136
 4826W        W73156  30.108  22.086   0.767
 4827W        W73157  36.404  31.048   2.772
 4828W        W73158  24.169   4.444  10.634
 4829W        W73159  31.591  11.687  13.952
 4830W        W73160  26.110  42.450  12.905
 4831W        W73161  35.897  13.341  11.544
 4832W        W73162  16.578  32.929   4.214
 4833W        W73163  10.760  27.132   3.798
 4834W        W73164  15.769  42.018   1.772
 4835W        W73165   6.373  22.020  14.868
 4836W        W73166  19.748  34.432   4.829
 4837W        W73167  29.930  13.618  12.441
 4838W        W73168   1.924  35.012   3.211
 4839W        W73169  31.075   2.955  12.348
 4840W        W73170  42.961  28.100   1.272
 4841W        W73171  18.644  29.429   1.845
 4842W        W73172   3.339   0.398   3.801
 4843W        W73173   3.835  22.168   3.195
 4844W        W73174   9.726  42.870   2.790
 4845W        W73175  42.319   0.936   4.197
 4846W        W73176  24.025  43.338  13.528
 4847W        W73177  34.078  40.917   4.248
 4848W        W73178  13.717  33.474  12.839
 4849W        W73179   2.399   2.746   1.897
 4850W        W73180  16.078  29.615  10.067
 4851W        W73181  24.486  34.416  11.859
 4852W        W73182  27.556   7.236  13.500
 4853W        W73183  38.384   9.355  11.868
 4854W        W73184  26.021  11.776   1.796
 4855W        W73185  24.577   2.871  12.038
 4856W        W73186  33.554  33.883  12.883
 4857W        W73187  44.001  37.966   4.837
 4858W        W73188  14.636  28.082   0.328
 4859W        W73189  41.904   4.701   1.257
 4860W        W73190   8.238  21.724  14.839
 4861W        W73191  42.510  33.468  10.923
 4862W        W73192   3.258  15.305  10.064
 4863W        W73193  31.473  35.081   0.287
 4864W        W73194  25.681  33.128   1.360
 4865W        W73195  32.548  30.530  14.764
 4866W        W73196   2.396  12.622  11.013
 4867W        W73197  32.450  21.697   9.497
 4868W        W73198   0.387  13.322  12.049
 4869W        W73199  33.482   1.363  12.857
 4870W        W73200  19.199   3.273  11.061
 4871W        W73201  14.604  10.760   3.735
 4872W        W73202   8.787  41.354   1.852
 4873W        W73203  21.517  17.573   1.913
 4874W        W73204  12.748  20.042  14.452
 4875W        W73205  19.652   7.756   0.314
 4876W        W73206  14.758  41.458   1.250
 4877W        W73207  16.262   2.856  11.086
 4878W        W73208  36.848  29.667  14.302
 4879W        W73209   8.315  21.743  11.566
 4880W        W73210  10.214  27.131  13.856
 4881W        W73211  39.345  15.614  14.781
 4882W        W73212  32.437   5.243   2.765
 4883W        W73213  17.796  12.358   1.349
 4884W        W73214  22.122   2.375  10.426
 4885W        W73215  35.511   2.923   3.149
 4886W        W73216  41.043   8.254   5.126
 4887W        W73217   1.377   8.165   2.186
 4888W        W73218  32.628   8.333   3.696
 4889W        W73219  18.132  36.443  11.020
 4890W        W73220   0.296   7.184   4.674
 4891W        W73221  32.101  34.575   4.829
 4892W        W73222   1.870  27.449   1.314
 4893W        W73223  12.331  31.052   0.453
 4894W        W73224  34.892  25.513   2.805
 4895W        W73225  19.076  19.150   3.363
 4896W        W73226  17.788  10.742   1.778
 4897W        W73227  16.784  20.180  12.993
 4898W        W73228  31.124  39.517   3.160
 4899W        W73229  18.208   9.255   2.793
 4900W        W73230  44.940   9.371   1.824
 4901W        W73231  35.543  16.643   3.170
 4902W        W73232  30.535  20.082  12.548
 4903W        W73233  27.005  33.491  14.500
 4904W        W73234  41.506   4.848  11.453
 4905W        W73235  12.339  17.693  10.573
 4906W        W73236  14.795  44.893  13.907
 4907W        W73237  31.482  34.038   3.778
 4908W        W73238  35.043  13.265  14.423
 4909W        W73239  26.544  22.727  13.918
 4910W        W73240  36.458  16.251  12.344
 4911W        W73241  13.145  38.984  12.349
 4912W        W73242   4.314   0.387  12.075
 4913W        W73243  40.418  20.226   1.282
 4914W        W73244  41.917  14.216   3.715
 4915W        W73245  32.899  25.137   4.170
 4916W        W73246  17.610  23.576   1.375
 4917W        W73247  18.764   3.775   1.722
 4918W        W73248  36.935  21.166  12.579
 4919W        W73249   0.251  41.358  14.932
 4920W        W73250  29.578   5.273  14.330
 4921W        W73251  16.153  18.734   4.143
 4922W        W73252  34.879   7.203   0.961
 4923W        W73253  21.531  16.681   3.662
 4924W        W73254  20.688  43.309   0.817
 4925W        W73255   3.872   1.956   4.751
 4926W        W73256  17.121  16.692   2.371
 4927W        W73257   8.887  21.585   0.862
 4928W        W73258  37.995  11.321  11.974
 4929W        W73259   2.751  17.643   4.273
 4930W        W73260   0.308  28.080   0.903
 4931W        W73261  12.655  44.981   0.930
 4932W        W73262  32.092  33.891  13.024
 4933W        W73263  32.631  43.272   1.417
 4934W        W73264  27.691  28.491  13.365
 4935W        W73265   1.346  23.185  13.824
 4936W        W73266   3.777  40.389  14.844
 4937W        W73267  31.042   7.388   2.686
 4938W        W73268  33.444   9.366   2.347
 4939W        W73269  30.590  44.448  14.323
 4940W        W73270  23.030   2.765   4.232
 4941W        W73271  31.493  13.673  14.781
 4942W        W73272   8.811  24.023  10.995
 4943W        W73273  28.064  41.310   2.374
 4944W        W73274  42.954  35.540   0.844
 4945W        W73275  11.834  14.327   4.216
 4946W        W73276   7.891  30.997  11.916
 4947W        W73277   2.939  38.464   1.806
 4948W        W73278  37.456  23.040   1.348
 4949W        W73279   7.721  35.857  10.985
 4950W        W73280   3.417  15.682   0.956
 4951W        W73281  18.587   2.883   2.345
 4952W        W73282  14.597  38.502   1.350
 4953W        W73283  29.564  12.255   0.458
 4954W        W73284   3.941  22.046  11.440
 4955W        W73285  35.510  17.571  12.055
 4956W        W73286  39.555  25.979   0.464
 4957W        W73287  21.124  11.280   1.905
 4958W        W73288  39.937  33.400   4.683
 4959W        W73289  32.553  10.746   1.285
 4960W        W73290  19.098  19.736   3.228
 4961W        W73291  17.248  28.140   1.893
 4962W        W73292  11.183   4.275  12.836
 4963W        W73293  28.965   0.449   0.245
 4964W        W73294  21.662  10.369   1.297
 4965W        W73295  26.602   7.240   5.138
 4966W        W73296  12.651  29.959  12.563
 4967W        W73297  30.912   5.914  14.800
 4968W        W73298  17.206  23.146   3.719
 4969W        W73299  19.098   2.323  10.602
 4970W        W73300   8.670  31.145   2.336
 4971W        W73301  28.959  30.469  12.982
 4972W        W73302  37.466  15.263  12.353
 4973W        W73303  35.532  11.754   3.714
 4974W        W73304  37.001  14.227  11.449
 4975W        W73305  17.105  39.444  12.886
 4976W        W73306   0.326  44.310  10.442
 4977W        W73307  41.321  25.561  12.083
 4978W        W73308  30.605   9.187  13.872
 4979W        W73309  29.957   0.290  12.018
 4980W        W73310  30.486  30.548  12.905
 4981W        W73311  29.592  41.813  11.046
 4982W        W73312  27.499  18.108  11.436
 4983W        W73313  34.604  21.180  14.870
 4984W        W73314  33.050  18.572   3.791
 4985W        W73315  28.064  39.457  14.390
 4986W        W73316  31.495  36.077  10.452
 4987W        W73317  28.664  31.633   0.289
 4988W        W73318   4.920  41.946   4.333
 4989W        W73319  26.960  28.975  12.392
 4990W        W73320  42.951  10.173   0.369
 4991W        W73321  27.494  10.849   4.127
 4992W        W73322  30.989  26.001  13.818
 4993W        W73323  35.069   5.887   3.630
 4994W        W73324  43.768  38.839   2.370
 4995W        W73325  17.757  37.024   3.804
 4996W        W73326  21.130   6.795  10.030
 4997W        W73327   1.347  21.628  14.290
 4998W        W73328  36.948  17.233  14.483
 4999W        W73329  17.113   1.792  12.999
 5000W        W73330   2.329  37.348  12.530
 5001W        W73331  19.243  24.094  11.087
 5002W        W73332  42.445  44.951   4.714
 5003W        W73333  14.789  44.282  13.854
 5004W        W73334  20.714  34.424  12.010
 5005W        W73335  42.887  19.747   2.739
 5006W        W73336   9.329  42.451  11.068
 5007W        W73337  43.967  18.186   4.683
 5008W        W73338  37.885   6.918  13.352
 5009W        W73339  26.660  11.651  11.119
 5010W        W73340   8.373  16.134  10.944
 5011W        W73341  36.587  37.010  11.415
 5012W        W73342  32.941  19.626  12.432
 5013W        W73343  33.081   9.331   3.698
 5014W        W73344  32.453  19.058  12.077
 5015W        W73345  40.420  14.728  12.560
 5016W        W73346  21.158   7.755  12.972
 5017W        W73347   4.792  19.043  12.442
 5018W        W73348  27.102   9.769   0.342
 5019W        W73349  20.701  31.951   0.749
 5020W        W73350  14.255   8.378   4.137
 5021W        W73351  19.121  39.318   1.435
 5022W        W73352   7.252  25.033   3.228
 5023W        W73353   9.192   8.788   0.437
 5024W        W73354  37.847  38.846  10.129
 5025W        W73355  36.012  42.515   0.779
 5026W        W73356  35.069   9.154   0.336
 5027W        W73357  32.030  42.984  10.595
 5028W        W73358  31.456  39.003  11.034
 5029W        W73359  29.486  10.230  13.946
 5030W        W73360  13.273  35.442   0.793
 5031W        W73361  28.498  20.744  10.440
 5032W        W73362  13.254  44.906  12.366
 5033W        W73363  39.976  31.954   1.389
 5034W        W73364  26.534   4.815   3.711
 5035W        W73365  40.919  11.679   0.333
 5036W        W73366  15.137  29.945   1.233
 5037W        W73367  26.604  16.122  11.951
 5038W        W73368  43.889  12.745  10.962
 5039W        W73369   5.814  28.557  11.560
 5040W        W73370  31.939  43.979  14.448
 5041W        W73371  37.471  27.038  10.623
 5042W        W73372  11.262  37.356  13.801
 5043W        W73373   7.268  25.114   1.338
 5044W        W73374  29.443  38.501   2.695
 5045W        W73375  30.059  15.266  10.565
 5046W        W73376   4.297  31.502   4.303
 5047W        W73377  16.274  22.536   9.922
 5048W        W73378  34.575  17.772  10.588
 5049W        W73379  33.945  10.865   2.757
 5050W        W73380  12.664  38.973   4.806
 5051W        W73381  20.182  18.740  10.952
 5052W        W73382   0.917  31.626  13.504
 5053W        W73383   1.452  24.114  12.373
 5054W        W73384   6.743  20.762  13.385
 5055W        W73385  27.537  24.124   3.329
 5056W        W73386  40.513  25.583  10.631
 5057W        W73387   3.234  44.272  13.378
 5058W        W73388   6.683  12.696   3.282
 5059W        W73389  33.986  40.335   3.166
 5060W        W73390   6.806  17.109  12.425
 5061W        W73391  40.517  37.346   3.270
 5062W        W73392  24.218  21.167  14.354
 5063W        W73393  29.465  38.420  10.940
 5064W        W73394  23.543  44.973  10.613
 5065W        W73395  41.798  26.058  14.406
 5066W        W73396  14.833  34.508   3.746
 5067W        W73397  19.061  29.014  10.469
 5068W        W73398   3.414  34.974  11.918
 5069W        W73399  29.091  36.583  10.575
 5070W        W73400  21.070   0.401  14.959
 5071W        W73401   9.876  15.818   2.298
 5072W        W73402   4.327  43.290   1.260
 5073W        W73403  35.016   0.976   4.244
 5074W        W73404  40.010  26.671  11.589
 5075W        W73405   8.833  10.826   0.799
 5076W        W73406  18.195  27.989   3.295
 5077W        W73407  44.987  11.859  13.820
 5078W        W73408  37.353  40.465   0.881
 5079W        W73409  24.668   7.673  14.284
 5080W        W73410  10.700  42.777  12.846
 5081W        W73411   4.706  36.570   5.750
 5082W        W73412  10.676  28.657  10.418
 5083W        W73413  30.113  34.419   4.212
 5084W        W73414   8.189  40.830   1.327
 5085W        W73415   4.912   8.374   4.660
 5086W        W73416  27.064  15.653   3.314
 5087W        W73417   9.827  32.984  14.760
 5088W        W73418  34.466   5.384   1.326
 5089W        W73419  40.027  32.637  11.994
 5090W        W73420  15.115  41.978  12.517
 5091W        W73421  39.890  14.140  10.415
 5092W        W73422  32.068  15.716  10.621
 5093W        W73423  26.673  38.895   2.311
 5094W        W73424  42.979  12.291  11.911
 5095W        W73425  33.889   7.698   0.749
 5096W        W73426  29.050   8.366   1.426
 5097W        W73427  35.925  27.654  11.457
 5098W        W73428  30.923  12.173  11.600
 5099W        W73429  23.072  26.675   2.284
 5100W        W73430  29.071  35.871   2.792
 5101W        W73431  17.683  19.571  12.508
 5102W        W73432   6.313  39.984  11.484
 5103W        W73433  44.906   4.214  13.324
 5104W        W73434   2.444   9.757   3.706
 5105W        W73435  40.434  34.039  13.393
 5106W        W73436  26.689   9.342   4.160
 5107W        W73437  41.029  36.068   1.767
 5108W        W73438  39.552   5.320   5.622
 5109W        W73439  35.927   5.333   2.329
 5110W        W73440   8.700  13.156  14.864
 5111W        W73441  24.552  17.786  14.794
 5112W        W73442  13.178  25.975  13.888
 5113W        W73443   8.179  33.917   2.689
 5114W        W73444  26.641   0.871  13.839
 5115W        W73445  15.250  18.089  13.476
 5116W        W73446   9.810  28.457   2.727
 5117W        W73447  34.538  25.614  10.539
 5118W        W73448  38.555  35.407  14.908
 5119W        W73449   2.247  17.147  12.383
 5120W        W73450  29.635  28.657  10.949
 5121W        W73451  14.791  32.622   3.771
 5122W        W73452  26.506  35.954   2.751
 5123W        W73453  35.556  26.153   1.900
 5124W        W73454  44.830  27.131   4.767
 5125W        W73455   8.343  31.072   1.350
 5126W        W73456  35.453  29.151  11.094
 5127W        W73457  42.302   1.270   3.171
 5128W        W73458  13.205  39.388  11.868
 5129W        W73459  28.620  43.317   4.282
 5130W        W73460  30.471  15.732   2.794
 5131W        W73461   3.759  18.155   3.759
 5132W        W73462  24.105  17.280  14.317
 5133W        W73463  30.040  11.807  10.639
 5134W        W73464  41.296   5.352   4.308
 5135W        W73465  40.484  17.092  10.078
 5136W        W73466  18.615  12.136  10.927
 5137W        W73467  20.721  16.580   9.546
 5138W        W73468   0.370  43.278  14.429
 5139W        W73469  10.840  32.612  12.380
 5140W        W73470  27.172   6.814  10.970
 5141W        W73471  11.227  34.078  12.909
 5142W        W73472   7.834  32.021  13.379
 5143W        W73473   4.315  41.440   2.821
 5144W        W73474  41.398  11.866  14.403
 5145W        W73475  43.366   3.378   1.846
 5146W        W73476  21.549  11.634   3.327
 5147W        W73477   1.474   3.803   4.144
 5148W        W73478  29.604  10.676  13.470
 5149W        W73479  14.183  22.170  13.819
 5150W        W73480  10.320   4.317   3.860
 5151W        W73481  31.129  26.631   4.158
 5152W        W73482  44.777  20.691  14.990
 5153W        W73483  44.283  44.916  11.377
 5154W        W73484  22.016  30.019   4.812
 5155W        W73485  10.796  37.955  14.783
 5156W        W73486  16.186  28.620  14.372
 5157W        W73487  18.694  42.848   1.256
 5158W        W73488   1.812  22.735   1.270
 5159W        W73489  28.472  26.073  11.469
 5160W        W73490   0.317  10.328   4.605
 5161W        W73491  17.189  10.811  11.956
 5162W        W73492  41.815  36.384  12.518
 5163W        W73493  27.178  14.807   1.712
 5164W        W73494  35.899  14.203   2.863
 5165W        W73495   1.395  20.526  13.019
 5166W        W73496  39.986  37.553  11.957
 5167W        W73497  23.088  22.219  10.933
 5168W        W73498  37.461  28.179   3.356
 5169W        W73499   5.848  30.972   2.349
 5170W        W73500  38.917  29.133   0.324
 5171W        W73501  18.599  31.417   3.146
 5172W        W73502  22.217   7.884   4.616
 5173W        W73503   1.244  33.127  11.525
 5174W        W73504  17.084  17.215   3.869
 5175W        W73505  14.236  20.223  12.914
 5176W        W73506  15.211  23.576   4.703
 5177W        W73507  22.741  12.834   2.313
 5178W        W73508  30.615  20.755   4.142
 5179W        W73509  38.378  16.255  12.873
 5180W        W73510  26.105  29.920   0.865
 5181W        W73511  44.883  12.296   4.151
 5182W        W73512   1.970  42.974  10.953
 5183W        W73513  16.212  14.332   1.293
 5184W        W73514  26.107  44.350  12.475
 5185W        W73515   5.749  40.950  14.879
 5186W        W73516  13.835   3.223   2.406
 5187W        W73517  36.957   1.776  11.968
 5188W        W73518  33.118  24.110   3.861
 5189W        W73519   3.925  31.521   3.279
 5190W        W73520  27.587  44.907   1.728
 5191W        W73521  25.212  32.573  13.804
 5192W        W73522  33.026  28.569   2.811
 5193W        W73523  32.439  24.638   2.419
 5194W        W73524  43.011  37.908   4.195
 5195W        W73525  17.578  39.524   3.214
 5196W        W73526  16.203  25.631  12.560
 5197W        W73527  44.968  23.516  14.484
 5198W        W73528  30.004   1.858   3.333
 5199W        W73529   5.711   0.858   0.476
 5200W        W73530  30.027  41.856   2.713
 5201W        W73531  10.644  25.494   2.263
 5202W        W73532   6.293   6.300  12.385
 5203W        W73533  31.424  19.274  11.912
 5204W        W73534  10.179  11.188   3.826
 5205W        W73535  16.595  22.684   1.834
 5206W        W73536  12.818  17.710   4.332
 5207W        W73537  38.922  13.843  10.547
 5208W        W73538  27.494   8.857   2.251
 5209W        W73539   3.827  35.464  11.999
 5210W        W73540   2.833  27.953   1.438
 5211W        W73541  34.455  29.919  13.505
 5212W        W73542  12.755  28.082  10.914
 5213W        W73543  11.154  42.380  10.904
 5214W        W73544  42.931  28.134  11.126
 5215W        W73545  27.117   1.897   0.423
 5216W        W73546   2.249   8.765  13.420
 5217W        W73547   0.350  11.300  10.532
 5218W        W73548  43.780  35.995  11.898
 5219W        W73549  29.144   3.302  14.278
 5220W        W73550   9.648  27.016  14.806
 5221W        W73551  43.422  24.012   2.804
 5222W        W73552  27.132  27.597   1.848
 5223W        W73553  15.767  44.290   5.266
 5224W        W73554  33.392  33.062   1.276
 5225W        W73555  25.690  30.430   0.917
 5226W        W73556  38.857  14.731   0.295
 5227W        W73557   8.686   3.766  10.918
 5228W        W73558  33.415  38.527   3.793
 5229W        W73559   8.655   5.904  11.872
 5230W        W73560  20.592   3.359   0.964
 5231W        W73561  43.511   1.275  14.785
 5232W        W73562   2.281  36.023  14.474
 5233W        W73563  33.041   9.159  13.992
 5234W        W73564  17.743   1.293  12.374
 5235W        W73565  41.469  32.636  12.035
 5236W        W73566  29.475  42.460   3.167
 5237W        W73567  13.118  39.870  13.462
 5238W        W73568  13.629  28.642  14.328
 5239W        W73569  36.991  26.191  11.115
 5240W        W73570  30.157  20.274  12.416
 5241W        W73571   6.368  38.461   3.353
 5242W        W73572  24.504   6.680  13.514
 5243W        W73573  33.120  29.973   3.816
 5244W        W73574  40.918  15.756   1.417
 5245W        W73575  43.408  31.109   0.380
 5246W        W73576  35.931  24.602   1.766
 5247W        W73577  11.854  19.212  13.445
 5248W        W73578  13.749   2.232  12.076
 5249W        W73579  18.657  39.537   3.188
 5250W        W73580  38.402  38.556   1.429
 5251W        W73581  17.785  13.660   1.816
 5252W        W73582  33.918  22.093   2.664
 5253W        W73583  39.502  30.056  14.364
 5254W        W73584  27.072  38.411   4.220
 5255W        W73585  41.366  18.645  13.429
 5256W        W73586  20.731   6.409   2.769
 5257W        W73587  19.059  29.120   5.764
 5258W        W73588  23.581  36.449  14.378
 5259W        W73589  14.144  41.461   0.859
 5260W        W73590  36.078  31.589  13.455
 5261W        W73591   1.273  10.353   3.810
 5262W        W73592   5.884   5.315  13.465
 5263W        W73593   6.794  26.057   2.698
 5264W        W73594  40.969  25.036  14.444
 5265W        W73595  15.815  23.497   3.338
 5266W        W73596   3.426   7.817  10.992
 5267W        W73597   6.281  10.146  11.474
 5268W        W73598  39.992   1.445   3.652
 5269W        W73599  22.154  33.108   4.628
 5270W        W73600  20.162  18.245  10.946
 5271W        W73601  42.793  12.696   3.682
 5272W        W73602  23.084  29.440  14.333
 5273W        W73603  39.533   9.732  13.901
 5274W        W73604  18.223  24.088   3.693
 5275W        W73605  24.212   0.430  14.406
 5276W        W73606   3.751  18.102  13.501
 5277W        W73607  41.837   6.846  14.416
 5278W        W73608  23.008  31.005  14.501
 5279W        W73609  32.025  43.368   0.261
 5280W        W73610  11.857   8.732   4.331
 5281W        W73611  26.579  12.176  10.975
 5282W        W73612  30.919  15.820  13.390
 5283W        W73613  19.544  27.479  12.540
 5284W        W73614  29.014  19.714  12.446
 5285W        W73615   1.447  35.865   2.897
 5286W        W73616  12.120  42.852  12.035
 5287W        W73617   3.299  15.688  13.414
 5288W        W73618  44.268  12.313   2.794
 5289W        W73619  22.679  19.698  13.394
 5290W        W73620  36.858   1.854   2.882
 5291W        W73621  37.416   7.696   3.704
 5292W        W73622  20.200  17.077   4.628
 5293W        W73623   9.309  17.158   0.368
 5294W        W73624  37.410  13.633  10.620
 5295W        W73625   7.192  38.835  13.967
 5296W        W73626   7.786  41.895   3.706
 5297W        W73627  37.422  25.078  10.027
 5298W        W73628  12.174  23.989  14.802
 5299W        W73629  10.155   7.395   0.425
 5300W        W73630   8.761   9.235  13.961
 5301W        W73631  31.113  14.785  10.577
 5302W        W73632  28.070   8.282  10.905
 5303W        W73633  19.135  36.095  13.032
 5304W        W73634  44.941  33.407   2.886
 5305W        W73635   8.264  34.600   4.782
 5306W        W73636  10.335  16.197   1.755
 5307W        W73637  25.989   3.840   3.300
 5308W        W73638   4.835  14.095  14.315
 5309W        W73639  20.658  35.000   4.321
 5310W        W73640  16.252  12.649   1.233
 5311W        W73641  19.736  20.765  10.580
 5312W        W73642  11.866  28.643  12.004
 5313W        W73643   6.245  43.469  10.629
 5314W        W73644  29.040   9.701   0.827
 5315W        W73645  27.025  44.408   0.349
 5316W        W73646   2.852  31.592   2.273
 5317W        W73647  31.429   6.910  11.501
 5318W        W73648  41.363  41.900  10.617
 5319W        W73649   8.320   3.216   2.202
 5320W        W73650  18.617  41.892  11.961
 5321W        W73651   1.819  44.270  11.954
 5322W        W73652  20.546  31.974   2.819
 5323W        W73653  11.625  13.286   3.201
 5324W        W73654  15.215  43.445   1.355
 5325W        W73655   8.718  37.947   3.307
 5326W        W73656  15.209  23.085   4.812
 5327W        W73657   7.408  32.024  10.415
 5328W        W73658  13.630   6.790   3.227
 5329W        W73659  21.591   0.784   0.349
 5330W        W73660   3.221   1.768  14.944
 5331W        W73661  13.759  10.849   1.395
 5332W        W73662  37.424   3.853  12.961
 5333W        W73663  17.216  15.814   4.630
 5334W        W73664  15.092   3.250   1.790
 5335W        W73665  42.851  15.224   0.292
 5336W        W73666  42.845   2.903  13.959
 5337W        W73667  43.776  11.787   1.768
 5338W        W73668  44.284  17.070  11.894
 5339W        W73669  29.492  26.603  13.380
 5340W        W73670  42.807  15.224   1.733
 5341W        W73671  38.940  15.692   2.889
 5342W        W73672   7.801  18.175   4.290
 5343W        W73673   5.327  15.656   4.319
 5344W        W73674   6.375  24.150   1.326
 5345W        W73675   3.430  41.003   0.444
 5346W        W73676  15.648  28.051  10.584
 5347W        W73677  28.082  34.550   0.775
 5348W        W73678  41.491  40.908  12.056
 5349W        W73679  11.692  10.262   0.295
 5350W        W73680  39.376   2.793  12.871
 5351W        W73681   6.711  13.278  10.626
 5352W        W73682  41.525  17.082  12.513
 5353W        W73683  23.609  40.910  14.823
 5354W        W73684  29.508  44.493   4.221
 5355W        W73685   0.452   9.356  14.853
 5356W        W73686  29.608   8.217   3.235
 5357W        W73687  13.627  30.986  12.973
 5358W        W73688  10.725  25.594   0.736
 5359W        W73689  23.521  36.470  13.350
 5360W        W73690  40.406   1.932   1.905
 5361W        W73691   1.454   8.337  11.097
 5362W        W73692  32.562  41.364  13.418
 5363W        W73693  14.767  44.875   3.251
 5364W        W73694   0.841  18.202  12.990
 5365W        W73695   3.412  38.075  11.551
 5366W        W73696  35.450  28.577  14.347
 5367W        W73697   5.882  22.637  13.950
 5368W        W73698  37.057   6.913  14.003
 5369W        W73699  35.108  30.062   4.668
 5370W        W73700   1.748  42.927  12.070
 5371W        W73701  36.387  21.562  11.454
 5372W        W73702  25.171  35.001   3.710
 5373W        W73703  14.108   6.302  13.932
 5374W        W73704  17.165  35.589  10.617
 5375W        W73705  38.568   8.174   2.851
 5376W        W73706  39.943   5.246   5.142
 5377W        W73707   7.261  16.151  14.389
 5378W        W73708  14.127  30.957   3.830
 5379W        W73709  26.155  14.215  12.459
 5380W        W73710  39.456   1.873   1.316
 5381W        W73711  14.703  25.599  11.017
 5382W        W73712   8.709  18.662   3.326
 5383W        W73713  37.492  22.527  11.972
 5384W        W73714  37.910  25.643   3.805
 5385W        W73715  21.624   4.890   2.373
 5386W        W73716  16.155  21.097   0.868
 5387W        W73717  42.958   2.771   4.203
 5388W        W73718  14.130  11.829  11.070
 5389W        W73719  34.087  12.732   1.254
 5390W        W73720  15.325  14.702  11.075
 5391W        W73721   0.809  23.085  14.814
 5392W        W73722  13.684  32.051  12.526
 5393W        W73723  34.429  27.609   4.691
 5394W        W73724  18.112  40.979  11.595
 5395W        W73725  13.775  38.854  14.770
 5396W        W73726  22.616  27.509   0.818
 5397W        W73727  19.561  28.940  13.376
 5398W        W73728  21.073  42.845  12.952
 5399W        W73729   1.931   2.335   4.693
 5400W        W73730  44.480  18.617   4.787
 5401W        W73731  30.434  42.815   3.761
 5402W        W73732  43.820  10.792  11.408
 5403W        W73733  36.449   8.323  13.841
 5404W        W73734  32.455  29.067   4.784
 5405W        W73735  41.938  18.716   0.433
 5406W        W73736  23.560  19.688  10.978
 5407W        W73737  12.845   7.867  13.468
 5408W        W73738   9.808  39.000  10.581
 5409W        W73739  25.547   6.313   2.760
 5410W        W73740  19.135  34.470   4.179
 5411W        W73741  20.547  13.149  11.084
 5412W        W73742  16.072   9.159   2.315
 5413W        W73743  35.415   0.979   3.644
 5414W        W73744   1.336  32.977  12.989
 5415W        W73745  27.530  41.845   0.467
 5416W        W73746  43.875   2.422   3.827
 5417W        W73747  30.160  44.286   4.204
 5418W        W73748  13.136  39.333  13.461
 5419W        W73749  26.079  27.126  11.427
 5420W        W73750  29.603  43.955  13.328
 5421W        W73751   2.344  44.935   4.196
 5422W        W73752  44.852   0.850   2.841
 5423W        W73753  34.884  44.879   0.759
 5424W        W73754  28.459  19.202   2.263
 5425W        W73755  26.188  28.962  13.825
 5426W        W73756   4.413  26.493   4.726
 5427W        W73757  29.146   6.279  12.532
 5428W        W73758   3.919  37.500   4.236
 5429W        W73759  13.809   0.885  11.102
 5430W        W73760  43.808  29.934  12.924
 5431W        W73761  25.478   7.796  12.008
 5432W        W73762  23.583  41.477   2.215
 5433W        W73763  14.738  24.093   1.336
 5434W        W73764  15.765  22.162   4.125
 5435W        W73765   9.786   8.664   2.272
 5436W        W73766  39.456   7.416   4.824
 5437W        W73767  31.573  16.611   2.812
 5438W        W73768  36.032  30.944   3.757
 5439W        W73769  33.491  27.121  12.567
 5440W        W73770   2.848  29.538   3.842
 5441W        W73771  23.649  43.870   3.725
 5442W        W73772  21.262   8.400   4.120
 5443W        W73773   9.208   1.912  14.504
 5444W        W73774  30.125  41.996  13.455
 5445W        W73775  35.964   0.301   1.737
 5446W        W73776  35.869  43.017  10.939
 5447W        W73777  39.996  41.903  14.456
 5448W        W73778  36.593   7.813  14.438
 5449W        W73779  40.919   3.931   4.327
 5450W        W73780   1.417   5.421  13.959
 5451W        W73781  22.043  33.604  13.831
 5452W        W73782  23.126  17.763   9.652
 5453W        W73783  16.149   5.398   3.235
 5454W        W73784  35.583   0.848   4.635
 5455W        W73785  14.633  26.120  14.950
 5456W        W73786  30.036  35.570  13.829
 5457W        W73787  20.123  33.031  13.903
 5458W        W73788   0.403  31.445  10.508
 5459W        W73789   3.828  41.978  11.083
 5460W        W73790  42.858   1.370  10.977
 5461W        W73791  17.069  16.767   1.341
 5462W        W73792  31.902  36.367  12.849
 5463W        W73793  23.073  13.829   0.801
 5464W        W73794   0.853  28.556   0.322
 5465W        W73795  10.163   8.228  14.317
 5466W        W73796  29.973   2.408  12.002
 5467W        W73797  13.810  32.907  10.427
 5468W        W73798  22.502  31.596  12.910
 5469W        W73799   0.358  35.101   4.773
 5470W        W73800  11.827  36.504   0.423
 5471W        W73801  21.102  35.009   3.374
 5472W        W73802  31.491  30.506  12.552
 5473W        W73803   2.458   9.755   3.188
 5474W        W73804  30.007  44.968  14.006
 5475W        W73805   6.238   2.830   0.452
 5476W        W73806  17.262   7.403   3.376
 5477W        W73807   4.737  36.883   1.853
 5478W        W73808  39.859  11.650   4.665
 5479W        W73809   1.454  27.467   4.695
 5480W        W73810   0.970  23.028  10.996
 5481W        W73811   3.461  14.671   3.310
 5482W        W73812  16.656   1.905  12.839
 5483W        W73813   2.299  22.089   3.369
 5484W        W73814  10.356  13.315  11.449
 5485W        W73815  20.068  35.542   1.934
 5486W        W73816  15.175  20.716   0.384
 5487W        W73817  21.233  18.211   0.823
 5488W        W73818  42.284  20.201   3.774
 5489W        W73819   5.241   4.861   2.393
 5490W        W73820  16.734  35.898   0.747
 5491W        W73821   9.313  18.684   0.838
 5492W        W73822  28.651   0.433  10.504
 5493W        W73823   3.738  32.465  11.548
 5494W        W73824  27.028  13.317   1.255
 5495W        W73825  29.564  26.459   0.446
 5496W        W73826  19.596   1.812  14.459
 5497W        W73827   2.787  34.008  12.342
 5498W        W73828  18.212  22.246   9.663
 5499W        W73829   6.358  37.866   0.799
 5500W        W73830  37.921  24.673  11.588
 5501W        W73831  30.538  22.098   2.775
 5502W        W73832  44.333  10.264  10.532
 5503W        W73833  13.277  28.161  13.454
 5504W        W73834   8.384  37.842   1.931
 5505W        W73835  13.838  34.957   2.384
 5506W        W73836  38.047  17.093   2.796
 5507W        W73837  12.286  42.996  11.071
 5508W        W73838  14.162   9.781   0.378
 5509W        W73839  38.912  38.822   5.272
 5510W        W73840  19.543   2.231   0.760
 5511W        W73841  41.845  23.177   1.811
 5512W        W73842  17.272  11.196   2.703
 5513W        W73843  26.158  10.145   3.780
 5514W        W73844  27.982   7.315   0.734
 5515W        W73845  17.211  28.977  12.085
 5516W        W73846  19.119  32.941   0.409
 5517W        W73847  36.348  27.539   0.290
 5518W        W73848   0.863   6.404  11.480
 5519W        W73849   6.863  29.022  14.970
 5520W        W73850   3.294  37.025   3.254
 5521W        W73851  42.998   8.657   4.815
 5522W        W73852  33.053  15.726  10.962
 5523W        W73853  11.183  28.172   3.692
 5524W        W73854  17.667   6.227  14.477
 5525W        W73855  14.794   3.232   4.321
 5526W        W73856  17.641  44.845   4.831
 5527W        W73857  26.677   5.222   2.240
 5528W        W73858   9.818  11.637  13.959
 5529W        W73859  34.569  28.446  14.368
 5530W        W73860  42.849   0.440   3.768
 5531W        W73861   2.916  41.822  13.333
 5532W        W73862  21.592  31.931  14.483
 5533W        W73863   5.764  19.597  13.929
 5534W        W73864  22.500  38.479  12.080
 5535W        W73865   2.340  28.093   2.288
 5536W        W73866  23.106  20.140  10.413
 5537W        W73867   8.894  10.203   2.823
 5538W        W73868  12.303   6.347  12.910
 5539W        W73869  31.618  27.102  11.951
 5540W        W73870  19.778   9.382  14.895
 5541W        W73871  39.493  16.770  13.325
 5542W        W73872  39.514  11.795  14.764
 5543W        W73873  39.480  23.709   0.303
 5544W        W73874   5.329   5.335   4.163
 5545W        W73875  42.816  22.996  14.506
 5546W        W73876  43.453  13.797  10.600
 5547W        W73877   4.860  27.018   4.597
 5548W        W73878  15.234  12.121  13.959
 5549W        W73879  32.609   8.768  10.633
 5550W        W73880  22.148  42.482  11.459
 5551W        W73881  33.408  40.940   0.461
 5552W        W73882  20.172  13.795   1.375
 5553W        W73883  19.706  28.065   4.816
 5554W        W73884   7.702  42.305   1.775
 5555W        W73885  25.603  10.849  12.400
 5556W        W73886  34.399  31.069   2.186
 5557W        W73887   1.426  23.506   2.663
 5558W        W73888  20.252  16.202  14.420
 5559W        W73889   9.692  28.450  14.509
 5560W        W73890  40.342  10.773   2.269
 5561W        W73891   1.303  33.540   0.773
 5562W        W73892  23.625  22.726   1.402
 5563W        W73893  24.605  22.513  10.585
 5564W        W73894  35.403  43.824   2.222
 5565W        W73895  12.310   7.694  13.529
 5566W        W73896  22.710   1.849   3.176
 5567W        W73897  34.578  42.879  10.414
 5568W        W73898  33.429  25.199  11.113
 5569W        W73899   4.216  44.974  10.481
 5570W        W73900  37.568   4.727   2.378
 5571W        W73901   5.209  43.366  11.988
 5572W        W73902  18.192  38.358  11.902
 5573W        W73903  11.623   4.892   1.725
 5574W        W73904   1.432  43.766  10.555
 5575W        W73905  18.592  11.731  13.517
 5576W        W73906   8.741  42.888  13.800
 5577W        W73907  21.698  30.067   2.813
 5578W        W73908  39.008  39.400   4.251
 5579W        W73909   2.750  41.944  14.963
 5580W        W73910   5.268  19.650  11.528
 5581W        W73911  22.582  15.315   0.483
 5582W        W73912  16.245  35.464  13.420
 5583W        W73913  18.068  35.559   2.384
 5584W        W73914  22.996  30.481  10.910
 5585W        W73915   8.664   7.806  12.552
 5586W        W73916  19.271  19.253  13.364
 5587W        W73917  24.487  16.694  10.564
 5588W        W73918  35.016  37.884  12.413
 5589W        W73919   9.759  37.484  14.289
 5590W        W73920  32.459  10.199   3.314
 5591W        W73921  44.444  41.008   3.641
 5592W        W73922  39.825   9.215  10.528
 5593W        W73923  17.179  34.405   0.442
 5594W        W73924   3.421  36.395  14.823
 5595W        W73925  14.196  30.467  11.992
 5596W        W73926  35.040  43.911   0.414
 5597W        W73927   8.252  20.264   4.319
 5598W        W73928  37.860   0.332   3.155
 5599W        W73929   3.825   9.200  10.455
 5600W        W73930   4.415   1.242   4.686
 5601W        W73931   3.736  33.044  14.508
 5602W        W73932  15.745   5.779   9.981
 5603W        W73933   0.806   6.242  14.907
 5604W        W73934  10.307  23.531   0.477
 5605W        W73935   3.219   2.254   2.236
 5606W        W73936  27.071  28.590   3.221
 5607W        W73937   8.308   5.299   4.689
 5608W        W73938  34.597  32.635  10.916
 5609W        W73939   8.857   7.884  13.492
 5610W        W73940  28.131  18.262   4.183
 5611W        W73941  12.857  33.051  13.892
 5612W        W73942  44.407   1.407  11.564
 5613W        W73943   3.934   0.391  12.880
 5614W        W73944  29.475  37.389  10.468
 5615W        W73945  20.604  34.926  11.542
 5616W        W73946  34.117  20.650   4.683
 5617W        W73947  29.948   3.282   3.637
 5618W        W73948  39.546  44.903   1.843
 5619W        W73949  34.451  21.262  12.467
 5620W        W73950  22.238  17.785  12.905
 5621W        W73951  32.537  29.105   4.295
 5622W        W73952  39.344  11.716   3.333
 5623W        W73953  23.118  32.959  13.524
 5624W        W73954  28.130  35.996   3.334
 5625W        W73955  21.659   2.403   4.244
 5626W        W73956  20.243  34.966   1.347
 5627W        W73957  32.979  12.195  11.010
 5628W        W73958  23.105  34.436   0.895
 5629W        W73959  23.585  13.825   1.268
 5630W        W73960  13.111  33.579  12.484
 5631W        W73961  42.775  17.696   3.199
 5632W        W73962  30.604  38.479   1.440
 5633W        W73963  32.478   5.902   0.893
 5634W        W73964  40.895  29.609  13.941
 5635W        W73965  11.215  11.306  11.868
 5636W        W73966   0.302  18.609  13.545
 5637W        W73967  33.940   2.962  11.874
 5638W        W73968  44.886  15.130  10.918
 5639W        W73969  23.166  44.371   2.717
 5640W        W73970  28.441  11.326   5.258
 5641W        W73971   3.324  32.572   4.246
 5642W        W73972   7.743  19.124   3.308
 5643W        W73973  40.968  19.662  13.032
 5644W        W73974  43.333  33.008  14.399
 5645W        W73975   4.247  33.088   3.756
 5646W        W73976   2.460  31.125  10.435
 5647W        W73977  14.156  41.903  11.954
 5648W        W73978  40.845  34.959   2.401
 5649W        W73979   7.894  14.608  14.859
 5650W        W73980  14.777  25.659   3.301
 5651W        W73981  26.566  12.733  10.906
 5652W        W73982  39.043   4.245   4.218
 5653W        W73983   7.724  31.092  10.923
 5654W        W73984   3.374  38.537  11.039
 5655W        W73985  15.710  17.633  14.901
 5656W        W73986  18.672   0.946   0.755
 5657W        W73987   1.968  38.044  11.079
 5658W        W73988   8.202  44.887   3.637
 5659W        W73989  15.095  18.624  10.447
 5660W        W73990  42.957  13.653  12.878
 5661W        W73991   0.903  19.142   0.876
 5662W        W73992  25.479  11.254   2.763
 5663W        W73993  41.803  42.785  11.594
 5664W        W73994   7.322  30.914   0.926
 5665W        W73995  10.164  40.838   2.720
 5666W        W73996  44.369  20.035  14.500
 5667W        W73997  15.813   3.412  14.927
 5668W        W73998  20.058  35.917   4.315
 5669W        W73999  36.500  25.586  14.409
 5670W        W74000  36.500  10.821  14.952
 5671W        W74001   6.296  19.660   3.764
 5672W        W74002  10.818  30.910   1.915
 5673W        W74003  28.144  29.058   3.237
 5674W        W74004  41.943  14.246  13.512
 5675W        W74005  31.523  22.517   4.154
 5676W        W74006  29.524   1.838   0.381
 5677W        W74007  28.582  14.758   2.281
 5678W        W74008  12.668  38.397   2.309
 5679W        W74009  22.635   0.321   4.676
 5680W        W74010   0.394  28.103  13.967
 5681W        W74011  43.880  10.348  12.959
 5682W        W74012  21.727   3.256  13.399
 5683W        W74013  11.731   7.849   3.339
 5684W        W74014  37.374  12.330  13.996
 5685W        W74015  35.432   5.232   0.374
 5686W        W74016  39.460   8.337   5.675
 5687W        W74017   0.439   1.391  10.591
 5688W        W74018  40.500   6.727  14.001
 5689W        W74019  32.545  22.527  11.468
 5690W        W74020   7.237   6.684  12.966
 5691W        W74021  32.519  21.592  14.320
 5692W        W74022  21.559  22.996   1.878
 5693W        W74023  34.536  10.839   2.685
 5694W        W74024  25.103  29.488   1.210
 5695W        W74025  25.657  36.500   1.354
 5696W        W74026   2.261   5.804   1.405
 5697W        W74027  27.626  17.780   3.822
 5698W        W74028   8.819  29.979   2.379
 5699W        W74029  41.377  10.275   4.309
 5700W        W74030   3.244   6.393   1.370
 5701W        W74031  13.709  37.049   1.782
 5702W        W74032  27.019  26.151  12.392
 5703W        W74033   7.756  31.956  12.416
 5704W        W74034   4.216  24.572  11.880
 5705W        W74035  11.725  44.480   4.236
 5706W        W74036   1.291  32.419   0.750
 5707W        W74037  28.502  39.422  12.457
 5708W        W74038  17.749  32.469   4.113
 5709W        W74039  29.497  34.111  10.591
 5710W        W74040  33.064  17.237  14.774
 5711W        W74041  16.588   8.274  12.830
 5712W        W74042  41.439  42.993   3.311
 5713W        W74043  41.804  17.657   4.603
 5714W        W74044  22.597  23.665  12.354
 5715W        W74045  21.181  39.534   1.796
 5716W        W74046  40.394  17.262   1.333
 5717W        W74047  18.129   3.789   4.786
 5718W        W74048  17.787  27.167   2.756
 5719W        W74049  11.200  37.869   0.860
 5720W        W74050  16.144  30.562   2.808
 5721W        W74051   8.693  31.490  14.400
 5722W        W74052  42.021  25.518  14.480
 5723W        W74053  14.753   0.444   1.259
 5724W        W74054   9.773  12.775   0.913
 5725W        W74055  17.675  37.457  14.867
 5726W        W74056  32.558  23.562  12.051
 5727W        W74057   0.861  32.888   3.377
 5728W        W74058  42.499  22.016  11.427
 5729W        W74059  16.076   9.189   1.892
 5730W        W74060  14.301  43.300   0.432
 5731W        W74061  16.809  22.534  14.842
 5732W        W74062  32.927  37.969  12.465
 5733W        W74063  37.414  37.839  11.544
 5734W        W74064   6.700  34.091  10.510
 5735W        W74065  38.423  42.842  13.876
 5736W        W74066  12.696  37.863   2.339
 5737W        W74067  17.063   5.320   3.784
 5738W        W74068   5.690   8.824  14.813
 5739W        W74069  44.338  40.332  12.484
 5740W        W74070  23.639  24.532  12.862
 5741W        W74071  28.489  10.699   2.335
 5742W        W74072  14.800  11.814  11.965
 5743W        W74073   0.388   7.857   4.158
 5744W        W74074  22.042  10.852   3.655
 5745W        W74075   5.334  25.021   1.801
 5746W        W74076  23.564  13.679   3.733
 5747W        W74077  30.472   0.398   4.799
 5748W        W74078  25.036  42.985   3.166
 5749W        W74079   5.274  17.753  13.325
 5750W        W74080  21.113  37.866  11.469
 5751W        W74081  36.368  14.622  12.829
 5752W        W74082  33.963   7.865   2.889
 5753W        W74083  38.454  43.906   2.786
 5754W        W74084  36.495  36.054   2.864
 5755W        W74085  44.305  32.096  10.909
 5756W        W74086  21.517   9.797  11.568
 5757W        W74087   1.816  33.419  10.474
 5758W        W74088  33.921  28.120  14.293
 5759W        W74089  42.505  24.670  14.955
 5760W        W74090  30.927  20.755  12.952
 5761W        W74091  11.700  29.466  14.317
 5762W        W74092  33.048  35.927   3.852
 5763W        W74093   4.228   9.752  12.508
 5764W        W74094  10.866  15.223   3.635
 5765W        W74095  24.562  28.465   0.350
 5766W        W74096  41.404  41.525   4.154
 5767W        W74097   9.716  25.213  11.046
 5768W        W74098  30.014  13.287  14.407
 5769W        W74099  12.252  23.705  11.543
 5770W        W74100  41.018  40.804  11.879
 5771W        W74101  12.266  41.362  10.456
 5772W        W74102  38.446  14.595   0.950
 5773W        W74103  41.419  15.581   3.219
 5774W        W74104  11.635   5.257  13.341
 5775W        W74105  12.289  24.507  11.489
 5776W        W74106   4.752  16.212   2.217
 5777W        W74107  36.561  43.469  11.096
 5778W        W74108  16.622  24.108  10.912
 5779W        W74109  14.759  36.517   0.930
 5780W        W74110  15.310  11.374   4.198
 5781W        W74111  34.056  37.920   1.783
 5782W        W74112  20.116  16.648   3.247
 5783W        W74113   5.393  25.137   4.146
 5784W        W74114  43.331   5.871  14.960
 5785W        W74115   6.207  20.630   2.352
 5786W        W74116  37.516  38.987  10.528
 5787W        W74117  31.969  41.880  12.398
 5788W        W74118  24.542  34.370   0.297
 5789W        W74119   3.444  25.995   0.398
 5790W        W74120  30.982  36.082  10.973
 5791W        W74121  23.205   2.944  13.843
 5792W        W74122  19.538  17.594  14.912
 5793W        W74123  24.483  11.144  11.990
 5794W        W74124  44.834  31.084  12.981
 5795W        W74125  31.054   4.320  10.496
 5796W        W74126   7.829   7.366   3.292
 5797W        W74127  24.662  44.433   4.257
 5798W        W74128  18.787   8.259  10.975
 5799W        W74129  28.569  28.028  12.985
 5800W        W74130  38.490  14.193   2.666
 5801W        W74131   8.822  26.951  12.000
 5802W        W74132  19.043  21.605  14.828
 5803W        W74133  37.514  35.477   3.727
 5804W        W74134  17.800  35.063   3.229
 5805W        W74135  34.451  42.983   4.670
 5806W        W74136   5.838   5.874  12.967
 5807W        W74137  27.072   3.360  13.371
 5808W        W74138  36.400   0.920  12.024
 5809W        W74139  40.903   8.830   2.366
 5810W        W74140   3.819  17.731   4.630
 5811W        W74141  27.579  43.402   1.269
 5812W        W74142   7.752   6.831   3.730
 5813W        W74143  43.328   5.789   0.766
 5814W        W74144   2.396  23.647   4.816
 5815W        W74145  31.056  22.723  12.556
 5816W        W74146   1.870  29.968   0.447
 5817W        W74147  40.833  26.694  13.943
 5818W        W74148  26.627  37.462  12.894
 5819W        W74149  27.682  23.188   1.796
 5820W        W74150  17.179  40.861  13.860
 5821W        W74151   1.773   0.799   4.265
 5822W        W74152  30.968  24.523   2.705
 5823W        W74153  37.032  18.099  14.936
 5824W        W74154  23.072  28.166  11.514
 5825W        W74155   2.945  31.028  13.946
 5826W        W74156  31.414  28.111  11.461
 5827W        W74157   4.246  41.337  11.029
 5828W        W74158  27.028  30.443  11.970
 5829W        W74159   3.877  30.438   0.478
 5830W        W74160  37.022  43.897   2.863
 5831W        W74161  13.123  20.560   1.309
 5832W        W74162   6.396  31.077   1.712
 5833W        W74163  29.072   7.190   3.342
 5834W        W74164  15.701   8.173   1.817
 5835W        W74165  18.780  40.903   3.363
 5836W        W74166  14.758  41.812  11.077
 5837W        W74167  24.057  25.572   4.623
 5838W        W74168   0.420  14.319   0.396
 5839W        W74169  19.096  40.956  12.563
 5840W        W74170   4.739  26.518   1.324
 5841W        W74171   7.196  12.670   3.733
 5842W        W74172  19.700  25.058  12.367
 5843W        W74173  35.496  40.053   3.677
 5844W        W74174  30.014   4.806   4.826
 5845W        W74175  44.467   6.864  14.929
 5846W        W74176  18.120  20.662   4.669
 5847W        W74177  21.608  28.947  13.034
 5848W        W74178  25.488  43.773   2.389
 5849W        W74179  12.741  33.439   2.256
 5850W        W74180   7.741  34.010  12.430
 5851W        W74181   0.473  18.121  11.420
 5852W        W74182   2.419  31.106   4.209
 5853W        W74183   3.251  35.526  13.395
 5854W        W74184  10.225  39.314   1.362
 5855W        W74185  10.252  13.766   2.289
 5856W        W74186  10.377  36.495   3.162
 5857W        W74187  31.044   4.256   3.649
 5858W        W74188  26.149  42.910   4.178
 5859W        W74189   4.399  28.495  12.972
 5860W        W74190  25.562  30.532   0.255
 5861W        W74191  30.472  37.906  11.083
 5862W        W74192  26.999  44.260  10.911
 5863W        W74193  25.209  16.750   0.354
 5864W        W74194  28.539  24.061  13.438
 5865W        W74195   7.682  16.704   1.406
 5866W        W74196  33.934  26.526  14.402
 5867W        W74197  23.088  37.949   2.351
 5868W        W74198  40.898  18.200   1.340
 5869W        W74199  14.643  33.544   3.341
 5870W        W74200   1.906  33.514  12.345
 5871W        W74201  19.576  38.834  11.916
 5872W        W74202   6.423  23.219  13.974
 5873W        W74203  33.939  26.161   2.781
 5874W        W74204  14.605  26.047   3.179
 5875W        W74205   6.267   4.917  11.004
 5876W        W74206  41.801  33.982  12.876
 5877W        W74207  17.771  10.264  10.622
 5878W        W74208   6.267  32.105   5.203
 5879W        W74209   5.877  34.920   1.768
 5880W        W74210  31.525  20.684   3.383
 5881W        W74211  42.894  18.559   2.683
 5882W        W74212  34.915   1.745  13.045
 5883W        W74213   9.803  16.704  14.506
 5884W        W74214   2.810  40.820   1.311
 5885W        W74215   4.729   6.741  14.286
 5886W        W74216   1.473  38.481   9.944
 5887W        W74217  38.455  33.468   0.280
 5888W        W74218  22.048  33.499   3.692
 5889W        W74219   3.252   1.817   3.211
 5890W        W74220  29.511   8.823   3.221
 5891W        W74221  25.123  13.157  14.379
 5892W        W74222   2.928  20.233   3.280
 5893W        W74223  18.092  40.991  14.504
 5894W        W74224  13.719   6.326  10.475
 5895W        W74225   7.410  17.587   2.797
 5896W        W74226  40.861   7.774  13.829
 5897W        W74227  19.063   6.686   4.800
 5898W        W74228  26.461  10.842  10.603
 5899W        W74229   5.797  20.242  10.962
 5900W        W74230  25.997  30.995   3.356
 5901W        W74231  29.568  41.344   3.687
 5902W        W74232   9.157   8.329   3.289
 5903W        W74233   3.408  11.700  11.390
 5904W        W74234  13.827   7.808   1.694
 5905W        W74235  27.480  10.851  12.424
 5906W        W74236  18.681  41.980  14.819
 5907W        W74237  40.809  11.343   2.714
 5908W        W74238   5.722  15.245  11.881
 5909W        W74239   1.812  25.611  12.508
 5910W        W74240   3.809  35.945   4.806
 5911W        W74241  10.716  23.688  11.382
 5912W        W74242  29.956  23.518   4.225
 5913W        W74243   6.360  39.379  12.409
 5914W        W74244  19.143   1.270   1.347
 5915W        W74245  17.232  21.040  11.980
 5916W        W74246  18.672  43.320   3.205
 5917W        W74247   6.299   8.852  12.953
 5918W        W74248   6.360  20.639   1.697
 5919W        W74249  41.352  17.738   2.189
 5920W        W74250  35.072  14.299  14.347
 5921W        W74251  19.725  42.887   1.437
 5922W        W74252  27.169  13.746   3.179
 5923W        W74253  37.985  33.504   2.283
 5924W        W74254  34.511  35.397   1.331
 5925W        W74255  19.072   0.790   2.876
 5926W        W74256  16.809   1.295   2.822
 5927W        W74257  44.885   4.894   0.961
 5928W        W74258  10.804  10.744   2.742
 5929W        W74259  20.534  31.452   1.931
 5930W        W74260  34.081  18.285  10.511
 5931W        W74261  44.770   6.803  11.545
 5932W        W74262  10.161  40.549   3.822
 5933W        W74263  44.840  20.043  11.495
 5934W        W74264  19.752  27.570  12.920
 5935W        W74265  19.771  17.222   4.332
 5936W        W74266   3.812   6.850  11.110
 5937W        W74267  11.284  40.519  14.329
 5938W        W74268  14.150  21.754   2.902
 5939W        W74269  15.209  23.155   3.673
 5940W        W74270   1.283  36.899   5.290
 5941W        W74271  15.745   9.352   4.184
 5942W        W74272   6.775  36.873  14.793
 5943W        W74273  34.547  23.722   0.841
 5944W        W74274  25.589  24.511  13.355
 5945W        W74275   4.264  30.131  12.944
 5946W        W74276  32.461  21.592  13.926
 5947W        W74277  39.415  29.096  11.424
 5948W        W74278  17.802  27.575  12.966
 5949W        W74279  41.831  14.617  14.876
 5950W        W74280   4.415  14.302   0.315
 5951W        W74281  16.755  30.928   2.732
 5952W        W74282  27.163  38.924  12.929
 5953W        W74283  28.169   6.827   3.198
 5954W        W74284  32.623  10.633   0.450
 5955W        W74285  24.018  39.989  13.796
 5956W        W74286  26.532   4.363  11.082
 5957W        W74287  13.294  17.114   0.475
 5958W        W74288  32.602  29.128  14.866
 5959W        W74289  19.600   1.936  14.838
 5960W        W74290  37.894  15.261  14.829
 5961W        W74291  33.073  20.058  12.014
 5962W        W74292  29.137   0.769  14.005
 5963W        W74293   5.357  27.555   0.958
 5964W        W74294  37.531   5.865  12.841
 5965W        W74295  35.056   4.238   3.336
 5966W        W74296   1.940  29.162  11.504
 5967W        W74297   2.443  10.837   3.259
 5968W        W74298  19.737   9.754  13.006
 5969W        W74299  43.444  15.127   0.841
 5970W        W74300  11.212  43.787  14.331
 5971W        W74301   6.350  39.887   0.813
 5972W        W74302  19.543   2.229   3.328
 5973W        W74303   8.347  44.492  12.522
 5974W        W74304  14.240  24.667  12.484
 5975W        W74305   9.888   1.461  14.841
 5976W        W74306   5.414  33.956   4.321
 5977W        W74307  28.654   4.883  14.977
 5978W        W74308  31.510  34.575   1.293
 5979W        W74309  28.667  41.933  14.833
 5980W        W74310  15.741  17.154  11.541
 5981W        W74311  24.560  11.822   0.281
 5982W        W74312  11.713  37.999  14.855
 5983W        W74313  18.130  34.018   2.365
 5984W        W74314  42.968   5.785  14.940
 5985W        W74315  41.804  16.230  10.949
 5986W        W74316  35.598   7.707   4.737
 5987W        W74317   9.721  26.071   2.217
 5988W        W74318  41.505   5.904   0.922
 5989W        W74319  42.943  16.105  13.044
 5990W        W74320  25.570   5.219  10.973
 5991W        W74321  41.986  35.991   1.221
 5992W        W74322  44.425  40.389   2.201
 5993W        W74323  25.037  25.148   4.279
 5994W        W74324  15.726  17.246  12.941
 5995W        W74325   8.249   6.755  11.087
 5996W        W74326   8.281  40.373  11.544
 5997W        W74327   5.353  23.679   0.767
 5998W        W74328  18.581  15.281  14.897
 5999W        W74329  26.124  35.924   2.332
 6000W        W74330  35.004   5.916   0.305
 6001W        W74331  41.890   1.892  12.041
 6002W        W74332  42.995  12.290  12.869
 6003W        W74333   9.239  21.746   4.288
 6004W        W74334   1.422  35.985  13.038
 6005W        W74335   9.883  20.049   3.190
 6006W        W74336   7.722   6.879  12.447
 6007W        W74337  13.305  30.534  12.032
 6008W        W74338   1.737  12.195   1.710
 6009W        W74339   2.772  14.323  11.477
 6010W        W74340  27.125  22.554   0.821
 6011W        W74341  44.333  33.523  12.340
 6012W        W74342  44.933   2.362   4.131
 6013W        W74343  21.756  18.134   1.858
 6014W        W74344  21.757  36.481   1.700
 6015W        W74345   8.808  38.463  11.430
 6016W        W74346  40.797  23.644   2.866
 6017W        W74347  34.939  12.627  13.452
 6018W        W74348   1.798  20.165   4.801
 6019W        W74349  19.053  38.861  13.870
 6020W        W74350  18.696  29.543  14.367
 6021W        W74351   3.720  33.959  13.048
 6022W        W74352  22.051   7.695  11.571
 6023W        W74353  28.585   6.795   2.677
 6024W        W74354  23.051  42.010  13.912
 6025W        W74355   1.968  15.820   4.649
 6026W        W74356  39.317  21.580   2.411
 6027W        W74357  11.181  39.405  12.064
 6028W        W74358  22.657  44.846   1.797
 6029W        W74359  18.281  35.391  13.470
 6030W        W74360  23.986  40.516  12.486
 6031W        W74361   0.961  21.157   0.921
 6032W        W74362  29.058  10.259  12.462
 6033W        W74363  28.532  39.546  12.872
 6034W        W74364  36.413  29.591  13.916
 6035W        W74365  21.204  13.619  12.888
 6036W        W74366  22.092  38.325  11.874
 6037W        W74367   6.699  37.561   0.906
 6038W        W74368  42.996   4.853   2.723
 6039W        W74369  29.504   9.679  13.939
 6040W        W74370  24.517  17.232   4.130
 6041W        W74371  40.379  28.471  12.879
 6042W        W74372   1.273  43.769   4.142
 6043W        W74373   8.715  35.109  13.308
 6044W        W74374  22.663  31.113   0.299
 6045W        W74375   2.824  38.021   2.786
 6046W        W74376  19.143  32.422   2.363
 6047W        W74377  18.077  43.479   3.711
 6048W        W74378  31.000   4.929  13.374
 6049W        W74379   6.308  16.260   0.824
 6050W        W74380   5.243  27.994   1.862
 6051W        W74381  19.692   9.688   2.261
 6052W        W74382  21.741  29.603   2.892
 6053W        W74383  10.151  10.803   2.379
 6054W        W74384   2.410   8.301   2.381
 6055W        W74385  30.027   7.777   1.397
 6056W        W74386  36.842  40.369   0.478
 6057W        W74387  43.449  22.670  14.913
 6058W        W74388   5.761   9.864  13.981
 6059W        W74389  16.784   0.402  12.423
 6060W        W74390  12.191  14.198   2.834
 6061W        W74391  36.554  20.567  11.466
 6062W        W74392  30.469   5.807   1.778
 6063W        W74393  40.825  33.543   0.795
 6064W        W74394  21.027   8.247   3.756
 6065W        W74395  13.721  34.391   4.331
 6066W        W74396  16.166  30.958   3.228
 6067W        W74397  19.256   9.666  13.911
 6068W        W74398  14.218  13.188   1.353
 6069W        W74399  44.262  10.786   1.726
 6070W        W74400  27.175   7.770  14.334
 6071W        W74401  15.196  24.603  12.468
 6072W        W74402   1.787  22.076  14.387
 6073W        W74403  44.783  18.652   1.815
 6074W        W74404  26.966  32.489  12.071
 6075W        W74405   8.203  12.176  11.991
 6076W        W74406  24.988  11.783   4.697
 6077W        W74407  29.138  14.111  11.053
 6078W        W74408  43.868   2.872  11.604
 6079W        W74409  39.883  21.198  13.354
 6080W        W74410  34.504   2.251  13.005
 6081W        W74411  17.120  14.660   2.274
 6082W        W74412  35.589  18.170  13.464
 6083W        W74413  36.448  11.640   4.128
 6084W        W74414  42.485  43.875   2.286
 6085W        W74415  34.542  19.739  13.828
 6086W        W74416  21.564  11.856  13.528
 6087W        W74417  14.094  19.257   2.826
 6088W        W74418  25.136  16.674  13.004
 6089W        W74419  41.514  44.338   1.431
 6090W        W74420  30.085   8.675  11.584
 6091W        W74421  19.737  14.328   1.895
 6092W        W74422   9.257  11.825   1.845
 6093W        W74423  44.002  14.283   0.244
 6094W        W74424  38.503  14.648  11.400
 6095W        W74425  15.695   7.858  12.058
 6096W        W74426  20.752  37.004  10.584
 6097W        W74427  36.395  22.695   4.687
 6098W        W74428  14.713  13.681   4.234
 6099W        W74429  29.521  35.083   2.394
 6100W        W74430   9.158  39.940   3.266
 6101W        W74431  13.287   3.749   2.343
 6102W        W74432  31.011  32.042  13.924
 6103W        W74433  40.306  16.223   0.956
 6104W        W74434  30.417  25.514   4.637
 6105W        W74435  31.493  15.756   3.281
 6106W        W74436  44.475  22.079  14.293
 6107W        W74437  34.465  10.821  13.891
 6108W        W74438  14.167  19.663  12.429
 6109W        W74439   0.363  33.044   0.430
 6110W        W74440   2.439   7.898   4.782
 6111W        W74441  31.135  42.342   3.741
 6112W        W74442  28.179   5.701  13.022
 6113W        W74443   0.404  20.738   3.734
 6114W        W74444  31.997  19.105   4.618
 6115W        W74445  24.160   0.918   0.457
 6116W        W74446  17.703  44.411   3.752
 6117W        W74447   0.448  12.257   2.343
 6118W        W74448  26.002  38.375   4.818
 6119W        W74449  15.767  28.611   4.602
 6120W        W74450   2.402  31.495   2.270
 6121W        W74451   2.759  34.566   3.302
 6122W        W74452  26.089  30.492   2.779
 6123W        W74453   6.402   4.813  10.129
 6124W        W74454  23.130  40.994   2.811
 6125W        W74455  35.525  19.169  10.561
 6126W        W74456  36.945   9.858   3.657
 6127W        W74457  34.464  33.593  11.981
 6128W        W74458  10.698  17.709  10.546
 6129W        W74459  17.715  22.093   4.151
 6130W        W74460   0.485   2.228   0.930
 6131W        W74461  22.710  39.846  10.591
 6132W        W74462   4.901   1.325   4.340
 6133W        W74463   2.470  27.497   4.604
 6134W        W74464  26.186  27.458  12.413
 6135W        W74465  34.018   6.195  13.002
 6136W        W74466  42.957   7.220  13.799
 6137W        W74467  13.276  28.641   0.371
 6138W        W74468  11.632   1.272  14.999
 6139W        W74469  23.054  15.748   4.685
 6140W        W74470   6.186  39.487  11.032
 6141W        W74471  41.885   5.361  11.387
 6142W        W74472  31.135  31.022   4.707
 6143W        W74473  17.108  33.120  11.410
 6144W        W74474  22.700   3.366   2.407
 6145W        W74475  19.222  29.086  11.565
 6146W        W74476   4.925  44.318   4.354
 6147W        W74477  33.088   8.330  14.290
 6148W        W74478   1.312  24.513   4.715
 6149W        W74479   2.778  27.059  11.940
 6150W        W74480  12.802  34.448   3.641
 6151W        W74481   7.744  18.099   0.966
 6152W        W74482  19.602  28.015   5.253
 6153W        W74483  27.999  23.509   3.209
 6154W        W74484  20.685  37.044  13.894
 6155W        W74485  27.988  10.763   2.231
 6156W        W74486  23.224   2.759  12.998
 6157W        W74487  21.189  13.768   2.250
 6158W        W74488  35.555   9.229   2.812
 6159W        W74489  33.436   7.795  12.940
 6160W        W74490  19.598  14.227  10.094
 6161W        W74491  31.565  43.839   1.393
 6162W        W74492  43.306  40.833  13.992
 6163W        W74493  13.109   8.694  12.350
 6164W        W74494  31.920   2.931   4.248
 6165W        W74495  30.928  15.220   0.448
 6166W        W74496  37.488  36.424   2.719
 6167W        W74497  14.599  19.743   2.198
 6168W        W74498  44.445  39.923   1.874
 6169W        W74499  39.479  38.389  12.508
 6170W        W74500  23.043   1.778   1.348
 6171W        W74501  26.082  28.631  12.930
 6172W        W74502  25.123  34.415   2.682
 6173W        W74503  33.490  25.021   4.196
 6174W        W74504  22.504  16.302   4.725
 6175W        W74505  31.625  29.493  12.837
 6176W        W74506  25.677   6.214   0.826
 6177W        W74507  22.181  33.421  12.986
 6178W        W74508  13.323   8.171   1.917
 6179W        W74509  31.113   9.735  10.583
 6180W        W74510   9.213  30.124  11.403
 6181W        W74511  22.162  31.091  10.106
 6182W        W74512   7.857  29.605   3.153
 6183W        W74513  19.134  19.249   4.722
 6184W        W74514  14.771   6.851   3.729
 6185W        W74515  40.800  10.830   4.820
 6186W        W74516  18.746  12.626   3.767
 6187W        W74517  10.202  27.002   3.271
 6188W        W74518  21.587   4.229   2.248
 6189W        W74519  22.663  23.094   3.683
 6190W        W74520   3.414   7.407   1.299
 6191W        W74521   5.916  39.856   3.160
 6192W        W74522  24.546  32.131   4.322
 6193W        W74523  24.997  28.594   4.599
 6194W        W74524  36.500   2.293  13.307
 6195W        W74525  16.093  23.568  12.534
 6196W        W74526  20.217  14.262   1.699
 6197W        W74527  31.560   2.251   1.421
 6198W        W74528  17.229  25.163   2.828
 6199W        W74529  14.768  32.032  14.820
 6200W        W74530   2.437  27.961  12.439
 6201W        W74531   5.328  37.400   4.658
 6202W        W74532  28.444   5.265  12.363
 6203W        W74533  18.146   7.370   2.339
 6204W        W74534  36.889  43.802   3.326
 6205W        W74535  39.433  37.010  14.479
 6206W        W74536   9.805   0.303   1.706
 6207W        W74537  31.600  16.287  12.454
 6208W        W74538  26.498   4.387  10.581
 6209W        W74539   9.241  33.877  13.511
 6210W        W74540   9.162  29.555   1.750
 6211W        W74541  42.465  30.588   0.919
 6212W        W74542  27.622  30.549   4.230
 6213W        W74543  44.482  34.597  14.027
 6214W        W74544  43.916  28.635  13.372
 6215W        W74545  17.073  14.129   2.829
 6216W        W74546   0.417  44.875  11.495
 6217W        W74547  21.655  42.951   2.369
 6218W        W74548  11.204  35.923  12.851
 6219W        W74549  19.633  25.621   4.338
 6220W        W74550  24.988  43.371   3.862
 6221W        W74551   9.394   7.791  14.833
 6222W        W74552   9.754  17.591  11.469
 6223W        W74553   4.934   9.264   4.126
 6224W        W74554  25.472   0.931   0.889
 6225W        W74555  24.599  42.967   1.267
 6226W        W74556  33.943  12.131   2.328
 6227W        W74557  23.188  32.622  14.017
 6228W        W74558  38.010   5.869   5.146
 6229W        W74559  15.713  44.900  13.406
 6230W        W74560  37.908  35.882   4.239
 6231W        W74561  21.661  37.839   2.759
 6232W        W74562   0.862  28.063   1.428
 6233W        W74563  37.049  37.032  12.391
 6234W        W74564  33.522   0.958  10.061
 6235W        W74565   5.273  40.492   0.900
 6236W        W74566  19.140  33.500  13.442
 6237W        W74567  34.945   1.470   3.673
 6238W        W74568  33.895  43.413   0.381
 6239W        W74569   6.905  30.516  12.435
 6240W        W74570  20.738  32.423  13.026
 6241W        W74571  13.790   4.895  13.005
 6242W        W74572   2.914  40.332  11.454
 6243W        W74573  15.296  22.039  11.983
 6244W        W74574  15.285  26.192   0.895
 6245W        W74575  18.647   3.263   1.251
 6246W        W74576  43.513  12.161   1.765
 6247W        W74577  18.184  12.220  13.925
 6248W        W74578  20.744   5.811  11.512
 6249W        W74579  35.415  44.797   2.368
 6250W        W74580   4.292  17.714   4.839
 6251W        W74581  28.001   2.942   1.882
 6252W        W74582  19.533  41.962  10.574
 6253W        W74583   3.350  22.121   0.468
 6254W        W74584  31.919  20.662   1.895
 6255W        W74585   0.900  44.820   0.258
 6256W        W74586   1.428  43.307  14.395
 6257W        W74587  15.168   6.282  13.973
 6258W        W74588   0.384  25.217   3.743
 6259W        W74589  33.379  17.635  10.524
 6260W        W74590  13.820  12.625  13.880
 6261W        W74591  44.768  43.394  14.858
 6262W        W74592  40.451  18.232   1.314
 6263W        W74593   9.217   1.345  14.360
 6264W        W74594  13.304  28.477   3.210
 6265W        W74595   9.828  30.099   4.210
 6266W        W74596  15.713   8.825  10.432
 6267W        W74597  39.030   0.975   1.884
 6268W        W74598  30.506  10.155   9.963
 6269W        W74599   3.809  12.832  13.358
 6270W        W74600   5.873  19.777  13.336
 6271W        W74601  25.000   7.404  10.462
 6272W        W74602   6.188  22.674   1.890
 6273W        W74603  28.607  27.657  11.884
 6274W        W74604  40.958  33.123  11.068
 6275W        W74605  18.611  38.343   2.709
 6276W        W74606  43.929  24.608   0.920
 6277W        W74607  34.571  38.540   4.642
 6278W        W74608  21.087  24.632   4.331
 6279W        W74609  41.799   0.817  11.520
 6280W        W74610   9.359  14.758  12.828
 6281W        W74611  37.567  28.676   1.919
 6282W        W74612  11.797   3.366  12.400
 6283W        W74613  26.549  27.640   0.361
 6284W        W74614   4.759  36.012  10.041
 6285W        W74615  21.143  16.267  12.959
 6286W        W74616  40.424   2.250  11.875
 6287W        W74617  21.637  17.127   1.835
 6288W        W74618  20.041  23.704   5.779
 6289W        W74619  28.505  43.312  14.275
 6290W        W74620   5.698  25.519  12.061
 6291W        W74621  37.459  18.575   5.105
 6292W        W74622  24.221  33.098  14.403
 6293W        W74623  43.326  21.670   3.795
 6294W        W74624   2.226   5.891   3.215
 6295W        W74625  20.262   6.321  11.046
 6296W        W74626  40.920   7.225  12.389
 6297W        W74627   8.693  38.488   3.147
 6298W        W74628  44.461  10.348   2.847
 6299W        W74629  18.273  42.462   3.319
 6300W        W74630   6.752  44.432  14.801
 6301W        W74631  40.531  43.978   3.813
 6302W        W74632  15.805  41.933  10.907
 6303W        W74633  22.665  34.604  13.376
 6304W        W74634  12.221  11.785  13.370
 6305W        W74635  31.542  26.123  11.397
 6306W        W74636  35.855  44.311   1.449
 6307W        W74637  32.400  12.762   0.280
 6308W        W74638  33.886  31.563  11.093
 6309W        W74639  17.068  19.719  13.878
 6310W        W74640  16.265   5.831  14.917
 6311W        W74641  18.714  22.240  13.427
 6312W        W74642  36.561  28.934   4.144
 6313W        W74643  37.445  30.956  12.048
 6314W        W74644  12.737  38.987   2.298
 6315W        W74645  38.487  41.906   1.805
 6316W        W74646  13.665  25.558   4.242
 6317W        W74647  29.123  21.193  14.485
 6318W        W74648  22.567   5.869   1.399
 6319W        W74649  37.576  38.019   0.888
 6320W        W74650  28.449  33.982   0.908
 6321W        W74651  22.041  28.664   5.626
 6322W        W74652  18.244  22.590   2.850
 6323W        W74653  37.895  29.429  12.473
 6324W        W74654  26.469  38.549   1.829
 6325W        W74655  21.651  38.917   1.848
 6326W        W74656  22.995  17.715   3.220
 6327W        W74657  27.631  15.326   2.288
 6328W        W74658  33.122  12.281   4.698
 6329W        W74659  35.014  35.996   2.240
 6330W        W74660  11.692  29.556   2.834
 6331W        W74661  32.968  43.491  14.308
 6332W        W74662   8.852  13.644   0.338
 6333W        W74663  35.917  33.996  12.512
 6334W        W74664  26.141  17.600  14.394
 6335W        W74665   4.224   8.319   3.807
 6336W        W74666  15.228  43.905  12.348
 6337W        W74667  13.779   5.920   3.185
 6338W        W74668   8.835   3.722   2.403
 6339W        W74669  30.581   4.926   4.165
 6340W        W74670  30.446   4.278   2.385
 6341W        W74671  24.168  12.833  11.422
 6342W        W74672  29.441   6.756   3.663
 6343W        W74673  13.334   9.219   2.810
 6344W        W74674  34.115  16.282   4.791
 6345W        W74675   1.272  42.018   4.285
 6346W        W74676   8.784  41.447  13.994
 6347W        W74677   9.840  40.875   3.821
 6348W        W74678  16.254  16.078   4.670
 6349W        W74679   4.699  16.794   0.321
 6350W        W74680  37.499  44.293   1.818
 6351W        W74681  25.165  28.120  10.574
 6352W        W74682  22.667  11.645   3.294
 6353W        W74683  42.902   9.262  11.867
 6354W        W74684  35.902  31.924   3.201
 6355W        W74685  42.803  18.084  14.479
 6356W        W74686   7.789  38.561  13.058
 6357W        W74687  43.894  16.116  14.831
 6358W        W74688  19.545  32.044  11.038
 6359W        W74689   0.815  27.989  11.547
 6360W        W74690  17.077   6.216  11.557
 6361W        W74691   6.757  13.737  10.921
 6362W        W74692  34.455   8.834   0.484
 6363W        W74693  39.350  38.966   2.277
 6364W        W74694  29.143  29.961  11.405
 6365W        W74695  41.535  43.374   2.785
 6366W        W74696  15.273  34.002  11.123
 6367W        W74697  13.699   2.762   0.912
 6368W        W74698  17.063   0.440  12.970
 6369W        W74699  40.997  24.055   0.921
 6370W        W74700   7.393  42.510   3.824
 6371W        W74701  37.426  10.725   2.893
 6372W        W74702  42.466  44.771  13.478
 6373W        W74703   3.733  44.756  10.542
 6374W        W74704  11.799   7.737  10.623
 6375W        W74705  44.370   8.400   1.800
 6376W        W74706  24.486  27.476  12.001
 6377W        W74707  24.532   3.913   3.149
 6378W        W74708  39.846   8.239  11.983
 6379W        W74709  31.646  38.015  14.835
 6380W        W74710  22.503  17.618  11.922
 6381W        W74711  27.536  27.083   4.139
 6382W        W74712   8.361  40.325   3.315
 6383W        W74713  23.497   0.791   4.761
 6384W        W74714   9.780  21.223   0.789
 6385W        W74715  36.416  26.652   1.734
 6386W        W74716   4.263  21.046  11.386
 6387W        W74717  15.765  15.763   3.146
 6388W        W74718   8.736  23.523   1.871
 6389W        W74719  14.752  28.109   0.779
 6390W        W74720   0.263  39.442  13.932
 6391W        W74721  32.592  10.152   4.245
 6392W        W74722   5.817  30.571  12.398
 6393W        W74723  23.139  37.929  11.553
 6394W        W74724  24.143   9.821  11.050
 6395W        W74725   2.866  35.602   5.724
 6396W        W74726   7.835  12.855   5.163
 6397W        W74727  43.796  18.751   0.259
 6398W        W74728  14.682   8.834  14.941
 6399W        W74729  36.503  26.026  12.524
 6400W        W74730   4.891  12.843   4.237
 6401W        W74731  10.722  41.044   1.248
 6402W        W74732  34.082  31.017   0.467
 6403W        W74733  28.045  18.700   2.284
 6404W        W74734  33.920   7.388  14.997
 6405W        W74735  42.368   1.946   1.273
 6406W        W74736  18.697   7.728   2.844
 6407W        W74737  28.606   1.867   4.245
 6408W        W74738  35.866  21.253   1.338
 6409W        W74739   7.743  37.429   1.709
 6410W        W74740  39.402  19.230  14.284
 6411W        W74741  42.807  42.403   2.207
 6412W        W74742  14.602  44.780  11.872
 6413W        W74743  26.963   5.233   1.367
 6414W        W74744   6.821  32.090   2.785
 6415W        W74745  35.570  19.714  12.905
 6416W        W74746  23.709  27.070  14.767
 6417W        W74747  35.470   4.866  11.426
 6418W        W74748   5.777  20.564   0.409
 6419W        W74749  35.392  11.157  12.390
 6420W        W74750  40.822   1.320   4.254
 6421W        W74751  13.809  19.198  13.977
 6422W        W74752  40.476  40.410   3.811
 6423W        W74753  40.888  36.380   3.298
 6424W        W74754  44.811  35.923  11.049
 6425W        W74755  39.011   3.887  13.918
 6426W        W74756   6.251  26.002   0.406
 6427W        W74757   1.787  10.163  13.548
 6428W        W74758  23.086  27.095   1.894
 6429W        W74759  13.670  35.107   4.304
 6430W        W74760   5.395  39.325   0.778
 6431W        W74761  41.828   4.381  11.945
 6432W        W74762   1.884  32.001  11.875
 6433W        W74763  39.819  23.135   0.397
 6434W        W74764  23.498   5.753  13.497
 6435W        W74765  41.434   3.239   4.662
 6436W        W74766  32.079   7.229   0.369
 6437W        W74767  28.085   1.899   2.233
 6438W        W74768  39.347   0.768  11.579
 6439W        W74769  41.880  42.522   3.225
 6440W        W74770  15.699  20.164   2.375
 6441W        W74771  30.532  36.000  10.985
 6442W        W74772  16.779  34.119   0.781
 6443W        W74773  39.388  20.577   3.736
 6444W        W74774  32.990  38.962  13.532
 6445W        W74775  39.446  35.469   2.688
 6446W        W74776  31.133  42.027  12.086
 6447W        W74777  17.144  41.307   2.727
 6448W        W74778  15.721  27.657   1.239
 6449W        W74779  28.094  18.625   1.733
 6450W        W74780   6.678  43.859  11.535
 6451W        W74781  17.640  26.579  12.868
 6452W        W74782  30.984  31.921  12.882
 6453W        W74783  37.568   7.176   1.400
 6454W        W74784  10.773   3.910  11.994
 6455W        W74785   5.281  10.815   0.910
 6456W        W74786  26.637   5.218  12.893
 6457W        W74787  12.244  34.113   2.695
 6458W        W74788  38.874  14.731  11.971
 6459W        W74789  38.528  16.775   3.636
 6460W        W74790  14.621  15.720   5.258
 6461W        W74791  17.189  32.451  14.008
 6462W        W74792  38.461  21.065   1.737
 6463W        W74793  29.461  32.084  13.340
 6464W        W74794  29.926  31.617   4.741
 6465W        W74795  33.607  41.525  11.486
 6466W        W74796  32.460   9.287   4.206
 6467W        W74797  14.292  38.555  10.991
 6468W        W74798  27.592  37.051  14.418
 6469W        W74799  11.238  10.141  10.425
 6470W        W74800  21.152  38.965   4.185
 6471W        W74801  27.627  27.137   1.821
 6472W        W74802  40.973  30.928   1.859
 6473W        W74803  26.688  29.053   2.219
 6474W        W74804   4.821  43.926  12.979
 6475W        W74805  27.674  42.294  10.506
 6476W        W74806  10.878  22.072   0.439
 6477W        W74807   0.950  25.003  13.846
 6478W        W74808  32.627  24.150   4.115
 6479W        W74809   9.663  26.658  14.507
 6480W        W74810  27.169  26.520  14.429
 6481W        W74811   0.340  27.614   1.237
 6482W        W74812   0.483  13.216   0.268
 6483W        W74813  18.556   6.417  12.962
 6484W        W74814  20.532  38.337   2.868
 6485W        W74815  15.267  39.907  11.878
 6486W        W74816  22.090  22.684   2.315
 6487W        W74817   3.339  38.480  11.573
 6488W        W74818  41.951  25.469  13.332
 6489W        W74819  35.423  43.483  14.997
 6490W        W74820  12.624  20.660   2.300
 6491W        W74821   0.975   8.278  14.474
 6492W        W74822   0.472  18.676   4.300
 6493W        W74823  22.073  25.636   3.801
 6494W        W74824  14.253  12.176  11.416
 6495W        W74825   3.241  29.487  12.394
 6496W        W74826   8.733  25.963   1.388
 6497W        W74827  15.717  36.848  11.033
 6498W        W74828  23.035  34.090   1.764
 6499W        W74829  28.064   2.256   0.764
 6500W        W74830  12.178  43.826   2.406
 6501W        W74831  13.767  44.854  13.000
 6502W        W74832  27.572  42.824  14.959
 6503W        W74833   7.393  34.058  12.422
 6504W        W74834  34.881  40.972  13.834
 6505W        W74835   6.389  44.340   4.658
 6506W        W74836  35.854  15.168   2.201
 6507W        W74837  44.290  19.551  14.470
 6508W        W74838  12.671  22.097  10.544
 6509W        W74839   2.328  26.481   9.982
 6510W        W74840   2.813  15.724   2.784
 6511W        W74841  29.062  28.572  13.982
 6512W        W74842  16.204  36.984  13.477
 6513W        W74843  40.303  35.950   4.706
 6514W        W74844  38.379   9.280   3.200
 6515W        W74845  29.019  22.720   1.451
 6516W        W74846  18.258  19.644   0.268
 6517W        W74847  17.584  39.468   2.674
 6518W        W74848  18.156  31.511   4.196
 6519W        W74849  27.685   2.820  14.023
 6520W        W74850   5.434  37.404   2.744
 6521W        W74851  37.544  35.462  11.421
 6522W        W74852  37.497  30.433  11.453
 6523W        W74853  28.108  24.002   2.416
 6524W        W74854   3.428  41.338   4.598
 6525W        W74855  13.321  42.362   1.218
 6526W        W74856  37.569  12.182  14.456
 6527W        W74857   6.381  30.993  12.866
 6528W        W74858  13.797  21.737  14.005
 6529W        W74859  13.793  26.152  12.091
 6530W        W74860  13.614  35.855  11.907
 6531W        W74861  22.698  43.349   4.618
 6532W        W74862  33.507   8.327   1.349
 6533W        W74863  28.513  29.121  11.380
 6534W        W74864  32.456  23.527   4.244
 6535W        W74865  28.127   4.792  11.978
 6536W        W74866  30.649  23.188  12.896
 6537W        W74867   2.955  31.151   3.290
 6538W        W74868  34.532  23.680   4.145
 6539W        W74869  32.994  11.228  10.435
 6540W        W74870  42.812  26.977  11.893
 6541W        W74871  27.691   7.746  12.501
 6542W        W74872  37.538   9.849   3.685
 6543W        W74873  18.592  35.974  11.080
 6544W        W74874  28.992   0.816  14.875
 6545W        W74875   7.221  43.467   0.831
 6546W        W74876   4.819   3.816  13.989
 6547W        W74877  10.221  27.675   1.902
 6548W        W74878  23.714  42.464   2.409
 6549W        W74879  26.585   1.741   4.298
 6550W        W74880  15.194  43.021   4.346
 6551W        W74881  34.484  18.173  12.531
 6552W        W74882  39.400  31.586   1.370
 6553W        W74883   6.219  39.020   1.789
 6554W        W74884  30.464  33.908  13.834
 6555W        W74885  42.992  40.407  14.442
 6556W        W74886  26.055  43.921  14.915
 6557W        W74887  33.106   1.908  14.834
 6558W        W74888  38.973   8.690   0.246
 6559W        W74889  21.720  36.519   4.336
 6560W        W74890  42.025  27.650  10.584
 6561W        W74891  23.689  28.470   4.697
 6562W        W74892  12.663  14.107  11.967
 6563W        W74893  18.161  13.293   0.791
 6564W        W74894  33.512  17.214   2.242
 6565W        W74895  20.586  44.924   4.603
 6566W        W74896   2.907  21.042   0.423
 6567W        W74897  43.895   0.348  12.989
 6568W        W74898  20.604  43.811   3.867
 6569W        W74899  21.581  22.038  14.028
 6570W        W74900  18.224   7.674   1.266
 6571W        W74901   7.274  32.937  12.084
 6572W        W74902  33.029  18.638   1.331
 6573W        W74903   7.408  32.000  14.416
 6574W        W74904  19.759  15.756   1.350
 6575W        W74905  13.229   6.231   3.848
 6576W        W74906  22.156   4.796   4.709
 6577W        W74907  31.996   2.918   1.708
 6578W        W74908  42.396  40.455   4.657
 6579W        W74909  41.012  35.029   4.739
 6580W        W74910   0.959  27.638  13.326
 6581W        W74911  24.036   7.709   0.786
 6582W        W74912  25.068  35.365   0.807
 6583W        W74913  28.137   2.392   2.265
 6584W        W74914  32.595   7.314   5.217
 6585W        W74915   1.386  10.352  12.548
 6586W        W74916  43.804   9.839   4.247
 6587W        W74917  41.297  33.502  14.351
 6588W        W74918  17.092  41.888   4.206
 6589W        W74919  30.010  34.408  13.361
 6590W        W74920  32.019  30.418   1.723
 6591W        W74921  17.198  33.417  10.449
 6592W        W74922   5.859  15.754  12.524
 6593W        W74923  19.627  24.205   0.923
 6594W        W74924  10.731  33.547   2.758
 6595W        W74925  39.873  32.415   4.638
 6596W        W74926  24.558  26.093  10.548
 6597W        W74927  41.865  10.276   0.814
 6598W        W74928  36.522   0.449  10.076
 6599W        W74929  24.495  40.025   1.723
 6600W        W74930  31.639  18.159  11.375
 6601W        W74931   9.245  11.190   0.767
 6602W        W74932  38.855  39.393  11.108
 6603W        W74933  27.131  40.534  13.917
 6604W        W74934  34.114  39.847  12.080
 6605W        W74935  19.189  15.625   3.362
 6606W        W74936   6.869  40.929   3.736
 6607W        W74937  10.866  25.092   4.167
 6608W        W74938  39.986  36.416   2.902
 6609W        W74939  35.415  33.440  12.066
 6610W        W74940  27.023  27.680   1.241
 6611W        W74941  28.939  26.091   3.302
 6612W        W74942   9.246  38.004  13.467
 6613W        W74943   5.919   9.302   0.362
 6614W        W74944   3.907  13.134  14.501
 6615W        W74945  17.108  32.924  10.623
 6616W        W74946  41.982   3.813  11.029
 6617W        W74947   9.722   9.796   3.215
 6618W        W74948   5.722  27.598  13.505
 6619W        W74949  35.891  20.166   4.790
 6620W        W74950  17.130  14.710   4.125
 6621W        W74951  20.632  20.729   0.363
 6622W        W74952   2.760  11.821   2.670
 6623W        W74953  37.963   4.894  13.337
 6624W        W74954   4.861  10.352  11.007
 6625W        W74955   0.441  41.490   0.820
 6626W        W74956  25.080  38.889  13.895
 6627W        W74957  43.795  24.192   3.193
 6628W        W74958  41.324   4.330   2.203
 6629W        W74959  11.238  34.520   3.870
 6630W        W74960  39.474  25.692   4.758
 6631W        W74961  34.551   2.269  10.471
 6632W        W74962  16.650  21.722   0.418
 6633W        W74963  20.093  26.961  12.911
 6634W        W74964   7.379  44.891   3.826
 6635W        W74965  16.634   5.812  11.877
 6636W        W74966   0.306  28.467  12.528
 6637W        W74967  44.975   9.801  12.492
 6638W        W74968  20.614  29.970   3.304
 6639W        W74969   4.834   6.387   3.728
 6640W        W74970  35.002  37.473  14.936
 6641W        W74971  26.624  35.504   0.826
 6642W        W74972  38.920  23.998  14.298
 6643W        W74973  20.214  13.140  14.874
 6644W        W74974  37.564  42.990  14.965
 6645W        W74975  26.608  28.069  14.320
 6646W        W74976  28.940  28.587  11.383
 6647W        W74977  39.545  28.468  13.542
 6648W        W74978  10.358  32.035   1.819
 6649W        W74979  21.657  28.634   4.759
 6650W        W74980  28.950  35.099   0.909
 6651W        W74981  22.710  22.590   2.255
 6652W        W74982  18.736   6.353  13.478
 6653W        W74983   4.799   5.748   2.338
 6654W        W74984  14.791  23.044  11.529
 6655W        W74985   8.194  41.929  11.605
 6656W        W74986  25.570  30.095  14.279
 6657W        W74987  22.561  42.369   3.250
 6658W        W74988  43.768  25.054   1.787
 6659W        W74989  10.846  43.938  12.011
 6660W        W74990  21.051  16.193   3.272
 6661W        W74991  38.043  18.700  10.920
 6662W        W74992  14.789  34.512   9.959
 6663W        W74993  28.568  10.301  13.449
 6664W        W74994   5.909  43.362  10.431
 6665W        W74995   3.409  31.618  12.092
 6666W        W74996  39.530  14.604   0.891
 6667W        W74997  43.765  20.524   3.783
 6668W        W74998  27.959  15.596  14.029
 6669W        W74999  28.104  40.001   3.658
 6670W        W75000  26.058  37.528  10.969
 6671W        W75001  23.049  13.244  14.409
 6672W        W75002  29.651  29.035   1.259
 6673W        W75003  18.700   3.762  12.535
 6674W        W75004   4.356   4.776   3.239
 6675W        W75005  36.068  12.233  10.411
 6676W        W75006  23.489  16.299   1.902
 6677W        W75007  32.567  41.523   3.793
 6678W        W75008  15.163   2.841  13.874
 6679W        W75009  18.650  26.061   0.813
 6680W        W75010   5.389  10.728   4.195
 6681W        W75011  29.929  35.556  14.954
 6682W        W75012  38.555  33.030  12.890
 6683W        W75013  34.397  42.883  12.449
 6684W        W75014  15.165  24.168   4.288
 6685W        W75015  38.969  25.580  13.502
 6686W        W75016  13.639  34.925   1.385
 6687W        W75017  22.067  12.768   0.356
 6688W        W75018  13.131   2.391  12.570
 6689W        W75019  42.936   4.851   3.658
 6690W        W75020  25.157  37.919  10.906
 6691W        W75021  43.852  42.920  14.810
 6692W        W75022  34.477   3.765  12.023
 6693W        W75023  15.189  12.253  14.412
 6694W        W75024  11.774  23.676  14.514
 6695W        W75025   4.294  43.791   0.935
 6696W        W75026  15.203  26.628   3.652
 6697W        W75027  23.134  12.242  13.037
 6698W        W75028  28.581  16.698   3.835
 6699W        W75029  32.893  19.112  11.922
 6700W        W75030  25.114   2.471  11.976
 6701W        W75031  22.224  13.715   2.751
 6702W        W75032   0.419  31.931  11.429
 6703W        W75033  39.839  22.592   4.647
 6704W        W75034  30.985   1.317  14.403
 6705W        W75035  33.029  22.228   2.845
 6706W        W75036  44.976  39.366   3.836
 6707W        W75037  44.484  42.938  13.063
 6708W        W75038  13.246  27.609   0.789
 6709W        W75039  25.634  27.458  13.941
 6710W        W75040  39.013  34.598  11.881
 6711W        W75041  16.290  44.971   3.244
 6712W        W75042   6.220   6.800   4.785
 6713W        W75043  12.665  12.323  12.036
 6714W        W75044  38.330  19.751  13.842
 6715W        W75045  11.641  12.805  14.992
 6716W        W75046  28.937  11.323   2.724
 6717W        W75047  32.581   2.242   0.731
 6718W        W75048  34.058  15.692  12.954
 6719W        W75049  43.868  17.170   2.291
 6720W        W75050  30.530  41.819   0.754
 6721W        W75051  26.148  30.143   4.139
 6722W        W75052  37.033  10.706  11.429
 6723W        W75053  22.591  14.183  14.288
 6724W        W75054   5.433  24.206   0.448
 6725W        W75055  32.569  41.000  14.977
 6726W        W75056  11.626  23.159   3.214
 6727W        W75057  20.744  42.327   4.751
 6728W        W75058  14.340   3.245   4.802
 6729W        W75059  18.081  33.122   0.945
 6730W        W75060  43.292   7.240   4.269
 6731W        W75061   8.171  19.626  14.966
 6732W        W75062  21.138  21.045  13.508
 6733W        W75063  30.544   2.875   4.735
 6734W        W75064  22.528  42.376  10.581
 6735W        W75065   2.447  10.384  13.056
 6736W        W75066  34.406  40.426  11.111
 6737W        W75067   7.405  11.683  13.315
 6738W        W75068  23.987  39.419   2.235
 6739W        W75069   9.247   9.329   3.273
 6740W        W75070  28.610  29.629   0.329
 6741W        W75071  41.950   2.757  14.968
 6742W        W75072  12.170  22.217  12.834
 6743W        W75073  14.697  41.500  12.837
 6744W        W75074  41.964  30.627   2.712
 6745W        W75075   6.366  31.094   0.829
 6746W        W75076  10.713  31.541  11.574
 6747W        W75077   4.905   9.220   0.475
 6748W        W75078  14.828  39.944  12.918
 6749W        W75079  38.457  37.041   1.796
 6750W        W75080  23.142  32.029  10.030
 6751W        W75081  30.085  42.887  11.963
 6752W        W75082  24.678  16.086   1.843
 6753W        W75083   0.815  29.442   4.782
 6754W        W75084  41.007  31.512  14.860
 6755W        W75085   9.324   7.730  13.542
 6756W        W75086   2.757   8.351  11.873
 6757W        W75087  23.727  32.608   1.827
 6758W        W75088  21.714  26.189   2.191
 6759W        W75089  44.351  26.090  14.463
 6760W        W75090  20.030  38.007  12.975
 6761W        W75091  16.103  42.325   0.843
 6762W        W75092  15.678  43.318  14.002
 6763W        W75093  33.954  25.005  11.375
 6764W        W75094   8.322   4.714  13.383
 6765W        W75095  22.162   8.690  13.328
 6766W        W75096  23.187  27.980  13.915
 6767W        W75097  28.669  25.492   1.870
 6768W        W75098  35.473   1.265   4.712
 6769W        W75099  28.101  16.148  11.929
 6770W        W75100   3.835   3.283  10.927
 6771W        W75101  30.516  23.561  12.035
 6772W        W75102  33.426  10.708  13.309
 6773W        W75103  44.347  40.909   1.925
 6774W        W75104  13.695  21.153   3.175
 6775W        W75105  33.008  16.637   4.787
 6776W        W75106  15.206  39.813  14.901
 6777W        W75107  38.471  38.885   2.667
 6778W        W75108  38.380  36.505  14.794
 6779W        W75109   7.319   1.478  12.958
 6780W        W75110  37.020  15.252  11.504
 6781W        W75111   8.758  20.070   2.673
 6782W        W75112  31.938  30.544   2.844
 6783W        W75113  30.459  41.923  13.418
 6784W        W75114  30.516  40.004   0.764
 6785W        W75115  19.769  44.856  12.423
 6786W        W75116  38.348  18.784   1.294
 6787W        W75117  44.866  29.619  14.486
 6788W        W75118  21.540   3.336  12.551
 6789W        W75119  22.019  38.552  11.454
 6790W        W75120  33.945  31.036   1.421
 6791W        W75121   0.974  26.533   5.195
 6792W        W75122   0.901  21.226   5.145
 6793W        W75123   8.244   5.828   1.222
 6794W        W75124  15.732  10.738  13.427
 6795W        W75125  26.027  23.728   3.248
 6796W        W75126  16.277   3.256   3.683
 6797W        W75127  22.022  39.976  10.505
 6798W        W75128   2.877   6.366   1.928
 6799W        W75129  42.991  28.993  10.975
 6800W        W75130   9.180  29.453   1.431
 6801W        W75131  16.694  34.560  10.927
 6802W        W75132   9.256  12.335  11.513
 6803W        W75133   4.791  19.627   1.235
 6804W        W75134  20.535  19.752   2.878
 6805W        W75135  38.933  43.398  10.568
 6806W        W75136   1.345   0.491  12.868
 6807W        W75137  36.587   5.369  11.569
 6808W        W75138  17.224   2.469  13.532
 6809W        W75139   0.260   7.690   2.708
 6810W        W75140  26.481  15.221  12.503
 6811W        W75141  15.134  20.099   4.748
 6812W        W75142   1.341  39.431   3.267
 6813W        W75143  41.380  17.265   1.233
 6814W        W75144   1.804  23.999  12.847
 6815W        W75145  40.530  17.145  13.900
 6816W        W75146  42.026  25.524  11.529
 6817W        W75147  26.637   7.343   0.814
 6818W        W75148  10.181   2.314   4.267
 6819W        W75149  28.628  42.408   3.746
 6820W        W75150  26.140  17.556  10.984
 6821W        W75151   6.759  19.662   3.728
 6822W        W75152  31.526   8.266  12.038
 6823W        W75153  13.147  20.631  13.417
 6824W        W75154  30.047  29.505  13.004
 6825W        W75155  44.361  13.129   0.337
 6826W        W75156  34.526   9.153   2.815
 6827W        W75157  15.812  20.567  12.890
 6828W        W75158  31.513  40.908  10.985
 6829W        W75159  36.944  37.429  12.939
 6830W        W75160   2.786   2.397  13.421
 6831W        W75161  27.455  39.863   2.333
 6832W        W75162  25.123  38.455  12.887
 6833W        W75163  18.134  30.921  11.583
 6834W        W75164  22.552  10.194   1.336
 6835W        W75165   0.886  26.631   0.476
 6836W        W75166  30.598  13.670  13.003
 6837W        W75167  29.161   3.761  12.901
 6838W        W75168  36.541  24.695   2.726
 6839W        W75169   0.779  16.257  11.578
 6840W        W75170  21.625  33.538  13.501
 6841W        W75171  27.169  11.769  11.901
 6842W        W75172  16.781   3.451   0.266
 6843W        W75173  32.936   9.173  11.108
 6844W        W75174   5.201  28.182  11.917
 6845W        W75175  10.825   0.781  11.406
 6846W        W75176  44.275   6.232   2.239
 6847W        W75177  43.502  39.951   4.189
 6848W        W75178  43.475  29.619  13.504
 6849W        W75179   7.416   0.454   0.452
 6850W        W75180  27.498   6.685  13.043
 6851W        W75181  17.785  24.611   2.225
 6852W        W75182  43.857  42.009  11.096
 6853W        W75183  26.561  12.330  10.612
 6854W        W75184  20.599  17.208   9.532
 6855W        W75185  10.291   3.243  12.033
 6856W        W75186   5.821  12.232   4.815
 6857W        W75187  39.042  35.926  12.424
 6858W        W75188  14.728  35.406  13.403
 6859W        W75189  38.827  26.661   4.615
 6860W        W75190   0.368  44.296   0.769
 6861W        W75191   8.728  32.065   1.769
 6862W        W75192  34.003   1.371  12.416
 6863W        W75193  18.563  19.535   5.295
 6864W        W75194  29.640  21.551  12.476
 6865W        W75195  18.226  15.682  10.980
 6866W        W75196  38.449   9.825   4.833
 6867W        W75197  26.560  32.056  10.474
 6868W        W75198  28.655  13.240  13.424
 6869W        W75199  36.542  11.835   2.346
 6870W        W75200  21.028  38.890   2.716
 6871W        W75201  26.967  24.080   2.342
 6872W        W75202  36.511  29.476  12.342
 6873W        W75203  34.866   1.754   2.717
 6874W        W75204  42.982  19.211  12.011
 6875W        W75205   6.678  27.641   1.929
 6876W        W75206  36.469  13.245   4.236
 6877W        W75207   1.275   6.784   2.280
 6878W        W75208  15.747  34.984   3.666
 6879W        W75209   5.776  44.389   3.653
 6880W        W75210   4.359  11.628  10.951
 6881W        W75211  27.114  32.937   0.939
 6882W        W75212  44.410  18.680  14.807
 6883W        W75213  43.502  30.513  10.971
 6884W        W75214  16.115  32.610   3.678
 6885W        W75215  12.808  27.630   0.375
 6886W        W75216  14.109  16.632   4.710
 6887W        W75217  38.059   6.777   4.132
 6888W        W75218  22.694  28.484  12.373
 6889W        W75219  21.629  23.697  11.905
 6890W        W75220  43.407  32.141   4.657
 6891W        W75221   8.752  20.564  12.927
 6892W        W75222  21.710  13.689   1.774
 6893W        W75223  14.611  44.461   4.597
 6894W        W75224  32.542  31.535   0.394
 6895W        W75225  25.556  15.686  10.926
 6896W        W75226   5.785  27.170  11.507
 6897W        W75227   6.302   7.285   2.736
 6898W        W75228  27.135  38.374   2.870
 6899W        W75229   3.305  23.132  13.807
 6900W        W75230  15.175  22.554  13.498
 6901W        W75231  43.857  15.676   4.689
 6902W        W75232  42.878  21.116  13.404
 6903W        W75233  35.358  44.295  14.388
 6904W        W75234  20.691  23.150   4.163
 6905W        W75235  41.985  11.634   0.394
 6906W        W75236  32.977  15.679  11.942
 6907W        W75237  38.972  12.620  13.872
 6908W        W75238  20.240  25.468  13.851
 6909W        W75239  21.252  17.235  11.383
 6910W        W75240  20.110   0.412   3.162
 6911W        W75241  31.074  28.645  14.945
 6912W        W75242   6.227  26.989  13.476
 6913W        W75243   8.280  40.926   2.233
 6914W        W75244   8.283  12.831   2.410
 6915W        W75245  34.023  37.902   2.690
 6916W        W75246   7.908  36.896   2.783
 6917W        W75247  35.539  16.576  12.077
 6918W        W75248  14.248  21.652   0.293
 6919W        W75249  39.873  21.564   0.313
 6920W        W75250  17.729  17.688   3.151
 6921W        W75251  19.744   8.768   4.649
 6922W        W75252   0.897  12.731   4.800
 6923W        W75253   8.368   2.334   1.330
 6924W        W75254  18.578  23.559  10.027
 6925W        W75255  11.752  21.675  11.590
 6926W        W75256  33.042  10.715  11.889
 6927W        W75257  37.050   6.803  13.400
 6928W        W75258  29.974   7.396  11.019
 6929W        W75259  19.586  15.212   3.854
 6930W        W75260  19.119  26.151  13.329
 6931W        W75261  40.402  18.159  13.350
 6932W        W75262  24.557  18.184  13.394
 6933W        W75263  18.143  36.477   3.315
 6934W        W75264  15.818  30.567   2.900
 6935W        W75265  28.068  41.445  12.350
 6936W        W75266  26.026  41.417   3.268
 6937W        W75267  39.322  15.190  13.899
 6938W        W75268  16.182  41.987  13.500
 6939W        W75269  25.979  38.904  13.923
 6940W        W75270  15.265  29.625   4.154
 6941W        W75271  25.052  19.728  12.387
 6942W        W75272  16.568  28.534   3.693
 6943W        W75273  32.518   1.915   1.223
 6944W        W75274  37.502  13.154  13.038
 6945W        W75275  10.694  29.590   4.822
 6946W        W75276  36.016  25.671   4.670
 6947W        W75277   8.284  19.079  13.892
 6948W        W75278  38.866  44.326  11.393
 6949W        W75279  10.712  20.542   3.322
 6950W        W75280   9.823  28.080   2.189
 6951W        W75281  12.669  12.267   3.700
 6952W        W75282  30.607  42.336  11.978
 6953W        W75283  16.290  29.094   1.303
 6954W        W75284  29.465  28.991   2.813
 6955W        W75285  12.792  15.264   4.714
 6956W        W75286  25.470   3.802  11.985
 6957W        W75287  33.938  13.206  11.586
 6958W        W75288  14.194  22.239  12.376
 6959W        W75289  33.598  23.667  12.415
 6960W        W75290   6.201  37.546  13.949
 6961W        W75291  15.806  24.648  14.470
 6962W        W75292   4.334   5.772   3.648
 6963W        W75293  41.969   9.213   4.303
 6964W        W75294  39.982  12.307   0.878
 6965W        W75295  24.013   7.771  10.639
 6966W        W75296  13.629  22.182   1.845
 6967W        W75297   7.378  14.646  12.067
 6968W        W75298  24.606   9.710  12.052
 6969W        W75299  26.457   4.421  13.429
 6970W        W75300  40.442   3.395  11.456
 6971W        W75301   3.716  43.889  13.011
 6972W        W75302  38.442   5.911   9.946
 6973W        W75303  41.438  32.942   4.317
 6974W        W75304   5.216   7.765  12.548
 6975W        W75305  33.058   8.677  13.374
 6976W        W75306  36.058   1.279   2.328
 6977W        W75307  43.370  42.869  11.874
 6978W        W75308  30.995  28.136  14.904
 6979W        W75309  12.229  12.348  14.880
 6980W        W75310  30.589  18.159   2.178
 6981W        W75311   4.904  25.030   2.309
 6982W        W75312  12.157   9.863  12.880
 6983W        W75313  14.331  40.802   4.289
 6984W        W75314  23.662  33.080  10.515
 6985W        W75315   0.755  43.426  13.971
 6986W        W75316   0.950  10.875  13.452
 6987W        W75317  21.608  35.563   1.930
 6988W        W75318  20.096  26.074  12.854
 6989W        W75319  29.593   6.762  11.996
 6990W        W75320  20.713  22.550  14.308
 6991W        W75321  34.585  15.109   0.374
 6992W        W75322  13.743  11.321   0.840
 6993W        W75323  20.194  20.084   9.582
 6994W        W75324  32.597  11.185  12.410
 6995W        W75325  34.102  43.776   2.823
 6996W        W75326  26.002  17.224   1.225
 6997W        W75327   9.320  38.072  11.934
 6998W        W75328   4.330  27.996   2.867
 6999W        W75329  12.259  42.400   1.732
 7000W        W75330  21.056  24.603   1.734
 7001W        W75331  23.118  26.576  12.903
 7002W        W75332  44.898  33.880  11.054
 7003W        W75333  30.136   7.409   4.221
 7004W        W75334  13.288  36.052   4.820
 7005W        W75335  39.499   7.688   3.346
 7006W        W75336  29.464   9.260  13.428
 7007W        W75337   7.778  43.889  12.015
 7008W        W75338  24.588  18.770  11.379
 7009W        W75339  36.501  12.261   4.693
 7010W        W75340   5.920  14.134   4.775
 7011W        W75341  27.008  21.642   1.343
 7012W        W75342  41.471   0.753   3.267
 7013W        W75343  35.597  12.119   1.415
 7014W        W75344   3.264  14.779   5.237
 7015W        W75345   4.327   1.914  12.090
 7016W        W75346  18.787  12.800   2.271
 7017W        W75347  40.476  38.392   2.732
 7018W        W75348  41.470  25.502  11.116
 7019W        W75349   5.691  12.211   4.125
 7020W        W75350  38.525   2.956   2.797
 7021W        W75351  28.680  38.992   2.758
 7022W        W75352   4.207   1.250  14.806
 7023W        W75353   9.888  44.433   2.809
 7024W        W75354  11.800  31.970  12.346
 7025W        W75355   7.194  12.166  12.024
 7026W        W75356   2.862  27.002  13.021
 7027W        W75357  44.432  23.068   3.296
 7028W        W75358  30.951   1.324   0.956
 7029W        W75359   9.880  40.904   0.282
 7030W        W75360   8.741  34.121  11.106
 7031W        W75361   1.759  40.971  13.412
 7032W        W75362   9.657  31.136   3.371
 7033W        W75363  17.682   2.726  10.480
 7034W        W75364  33.392  27.181   4.612
 7035W        W75365  10.151   5.751  10.083
 7036W        W75366  41.958  33.503  10.157
 7037W        W75367  43.018  44.907  12.027
 7038W        W75368  24.515   0.250   3.180
 7039W        W75369  36.475  38.353  13.820
 7040W        W75370  28.441  37.052  11.887
 7041W        W75371  28.150  19.137  11.459
 7042W        W75372  43.323  41.405  10.916
 7043W        W75373  13.736  14.114   1.923
 7044W        W75374   2.469  44.864  13.387
 7045W        W75375   3.778  22.081   3.801
 7046W        W75376  22.736  40.433   0.767
 7047W        W75377  17.673  13.707  11.011
 7048W        W75378  11.181   9.372   1.880
 7049W        W75379   9.762  41.408   2.698
 7050W        W75380  13.757  28.585  13.011
 7051W        W75381  32.622  35.072  11.412
 7052W        W75382  17.112  34.943   1.742
 7053W        W75383  31.085  34.575  14.963
 7054W        W75384  32.904   7.823   2.223
 7055W        W75385  43.323  29.098   4.656
 7056W        W75386  31.597  37.554   4.313
 7057W        W75387  33.114   2.884   3.638
 7058W        W75388  34.092   7.280  12.925
 7059W        W75389   9.713  15.244  10.628
 7060W        W75390  12.329  37.486  11.991
 7061W        W75391  39.921   6.796   0.938
 7062W        W75392   5.712  43.974   0.382
 7063W        W75393  34.031   4.226  13.881
 7064W        W75394   4.828  24.178   3.743
 7065W        W75395  12.702  12.655  11.091
 7066W        W75396  16.651  41.989  10.972
 7067W        W75397  32.084  14.144  13.991
 7068W        W75398  38.455  33.573  10.963
 7069W        W75399   2.821   1.798  12.832
 7070W        W75400   1.445  29.561   0.300
 7071W        W75401  13.144   1.881   5.105
 7072W        W75402  17.127  29.494   1.776
 7073W        W75403   7.681   2.363   2.202
 7074W        W75404  35.897  26.158   1.325
 7075W        W75405  37.009  13.139   2.308
 7076W        W75406  11.294  29.579   3.693
 7077W        W75407  37.019  35.525  14.441
 7078W        W75408  21.217  27.601   1.840
 7079W        W75409  39.013  37.460   0.375
 7080W        W75410   6.863  24.078  12.414
 7081W        W75411  40.903  41.390   2.680
 7082W        W75412  13.351  10.139   0.279
 7083W        W75413  43.827  27.634   1.435
 7084W        W75414  28.006  36.959  11.525
 7085W        W75415  10.844  26.135   3.691
 7086W        W75416  20.208  34.882  12.408
 7087W        W75417   0.371  32.551   4.266
 7088W        W75418  21.021  23.037  14.374
 7089W        W75419  15.122  36.092  12.482
 7090W        W75420  44.818  23.121  12.374
 7091W        W75421   5.795  31.896  14.464
 7092W        W75422  16.705  43.949   0.247
 7093W        W75423   8.356  21.057   3.647
 7094W        W75424  41.477  38.018  11.108
 7095W        W75425   3.752   7.762  11.521
 7096W        W75426  21.255  34.532  10.987
 7097W        W75427  32.421  15.658   3.844
 7098W        W75428  35.466   7.784   3.311
 7099W        W75429  30.423  15.614  11.981
 7100W        W75430  17.211  21.518   4.169
 7101W        W75431  44.382  33.958  10.891
 7102W        W75432  36.841  44.503  14.764
 7103W        W75433  31.030  39.417   2.756
 7104W        W75434  38.887  20.197   2.887
 7105W        W75435  18.605  13.706  11.488
 7106W        W75436  42.321  19.237   1.882
 7107W        W75437  25.710  25.513  14.789
 7108W        W75438  36.855   8.836  12.504
 7109W        W75439  43.984  11.865   0.918
 7110W        W75440  10.268  28.153   4.278
 7111W        W75441  31.033  25.633  12.903
 7112W        W75442  29.669  13.269  13.952
 7113W        W75443  23.590   9.714  13.496
 7114W        W75444  25.010  18.257   1.419
 7115W        W75445  38.870  32.423   2.349
 7116W        W75446  10.706   3.844   2.335
 7117W        W75447  32.504  10.248   1.839
 7118W        W75448  32.130   9.204  14.767
 7119W        W75449  17.577  28.098  13.822
 7120W        W75450   3.290  41.909   0.830
 7121W        W75451  17.759  36.989   1.744
 7122W        W75452  12.173  33.408   1.436
 7123W        W75453  28.010   2.272   4.783
 7124W        W75454   6.241  16.290  11.567
 7125W        W75455   6.274   6.268  14.980
 7126W        W75456  24.138  25.070  10.616
 7127W        W75457  15.753  19.145  10.570
 7128W        W75458   5.836  20.704   4.300
 7129W        W75459   3.401  37.522  12.494
 7130W        W75460  29.454  10.290   3.245
 7131W        W75461  21.044  17.629   0.772
 7132W        W75462  19.659  31.113  12.093
 7133W        W75463  24.032  28.978   2.712
 7134W        W75464  14.705  11.651   4.830
 7135W        W75465  20.103   8.900  10.042
 7136W        W75466   3.401   2.249  13.378
 7137W        W75467  24.974  42.926   0.301
 7138W        W75468  37.062  14.722   3.790
 7139W        W75469   3.720   7.867  11.044
 7140W        W75470  12.635   3.783  14.935
 7141W        W75471  40.799  16.084  11.855
 7142W        W75472  31.461  40.350  12.945
 7143W        W75473  14.097  29.130   1.308
 7144W        W75474  22.616   1.363   3.235
 7145W        W75475  11.152  33.982   2.708
 7146W        W75476  31.420  20.107  11.961
 7147W        W75477  31.422  39.518   1.405
 7148W        W75478   2.432  33.570   1.856
 7149W        W75479  23.040  23.735   2.784
 7150W        W75480  18.072  33.517  11.041
 7151W        W75481  40.820   9.217  10.972
 7152W        W75482   4.724  22.719  14.290
 7153W        W75483   2.892  28.988  14.938
 7154W        W75484  30.538  20.051   2.882
 7155W        W75485  42.963  12.671   0.284
 7156W        W75486  37.833   5.882   4.817
 7157W        W75487   9.384  21.024  13.426
 7158W        W75488  26.030  14.268   0.409
 7159W        W75489  38.910  24.030  13.028
 7160W        W75490  38.965  10.857  13.804
 7161W        W75491  42.809  31.417  10.125
 7162W        W75492  44.320   3.897  14.363
 7163W        W75493  26.495  13.655  10.606
 7164W        W75494  30.554  22.542   9.677
 7165W        W75495  41.300  15.821  13.818
 7166W        W75496  32.986  40.425  12.578
 7167W        W75497   0.807  39.952   2.350
 7168W        W75498   7.884  42.894  12.344
 7169W        W75499   3.816  37.876  11.566
 7170W        W75500   2.738  17.123  12.517
 7171W        W75501  19.185  35.033  14.489
 7172W        W75502  23.508   4.363  14.760
 7173W        W75503  30.502  35.447   1.383
 7174W        W75504  31.479  15.317  10.620
 7175W        W75505   5.879   2.253  11.601
 7176W        W75506  44.853   6.678  10.521
 7177W        W75507  44.468   6.417  12.867
 7178W        W75508  36.463  11.176   2.665
 7179W        W75509  23.122   4.292   3.692
 7180W        W75510  19.201  36.399  13.355
 7181W        W75511  36.410   2.771  11.443
 7182W        W75512  11.166  42.502   4.330
 7183W        W75513  12.250  33.459  10.889
 7184W        W75514  12.762  41.325   0.731
 7185W        W75515  39.922  10.788  14.289
 7186W        W75516  12.718  20.140   4.225
 7187W        W75517  28.530  38.901  11.428
 7188W        W75518   5.697   0.493  14.772
 7189W        W75519   5.279  41.442  13.889
 7190W        W75520   4.312  35.855  14.991
 7191W        W75521  31.606   5.306  10.466
 7192W        W75522   8.873  13.168   3.255
 7193W        W75523  12.625  14.829   1.696
 7194W        W75524  25.995  40.367   1.820
 7195W        W75525  26.017  31.503   2.681
 7196W        W75526  32.072  30.540   5.193
 7197W        W75527  13.288   9.278   1.230
 7198W        W75528  42.417  39.542  12.870
 7199W        W75529  21.535   5.925   4.121
 7200W        W75530  19.575  12.246   4.632
 7201W        W75531  38.401  32.063   4.271
 7202W        W75532  38.864  24.102  10.999
 7203W        W75533  16.576  25.157  10.442
 7204W        W75534  40.472   5.890  12.439
 7205W        W75535   4.243  35.589   2.765
 7206W        W75536  17.754  13.258   1.866
 7207W        W75537  41.910  15.256   0.750
 7208W        W75538  37.929   0.985   9.957
 7209W        W75539  35.486  16.241  14.344
 7210W        W75540  28.662  21.594  12.030
 7211W        W75541  20.114   3.893  12.463
 7212W        W75542   1.843  37.969   3.354
 7213W        W75543  18.685   1.744  12.537
 7214W        W75544  30.110  31.542  10.599
 7215W        W75545  13.712  18.770   1.872
 7216W        W75546  11.173  11.290   0.923
 7217W        W75547  18.560  34.014   0.450
 7218W        W75548  34.930  25.177  14.016
 7219W        W75549  40.509  24.537  13.988
 7220W        W75550  39.510   0.327  13.380
 7221W        W75551   5.373   6.322  11.573
 7222W        W75552  29.576  40.026  10.566
 7223W        W75553  39.881   3.378  14.982
 7224W        W75554  11.145  10.829  12.547
 7225W        W75555  32.575  23.124  14.357
 7226W        W75556  37.879   0.757  10.632
 7227W        W75557  30.949  19.752  11.373
 7228W        W75558  23.062  24.690  14.945
 7229W        W75559  31.429  11.154   4.227
 7230W        W75560  32.559  31.565  12.422
 7231W        W75561  32.393   0.458   0.847
 7232W        W75562   3.386  10.696  14.493
 7233W        W75563  10.304   4.747  10.590
 7234W        W75564   7.808  14.690  10.450
 7235W        W75565   3.249   6.338   2.777
 7236W        W75566  19.178  27.579   3.156
 7237W        W75567  13.778  28.512  10.505
 7238W        W75568  30.982  19.677   2.886
 7239W        W75569   4.881  23.157  11.047
 7240W        W75570  34.030  39.911  10.496
 7241W        W75571  39.407   2.721  14.897
 7242W        W75572  13.207  35.499  14.789
 7243W        W75573  27.181  30.625  14.764
 7244W        W75574  15.695  43.950  14.391
 7245W        W75575  26.167   4.345  10.426
 7246W        W75576   4.848   4.773  13.445
 7247W        W75577   2.289  22.561   0.473
 7248W        W75578  43.291   9.689   0.356
 7249W        W75579  35.910   9.177  11.410
 7250W        W75580  31.119   6.408  13.890
 7251W        W75581   5.436  38.467   4.269
 7252W        W75582   5.308   4.723  13.822
 7253W        W75583  10.812   3.275   2.227
 7254W        W75584  40.803  15.663   0.820
 7255W        W75585  13.607  17.763   2.746
 7256W        W75586  26.590  35.909  10.489
 7257W        W75587  42.436   1.268   2.725
 7258W        W75588  38.018  23.609  14.335
 7259W        W75589  42.354  15.185   4.185
 7260W        W75590  44.470  34.429   1.231
 7261W        W75591  21.592  25.049   5.247
 7262W        W75592  34.608  31.945  14.010
 7263W        W75593  11.735  30.530  11.508
 7264W        W75594  14.629  17.166   1.379
 7265W        W75595  20.236  32.102  12.921
 7266W        W75596   9.732   1.972  12.938
 7267W        W75597   6.815  19.145   0.873
 7268W        W75598   8.831  24.657  13.991
 7269W        W75599  16.790  12.689   4.706
 7270W        W75600  22.509  38.535   4.315
 7271W        W75601   0.253  21.142   9.962
 7272W        W75602  23.517   5.434   2.799
 7273W        W75603  25.973  33.934  10.500
 7274W        W75604  14.597  41.424  12.516
 7275W        W75605  19.760  23.077   2.339
 7276W        W75606  15.732  26.013   4.621
 7277W        W75607  25.648  36.947  11.913
 7278W        W75608  34.109  13.181   2.200
 7279W        W75609  44.398  33.946  10.528
 7280W        W75610  15.266  14.590  11.409
 7281W        W75611  32.908  23.599   3.146
 7282W        W75612  33.602  22.614   4.710
 7283W        W75613  27.669   5.899  10.444
 7284W        W75614   9.229  18.149   1.769
 7285W        W75615  35.026  43.302  11.000
 7286W        W75616   5.721   6.699  13.310
 7287W        W75617  30.084   0.279  10.572
 7288W        W75618   4.843  35.370   0.806
 7289W        W75619  22.733  16.612  14.388
 7290W        W75620  29.942  23.491  14.895
 7291W        W75621  35.585  27.982   0.249
 7292W        W75622  43.785  44.880   0.960
 7293W        W75623  41.021  14.595   4.188
 7294W        W75624  43.365   6.783   2.223
 7295W        W75625  32.002  31.453  11.567
 7296W        W75626   4.400  43.294  10.467
 7297W        W75627  40.938  20.541   3.386
 7298W        W75628  18.769  41.887  13.497
 7299W        W75629  26.508  10.682   3.702
 7300W        W75630  38.862  23.589  11.086
 7301W        W75631  30.591   6.901   1.759
 7302W        W75632  23.140  36.386  11.403
 7303W        W75633  38.828   8.807   5.251
 7304W        W75634  43.448   3.290  14.934
 7305W        W75635  44.999  40.011   3.353
 7306W        W75636  18.561  34.002  11.970
 7307W        W75637  39.458   0.899  12.863
 7308W        W75638  21.554  15.313  14.427
 7309W        W75639  18.709   4.841   3.842
 7310W        W75640  31.537  30.609   0.468
 7311W        W75641  19.262  15.678  14.312
 7312W        W75642  18.051  24.656  13.922
 7313W        W75643  29.495  37.974  12.546
 7314W        W75644  23.733  15.675  11.516
 7315W        W75645   8.657  31.484   2.695
 7316W        W75646   1.311  22.088   1.389
 7317W        W75647   0.842  26.702  14.977
 7318W        W75648  16.670   0.349  12.864
 7319W        W75649  24.606  23.612   1.407
 7320W        W75650  27.090  34.972  13.537
 7321W        W75651  32.569  44.859   0.343
 7322W        W75652  39.971  42.793   2.243
 7323W        W75653  16.223  12.752   2.860
 7324W        W75654  34.566  34.483   0.317
 7325W        W75655  33.418  23.995  11.399
 7326W        W75656  37.859   3.731   1.895
 7327W        W75657  21.749   0.287  12.968
 7328W        W75658   1.446  19.720   2.785
 7329W        W75659   0.287  18.624  12.367
 7330W        W75660  23.631  42.996  13.005
 7331W        W75661  21.220   6.910  10.465
 7332W        W75662  38.420  34.438  13.809
 7333W        W75663  33.614  14.214  14.010
 7334W        W75664  11.361  21.061   0.425
 7335W        W75665  10.846  11.267   0.931
 7336W        W75666  24.675  23.676  12.039
 7337W        W75667   5.223  34.547   0.804
 7338W        W75668  18.193  35.892   3.273
 7339W        W75669  16.197  34.968   9.949
 7340W        W75670   0.842  23.022   1.374
 7341W        W75671   2.918  13.629   2.180
 7342W        W75672  41.465  42.962  12.953
 7343W        W75673  14.811  43.851   2.231
 7344W        W75674   3.350  29.469   1.330
 7345W        W75675   8.361   6.893   4.760
 7346W        W75676  12.249  38.913   4.343
 7347W        W75677  43.345   0.304   1.281
 7348W        W75678  41.354  13.205   3.820
 7349W        W75679   1.841  18.757  13.989
 7350W        W75680  34.985   0.463   0.427
 7351W        W75681   4.745  36.915   2.372
 7352W        W75682  39.472   0.978   0.836
 7353W        W75683  44.977  19.578   1.766
 7354W        W75684   2.762  18.566   2.670
 7355W        W75685  11.861   2.302  13.538
 7356W        W75686  43.931   2.469  13.980
 7357W        W75687  24.110   0.300   3.284
 7358W        W75688  18.577  43.404  11.607
 7359W        W75689  18.787  26.185   1.340
 7360W        W75690   7.346  38.900   0.251
 7361W        W75691  11.139   2.966   2.732
 7362W        W75692  42.970   5.301  13.535
 7363W        W75693  31.009   8.873   3.191
 7364W        W75694  29.022   2.892  13.990
 7365W        W75695   2.793  27.477   0.290
 7366W        W75696  35.366  19.638   4.162
 7367W        W75697  27.519  37.057   3.254
 7368W        W75698  38.560  33.995   3.184
 7369W        W75699  15.265  28.449   3.370
 7370W        W75700  20.633  41.808  13.329
 7371W        W75701  26.609  35.596   2.766
 7372W        W75702  12.655  39.002  13.887
 7373W        W75703  16.218  36.983   2.862
 7374W        W75704  25.562  10.233   1.779
 7375W        W75705  39.376  22.739   1.410
 7376W        W75706  28.134  20.643  10.482
 7377W        W75707  20.599  19.169   4.723
 7378W        W75708  11.858  22.586  13.339
 7379W        W75709  21.532  24.086  12.042
 7380W        W75710  34.985  43.388   4.229
 7381W        W75711   6.415   8.330  14.441
 7382W        W75712  29.001  34.378  10.910
 7383W        W75713  39.553  26.547   0.940
 7384W        W75714  34.864  35.931   1.876
 7385W        W75715  12.655  36.091  12.883
 7386W        W75716  11.153   8.829  14.413
 7387W        W75717  28.171   5.872  13.442
 7388W        W75718  20.169   9.784  10.895
 7389W        W75719   4.856   6.262   2.818
 7390W        W75720  44.983  29.070   2.353
 7391W        W75721  15.742   4.891   4.707
 7392W        W75722  12.229  36.586   4.743
 7393W        W75723  24.054  18.677  10.491
 7394W        W75724  10.262   2.866   9.969
 7395W        W75725  21.058  42.451   1.345
 7396W        W75726  34.926  17.619  11.942
 7397W        W75727  18.161  11.285  12.009
 7398W        W75728  35.866  19.712  12.437
 7399W        W75729  28.484   8.173   1.887
 7400W        W75730  34.984  33.989   3.168
 7401W        W75731  14.247  31.070  12.359
 7402W        W75732  14.314  35.365  13.364
 7403W        W75733  28.051   5.870  11.503
 7404W        W75734  30.124   2.333  12.340
 7405W        W75735  24.057  44.498   4.837
 7406W        W75736  42.957  38.041   3.840
 7407W        W75737  29.433  28.123  13.510
 7408W        W75738  19.659  27.986  10.977
 7409W        W75739  40.875  13.294  14.421
 7410W        W75740  33.914  32.564   2.781
 7411W        W75741  34.569  38.915  10.476
 7412W        W75742  18.249  21.702  14.437
 7413W        W75743  27.500  20.594  13.835
 7414W        W75744   5.739  27.019   3.294
 7415W        W75745  41.437   4.298   3.670
 7416W        W75746  16.252  29.131  13.994
 7417W        W75747  17.289  35.875   1.779
 7418W        W75748  24.110  14.156   1.761
 7419W        W75749  39.430  20.647   4.347
 7420W        W75750  22.704  32.130  10.460
 7421W        W75751  38.374  24.098  10.965
 7422W        W75752  11.803  26.080   1.232
 7423W        W75753   8.310  14.817   2.307
 7424W        W75754  33.435   6.819  14.305
 7425W        W75755   1.345  34.107  11.898
 7426W        W75756  35.501  16.144   2.218
 7427W        W75757   1.816  33.015   3.792
 7428W        W75758  40.378  20.149  13.384
 7429W        W75759   0.948  37.832  14.289
 7430W        W75760  23.557  35.461  13.897
 7431W        W75761  41.879  22.665   2.779
 7432W        W75762  40.372  42.819  12.530
 7433W        W75763   1.827  39.042  12.920
 7434W        W75764  41.498   0.768   1.359
 7435W        W75765  23.681  34.382   3.286
 7436W        W75766  22.734   5.308   2.356
 7437W        W75767  34.053  20.165  14.833
 7438W        W75768  38.835  34.418   9.964
 7439W        W75769  38.882  21.638  10.142
 7440W        W75770  18.150  17.123  11.872
 7441W        W75771   1.314  17.237   0.775
 7442W        W75772  17.085  41.039   0.252
 7443W        W75773  25.684  39.559   3.339
 7444W        W75774   3.797  15.136  12.074
 7445W        W75775   4.936  13.224  12.047
 7446W        W75776  30.981   9.382  13.983
 7447W        W75777  21.206  34.373  10.631
 7448W        W75778  28.991  41.885   2.800
 7449W        W75779  18.600  27.590   3.816
 7450W        W75780  40.803   8.837  11.067
 7451W        W75781  34.077  44.438  13.826
 7452W        W75782  26.563   4.750   2.694
 7453W        W75783  24.104  25.709  12.847
 7454W        W75784  14.688  37.577   3.152
 7455W        W75785  32.563   4.210  10.975
 7456W        W75786  43.875  41.786   4.330
 7457W        W75787   1.834  29.658  13.837
 7458W        W75788  23.687  44.423  11.427
 7459W        W75789  25.180   4.391  13.021
 7460W        W75790  42.910  41.937  11.875
 7461W        W75791   7.330  34.516  13.482
 7462W        W75792  11.813  18.585   4.130
 7463W        W75793  25.969  36.472   4.167
 7464W        W75794  24.078  44.894  14.897
 7465W        W75795  25.101  43.398   4.188
 7466W        W75796   8.896   5.249  10.903
 7467W        W75797  11.849  35.419  13.899
 7468W        W75798   2.764  42.988  10.998
 7469W        W75799  41.926  30.594  13.796
 7470W        W75800  15.297   0.439  14.488
 7471W        W75801  37.836  31.976  13.853
 7472W        W75802  20.164  37.968  12.509
 7473W        W75803  30.943  10.188  13.447
 7474W        W75804  14.260  11.739   3.693
 7475W        W75805  26.130   5.410   3.853
 7476W        W75806  24.654  17.644   3.287
 7477W        W75807  30.098  23.612   3.273
 7478W        W75808   0.260  13.244   2.677
 7479W        W75809  40.408   6.353  14.479
 7480W        W75810   3.836  14.814  12.837
 7481W        W75811  26.585  44.832  12.076
 7482W        W75812  34.058  23.227   2.764
 7483W        W75813   9.746  10.269  12.885
 7484W        W75814  25.137  28.505   3.376
 7485W        W75815  22.238   6.213  11.943
 7486W        W75816  13.154  40.953   4.227
 7487W        W75817  16.806  11.647   4.599
 7488W        W75818  18.622  35.044  11.436
 7489W        W75819  27.994   1.760   0.287
 7490W        W75820   2.364  41.923   3.146
 7491W        W75821  40.384   2.359   0.744
 7492W        W75822  22.615   8.251   1.339
 7493W        W75823  38.423  29.529   0.248
 7494W        W75824  43.775  19.071  12.503
 7495W        W75825   8.164  15.313  10.975
 7496W        W75826  43.314  14.270  10.457
 7497W        W75827  44.452  12.193  12.063
 7498W        W75828  40.333  40.858  13.400
 7499W        W75829  25.592  34.476  14.879
 7500W        W75830  18.739  39.357  13.949
 7501W        W75831  39.862  29.044  14.833
 7502W        W75832  33.012  25.163  11.953
 7503W        W75833  15.180   1.757   3.329
 7504W        W75834  19.541  25.000  10.607
 7505W        W75835  35.897  15.260   4.775
 7506W        W75836  41.941  22.192   1.415
 7507W        W75837   1.967  17.626   4.214
 7508W        W75838  24.977  11.700  14.760
 7509W        W75839  40.834  24.174  12.570
 7510W        W75840   5.369  15.096   4.721
 7511W        W75841  33.926  35.426  13.448
 7512W        W75842  32.898  27.969  12.922
 7513W        W75843  20.661  23.143  11.605
 7514W        W75844  33.441  42.887  14.290
 7515W        W75845  20.706  38.940   0.478
 7516W        W75846  27.666  30.000  11.045
 7517W        W75847  36.513  39.380  14.402
 7518W        W75848   8.285   1.818   0.417
 7519W        W75849   3.937  32.062   3.187
 7520W        W75850  10.308  31.967  14.846
 7521W        W75851   4.398  30.002  11.119
 7522W        W75852  37.896   7.732   0.356
 7523W        W75853  18.067  25.641  12.486
 7524W        W75854  39.476  42.386   4.598
 7525W        W75855   6.678  27.948  10.988
 7526W        W75856  25.518  23.593   1.357
 7527W        W75857  13.261  41.476   1.908
 7528W        W75858  21.582  37.543   2.294
 7529W        W75859  32.092  40.526  13.372
 7530W        W75860  26.140  42.511   2.662
 7531W        W75861  20.596  41.868   2.781
 7532W        W75862  16.736  12.212   0.368
 7533W        W75863  38.420  14.704  11.867
 7534W        W75864  11.852  28.986  11.952
 7535W        W75865  38.067  30.609  14.386
 7536W        W75866  18.675  16.612  12.447
 7537W        W75867  11.760  13.695   3.788
 7538W        W75868  29.036  25.105   1.357
 7539W        W75869  38.923  37.448  13.377
 7540W        W75870  16.313  35.506   1.422
 7541W        W75871  29.062   4.315  10.961
 7542W        W75872  15.222  24.683   4.623
 7543W        W75873  16.072  40.047  10.569
 7544W        W75874   8.374  40.916  11.078
 7545W        W75875  21.676  43.965  12.010
 7546W        W75876   3.339  37.874  12.835
 7547W        W75877  19.688  43.512   0.484
 7548W        W75878  33.875  15.641   3.227
 7549W        W75879  11.867  35.900   5.272
 7550W        W75880   7.237  42.357   2.289
 7551W        W75881  36.954  22.028  10.488
 7552W        W75882  36.434   5.334  12.426
 7553W        W75883  15.627  25.185  14.944
 7554W        W75884   5.851   7.355   1.742
 7555W        W75885  15.276  36.003  13.945
 7556W        W75886  29.560  37.981   0.298
 7557W        W75887  17.069  10.873  10.500
 7558W        W75888   4.939  44.859  12.411
 7559W        W75889  20.075  35.357  11.382
 7560W        W75890  19.642  36.540   0.313
 7561W        W75891   6.745   5.783   2.859
 7562W        W75892  25.541  19.052   4.814
 7563W        W75893  20.034  20.573  12.000
 7564W        W75894  34.559  38.505  12.895
 7565W        W75895  14.221  42.400  10.558
 7566W        W75896   3.722  28.037   2.199
 7567W        W75897  13.247  30.414   9.981
 7568W        W75898  16.723  28.105  12.517
 7569W        W75899  44.891  21.580  11.110
 7570W        W75900  36.396  41.492   1.396
 7571W        W75901  27.685  16.281   0.907
 7572W        W75902  33.602  20.740  13.403
 7573W        W75903  21.045  23.680   0.952
 7574W        W75904  35.382   7.780  12.055
 7575W        W75905   1.428  29.160  14.977
 7576W        W75906  37.983  40.952  13.922
 7577W        W75907  16.725  40.543   2.252
 7578W        W75908   9.296  11.332   1.811
 7579W        W75909  10.736  25.008  11.419
 7580W        W75910   9.799   3.233  11.432
 7581W        W75911  13.660   6.864   1.424
 7582W        W75912  34.017  22.211  12.546
 7583W        W75913  27.148  26.980  12.015
 7584W        W75914  23.617  37.866  14.901
 7585W        W75915  10.216   3.751  14.859
 7586W        W75916  27.948  24.974  12.421
 7587W        W75917  24.516  12.322  13.927
 7588W        W75918  44.782  16.765   0.448
 7589W        W75919  28.081  32.985   2.902
 7590W        W75920  27.973  13.757   4.740
 7591W        W75921  17.113  35.864  12.906
 7592W        W75922  10.850  39.369  11.503
 7593W        W75923  30.597  27.964  13.504
 7594W        W75924  41.839  41.910   4.803
 7595W        W75925  25.673   5.791   0.300
 7596W        W75926   2.920  24.032   3.356
 7597W        W75927   1.736   2.930  14.975
 7598W        W75928  31.598   4.784  12.341
 7599W        W75929  36.054  22.127   0.928
 7600W        W75930  12.695  28.128   0.935
 7601W        W75931  43.766  29.100   2.708
 7602W        W75932  33.086  32.420  11.406
 7603W        W75933   0.303  36.399   3.779
 7604W        W75934  44.865  22.251   0.898
 7605W        W75935  35.867  37.495  12.093
 7606W        W75936   8.192   5.763  14.002
 7607W        W75937  42.019  18.599  10.512
 7608W        W75938  27.654  43.010   3.746
 7609W        W75939  20.194   9.692  14.378
 7610W        W75940  40.015  44.447   4.601
 7611W        W75941  19.094  21.211   0.834
 7612W        W75942  37.938   0.320   4.780
 7613W        W75943  19.593  24.027  11.889
 7614W        W75944  34.471  28.941   0.845
 7615W        W75945  18.791   3.367   2.230
 7616W        W75946   5.778  42.785   3.374
 7617W        W75947  27.040  20.633  13.974
 7618W        W75948   0.853   9.379   1.793
 7619W        W75949  14.162  36.066   2.411
 7620W        W75950  14.294   8.251  12.928
 7621W        W75951  21.199  29.564   5.284
 7622W        W75952  14.615  39.437   2.216
 7623W        W75953  19.770  30.523  12.064
 7624W        W75954  34.411   2.297   1.821
 7625W        W75955  13.230   5.381  13.327
 7626W        W75956  38.955  28.517   1.829
 7627W        W75957  20.190  19.753   0.818
 7628W        W75958   8.345   4.214   2.369
 7629W        W75959  22.695  34.891   2.758
 7630W        W75960  37.450   8.835   3.189
 7631W        W75961  41.919  42.878   2.724
 7632W        W75962  20.563  26.583   3.344
 7633W        W75963  31.004  41.018   0.426
 7634W        W75964  24.701  17.679  14.371
 7635W        W75965  35.025   4.845   2.309
 7636W        W75966  44.469  13.198   1.431
 7637W        W75967  16.723  19.147  12.844
 7638W        W75968   2.957  13.664   0.823
 7639W        W75969  25.965  16.318  12.354
 7640W        W75970  42.410  40.545  13.487
 7641W        W75971  38.892  15.261   4.636
 7642W        W75972  15.684  20.104  13.036
 7643W        W75973   9.200   4.930  13.523
 7644W        W75974  18.637  14.748  11.011
 7645W        W75975   8.870  26.999  14.908
 7646W        W75976  26.676  15.600   4.330
 7647W        W75977  26.575  20.064  14.011
 7648W        W75978  21.544  41.838   1.838
 7649W        W75979   7.888  14.249  11.518
 7650W        W75980  24.721  41.903   3.364
 7651W        W75981  21.580  44.987  12.026
 7652W        W75982  19.559  21.538   3.762
 7653W        W75983   1.300  29.965   2.386
 7654W        W75984   2.811   3.901   1.900
 7655W        W75985  28.969  27.104   4.237
 7656W        W75986  29.588  13.685  14.983
 7657W        W75987  25.108  30.919  10.582
 7658W        W75988  10.644  43.396  12.980
 7659W        W75989   4.811  35.395   4.270
 7660W        W75990   1.334  39.841   4.827
 7661W        W75991  32.901  20.239   4.283
 7662W        W75992  21.043  27.628  14.008
 7663W        W75993  16.283  24.491   1.385
 7664W        W75994  40.444   8.765   1.363
 7665W        W75995  34.008  44.819   1.309
 7666W        W75996  16.745  43.020   0.349
 7667W        W75997  28.538   0.889   0.357
 7668W        W75998   2.781  39.040   3.784
 7669W        W75999  44.487  19.127  10.564
 7670W        W76000   9.385  26.561  11.540
 7671W        W76001  32.427  26.071  12.533
 7672W        W76002  43.394   6.794  12.990
 7673W        W76003  38.949  24.668  13.438
 7674W        W76004  35.887   0.407  11.531
 7675W        W76005  38.362  13.183  13.967
 7676W        W76006  29.601   2.720   2.883
 7677W        W76007  16.690  23.060   2.814
 7678W        W76008  24.620  28.066   1.821
 7679W        W76009  42.329  37.930  12.911
 7680W        W76010  11.262  33.527  12.576
 7681W        W76011  30.008  29.998  10.472
 7682W        W76012  18.784  12.698  12.921
 7683W        W76013   5.763  16.268  12.006
 7684W        W76014  41.793  33.039   0.469
 7685W        W76015  37.086  42.480   2.713
 7686W        W76016   9.674  41.345  10.531
 7687W        W76017  35.479   6.847  10.638
 7688W        W76018  38.827  25.071   3.166
 7689W        W76019  13.684  28.557   4.799
 7690W        W76020  32.523   6.900  12.875
 7691W        W76021  34.064  36.554  13.497
 7692W        W76022  18.670  16.196  11.392
 7693W        W76023  23.528   6.213  11.048
 7694W        W76024  38.469  23.695   0.808
 7695W        W76025   0.901   1.744  11.498
 7696W        W76026  10.331  25.024  14.006
 7697W        W76027  37.871  18.281  10.903
 7698W        W76028   6.376  10.376   1.886
 7699W        W76029  14.628  13.664   3.342
 7700W        W76030  17.306  23.139  10.566
 7701W        W76031   0.872  16.185  13.346
 7702W        W76032   2.309  19.276  14.859
 7703W        W76033  27.531  43.991   4.695
 7704W        W76034   8.340  26.998  14.844
 7705W        W76035   0.314   3.317   1.749
 7706W        W76036   5.740  10.841  14.026
 7707W        W76037  11.135   9.772  14.829
 7708W        W76038   8.186   7.789  14.292
 7709W        W76039  34.917  43.919  11.123
 7710W        W76040  31.491   5.741  12.510
 7711W        W76041  22.599  30.481   3.267
 7712W        W76042  31.487  27.513   1.795
 7713W        W76043  34.036   8.351   4.771
 7714W        W76044  16.796  22.223   0.778
 7715W        W76045  44.843   6.193   2.685
 7716W        W76046  30.637   4.279  13.512
 7717W        W76047  23.591   7.748   0.848
 7718W        W76048  28.024  16.585  13.808
 7719W        W76049  27.124  31.557   5.182
 7720W        W76050  14.763  20.198   4.262
 7721W        W76051  13.232   5.362  12.010
 7722W        W76052   6.883  30.935   3.638
 7723W        W76053  13.187  43.354  11.573
 7724W        W76054  42.469  15.114   0.939
 7725W        W76055  19.059  32.963  14.852
 7726W        W76056  12.829   7.767   1.753
 7727W        W76057  21.705  40.344   2.345
 7728W        W76058  21.541  16.318   3.297
 7729W        W76059  37.558  22.203   3.344
 7730W        W76060  36.878  25.563   1.425
 7731W        W76061   3.221  35.522  11.505
 7732W        W76062  30.117  34.962   3.386
 7733W        W76063  13.668   8.673   3.299
 7734W        W76064  16.283   6.279   1.918
 7735W        W76065  42.345  24.179   0.880
 7736W        W76066  38.482  19.640  10.524
 7737W        W76067  42.410   6.725  11.516
 7738W        W76068   4.749  41.417  12.511
 7739W        W76069  25.010  44.333  12.864
 7740W        W76070  27.167  39.378  11.594
 7741W        W76071  25.115  29.629  11.075
 7742W        W76072  27.197  30.589   1.410
 7743W        W76073  40.862  33.422  12.420
 7744W        W76074   5.856  26.055   0.468
 7745W        W76075  14.132  34.391  11.103
 7746W        W76076  25.032  44.485   4.328
 7747W        W76077  23.684  30.964   0.321
 7748W        W76078  23.019  11.851  14.823
 7749W        W76079  21.516  12.270  12.557
 7750W        W76080  43.445  18.260  12.387
 7751W        W76081   3.827  14.187  10.425
 7752W        W76082  15.715  20.089  13.399
 7753W        W76083  11.816  37.991   2.231
 7754W        W76084  14.724  18.610  10.559
 7755W        W76085   2.326  44.958   1.935
 7756W        W76086  32.499  23.121   3.310
 7757W        W76087  28.468  31.997  13.521
 7758W        W76088  37.409   1.868  11.864
 7759W        W76089  32.088  36.382   4.740
 7760W        W76090  30.125   1.287  11.583
 7761W        W76091  18.544  14.277   3.710
 7762W        W76092  19.164  12.798  11.036
 7763W        W76093  30.018  15.611   3.208
 7764W        W76094   7.203   7.254   3.869
 7765W        W76095  38.035  33.914   4.336
 7766W        W76096  37.849  42.829   1.337
 7767W        W76097  27.604  18.577  13.357
 7768W        W76098  25.132   4.439   3.736
 7769W        W76099  25.593  14.693  11.970
 7770W        W76100  17.186  44.861   4.303
 7771W        W76101  22.693  41.878   4.338
 7772W        W76102  15.808  27.487   0.272
 7773W        W76103  20.694  41.334  12.526
 7774W        W76104  33.022  17.274  11.556
 7775W        W76105  15.681  41.472  11.984
 7776W        W76106  38.408  30.593   0.933
 7777W        W76107  20.524   1.347  10.995
 7778W        W76108   3.911   1.774   1.261
 7779W        W76109  42.301   7.250  12.438
 7780W        W76110  11.283  40.894  11.050
 7781W        W76111  16.178   4.708  13.324
 7782W        W76112   8.272   5.835  12.372
 7783W        W76113  18.718   1.820   0.762
 7784W        W76114   2.248  41.486  10.481
 7785W        W76115  22.616   1.737   4.610
 7786W        W76116  23.164  31.486  13.934
 7787W        W76117   7.878  22.569  12.388
 7788W        W76118  42.463  25.985   1.254
 7789W        W76119  44.859  30.482  12.075
 7790W        W76120  24.121  20.077   2.318
 7791W        W76121   8.794  39.829   4.769
 7792W        W76122  20.051  30.455   3.363
 7793W        W76123  44.779  17.631   2.755
 7794W        W76124  20.172   0.897  10.076
 7795W        W76125  41.800  20.268  10.511
 7796W        W76126  19.764  34.864   4.302
 7797W        W76127  33.025  26.027  12.840
 7798W        W76128  11.762  24.146   1.924
 7799W        W76129   2.929  34.974   0.315
 7800W        W76130  41.525  41.324   4.691
 7801W        W76131   1.914  27.197  14.758
 7802W        W76132  42.945   7.207   0.805
 7803W        W76133  42.480   5.757  10.985
 7804W        W76134  42.033  21.602  11.002
 7805W        W76135  37.484   5.819  14.818
 7806W        W76136  21.545  16.227  13.812
 7807W        W76137  35.550  37.017  12.989
 7808W        W76138  40.355  44.339  10.090
 7809W        W76139  15.763  11.867   5.114
 7810W        W76140  23.990  37.959  12.090
 7811W        W76141  20.743  30.111  10.127
 7812W        W76142  40.457  20.269  11.059
 7813W        W76143   2.957  16.595   3.382
 7814W        W76144   1.289  39.968   2.247
 7815W        W76145  27.542  43.426  11.032
 7816W        W76146  21.738  24.163  13.041
 7817W        W76147  15.177  43.494  14.844
 7818W        W76148   2.277  31.542  10.410
 7819W        W76149  36.044  12.130   1.335
 7820W        W76150  10.821  42.854   1.241
 7821W        W76151   1.939  44.304   1.762
 7822W        W76152  44.755  26.184  14.339
 7823W        W76153  19.236  18.176  14.763
 7824W        W76154   4.728  16.125   2.880
 7825W        W76155  18.673   0.472   4.207
 7826W        W76156  43.790   7.890  11.419
 7827W        W76157  29.541  42.471   4.339
 7828W        W76158  30.638  34.910  13.447
 7829W        W76159  14.231  43.009   4.239
 7830W        W76160  10.266  35.903  12.879
 7831W        W76161  38.030  16.169  14.412
 7832W        W76162  17.164   0.830  14.505
 7833W        W76163  19.192  29.050   2.809
 7834W        W76164  27.524  31.903  14.427
 7835W        W76165  15.251  38.355   0.784
 7836W        W76166   8.166  43.017   4.126
 7837W        W76167   5.361  27.129   4.645
 7838W        W76168  44.998   1.381  13.457
 7839W        W76169  34.375  12.175   3.233
 7840W        W76170   8.879  21.606   3.165
 7841W        W76171  26.463  29.622  11.046
 7842W        W76172  29.145  20.645   5.296
 7843W        W76173   4.429   9.239  13.941
 7844W        W76174  39.559  40.439   4.772
 7845W        W76175  16.619   8.805  11.880
 7846W        W76176  30.940  32.619  12.903
 7847W        W76177  23.707   8.845  12.431
 7848W        W76178  39.517  18.756   2.285
 7849W        W76179  15.218  15.223  13.867
 7850W        W76180  23.076  34.975   3.783
 7851W        W76181  16.596  38.872  10.453
 7852W        W76182  44.490  23.163   2.343
 7853W        W76183  20.709  28.535  14.418
 7854W        W76184   2.840  38.976  10.630
 7855W        W76185  11.828  21.145   2.322
 7856W        W76186   5.335   1.770  13.349
 7857W        W76187  38.914  21.224  13.452
 7858W        W76188  27.062  36.069  13.912
 7859W        W76189  19.744  21.727  11.932
 7860W        W76190  14.131   1.735   2.820
 7861W        W76191   1.767  37.468  11.945
 7862W        W76192  18.668  27.532  14.884
 7863W        W76193  44.812  43.905  12.984
 7864W        W76194   7.910  30.931   0.474
 7865W        W76195  27.521  40.540   0.250
 7866W        W76196  22.682   1.246   2.757
 7867W        W76197   6.203  41.461   0.417
 7868W        W76198  15.278  11.276  10.497
 7869W        W76199  16.175   7.372   2.767
 7870W        W76200  16.309  32.627  12.916
 7871W        W76201   4.710   8.170  11.054
 7872W        W76202  41.511  35.104  13.878
 7873W        W76203   3.435  18.574   1.250
 7874W        W76204  15.599  26.141   3.684
 7875W        W76205  35.928  12.702   4.699
 7876W        W76206  21.232  13.700  10.504
 7877W        W76207  31.606  12.332  12.863
 7878W        W76208  20.582   3.373  11.001
 7879W        W76209  36.871  20.226   2.247
 7880W        W76210  34.512  12.360   3.661
 7881W        W76211   5.722   8.872   3.261
 7882W        W76212  12.644  34.021   1.901
 7883W        W76213  32.491  37.446   0.455
 7884W        W76214   4.391  12.812   3.246
 7885W        W76215  27.014  22.554  12.351
 7886W        W76216  35.383  40.866   2.734
 7887W        W76217  11.652  18.639  12.363
 7888W        W76218  39.888  34.611   4.769
 7889W        W76219  13.757  28.096  11.417
 7890W        W76220  11.171  25.020  10.561
 7891W        W76221  34.921   3.860  10.549
 7892W        W76222  16.226  30.598   4.280
 7893W        W76223  44.952  18.110   4.831
 7894W        W76224  22.663  17.666   1.859
 7895W        W76225  35.464  29.628   2.871
 7896W        W76226  23.730   4.210  12.465
 7897W        W76227  14.677   8.890  13.822
 7898W        W76228  11.243  21.093   4.630
 7899W        W76229  28.971  42.299   0.344
 7900W        W76230  36.918  11.845  12.409
 7901W        W76231  20.645   9.853  14.361
 7902W        W76232  22.715  24.693   3.764
 7903W        W76233   9.747   6.279   1.918
 7904W        W76234  23.025  35.596   4.301
 7905W        W76235  38.476   9.339   2.752
 7906W        W76236  27.059  30.659   3.183
 7907W        W76237   2.816  11.370   3.228
 7908W        W76238  31.571   7.316   2.686
 7909W        W76239  19.577  39.386  12.465
 7910W        W76240  40.897  24.188  11.427
 7911W        W76241   2.346  27.635   4.129
 7912W        W76242  31.559   6.843   0.374
 7913W        W76243  17.786  31.455  10.587
 7914W        W76244  40.401  19.626   4.136
 7915W        W76245  23.491  19.569  12.937
 7916W        W76246   5.746   1.262   3.382
 7917W        W76247  30.005   1.260  13.918
 7918W        W76248   0.294   0.486  14.322
 7919W        W76249   4.415   5.855   4.309
 7920W        W76250  24.193   3.759  10.919
 7921W        W76251   3.753  14.696   4.134
 7922W        W76252   0.366   2.231  14.400
 7923W        W76253  15.716  24.060  13.406
 7924W        W76254  42.328  37.955   1.716
 7925W        W76255  43.404  18.083   2.802
 7926W        W76256  33.587  38.472  13.877
 7927W        W76257   0.261  29.595   4.206
 7928W        W76258  44.307  43.861   2.790
 7929W        W76259  15.093   9.273   3.780
 7930W        W76260   2.899  26.478  11.943
 7931W        W76261  16.683  12.770   4.334
 7932W        W76262   1.474  32.391   4.772
 7933W        W76263  40.858  43.423   1.772
 7934W        W76264  29.939  10.862  11.582
 7935W        W76265  11.634  35.924  11.507
 7936W        W76266  44.262  13.634   1.278
 7937W        W76267  12.192   2.330   3.283
 7938W        W76268  17.603  19.142   3.799
 7939W        W76269  40.545  16.587  13.875
 7940W        W76270  39.941  21.241  12.554
 7941W        W76271  29.153  31.548   2.868
 7942W        W76272   0.742  14.613  12.861
 7943W        W76273  10.734  39.895   4.153
 7944W        W76274   0.252  39.956  10.965
 7945W        W76275  17.574  27.120   0.931
 7946W        W76276  15.693   7.691   4.728
 7947W        W76277  11.637  44.401   2.700
 7948W        W76278  26.113   0.885   2.323
 7949W        W76279  12.720   1.784   1.397
 7950W        W76280  11.848  32.553  11.484
 7951W        W76281  29.943   3.347  14.807
 7952W        W76282  23.589   2.330   0.272
 7953W        W76283   2.431  41.885  12.432
 7954W        W76284   9.846  44.948  11.948
 7955W        W76285   6.215   0.820   0.336
 7956W        W76286  33.525  15.779  13.867
 7957W        W76287  19.609   3.762   4.292
 7958W        W76288  40.821   8.815  11.447
 7959W        W76289  11.795  24.088   3.710
 7960W        W76290  23.078   1.330   3.349
 7961W        W76291   0.876   4.420  10.937
 7962W        W76292  34.528   7.206  12.881
 7963W        W76293  35.566  39.450  11.934
 7964W        W76294  31.143   0.338   0.285
 7965W        W76295  21.697  17.689   1.242
 7966W        W76296   8.736  13.789  13.901
 7967W        W76297   5.756  11.317   3.787
 7968W        W76298  16.159   8.224  11.913
 7969W        W76299  28.536   0.851   4.776
 7970W        W76300  30.514  19.068   0.730
 7971W        W76301  33.875  27.029   3.275
 7972W        W76302  24.701  11.723  11.594
 7973W        W76303  15.230  34.451  12.011
 7974W        W76304  13.236  36.372   4.640
 7975W        W76305   0.339   8.705  11.868
 7976W        W76306  20.598  23.711  10.431
 7977W        W76307   7.416  44.987  12.512
 7978W        W76308  21.702  40.997   1.907
 7979W        W76309  40.402  15.791   1.884
 7980W        W76310  13.644  12.682   4.190
 7981W        W76311  44.371   9.652  14.979
 7982W        W76312  40.988  33.880   3.263
 7983W        W76313  40.342  42.327   3.834
 7984W        W76314  38.844  18.071   0.289
 7985W        W76315  37.502  30.494   1.446
 7986W        W76316  40.398   2.303   0.337
 7987W        W76317  19.750  23.999  13.525
 7988W        W76318  39.875  44.464  12.422
 7989W        W76319  26.680  23.987  13.360
 7990W        W76320   6.337  13.616  10.607
 7991W        W76321  21.628   0.814  11.411
 7992W        W76322  21.597  42.281   1.808
 7993W        W76323  16.214  31.975  13.379
 7994W        W76324  12.253  27.067  13.483
 7995W        W76325  25.024  12.680   3.238
 7996W        W76326  32.009  31.486   1.258
 7997W        W76327   2.403  27.005  10.998
 7998W        W76328  29.000  27.101   0.764
 7999W        W76329  37.981   5.322  12.013
 8000W        W76330   7.364  12.284   0.440
 8001W        W76331  31.607  42.317  11.031
 8002W        W76332  20.663  12.137  13.508
 8003W        W76333   6.413  40.886  14.332
 8004W        W76334  21.030   2.914  11.583
 8005W        W76335  13.253  28.049  14.763
 8006W        W76336  28.571  33.948  13.538
 8007W        W76337  42.784  36.074  13.433
 8008W        W76338  22.549   7.274   5.102
 8009W        W76339  28.570  20.032  14.810
 8010W        W76340  10.863   0.861  10.949
 8011W        W76341  23.054   2.464   2.341
 8012W        W76342  19.127  38.998  12.417
 8013W        W76343  12.830  11.725  11.471
 8014W        W76344  16.783  44.400  12.072
 8015W        W76345  17.759   7.330   0.961
 8016W        W76346  25.073  30.034   1.406
 8017W        W76347  11.353  11.712  10.416
 8018W        W76348  39.368   1.380   2.185
 8019W        W76349  42.906   1.882  10.623
 8020W        W76350  44.460  24.720   3.292
 8021W        W76351  28.079  17.758   4.679
 8022W        W76352  17.658  26.542  10.516
 8023W        W76353   7.363  10.834   3.753
 8024W        W76354  35.039  38.077  13.510
 8025W        W76355  12.657   3.940   1.301
 8026W        W76356  24.085   9.247  11.453
 8027W        W76357   1.859  22.710   2.740
 8028W        W76358  14.115  21.198   0.950
 8029W        W76359   2.913   8.244   2.336
 8030W        W76360  21.702  19.598   2.876
 8031W        W76361  29.078  29.645  13.353
 8032W        W76362  29.448  29.654  14.974
 8033W        W76363  37.479  40.473   2.253
 8034W        W76364  22.111  20.656   4.744
 8035W        W76365  27.594  11.830  14.331
 8036W        W76366  12.696  13.829  12.932
 8037W        W76367  36.999  24.218  11.087
 8038W        W76368  17.263  32.931  14.324
 8039W        W76369  28.151  12.159   0.804
 8040W        W76370   7.908  25.474   0.954
 8041W        W76371  40.031  11.347  14.427
 8042W        W76372   4.866  18.245   0.762
 8043W        W76373  42.439   4.448   3.332
 8044W        W76374   8.227   0.402  10.616
 8045W        W76375  10.781  10.703   0.800
 8046W        W76376   8.344  19.544   0.838
 8047W        W76377  13.119   5.865   0.898
 8048W        W76378  14.235  25.639   4.229
 8049W        W76379  10.179  10.752  11.382
 8050W        W76380  17.099   8.674   4.626
 8051W        W76381  43.768  12.670  14.462
 8052W        W76382  17.569  17.201  11.902
 8053W        W76383   1.809  17.281  11.420
 8054W        W76384  12.232  43.489  12.920
 8055W        W76385  18.598  10.159   4.639
 8056W        W76386  20.613  43.450  11.421
 8057W        W76387  12.330   0.486   2.270
 8058W        W76388  34.382   9.718   3.696
 8059W        W76389  16.102  24.185  11.943
 8060W        W76390  31.021  41.399   4.799
 8061W        W76391  23.056  35.936  12.473
 8062W        W76392   2.358  19.755   4.731
 8063W        W76393  17.771  38.344  13.506
 8064W        W76394  32.471  20.045   1.394
 8065W        W76395  29.449   8.346  10.465
 8066W        W76396   6.377  11.741   4.235
 8067W        W76397   9.323  32.477   2.895
 8068W        W76398  11.243  37.474   0.346
 8069W        W76399  23.007   9.719  13.397
 8070W        W76400  12.853  10.666  12.969
 8071W        W76401  28.600  26.054  14.888
 8072W        W76402  24.008  10.784  12.550
 8073W        W76403  28.026  14.210   2.723
 8074W        W76404   2.414  32.017   0.453
 8075W        W76405  42.436  36.961  10.468
 8076W        W76406   7.861  38.938   3.764
 8077W        W76407  32.554  14.161  10.499
 8078W        W76408  18.660  12.837  12.523
 8079W        W76409   6.888  18.732   1.865
 8080W        W76410  18.577  15.651  10.561
 8081W        W76411   5.229  27.162   2.834
 8082W        W76412   7.778   0.464  14.275
 8083W        W76413  23.636  29.586   4.275
 8084W        W76414   6.739  37.351   4.259
 8085W        W76415  19.264  29.454   3.750
 8086W        W76416  23.701  42.025  14.934
 8087W        W76417  12.204  23.118   2.279
 8088W        W76418  31.574  35.020   1.406
 8089W        W76419  20.569  21.164  10.616
 8090W        W76420  22.592  25.036  11.589
 8091W        W76421   5.278   1.833  12.032
 8092W        W76422   9.331   9.346  12.478
 8093W        W76423  28.029  19.204  12.045
 8094W        W76424  29.491  38.348  14.276
 8095W        W76425  10.148   7.264   3.158
 8096W        W76426  15.593   3.255   9.972
 8097W        W76427   4.837   1.254  13.920
 8098W        W76428  11.357  26.648  11.405
 8099W        W76429  27.074   8.820   0.848
 8100W        W76430  11.808  42.392   0.305
 8101W        W76431  42.825  44.314  12.874
 8102W        W76432  39.512  29.532  10.058
 8103W        W76433  13.762  11.154  14.913
 8104W        W76434  15.656  34.014  10.611
 8105W        W76435   4.370  22.532  12.981
 8106W        W76436  19.690   3.293   1.368
 8107W        W76437  19.080   3.803  12.464
 8108W        W76438  20.660  13.788   1.929
 8109W        W76439  16.629  40.866   4.218
 8110W        W76440  21.756  32.133  11.946
 8111W        W76441  44.829  27.116  14.837
 8112W        W76442  17.646  40.392   1.764
 8113W        W76443  10.770  19.262  13.447
 8114W        W76444  10.853  28.109  14.446
 8115W        W76445  28.601  20.221  12.366
 8116W        W76446  17.294  23.692  11.499
 8117W        W76447   7.417  21.106  13.962
 8118W        W76448  25.216  30.027   0.818
 8119W        W76449   2.891  30.617  13.547
 8120W        W76450   1.929  19.053  13.889
 8121W        W76451  36.503  42.466   1.846
 8122W        W76452  44.330  19.631   2.225
 8123W        W76453   8.406   5.740   4.141
 8124W        W76454   9.189  38.510   1.427
 8125W        W76455  36.861  18.579   3.336
 8126W        W76456   3.735  18.241  11.553
 8127W        W76457  36.451  41.880  10.458
 8128W        W76458   6.705   7.317  10.575
 8129W        W76459   8.806  26.000  13.811
 8130W        W76460   6.417  36.007   4.600
 8131W        W76461  37.997   1.300  12.422
 8132W        W76462  41.887  20.748  12.033
 8133W        W76463  12.171  14.693  12.904
 8134W        W76464   8.272  40.393  14.804
 8135W        W76465  25.624  18.643  11.580
 8136W        W76466  44.953   9.386   4.155
 8137W        W76467  21.073  37.537   2.856
 8138W        W76468  13.819   7.829  12.013
 8139W        W76469  11.235  36.509   3.199
 8140W        W76470  29.551  31.006   0.840
 8141W        W76471  43.331   7.332   2.699
 8142W        W76472   9.341  14.822   3.315
 8143W        W76473  31.929   7.374  13.350
 8144W        W76474  14.687   9.742  11.006
 8145W        W76475  23.666  17.188   2.892
 8146W        W76476  42.975  32.909  13.945
 8147W        W76477  40.815  15.674  13.439
 8148W        W76478  23.630  20.183  14.868
 8149W        W76479  32.007  16.132  12.474
 8150W        W76480  42.994  22.505   2.689
 8151W        W76481  36.094   8.889  11.482
 8152W        W76482  34.549  38.555  13.358
 8153W        W76483  35.505  32.576  12.442
 8154W        W76484  41.854   4.311   3.631
 8155W        W76485  12.210  35.589  11.055
 8156W        W76486  12.336   3.873   1.245
 8157W        W76487  29.965  25.626  10.463
 8158W        W76488  20.205  22.099   2.790
 8159W        W76489   5.856  24.636   4.151
 8160W        W76490  42.294   4.263   4.240
 8161W        W76491  44.917  28.493  14.370
 8162W        W76492  43.480  37.944  14.401
 8163W        W76493  40.937   5.777   9.454
 8164W        W76494  22.616  13.815  10.989
 8165W        W76495  15.661  37.956   3.774
 8166W        W76496   4.836  29.117   1.861
 8167W        W76497  20.623  41.502  14.481
 8168W        W76498   3.289   5.711   4.640
 8169W        W76499  10.147  31.151  11.526
 8170W        W76500  39.456  30.082  14.857
 8171W        W76501  17.270  38.916  13.991
 8172W        W76502  31.547  41.939   0.744
 8173W        W76503   0.942  21.563   1.869
 8174W        W76504  23.526   2.387   1.854
 8175W        W76505  38.337   6.336   0.838
 8176W        W76506   4.345   6.329   1.352
 8177W        W76507   8.675   2.920  14.899
 8178W        W76508   2.253  14.603  14.511
 8179W        W76509  44.821   7.739  14.431
 8180W        W76510  26.206   9.326  13.492
 8181W        W76511  20.642  33.950  11.381
 8182W        W76512  36.893  11.294   0.782
 8183W        W76513  10.269  41.025   0.464
 8184W        W76514  21.182  19.597  10.000
 8185W        W76515  37.029  15.246  10.495
 8186W        W76516   0.944  17.594  13.503
 8187W        W76517  38.536  38.478   4.228
 8188W        W76518  37.925  25.703   3.203
 8189W        W76519   4.345  17.091   4.788
 8190W        W76520  33.046  41.467  13.025
 8191W        W76521  41.324   6.242   0.269
 8192W        W76522  15.138  28.500   3.787
 8193W        W76523   7.715   9.277  14.824
 8194W        W76524  44.840   3.399   0.823
 8195W        W76525   3.229  38.564  13.423
 8196W        W76526  16.215  20.179   3.711
 8197W        W76527  17.760  31.421   4.313
 8198W        W76528  23.694   3.228  12.865
 8199W        W76529  30.147   0.778  14.791
 8200W        W76530  39.541  36.068  13.040
 8201W        W76531  19.171   9.343   2.214
 8202W        W76532  37.939  24.480  14.945
 8203W        W76533   0.889  25.702  11.933
 8204W        W76534   1.411  28.084   2.732
 8205W        W76535   9.734  37.833  12.922
 8206W        W76536  43.943   1.458  14.442
 8207W        W76537  23.109  28.972   1.448
 8208W        W76538  24.160  29.980   3.307
 8209W        W76539  28.037  25.975   0.900
 8210W        W76540   3.924  24.563  12.047
 8211W        W76541  21.684  39.484   4.736
 8212W        W76542  43.777  34.525  13.812
 8213W        W76543  44.381   7.874  11.894
 8214W        W76544  26.113  41.442  10.489
 8215W        W76545   8.337  43.858   0.935
 8216W        W76546  25.204  16.090   0.380
 8217W        W76547  25.612  10.287  14.304
 8218W        W76548  44.905   4.832  11.966
 8219W        W76549   5.758  21.621   2.324
 8220W        W76550   6.882  38.455   1.716
 8221W        W76551  27.572  32.632   4.165
 8222W        W76552  44.799  14.279  11.607
 8223W        W76553  36.458  41.923   4.670
 8224W        W76554  11.761  36.845   0.929
 8225W        W76555  16.617  22.525   3.746
 8226W        W76556  17.306  22.131  11.866
 8227W        W76557  19.534  11.314   2.730
 8228W        W76558   9.247   2.357   0.822
 8229W        W76559   9.721  11.163  13.448
 8230W        W76560   8.246   7.794  11.513
 8231W        W76561  41.536  33.115  13.909
 8232W        W76562  25.079  39.433  13.846
 8233W        W76563   9.169  18.240   4.746
 8234W        W76564  38.974  20.655  12.569
 8235W        W76565  15.593  23.078  12.837
 8236W        W76566   7.260  11.686   5.099
 8237W        W76567   0.847  33.037   3.732
 8238W        W76568  18.245  19.632  12.012
 8239W        W76569   3.764  11.181   3.813
 8240W        W76570   4.447   4.233  13.470
 8241W        W76571  22.512  18.273   5.696
 8242W        W76572  29.018  29.155  11.025
 8243W        W76573  41.329   8.322   3.860
 8244W        W76574   3.378  29.575  10.624
 8245W        W76575  27.044  31.621   0.297
 8246W        W76576  40.303  19.771   0.885
 8247W        W76577  21.227  12.729  11.521
 8248W        W76578  31.964   0.823   0.328
 8249W        W76579  39.529  13.765  10.536
 8250W        W76580  29.151  25.963   0.479
 8251W        W76581  18.598  32.076  14.986
 8252W        W76582  28.125  40.475  12.346
 8253W        W76583  21.737  19.197   1.913
 8254W        W76584   6.347  19.653  11.574
 8255W        W76585  10.368  34.924  11.091
 8256W        W76586  31.605  20.755  11.952
 8257W        W76587  34.089  30.942   3.786
 8258W        W76588  30.075  34.604  12.842
 8259W        W76589  18.790  18.294  13.501
 8260W        W76590   9.665  19.653   2.687
 8261W        W76591   4.932  13.122   2.294
 8262W        W76592  11.329  33.991   4.774
 8263W        W76593  27.045  14.608   2.367
 8264W        W76594   4.744   2.868   1.393
 8265W        W76595  32.466  22.531   0.901
 8266W        W76596   2.832  12.853   3.691
 8267W        W76597   4.797  19.238  14.299
 8268W        W76598   1.451  40.498   1.261
 8269W        W76599  40.006  32.020   0.399
 8270W        W76600   3.262  12.147  13.443
 8271W        W76601   3.731   7.801   3.277
 8272W        W76602  26.156  41.523   2.888
 8273W        W76603  27.015   4.284  13.382
 8274W        W76604  36.889   9.205   0.411
 8275W        W76605  33.468  26.028   0.442
 8276W        W76606   6.796  39.542  11.073
 8277W        W76607  39.511  11.137   3.822
 8278W        W76608  23.649  35.379   0.830
 8279W        W76609   4.343  44.841  12.379
 8280W        W76610   7.813   5.706  14.894
 8281W        W76611  43.367  36.005   2.379
 8282W        W76612  21.523  24.618   3.332
 8283W        W76613  28.136   0.889  10.153
 8284W        W76614  16.808   2.274   1.391
 8285W        W76615  36.540  24.225   0.878
 8286W        W76616  19.207  21.710  11.434
 8287W        W76617  34.095  43.348  14.285
 8288W        W76618  31.117  44.323  13.496
 8289W        W76619  22.667  25.147   0.445
 8290W        W76620   9.712  31.918   3.637
 8291W        W76621  43.881  32.961  14.379
 8292W        W76622  42.874  26.501   1.418
 8293W        W76623  16.118  36.028  13.374
 8294W        W76624  33.400  16.586   3.657
 8295W        W76625  44.799   1.447  12.379
 8296W        W76626  20.064  36.848   3.279
 8297W        W76627  41.493  17.263  11.401
 8298W        W76628  34.094  28.099  11.570
 8299W        W76629  24.191  39.500  12.379
 8300W        W76630  28.554  16.762   2.683
 8301W        W76631  13.348  12.625  12.522
 8302W        W76632   8.320  33.583   3.742
 8303W        W76633   8.657  42.512   0.478
 8304W        W76634  13.607  33.007   0.939
 8305W        W76635   0.304  44.352  11.593
 8306W        W76636   2.468  24.660   0.465
 8307W        W76637  10.275  18.639   1.803
 8308W        W76638  20.630  36.916   4.179
 8309W        W76639   3.230  21.709   2.785
 8310W        W76640  36.043   0.796   2.802
 8311W        W76641   9.349  35.361   3.205
 8312W        W76642  18.251  10.852  13.975
 8313W        W76643  27.590  43.321  10.554
 8314W        W76644  12.269  17.705   1.407
 8315W        W76645  28.118   4.826  10.519
 8316W        W76646  44.954  33.420   0.753
 8317W        W76647  20.527   7.188   1.450
 8318W        W76648  33.425  38.463  11.917
 8319W        W76649  40.863  21.200  14.030
 8320W        W76650   1.398  44.272  11.906
 8321W        W76651  30.044  18.706   2.793
 8322W        W76652  19.583  39.940   1.709
 8323W        W76653   0.878  10.383  10.916
 8324W        W76654  12.745  12.258   0.299
 8325W        W76655  41.340   0.397  11.042
 8326W        W76656  18.630  31.413   2.736
 8327W        W76657  32.596  34.518   2.867
 8328W        W76658  29.581  21.528   0.813
 8329W        W76659   5.835  19.695   3.303
 8330W        W76660  27.080  12.717  10.643
 8331W        W76661   1.976   4.402  14.954
 8332W        W76662  31.570   5.332  12.899
 8333W        W76663   8.837  43.416   2.182
 8334W        W76664   3.461  26.084   0.837
 8335W        W76665  15.259  13.289   2.867
 8336W        W76666  26.178   2.896  14.883
 8337W        W76667  12.136  33.595   3.254
 8338W        W76668  37.486  25.157   0.734
 8339W        W76669  24.709   6.428   0.400
 8340W        W76670   3.889  20.602  11.886
 8341W        W76671  16.080  19.734  11.560
 8342W        W76672  28.453   4.440  14.456
 8343W        W76673  38.544   8.693   1.716
 8344W        W76674  17.744  36.394  14.782
 8345W        W76675  19.255   7.768  14.433
 8346W        W76676  23.719  21.653  12.944
 8347W        W76677   1.867   3.403   4.292
 8348W        W76678  38.060  39.811  14.869
 8349W        W76679  37.364   4.229   4.818
 8350W        W76680  10.771   4.436   0.773
 8351W        W76681   8.806  29.146  13.795
 8352W        W76682   2.236  41.536  12.476
 8353W        W76683   9.880  18.248  11.509
 8354W        W76684   8.661  14.708   0.807
 8355W        W76685   5.836  35.974   1.697
 8356W        W76686  33.005   6.363   0.419
 8357W        W76687  41.791  13.280   2.406
 8358W        W76688  37.966   4.925   1.710
 8359W        W76689  31.116   6.906   0.848
 8360W        W76690  25.680  11.763  13.379
 8361W        W76691   8.782  39.369   1.794
 8362W        W76692  13.250  31.646  12.535
 8363W        W76693  13.243  31.151   0.760
 8364W        W76694  36.415  19.285   3.326
 8365W        W76695  29.613  41.863   3.751
 8366W        W76696   0.276  25.560  11.488
 8367W        W76697   1.249   0.464   1.253
 8368W        W76698  36.383  39.939  11.080
 8369W        W76699   2.469  11.344   3.720
 8370W        W76700   0.884  14.127   3.767
 8371W        W76701  33.066  28.556   2.403
 8372W        W76702  35.005   1.867   4.230
 8373W        W76703  31.482  31.082  11.082
 8374W        W76704  43.944  23.087  10.922
 8375W        W76705  37.069  16.781   0.924
 8376W        W76706   3.763  32.551  12.474
 8377W        W76707  28.644   9.889   5.673
 8378W        W76708  36.516  44.846  11.393
 8379W        W76709  43.385  36.849  10.964
 8380W        W76710  32.013  10.206   2.871
 8381W        W76711  36.991   6.378  12.823
 8382W        W76712  14.817  39.343   1.353
 8383W        W76713  13.601  39.996   1.211
 8384W        W76714  37.928   4.715  11.898
 8385W        W76715  16.581  15.663   3.314
 8386W        W76716  39.376   1.412   4.245
 8387W        W76717   3.858  37.035  10.640
 8388W        W76718   3.766   6.807   1.427
 8389W        W76719  44.293  38.828   0.914
 8390W        W76720  12.847  39.935  12.825
 8391W        W76721  38.008  26.464   4.336
 8392W        W76722  27.188  35.935   2.897
 8393W        W76723   5.273  39.924   1.216
 8394W        W76724  35.540  15.696  12.036
 8395W        W76725  30.025  37.550  12.912
 8396W        W76726   6.183   1.408  13.936
 8397W        W76727  34.955  10.698   4.258
 8398W        W76728   9.332  25.981   1.729
 8399W        W76729   9.206  41.790   4.619
 8400W        W76730   6.334  11.336   1.372
 8401W        W76731  33.405   7.347   5.237
 8402W        W76732   3.391  22.502   5.103
 8403W        W76733  13.208  30.477  14.344
 8404W        W76734  32.636   7.283   0.452
 8405W        W76735   8.178  12.197   4.609
 8406W        W76736  34.421  23.024   0.834
 8407W        W76737  20.529   5.873  12.359
 8408W        W76738  27.004  17.223   4.351
 8409W        W76739  33.498   5.221   4.744
 8410W        W76740  33.602   8.268  12.876
 8411W        W76741  27.043  10.718  12.494
 8412W        W76742  35.905  17.223   5.252
 8413W        W76743  21.746  25.671  12.346
 8414W        W76744   2.834  32.435   4.197
 8415W        W76745  15.286  23.596  11.906
 8416W        W76746  24.662  40.402  11.504
 8417W        W76747  44.916  20.699   2.389
 8418W        W76748   1.471  15.707   1.234
 8419W        W76749  31.953  26.148  14.353
 8420W        W76750  42.019  43.913  13.414
 8421W        W76751  43.858   3.434  14.310
 8422W        W76752  35.564  24.604  11.995
 8423W        W76753  43.842  43.887   1.245
 8424W        W76754  30.560  24.013   0.372
 8425W        W76755  19.745  19.235   9.938
 8426W        W76756  14.146  43.390  14.997
 8427W        W76757  13.281  36.531   3.221
 8428W        W76758   4.409  13.339  11.435
 8429W        W76759  37.944  31.524  13.023
 8430W        W76760  30.655  31.470  13.356
 8431W        W76761   4.806   8.198  12.541
 8432W        W76762  13.723  20.105  13.361
 8433W        W76763  25.110  43.797   1.444
 8434W        W76764  14.625  41.900  14.920
 8435W        W76765  43.938  25.183  14.761
 8436W        W76766  14.681   3.319   5.222
 8437W        W76767  12.749  39.924  12.355
 8438W        W76768  11.715  31.589   2.412
 8439W        W76769   0.491  43.393   0.400
 8440W        W76770   9.288   5.907   2.775
 8441W        W76771  24.097  12.838   3.681
 8442W        W76772  18.636  26.618   4.314
 8443W        W76773  24.027  44.893   4.620
 8444W        W76774  10.245  13.766   1.361
 8445W        W76775   8.737  27.479  11.423
 8446W        W76776  31.997  13.677   4.206
 8447W        W76777  43.359   7.693  11.396
 8448W        W76778  20.184  12.256  11.412
 8449W        W76779  38.028   8.348  10.638
 8450W        W76780  30.994  10.251   4.217
 8451W        W76781  34.105   0.938   3.830
 8452W        W76782  27.666  33.526   4.183
 8453W        W76783  13.307  32.114   4.603
 8454W        W76784  32.516   5.391   1.928
 8455W        W76785  24.153  12.280  11.118
 8456W        W76786  37.007  10.697   1.808
 8457W        W76787  42.397  14.713   4.704
 8458W        W76788  17.277  14.752   3.230
 8459W        W76789  19.661  42.349  14.479
 8460W        W76790   5.826   8.382   2.288
 8461W        W76791   0.879  41.018  10.967
 8462W        W76792   7.207  16.634   4.234
 8463W        W76793   2.771  32.556   2.880
 8464W        W76794  41.816  23.535  13.887
 8465W        W76795  31.497  27.508   0.417
 8466W        W76796  18.089  19.710   3.707
 8467W        W76797  19.551  26.104   1.351
 8468W        W76798  24.042  13.289  11.477
 8469W        W76799  28.176   6.338   2.181
 8470W        W76800   6.269   5.780  13.375
 8471W        W76801  35.885  13.231   2.792
 8472W        W76802  10.854  41.916  13.509
 8473W        W76803  28.638  37.076  12.384
 8474W        W76804  14.822  22.014   1.918
 8475W        W76805   8.221  41.370  14.365
 8476W        W76806  14.321   5.907   3.843
 8477W        W76807  22.550   3.896   1.931
 8478W        W76808  38.411  24.613   0.878
 8479W        W76809  36.875   6.720  14.907
 8480W        W76810  36.926  17.755   4.775
 8481W        W76811  24.520  11.281  14.286
 8482W        W76812   5.770  12.140  13.808
 8483W        W76813   6.372  13.300  13.041
 8484W        W76814   1.445  30.505   0.298
 8485W        W76815   0.485   1.893  13.442
 8486W        W76816  27.639  36.901   4.654
 8487W        W76817  23.686  18.633  12.432
 8488W        W76818  23.239  29.601  11.940
 8489W        W76819  30.433  14.217  12.899
 8490W        W76820  38.851   3.943  12.570
 8491W        W76821  32.392  27.006   3.161
 8492W        W76822  18.592   1.319   1.895
 8493W        W76823  16.143  33.926   0.788
 8494W        W76824  19.582  24.066  14.848
 8495W        W76825  16.298  34.436   0.742
 8496W        W76826   7.277  37.441   2.871
 8497W        W76827  34.448  20.644  12.562
 8498W        W76828   9.811   5.280   3.851
 8499W        W76829  37.949  14.253   4.124
 8500W        W76830  43.301  34.494  11.944
 8501W        W76831   1.978  25.578  13.458
 8502W        W76832  10.805  16.795   1.800
 8503W        W76833   8.725  35.511   3.715
 8504W        W76834  14.724  17.144   4.717
 8505W        W76835  26.021   6.421   2.810
 8506W        W76836  10.687  11.785  11.382
 8507W        W76837  31.488   0.972  12.363
 8508W        W76838  28.053  13.723  11.511
 8509W        W76839  37.351  38.056  10.916
 8510W        W76840  26.529  28.530   4.630
 8511W        W76841  44.293  11.132  13.815
 8512W        W76842  38.568   5.815   1.776
 8513W        W76843  15.618  36.877   3.323
 8514W        W76844  11.623  38.384  11.585
 8515W        W76845   4.800  34.448  12.922
 8516W        W76846  35.381  41.299  14.984
 8517W        W76847   0.462  39.842  14.946
 8518W        W76848  10.290   2.354  14.965
 8519W        W76849  16.310   4.258   2.791
 8520W        W76850  13.128  17.105   3.839
 8521W        W76851  14.105   7.318  10.441
 8522W        W76852  27.144   4.922  10.898
 8523W        W76853  18.606   5.833  10.492
 8524W        W76854   9.793   2.464   1.409
 8525W        W76855   2.249  29.532   2.369
 8526W        W76856   8.669  25.127  11.993
 8527W        W76857  40.483  16.109  10.922
 8528W        W76858  29.935  19.628  13.855
 8529W        W76859  16.789   5.202   2.896
 8530W        W76860  22.032  19.578   2.773
 8531W        W76861   4.240   8.271   4.686
 8532W        W76862  14.326   9.867   1.854
 8533W        W76863   6.383  42.932   1.723
 8534W        W76864  41.798   6.284  11.475
 8535W        W76865  27.127  14.181  10.078
 8536W        W76866   7.797  16.281   4.286
 8537W        W76867   3.456  30.971   4.820
 8538W        W76868   7.875  27.994   1.256
 8539W        W76869  32.985  11.143  12.989
 8540W        W76870  12.226  39.536  14.283
 8541W        W76871  32.583  24.647  13.321
 8542W        W76872  43.849   4.237   4.688
 8543W        W76873  43.272  41.808   4.143
 8544W        W76874  41.998  15.182  12.853
 8545W        W76875  13.119  25.001  11.043
 8546W        W76876   2.398  30.528   0.267
 8547W        W76877  19.683  19.080  13.800
 8548W        W76878  22.009  23.724   2.767
 8549W        W76879  14.207  34.083  13.895
 8550W        W76880   3.228  24.492   2.208
 8551W        W76881  21.134  34.948  10.975
 8552W        W76882  24.695  20.249  14.939
 8553W        W76883   4.877  11.131  11.580
 8554W        W76884   1.938  41.887  12.963
 8555W        W76885   3.816  41.893   3.787
 8556W        W76886  26.082  22.039   2.187
 8557W        W76887  20.072  31.023  12.395
 8558W        W76888   2.884   2.312   0.472
 8559W        W76889  14.596  30.115  14.314
 8560W        W76890   6.715  33.511   2.832
 8561W        W76891  40.040  24.217  10.999
 8562W        W76892  38.497  12.797  14.817
 8563W        W76893  43.854  44.792   4.830
 8564W        W76894   5.785  23.707  12.033
 8565W        W76895  44.860  29.658  13.339
 8566W        W76896  38.877   4.772   0.803
 8567W        W76897  12.749  14.155  14.450
 8568W        W76898  15.210   6.328  14.934
 8569W        W76899  25.468  29.446  14.484
 8570W        W76900  27.594   2.926   3.665
 8571W        W76901  23.627  30.524  10.558
 8572W        W76902  37.487  44.896  11.608
 8573W        W76903  24.120  42.816  12.033
 8574W        W76904  11.250   6.759  10.917
 8575W        W76905  33.406  30.417  13.048
 8576W        W76906  13.616   2.358  14.336
 8577W        W76907   4.230  19.567  12.516
 8578W        W76908  27.681  25.975  10.592
 8579W        W76909  34.383  12.714   3.746
 8580W        W76910  29.553   5.202  10.536
 8581W        W76911  25.690   9.873  10.964
 8582W        W76912  27.520  10.763  10.938
 8583W        W76913  36.948  15.704  11.048
 8584W        W76914  21.523   4.257  11.106
 8585W        W76915   8.792   6.291  12.930
 8586W        W76916  19.550  12.260   0.455
 8587W        W76917  11.807   1.883  13.448
 8588W        W76918  40.304  44.860  11.424
 8589W        W76919   6.822   7.886  11.976
 8590W        W76920  16.246  40.895   4.125
 8591W        W76921  11.258  30.414  10.536
 8592W        W76922   5.342  17.568  10.605
 8593W        W76923  42.516  17.275  10.893
 8594W        W76924  22.056  24.161   4.332
 8595W        W76925  22.096  30.970   1.363
 8596W        W76926  23.641   1.293   2.181
 8597W        W76927  24.069  15.110   2.868
 8598W        W76928  31.583  16.707  11.020
 8599W        W76929   9.697   2.960   2.181
 8600W        W76930  28.136  41.797  12.890
 8601W        W76931  40.380   2.906  14.384
 8602W        W76932   6.290  34.047  13.036
 8603W        W76933  14.721  42.817  11.028
 8604W        W76934  10.160   9.194  10.040
 8605W        W76935  12.221   8.754  13.887
 8606W        W76936  29.078  41.906  11.607
 8607W        W76937  25.701  18.266   0.773
 8608W        W76938  27.164  16.744   2.678
 8609W        W76939  22.996  44.840   0.382
 8610W        W76940   1.881   5.893   4.814
 8611W        W76941  36.543  18.223   3.725
 8612W        W76942  31.905  13.643   2.386
 8613W        W76943  21.023  30.586   5.316
 8614W        W76944  13.175   7.255  14.294
 8615W        W76945  38.470  18.115  12.441
 8616W        W76946   8.888  24.698  10.526
 8617W        W76947   8.776   6.235   3.675
 8618W        W76948   9.657  19.588   1.369
 8619W        W76949  32.494   6.418   0.322
 8620W        W76950  38.918  27.170  12.841
 8621W        W76951  33.521   4.760   2.842
 8622W        W76952  21.074  27.989  10.094
 8623W        W76953   5.257   5.262  14.032
 8624W        W76954  35.370  25.144  14.941
 8625W        W76955  22.074  20.638   2.677
 8626W        W76956   3.951  18.135   1.448
 8627W        W76957  34.526  44.954  14.499
 8628W        W76958  39.560  27.185   3.284
 8629W        W76959   4.374  15.290  13.405
 8630W        W76960   8.738  25.595  12.458
 8631W        W76961   8.681   1.776   1.708
 8632W        W76962  30.446  30.072  11.006
 8633W        W76963  20.152  23.628   1.778
 8634W        W76964  10.819  24.033   4.662
 8635W        W76965  17.584  27.451  11.914
 8636W        W76966  37.839  24.664  13.540
 8637W        W76967  13.733  41.863   2.416
 8638W        W76968  33.606  42.438  13.368
 8639W        W76969   4.245  37.853  12.431
 8640W        W76970  20.176  26.550  12.461
 8641W        W76971  29.138  11.325   0.748
 8642W        W76972  31.490  24.173   4.661
 8643W        W76973   5.739  31.972   3.754
 8644W        W76974  25.980  35.900   2.759
 8645W        W76975  28.039  22.233  12.573
 8646W        W76976   0.796  42.863  12.444
 8647W        W76977  19.227  24.705   4.333
 8648W        W76978  13.723   8.836  11.428
 8649W        W76979  40.473  43.448   3.828
 8650W        W76980  43.891  27.130   4.290
 8651W        W76981  10.658   1.277   0.277
 8652W        W76982  23.195   8.742  12.825
 8653W        W76983  36.985  21.677   3.800
 8654W        W76984  16.237  12.757  10.988
 8655W        W76985  11.175  35.472   1.256
 8656W        W76986   5.303  27.096  14.761
 8657W        W76987   5.196   4.742   4.774
 8658W        W76988  12.252  15.702  13.319
 8659W        W76989  18.183  28.640  14.333
 8660W        W76990   5.925   4.397   3.371
 8661W        W76991  33.905   8.763  14.982
 8662W        W76992   7.384  25.531  12.002
 8663W        W76993  34.953  11.361  13.879
 8664W        W76994  34.922  22.543   3.303
 8665W        W76995  10.296  36.550  12.853
 8666W        W76996  29.021  36.868   3.332
 8667W        W76997   3.776  35.939   0.405
 8668W        W76998  20.124  13.350  10.603
 8669W        W76999   0.365   6.826  13.345
 8670W        W77000  19.058   5.425   3.246
 8671W        W77001  25.671  31.415   3.697
 8672W        W77002  12.741  33.527  10.511
 8673W        W77003  38.525  17.282  10.938
 8674W        W77004  34.524  14.335   2.194
 8675W        W77005   9.746  29.010   1.409
 8676W        W77006  11.667  20.640  12.374
 8677W        W77007  40.445   9.169   0.308
 8678W        W77008  41.900  10.381  14.282
 8679W        W77009  24.643  41.529  11.490
 8680W        W77010   2.818  27.544  13.467
 8681W        W77011  24.639  15.105   4.697
 8682W        W77012  26.520  38.350   4.274
 8683W        W77013  27.165  42.935   3.230
 8684W        W77014  37.953  44.863   4.250
 8685W        W77015  25.984   1.972  12.086
 8686W        W77016  21.746   5.739  12.053
 8687W        W77017  12.319  18.080  12.352
 8688W        W77018  18.771  36.011   4.329
 8689W        W77019  22.035   3.221   3.151
 8690W        W77020   1.909  18.076   4.255
 8691W        W77021  16.583  20.075  13.411
 8692W        W77022   5.370  43.849  14.333
 8693W        W77023  37.072  19.645   1.777
 8694W        W77024  22.555  35.056   5.162
 8695W        W77025  19.214  20.714  12.415
 8696W        W77026   1.270  43.940   0.905
 8697W        W77027  39.380  13.750  11.584
 8698W        W77028   8.887   9.255   2.179
 8699W        W77029  24.115  28.964  11.574
 8700W        W77030  23.540  33.532  14.904
 8701W        W77031   1.743  40.930   2.854
 8702W        W77032  11.661  34.957  12.555
 8703W        W77033  40.417   4.413  14.988
 8704W        W77034  40.819  33.511   3.198
 8705W        W77035  12.688  35.969  14.841
 8706W        W77036  28.011   3.411   2.340
 8707W        W77037  28.152  42.799  13.443
 8708W        W77038   9.197  18.587  13.455
 8709W        W77039  14.702   1.431   4.299
 8710W        W77040  14.693  27.575   3.661
 8711W        W77041  34.560  13.213  13.862
 8712W        W77042  10.684   3.863  12.984
 8713W        W77043  36.438  25.607   2.323
 8714W        W77044   1.943   6.688  11.097
 8715W        W77045  15.721   5.699  11.873
 8716W        W77046  29.019   8.388  10.990
 8717W        W77047  39.494  18.743  10.574
 8718W        W77048   3.850  44.264  13.954
 8719W        W77049  36.582  18.075  14.814
 8720W        W77050  29.447  15.706   3.857
 8721W        W77051  41.392  41.901   3.276
 8722W        W77052   7.334  19.072   2.183
 8723W        W77053  30.037  35.016   2.195
 8724W        W77054  11.757  23.503  11.101
 8725W        W77055   4.929  37.845  13.433
 8726W        W77056  12.738  23.186   0.938
 8727W        W77057  18.587  31.609  12.043
 8728W        W77058   0.915  35.063   2.193
 8729W        W77059  24.488  22.096  14.459
 8730W        W77060  40.520  20.060  11.454
 8731W        W77061   1.891   1.434  11.938
 8732W        W77062  11.639  44.487   5.198
 8733W        W77063  44.285  17.748   0.929
 8734W        W77064  42.347  42.434  14.855
 8735W        W77065  32.887  41.874   0.450
 8736W        W77066  16.687  29.544  13.877
 8737W        W77067  20.751  19.753  13.406
 8738W        W77068   7.671  26.472  14.353
 8739W        W77069  41.522   8.655   0.451
 8740W        W77070  41.839  26.575   2.811
 8741W        W77071  17.669  18.757   2.828
 8742W        W77072  43.787  33.996  13.833
 8743W        W77073  40.339  25.193   2.832
 8744W        W77074   3.858  40.349  13.840
 8745W        W77075  37.905  19.730  14.377
 8746W        W77076  21.581  31.091   1.378
 8747W        W77077  31.601  30.623   4.225
 8748W        W77078  21.168  42.997  12.046
 8749W        W77079  39.485  10.247   1.707
 8750W        W77080  33.469   7.270  14.304
 8751W        W77081  10.170  40.499   0.310
 8752W        W77082   2.330  43.781  10.551
 8753W        W77083   8.660  28.535   2.876
 8754W        W77084   8.297  42.782  10.109
 8755W        W77085  31.509  14.764   3.639
 8756W        W77086  14.732  27.047  13.823
 8757W        W77087   7.357  28.058   1.336
 8758W        W77088  17.591  26.092  12.411
 8759W        W77089   4.384   5.239  13.488
 8760W        W77090  21.108  15.140  14.826
 8761W        W77091  12.172  39.504  14.912
 8762W        W77092  22.647  39.420   1.888
 8763W        W77093   5.380  18.202   4.315
 8764W        W77094  23.729  18.771  13.034
 8765W        W77095  16.680  30.413  11.887
 8766W        W77096  34.460   6.836  13.351
 8767W        W77097  44.981  33.521  10.118
 8768W        W77098  37.081  23.001   0.396
 8769W        W77099   4.936  14.107   3.716
 8770W        W77100   9.164  22.616  14.439
 8771W        W77101  25.602  20.195  13.548
 8772W        W77102  30.628  30.108   3.652
 8773W        W77103  25.645  20.701   1.235
 8774W        W77104  17.624  36.842  10.982
 8775W        W77105  20.764  21.027  14.343
 8776W        W77106  33.384  35.885   1.247
 8777W        W77107   8.714  35.007  14.435
 8778W        W77108  34.603   9.164  13.978
 8779W        W77109  18.611  26.694   2.297
 8780W        W77110  14.239  39.375  13.337
 8781W        W77111   0.982  33.984   3.868
 8782W        W77112  39.959  43.381  12.370
 8783W        W77113   6.221  39.051  13.878
 8784W        W77114  28.557  32.431   0.954
 8785W        W77115  10.216  29.975  11.511
 8786W        W77116  31.547  31.904  14.876
 8787W        W77117  41.039  31.085   4.144
 8788W        W77118  23.553  20.254  13.006
 8789W        W77119   9.886  32.029  11.568
 8790W        W77120  27.143  22.039   1.739
 8791W        W77121  30.131   5.771   0.280
 8792W        W77122   7.891  31.022   1.254
 8793W        W77123  17.145  40.515  12.930
 8794W        W77124  36.464  44.823  14.509
 8795W        W77125  34.445  10.237   1.894
 8796W        W77126  34.005  21.611   3.248
 8797W        W77127  44.499   7.732   1.351
 8798W        W77128  29.592  30.088   4.735
 8799W        W77129   2.340  42.871   0.860
 8800W        W77130  20.758   9.327  12.435
 8801W        W77131  26.560  23.097  14.904
 8802W        W77132  28.635  29.648   3.812
 8803W        W77133  30.460  42.304  13.885
 8804W        W77134  31.461  41.448   2.311
 8805W        W77135   4.841  43.441   2.322
 8806W        W77136  14.128   3.733  12.827
 8807W        W77137  12.191  17.109  11.959
 8808W        W77138   5.319  16.622   4.730
 8809W        W77139   8.852  29.046  11.472
 8810W        W77140  35.589   1.925  12.035
 8811W        W77141  22.711  16.704   3.747
 8812W        W77142   9.656  23.568   1.255
 8813W        W77143  42.853  29.454   1.419
 8814W        W77144  27.176  29.447  11.959
 8815W        W77145   4.700   3.348   0.258
 8816W        W77146  33.919  31.523  10.578
 8817W        W77147  42.850  27.045   3.684
 8818W        W77148   7.262  18.149  10.617
 8819W        W77149   5.427   0.307  11.119
 8820W        W77150   1.949  16.583   4.660
 8821W        W77151   5.885  30.045   2.189
 8822W        W77152   2.305  12.708   1.761
 8823W        W77153  42.916  31.106   3.189
 8824W        W77154  27.649  23.225   1.263
 8825W        W77155  41.314  30.952  11.906
 8826W        W77156  44.415   0.889  12.480
 8827W        W77157   3.332  20.728  13.957
 8828W        W77158  20.676  39.374  11.938
 8829W        W77159  40.393  32.615   1.739
 8830W        W77160  10.661   7.812   0.936
 8831W        W77161  30.464   5.913   4.184
 8832W        W77162  44.818  16.783   3.840
 8833W        W77163   2.280  11.735   9.948
 8834W        W77164  18.609   2.436  12.085
 8835W        W77165   1.821  31.040   0.362
 8836W        W77166   4.932  40.472   1.316
 8837W        W77167  26.065  39.527   4.219
 8838W        W77168  33.614  17.629  11.972
 8839W        W77169  21.662  14.157  14.771
 8840W        W77170  14.656   3.279  14.794
 8841W        W77171  23.575   9.205  11.098
 8842W        W77172   7.810  25.611  12.079
 8843W        W77173  12.641   8.288  12.415
 8844W        W77174  40.525  43.299   3.300
 8845W        W77175   5.264  15.709   4.752
 8846W        W77176  23.140  31.592   0.365
 8847W        W77177  15.328   5.427  10.510
 8848W        W77178  29.170  34.399  13.520
 8849W        W77179   2.427   5.241   1.239
 8850W        W77180  10.272   5.221   4.796
 8851W        W77181  36.868  36.552  10.966
 8852W        W77182   8.677  17.137   5.103
 8853W        W77183   8.249  32.942   1.271
 8854W        W77184  16.223  25.625   0.288
 8855W        W77185  27.048  26.138   1.729
 8856W        W77186   6.872   6.198  10.899
 8857W        W77187  14.674  17.735   0.456
 8858W        W77188  41.876  31.078  11.406
 8859W        W77189  43.766   6.699  12.434
 8860W        W77190  34.940  40.314   1.346
 8861W        W77191  15.589  15.692   4.229
 8862W        W77192  19.060   0.966   2.210
 8863W        W77193  38.052  14.718   1.310
 8864W        W77194  25.487  35.532  14.885
 8865W        W77195  30.029  44.807   4.259
 8866W        W77196  26.658  41.907  11.080
 8867W        W77197  22.219   2.827   2.194
 8868W        W77198  43.892  33.586  12.551
 8869W        W77199  10.807  24.098  12.980
 8870W        W77200  19.254   8.347  11.516
 8871W        W77201   0.842  32.094   2.250
 8872W        W77202  21.545  17.278  14.976
 8873W        W77203  12.739  31.003   2.381
 8874W        W77204   2.803  44.367   4.291
 8875W        W77205  21.173   2.956   2.670
 8876W        W77206  35.923   8.683  10.594
 8877W        W77207  13.769  27.197  14.437
 8878W        W77208   7.786  20.618  14.327
 8879W        W77209  23.984  17.773  11.957
 8880W        W77210  15.753   4.877   4.152
 8881W        W77211  12.638  40.844  13.868
 8882W        W77212  21.535  12.696   0.896
 8883W        W77213  38.918  41.309  14.871
 8884W        W77214  35.591  34.446  11.607
 8885W        W77215  19.743  36.468   0.949
 8886W        W77216  36.556  34.062   1.291
 8887W        W77217  12.848   5.799  11.494
 8888W        W77218  39.525  38.076   4.646
 8889W        W77219  13.656  44.878  13.530
 8890W        W77220   0.987  36.043  14.311
 8891W        W77221  40.358  13.708   3.798
 8892W        W77222  12.165   6.314   2.323
 8893W        W77223  40.422   0.482   0.797
 8894W        W77224  25.705  40.463   0.789
 8895W        W77225   8.670  13.605   2.817
 8896W        W77226  13.754  24.711   0.775
 8897W        W77227  14.771   2.446  10.643
 8898W        W77228  32.537  40.019  13.334
 8899W        W77229  25.023  13.292   3.630
 8900W        W77230  39.435   9.395   3.841
 8901W        W77231   2.363   9.662   0.392
 8902W        W77232  32.936  34.430   3.274
 8903W        W77233  14.805   0.877   3.861
 8904W        W77234  35.419   6.912   4.652
 8905W        W77235  43.403  20.190   4.649
 8906W        W77236  27.002  19.590   0.375
 8907W        W77237   2.924  34.991   0.758
 8908W        W77238  24.197  14.267  11.033
 8909W        W77239   0.752  25.111   9.979
 8910W        W77240  32.123  35.068  12.530
 8911W        W77241   1.459  34.956  12.481
 8912W        W77242  32.103  14.590   4.633
 8913W        W77243  16.769  38.378  10.588
 8914W        W77244   0.360  29.525  13.938
 8915W        W77245  39.321  10.799  11.586
 8916W        W77246  12.824  27.119   3.691
 8917W        W77247   1.409  28.584   3.644
 8918W        W77248   0.849   8.200   3.638
 8919W        W77249  25.112  33.425   2.816
 8920W        W77250  39.436  33.977   4.337
 8921W        W77251  31.011  19.075  10.971
 8922W        W77252   9.164  27.156   1.721
 8923W        W77253  26.169  14.678  12.852
 8924W        W77254  12.306   7.773   2.246
 8925W        W77255  35.066  28.446   3.748
 8926W        W77256  22.141  36.939   0.804
 8927W        W77257  14.681   4.756   0.838
 8928W        W77258  14.294  19.156  13.906
 8929W        W77259  13.249  19.699   5.321
 8930W        W77260  33.898  16.212   0.474
 8931W        W77261  29.139  34.407  14.797
 8932W        W77262  31.992  26.193  13.449
 8933W        W77263  22.679  33.435  12.535
 8934W        W77264  11.336  22.995  14.294
 8935W        W77265  16.163  10.154  14.475
 8936W        W77266  24.167  38.883   3.636
 8937W        W77267  28.005  18.758  12.037
 8938W        W77268  12.125   3.338   2.383
 8939W        W77269  39.401   5.439   2.394
 8940W        W77270  37.008  32.978   1.824
 8941W        W77271  29.502  21.586  10.569
 8942W        W77272   7.683  22.631   3.246
 8943W        W77273  44.840   9.859   0.834
 8944W        W77274  12.631  41.378  13.431
 8945W        W77275  22.051  38.446   4.697
 8946W        W77276  15.268  16.610   0.246
 8947W        W77277  42.954   2.747  14.847
 8948W        W77278  39.914  34.925   3.357
 8949W        W77279   2.943  43.408  14.906
 8950W        W77280  35.088  34.414  11.472
 8951W        W77281  22.056  35.446  11.113
 8952W        W77282  35.981  13.782  10.627
 8953W        W77283  34.544  16.085   0.845
 8954W        W77284  40.524  25.497  12.537
 8955W        W77285   3.402  25.512   0.465
 8956W        W77286  11.204   0.801   2.219
 8957W        W77287  35.857  11.747   3.228
 8958W        W77288  44.297  12.308   0.308
 8959W        W77289  39.949   2.738  10.641
 8960W        W77290  32.013  23.036  10.952
 8961W        W77291   3.731   9.749   2.349
 8962W        W77292  31.503  28.560  14.336
 8963W        W77293  23.711  14.601  11.503
 8964W        W77294  18.057  21.197  11.864
 8965W        W77295  21.659   1.914  12.454
 8966W        W77296  34.983  22.188  12.559
 8967W        W77297  29.630   6.727   3.186
 8968W        W77298   8.775  33.551  12.529
 8969W        W77299  25.208   9.343   4.740
 8970W        W77300  25.032   5.368   4.308
 8971W        W77301  27.530  10.691   0.250
 8972W        W77302   5.309  33.389  12.476
 8973W        W77303  34.920  15.317   0.868
 8974W        W77304   3.410  11.744   1.341
 8975W        W77305  33.501  24.210   4.696
 8976W        W77306  30.975  13.830   3.378
 8977W        W77307  27.033   2.762   2.377
 8978W        W77308   0.862  25.039  11.913
 8979W        W77309   1.806   4.819   3.189
 8980W        W77310  18.122  38.564  13.376
 8981W        W77311  30.456  20.590   0.376
 8982W        W77312  10.142  38.439  14.840
 8983W        W77313  19.749   7.223   4.322
 8984W        W77314  16.662  23.652   1.871
 8985W        W77315  32.939  21.563   3.379
 8986W        W77316   9.821  17.774  10.521
 8987W        W77317  39.060  26.670  10.483
 8988W        W77318  23.637   1.334   3.304
 8989W        W77319   7.271  43.883  11.526
 8990W        W77320   8.842   8.781  11.574
 8991W        W77321   1.925   0.353  10.424
 8992W        W77322  38.357  27.500  10.549
 8993W        W77323  37.369   1.895   0.323
 8994W        W77324   8.181  12.841   1.245
 8995W        W77325  33.455  22.516   5.138
 8996W        W77326  21.036  25.161   3.641
 8997W        W77327   5.710   6.401   0.285
 8998W        W77328   5.225  24.992   5.099
 8999W        W77329   9.269  25.179   4.629
 9000W        W77330  29.580  36.044  10.023
 9001W        W77331  19.235  44.288   3.640
 9002W        W77332  37.548  13.171  14.859
 9003W        W77333  10.645  25.987   0.867
 9004W        W77334   1.740   3.818  14.937
 9005W        W77335  37.361   7.272  13.397
 9006W        W77336  22.711  17.247   4.259
 9007W        W77337  18.759  24.685  12.051
 9008W        W77338  13.120  18.251  14.793
 9009W        W77339  22.525  41.500  14.919
 9010W        W77340  25.118   4.903   1.438
 9011W        W77341  40.507  33.116  12.015
 9012W        W77342  32.421  12.220  12.554
 9013W        W77343  29.486  33.536   5.225
 9014W        W77344  25.548  34.427   0.442
 9015W        W77345  29.155  26.959  14.903
 9016W        W77346  41.983  17.656   2.280
 9017W        W77347  18.213  42.784   3.826
 9018W        W77348  30.509  23.546   0.827
 9019W        W77349  42.422   1.897  13.982
 9020W        W77350  30.440  39.382  11.385
 9021W        W77351  34.068  38.968   4.614
 9022W        W77352  22.201  39.965   2.800
 9023W        W77353  35.568  15.616  12.521
 9024W        W77354  44.004   0.840  12.447
 9025W        W77355  25.196  38.820  12.891
 9026W        W77356   0.988  21.684  10.568
 9027W        W77357  19.632  43.910   4.696
 9028W        W77358  22.515  15.596  13.535
 9029W        W77359  17.729   2.720  11.976
 9030W        W77360   7.266   0.412   3.294
 9031W        W77361  20.654  15.170   4.263
 9032W        W77362   3.828  18.265   4.604
 9033W        W77363  38.076  23.702  12.040
 9034W        W77364  24.143  34.439   0.945
 9035W        W77365   2.360  44.338   0.875
 9036W        W77366  35.437  44.820  13.867
 9037W        W77367   2.331  38.933   4.749
 9038W        W77368  19.542  19.263   4.799
 9039W        W77369  39.048   7.904   3.690
 9040W        W77370  10.171   8.211   3.759
 9041W        W77371  16.637   8.737   0.360
 9042W        W77372   4.436   6.245  11.523
 9043W        W77373   5.895  20.531  10.546
 9044W        W77374  24.612  31.977  13.897
 9045W        W77375  19.633  10.876  13.390
 9046W        W77376   6.305  15.821  12.528
 9047W        W77377  44.877  33.434   3.259
 9048W        W77378  19.552  33.567   4.802
 9049W        W77379  35.857  24.704  10.618
 9050W        W77380  25.647   0.494  14.011
 9051W        W77381  40.472  41.407  11.105
 9052W        W77382   1.361  30.609  13.816
 9053W        W77383   0.256  32.940  11.890
 9054W        W77384  20.249  16.093  11.384
 9055W        W77385  31.915  25.531   3.207
 9056W        W77386  44.467  10.151   4.629
 9057W        W77387  21.102  13.656  14.510
 9058W        W77388  41.002  25.218   1.710
 9059W        W77389  17.786  24.603  13.971
 9060W        W77390  12.118   9.739   0.794
 9061W        W77391  26.519  33.441   2.301
 9062W        W77392  36.464  35.530  12.417
 9063W        W77393  28.165  15.798   2.233
 9064W        W77394  34.486  21.659   2.397
 9065W        W77395   7.203  27.687  11.409
 9066W        W77396   6.691  26.145   0.436
 9067W        W77397  28.543  43.792  14.354
 9068W        W77398  35.420  21.163   1.803
 9069W        W77399  26.087  44.931  12.431
 9070W        W77400  39.844  25.156  13.008
 9071W        W77401  19.202   5.777   3.759
 9072W        W77402  15.256  20.543  12.837
 9073W        W77403  16.240  33.129  11.529
 9074W        W77404  16.645  14.705   4.279
 9075W        W77405  43.283  22.707   0.881
 9076W        W77406   9.774  29.044   4.747
 9077W        W77407  38.039  27.078   4.648
 9078W        W77408  10.835   6.854  12.344
 9079W        W77409  19.668  17.282  13.533
 9080W        W77410  41.804  44.892   4.749
 9081W        W77411   4.304  34.390   4.693
 9082W        W77412   2.460  23.611   0.286
 9083W        W77413  36.381  15.804  14.879
 9084W        W77414  32.118  22.541  10.082
 9085W        W77415   4.292  21.159  14.890
 9086W        W77416  41.496   1.763  11.510
 9087W        W77417  15.136  26.191   3.228
 9088W        W77418  41.844   4.305   0.483
 9089W        W77419   1.266  26.518   0.843
 9090W        W77420  40.330   5.418   1.335
 9091W        W77421  21.149  24.004  12.493
 9092W        W77422  29.649  34.054   3.328
 9093W        W77423   5.822  41.940  10.894
 9094W        W77424  37.930  41.864  12.576
 9095W        W77425   1.772  22.520  13.433
 9096W        W77426  23.711  38.387   3.652
 9097W        W77427  43.781  38.375   0.311
 9098W        W77428  19.662  30.980   4.833
 9099W        W77429  18.577  11.864  10.505
 9100W        W77430  37.986   2.366  10.513
 9101W        W77431  22.129  23.139   2.405
 9102W        W77432  40.905  41.957   3.178
 9103W        W77433  31.951  32.463   2.744
 9104W        W77434   6.859  44.007   2.247
 9105W        W77435  34.015  21.025  12.474
 9106W        W77436  32.405  27.191   0.813
 9107W        W77437  25.967  34.523  13.464
 9108W        W77438  18.123  21.558  14.816
 9109W        W77439  33.909  37.925  14.449
 9110W        W77440  13.828  40.542   4.616
 9111W        W77441   0.759  23.039  12.834
 9112W        W77442   1.834   8.198   4.764
 9113W        W77443  40.479   6.757   0.943
 9114W        W77444   2.240   2.963  14.952
 9115W        W77445  36.522   7.709  14.812
 9116W        W77446  43.942  24.029  13.497
 9117W        W77447   0.895   9.767   4.757
 9118W        W77448  11.706   6.286   1.367
 9119W        W77449   0.957  18.750  11.857
 9120W        W77450  38.850  17.715  13.793
 9121W        W77451  29.968  10.208  13.792
 9122W        W77452  33.070  14.825  12.946
 9123W        W77453  44.963   6.267  14.763
 9124W        W77454  36.436  42.014   1.843
 9125W        W77455  43.490  14.261   3.645
 9126W        W77456  26.508  21.611  14.300
 9127W        W77457   8.840  17.707   1.337
 9128W        W77458  30.959  33.987   3.650
 9129W        W77459  40.386  30.480  12.530
 9130W        W77460  40.813  44.828  12.056
 9131W        W77461   2.442   0.485  10.554
 9132W        W77462  41.367  11.848  12.435
 9133W        W77463  35.522  25.713   2.718
 9134W        W77464  30.083  21.692   2.227
 9135W        W77465  37.456   1.258  14.909
 9136W        W77466  20.217  19.577   3.852
 9137W        W77467  38.048  19.730   0.881
 9138W        W77468  14.692  27.029  12.875
 9139W        W77469  21.729  43.021  12.427
 9140W        W77470  22.521  22.587  11.884
 9141W        W77471  38.990  38.465  14.436
 9142W        W77472  23.054  17.256   0.783
 9143W        W77473  39.986  44.397  14.778
 9144W        W77474  20.669   9.713  10.557
 9145W        W77475   8.386   2.725  12.364
 9146W        W77476  13.151  44.417   3.637
 9147W        W77477   6.338  20.733  10.562
 9148W        W77478  22.209   9.657  14.764
 9149W        W77479  44.903  21.607  13.323
 9150W        W77480  31.581  37.927  13.375
 9151W        W77481   8.797  23.007   1.707
 9152W        W77482  27.071  28.588   4.620
 9153W        W77483  32.427  18.767   4.129
 9154W        W77484  25.576  44.975  12.548
 9155W        W77485   7.268  36.530  14.849
 9156W        W77486  29.508   9.707   3.329
 9157W        W77487  19.604  27.570   2.352
 9158W        W77488   1.240  25.685   2.855
 9159W        W77489   9.242  31.033   3.725
 9160W        W77490  27.955   3.768   3.174
 9161W        W77491  13.721  30.946   1.801
 9162W        W77492  40.317  41.416  12.825
 9163W        W77493  21.197  11.685  12.834
 9164W        W77494  37.380   8.345  10.524
 9165W        W77495  42.311   4.290  12.480
 9166W        W77496  21.144  15.316  11.485
 9167W        W77497  12.322  28.460   4.657
 9168W        W77498  37.984  31.975  11.012
 9169W        W77499  21.686   1.302  14.488
 9170W        W77500  15.243   5.696  11.925
 9171W        W77501  10.382  16.631   4.816
 9172W        W77502  40.920  29.028  12.554
 9173W        W77503   4.334   0.407   1.823
 9174W        W77504  40.011  15.194   0.259
 9175W        W77505  20.666  23.105   1.308
 9176W        W77506  38.511  19.695   4.289
 9177W        W77507  35.522  41.851   1.854
 9178W        W77508  30.982  30.442   4.687
 9179W        W77509  38.496   0.895   4.327
 9180W        W77510  25.706  33.125   2.267
 9181W        W77511   9.644   4.846  13.859
 9182W        W77512   8.346  23.992  12.490
 9183W        W77513   9.676  36.549  14.912
 9184W        W77514   2.893  23.123   3.786
 9185W        W77515  23.492  32.629  13.506
 9186W        W77516  35.896  39.006  14.838
 9187W        W77517  36.574  20.759  14.472
 9188W        W77518  15.221  12.795   0.369
 9189W        W77519  24.089  33.093   3.810
 9190W        W77520  11.711  34.595   4.830
 9191W        W77521  18.574  31.134  11.514
 9192W        W77522  15.659  12.266   0.747
 9193W        W77523  24.048   7.896   1.291
 9194W        W77524  18.162  16.808   1.435
 9195W        W77525   5.848  36.875  11.418
 9196W        W77526  42.504  20.610  12.347
 9197W        W77527  40.023  20.627   3.366
 9198W        W77528   7.699  33.384  14.814
 9199W        W77529   8.279  40.396  10.459
 9200W        W77530   1.324  38.503   1.737
 9201W        W77531  24.636  20.236   4.805
 9202W        W77532  23.050  15.316  13.330
 9203W        W77533  38.921  13.310   3.747
 9204W        W77534   2.924  32.402   4.820
 9205W        W77535  25.479  11.824  14.427
 9206W        W77536  39.833  34.473  10.999
 9207W        W77537  41.878  31.095   3.182
 9208W        W77538  12.706  23.503  14.428
 9209W        W77539   2.432  39.993   3.385
 9210W        W77540  10.772  28.107   4.692
 9211W        W77541   8.306  25.085  13.891
 9212W        W77542   1.789  32.941  10.905
 9213W        W77543   6.214  35.595  11.513
 9214W        W77544  16.142  22.536  12.432
 9215W        W77545  26.094  25.590   3.656
 9216W        W77546  19.569  37.901   1.216
 9217W        W77547  16.288  22.141   4.204
 9218W        W77548  41.882   9.349  10.581
 9219W        W77549  29.002  38.843  10.477
 9220W        W77550  25.552  44.855  11.436
 9221W        W77551  37.569  21.243  13.363
 9222W        W77552  18.116   2.254  14.791
 9223W        W77553  38.567  43.289  10.935
 9224W        W77554   8.359  31.972  12.081
 9225W        W77555  43.906  18.283  11.974
 9226W        W77556   3.721  14.220   3.769
 9227W        W77557  37.069   8.243  14.920
 9228W        W77558  12.166  39.914  10.471
 9229W        W77559  13.684   2.300   1.344
 9230W        W77560  43.447  13.784   2.709
 9231W        W77561   5.399  10.329  13.931
 9232W        W77562  35.466   2.457  12.095
 9233W        W77563   9.196  44.844  11.907
 9234W        W77564  30.114  17.231   3.172
 9235W        W77565  40.041  10.219  14.462
 9236W        W77566  11.254   2.423  12.487
 9237W        W77567  34.451  19.548   2.196
 9238W        W77568  36.366  31.420  13.947
 9239W        W77569  20.065  39.946  10.904
 9240W        W77570  33.564  40.836   0.942
 9241W        W77571   6.238  27.560  13.968
 9242W        W77572   7.309  22.022   4.836
 9243W        W77573  17.564  41.024  14.894
 9244W        W77574  39.477  28.671   2.805
 9245W        W77575  25.059  32.493   1.738
 9246W        W77576   3.709   4.271  14.980
 9247W        W77577  44.453   8.272  10.895
 9248W        W77578  12.299  26.572  11.492
 9249W        W77579  43.916   4.301   0.370
 9250W        W77580  18.614  35.376   3.339
 9251W        W77581  42.488  20.713   4.704
 9252W        W77582  18.077  12.332  13.497
 9253W        W77583   3.936  20.164   2.805
 9254W        W77584   3.394  33.113   4.172
 9255W        W77585  42.791  23.069   2.777
 9256W        W77586  33.936  18.711   2.774
 9257W        W77587  25.469   7.248  10.067
 9258W        W77588  20.270  44.316  11.507
 9259W        W77589  41.926   2.808   4.249
 9260W        W77590  14.681   6.703  11.464
 9261W        W77591  23.072  28.588  10.503
 9262W        W77592  21.256   6.738  12.008
 9263W        W77593  26.056  19.627  13.966
 9264W        W77594   6.272  10.316  10.128
 9265W        W77595  36.849  19.714   2.217
 9266W        W77596   7.407  23.673  10.552
 9267W        W77597  14.165   7.895  10.997
 9268W        W77598   2.762  44.758  14.908
 9269W        W77599  25.602  23.520   4.132
 9270W        W77600   5.270  27.546   2.770
 9271W        W77601  13.282  25.192  14.464
 9272W        W77602   5.322  12.702   4.629
 9273W        W77603  28.123   4.445  12.084
 9274W        W77604  34.015  36.987   2.902
 9275W        W77605  29.500   5.435   0.793
 9276W        W77606   4.896  21.533  12.386
 9277W        W77607  31.050  35.533   4.271
 9278W        W77608  18.281  27.074   0.347
 9279W        W77609   7.714  28.647   4.641
 9280W        W77610  31.623  37.981   4.614
 9281W        W77611  15.632   1.888   1.900
 9282W        W77612  42.907  23.214   4.296
 9283W        W77613  14.270  34.988   4.689
 9284W        W77614   4.254  10.352   4.719
 9285W        W77615   0.899   4.271   0.308
 9286W        W77616  42.938  15.127  12.572
 9287W        W77617  36.923   1.780  13.444
 9288W        W77618   0.842  15.582  11.497
 9289W        W77619  11.343   1.404  14.432
 9290W        W77620  17.067  14.813   0.302
 9291W        W77621  17.603  31.476   0.255
 9292W        W77622  39.473  27.573  14.797
 9293W        W77623  40.505  21.747   3.835
 9294W        W77624  20.522  39.420  10.899
 9295W        W77625  12.630  22.995   2.756
 9296W        W77626  28.034  18.567  13.985
 9297W        W77627   8.335  37.379  14.905
 9298W        W77628  31.999  33.908   4.607
 9299W        W77629  43.884   2.237  13.519
 9300W        W77630  37.920  18.122   0.835
 9301W        W77631  14.619   7.842   4.195
 9302W        W77632  42.421   1.418  10.928
 9303W        W77633  40.862  21.135  13.048
 9304W        W77634  39.479   8.739   4.126
 9305W        W77635  10.178   1.400  10.903
 9306W        W77636  44.394  17.286   1.390
 9307W        W77637   6.769  34.560  14.394
 9308W        W77638  42.449  28.933   1.239
 9309W        W77639  27.146  31.443  13.045
 9310W        W77640  13.836  34.554   1.916
 9311W        W77641   0.977  18.598   3.668
 9312W        W77642   6.420  16.580   0.773
 9313W        W77643  15.151  18.262   4.743
 9314W        W77644  20.171  10.225   4.141
 9315W        W77645  31.508  21.630   9.935
 9316W        W77646  30.969  11.721  11.577
 9317W        W77647   0.435  35.997   1.745
 9318W        W77648  38.517  34.018   0.958
 9319W        W77649  39.427  18.283  11.933
 9320W        W77650  19.122   0.387   3.300
 9321W        W77651  40.041  27.632   0.902
 9322W        W77652  12.343  35.499  13.478
 9323W        W77653  21.597   6.919   4.277
 9324W        W77654  10.786   3.755  14.016
 9325W        W77655   3.751  24.653  11.390
 9326W        W77656  21.185  25.072  10.460
 9327W        W77657  16.211  21.099   9.935
 9328W        W77658  42.512  15.277  11.965
 9329W        W77659  15.822   3.827  13.872
 9330W        W77660  38.879  12.346   0.815
 9331W        W77661  33.924   4.884  14.778
 9332W        W77662  18.250  25.137  11.986
 9333W        W77663  25.130   0.376   1.271
 9334W        W77664  25.683  29.151   0.926
 9335W        W77665  33.078  39.397  10.906
 9336W        W77666  19.780  14.622  12.409
 9337W        W77667  37.854  15.230   2.844
 9338W        W77668  21.587  20.236  14.506
 9339W        W77669  40.529   5.393   2.371
 9340W        W77670  18.688  43.846   0.917
 9341W        W77671  32.928  20.526   0.943
 9342W        W77672   9.273  33.976   0.279
 9343W        W77673  20.682  14.214   4.256
 9344W        W77674  34.021   0.324   2.181
 9345W        W77675  20.581  31.486  13.516
 9346W        W77676  44.879  25.183  14.938
 9347W        W77677   3.854   0.375  12.388
 9348W        W77678   1.379  41.383   0.942
 9349W        W77679  25.209  30.607  12.934
 9350W        W77680  44.936  36.931  10.505
 9351W        W77681  43.437  37.496   0.800
 9352W        W77682  31.445  28.584   3.772
 9353W        W77683   9.303  20.252   1.765
 9354W        W77684  29.503   2.324   0.288
 9355W        W77685  18.251   0.317  14.345
 9356W        W77686   4.791   5.410  12.922
 9357W        W77687  20.094   0.488   3.837
 9358W        W77688   1.860  37.536   5.290
 9359W        W77689  33.916  30.143  11.379
 9360W        W77690  34.020  15.680   0.862
 9361W        W77691  11.654  37.433   0.875
 9362W        W77692  23.692   8.679   3.180
 9363W        W77693  13.844  15.806  13.410
 9364W        W77694  41.808   3.866  12.860
 9365W        W77695  38.488  42.304  11.936
 9366W        W77696   1.759  14.231  11.558
 9367W        W77697  23.034  21.537  11.411
 9368W        W77698  18.573   5.226  12.410
 9369W        W77699  41.033   0.753  12.048
 9370W        W77700   1.777  21.692   3.805
 9371W        W77701  20.568   1.318  14.485
 9372W        W77702   5.714   9.206  10.427
 9373W        W77703  44.010  25.667   2.775
 9374W        W77704  31.009  44.964   3.715
 9375W        W77705  31.111   7.730   0.940
 9376W        W77706   8.320  10.139   4.776
 9377W        W77707  43.843  38.537  13.322
 9378W        W77708   5.768  42.516  11.056
 9379W        W77709  13.127   3.725   1.906
 9380W        W77710  23.580  43.876  11.885
 9381W        W77711  12.360  24.675   2.229
 9382W        W77712  30.500  39.039  12.000
 9383W        W77713  27.087   6.293   0.823
 9384W        W77714   7.769  11.191   0.834
 9385W        W77715   0.985  27.101   4.159
 9386W        W77716   7.246  15.610   3.749
 9387W        W77717   1.931   0.890   2.330
 9388W        W77718   9.362  24.153  11.510
 9389W        W77719  21.547  39.898  10.896
 9390W        W77720   6.853   0.448  11.586
 9391W        W77721   7.697  31.114   3.849
 9392W        W77722   2.312  33.548  11.559
 9393W        W77723  17.271  19.597  10.431
 9394W        W77724  34.997  40.351  11.107
 9395W        W77725  25.974  15.585  12.950
 9396W        W77726  14.627  36.449  11.982
 9397W        W77727  34.462  18.190  14.497
 9398W        W77728  33.130  42.943   0.367
 9399W        W77729  31.997  19.630   2.800
 9400W        W77730   2.792  33.601  12.070
 9401W        W77731   7.300   5.398  14.400
 9402W        W77732  10.265  36.487   0.402
 9403W        W77733   2.313   8.189  10.609
 9404W        W77734   4.823   3.922  10.508
 9405W        W77735  26.572  30.989   4.623
 9406W        W77736  30.517  20.755   5.269
 9407W        W77737   7.742  32.600  11.937
 9408W        W77738   5.715  43.793   1.810
 9409W        W77739   7.754  21.550   3.741
 9410W        W77740  22.513  14.660   2.370
 9411W        W77741  29.427  34.479  10.003
 9412W        W77742  34.929  36.921  14.974
 9413W        W77743  36.356  33.562  11.400
 9414W        W77744  12.809   3.367   2.860
 9415W        W77745  23.630  25.635   4.605
 9416W        W77746  23.083  19.190   0.426
 9417W        W77747  24.651  37.881  13.455
 9418W        W77748  44.424   5.402  14.283
 9419W        W77749  44.755  33.046  13.969
 9420W        W77750   4.918   7.361  13.516
 9421W        W77751  43.898  36.442  12.413
 9422W        W77752  12.676   6.204   4.729
 9423W        W77753  31.092  29.107  14.303
 9424W        W77754   8.285  19.158   3.803
 9425W        W77755  31.115   7.819   3.343
 9426W        W77756  43.961  21.617   1.741
 9427W        W77757  21.186  22.164   5.195
 9428W        W77758   6.382  22.697  14.763
 9429W        W77759  32.526  14.689   3.232
 9430W        W77760  11.340  23.696   2.183
 9431W        W77761  11.736   4.361  14.484
 9432W        W77762  35.426   5.325   1.213
 9433W        W77763  19.549   2.394  13.469
 9434W        W77764   4.404   2.277   0.371
 9435W        W77765   0.339  27.590  12.003
 9436W        W77766  15.725  16.217  13.835
 9437W        W77767  28.472  27.969   4.770
 9438W        W77768  37.498  36.077  12.981
 9439W        W77769  11.319  16.305   1.450
 9440W        W77770  33.515  25.977   0.836
 9441W        W77771  37.868   8.219   2.382
 9442W        W77772   5.889  39.431   2.866
 9443W        W77773  22.076   6.889  11.106
 9444W        W77774  40.830  34.556   0.834
 9445W        W77775   2.292  27.995  12.980
 9446W        W77776  36.893  11.754   2.281
 9447W        W77777  44.365  42.943   4.275
 9448W        W77778  18.207   2.858  14.439
 9449W        W77779  44.286   9.785   2.406
 9450W        W77780  39.341  20.603  12.378
 9451W        W77781   7.222  39.471  12.470
 9452W        W77782  39.044  13.798  14.836
 9453W        W77783  44.342   8.380   1.290
 9454W        W77784  27.596  13.112  10.588
 9455W        W77785  12.663  31.074   2.786
 9456W        W77786  18.055  38.891  10.498
 9457W        W77787  19.648  36.011   2.299
 9458W        W77788   5.852  33.033   2.398
 9459W        W77789  30.426  40.035   1.263
 9460W        W77790   5.426  23.050  14.422
 9461W        W77791   5.218  36.084   3.304
 9462W        W77792  23.571  27.657   0.844
 9463W        W77793   9.197  41.991  14.328
 9464W        W77794   6.793  26.959   3.298
 9465W        W77795   5.282   8.881  10.435
 9466W        W77796  25.674  37.434  12.524
 9467W        W77797   3.838  16.599   4.333
 9468W        W77798  41.469  32.092   0.332
 9469W        W77799  28.008   3.349   1.791
 9470W        W77800  10.197  30.935   4.138
 9471W        W77801   3.444   1.976  11.922
 9472W        W77802  27.493  36.402  10.959
 9473W        W77803  38.949   5.912  14.824
 9474W        W77804  14.824   5.807  14.019
 9475W        W77805  10.748  21.574   4.208
 9476W        W77806  36.049  43.472  11.568
 9477W        W77807   4.312  32.085  10.575
 9478W        W77808  25.655  25.967  14.413
 9479W        W77809   1.347  12.304  14.945
 9480W        W77810  17.734  31.403  14.002
 9481W        W77811  12.354  39.376   1.226
 9482W        W77812   5.859  23.214   4.224
 9483W        W77813  40.843  12.803   3.176
 9484W        W77814  36.972  27.970   1.780
 9485W        W77815  36.390   7.252   0.932
 9486W        W77816   0.762   0.494   0.906
 9487W        W77817  25.029  17.624  13.837
 9488W        W77818  29.061  21.684   0.917
 9489W        W77819  10.686   5.323   2.241
 9490W        W77820  12.628  17.644  14.829
 9491W        W77821  10.775   4.426  11.970
 9492W        W77822  33.393  17.072   5.098
 9493W        W77823  24.564  41.343  13.466
 9494W        W77824   8.308   0.823   4.608
 9495W        W77825  43.978   6.314   1.780
 9496W        W77826  40.908  14.136  13.346
 9497W        W77827  31.420   9.380  10.943
 9498W        W77828  42.362  14.660  11.033
 9499W        W77829  15.629  21.684  14.398
 9500W        W77830  28.184  42.334   2.227
 9501W        W77831  11.633  33.919  13.050
 9502W        W77832   3.341  14.227   0.801
 9503W        W77833   0.900  16.198   4.165
 9504W        W77834  11.278   9.858   4.149
 9505W        W77835  35.948  35.406  12.502
 9506W        W77836  41.848  27.675   0.906
 9507W        W77837  25.566  27.104  11.946
 9508W        W77838   5.438  29.936   0.764
 9509W        W77839  23.140  29.457  12.920
 9510W        W77840  26.696   5.889   3.811
 9511W        W77841  35.954  43.447   3.747
 9512W        W77842  33.456  38.393  13.436
 9513W        W77843  38.989  29.085   0.866
 9514W        W77844  24.124  37.084  14.826
 9515W        W77845  43.961  26.587  11.954
 9516W        W77846  19.587  28.987  14.883
 9517W        W77847  39.550  42.416  13.855
 9518W        W77848  34.054  11.646   2.386
 9519W        W77849  12.781   6.311  14.969
 9520W        W77850  20.079  41.325   3.188
 9521W        W77851  20.125  38.372  12.530
 9522W        W77852   0.809  22.045   2.759
 9523W        W77853  25.641  39.508   3.742
 9524W        W77854  17.227  22.218  12.349
 9525W        W77855  41.019  32.079   1.344
 9526W        W77856  19.668   1.296   4.621
 9527W        W77857   0.383  25.517   4.738
 9528W        W77858  14.755  19.229   2.883
 9529W        W77859   1.416  23.133   2.842
 9530W        W77860  14.645  11.843  14.376
 9531W        W77861  25.639  40.464   1.248
 9532W        W77862  35.089  41.535   2.755
 9533W        W77863  38.559   3.345   4.804
 9534W        W77864  30.413  15.613   0.469
 9535W        W77865  36.045  27.613   4.309
 9536W        W77866  11.257  22.628   4.739
 9537W        W77867  42.306  42.281  13.400
 9538W        W77868  32.564   4.268   0.770
 9539W        W77869  20.574   0.287  13.029
 9540W        W77870  23.722  21.171  12.368
 9541W        W77871  44.342  32.964  11.110
 9542W        W77872  18.788   5.811   4.747
 9543W        W77873   7.245   0.919  14.968
 9544W        W77874  44.768  38.825   1.255
 9545W        W77875  19.185  40.992  13.019
 9546W        W77876  19.218  37.365  11.503
 9547W        W77877  19.621  32.561   1.370
 9548W        W77878  21.036   7.845   4.280
 9549W        W77879  20.052  39.343  14.852
 9550W        W77880  43.370  15.325  11.530
 9551W        W77881  26.551  27.471   3.871
 9552W        W77882  32.405  15.177   1.407
 9553W        W77883  17.123  37.961   3.842
 9554W        W77884  22.566  32.012  10.040
 9555W        W77885  13.605  26.626   3.323
 9556W        W77886  35.514   8.401  13.888
 9557W        W77887  37.539  13.618  14.384
 9558W        W77888  27.170  15.589   4.236
 9559W        W77889  40.035  26.657  10.908
 9560W        W77890  15.181  34.871   4.781
 9561W        W77891  42.387  36.982   0.763
 9562W        W77892   4.210   8.867  12.416
 9563W        W77893  41.029  26.591  14.435
 9564W        W77894   6.240  31.463   1.267
 9565W        W77895   6.703   0.892   1.378
 9566W        W77896  23.233  32.019   1.849
 9567W        W77897   0.444   0.864  13.965
 9568W        W77898  22.017  10.853  10.108
 9569W        W77899  16.109   2.784   4.652
 9570W        W77900  11.228  18.173  14.345
 9571W        W77901  25.991  33.418   0.409
 9572W        W77902   3.895   5.435   4.350
 9573W        W77903  39.869  23.550   0.730
 9574W        W77904  42.346  27.121  12.508
 9575W        W77905  39.945  11.204   4.597
 9576W        W77906  41.961  15.666  12.460
 9577W        W77907  34.385   9.170   1.771
 9578W        W77908  38.982  32.057   0.858
 9579W        W77909  39.877  30.529   0.774
 9580W        W77910  11.825  22.639  12.909
 9581W        W77911  43.361  37.969  12.416
 9582W        W77912  22.561  20.227  11.373
 9583W        W77913  22.125  19.576   1.848
 9584W        W77914  11.777   4.380   2.209
 9585W        W77915  14.224  31.967   0.959
 9586W        W77916   5.743  18.660   4.307
 9587W        W77917  28.497  33.947   3.198
 9588W        W77918  22.075  40.545  13.004
 9589W        W77919   4.395  39.938   2.393
 9590W        W77920   3.275  19.577  12.096
 9591W        W77921  25.605  20.525   3.354
 9592W        W77922  28.477  33.937   4.740
 9593W        W77923  28.607  21.212  12.881
 9594W        W77924  13.282  28.576  10.505
 9595W        W77925  13.832  42.288  13.846
 9596W        W77926  27.671  42.432   0.800
 9597W        W77927   8.824   3.843  14.867
 9598W        W77928  41.534  40.514   3.798
 9599W        W77929   2.420  25.192  10.161
 9600W        W77930  23.024  20.706  13.483
 9601W        W77931  44.836  22.634  10.469
 9602W        W77932  19.619  20.133  11.453
 9603W        W77933   9.814   4.216  13.379
 9604W        W77934  39.921  15.299   2.885
 9605W        W77935   9.366   3.398  12.835
 9606W        W77936  22.575  44.386  11.091
 9607W        W77937  18.233  38.523   4.302
 9608W        W77938  42.877  14.605  10.963
 9609W        W77939   9.274   3.853  14.937
 9610W        W77940  20.225  42.423   4.664
 9611W        W77941  21.707  14.741  13.932
 9612W        W77942  24.693   3.786  10.432
 9613W        W77943  23.679  11.675   3.722
 9614W        W77944  17.555   0.304   2.695
 9615W        W77945  39.990  16.191  14.340
 9616W        W77946   4.765  20.628   4.268
 9617W        W77947  38.841   0.298   1.906
 9618W        W77948  23.700  30.557   2.191
 9619W        W77949  32.909   8.215  11.544
 9620W        W77950  14.255  19.096   0.468
 9621W        W77951   0.831  35.371   2.783
 9622W        W77952   4.401  35.892   2.311
 9623W        W77953  26.558   0.882   2.200
 9624W        W77954  31.137  11.680  14.995
 9625W        W77955  16.751  32.961  11.106
 9626W        W77956   1.975  38.942  13.910
 9627W        W77957   6.750  38.484   0.951
 9628W        W77958  28.642   2.867   1.281
 9629W        W77959  16.746  21.731  13.417
 9630W        W77960  17.078   9.371   4.786
 9631W        W77961  31.105  44.269   0.257
 9632W        W77962  21.600  17.228   2.759
 9633W        W77963  35.594  18.257   4.268
 9634W        W77964  37.446  21.127   3.699
 9635W        W77965   4.323  24.652  11.374
 9636W        W77966  38.068  27.161   3.774
 9637W        W77967  25.161  29.102  11.536
 9638W        W77968  28.056   5.415   2.368
 9639W        W77969  21.196  15.227   3.285
 9640W        W77970  11.697  35.479  11.122
 9641W        W77971  34.094  21.096   2.850
 9642W        W77972  10.867  21.514   4.773
 9643W        W77973  30.960   7.399   2.259
 9644W        W77974  44.389  25.099  10.976
 9645W        W77975  11.307   2.876   1.904
 9646W        W77976   5.315  36.954   4.790
 9647W        W77977  21.061  26.193  13.902
 9648W        W77978  19.745  38.567   3.661
 9649W        W77979  31.130  10.212  11.073
 9650W        W77980  20.091   1.285  11.995
 9651W        W77981  29.455   0.784  11.936
 9652W        W77982  11.671  21.243  14.926
 9653W        W77983  16.748  24.722  12.077
 9654W        W77984  17.272  38.025   4.148
 9655W        W77985  33.510  14.233  11.592
 9656W        W77986  33.043  37.995   1.283
 9657W        W77987  25.078  29.553  14.006
 9658W        W77988   5.799  31.618  11.010
 9659W        W77989  37.344   6.184  13.980
 9660W        W77990  12.322  31.092  11.985
 9661W        W77991  18.575  44.981  11.529
 9662W        W77992  11.740  21.210  10.121
 9663W        W77993  17.662  32.017  14.894
 9664W        W77994   9.333   2.238   4.626
 9665W        W77995  12.247  31.014  11.563
 9666W        W77996  19.724  43.859   0.328
 9667W        W77997  40.954  20.127   2.316
 9668W        W77998   7.740   4.876  11.485
 9669W        W77999  31.009  20.148   1.311
 9670W        W78000  44.418  42.006   1.419
 9671W        W78001  16.190  18.133  11.123
 9672W        W78002  39.836  23.664  11.892
 9673W        W78003   0.299   2.721   1.213
 9674W        W78004  22.153   6.767  13.041
 9675W        W78005   1.337  16.576   0.329
 9676W        W78006  33.097  12.664   1.221
 9677W        W78007  32.093  40.890  13.533
 9678W        W78008   7.887  40.379  13.846
 9679W        W78009   3.428  20.186   1.700
 9680W        W78010   8.275  43.383   3.815
 9681W        W78011   1.283  22.682  13.535
 9682W        W78012  28.571  10.865  11.432
 9683W        W78013  12.289  29.068   1.348
 9684W        W78014   8.814  17.664   4.810
 9685W        W78015  34.488  34.525  13.852
 9686W        W78016  14.720  37.036  11.521
 9687W        W78017  41.030  35.395  14.356
 9688W        W78018  26.040  27.465   1.888
 9689W        W78019  38.949  20.669  10.591
 9690W        W78020  13.184  14.801   0.939
 9691W        W78021   5.857   0.816  12.096
 9692W        W78022  38.507   2.362   2.699
 9693W        W78023  25.040  43.921   2.238
 9694W        W78024  19.128   6.846  13.449
 9695W        W78025   9.169  41.937   4.257
 9696W        W78026  13.753  35.361   5.151
 9697W        W78027  17.267  22.029   0.736
 9698W        W78028  27.533  26.007   3.862
 9699W        W78029  30.643  44.272  13.321
 9700W        W78030   3.907   4.730  14.003
 9701W        W78031  44.791  17.250  13.029
 9702W        W78032  38.416  21.228  11.589
 9703W        W78033  41.858  29.665  11.440
 9704W        W78034  40.467  35.584   3.753
 9705W        W78035  15.695  21.037  14.972
 9706W        W78036  16.173  33.121   3.813
 9707W        W78037  40.808  21.118  10.510
 9708W        W78038   4.430  20.088  14.978
 9709W        W78039   5.223  14.825   4.301
 9710W        W78040   5.369  22.525   2.668
 9711W        W78041  17.682  41.806   2.724
 9712W        W78042  10.800  10.327  11.895
 9713W        W78043  30.945  36.525  11.857
 9714W        W78044  43.898  26.975   2.748
 9715W        W78045  40.830  42.467   3.822
 9716W        W78046  32.119  30.094  11.418
 9717W        W78047  29.425   3.850   0.764
 9718W        W78048  14.642   4.855   2.233
 9719W        W78049   2.289  44.819  14.011
 9720W        W78050  42.513  23.508  12.891
 9721W        W78051  11.303   2.928   3.640
 9722W        W78052  44.775  18.146   1.695
 9723W        W78053  11.189   5.257   2.808
 9724W        W78054  10.702  42.500   3.669
 9725W        W78055  18.553  42.367   2.856
 9726W        W78056  17.591  17.114   2.882
 9727W        W78057  40.505   3.252  13.366
 9728W        W78058  17.776  43.487  11.999
 9729W        W78059  26.953  27.073   3.344
 9730W        W78060  29.094   8.190   1.736
 9731W        W78061  34.400  31.572   0.880
 9732W        W78062   9.151  27.525  11.860
 9733W        W78063  24.995  44.760  10.531
 9734W        W78064   5.808  32.436  11.115
 9735W        W78065  41.367  36.926  11.522
 9736W        W78066  11.147  37.496   0.785
 9737W        W78067  20.087   6.276   1.278
 9738W        W78068   0.442  38.065  14.383
 9739W        W78069  10.832  12.264  14.937
 9740W        W78070  21.140   2.421   3.162
 9741W        W78071   7.875  30.444  13.005
 9742W        W78072  26.513  13.655   4.306
 9743W        W78073  34.417  34.919  14.798
 9744W        W78074   9.242  39.543   0.950
 9745W        W78075  22.599  33.395  14.907
 9746W        W78076  44.854  13.694   4.798
 9747W        W78077   9.854   6.784   3.304
 9748W        W78078  10.801   6.189   4.733
 9749W        W78079  39.037  37.877   4.224
 9750W        W78080  17.684  17.801  13.327
 9751W        W78081   3.862   2.290   4.653
 9752W        W78082  23.138   4.406   0.470
 9753W        W78083  32.939  22.098   4.335
 9754W        W78084  17.682  44.499  14.986
 9755W        W78085   4.736  36.376   5.176
 9756W        W78086   9.181  10.823   3.275
 9757W        W78087  13.730  26.584   4.334
 9758W        W78088   6.204   1.309   2.867
 9759W        W78089  29.458  14.131   5.208
 9760W        W78090  23.547   7.368  11.129
 9761W        W78091  17.703  21.714   3.303
 9762W        W78092  26.056  26.653   4.133
 9763W        W78093   1.272  36.909   9.468
 9764W        W78094   5.759  19.568   1.293
 9765W        W78095  11.696   3.253   9.958
 9766W        W78096  20.047  18.286   2.206
 9767W        W78097  33.888  37.489  12.571
 9768W        W78098  20.609  27.597   5.259
 9769W        W78099  14.272   8.671  13.346
 9770W        W78100   9.371  15.145  14.872
 9771W        W78101  30.644  22.634  11.555
 9772W        W78102  21.724  12.617   3.725
 9773W        W78103   1.464  13.105   1.742
 9774W        W78104  18.272   4.285   1.243
 9775W        W78105   7.260   4.737   3.661
 9776W        W78106  27.480  31.448   5.576
 9777W        W78107   0.863   2.936  10.931
 9778W        W78108   8.779   9.710   1.445
 9779W        W78109  18.692  25.199   2.704
 9780W        W78110  23.128  31.111   1.765
 9781W        W78111  21.144  12.245  13.363
 9782W        W78112  24.675  28.444  12.472
 9783W        W78113  21.648   3.376   3.805
 9784W        W78114  36.379   3.913   2.273
 9785W        W78115  34.875  29.923  13.370
 9786W        W78116  35.423  10.269   4.637
 9787W        W78117  17.179  20.271   2.190
 9788W        W78118   7.348   4.816  12.974
 9789W        W78119  42.413  30.957  12.881
 9790W        W78120   3.917  26.676   5.087
 9791W        W78121  35.562  22.073  10.597
 9792W        W78122  27.651  20.657   4.262
 9793W        W78123  27.998  38.431  11.966
 9794W        W78124   8.853   7.226   4.765
 9795W        W78125  15.137  28.061  12.432
 9796W        W78126   7.312   0.360  13.428
 9797W        W78127  39.527  35.502  13.945
 9798W        W78128   8.894  37.053   4.748
 9799W        W78129  14.204  44.976   2.696
 9800W        W78130   8.328  22.727  14.289
 9801W        W78131   3.784  22.563   1.222
 9802W        W78132  15.316  32.931   2.253
 9803W        W78133   8.259  34.955   3.743
 9804W        W78134  25.082   6.287   1.811
 9805W        W78135  24.150  12.225  14.013
 9806W        W78136   4.371  16.777   2.786
 9807W        W78137  25.695  17.767  14.865
 9808W        W78138  38.438  19.042   0.358
 9809W        W78139  17.755  12.215   3.366
 9810W        W78140  18.059  40.334  14.889
 9811W        W78141   4.790  37.954   4.629
 9812W        W78142  21.215  25.606   0.417
 9813W        W78143  44.390  29.998  13.010
 9814W        W78144  38.408  44.779   2.771
 9815W        W78145  24.676  15.773  11.403
 9816W        W78146  16.599  38.844   0.453
 9817W        W78147  10.278  25.154  14.899
 9818W        W78148  17.305  16.573  12.445
 9819W        W78149   3.339   1.312  12.563
 9820W        W78150  27.576  13.678  11.898
 9821W        W78151   3.775  23.200   4.341
 9822W        W78152  14.162   5.368  13.367
 9823W        W78153  27.518  28.547  12.353
 9824W        W78154  20.122  33.446  13.446
 9825W        W78155  12.779   8.359  11.550
 9826W        W78156  32.514  30.032  10.411
 9827W        W78157  41.859  28.625   0.745
 9828W        W78158  32.056   0.944  10.436
 9829W        W78159   1.857  28.567   1.395
 9830W        W78160  34.913  37.520   0.427
 9831W        W78161  31.917  44.798  13.317
 9832W        W78162  30.130  36.089   2.204
 9833W        W78163  38.435  27.502   3.295
 9834W        W78164  24.706  29.643  14.296
 9835W        W78165  25.159  43.959  14.994
 9836W        W78166  27.573  29.989   1.896
 9837W        W78167  37.032  32.098   4.164
 9838W        W78168  34.421  42.511  14.831
 9839W        W78169  15.261  37.929  13.058
 9840W        W78170  30.096   3.348  10.969
 9841W        W78171  38.917  10.730   3.671
 9842W        W78172  29.957  28.602  14.497
 9843W        W78173   7.403  16.272   4.117
 9844W        W78174   5.261   9.741  14.480
 9845W        W78175  14.734  23.224   2.332
 9846W        W78176  19.068  13.679   4.272
 9847W        W78177   3.913  16.687   2.233
 9848W        W78178  16.142  36.861   4.633
 9849W        W78179  14.128  33.908   3.301
 9850W        W78180   6.749  32.453  11.066
 9851W        W78181  26.507  43.998  13.804
 9852W        W78182  19.206   8.393  14.449
 9853W        W78183  22.724   0.890  12.920
 9854W        W78184   9.198  35.372  11.946
 9855W        W78185  35.466  30.621  13.526
 9856W        W78186  38.874  44.391  13.865
 9857W        W78187   8.893  13.757  13.509
 9858W        W78188  34.487  43.943   3.166
 9859W        W78189   6.763  21.745  14.872
 9860W        W78190   0.311  10.206  12.411
 9861W        W78191  44.795   6.318   0.328
 9862W        W78192  35.071   3.288  13.040
 9863W        W78193   6.288  12.797  11.380
 9864W        W78194  37.490   5.369  11.029
 9865W        W78195  11.332  43.491  14.386
 9866W        W78196  16.619  29.659   1.433
 9867W        W78197   3.308  33.482  14.369
 9868W        W78198   6.305  31.423  12.497
 9869W        W78199  16.229  38.974  10.473
 9870W        W78200  17.796  38.355  14.894
 9871W        W78201  17.716  39.991   3.633
 9872W        W78202   4.722  36.394   4.706
 9873W        W78203  13.168  30.010  13.061
 9874W        W78204  17.685   9.175   2.403
 9875W        W78205  30.066  11.715   3.156
 9876W        W78206   5.825  27.198   2.711
 9877W        W78207  40.966  26.966  12.089
 9878W        W78208   7.319  35.502   0.303
 9879W        W78209   5.322  25.136   0.751
 9880W        W78210  12.717  30.513  14.916
 9881W        W78211  29.650  32.123  11.082
 9882W        W78212  12.792   0.398   3.200
 9883W        W78213   5.433  39.357  14.976
 9884W        W78214   6.753  31.084   2.797
 9885W        W78215  17.075  30.537   0.756
 9886W        W78216  15.811  35.599  11.400
 9887W        W78217  21.625  26.676   1.756
 9888W        W78218   8.780  32.618  12.572
 9889W        W78219   2.802  31.088  13.484
 9890W        W78220  16.782  13.128   3.867
 9891W        W78221  27.172  15.637   0.472
 9892W        W78222  12.152  41.534  13.547
 9893W        W78223  20.174  44.423   4.227
 9894W        W78224  40.405  19.772  13.363
 9895W        W78225  24.567  44.323   1.276
 9896W        W78226  22.079  33.118  14.958
 9897W        W78227  24.545  29.647   1.912
 9898W        W78228  26.962  17.742   1.296
 9899W        W78229   3.905  27.564  10.405
 9900W        W78230  28.488  13.793  14.465
 9901W        W78231  16.738  36.001  13.957
 9902W        W78232  25.069  28.624   1.248
 9903W        W78233  25.159   8.177   1.921
 9904W        W78234   3.898  29.137   1.922
 9905W        W78235  19.778  42.831  13.346
 9906W        W78236  19.087  30.137  14.809
 9907W        W78237  24.545  20.090  11.002
 9908W        W78238  38.475  30.643   2.738
 9909W        W78239  31.547  21.182   1.762
 9910W        W78240  25.132  42.397  14.773
 9911W        W78241  11.810   7.842  12.459
 9912W        W78242  16.289   4.868   1.896
 9913W        W78243   6.366  33.392  11.501
 9914W        W78244   0.825  20.075   1.762
 9915W        W78245  17.728   4.860   3.695
 9916W        W78246  14.315  20.173  13.460
 9917W        W78247  25.493   2.265   1.393
 9918W        W78248  30.151  10.850   2.780
 9919W        W78249  12.224  41.915  10.589
 9920W        W78250  12.125  27.123  10.906
 9921W        W78251   4.300   5.822  11.571
 9922W        W78252  35.569  34.540   3.723
 9923W        W78253   1.823  34.010  14.832
 9924W        W78254  28.957   3.890   3.370
 9925W        W78255   1.425  36.976  10.981
 9926W        W78256  28.609  34.910  11.022
 9927W        W78257  12.338  33.024  14.860
 9928W        W78258  25.970  33.876   3.331
 9929W        W78259  31.572  43.330   1.839
 9930W        W78260  37.933  11.221   0.252
 9931W        W78261  21.117  42.358   4.622
 9932W        W78262  43.827   1.880   4.144
 9933W        W78263  33.420  44.411  14.890
 9934W        W78264  32.464   8.238   4.319
 9935W        W78265  41.471  37.010   0.248
 9936W        W78266   0.959  17.735   1.930
 9937W        W78267   7.266  17.172   0.856
 9938W        W78268  17.631  11.225   3.705
 9939W        W78269  26.532   0.420   4.229
 9940W        W78270  43.938   3.801   0.853
 9941W        W78271  39.381  32.563  13.006
 9942W        W78272  43.812  43.297   0.878
 9943W        W78273  23.546  43.930   1.357
 9944W        W78274  25.592  11.268   0.257
 9945W        W78275  13.711  11.742   0.943
 9946W        W78276   2.855   6.798  13.009
 9947W        W78277   2.344   0.387   4.651
 9948W        W78278  14.704  30.946  12.461
 9949W        W78279  23.517  22.079   4.198
 9950W        W78280  11.273   5.692  14.843
 9951W        W78281  32.610  25.078  14.799
 9952W        W78282  21.145  28.107   4.680
 9953W        W78283  18.257  32.436   1.868
 9954W        W78284  17.797  35.946  14.301
 9955W        W78285  23.666  17.626   1.737
 9956W        W78286  20.265   7.358  14.926
 9957W        W78287  43.880  43.836   4.698
 9958W        W78288  33.443  34.567   3.671
 9959W        W78289  29.616  29.020   1.840
 9960W        W78290  34.471  31.501  11.962
 9961W        W78291  41.514   7.867   1.926
 9962W        W78292   2.772  38.922   0.377
 9963W        W78293   9.362  38.833   4.206
 9964W        W78294  21.582  10.226  10.937
 9965W        W78295  38.360  34.002  14.362
 9966W        W78296  44.401  19.080  11.085
 9967W        W78297  40.929  21.687  12.535
 9968W        W78298  27.607  22.046   0.956
 9969W        W78299  14.715  28.042   3.661
 9970W        W78300   6.701  42.823   3.324
 9971W        W78301  44.473  16.712  12.371
 9972W        W78302   8.689  30.008  12.357
 9973W        W78303  40.400  14.822   2.227
 9974W        W78304  23.052  25.077   1.847
 9975W        W78305   7.403  24.524   4.158
 9976W        W78306  44.764  18.222  10.985
 9977W        W78307  25.655   2.913   3.216
 9978W        W78308  19.758  21.209  12.433
 9979W        W78309  22.643  40.306   2.716
 9980W        W78310  18.217  22.199   2.702
 9981W        W78311  13.292  16.727   3.345
 9982W        W78312   4.228   1.457  11.425
 9983W        W78313  42.989   7.189  12.495
 9984W        W78314  20.656  24.644  12.046
 9985W        W78315   3.886  32.515  13.058
 9986W        W78316  37.432  40.303  11.583
 9987W        W78317  26.658   0.748   0.824
 9988W        W78318  19.598  13.613   4.354
 9989W        W78319  42.876  25.185  13.815
 9990W        W78320  19.047  34.066   2.341
 9991W        W78321  19.266  35.580  11.862
 9992W        W78322  19.558   7.259   2.316
 9993W        W78323  10.323  36.873   2.353
 9994W        W78324  25.964  14.129  14.857
 9995W        W78325  20.190   2.916  11.050
 9996W        W78326  37.849  40.545  11.396
 9997W        W78327  43.446  14.680   3.381
 9998W        W78328  15.220  31.939   2.770
 9999W        W78329  21.197  44.274   1.883
10000W        W78330  29.119  36.427   3.702
10001W        W78331   8.897  32.575  14.884
10002W        W78332  11.713   4.819  10.912
10003W        W78333  24.132  37.063   0.823
10004W        W78334  43.006  27.108  11.447
10005W        W78335  32.617  13.748  14.396
10006W        W78336  28.678  26.459  12.942
10007W        W78337  13.813  24.715   4.318
10008W        W78338  44.837  30.523  10.532
10009W        W78339  31.520  23.060   0.477
10010W        W78340  44.421  29.140  12.418
10011W        W78341  30.575   5.372  10.563
10012W        W78342  32.973  11.251  13.367
10013W        W78343  22.227  11.186   1.299
10014W        W78344  30.972  21.043  12.071
10015W        W78345  11.823   9.852  14.910
10016W        W78346  41.446  28.144  11.089
10017W        W78347  15.146  28.139  11.535
10018W        W78348  18.639  29.967   1.774
10019W        W78349   2.946  16.149   2.686
10020W        W78350  14.143   1.297   0.308
10021W        W78351   9.251   9.710  11.024
10022W        W78352  27.131   4.922   2.787
10023W        W78353  26.001  15.162  12.975
10024W        W78354  33.399  36.361   3.188
10025W        W78355   3.911  41.938  12.921
10026W        W78356  41.467  14.829  14.828
10027W        W78357  18.576  18.142  13.917
10028W        W78358   2.260  21.236   5.221
10029W        W78359  22.746   6.728  10.453
10030W        W78360  38.908  32.406   1.373
10031W        W78361  14.242   7.267   3.351
10032W        W78362  42.507  31.039  13.341
10033W        W78363  13.220  26.552  13.335
10034W        W78364   9.730  39.921   1.880
10035W        W78365   3.371  15.777  10.906
10036W        W78366  40.362  12.711   2.697
10037W        W78367   6.679  15.286  13.007
10038W        W78368   6.304  43.348  13.440
10039W        W78369  15.284  23.675   0.848
10040W        W78370   9.196   9.379  12.942
10041W        W78371  33.874  25.507  12.873
10042W        W78372   3.391  42.280  11.914
10043W        W78373  15.177   5.377  12.086
10044W        W78374  40.898  17.802   0.407
10045W        W78375  44.770  14.093  13.495
10046W        W78376   2.755  25.514   2.843
10047W        W78377   6.884  23.667   4.133
10048W        W78378   7.890  39.903  13.901
10049W        W78379  24.983  16.595   2.811
10050W        W78380  30.433  33.573  10.499
10051W        W78381   6.391   8.182  11.062
10052W        W78382  18.636  22.997   4.611
10053W        W78383  31.138  10.169  12.428
10054W        W78384  17.244  42.353   1.830
10055W        W78385  16.274  18.139   4.148
10056W        W78386   4.350  42.468   1.216
10057W        W78387  13.319  35.017   3.642
10058W        W78388  14.210  35.449   1.276
10059W        W78389  15.207  34.483  14.870
10060W        W78390  44.269  39.959  10.443
10061W        W78391  10.264  41.429  13.883
10062W        W78392  19.639   0.945  12.015
10063W        W78393  44.888  37.429   0.935
10064W        W78394  43.414  27.607   4.164
10065W        W78395  41.436  14.680   4.175
10066W        W78396   6.681  38.996   1.730
10067W        W78397  37.357  22.572  12.384
10068W        W78398  37.473  30.961   1.212
10069W        W78399   7.266  37.020   1.411
10070W        W78400  23.672  33.972   3.242
10071W        W78401  37.900  24.617   4.804
10072W        W78402  35.049  13.777   4.139
10073W        W78403  24.014   4.833   1.439
10074W        W78404  40.025   0.469   4.187
10075W        W78405  37.345  19.085  11.072
10076W        W78406  43.951  38.910   1.746
10077W        W78407  12.784  41.538  14.914
10078W        W78408  12.785  41.031  14.372
10079W        W78409  29.542  26.156   1.755
10080W        W78410   8.733   3.257   4.234
10081W        W78411   6.772  26.635   4.189
10082W        W78412  42.030  33.399   1.882
10083W        W78413  38.953  39.813  11.501
10084W        W78414   9.276  37.497   1.776
10085W        W78415   4.207  31.914  11.967
10086W        W78416   1.374  17.767   3.790
10087W        W78417  13.737  35.050  10.521
10088W        W78418  22.514  28.978  13.001
10089W        W78419  14.766  28.005  14.507
10090W        W78420   9.823  30.961  10.924
10091W        W78421  20.118  28.059  10.899
10092W        W78422   4.749  36.579   2.328
10093W        W78423   8.756   5.337   1.717
10094W        W78424   8.866  34.546   4.114
10095W        W78425  12.230   0.915   0.730
10096W        W78426  24.630  16.256   3.348
10097W        W78427  34.984  35.479   1.446
10098W        W78428  41.022  42.340   1.344
10099W        W78429   0.316  17.677  12.960
10100W        W78430  38.904  33.991  13.840
10101W        W78431  18.728  28.455  13.020
10102W        W78432  40.925  17.726   0.741
10103W        W78433  33.402   7.259   0.727
10104W        W78434   4.328  17.249   3.692
10105W        W78435   6.261  29.000  10.934
10106W        W78436   2.759  24.195  10.919
10107W        W78437  11.722  36.502  14.895
10108W        W78438   3.900  38.051   0.929
10109W        W78439   3.381  35.509   0.864
10110W        W78440  28.629  11.356   0.785
10111W        W78441  27.595  25.978   4.167
10112W        W78442  11.627  10.685   2.343
10113W        W78443  32.568  43.451   4.628
10114W        W78444  12.153  14.774   0.302
10115W        W78445  35.098  17.069   4.130
10116W        W78446  24.678  37.012   3.836
10117W        W78447  13.269  41.026   2.371
10118W        W78448  20.036  11.731   1.414
10119W        W78449  34.472   1.960   3.311
10120W        W78450   1.889  32.456   2.284
10121W        W78451  26.644  41.927   5.175
10122W        W78452  37.945  28.650   1.322
10123W        W78453  27.029  16.130  10.634
10124W        W78454  31.926   0.897  12.516
10125W        W78455  39.494  23.650  13.960
10126W        W78456  32.080  24.222   1.305
10127W        W78457  23.061  16.582   1.244
10128W        W78458   0.403  35.052   0.481
10129W        W78459  24.208  41.312   3.852
10130W        W78460  36.581  10.276   4.149
10131W        W78461  37.953   7.735  14.935
10132W        W78462  42.323  25.135   2.194
10133W        W78463  22.510  36.878  13.044
10134W        W78464  12.684   4.227   1.725
10135W        W78465   1.782   6.828  10.608
10136W        W78466  40.013  23.655  13.995
10137W        W78467  11.658   3.410  14.880
10138W        W78468  39.511  30.524  14.342
10139W        W78469   5.739  31.957   3.360
10140W        W78470  41.845  16.576   0.748
10141W        W78471  34.553   6.840   0.854
10142W        W78472   2.721  28.628  14.469
10143W        W78473  10.238  28.638  10.088
10144W        W78474  40.336  26.164  10.428
10145W        W78475   7.194  44.366  14.294
10146W        W78476  27.175  13.683   4.710
10147W        W78477  35.482   1.471  14.923
10148W        W78478   1.975  17.651  12.437
10149W        W78479  22.686  13.179   1.373
10150W        W78480  36.903   8.842  13.503
10151W        W78481   6.199  14.755   2.392
10152W        W78482  40.383  32.391  12.416
10153W        W78483  21.632  21.642   4.175
10154W        W78484  33.518  29.127  12.382
10155W        W78485  38.072  38.556  13.038
10156W        W78486   8.815  26.683  12.984
10157W        W78487  21.597  42.824   0.824
10158W        W78488   5.426  27.594   0.371
10159W        W78489  32.937  16.631  10.549
10160W        W78490  35.075  25.170   0.363
10161W        W78491  24.099  33.442  14.827
10162W        W78492  34.876  23.070  13.803
10163W        W78493  30.439  41.446  11.584
10164W        W78494  33.599  25.124  13.398
10165W        W78495  18.109  20.104  12.924
10166W        W78496  22.667  21.244   1.441
10167W        W78497  40.540  33.493  12.377
10168W        W78498  11.263   2.437  14.845
10169W        W78499  40.910  13.205  12.486
10170W        W78500   7.410  29.131   1.834
10171W        W78501  18.593   5.362   0.405
10172W        W78502   8.405  34.095   3.147
10173W        W78503  18.616  36.093   0.379
10174W        W78504   4.708  33.020   2.412
10175W        W78505  22.044  35.047  12.561
10176W        W78506  26.083  39.930  12.005
10177W        W78507  38.916   4.232   0.939
10178W        W78508  15.617  16.659  11.001
10179W        W78509  34.053  41.471  14.897
10180W        W78510  12.699  32.956   1.710
10181W        W78511  20.737  39.913  14.883
10182W        W78512  28.653  19.097  11.965
10183W        W78513  36.865  42.888   4.162
10184W        W78514  27.629  23.557   1.873
10185W        W78515  30.981   1.952   0.885
10186W        W78516  42.504  21.046  14.381
10187W        W78517   3.909   6.812   0.248
10188W        W78518  16.623  35.536  10.423
10189W        W78519  39.428  33.911   1.739
10190W        W78520  20.669  29.580  14.454
10191W        W78521   6.866  34.980  11.408
10192W        W78522  14.231  12.742   2.842
10193W        W78523   5.904  19.240   4.815
10194W        W78524  31.540  41.340  10.994
10195W        W78525  18.094  29.952  14.968
10196W        W78526   1.745  22.641   4.264
10197W        W78527   4.874  11.326   2.297
10198W        W78528  34.045  11.701  10.413
10199W        W78529  22.501  18.131  14.007
10200W        W78530  19.079  17.067   0.386
10201W        W78531  40.899   0.427  13.359
10202W        W78532   4.258  30.493   2.292
10203W        W78533  30.127   2.388   3.249
10204W        W78534  43.322  43.892  10.642
10205W        W78535  15.749  12.130  13.981
10206W        W78536   1.881   5.337  10.958
10207W        W78537  33.546  34.091  12.378
10208W        W78538  44.780  13.221  12.538
10209W        W78539  36.879  43.391  13.875
10210W        W78540  14.327   5.297   3.190
10211W        W78541  20.069  24.007  10.518
10212W        W78542  23.526  33.467  10.407
10213W        W78543  35.381  26.105  10.468
10214W        W78544  10.202  44.394   3.217
10215W        W78545   0.441  10.720   2.696
10216W        W78546  23.061  22.567   4.633
10217W        W78547   9.669   5.268   4.749
10218W        W78548  31.628   1.242   1.889
10219W        W78549  22.639  15.320   0.833
10220W        W78550  13.250  25.655   3.220
10221W        W78551  12.280  27.073  10.642
10222W        W78552  34.964  43.939   2.396
10223W        W78553  39.856  35.561  11.058
10224W        W78554  33.042  28.099  14.407
10225W        W78555  18.119   1.462   1.234
10226W        W78556  34.528  34.106   0.300
10227W        W78557  42.308   2.461   1.760
10228W        W78558   7.187   5.409   1.226
10229W        W78559  38.063  27.492   2.879
10230W        W78560  28.553  38.557   3.675
10231W        W78561   7.849  24.995  12.435
10232W        W78562  32.457  17.653   0.780
10233W        W78563  28.160  15.814   1.883
10234W        W78564  44.496  19.758  13.386
10235W        W78565  40.869  11.322   1.382
10236W        W78566  30.099  39.408  12.417
10237W        W78567  17.216   4.886  14.763
10238W        W78568   6.315  23.204   1.398
10239W        W78569  11.761  41.374   0.379
10240W        W78570  16.626   1.340   3.773
10241W        W78571  14.639  19.589  14.388
10242W        W78572  25.100  28.000   2.829
10243W        W78573  29.945   3.719  14.489
10244W        W78574  28.973   6.765   0.444
10245W        W78575  11.824   7.383  13.484
10246W        W78576  43.006   0.987   5.102
10247W        W78577  15.303  12.236  11.562
10248W        W78578   8.228   3.241   1.821
10249W        W78579  44.331   6.852  11.597
10250W        W78580   8.682   3.730  11.477
10251W        W78581  30.513  35.397  11.073
10252W        W78582  18.058  39.394   1.902
10253W        W78583  32.090  34.429  11.926
10254W        W78584  25.131  35.971   2.198
10255W        W78585   2.772  25.211  13.388
10256W        W78586  26.521  17.210  13.514
10257W        W78587  22.740  20.236   3.266
10258W        W78588   4.828  22.699  12.890
10259W        W78589  16.785  19.645   3.832
10260W        W78590  15.704  29.072   9.967
10261W        W78591  34.943  25.485  10.941
10262W        W78592  36.472  26.604  10.416
10263W        W78593  40.399  41.843   0.285
10264W        W78594  43.935  18.754   1.272
10265W        W78595  12.143   3.896  13.926
10266W        W78596  29.464  27.173  13.501
10267W        W78597   5.923  24.026   2.879
10268W        W78598  17.733  17.750  10.598
10269W        W78599  40.509  22.519  12.378
10270W        W78600  17.583  10.176   3.253
10271W        W78601   2.410  19.587   0.328
10272W        W78602  29.948  22.093   1.858
10273W        W78603  11.291  29.626  14.373
10274W        W78604  15.812  31.464  12.979
10275W        W78605  18.062   5.257  13.010
10276W        W78606   5.799  44.765  13.411
10277W        W78607  20.269  13.778  11.551
10278W        W78608  28.143  21.514  10.144
10279W        W78609  44.416  22.592  14.907
10280W        W78610   1.900  24.535   4.127
10281W        W78611  29.636  35.586   4.346
10282W        W78612  24.131  25.514   0.929
10283W        W78613  16.105  29.098  10.510
10284W        W78614  39.314  37.873   1.309
10285W        W78615  34.445  11.851   2.898
10286W        W78616  19.679  23.038  13.821
10287W        W78617  41.820  33.539  12.552
10288W        W78618  33.931  31.024  12.958
10289W        W78619  13.169   8.684   4.773
10290W        W78620   2.891  26.555  11.469
10291W        W78621  22.219   7.360   1.309
10292W        W78622   0.344  38.440   3.769
10293W        W78623  14.119  13.817   0.964
10294W        W78624   2.364  18.777   3.325
10295W        W78625  29.170  37.068  11.942
10296W        W78626  13.638  27.472   2.299
10297W        W78627  35.537  18.639  13.852
10298W        W78628  12.146  19.130  11.005
10299W        W78629   4.371   9.210  11.559
10300W        W78630  44.989  25.689   0.736
10301W        W78631  24.588   1.254  11.537
10302W        W78632   4.907   0.359   4.318
10303W        W78633  32.471  41.034  13.820
10304W        W78634   4.804  38.361  11.070
10305W        W78635  24.135  38.359   4.672
10306W        W78636  31.916  10.732  13.047
10307W        W78637  16.226  20.189   0.482
10308W        W78638  29.610   3.769   4.266
10309W        W78639  12.664  28.077   4.313
10310W        W78640  11.194  25.577   2.201
10311W        W78641   8.881   6.767  11.950
10312W        W78642  19.051   4.302   1.430
10313W        W78643  27.630  40.382   3.194
10314W        W78644  11.204  35.468   3.260
10315W        W78645   5.413  12.192  12.580
10316W        W78646  16.599  16.105   1.924
10317W        W78647  19.180  36.422   2.362
10318W        W78648  14.658  39.964   3.281
10319W        W78649  22.105  24.544   0.450
10320W        W78650  31.095   4.790   0.923
10321W        W78651  15.820  44.350  10.417
10322W        W78652  18.733  14.243   3.365
10323W        W78653  24.189  44.994   0.864
10324W        W78654  32.456  16.181   4.241
10325W        W78655   9.712  13.228  14.828
10326W        W78656  23.121  20.193   2.759
10327W        W78657   4.911  44.806   4.304
10328W        W78658  32.575  37.052   0.907
10329W        W78659   1.278  22.037   2.827
10330W        W78660  29.555  21.187   0.739
10331W        W78661  18.259  27.180   2.683
10332W        W78662  19.279  25.185   1.319
10333W        W78663  42.516  18.268   1.354
10334W        W78664  42.895  16.248  13.351
10335W        W78665  14.286  32.083  11.040
10336W        W78666  21.607  31.979  11.124
10337W        W78667  23.077  24.170   4.294
10338W        W78668  17.279  37.572  14.437
10339W        W78669  23.536  32.058   4.239
10340W        W78670  18.572   9.724  14.334
10341W        W78671  11.334  44.848   2.814
10342W        W78672  44.337  34.372   0.276
10343W        W78673  18.172  19.153  10.991
10344W        W78674  23.176  25.509  14.436
10345W        W78675  22.233  24.230   3.810
10346W        W78676  36.592   6.206   0.861
10347W        W78677  42.807  18.059   2.744
10348W        W78678  34.394  36.404   3.754
10349W        W78679   0.856  39.030  14.790
10350W        W78680   8.709   2.840   3.342
10351W        W78681   9.351  12.676  14.865
10352W        W78682  15.682   0.892   2.283
10353W        W78683   7.731  25.599  14.025
10354W        W78684  14.828   7.191   3.738
10355W        W78685  11.856  29.089   4.299
10356W        W78686  42.306  16.296   4.764
10357W        W78687  26.202   6.237   0.460
10358W        W78688  40.999  39.502  11.113
10359W        W78689  39.482  16.276  14.939
10360W        W78690  28.607  44.948  12.462
10361W        W78691  33.594  25.989   2.794
10362W        W78692  20.740  43.914   0.775
10363W        W78693  11.731   2.816   1.850
10364W        W78694   3.401   7.387   0.480
10365W        W78695  32.489   9.800   0.804
10366W        W78696   8.340  41.375  14.999
10367W        W78697  15.712  37.483  12.576
10368W        W78698  29.078   9.848   4.175
10369W        W78699  22.063  27.518   1.344
10370W        W78700   9.380  14.290  14.022
10371W        W78701  35.448   1.334   4.129
10372W        W78702  36.408  32.940  11.440
10373W        W78703  14.138  13.130   0.295
10374W        W78704  40.514   3.244   4.621
10375W        W78705  37.867  23.055  14.481
10376W        W78706  38.555  22.174  10.895
10377W        W78707  24.573  13.106   4.249
10378W        W78708  20.652  31.573   2.708
10379W        W78709  39.058  21.593  12.930
10380W        W78710  29.664   4.703   3.655
10381W        W78711  15.709  42.319   0.814
10382W        W78712  28.037  24.649   3.376
10383W        W78713  27.564   4.807   3.797
10384W        W78714  26.062  15.598  11.464
10385W        W78715   7.384   8.893   0.274
10386W        W78716  21.556  24.554   2.349
10387W        W78717  11.783  12.711  13.858
10388W        W78718   2.863   1.821   4.729
10389W        W78719  41.507  22.559  14.324
10390W        W78720   3.415  24.712   4.279
10391W        W78721  39.901  43.420  11.110
10392W        W78722  14.122  16.121  11.072
10393W        W78723  22.072  24.504  12.011
10394W        W78724   9.327  30.581   1.806
10395W        W78725  17.100  22.744   2.358
10396W        W78726   7.720  11.698   9.931
10397W        W78727  21.662   3.926   4.135
10398W        W78728  44.990  27.148  11.041
10399W        W78729  30.046  22.620  12.951
10400W        W78730  42.391  42.888   0.404
10401W        W78731  19.681  34.005  13.014
10402W        W78732   4.371  14.194  12.500
10403W        W78733  30.545  38.405   4.713
10404W        W78734  39.517  25.022  12.553
10405W        W78735  32.129   9.713  10.633
10406W        W78736  17.296  10.636   3.281
10407W        W78737  24.490  24.156  11.946
10408W        W78738  40.855  13.631   1.850
10409W        W78739   2.446  16.807  12.940
10410W        W78740  28.458  15.132  13.537
10411W        W78741  42.953  44.974  11.056
10412W        W78742  22.600  26.498   0.373
10413W        W78743   1.467  36.495  14.990
10414W        W78744  24.645  12.752   0.872
10415W        W78745  13.602  15.811   2.276
10416W        W78746  10.323  43.449  11.096
10417W        W78747  22.124  42.793   0.939
10418W        W78748  36.951  29.664   0.782
10419W        W78749  38.037   0.322  13.386
10420W        W78750  10.790  35.548   1.833
10421W        W78751  34.493  41.365   4.123
10422W        W78752  41.983  28.438  14.761
10423W        W78753  17.698  18.562   1.450
10424W        W78754   0.979  25.080  10.578
10425W        W78755  19.682  39.529  11.510
10426W        W78756  36.519  44.315  14.324
10427W        W78757  21.754   9.156   5.121
10428W        W78758  21.694   8.794  14.391
10429W        W78759  23.665  15.110  13.901
10430W        W78760  34.576  39.042   4.760
10431W        W78761  26.058  27.647  10.981
10432W        W78762  40.335  13.329  12.940
10433W        W78763  34.870  11.848   2.403
10434W        W78764  19.149   7.792   1.433
10435W        W78765  35.399  12.246  12.384
10436W        W78766  40.426  30.453  13.004
10437W        W78767  13.687   0.882  10.597
10438W        W78768  25.516   2.390  14.004
10439W        W78769  43.505  38.514  14.361
10440W        W78770  15.118  20.200   2.814
10441W        W78771  30.141   5.400  10.942
10442W        W78772  37.028   5.328   0.965
10443W        W78773  43.279   0.314  11.127
10444W        W78774  20.153  29.583  12.088
10445W        W78775  36.401  13.344   3.790
10446W        W78776   6.244   2.883   3.673
10447W        W78777  12.629  35.048  10.620
10448W        W78778  12.786  40.834  10.626
10449W        W78779   7.857  30.519   1.366
10450W        W78780  40.482  10.179   2.211
10451W        W78781  15.764  31.584   1.263
10452W        W78782  43.764  28.468  13.843
10453W        W78783   2.819  29.964  14.457
10454W        W78784  16.232  40.908   0.400
10455W        W78785  38.535  34.440   2.825
10456W        W78786  33.063  13.213   0.460
10457W        W78787  28.015  29.100   2.817
10458W        W78788  28.963  36.434   4.708
10459W        W78789  30.631  35.940  14.389
10460W        W78790   0.398  19.567   3.212
10461W        W78791   6.295  22.618  13.861
10462W        W78792  17.220  25.663  14.890
10463W        W78793  40.870  34.895  10.921
10464W        W78794  22.600  18.673  11.426
10465W        W78795  42.379  37.549   4.722
10466W        W78796  18.730  15.096  11.525
10467W        W78797  23.617  15.790  12.476
10468W        W78798  33.003  20.674  14.788
10469W        W78799  15.171   8.748   0.814
10470W        W78800  21.174  29.124   3.698
10471W        W78801  11.179   7.720  13.327
10472W        W78802   7.316  12.798   3.275
10473W        W78803   5.431   3.216   0.963
10474W        W78804  14.735  21.630  12.382
10475W        W78805  36.483  35.059   4.263
10476W        W78806  29.621   3.952   3.671
10477W        W78807  29.461  28.614   2.285
10478W        W78808  26.977   4.808  13.434
10479W        W78809  34.003  18.750  12.376
10480W        W78810  14.285   9.226  11.878
10481W        W78811  34.582  34.378  10.983
10482W        W78812  33.038   9.380  11.611
10483W        W78813  11.627  31.955   4.279
10484W        W78814  16.316  33.921  13.042
10485W        W78815   0.406  28.631   3.789
10486W        W78816   4.304  26.662   3.291
10487W        W78817  31.040  32.037   0.312
10488W        W78818  32.127   7.782   3.800
10489W        W78819  32.514  33.049   3.730
10490W        W78820   2.242  32.569   0.457
10491W        W78821   2.450  32.964  11.533
10492W        W78822  19.064   6.317  11.963
10493W        W78823  43.356   4.932  10.159
10494W        W78824  44.797  29.465   0.923
10495W        W78825   6.912  21.104   3.713
10496W        W78826  11.814  42.021  14.890
10497W        W78827  33.052  44.990  14.766
10498W        W78828  31.979   6.358  12.913
10499W        W78829   0.909  39.998  14.799
10500W        W78830  29.642  34.072  12.897
10501W        W78831  38.016  44.447  14.027
10502W        W78832  32.078  36.938   3.372
10503W        W78833   6.260  30.098  10.497
10504W        W78834   6.758  36.527   4.230
10505W        W78835   6.902   0.382  14.985
10506W        W78836  27.506  37.931   1.418
10507W        W78837   1.752  11.760   1.908
10508W        W78838  35.953   1.288  11.529
10509W        W78839  31.418   6.811   0.832
10510W        W78840  42.358  32.082  11.379
10511W        W78841  23.615  13.700  10.957
10512W        W78842  36.409  41.886  13.324
10513W        W78843   0.925   5.298   0.366
10514W        W78844   2.436  20.132   4.250
10515W        W78845  23.200  23.049   2.825
10516W        W78846   8.160  30.153  13.389
10517W        W78847  13.843  39.041   1.773
10518W        W78848  28.671   1.301  11.563
10519W        W78849   4.890  13.287   4.350
10520W        W78850  43.300  19.191   2.255
10521W        W78851  35.385   0.253   0.761
10522W        W78852  25.581  39.928  12.843
10523W        W78853   8.370  29.452   2.314
10524W        W78854   5.919  36.390  13.918
10525W        W78855   8.332  36.445  10.642
10526W        W78856  10.156  11.335   1.823
10527W        W78857  25.545  41.043  13.463
10528W        W78858  17.255  13.281  14.977
10529W        W78859   1.435  35.975   3.864
10530W        W78860  14.653   1.834   0.763
10531W        W78861  16.785  41.817  13.482
10532W        W78862  21.535  28.447   0.828
10533W        W78863  23.128  40.318  12.026
10534W        W78864  37.861  42.324  11.057
10535W        W78865  42.990  39.460  12.062
10536W        W78866  33.082  21.214  13.406
10537W        W78867  24.985   8.222   0.732
10538W        W78868  22.228  38.904  13.817
10539W        W78869  17.301  34.591   1.368
10540W        W78870  26.199  17.289  11.965
10541W        W78871  38.479   5.332  10.059
10542W        W78872  11.764  21.207   4.688
10543W        W78873  41.796  20.697   2.246
10544W        W78874  15.616   7.404   0.475
10545W        W78875  10.640   0.435  13.361
10546W        W78876  27.648  13.255  14.847
10547W        W78877  42.964  17.708  13.002
10548W        W78878  16.289  30.617  13.937
10549W        W78879  13.614  32.133   1.754
10550W        W78880  12.197   1.368  11.526
10551W        W78881  38.456  23.690  13.349
10552W        W78882  22.021   2.387  12.986
10553W        W78883  15.242  24.170  12.361
10554W        W78884  25.559  15.319  14.022
10555W        W78885  35.066   3.378   4.704
10556W        W78886  25.980  32.991  12.026
10557W        W78887  38.363   0.469   3.796
10558W        W78888  31.472  12.854   4.118
10559W        W78889   6.273  27.610   2.724
10560W        W78890  42.360   4.421   2.760
10561W        W78891  10.306  26.620   2.776
10562W        W78892  29.154   7.910   4.709
10563W        W78893  27.692  15.280  14.465
10564W        W78894  16.776   5.345  13.046
10565W        W78895  39.947  25.575  13.945
10566W        W78896   9.391  34.017   3.663
10567W        W78897  23.034  33.585  12.520
10568W        W78898  18.180  25.016   0.827
10569W        W78899  26.133  17.793   3.688
10570W        W78900   9.183  19.611   2.837
10571W        W78901  24.709   2.387   1.704
10572W        W78902  31.469  23.010   4.322
10573W        W78903  38.338  35.518   4.272
10574W        W78904   9.223  11.777  12.978
10575W        W78905   7.905  26.545   0.733
10576W        W78906  17.695  39.957   2.835
10577W        W78907   8.696   1.889  10.892
10578W        W78908  31.970  38.040   3.767
10579W        W78909  32.019  23.131   1.221
10580W        W78910  33.970  33.109   1.394
10581W        W78911  41.353  16.809   0.323
10582W        W78912  16.753  32.579   2.290
10583W        W78913   6.347   8.345   0.396
10584W        W78914  12.175  21.212  13.801
10585W        W78915  27.610  36.437  13.367
10586W        W78916  35.991   2.828  13.986
10587W        W78917  29.438  34.579   2.854
10588W        W78918   8.172  44.260   0.876
10589W        W78919  20.044  37.461  11.560
10590W        W78920  23.522   1.870   3.328
10591W        W78921  29.507  12.688  10.592
10592W        W78922  33.936  28.018   3.848
10593W        W78923   4.930  38.555  13.938
10594W        W78924  44.379  14.115   3.787
10595W        W78925  36.438  34.435   1.863
10596W        W78926  35.554  36.446  13.461
10597W        W78927  13.804  37.061  10.943
10598W        W78928  26.046  32.005  13.887
10599W        W78929  23.038  41.363  12.456
10600W        W78930  21.599  29.476  14.319
10601W        W78931  39.055  44.368   1.403
10602W        W78932  34.486  38.834   3.167
10603W        W78933  11.831  43.918   0.263
10604W        W78934  37.482  31.544  10.928
10605W        W78935  33.570  13.663   2.731
10606W        W78936  16.300  31.974  11.390
10607W        W78937  21.541  33.033   0.741
10608W        W78938   6.308  40.388  14.995
10609W        W78939  38.470  28.050  14.313
10610W        W78940  14.323  30.979   1.424
10611W        W78941   4.352   2.920   2.761
10612W        W78942  19.619   8.172  10.955
10613W        W78943  36.585  26.490   0.770
10614W        W78944  25.963  13.772   3.743
10615W        W78945   6.260  24.169  10.620
10616W        W78946  42.442  15.151   3.726
10617W        W78947   6.413  41.482   5.114
10618W        W78948   0.415  38.341  12.914
10619W        W78949  44.906  44.398  10.602
10620W        W78950  16.297  33.483  12.476
10621W        W78951  41.499  14.668  12.343
10622W        W78952   0.871  35.945   2.327
10623W        W78953   0.799  29.926   4.300
10624W        W78954   7.346  37.962  14.828
10625W        W78955  15.223  10.235   1.848
10626W        W78956   8.685  19.137   2.339
10627W        W78957   3.450  20.533   3.802
10628W        W78958   5.822   3.363  11.095
10629W        W78959  23.192   6.413  11.858
10630W        W78960  42.843  35.485   0.281
10631W        W78961  40.867  19.192  11.032
10632W        W78962  43.506  30.519   2.853
10633W        W78963  19.720  33.068  13.895
10634W        W78964  32.007   0.836   1.873
10635W        W78965   2.818   9.395   1.810
10636W        W78966   6.902   4.382   3.378
10637W        W78967  34.477  40.378   2.382
10638W        W78968  40.326  23.124   4.125
10639W        W78969  15.617  22.197   4.772
10640W        W78970   5.757   7.741  12.440
10641W        W78971  12.180   2.881   2.271
10642W        W78972   3.333   5.906  14.311
10643W        W78973  15.278  10.708  10.599
10644W        W78974  35.977  22.684  14.483
10645W        W78975  34.888  38.475  14.304
10646W        W78976  13.767   5.317  11.481
10647W        W78977  25.082  42.028  13.905
10648W        W78978  44.354  12.708  12.977
10649W        W78979   9.652   2.282  14.391
10650W        W78980  41.449  19.649  13.992
10651W        W78981  14.711  21.632   1.726
10652W        W78982  37.483  37.418   2.362
10653W        W78983  19.086  40.545   0.318
10654W        W78984  17.639   7.260   3.359
10655W        W78985  33.382   3.725  14.951
10656W        W78986  44.911  37.470  10.579
10657W        W78987  31.136  14.289  13.958
10658W        W78988   0.984  27.464  14.321
10659W        W78989   5.278  19.202   1.710
10660W        W78990  22.245   1.274  11.557
10661W        W78991   6.409  34.439  14.953
10662W        W78992  19.733  37.957   0.245
10663W        W78993  20.685  14.164   3.634
10664W        W78994   4.259  37.073   2.870
10665W        W78995  38.031  37.527  12.052
10666W        W78996  18.707  26.563  13.542
10667W        W78997  33.118  38.562  13.931
10668W        W78998  17.722  13.283  11.995
10669W        W78999  30.056   8.243   0.857
10670W        W79000  14.119  15.155   4.621
10671W        W79001  11.313  14.769   2.255
10672W        W79002   0.383  18.094   4.257
10673W        W79003  16.091  31.927   3.845
10674W        W79004  43.801   9.781  13.395
10675W        W79005  27.088  18.731   4.768
10676W        W79006  39.041  38.396   2.336
10677W        W79007   7.790   9.163  11.514
10678W        W79008  43.794   9.852   2.665
10679W        W79009  20.606   7.738  12.359
10680W        W79010  24.057  42.313  10.914
10681W        W79011  39.056  33.405   3.250
10682W        W79012  32.098  13.127  14.329
10683W        W79013  17.237  33.616   5.134
10684W        W79014  17.579   8.872   1.871
10685W        W79015  21.105  20.681  12.551
10686W        W79016  27.193  17.191  13.359
10687W        W79017  36.859   2.355   3.826
10688W        W79018  32.546  31.098   2.215
10689W        W79019  18.634  21.097  14.445
10690W        W79020   1.826  17.621  13.797
10691W        W79021  10.856  39.547  14.939
10692W        W79022   8.663  13.274   2.223
10693W        W79023  43.800  24.624   1.933
10694W        W79024  24.657  28.954   1.407
10695W        W79025  38.825  18.688   4.310
10696W        W79026   3.841  34.055   4.324
10697W        W79027  10.224  26.667  11.032
10698W        W79028   5.323  25.144   3.207
10699W        W79029   5.816  34.016  12.881
10700W        W79030  18.617  28.673   3.723
10701W        W79031  41.977  40.485   4.337
10702W        W79032  40.001  22.229  12.995
10703W        W79033  19.166  42.824   0.383
10704W        W79034  20.581  37.052   0.956
10705W        W79035  21.531  26.155  13.335
10706W        W79036   9.198   5.270  13.530
10707W        W79037  21.033   4.436   4.636
10708W        W79038  26.590   3.282   1.931
10709W        W79039  42.442  13.603  11.073
10710W        W79040  19.220  41.500   4.350
10711W        W79041  14.639  42.520   0.454
10712W        W79042  23.159   0.439   3.746
10713W        W79043  34.428  25.060   3.806
10714W        W79044   5.303  23.022  13.532
10715W        W79045  31.145  17.778   0.295
10716W        W79046  32.619  42.492  12.959
10717W        W79047  39.391  33.052  13.392
10718W        W79048  33.470  44.333   2.197
10719W        W79049  35.419  43.413   2.198
10720W        W79050  40.015  40.397   1.270
10721W        W79051   1.949  19.644  14.469
10722W        W79052  14.098  12.813   3.146
10723W        W79053   6.391  44.259  12.494
10724W        W79054  29.587  41.887  12.965
10725W        W79055   4.265  10.365  10.942
10726W        W79056  32.504  36.943   2.726
10727W        W79057  23.104  22.153   4.129
10728W        W79058  25.488  30.459  14.899
10729W        W79059   6.206   8.358  13.841
10730W        W79060  35.934  17.688  11.974
10731W        W79061  30.547  40.473   4.627
10732W        W79062  42.907   4.445   0.255
10733W        W79063  18.790  20.220   4.601
10734W        W79064  40.802  44.382   4.660
10735W        W79065  36.888  37.390  10.919
10736W        W79066  18.177   4.319  13.370
10737W        W79067   2.949  23.231  11.095
10738W        W79068  17.557  26.135   3.818
10739W        W79069   3.841   3.419   4.791
10740W        W79070  38.975  32.925  10.891
10741W        W79071   9.259  13.244   2.272
10742W        W79072   4.752  26.507   5.302
10743W        W79073  43.783  16.675   4.209
10744W        W79074  29.442  13.758  13.858
10745W        W79075  21.134  33.121   0.349
10746W        W79076  22.130   2.226   1.259
10747W        W79077   9.210  10.637   4.813
10748W        W79078  13.328  10.164   3.728
10749W        W79079  15.683   2.856   1.210
10750W        W79080  10.674  29.067   1.725
10751W        W79081  11.807  43.884  14.822
10752W        W79082  29.026  18.762  13.889
10753W        W79083   3.436  44.293   1.312
10754W        W79084   5.343  43.270   4.195
10755W        W79085  41.864  27.682   3.861
10756W        W79086   5.277  11.362   1.345
10757W        W79087  35.594  11.258   3.744
10758W        W79088  39.059   4.831   2.181
10759W        W79089   4.220  23.184  14.865
10760W        W79090  16.198  24.696  13.350
10761W        W79091  11.281  37.017  12.413
10762W        W79092  20.246  11.195   4.674
10763W        W79093   9.382   2.836   1.722
10764W        W79094  44.414  27.049  14.998
10765W        W79095  31.566   2.365  11.463
10766W        W79096  30.139   5.734   2.875
10767W        W79097  34.420  22.239  14.841
10768W        W79098  10.258  31.528   5.134
10769W        W79099  27.027  23.666  12.921
10770W        W79100  15.712   7.247   9.958
10771W        W79101  43.480   0.956   3.708
10772W        W79102   0.380  40.004   4.142
10773W        W79103  34.876  17.225   0.449
10774W        W79104  30.917  34.445   2.221
10775W        W79105  39.844   6.241   3.293
10776W        W79106  30.620  33.917   4.793
10777W        W79107  28.493  17.128   2.378
10778W        W79108   7.255  34.533   2.414
10779W        W79109   9.155  20.213  14.496
10780W        W79110  32.106   5.773   3.237
10781W        W79111   6.231   1.809  13.800
10782W        W79112  27.483   1.297   1.285
10783W        W79113   9.282  34.865   2.738
10784W        W79114  17.256  15.271   4.279
10785W        W79115  16.123   4.745  10.518
10786W        W79116  19.633  40.439   2.344
10787W        W79117   7.819  44.765  11.930
10788W        W79118  20.711   4.806   3.258
10789W        W79119  22.601  21.659  11.381
10790W        W79120  43.007  22.570   2.245
10791W        W79121  43.316  23.192   4.717
10792W        W79122  32.538  10.831  14.993
10793W        W79123  10.741  11.210   4.711
10794W        W79124  19.712  39.970  13.417
10795W        W79125  12.730  17.624   1.724
10796W        W79126   4.355  25.608  13.351
10797W        W79127  40.952  16.805   4.146
10798W        W79128  13.261  32.555  14.010
10799W        W79129   5.898  29.663   2.902
10800W        W79130  12.259   2.235  12.829
10801W        W79131   7.729   2.848  10.978
10802W        W79132  16.790  44.942   1.720
10803W        W79133  44.914  43.768  14.393
10804W        W79134  34.976  11.246  12.477
10805W        W79135   7.675  31.151   0.841
10806W        W79136  34.883   6.364  10.578
10807W        W79137  42.345  36.076  11.390
10808W        W79138  29.134  15.635  12.980
10809W        W79139  21.209  28.947  10.981
10810W        W79140   9.700  34.489  11.509
10811W        W79141  36.365  44.266  12.552
10812W        W79142  37.385  42.452  13.324
10813W        W79143   3.939  43.407   0.255
10814W        W79144  44.939  32.481  13.879
10815W        W79145   8.267  11.138  10.495
10816W        W79146  32.578  26.039   3.850
10817W        W79147  41.888  13.698  11.406
10818W        W79148  22.173  34.994  11.372
10819W        W79149  18.117  41.990  13.314
10820W        W79150  41.440  41.860   3.871
10821W        W79151  31.470  18.781   1.355
10822W        W79152  15.774  32.127  14.839
10823W        W79153  36.462  36.981   4.703
10824W        W79154  23.241  40.958  14.882
10825W        W79155  23.995  21.217   2.282
10826W        W79156  42.958  14.684   4.273
10827W        W79157  20.134   0.761  11.499
10828W        W79158  37.953   7.336  12.956
10829W        W79159  29.452   1.884   1.871
10830W        W79160  42.443  26.162   3.724
10831W        W79161   5.402  35.546   0.795
10832W        W79162   1.836  31.921   4.259
10833W        W79163  37.407   1.466   1.444
10834W        W79164  40.866  43.439   2.891
10835W        W79165  43.819  29.498   1.442
10836W        W79166  44.441  26.678   1.724
10837W        W79167   5.809   7.679   1.698
10838W        W79168   6.796  17.675  13.488
10839W        W79169  28.498  30.075   0.339
10840W        W79170  11.691  44.788   1.382
10841W        W79171  15.085   3.309  11.386
10842W        W79172  22.249  27.194   3.223
10843W        W79173  39.883  38.991   1.368
10844W        W79174   8.888  18.704   4.279
10845W        W79175  11.629  33.403   1.781
10846W        W79176  44.344   0.442   3.343
10847W        W79177  12.121   3.780  14.457
10848W        W79178  37.411  18.750  14.994
10849W        W79179  19.045   1.332  12.007
10850W        W79180  35.490  27.970   3.705
10851W        W79181  37.991  44.971   2.419
10852W        W79182  26.188  18.107  11.916
10853W        W79183  34.589  34.107  12.862
10854W        W79184  21.070  21.533  11.543
10855W        W79185   3.902  44.986  12.852
10856W        W79186  39.499  23.523   4.322
10857W        W79187  29.552  20.590  10.574
10858W        W79188   7.687  38.916   1.734
10859W        W79189  18.764  23.703   5.307
10860W        W79190  32.120   9.729   2.206
10861W        W79191  40.490  12.292   4.214
10862W        W79192  42.392  22.525   1.702
10863W        W79193  15.607  33.477   4.674
10864W        W79194  40.914  31.421  12.361
10865W        W79195  13.778  17.565   3.185
10866W        W79196  16.748  43.408   3.860
10867W        W79197   0.345  37.054   3.710
10868W        W79198  44.336  16.683  10.458
10869W        W79199   4.247  31.086   3.225
10870W        W79200  23.714  34.883   4.252
10871W        W79201  29.576  12.804  12.560
10872W        W79202  21.589  31.587   5.277
10873W        W79203  30.445  21.743   2.807
10874W        W79204  28.161  12.748  10.888
10875W        W79205  12.212   4.802  14.032
10876W        W79206   8.784  34.503   1.841
10877W        W79207  34.896  10.365   4.785
10878W        W79208  15.795  26.059   9.950
10879W        W79209  27.064  21.112   1.414
10880W        W79210  19.041   3.943   4.244
10881W        W79211  17.730  29.054  12.899
10882W        W79212  44.271  18.294   3.158
10883W        W79213  44.952  20.246   1.709
10884W        W79214  19.076   6.749  11.567
10885W        W79215  14.751  30.501  14.505
10886W        W79216  31.034  42.935  13.454
10887W        W79217   2.283  40.918   2.340
10888W        W79218  30.092  36.570  11.943
10889W        W79219  39.344  33.041   2.810
10890W        W79220   2.895   3.443  10.478
10891W        W79221   9.848   7.277  13.538
10892W        W79222   3.881  20.527  14.844
10893W        W79223   6.197  15.251   2.705
10894W        W79224  23.493  31.496  11.463
10895W        W79225   3.357  13.664   2.679
10896W        W79226  33.090  15.796  12.952
10897W        W79227  30.131  13.267  12.890
10898W        W79228  16.137  38.925   3.317
10899W        W79229  10.768  11.344  13.365
10900W        W79230  31.096  44.843  12.078
10901W        W79231   1.765  38.535  14.789
10902W        W79232  38.876   0.371  12.012
10903W        W79233   5.816  13.191   4.199
10904W        W79234  32.096  35.457   4.151
10905W        W79235   8.291  23.649  12.081
10906W        W79236  44.997   3.346  13.338
10907W        W79237  28.943  16.176  14.955
10908W        W79238  21.568  29.508   1.292
10909W        W79239   1.467  34.900  10.513
10910W        W79240  30.577  10.255   2.865
10911W        W79241  22.235  10.248  11.933
10912W        W79242   6.289  23.593   3.281
10913W        W79243  36.011  19.069  14.015
10914W        W79244  32.944  18.269   3.150
10915W        W79245  30.085  43.427  11.103
10916W        W79246  34.472  13.769  10.921
10917W        W79247  42.884  30.087  14.974
10918W        W79248  40.017  30.064   0.835
10919W        W79249  13.629  11.664  10.518
10920W        W79250  17.107  32.534  13.522
10921W        W79251  28.099   6.417   0.917
10922W        W79252  14.330  29.157  11.572
10923W        W79253  43.480   1.427   2.667
10924W        W79254  22.666   8.387  11.003
10925W        W79255   3.239  18.764  12.063
10926W        W79256  32.435  15.249  11.909
10927W        W79257  26.462  25.100   0.284
10928W        W79258   4.862  37.072   2.727
10929W        W79259  16.699   9.316   2.755
10930W        W79260  20.101  44.841  12.043
10931W        W79261   9.325  39.474  14.977
10932W        W79262   7.217  18.159   0.760
10933W        W79263   7.284  29.550  10.973
10934W        W79264  40.457  41.496  10.632
10935W        W79265   5.268  21.573   1.793
10936W        W79266   1.347  32.584  12.830
10937W        W79267   8.889   5.732  11.421
10938W        W79268  19.181  16.236  10.591
10939W        W79269  24.134  15.159   3.204
10940W        W79270  16.775  16.787   3.824
10941W        W79271  29.612  34.571   2.210
10942W        W79272  33.605  37.887  10.460
10943W        W79273  11.199  36.489   4.155
10944W        W79274  14.193  14.757   1.818
10945W        W79275  32.892  22.070  13.389
10946W        W79276  41.348  24.158  10.498
10947W        W79277  39.858  26.615  14.010
10948W        W79278  26.545  30.956   0.353
10949W        W79279  22.691   7.304   3.272
10950W        W79280  42.502  20.643   1.317
10951W        W79281  10.653  40.951  13.306
10952W        W79282  23.684  22.105  11.890
10953W        W79283  36.476  12.611   4.330
10954W        W79284  42.934  41.292   2.178
10955W        W79285  38.928  12.270   2.788
10956W        W79286   7.707  41.957  12.473
10957W        W79287   8.827  17.595   0.371
10958W        W79288  43.319  19.041  14.406
10959W        W79289  33.438  12.662   0.823
10960W        W79290  21.693  17.726   2.368
10961W        W79291  36.587  28.001   4.121
10962W        W79292  41.518  15.110   3.290
10963W        W79293  41.301  42.373   2.732
10964W        W79294  44.997   6.340  13.375
10965W        W79295  38.981  34.483   3.213
10966W        W79296   9.779   2.732  13.967
10967W        W79297  16.696  22.579   0.895
10968W        W79298  21.732  44.785   4.604
10969W        W79299  25.633  24.142   4.291
10970W        W79300  32.496  43.311   4.174
10971W        W79301  34.369  31.528   3.707
10972W        W79302  15.241  41.867   4.114
10973W        W79303  42.291  33.944  12.961
10974W        W79304  24.687  43.972   0.357
10975W        W79305  42.308   6.272  11.945
10976W        W79306  33.067   3.888  14.856
10977W        W79307  40.006  15.691  11.372
10978W        W79308  14.809   1.264   3.807
10979W        W79309  37.452  23.704   1.434
10980W        W79310  41.892   3.397   0.893
10981W        W79311  41.401  24.513   4.340
10982W        W79312  18.619  22.631   2.230
10983W        W79313  34.007   5.807   3.742
10984W        W79314   5.710   4.276   0.820
10985W        W79315  44.497  24.142   2.750
10986W        W79316   3.755  17.620  11.101
10987W        W79317   3.814  12.268  14.491
10988W        W79318  19.274  10.720  12.866
10989W        W79319  12.711  22.249  13.813
10990W        W79320  32.069   2.365  12.407
10991W        W79321   2.392  35.888  11.043
10992W        W79322   1.736  21.694  11.999
10993W        W79323  25.546  42.883   0.888
10994W        W79324   4.238   6.237   2.760
10995W        W79325   5.835  16.788   2.857
10996W        W79326  29.118  14.773   4.150
10997W        W79327  31.626   9.174   4.205
10998W        W79328  33.568  23.727  10.555
10999W        W79329  35.875  17.288   2.903
11000W        W79330  41.436  25.588   4.162
11001W        W79331  12.670   1.816   3.181
11002W        W79332  27.960  16.597   2.684
11003W        W79333  43.869  23.028  14.987
11004W        W79334  43.448  36.998   2.376
11005W        W79335  43.401  40.460   4.807
11006W        W79336  39.036  27.688   0.838
11007W        W79337  12.289  12.128  13.360
11008W        W79338  15.248  18.294  14.967
11009W        W79339  28.659  39.478   1.707
11010W        W79340  31.984  17.770  12.459
11011W        W79341  17.188   2.737   0.299
11012W        W79342  24.104   6.205   3.261
11013W        W79343  13.115  25.102   4.734
11014W        W79344   5.871  36.960  13.359
11015W        W79345  43.825  31.990   3.629
11016W        W79346   1.787  12.234  12.899
11017W        W79347  30.466   3.300   5.227
11018W        W79348   0.281  29.611   0.264
11019W        W79349  18.064  44.760  13.034
11020W        W79350  16.277   5.386  11.474
11021W        W79351  11.174  31.061   1.369
11022W        W79352   1.947   0.747  12.965
11023W        W79353   1.444  18.658  13.325
11024W        W79354  32.636  10.717  10.575
11025W        W79355  41.924  22.171  11.022
11026W        W79356  26.202  39.351   2.189
11027W        W79357   8.377  37.508  11.981
11028W        W79358  16.781  24.145  14.416
11029W        W79359  13.322  14.801  11.073
11030W        W79360  14.698  14.724   0.923
11031W        W79361  23.666   4.872  14.297
11032W        W79362  36.358  36.069   5.210
11033W        W79363  23.059  26.069   3.811
11034W        W79364  25.119   9.230  11.500
11035W        W79365  28.484   6.413  14.358
11036W        W79366   2.323  31.029  12.863
11037W        W79367   6.718  37.988   1.220
11038W        W79368  12.276  40.037   3.844
11039W        W79369  40.845  14.728   3.269
11040W        W79370  29.087  34.370  11.514
11041W        W79371  28.556   9.840  10.977
11042W        W79372  28.581  25.683   0.380
11043W        W79373  14.618  29.563   0.242
11044W        W79374  36.000   6.359  12.580
11045W        W79375  17.569  26.194   1.732
11046W        W79376  42.361  12.289   2.339
11047W        W79377  40.409  20.720   0.868
11048W        W79378   6.728  19.092  11.048
11049W        W79379   5.266  38.007  11.555
11050W        W79380  17.093  17.092  11.074
11051W        W79381  18.690  43.899   1.222
11052W        W79382  11.750  21.605  12.519
11053W        W79383  34.864   9.708  10.592
11054W        W79384  39.361  29.172   4.831
11055W        W79385  36.945  33.073   1.374
11056W        W79386  22.507  28.507  11.447
11057W        W79387  34.555  32.502  12.393
11058W        W79388  11.863  14.127  10.527
11059W        W79389  17.275  23.178   1.406
11060W        W79390   0.284  35.386   4.655
11061W        W79391   3.455  39.379  14.481
11062W        W79392  32.613  38.035   1.784
11063W        W79393  25.598   6.858   3.238
11064W        W79394  41.367  44.329  13.920
11065W        W79395   5.794  21.214  11.928
11066W        W79396   6.901  31.959  14.779
11067W        W79397  31.978  31.083   2.325
11068W        W79398  14.306  28.592  13.971
11069W        W79399  21.640  33.425   1.924
11070W        W79400   6.763  36.982   3.721
11071W        W79401  39.968  20.049  13.047
11072W        W79402   7.300  35.459  13.801
11073W        W79403   7.766  30.063   4.225
11074W        W79404  29.995  34.497   0.754
11075W        W79405  27.467   5.747   3.753
11076W        W79406  15.201  14.142  13.970
11077W        W79407  33.125   9.820   0.763
11078W        W79408  34.050  35.534  14.819
11079W        W79409  26.207   4.288   2.747
11080W        W79410  13.331  44.927  11.505
11081W        W79411   9.798  15.587   4.652
11082W        W79412  26.060  23.240  14.984
11083W        W79413   7.717  34.466   4.345
11084W        W79414  41.845  13.783  10.608
11085W        W79415  19.590   9.149   3.332
11086W        W79416  23.704  19.151   2.733
11087W        W79417  43.342  39.411   1.842
11088W        W79418   7.369  43.846  14.950
11089W        W79419  23.064  14.182   4.637
11090W        W79420  39.395  44.908  11.071
11091W        W79421   7.388  27.156   4.140
11092W        W79422  38.050   0.742   0.446
11093W        W79423  37.351  13.221   3.688
11094W        W79424   2.416  12.756  14.947
11095W        W79425  19.092  14.309  14.005
11096W        W79426  42.784   3.251   0.903
11097W        W79427  31.601   4.903  14.457
11098W        W79428  37.413  22.737   4.795
11099W        W79429  38.372  20.599  11.871
11100W        W79430  34.946  10.803   1.781
11101W        W79431   1.395  13.695   0.867
11102W        W79432  26.033  36.975   2.842
11103W        W79433  35.586  42.292   2.814
11104W        W79434  31.104   7.860   4.140
11105W        W79435  14.098  38.990   0.364
11106W        W79436  39.411  34.431   2.379
11107W        W79437   1.895  12.627  14.462
11108W        W79438  10.164  44.819   3.790
11109W        W79439  19.611  36.556  10.480
11110W        W79440   6.903  32.967  13.461
11111W        W79441  38.491   1.779   0.888
11112W        W79442   5.698  34.048   0.816
11113W        W79443   7.752   1.415  10.513
11114W        W79444  38.866  14.629  14.425
11115W        W79445   8.853  32.893   3.675
11116W        W79446  18.062   5.929   0.299
11117W        W79447  27.627  15.760  10.030
11118W        W79448   4.745  41.393   1.280
11119W        W79449  16.708  20.610   1.751
11120W        W79450  37.921  25.147   1.294
11121W        W79451  43.327  31.112   2.680
11122W        W79452   9.372  33.519   1.346
11123W        W79453   4.717  21.539   2.357
11124W        W79454   1.937  40.480   4.631
11125W        W79455  24.008  39.028  10.089
11126W        W79456   7.679   8.881  13.373
11127W        W79457  30.526  29.045  13.377
11128W        W79458  44.916  38.373   4.168
11129W        W79459  19.086  20.066   4.355
11130W        W79460  23.609  21.180  11.537
11131W        W79461  27.987   0.446  12.510
11132W        W79462  43.419  18.061  14.387
11133W        W79463  23.038  39.405   0.402
11134W        W79464  22.092  18.233  11.443
11135W        W79465  28.644  19.533   1.863
11136W        W79466  16.255  17.258  14.844
11137W        W79467  27.658  37.075   2.844
11138W        W79468  35.489   3.315   3.256
11139W        W79469  33.906  17.572  12.826
11140W        W79470  29.584  27.549  13.954
11141W        W79471   8.314  37.503  13.798
11142W        W79472  18.090  21.545  10.893
11143W        W79473  14.171  26.579   3.782
11144W        W79474  28.441  26.038  14.415
11145W        W79475  40.458  23.208   2.338
11146W        W79476   1.891  41.443   2.709
11147W        W79477  37.502   0.909  13.446
11148W        W79478  32.102  34.904   2.696
11149W        W79479  40.899  31.610   0.836
11150W        W79480  23.703  10.162  12.395
11151W        W79481  17.628  15.744  13.940
11152W        W79482   1.965  30.967  12.859
11153W        W79483  37.883   7.845   3.702
11154W        W79484  23.081  21.668   1.728
11155W        W79485   0.402  27.620  13.962
11156W        W79486  43.448  23.494   2.380
11157W        W79487   9.715  18.208  12.509
11158W        W79488   2.727  30.536   4.829
11159W        W79489  15.097  35.035   1.358
11160W        W79490  11.711  36.527   0.839
11161W        W79491  26.456  25.085  12.479
11162W        W79492  22.243   3.945  11.085
11163W        W79493  34.066  19.239   1.400
11164W        W79494  32.632   4.863   1.443
11165W        W79495  41.402  26.123   1.264
11166W        W79496   3.898  37.922  14.352
11167W        W79497  37.899   5.216  14.498
11168W        W79498  12.343  40.947  10.979
11169W        W79499  34.071   5.817  11.062
11170W        W79500  17.579  25.531   3.746
11171W        W79501  27.171  32.916  12.374
11172W        W79502  40.832   6.286  10.515
11173W        W79503  32.506  11.311   0.333
11174W        W79504  35.579  25.035   4.208
11175W        W79505  43.339  30.975  12.939
11176W        W79506  28.977  16.756   1.841
11177W        W79507  17.280  31.061   2.851
11178W        W79508  35.476  28.062   2.201
11179W        W79509  25.963  43.311  14.866
11180W        W79510  13.684  24.607   3.321
11181W        W79511   1.811  10.194  11.534
11182W        W79512  42.898   4.317  11.396
11183W        W79513  24.681  15.730  13.035
11184W        W79514   9.806  36.008  10.614
11185W        W79515  33.562  32.565   2.711
11186W        W79516  19.770  35.108  12.002
11187W        W79517  16.173  26.060   2.230
11188W        W79518   5.422  11.840  13.957
11189W        W79519  31.482   1.881  13.934
11190W        W79520  31.043  22.249  13.404
11191W        W79521  33.903  30.165   1.259
11192W        W79522  15.146   3.247   0.376
11193W        W79523  34.999   0.450   3.242
11194W        W79524  31.468  16.657  12.874
11195W        W79525  42.299  23.045   3.200
11196W        W79526   0.318   4.919  13.810
11197W        W79527  25.506  16.196  12.037
11198W        W79528  13.107   4.209   4.620
11199W        W79529  44.873  39.352   4.317
11200W        W79530  16.618  44.792   0.326
11201W        W79531  39.323  33.406   9.962
11202W        W79532  11.813  41.808  11.067
11203W        W79533  31.080  43.988  14.792
11204W        W79534  44.984   1.388   1.854
11205W        W79535  38.455   4.345  11.086
11206W        W79536   7.326   8.697   2.711
11207W        W79537  29.665  44.333   1.726
11208W        W79538  13.319  27.630  12.942
11209W        W79539  20.675  33.586   1.718
11210W        W79540  36.554  20.264   3.290
11211W        W79541   1.934  44.277  11.420
11212W        W79542  23.069  35.442   3.160
11213W        W79543  30.631  34.519  12.461
11214W        W79544  10.683  39.824  11.931
11215W        W79545  11.811  43.487  12.375
11216W        W79546  12.823  31.517  11.515
11217W        W79547  44.355   1.449   1.393
11218W        W79548  20.601   7.380   3.358
11219W        W79549   3.749  44.380   0.906
11220W        W79550  28.522  18.705  14.826
11221W        W79551  12.354  30.917   0.907
11222W        W79552  43.938  26.103  10.943
11223W        W79553  30.606  40.800   3.378
11224W        W79554  29.151  35.932  11.883
11225W        W79555  37.854  34.565   3.832
11226W        W79556  15.780   6.335  14.374
11227W        W79557   9.253   3.856  12.950
11228W        W79558   3.273  25.212   2.892
11229W        W79559  39.969  41.040  11.879
11230W        W79560  31.148  10.152   2.353
11231W        W79561  34.987   0.464   2.686
11232W        W79562   3.882  30.658  14.998
11233W        W79563   7.210  35.109  13.376
11234W        W79564  41.324   2.744  10.969
11235W        W79565  15.716  27.460   4.707
11236W        W79566  21.741  21.258  13.377
11237W        W79567  31.566  35.973   4.144
11238W        W79568  38.456  10.175   9.973
11239W        W79569  20.700   0.770   1.865
11240W        W79570  41.387   3.849  13.848
11241W        W79571  23.112  22.685   3.866
11242W        W79572  34.917   1.397  14.872
11243W        W79573  38.327   4.911  14.331
11244W        W79574  23.685  23.535  14.904
11245W        W79575   9.151  23.181  11.470
11246W        W79576   6.737  43.964   4.802
11247W        W79577  23.171  34.990  13.885
11248W        W79578   1.343   7.211   1.434
11249W        W79579  17.674  31.007   1.799
11250W        W79580  19.186  12.249   2.326
11251W        W79581   9.351  26.691  13.851
11252W        W79582  28.652  22.540   0.410
11253W        W79583  23.639  23.714   2.202
11254W        W79584  24.518   6.803  12.937
11255W        W79585  37.961  22.183   2.730
11256W        W79586  40.472  23.542  12.530
11257W        W79587  42.032  23.572  14.287
11258W        W79588  14.216  41.383   1.926
11259W        W79589  24.076  14.294   5.225
11260W        W79590   2.462  41.427  11.860
11261W        W79591  24.046  14.171  11.379
11262W        W79592   1.433  27.952  12.993
11263W        W79593   4.437  22.049   3.145
11264W        W79594   8.695  42.431  12.019
11265W        W79595  31.051  37.026  13.807
11266W        W79596  27.965   4.704  10.129
11267W        W79597  40.346  43.815  10.408
11268W        W79598   8.163  25.667   0.352
11269W        W79599   1.946  15.289   1.220
11270W        W79600  40.530   0.829   5.119
11271W        W79601  39.033  28.669   2.824
11272W        W79602  22.168  11.724   0.459
11273W        W79603   9.801  15.795  13.851
11274W        W79604  17.243  15.201   1.363
11275W        W79605  40.423   6.420  10.979
11276W        W79606  10.188  40.419   1.697
11277W        W79607   8.677  11.212  13.537
11278W        W79608  43.856  16.202  13.044
11279W        W79609  33.883  30.625  12.848
11280W        W79610  39.453   9.319   3.238
11281W        W79611  19.652  19.247  10.976
11282W        W79612   5.297  16.620   2.182
11283W        W79613  25.012  16.582  14.839
11284W        W79614  10.300  14.211   5.239
11285W        W79615  39.459  10.166  14.445
11286W        W79616  36.848  24.143   4.829
11287W        W79617  18.634  18.701  10.404
11288W        W79618  39.554  43.330   3.682
11289W        W79619   5.693  12.173  12.399
11290W        W79620   6.862  40.410  11.562
11291W        W79621   0.488   4.870  12.867
11292W        W79622  26.526  24.656  10.442
11293W        W79623   9.291  33.590  11.920
11294W        W79624  40.490   8.679  14.298
11295W        W79625  24.125  17.636   2.721
11296W        W79626   8.860   5.283   4.657
11297W        W79627  40.341  34.048   0.314
11298W        W79628  18.585  24.679  14.339
11299W        W79629  14.105  41.832   0.484
11300W        W79630  23.192  24.640  12.063
11301W        W79631  27.112  21.090  13.405
11302W        W79632  11.293  14.668   1.419
11303W        W79633  34.876   4.355  13.871
11304W        W79634   0.788  44.379  11.482
11305W        W79635  43.954   2.344   0.811
11306W        W79636   1.752  42.395   0.444
11307W        W79637  29.020  24.007   0.474
11308W        W79638  37.974  26.088  13.003
11309W        W79639  22.638   3.869   4.165
11310W        W79640  35.079  17.611   2.760
11311W        W79641  14.104   6.681   3.211
11312W        W79642  30.441   4.305   0.338
11313W        W79643  44.817  43.950  13.913
11314W        W79644  18.205  12.842  14.314
11315W        W79645  38.906  24.002   2.814
11316W        W79646   3.876  35.884   3.662
11317W        W79647  10.178  23.682   2.762
11318W        W79648  43.011  40.908  14.013
11319W        W79649  37.844  32.993   3.173
11320W        W79650  31.126  20.611  14.511
11321W        W79651   7.787  29.978  10.937
11322W        W79652  17.684  34.592   4.217
11323W        W79653  14.761   7.397  14.929
11324W        W79654  37.021  15.273   4.687
11325W        W79655  35.949  43.278  13.041
11326W        W79656  38.073  20.592   0.773
11327W        W79657   0.409  13.680   0.736
11328W        W79658  41.014  20.241  10.977
11329W        W79659  12.686   1.453  13.413
11330W        W79660  44.849  30.010  12.939
11331W        W79661   8.395  24.710   0.315
11332W        W79662   3.222   8.215   2.340
11333W        W79663  32.129  11.648   0.331
11334W        W79664  39.875  32.508  12.525
11335W        W79665  42.285  21.602   2.882
11336W        W79666  16.703  31.523   4.228
11337W        W79667   2.832   0.483  12.519
11338W        W79668  26.955  11.221  14.392
11339W        W79669  30.022   0.481  14.952
11340W        W79670   4.739  33.584   4.130
11341W        W79671   5.873   9.886   1.916
11342W        W79672  32.109  21.659   2.412
11343W        W79673   8.813  11.671   3.734
11344W        W79674   8.287  38.043  14.455
11345W        W79675  26.964  21.032  10.470
11346W        W79676  18.187  33.407   4.762
11347W        W79677  38.533  27.446  11.087
11348W        W79678  36.856  30.124   4.769
11349W        W79679  32.066  35.004  12.905
11350W        W79680  24.977  12.710  10.936
11351W        W79681  18.639  29.621  10.641
11352W        W79682   9.321  38.413  13.007
11353W        W79683   8.306  28.605   2.179
11354W        W79684   7.414  20.036  13.359
11355W        W79685  22.020  33.030  14.382
11356W        W79686  22.198   6.820   2.342
11357W        W79687  42.841  38.460   4.598
11358W        W79688  40.960  35.887  12.558
11359W        W79689  21.758  36.546   2.344
11360W        W79690   6.234   0.807  14.393
11361W        W79691  25.028  37.526  11.999
11362W        W79692  17.071  27.473   2.867
11363W        W79693   3.297  23.681   1.912
11364W        W79694   8.359  13.726  11.093
11365W        W79695  34.910  13.130   0.769
11366W        W79696  42.788  15.095  13.477
11367W        W79697   8.682  12.767   1.327
11368W        W79698  12.156   1.417   0.271
11369W        W79699  26.088   1.399   3.810
11370W        W79700  37.837  36.523   2.782
11371W        W79701  17.575   7.696   2.234
11372W        W79702  13.670   7.896   3.680
11373W        W79703  14.145  21.063  14.865
11374W        W79704  20.249  31.028  10.000
11375W        W79705   2.853  24.228  12.418
11376W        W79706  13.203   3.439  13.908
11377W        W79707   4.221  36.969   3.761
11378W        W79708  34.395   0.425  12.074
11379W        W79709  21.735  17.263  12.994
11380W        W79710  41.373  10.225  14.945
11381W        W79711  20.746  30.466  11.445
11382W        W79712  22.570   8.274   1.932
11383W        W79713  24.664  36.936   4.176
11384W        W79714  33.532   8.696  11.903
11385W        W79715  12.740   0.293   3.703
11386W        W79716  34.056  34.603  10.914
11387W        W79717  31.524  20.194  11.444
11388W        W79718  32.023  10.211   4.305
11389W        W79719   0.884  36.841   0.258
11390W        W79720  39.459  29.551   2.873
11391W        W79721  26.137  32.603   4.254
11392W        W79722  39.532  34.492   0.876
11393W        W79723  11.234  12.674  12.855
11394W        W79724   5.316  44.399  10.440
11395W        W79725  40.402  13.800   2.663
11396W        W79726  15.715  34.955  14.927
11397W        W79727   8.746  18.098   4.819
11398W        W79728  11.637  26.630   4.205
11399W        W79729   5.764  35.862   0.348
11400W        W79730  38.481  31.952   1.737
11401W        W79731  39.992  38.004  14.004
11402W        W79732  25.520  12.146   3.840
11403W        W79733  38.974  43.278  13.462
11404W        W79734  24.536   2.257   3.634
11405W        W79735   4.728   4.919  12.903
11406W        W79736  23.599  42.780   3.231
11407W        W79737  44.381   4.774  12.015
11408W        W79738   9.376   1.363   2.206
11409W        W79739  28.447  32.027  12.948
11410W        W79740  29.555   1.911   1.355
11411W        W79741  15.777  44.486   0.943
11412W        W79742  44.990  18.198  11.604
11413W        W79743  25.648  29.928   0.282
11414W        W79744   4.404   9.250  10.457
11415W        W79745   6.314   6.913  11.902
11416W        W79746  40.373   9.808   4.125
11417W        W79747  39.982   0.429   3.330
11418W        W79748  29.624  34.523  13.316
11419W        W79749  21.261   9.762  14.809
11420W        W79750   5.268  41.865   4.762
11421W        W79751  14.765  43.379  12.996
11422W        W79752   2.965  33.118  14.304
11423W        W79753  17.127  15.134   1.917
11424W        W79754  28.467  34.066  12.070
11425W        W79755  37.888   3.259   1.275
11426W        W79756  18.296  35.444  11.441
11427W        W79757  13.639   4.388  10.496
11428W        W79758  14.776  11.156   0.760
11429W        W79759  39.036  27.081  10.529
11430W        W79760  33.625  36.861   3.266
11431W        W79761  34.380  43.293   2.274
11432W        W79762  36.852   1.813   1.395
11433W        W79763  24.109  28.045   4.711
11434W        W79764  38.462   8.857   1.371
11435W        W79765  34.510  40.445  13.314
11436W        W79766   4.272   5.800   2.680
11437W        W79767  42.889  21.635  11.596
11438W        W79768  44.976  31.914   3.310
11439W        W79769  30.962  28.477  13.475
11440W        W79770  41.370  29.632   5.141
11441W        W79771   0.440   1.960   0.351
11442W        W79772  29.010  33.384  10.112
11443W        W79773  23.522   6.899   0.956
11444W        W79774  20.231  21.183  10.566
11445W        W79775  38.396  34.883   3.223
11446W        W79776  37.384  27.190   0.431
11447W        W79777  36.954  16.191  10.571
11448W        W79778  37.502  34.082  14.760
11449W        W79779   3.842  19.630   1.432
11450W        W79780  35.552  37.873   0.827
11451W        W79781  36.864   8.722  13.006
11452W        W79782  20.201   7.780   1.448
11453W        W79783  41.426  10.867  14.411
11454W        W79784  43.869   8.885  11.987
11455W        W79785  30.493  44.455   4.338
11456W        W79786  27.949   5.230   1.323
11457W        W79787  12.264  21.166   1.447
11458W        W79788  34.026  43.785  11.008
11459W        W79789   9.317   6.237   3.150
11460W        W79790  43.807  39.443   2.883
11461W        W79791  10.353  29.541   0.858
11462W        W79792  43.415  36.549  13.492
11463W        W79793  35.902  23.044  11.460
11464W        W79794  28.679  21.585  13.843
11465W        W79795  16.198   3.370  12.446
11466W        W79796   3.878  42.465  11.897
11467W        W79797  34.048   3.371   3.725
11468W        W79798  15.269  42.022   0.271
11469W        W79799  27.008  37.545  13.395
11470W        W79800  32.520  25.121  12.079
11471W        W79801   5.202  38.541  14.421
11472W        W79802   8.675   2.956   0.787
11473W        W79803   7.360  15.121  13.319
11474W        W79804   7.816  34.087   1.274
11475W        W79805  19.148  37.895   3.203
11476W        W79806  41.392   1.879   4.647
11477W        W79807  28.460  42.840  12.411
11478W        W79808  10.825   8.797   5.219
11479W        W79809  11.850  14.639   0.825
11480W        W79810  33.936  33.928   2.769
11481W        W79811  36.955  40.885   3.189
11482W        W79812  37.036  35.385   3.247
11483W        W79813   6.784  24.995  12.438
11484W        W79814   5.302  23.651  11.046
11485W        W79815  13.800  38.491   2.255
11486W        W79816  31.067  11.824  12.843
11487W        W79817  13.750  15.129   2.333
11488W        W79818  40.872  27.565  11.046
11489W        W79819   0.374  34.051   3.338
11490W        W79820  22.218   1.476  14.003
11491W        W79821  23.132  31.075   3.711
11492W        W79822  38.970  37.542   2.816
11493W        W79823  28.086  21.749   0.471
11494W        W79824  19.538  32.594  14.851
11495W        W79825   6.723  13.657   4.745
11496W        W79826  32.391   3.292   3.725
11497W        W79827   5.270  20.164  11.535
11498W        W79828   4.336  21.514  11.456
11499W        W79829  13.658  27.677  14.492
11500W        W79830  18.739  21.699   2.815
11501W        W79831  11.818  38.562   3.259
11502W        W79832  23.588   5.408   0.389
11503W        W79833  25.981  34.374   0.417
11504W        W79834  32.974  33.580  11.451
11505W        W79835  41.870  24.544  13.482
11506W        W79836  19.099  13.263   1.781
11507W        W79837  34.883  29.125   4.210
11508W        W79838   1.976  17.762   3.332
11509W        W79839  10.137  22.043  10.976
11510W        W79840  20.268  19.599   2.662
11511W        W79841  27.454  23.237  14.421
11512W        W79842   3.840  10.363  10.429
11513W        W79843  13.800  11.279  13.919
11514W        W79844  37.441   5.395   2.840
11515W        W79845  23.155  36.895   3.869
11516W        W79846   1.469  28.942  12.504
11517W        W79847  32.066  32.517   3.278
11518W        W79848   4.244  33.434   1.814
11519W        W79849  38.970  33.525   4.682
11520W        W79850  28.043  25.503   1.367
11521W        W79851  42.423  26.195   4.275
11522W        W79852  19.545  25.671   1.706
11523W        W79853   3.332   7.837   5.206
11524W        W79854  39.488  42.885   1.832
11525W        W79855  31.040   6.194   0.759
11526W        W79856   4.330  11.647   4.704
11527W        W79857  33.564   4.253  12.060
11528W        W79858  21.658  33.115   0.374
11529W        W79859  44.923  36.511  12.479
11530W        W79860   0.983  10.714   4.133
11531W        W79861  10.677   2.887   4.312
11532W        W79862  29.963   6.328   3.795
11533W        W79863  20.639  20.707  12.992
11534W        W79864  14.145  23.236  12.067
11535W        W79865  27.111   0.406  12.892
11536W        W79866   9.290  41.321   1.228
11537W        W79867  42.835   1.436   2.777
11538W        W79868  34.585   9.824   4.649
11539W        W79869  31.562  35.586   1.902
11540W        W79870  24.177   2.456  10.524
11541W        W79871   8.669   1.469  14.401
11542W        W79872  42.819  40.330   0.738
11543W        W79873   4.300  28.619  14.761
11544W        W79874   8.796  34.551   1.347
11545W        W79875   3.317  10.309   2.662
11546W        W79876  27.100  43.339   1.397
11547W        W79877  44.963  39.868  11.482
11548W        W79878  18.192  39.485  14.357
11549W        W79879   3.283  32.049  11.454
11550W        W79880  43.857  10.874  11.054
11551W        W79881   0.312  17.164  12.835
11552W        W79882   7.732  41.373   4.174
11553W        W79883  15.182  40.048   1.702
11554W        W79884  29.476  21.664  11.078
11555W        W79885  15.224  41.981   3.285
11556W        W79886  34.544   3.422  13.005
11557W        W79887  44.972  22.570   2.246
11558W        W79888  29.948  23.077  14.912
11559W        W79889  43.927   7.253   4.600
11560W        W79890  37.488  20.228  11.552
11561W        W79891  33.070  20.663  11.987
11562W        W79892  25.073  12.176  10.541
11563W        W79893  44.428  41.361  11.116
11564W        W79894  34.615   4.845  14.465
11565W        W79895  30.617  21.708   2.216
11566W        W79896   4.942  14.272   3.288
11567W        W79897  24.203  17.665  10.916
11568W        W79898  31.930  28.640  13.881
11569W        W79899  27.457  27.611  10.444
11570W        W79900  15.791  30.957  10.622
11571W        W79901  29.559   0.478   3.372
11572W        W79902  41.497  28.495   3.718
11573W        W79903  27.628   7.370   2.727
11574W        W79904  19.671  33.433   3.709
11575W        W79905  21.203   7.395  14.299
11576W        W79906  20.156   7.836   3.827
11577W        W79907   3.368  38.944  13.960
11578W        W79908  26.195  18.284  11.027
11579W        W79909  44.929  12.672   0.328
11580W        W79910  13.313  33.049   2.743
11581W        W79911  30.018  40.910   3.746
11582W        W79912  18.234  15.165   4.675
11583W        W79913  44.362  32.443   4.745
11584W        W79914  42.821  13.668  12.447
11585W        W79915   8.808  32.414   0.738
11586W        W79916  13.247  28.107   4.222
11587W        W79917   9.667  22.610   4.216
11588W        W79918  38.911  40.372   4.746
11589W        W79919  31.598  24.570  11.023
11590W        W79920  29.616  40.340  12.932
11591W        W79921   0.384  19.767   1.832
11592W        W79922   6.818  30.575  10.481
11593W        W79923  34.909  41.526  14.411
11594W        W79924   9.154  13.106  14.436
11595W        W79925  26.148   9.838   1.831
11596W        W79926   0.847   0.957  14.976
11597W        W79927  11.631  11.343   3.752
11598W        W79928  20.647  34.378   1.860
11599W        W79929  12.179   6.717   2.233
11600W        W79930  27.678  11.816  13.541
11601W        W79931  17.742  22.501  14.935
11602W        W79932  36.417   9.171   0.269
11603W        W79933  17.250  34.908  14.352
11604W        W79934  16.659  18.659  14.419
11605W        W79935  42.964  32.935  14.439
11606W        W79936  12.189  13.788  14.877
11607W        W79937   5.871  14.163  11.510
11608W        W79938  38.939  24.192  13.948
11609W        W79939  13.200  30.925   2.863
11610W        W79940  40.458   4.835  12.537
11611W        W79941   7.279  44.965   3.212
11612W        W79942  29.532  29.481   4.205
11613W        W79943  33.893  29.045  13.938
11614W        W79944  28.533  15.718  12.879
11615W        W79945  31.562  39.315  12.375
11616W        W79946  41.951  32.598  13.931
11617W        W79947  19.658  26.632   2.184
11618W        W79948  22.663  40.374   9.983
11619W        W79949   9.707   3.281   3.194
11620W        W79950  27.490  35.940  11.409
11621W        W79951  11.656  12.622   4.274
11622W        W79952   5.225   6.780  14.500
11623W        W79953   2.842  10.190   0.452
11624W        W79954  35.593  15.753  13.519
11625W        W79955  35.104   9.204   2.697
11626W        W79956   8.690  26.521   4.654
11627W        W79957  43.332  36.084   0.418
11628W        W79958  43.298   9.245   4.348
11629W        W79959  10.636  14.785  10.523
11630W        W79960  32.632  42.383   1.257
11631W        W79961  10.721  22.619  12.473
11632W        W79962  30.633  16.251   0.819
11633W        W79963   1.974  43.390   4.332
11634W        W79964  21.729  15.737  10.151
11635W        W79965   0.307  41.972  13.909
11636W        W79966  41.829   1.257   0.923
11637W        W79967  40.962  39.904   1.373
11638W        W79968  35.091  17.117   1.782
11639W        W79969  20.653  41.384  11.018
11640W        W79970  38.010  10.241   0.904
11641W        W79971  40.393  17.158   3.178
11642W        W79972  19.175   1.338  14.924
11643W        W79973  30.934  23.630   0.870
11644W        W79974  25.674  14.264  14.483
11645W        W79975   3.830   6.407   4.738
11646W        W79976  10.143   3.335   2.876
11647W        W79977  34.411   1.948  11.931
11648W        W79978   0.895   0.421  12.473
11649W        W79979  39.872  13.108  11.115
11650W        W79980  37.495  15.666  14.286
11651W        W79981  43.800  43.824  12.997
11652W        W79982  41.465   4.734  13.358
11653W        W79983  17.724  39.455  14.311
11654W        W79984  11.631   0.930  13.403
11655W        W79985  18.574  24.216  10.996
11656W        W79986  32.627  16.153  11.541
11657W        W79987  38.447   0.784  12.363
11658W        W79988   6.741  43.392  12.552
11659W        W79989  23.528   2.254  14.454
11660W        W79990   9.734  17.166   1.389
11661W        W79991  43.435  15.733  13.505
11662W        W79992  28.455  37.455  13.325
11663W        W79993  42.520   0.311  12.986
11664W        W79994   0.895  40.544  13.043
11665W        W79995   7.185  29.048  11.410
11666W        W79996  25.645   6.192  14.851
11667W        W79997  33.612  18.549  11.000
11668W        W79998   5.354  12.766  10.991
11669W        W79999  36.983  39.873   1.274
11670W        W80000  15.659  14.097   2.699
11671W        W80001  30.120  35.964   4.317
11672W        W80002  33.966  36.529  13.003
11673W        W80003  22.585   4.832  14.496
11674W        W80004  33.481  33.972  11.012
11675W        W80005   3.932  35.004  13.451
11676W        W80006  33.564  17.066   1.782
11677W        W80007  18.729  38.959  12.494
11678W        W80008  35.421   9.283  10.481
11679W        W80009  19.635  21.090   1.348
11680W        W80010  30.982   1.940   5.263
11681W        W80011   9.233  36.361   3.174
11682W        W80012  25.200  40.477   0.429
11683W        W80013   5.821   5.326   0.925
11684W        W80014   8.197  36.923  10.888
11685W        W80015  42.319  33.023  13.946
11686W        W80016  43.392  13.113   2.755
11687W        W80017  29.100   6.318  14.511
11688W        W80018  20.599  33.090   4.794
11689W        W80019  23.051  23.548   3.326
11690W        W80020  41.446  20.125   0.862
11691W        W80021  36.885  40.885   0.435
11692W        W80022   7.229  14.128   4.118
11693W        W80023  20.630  21.706   1.800
11694W        W80024  26.544  17.235   4.736
11695W        W80025  40.016  23.151   4.190
11696W        W80026  10.380  32.576  13.937
11697W        W80027  41.919  26.956  14.363
11698W        W80028  15.266  21.029   4.215
11699W        W80029  15.816  39.489  11.856
11700W        W80030   4.825  37.846  14.455
11701W        W80031  39.028   0.381   2.199
11702W        W80032  32.951  34.544   0.265
11703W        W80033   7.849  36.546  13.335
11704W        W80034   0.900  21.752  11.486
11705W        W80035   1.367   5.821  11.429
11706W        W80036  16.252  39.992  10.906
11707W        W80037  18.153  13.691   1.696
11708W        W80038   9.817  14.771  11.045
11709W        W80039  39.052  33.612   0.936
11710W        W80040  12.759  32.435  14.451
11711W        W80041  44.384  27.491   4.826
11712W        W80042  39.980  17.106  14.454
11713W        W80043  32.506   3.724  14.283
11714W        W80044  11.152  29.070  12.080
11715W        W80045  22.156  36.907  13.409
11716W        W80046  14.820   5.403  13.406
11717W        W80047  21.735   4.282  14.771
11718W        W80048  37.086  22.631   3.146
11719W        W80049  22.672  22.166  10.565
11720W        W80050  31.523   1.322   4.126
11721W        W80051  30.490  35.532  12.909
11722W        W80052  16.099  28.440  11.068
11723W        W80053   7.310   6.229  11.946
11724W        W80054   6.317   7.312  14.331
11725W        W80055  23.155  19.535   1.796
11726W        W80056  29.617  20.681   3.242
11727W        W80057  32.618  38.479   0.750
11728W        W80058  38.837   3.424  10.413
11729W        W80059  27.984  28.099   0.784
11730W        W80060  36.095  23.100  14.377
11731W        W80061  28.953  38.044  11.972
11732W        W80062  16.183   1.272   3.332
11733W        W80063   6.807  44.403   4.786
11734W        W80064  41.510   7.205  11.980
11735W        W80065  20.066  15.654  14.290
11736W        W80066   2.369  24.225  14.324
11737W        W80067   4.445  31.510   3.871
11738W        W80068  30.065  26.980  13.437
11739W        W80069  31.566  35.574   0.244
11740W        W80070  43.875  40.336  10.553
11741W        W80071  39.887  37.408  13.376
11742W        W80072   5.825  12.657  14.435
11743W        W80073   4.809   2.735  12.978
11744W        W80074   9.660   4.362   1.864
11745W        W80075  36.575   7.372   3.783
11746W        W80076  16.615  23.562  11.438
11747W        W80077  37.073  18.731  13.518
11748W        W80078  43.807  38.543   0.770
11749W        W80079   3.252   4.407   0.323
11750W        W80080   1.977  26.476   2.756
11751W        W80081  24.207  38.987  11.088
11752W        W80082  33.009  13.723   1.734
11753W        W80083   4.432   9.765  13.452
11754W        W80084   8.299   8.691  11.997
11755W        W80085  23.068  24.010  12.447
11756W        W80086  22.582  37.868  14.349
11757W        W80087  34.454   0.818   4.608
11758W        W80088   7.220   8.722   5.278
11759W        W80089   5.391  12.261   2.896
11760W        W80090  28.999   6.255   4.204
11761W        W80091  33.602  44.763   1.440
11762W        W80092  37.924  43.367  11.964
11763W        W80093  40.841  37.575  10.600
11764W        W80094  44.983  13.266   0.431
11765W        W80095  39.920  44.894  10.975
11766W        W80096  10.194  36.380   4.756
11767W        W80097   1.769   9.385  11.864
11768W        W80098  31.902  13.690  12.528
11769W        W80099  20.073  42.475  14.469
11770W        W80100   3.902   1.868  14.386
11771W        W80101  43.388  37.989  11.569
11772W        W80102  27.968   7.297  11.981
11773W        W80103  34.565  10.710  11.098
11774W        W80104  23.225   3.798  13.315
11775W        W80105   6.218  19.723  13.494
11776W        W80106  24.677  40.436   4.796
11777W        W80107  16.645  26.158   2.869
11778W        W80108  31.056  31.149  10.527
11779W        W80109   0.922  25.509   4.321
11780W        W80110   5.721  32.556   2.670
11781W        W80111  43.773   1.811   3.701
11782W        W80112   3.908  20.028   1.895
11783W        W80113  11.786   7.383   3.187
11784W        W80114  41.500  40.014   1.342
11785W        W80115  30.945  22.664   4.744
11786W        W80116  37.925  36.014   3.333
11787W        W80117  30.512  27.678   0.359
11788W        W80118   5.795   2.437  14.010
11789W        W80119  18.697   5.757  14.938
11790W        W80120  15.641  10.776   4.756
11791W        W80121  37.988  21.254   9.984
11792W        W80122   5.728   6.865   0.453
11793W        W80123  11.295  31.574   4.756
11794W        W80124  25.962  29.972   2.336
11795W        W80125   0.280   9.789  12.477
11796W        W80126  20.224  27.562  13.482
11797W        W80127   6.298   0.744   5.305
11798W        W80128  21.604  44.920   1.360
11799W        W80129  21.149  44.438  14.329
11800W        W80130   9.239  28.632  14.386
11801W        W80131  20.078   4.941  11.977
11802W        W80132  42.527  36.931   4.266
11803W        W80133  38.991  17.634   2.361
11804W        W80134   6.367  15.157  11.121
11805W        W80135  19.144  13.613  13.010
11806W        W80136  41.945  23.128  10.891
11807W        W80137  20.113  23.621   9.436
11808W        W80138  15.726  14.758   0.819
11809W        W80139  29.981  26.511  11.501
11810W        W80140  39.038  27.620  14.405
11811W        W80141   7.898  30.048   1.319
11812W        W80142  21.152   6.713   5.670
11813W        W80143   8.276  11.663   3.320
11814W        W80144   3.459  19.242  13.525
11815W        W80145  37.413  12.362  12.493
11816W        W80146  16.270  16.636   0.281
11817W        W80147  10.152  33.108   1.210
11818W        W80148  13.183  37.983  11.392
11819W        W80149  41.501  29.441   3.760
11820W        W80150  39.009  33.042   2.855
11821W        W80151  17.207  30.574  10.021
11822W        W80152   3.322  27.454   0.956
11823W        W80153  42.368  16.578  12.017
11824W        W80154  13.814  22.738   0.844
11825W        W80155   7.299  20.641   2.272
11826W        W80156  32.477  13.192   0.428
11827W        W80157  10.694   5.348   4.326
11828W        W80158   6.803  38.025  12.876
11829W        W80159  32.416  16.138   1.752
11830W        W80160  21.129  30.425   4.123
11831W        W80161   6.884  44.793   1.382
11832W        W80162  27.488   6.253  12.847
11833W        W80163  12.610  18.577  11.533
11834W        W80164  35.097  41.823  13.951
11835W        W80165  29.662  36.466  13.374
11836W        W80166  29.938  22.530   5.153
11837W        W80167   6.386  29.530  14.816
11838W        W80168  16.290  23.240   1.892
11839W        W80169  37.480  33.922   1.779
11840W        W80170  39.380  27.502   0.937
11841W        W80171  10.314   2.232  12.946
11842W        W80172  26.042  28.157   0.409
11843W        W80173   7.775  33.571   1.415
11844W        W80174  24.990  42.514  14.417
11845W        W80175  10.789   4.926   2.831
11846W        W80176  20.237  39.965  10.589
11847W        W80177  35.954  22.243   4.291
11848W        W80178  19.694  27.973  14.344
11849W        W80179  38.075   0.413  14.393
11850W        W80180  28.034  30.158   0.256
11851W        W80181  36.964  21.194   1.818
11852W        W80182   1.963  33.064  13.960
11853W        W80183  21.085   1.808  12.877
11854W        W80184  28.599  14.752   3.869
11855W        W80185  34.864  29.028   1.212
11856W        W80186  22.132  34.475  13.327
11857W        W80187  14.327   3.277  12.527
11858W        W80188  11.214   3.446  12.339
11859W        W80189  39.369   8.268   2.684
11860W        W80190  10.269  19.282   3.632
11861W        W80191   7.873  14.141   3.209
11862W        W80192  39.315  41.520  13.878
11863W        W80193  40.402  41.370   2.190
11864W        W80194  39.899  12.812  13.819
11865W        W80195  41.310  33.896   2.236
11866W        W80196   3.278  37.875   3.854
11867W        W80197  24.530  34.021   3.248
11868W        W80198  15.150  37.338  13.309
11869W        W80199  25.047   7.709   1.745
11870W        W80200  38.025  41.883   2.818
11871W        W80201  30.634  30.547  13.892
11872W        W80202  11.672  27.139  14.823
11873W        W80203  17.794  14.695  13.937
11874W        W80204  23.151   1.760   2.743
11875W        W80205  24.616  38.472   2.898
11876W        W80206  29.173  34.481   3.727
11877W        W80207  20.568  29.426  12.548
11878W        W80208  30.042  30.596  11.592
11879W        W80209  41.943  25.550   2.699
11880W        W80210  21.075  42.355  10.476
11881W        W80211  18.624  28.123   1.430
11882W        W80212  32.403  35.102   3.312
11883W        W80213  30.488  24.594  13.041
11884W        W80214   6.870  10.860   4.284
11885W        W80215   9.285  24.724  12.578
11886W        W80216   6.400  31.962  11.960
11887W        W80217  16.606  33.964  11.945
11888W        W80218  32.890  12.771   2.878
11889W        W80219  26.128  24.022   3.849
11890W        W80220   0.832  44.307  13.314
11891W        W80221  42.288  31.144  14.794
11892W        W80222   2.341  32.041   2.662
11893W        W80223  36.531  41.384   4.273
11894W        W80224  28.513  16.213   1.437
11895W        W80225  19.771  19.248   9.662
11896W        W80226  30.156  20.184   1.218
11897W        W80227  32.537  28.977  11.987
11898W        W80228   1.447   4.265   3.279
11899W        W80229  38.411   0.314  10.984
11900W        W80230  21.103  39.346  10.493
11901W        W80231  41.029  24.165   2.765
11902W        W80232  12.726  28.954  13.415
11903W        W80233  44.908   4.746  14.429
11904W        W80234  31.469  40.823  14.301
11905W        W80235  38.903   4.269   0.464
11906W        W80236  34.568   9.720   2.778
11907W        W80237   4.388  38.021  14.491
11908W        W80238  24.498  32.051   0.889
11909W        W80239   3.232   2.856  10.432
11910W        W80240  34.474  25.675  13.446
11911W        W80241  29.427  15.607   9.985
11912W        W80242   9.173  43.328  11.993
11913W        W80243   5.330  28.517  13.001
11914W        W80244  20.033  39.543   2.268
11915W        W80245   8.688  35.958   0.471
11916W        W80246  44.847  42.836  12.572
11917W        W80247  34.903   0.947  10.487
11918W        W80248  17.646   2.238  11.093
11919W        W80249  30.139   6.817   2.213
11920W        W80250  16.233  17.175  12.944
11921W        W80251  42.980   2.889   2.804
11922W        W80252  19.577   2.303   5.158
11923W        W80253  17.306  18.703  13.369
11924W        W80254   3.283  14.119   1.362
11925W        W80255  14.615  13.186  11.951
11926W        W80256   6.807  33.006   1.252
11927W        W80257   8.676   7.290  12.047
11928W        W80258  17.692  30.090  14.423
11929W        W80259  19.759  36.538   5.292
11930W        W80260   2.299  33.915   1.813
11931W        W80261   8.835  17.769  11.443
11932W        W80262  24.587  12.653  14.013
11933W        W80263  36.363  10.294  12.907
11934W        W80264  11.308  28.470   1.213
11935W        W80265  34.573   8.747   4.223
11936W        W80266  19.559  31.444  10.568
11937W        W80267  10.842  25.052   5.178
11938W        W80268  10.851  29.499  11.013
11939W        W80269  14.676  22.195  12.085
11940W        W80270   4.804  34.531  11.916
11941W        W80271  41.832  40.334  11.942
11942W        W80272   7.350  16.769   4.624
11943W        W80273  33.474  18.061   2.754
11944W        W80274   2.371  19.091  10.905
11945W        W80275   2.414  28.152  10.497
11946W        W80276   7.367   9.335  11.375
11947W        W80277  40.828  40.359   3.661
11948W        W80278  24.659   5.724  10.628
11949W        W80279   0.884   4.207  14.500
11950W        W80280  10.365  20.194   2.864
11951W        W80281  10.257   7.732   3.759
11952W        W80282  26.562   3.834   3.764
11953W        W80283  35.923   6.752   4.136
11954W        W80284  37.539  36.522  12.972
11955W        W80285  27.033  32.933  11.066
11956W        W80286   6.677  16.303   4.725
11957W        W80287  39.869  28.969  10.983
11958W        W80288  36.358   9.866   2.798
11959W        W80289  13.780  16.264  12.574
11960W        W80290  15.313  35.377  12.043
11961W        W80291   7.906  27.485   1.342
11962W        W80292  29.993  22.566  12.379
11963W        W80293  27.094   5.377   0.785
11964W        W80294   4.710  44.333  11.593
11965W        W80295  24.642  17.231   4.787
11966W        W80296  22.111  19.579  11.380
11967W        W80297   9.654  19.218   3.634
11968W        W80298  31.998  41.482   0.834
11969W        W80299   6.211  44.321   0.479
11970W        W80300  24.202  41.349  13.323
11971W        W80301  37.986  29.134   1.874
11972W        W80302  44.481  16.703  12.968
11973W        W80303  44.939   9.175  12.984
11974W        W80304  31.565  31.520   3.801
11975W        W80305  19.218  41.306   1.798
11976W        W80306  16.599  14.632   2.782
11977W        W80307  40.388  27.130  12.828
11978W        W80308   8.787  37.495  12.998
11979W        W80309  29.954  43.890  11.080
11980W        W80310   7.843  23.072   1.231
11981W        W80311  39.842  27.456   1.438
11982W        W80312  29.519  18.608  13.440
11983W        W80313  12.614  16.805   1.902
11984W        W80314   2.329  34.992   1.359
11985W        W80315   6.353  20.258   4.132
11986W        W80316  21.517   4.256  10.520
11987W        W80317  37.487  15.163   0.299
11988W        W80318   1.902  38.396  12.013
11989W        W80319  44.343  14.138  13.367
11990W        W80320  22.676   8.342  11.377
11991W        W80321  14.793   1.934   4.135
11992W        W80322  28.102  40.379  13.033
11993W        W80323  19.563  11.678   0.862
11994W        W80324  22.079   7.704  14.418
11995W        W80325   0.883  16.147   2.242
11996W        W80326  21.110  21.064   1.280
11997W        W80327  41.470   0.432   3.801
11998W        W80328  43.853  44.501  13.971
11999W        W80329  36.370  22.605   4.179
12000W        W80330  35.976  12.217  10.931
12001W        W80331  13.720  29.649  12.048
12002W        W80332   1.412  35.392   2.782
12003W        W80333  30.944   9.802   1.839
12004W        W80334  26.609  43.792   1.282
12005W        W80335  14.654  42.908   0.821
12006W        W80336  29.984   3.780   1.312
12007W        W80337   4.316  31.102  10.894
12008W        W80338  37.562  44.763   1.883
12009W        W80339   2.788  21.227  14.014
12010W        W80340   8.376  27.978  14.491
12011W        W80341   7.875  36.953  13.503
12012W        W80342   8.895  12.638  11.014
12013W        W80343  11.339  41.378  14.348
12014W        W80344  28.170  12.835   0.465
12015W        W80345  25.965  10.200   3.260
12016W        W80346  44.365  42.948   1.801
12017W        W80347  38.004  44.466   1.286
12018W        W80348  32.413   3.226  14.450
12019W        W80349  13.314   1.407   4.192
12020W        W80350  29.577  12.619   0.957
12021W        W80351  39.030  11.799   4.669
12022W        W80352   8.805  24.483  11.949
12023W        W80353   2.236   2.317  12.096
12024W        W80354  34.506  34.962  10.535
12025W        W80355  41.448  15.185   2.186
12026W        W80356   7.900  42.968   4.637
12027W        W80357  41.801   5.706  14.852
12028W        W80358  43.423  27.594   0.288
12029W        W80359  20.093  35.585  14.468
12030W        W80360  13.698  42.825   4.184
12031W        W80361  14.623  36.886   0.391
12032W        W80362  31.598   6.351   2.844
12033W        W80363  42.026  28.665   3.634
12034W        W80364  16.164  31.012  12.983
12035W        W80365   8.659  18.643  14.981
12036W        W80366   8.186  38.947  10.893
12037W        W80367  23.117  27.456   4.236
12038W        W80368  26.511  40.432   2.687
12039W        W80369   7.735   5.824   2.327
12040W        W80370  30.485  26.484  13.547
12041W        W80371   5.919  37.863  11.530
12042W        W80372   0.962  36.400   4.232
12043W        W80373  40.923  28.675  11.606
12044W        W80374  28.942  11.695   0.434
12045W        W80375  25.085  25.578   3.749
12046W        W80376  25.614   9.749   0.763
12047W        W80377  27.146   5.326  14.511
12048W        W80378  42.000   0.786   3.803
12049W        W80379  12.351  38.570  13.899
12050W        W80380  24.080  43.386   1.807
12051W        W80381  36.987   3.247   3.866
12052W        W80382  10.758  44.299  13.941
12053W        W80383   8.795  35.934  13.378
12054W        W80384  16.113  41.810  14.016
12055W        W80385  32.525  21.606   3.749
12056W        W80386  40.946  22.509  10.460
12057W        W80387  42.410  40.934  14.856
12058W        W80388  28.169  19.104  10.961
12059W        W80389  25.487  29.425  13.943
12060W        W80390  27.081  26.560  11.574
12061W        W80391  41.350  38.858   4.260
12062W        W80392   2.299  30.490   0.936
12063W        W80393  33.450  35.519   1.868
12064W        W80394   1.930  24.614  12.844
12065W        W80395   6.385   6.765  14.430
12066W        W80396  36.353   9.244   2.837
12067W        W80397   4.417  13.253  13.011
12068W        W80398  28.031  14.241   1.274
12069W        W80399  25.967  15.297  10.969
12070W        W80400  15.743  30.652  10.130
12071W        W80401  33.400  26.489   5.101
12072W        W80402  40.920   7.215   5.203
12073W        W80403  42.822  27.611   4.668
12074W        W80404   1.348   4.450  11.957
12075W        W80405  11.228  33.120   1.888
12076W        W80406  39.007   5.417  14.301
12077W        W80407  41.429  11.349   2.668
12078W        W80408   2.342  33.058  11.011
12079W        W80409  19.179  39.953   1.845
12080W        W80410  17.192  19.080  12.368
12081W        W80411   6.813  37.455   1.763
12082W        W80412   9.268   6.396  13.467
12083W        W80413  20.664  18.113  11.877
12084W        W80414  14.739  27.112  12.509
12085W        W80415  38.542  44.436   0.946
12086W        W80416  38.048   1.294  10.625
12087W        W80417  44.472  13.606  14.328
12088W        W80418   4.360   1.881  14.906
12089W        W80419  21.579  36.075  12.053
12090W        W80420  28.510  29.010   1.894
12091W        W80421  23.660  12.676  11.863
12092W        W80422  19.652   7.682   1.868
12093W        W80423  35.493  23.155   0.791
12094W        W80424  31.965  12.188  10.469
12095W        W80425   5.802  21.155  12.488
12096W        W80426  10.685  41.844   1.882
12097W        W80427   0.860  20.203  12.340
12098W        W80428  32.107   0.919   4.280
12099W        W80429  27.086  41.881   1.781
12100W        W80430  23.566  40.927   1.295
12101W        W80431  35.438  14.308   0.862
12102W        W80432  44.438  12.654  14.418
12103W        W80433  42.426   0.876  10.529
12104W        W80434  30.979  19.592  14.325
12105W        W80435  23.003   9.214   9.985
12106W        W80436   0.939  43.438   3.840
12107W        W80437  43.350  11.650   1.374
12108W        W80438  17.222   5.871   2.383
12109W        W80439   2.721  16.653  13.939
12110W        W80440  31.063   3.348   1.924
12111W        W80441  20.227  18.699  14.323
12112W        W80442  14.823  32.441  12.476
12113W        W80443  13.767  44.935  14.444
12114W        W80444  16.309  43.985   2.848
12115W        W80445  20.655  10.827   0.411
12116W        W80446   0.800  44.309   0.266
12117W        W80447  35.073   4.772   1.896
12118W        W80448  20.102   2.843   3.309
12119W        W80449   0.336  44.805  12.992
12120W        W80450   7.250  40.333   0.424
12121W        W80451  21.574  37.001   2.182
12122W        W80452  39.519   2.377  14.302
12123W        W80453   2.407   8.775  11.507
12124W        W80454  16.076  17.617  14.906
12125W        W80455  20.650  30.647   9.534
12126W        W80456  42.906   8.702  10.457
12127W        W80457  19.260  39.822   4.126
12128W        W80458  38.325   3.822   3.835
12129W        W80459  10.172  12.328   1.698
12130W        W80460  44.340  43.501  10.575
12131W        W80461   1.239   2.329   3.742
12132W        W80462  37.506   4.427  11.386
12133W        W80463  13.180   2.790   0.963
12134W        W80464  34.482  11.761  11.408
12135W        W80465  37.380   1.482   1.864
12136W        W80466  33.478  22.625   1.923
12137W        W80467  25.067  24.143   0.730
12138W        W80468  30.603  27.030   3.643
12139W        W80469  42.331   7.192   3.827
12140W        W80470   3.908  26.587  14.799
12141W        W80471  21.076   1.468   2.246
12142W        W80472  27.515   0.839  13.355
12143W        W80473   1.824  14.285   4.730
12144W        W80474  32.555  33.921   3.248
12145W        W80475  35.005  39.516  13.001
12146W        W80476   7.853   0.299  14.829
12147W        W80477  38.877   4.342  10.092
12148W        W80478  42.306  13.320  13.939
12149W        W80479   9.253  37.523   4.743
12150W        W80480  11.626  22.736   4.728
12151W        W80481  11.131  33.121   2.277
12152W        W80482  24.072  11.806  14.485
12153W        W80483  24.633   0.916   0.248
12154W        W80484  24.569   9.293   2.403
12155W        W80485  13.325  40.803   0.296
12156W        W80486  38.415  15.198  11.105
12157W        W80487   7.353  42.003   0.888
12158W        W80488  35.918  16.093  14.314
12159W        W80489   3.810  24.059   4.722
12160W        W80490  15.308  44.903  11.011
12161W        W80491   2.777   6.854  13.846
12162W        W80492   0.358  21.624   0.854
12163W        W80493  25.559  41.292  11.046
12164W        W80494  16.618  33.538  13.938
12165W        W80495  42.921  13.217   5.199
12166W        W80496  18.051   2.436   1.378
12167W        W80497  38.875  30.131  13.038
12168W        W80498  21.531  43.438   4.608
12169W        W80499  12.811   2.349   1.405
12170W        W80500  24.506  36.448  13.001
12171W        W80501  38.496  25.108   4.144
12172W        W80502  24.119   3.804  14.478
12173W        W80503  40.317  15.091  11.415
12174W        W80504   0.770   4.872   4.342
12175W        W80505   4.729  29.494  12.887
12176W        W80506  35.994  12.703  11.000
12177W        W80507  43.892  39.371  14.402
12178W        W80508  39.407   8.661   2.689
12179W        W80509  30.520  27.005   2.719
12180W        W80510  19.584   1.871  13.001
12181W        W80511  31.439   4.424   4.801
12182W        W80512   7.181  32.954   4.805
12183W        W80513  28.438   4.731  11.468
12184W        W80514  12.684  36.080   0.430
12185W        W80515  21.215  37.373  13.825
12186W        W80516  31.119  39.482  13.000
12187W        W80517  43.897  27.087  11.099
12188W        W80518   9.254  41.042   2.736
12189W        W80519  28.567   5.200  11.585
12190W        W80520  13.177   0.967  11.463
12191W        W80521   4.759  12.757  13.538
12192W        W80522  26.029  14.288   2.883
12193W        W80523  16.742  15.322  13.886
12194W        W80524  44.756  13.704  13.795
12195W        W80525  19.730  31.145   2.213
12196W        W80526  14.658  36.432   4.640
12197W        W80527  18.680  44.880  14.816
12198W        W80528  26.023   3.349   3.246
12199W        W80529  38.498   2.286  11.071
12200W        W80530  10.349   2.369  11.516
12201W        W80531  20.051  34.987  11.429
12202W        W80532  29.153   4.433  14.334
12203W        W80533  17.584   0.404  13.472
12204W        W80534  31.091  38.493   0.339
12205W        W80535  19.174  27.688   0.965
12206W        W80536  34.883  23.001  12.917
12207W        W80537  38.378   2.813   2.236
12208W        W80538  15.803  33.948  12.373
12209W        W80539  19.743  28.084  13.353
12210W        W80540  16.137  25.516   4.341
12211W        W80541  16.784  37.917  12.548
12212W        W80542  29.020   3.729   1.437
12213W        W80543  26.566   5.293  13.445
12214W        W80544  32.602  25.992   0.883
12215W        W80545   8.189  34.902  13.000
12216W        W80546  16.109   4.922   2.215
12217W        W80547  38.041  28.150   1.273
12218W        W80548   2.959   0.777  11.484
12219W        W80549   7.708  17.729   2.255
12220W        W80550  17.729  28.174   3.156
12221W        W80551  17.254  17.284  13.791
12222W        W80552  21.088  15.707  12.565
12223W        W80553  36.974  38.485  13.344
12224W        W80554  27.586  31.413  13.974
12225W        W80555  25.656  29.455   3.802
12226W        W80556  18.752   6.380   4.116
12227W        W80557  21.123  31.524   0.904
12228W        W80558   3.869  16.696   4.777
12229W        W80559  37.455   5.252  14.310
12230W        W80560  35.442  25.571   0.760
12231W        W80561  16.754  40.046   2.353
12232W        W80562   7.351   1.428  11.438
12233W        W80563  26.163  44.853  13.936
12234W        W80564   7.731  12.815   4.728
12235W        W80565  17.743  40.545  11.521
12236W        W80566  28.069  38.842   4.736
12237W        W80567   5.284  38.004   3.350
12238W        W80568  22.131   7.326  10.642
12239W        W80569  40.420  18.189   1.898
12240W        W80570   2.370  29.628   0.329
12241W        W80571  26.061  17.167  13.887
12242W        W80572  16.607  20.087   1.928
12243W        W80573  42.477  30.646   4.260
12244W        W80574  25.471  20.132  10.555
12245W        W80575  21.693  41.868   3.372
12246W        W80576  43.785  33.459   4.223
12247W        W80577  16.767  28.069  11.011
12248W        W80578  44.859  17.163  13.819
12249W        W80579   1.331  42.360  13.972
12250W        W80580  14.802  34.982  12.387
12251W        W80581  40.477  14.152  10.547
12252W        W80582  24.004  20.769   3.240
12253W        W80583  16.798  41.518  10.522
12254W        W80584   7.319  38.515  13.388
12255W        W80585  42.025  31.115  14.405
12256W        W80586  13.800  18.210  14.810
12257W        W80587  10.877  25.552  11.941
12258W        W80588  22.746  38.821   2.331
12259W        W80589   1.396  11.799   0.409
12260W        W80590  31.553  11.813   4.304
12261W        W80591  21.734   9.238   5.762
12262W        W80592   5.395  35.576   3.320
12263W        W80593  26.114  34.093   3.708
12264W        W80594  40.487  22.606  11.040
12265W        W80595   4.381   6.782   1.389
12266W        W80596  44.403   8.658   3.761
12267W        W80597  30.044   5.702   4.204
12268W        W80598  24.047  24.044  11.996
12269W        W80599   5.770  17.303   1.428
12270W        W80600  30.989   1.968   2.757
12271W        W80601  20.176   9.823   3.868
12272W        W80602  35.006   7.886   3.365
12273W        W80603  23.669   8.215  12.521
12274W        W80604  23.497  18.553   0.326
12275W        W80605  10.156   2.239  14.308
12276W        W80606  19.042  16.239  11.883
12277W        W80607  32.888  30.501  13.947
12278W        W80608  27.575   9.682  13.002
12279W        W80609  24.181   0.760   1.253
12280W        W80610   8.836  37.023   0.325
12281W        W80611  44.371   1.301  14.830
12282W        W80612  19.118  30.123  12.511
12283W        W80613  17.586   9.747   2.337
12284W        W80614   5.823   4.239   2.345
12285W        W80615  13.129  27.663  12.417
12286W        W80616  38.979  26.674  10.071
12287W        W80617  14.754  25.705  11.432
12288W        W80618  36.962  18.729   2.802
12289W        W80619  24.150  37.918   1.914
12290W        W80620  42.846   7.403   2.407
12291W        W80621   4.742   5.266   4.764
12292W        W80622  25.984  14.198  11.862
12293W        W80623  34.399  39.345   1.391
12294W        W80624   5.276  14.742  11.109
12295W        W80625  16.283  10.143   4.634
12296W        W80626  28.514  27.665  13.373
12297W        W80627  16.211  41.913  12.007
12298W        W80628   0.785  12.218  10.987
12299W        W80629  14.832   4.272   3.732
12300W        W80630  12.774  23.155   1.371
12301W        W80631   6.765  33.572   4.347
12302W        W80632   7.341   6.387   4.720
12303W        W80633  15.684  10.245  12.545
12304W        W80634  38.932  16.095  11.119
12305W        W80635  25.681  39.888   0.750
12306W        W80636   8.239  17.760   3.192
12307W        W80637  13.744  44.896   0.839
12308W        W80638  26.514  38.344  11.549
12309W        W80639  11.266  11.716  11.440
12310W        W80640   7.681   5.908  13.375
12311W        W80641  23.596  32.623  12.846
12312W        W80642  10.161  29.646   3.701
12313W        W80643   1.827  13.787  13.408
12314W        W80644  12.146  18.283   2.341
12315W        W80645  16.568  38.403   4.316
12316W        W80646  18.756   8.362   1.389
12317W        W80647  17.103  40.529  11.612
12318W        W80648   0.756  28.572   1.856
12319W        W80649  14.777  31.589  14.365
12320W        W80650  14.817  34.098   2.232
12321W        W80651  11.149   1.909  14.335
12322W        W80652   2.438   9.245  11.920
12323W        W80653  17.634  22.089  14.984
12324W        W80654  34.520   8.337   3.869
12325W        W80655  15.761  10.229   2.810
12326W        W80656  23.089  26.007   2.828
12327W        W80657  23.522  10.722  11.025
12328W        W80658   7.809  37.874  11.475
12329W        W80659  13.201  13.281  10.914
12330W        W80660   2.359  41.466   0.453
12331W        W80661  28.958  27.448   1.757
12332W        W80662  26.041  15.762  10.454
12333W        W80663  24.053   5.735   2.716
12334W        W80664  21.674  36.522  11.036
12335W        W80665   8.252  11.153   4.662
12336W        W80666  40.923  38.924   2.214
12337W        W80667  13.804   6.400  12.887
12338W        W80668  11.317  39.500   4.664
12339W        W80669  11.804  23.525  11.517
12340W        W80670  36.398   2.243  10.635
12341W        W80671   4.309  11.641   1.279
12342W        W80672  41.425  41.924  12.876
12343W        W80673  20.235   6.902   3.320
12344W        W80674   1.346  33.429   1.793
12345W        W80675  41.474   1.365   0.425
12346W        W80676  32.044  15.218  10.945
12347W        W80677  40.493  42.021   4.270
12348W        W80678  19.146  21.058  10.929
12349W        W80679  35.983   4.885   3.386
12350W        W80680  44.488  32.979  13.406
12351W        W80681  39.056  13.717   3.305
12352W        W80682  39.016  31.539   2.358
12353W        W80683  30.066  18.178   4.213
12354W        W80684  37.849  18.241   5.162
12355W        W80685  42.380  29.461   1.434
12356W        W80686  21.174  10.814   2.752
12357W        W80687  39.973   1.911   1.875
12358W        W80688  22.544   0.845   0.396
12359W        W80689  11.819  38.549   1.447
12360W        W80690  11.132  15.801  13.412
12361W        W80691   3.336  42.439   4.778
12362W        W80692   4.344   0.255  13.958
12363W        W80693  44.294   4.218   1.320
12364W        W80694  30.437  11.802   1.698
12365W        W80695  20.715  28.026  12.081
12366W        W80696  14.117  30.911  14.020
12367W        W80697   8.863  21.157  14.339
12368W        W80698  38.031  26.566   2.301
12369W        W80699  41.349  36.892   3.763
12370W        W80700  26.587  39.314  11.570
12371W        W80701  22.644   5.323  11.887
12372W        W80702   8.888  29.997   1.256
12373W        W80703  26.641  15.230   4.642
12374W        W80704  18.595  41.862  12.921
12375W        W80705   7.277   5.739   3.785
12376W        W80706  41.421  39.446  11.953
12377W        W80707  35.108  32.071   0.758
12378W        W80708   5.927  36.386   3.339
12379W        W80709  27.467  41.939   0.920
12380W        W80710  42.989  23.641  14.976
12381W        W80711  25.558  41.437   0.242
12382W        W80712  36.583  24.510  12.902
12383W        W80713   4.243  30.498   3.689
12384W        W80714  39.506   3.289  12.089
12385W        W80715  26.988  40.042  13.378
12386W        W80716  24.150   3.306   9.993
12387W        W80717  24.662  40.316   3.853
12388W        W80718   4.279  29.170   1.228
12389W        W80719  28.478  33.611  11.981
12390W        W80720  24.014  13.332  12.533
12391W        W80721   6.677  35.061  11.083
12392W        W80722   1.297  20.182   4.772
12393W        W80723  25.987   2.227   3.236
12394W        W80724   1.329  32.490  14.949
12395W        W80725  43.306  39.814   2.841
12396W        W80726   1.750  25.033   1.215
12397W        W80727   9.307  18.759  14.400
12398W        W80728  41.332  21.691  10.449
12399W        W80729   5.264  38.505   3.319
12400W        W80730  35.549   9.728   4.662
12401W        W80731  23.602   5.411   4.291
12402W        W80732   7.711  39.527   0.339
12403W        W80733  21.093  24.142  11.401
12404W        W80734  31.418  28.630   3.190
12405W        W80735  34.395  15.259  10.645
12406W        W80736  18.764  21.171   2.335
12407W        W80737  29.608  39.832   1.932
12408W        W80738  36.008   4.858  12.958
12409W        W80739  10.653  11.663   1.237
12410W        W80740  32.402   1.905   0.768
12411W        W80741   7.668  39.559   2.782
12412W        W80742  14.318  29.036   4.771
12413W        W80743  38.361  28.005  12.000
12414W        W80744  28.974   7.844   0.270
12415W        W80745  41.519  41.795   2.231
12416W        W80746  36.988  11.635  14.488
12417W        W80747   6.285  39.996  11.034
12418W        W80748  42.894  23.722  11.611
12419W        W80749  35.397  12.844   3.318
12420W        W80750  21.564  10.803   4.640
12421W        W80751  40.525  15.758   4.616
12422W        W80752   9.331  16.604   3.790
12423W        W80753   2.301   2.464   4.350
12424W        W80754  26.146  32.496   3.215
12425W        W80755   6.844  25.705   4.799
12426W        W80756   4.401  20.032   2.312
12427W        W80757   8.290   2.909   0.776
12428W        W80758  33.896  43.828   4.742
12429W        W80759  39.003  40.348  10.562
12430W        W80760   9.199  29.113  11.554
12431W        W80761  43.386  17.737  12.893
12432W        W80762  26.499  36.510  13.515
12433W        W80763   5.323  35.105   2.869
12434W        W80764  42.377  24.081   3.234
12435W        W80765  10.360  31.996   4.211
12436W        W80766  27.137  27.051   0.264
12437W        W80767  21.682  20.252  11.007
12438W        W80768  38.928   0.811  12.477
12439W        W80769  21.565  14.751   0.946
12440W        W80770   5.340  11.307   4.800
12441W        W80771  42.901  38.042   0.477
12442W        W80772  40.346  13.794   2.315
12443W        W80773  18.292   1.349   2.673
12444W        W80774  41.977  31.587   3.707
12445W        W80775   6.354  23.171  11.090
12446W        W80776   2.944  11.193  10.575
12447W        W80777  35.580  20.191   3.829
12448W        W80778  13.236  44.343  12.853
12449W        W80779  32.620  42.484  11.438
12450W        W80780  44.903  38.567  12.570
12451W        W80781  41.930  39.045  12.963
12452W        W80782  38.328   3.234  11.974
12453W        W80783  40.890  15.612   0.347
12454W        W80784  10.781  32.489  10.539
12455W        W80785  34.962  33.436  14.429
12456W        W80786  18.617  41.523   4.644
12457W        W80787  41.417  35.053   0.464
12458W        W80788  18.755  41.033   0.812
12459W        W80789  18.251  10.349   0.465
12460W        W80790  36.017   9.645   2.250
12461W        W80791  39.444  19.589   1.916
12462W        W80792  19.562  23.570  13.028
12463W        W80793  14.824  40.311   4.708
12464W        W80794  36.848  34.890   3.152
12465W        W80795  41.384  35.859  12.396
12466W        W80796  31.626  44.274  11.557
12467W        W80797  40.920  30.525   0.243
12468W        W80798   4.727  41.330  12.066
12469W        W80799  19.204  32.997   0.862
12470W        W80800  34.587  13.206   2.770
12471W        W80801  31.956  19.081   1.279
12472W        W80802   1.942  22.595   4.804
12473W        W80803  20.578  36.488   3.311
12474W        W80804  11.799  27.523   1.694
12475W        W80805  26.587  26.600  14.503
12476W        W80806   9.394  35.015  14.806
12477W        W80807  23.230  36.441   2.402
12478W        W80808  11.865  40.407   0.449
12479W        W80809   8.695  31.589   0.260
12480W        W80810  18.112  33.067  13.000
12481W        W80811  32.968  23.178   4.312
12482W        W80812  28.662  11.794   1.722
12483W        W80813   7.230  36.026   1.923
12484W        W80814  14.772  12.192   3.629
12485W        W80815  28.473   9.880   2.210
12486W        W80816  19.239  35.917  13.348
12487W        W80817  36.374   7.878   0.848
12488W        W80818  41.017  13.747   3.214
12489W        W80819  41.920  26.961   0.290
12490W        W80820  24.071  34.446  12.036
12491W        W80821  30.649  41.019  12.362
12492W        W80822  42.485  27.057   1.246
12493W        W80823  35.944  11.755  12.934
12494W        W80824  36.985  31.069  10.546
12495W        W80825  23.677  21.625   2.316
12496W        W80826  25.216  32.550  10.616
12497W        W80827  35.034  11.787  11.381
12498W        W80828  28.572  14.831   0.458
12499W        W80829  31.017  14.312  11.419
12500W        W80830  10.313  34.118  12.028
12501W        W80831   6.317   5.825  11.949
12502W        W80832  33.972  13.292  10.636
12503W        W80833   3.916   7.874  13.429
12504W        W80834   5.352  10.781   0.291
12505W        W80835  25.132   7.203   4.256
12506W        W80836   0.890   4.313  13.813
12507W        W80837  43.010  32.525  14.452
12508W        W80838  12.745   5.731  14.490
12509W        W80839  38.953  18.767   3.213
12510W        W80840  29.567  41.373  10.099
12511W        W80841  41.479  44.505  10.552
12512W        W80842  37.855  22.113  10.631
12513W        W80843  24.158  23.031   0.283
12514W        W80844  21.630  34.390  12.365
12515W        W80845  11.233   0.338   1.330
12516W        W80846  29.487  20.732   1.349
12517W        W80847   1.366   8.388  10.513
12518W        W80848   9.315  19.084   2.226
12519W        W80849   5.697  26.552  13.459
12520W        W80850  39.954  36.522  14.391
12521W        W80851  15.271  35.586  14.014
12522W        W80852   9.744   1.788  14.360
12523W        W80853   8.827  24.725   2.197
12524W        W80854   1.749  21.711   3.307
12525W        W80855  41.932  43.823  10.547
12526W        W80856  39.017  40.046  12.072
12527W        W80857  39.999   4.408  11.873
12528W        W80858  41.402  10.717  10.460
12529W        W80859   0.801   1.434   4.602
12530W        W80860  14.802  36.004  10.508
12531W        W80861  29.057  35.467  12.962
12532W        W80862  38.430   5.263   2.665
12533W        W80863  28.039  41.971   5.220
12534W        W80864   2.456  21.538  12.858
12535W        W80865  38.866  16.160   1.369
12536W        W80866  20.765  11.346  10.523
12537W        W80867  23.027   9.829  14.792
12538W        W80868  13.281  29.520   4.287
12539W        W80869  20.044  20.530  13.796
12540W        W80870  37.942  33.499   3.368
12541W        W80871  13.189   8.283  10.570
12542W        W80872   1.298  18.743  11.901
12543W        W80873  18.211   8.232  14.479
12544W        W80874  42.898  10.841   0.434
12545W        W80875  36.965  44.958  14.993
12546W        W80876  35.369  11.684  11.400
12547W        W80877  35.483  28.132  11.124
12548W        W80878  39.467  30.617  11.479
12549W        W80879   4.287  26.601   1.753
12550W        W80880  30.914  42.314   4.744
12551W        W80881   0.369  39.014   4.260
12552W        W80882  42.444  15.749   3.270
12553W        W80883   3.723  41.511   2.698
12554W        W80884  32.410  23.219   4.763
12555W        W80885   9.307  18.156   3.241
12556W        W80886  38.935  30.117   4.212
12557W        W80887  14.215  40.521  14.761
12558W        W80888  15.661  28.515   2.246
12559W        W80889  40.849  23.186   2.242
12560W        W80890  38.362  33.611  13.309
12561W        W80891  13.669  19.610  13.533
12562W        W80892  32.438   0.924   1.768
12563W        W80893  25.701  35.925  13.505
12564W        W80894  20.535   5.309  14.985
12565W        W80895   3.315  19.099   0.330
12566W        W80896   5.840  25.096  13.438
12567W        W80897  15.699  40.965   2.376
12568W        W80898  16.778   2.757  10.987
12569W        W80899  22.060  12.294  12.401
12570W        W80900   0.339  43.376   2.389
12571W        W80901   4.404  14.644  14.781
12572W        W80902  14.726  40.023   0.799
12573W        W80903   1.320  42.033   3.745
12574W        W80904  16.696  23.076  13.029
12575W        W80905  34.054  40.975   1.843
12576W        W80906  31.503  30.994  11.412
12577W        W80907  14.592  35.057  13.916
12578W        W80908  39.957   1.883  14.793
12579W        W80909  36.387   1.920   4.336
12580W        W80910  37.969  11.798  13.338
12581W        W80911  21.625  11.157  12.083
12582W        W80912  35.016  25.153   3.822
12583W        W80913   4.252  44.317   1.813
12584W        W80914  28.989  43.282  13.841
12585W        W80915  13.663  43.438   2.240
12586W        W80916  17.136  25.673   1.382
12587W        W80917  36.574  37.852   0.882
12588W        W80918  30.968   6.912  10.627
12589W        W80919   5.399   0.822   4.696
12590W        W80920  12.203  34.440  10.949
12591W        W80921   4.788  40.396   3.731
12592W        W80922   0.970  17.588  12.900
12593W        W80923  15.085  37.380   2.797
12594W        W80924  34.376  13.610   2.370
12595W        W80925  11.681  11.218  11.566
12596W        W80926  21.174  11.672  12.531
12597W        W80927  28.098   8.345  12.857
12598W        W80928  12.341  22.718   3.242
12599W        W80929  10.845   7.893   0.270
12600W        W80930  22.137  38.328  10.907
12601W        W80931  10.682  44.785  12.363
12602W        W80932  27.665  12.177   2.306
12603W        W80933  25.197  14.821   1.816
12604W        W80934  36.975   0.855  12.064
12605W        W80935  30.445  26.154  13.395
12606W        W80936  29.088   2.302  11.007
12607W        W80937   2.411  14.299   5.184
12608W        W80938  37.496  25.990  12.401
12609W        W80939   7.698  25.126  12.912
12610W        W80940  36.415   6.297  12.505
12611W        W80941  10.155  42.881   4.191
12612W        W80942   2.816  24.143  11.917
12613W        W80943  31.437  15.297   2.181
12614W        W80944  40.464  33.989  13.817
12615W        W80945  35.973   6.875  14.805
12616W        W80946  16.652  37.892  12.840
12617W        W80947   3.867  25.149  14.335
12618W        W80948  40.051  21.692   4.679
12619W        W80949  35.363  40.423   0.308
12620W        W80950   5.422   0.493  13.374
12621W        W80951  28.674  31.027   1.378
12622W        W80952  24.096  26.161  13.021
12623W        W80953   4.787  40.475   0.897
12624W        W80954  26.690   6.733   2.178
12625W        W80955  18.646  14.811   0.922
12626W        W80956  30.500   1.260  11.929
12627W        W80957  12.153   7.755   1.695
12628W        W80958  20.083   2.856  13.040
12629W        W80959  34.580  37.487   3.201
12630W        W80960  38.886   2.364   0.302
12631W        W80961  35.557  44.303  11.521
12632W        W80962  39.463  16.242   2.850
12633W        W80963  17.624  38.902  10.405
12634W        W80964  42.848  19.039  13.858
12635W        W80965  24.704  23.158  11.569
12636W        W80966  31.086  18.196  11.516
12637W        W80967   1.903  28.072  14.864
12638W        W80968  38.498  29.451  13.336
12639W        W80969  10.708  38.035  12.897
12640W        W80970  21.626  16.708  11.877
12641W        W80971   0.830   3.733  13.900
12642W        W80972  10.854   9.247  14.929
12643W        W80973   4.719  17.693   2.281
12644W        W80974  11.866  28.103   9.923
12645W        W80975  35.519  12.118   3.730
12646W        W80976  39.409  27.595   2.842
12647W        W80977  30.470  21.602  12.549
12648W        W80978  24.520   2.374   1.450
12649W        W80979  18.076  24.210   2.366
12650W        W80980  35.042  33.494   5.090
12651W        W80981   7.401  30.551   2.758
12652W        W80982  38.950  43.908   1.779
12653W        W80983  40.400  16.593   0.768
12654W        W80984  38.514  24.694  14.423
12655W        W80985  25.596   3.370  13.321
12656W        W80986  17.652  41.958  11.022
12657W        W80987   1.769  12.673  11.504
12658W        W80988  20.667  39.388   2.745
12659W        W80989  17.576  15.809   1.929
12660W        W80990   2.404  22.132  12.047
12661W        W80991  33.575   4.885   1.908
12662W        W80992  10.274  24.539  13.977
12663W        W80993   0.318   7.233  10.410
12664W        W80994  28.438  15.655   3.822
12665W        W80995  15.301   5.742   3.243
12666W        W80996  21.697  40.970  11.010
12667W        W80997   7.816  22.012   4.218
12668W        W80998  20.062  43.910   4.264
12669W        W80999  25.655  25.603  10.904
12670W        W81000   6.915   5.385  13.900
12671W        W81001  38.467  27.969   3.837
12672W        W81002  29.073   9.190  13.991
12673W        W81003  29.466  34.008   4.773
12674W        W81004  24.601  40.450  14.009
12675W        W81005   5.915   7.857  10.943
12676W        W81006  17.680  25.524   1.277
12677W        W81007  41.301   4.276  11.939
12678W        W81008  10.317  22.148   2.372
12679W        W81009  39.550  40.947  13.347
12680W        W81010  27.487  32.117   1.857
12681W        W81011  29.506  22.034   0.960
12682W        W81012  17.724   4.708  12.011
12683W        W81013  22.540  16.726   1.746
12684W        W81014  20.625   8.851  11.455
12685W        W81015  31.466  25.115   4.721
12686W        W81016  35.079  30.582   2.668
12687W        W81017  32.097  26.960   3.352
12688W        W81018  12.778  17.102   1.324
12689W        W81019  17.770  22.505  11.561
12690W        W81020   5.741  11.652  14.813
12691W        W81021  23.655  14.189   4.731
12692W        W81022  17.134  26.657   0.326
12693W        W81023  11.175   3.336   1.257
12694W        W81024  13.190  37.529  14.934
12695W        W81025   7.874   2.450  11.011
12696W        W81026  28.092  38.971  13.330
12697W        W81027  23.198  25.972  10.518
12698W        W81028   2.861   2.255  12.443
12699W        W81029  33.423   1.912   1.836
12700W        W81030  14.134  14.825  10.991
12701W        W81031  44.942  33.489  14.462
12702W        W81032  21.554   9.878  14.478
12703W        W81033  12.212  23.093   4.724
12704W        W81034  33.940  17.726  13.988
12705W        W81035  36.045  35.064  11.087
12706W        W81036   3.826  42.332  12.843
12707W        W81037  38.014   4.929  13.914
12708W        W81038  15.665  27.119   2.364
12709W        W81039   5.875  33.077   1.226
12710W        W81040  28.102  33.489   4.282
12711W        W81041  37.339   9.198  11.064
12712W        W81042  11.821  13.719   3.315
12713W        W81043  40.906  29.053   3.285
12714W        W81044  32.114  25.471  13.877
12715W        W81045  13.258  32.981  14.890
12716W        W81046  21.619  41.452  11.987
12717W        W81047  42.003  29.473   3.786
12718W        W81048   8.384  30.979  14.799
12719W        W81049  32.925  10.878  10.456
12720W        W81050   5.897  36.577   4.211
12721W        W81051  36.950  27.691   3.806
12722W        W81052  29.975   7.305   4.783
12723W        W81053  31.452   8.369   4.630
12724W        W81054  39.847  26.036   3.871
12725W        W81055  14.602  20.054  12.570
12726W        W81056  41.861   9.821  13.988
12727W        W81057   3.737  43.899   1.897
12728W        W81058  10.845  23.638   3.736
12729W        W81059  12.685  15.768  12.377
12730W        W81060  24.137  20.629  11.574
12731W        W81061   6.816  29.496   1.879
12732W        W81062  44.400   0.263  11.977
12733W        W81063   9.826   5.729  12.521
12734W        W81064  32.029  22.571   0.882
12735W        W81065   4.734  23.135  13.396
12736W        W81066  44.965  39.525   0.779
12737W        W81067   4.287  13.749  14.924
12738W        W81068  14.801  16.568   2.238
12739W        W81069  32.533  22.653   3.810
12740W        W81070  14.221  32.954  14.415
12741W        W81071  14.104  13.309  11.080
12742W        W81072  28.550  43.968  11.610
12743W        W81073  31.059  32.399   1.722
12744W        W81074  13.150  11.664   4.242
12745W        W81075  15.156   8.796  13.433
12746W        W81076  23.605  38.511  13.807
12747W        W81077   8.294  15.755  13.311
12748W        W81078  14.338  18.687  12.891
12749W        W81079  34.094  43.939  10.410
12750W        W81080  23.631  42.866  12.392
12751W        W81081  11.678  23.525   0.396
12752W        W81082  12.719  37.466   0.755
12753W        W81083  38.472  31.508   3.763
12754W        W81084  42.820  31.022  13.047
12755W        W81085   8.821  36.872  10.439
12756W        W81086  27.060   5.275   0.440
12757W        W81087  36.377  41.846   4.182
12758W        W81088  15.101  38.048  10.893
12759W        W81089  21.713  42.374   3.776
12760W        W81090   1.803  12.786   1.815
12761W        W81091  42.788  35.094   4.182
12762W        W81092   1.887  14.748  13.813
12763W        W81093  41.017  17.646  12.971
12764W        W81094  19.100  34.107  12.963
12765W        W81095  16.091  32.632  14.827
12766W        W81096  17.071  17.649   4.172
12767W        W81097  36.542  27.631   1.323
12768W        W81098   2.925  11.828  12.518
12769W        W81099  30.925  28.652  10.546
12770W        W81100  22.717  38.390  12.568
12771W        W81101  40.877  33.452  10.468
12772W        W81102  42.395   8.844   3.273
12773W        W81103  42.871  26.606  13.800
12774W        W81104  36.434  37.457   1.775
12775W        W81105  37.518  39.348   0.910
12776W        W81106   4.763   6.797   0.928
12777W        W81107   8.759  43.796  10.926
12778W        W81108  40.990  14.147   2.768
12779W        W81109  30.139   5.344  10.600
12780W        W81110  17.075  41.507   1.349
12781W        W81111  37.952  11.155   3.224
12782W        W81112  31.931  11.311  14.000
12783W        W81113  11.262  27.179   3.831
12784W        W81114  31.420  44.440  10.942
12785W        W81115  33.110  23.191   1.929
12786W        W81116  25.966  27.520   0.821
12787W        W81117   7.262   2.267  14.949
12788W        W81118  29.453  20.101   5.186
12789W        W81119  13.186  32.629  11.961
12790W        W81120   1.312  44.409  11.083
12791W        W81121  24.102   4.312   2.393
12792W        W81122  29.114  12.287   2.266
12793W        W81123  26.951  18.612   0.286
12794W        W81124  34.078  44.500   2.415
12795W        W81125  26.185  24.660   2.805
12796W        W81126  12.755  34.004  11.571
12797W        W81127  16.244  26.159  11.511
12798W        W81128  38.518  32.600  11.973
12799W        W81129  35.012  14.590  10.979
12800W        W81130  27.024  35.854  10.932
12801W        W81131  38.878  24.515   3.203
12802W        W81132  13.844  12.331  10.986
12803W        W81133  41.329  14.627   3.198
12804W        W81134  19.115  18.620   1.435
12805W        W81135  21.568  10.820   2.735
12806W        W81136  27.958  25.082   0.343
12807W        W81137   3.430  23.545  12.422
12808W        W81138  20.543  35.380  13.909
12809W        W81139  10.319  12.661  13.424
12810W        W81140  10.161  42.026   3.658
12811W        W81141  27.990   0.475  14.386
12812W        W81142  38.043   8.745  12.431
12813W        W81143  43.010  22.243  12.452
12814W        W81144  16.229  44.966   3.684
12815W        W81145   5.395  40.940   1.323
12816W        W81146  18.133  17.663  13.982
12817W        W81147  31.906  13.186   1.876
12818W        W81148   0.904   6.762   2.391
12819W        W81149  13.270  26.954  11.509
12820W        W81150   7.732  40.453  11.092
12821W        W81151  34.086  13.152  13.314
12822W        W81152   0.336   5.323   4.603
12823W        W81153   7.851  25.712   3.345
12824W        W81154  34.919  10.361   5.252
12825W        W81155  25.107  20.524   0.806
12826W        W81156  31.450  43.964  13.796
12827W        W81157  24.133  35.461  12.404
12828W        W81158   1.256   5.212  13.415
12829W        W81159  16.117  41.329   1.745
12830W        W81160   2.881  23.220  12.407
12831W        W81161  14.308  21.749  13.426
12832W        W81162  27.510   3.798   3.788
12833W        W81163  25.589  33.903   3.343
12834W        W81164   2.901  40.846  14.859
12835W        W81165  38.437  14.324   2.335
12836W        W81166  18.550  37.041  10.996
12837W        W81167  37.431  10.692   4.154
12838W        W81168  44.913   8.797   0.305
12839W        W81169   2.757  35.063   1.935
12840W        W81170  17.221  35.091   3.722
12841W        W81171  39.837  18.596  11.038
12842W        W81172  35.536  39.970  13.389
12843W        W81173  39.952   3.342   0.388
12844W        W81174  12.138  10.744   2.891
12845W        W81175  28.634   5.270   4.719
12846W        W81176   3.456   7.218  13.909
12847W        W81177  10.226  35.537   4.669
12848W        W81178  34.426  14.821   3.249
12849W        W81179  17.770   7.289  13.518
12850W        W81180  43.400  16.800   3.822
12851W        W81181  27.968  35.011  13.464
12852W        W81182  25.160  23.543   2.737
12853W        W81183  23.567   7.672  12.872
12854W        W81184   2.859  22.180  13.987
12855W        W81185  29.653  41.024   2.395
12856W        W81186  27.052  12.343  11.407
12857W        W81187  44.831  18.075  12.578
12858W        W81188   4.889  22.165   4.678
12859W        W81189  38.994  37.371  11.911
12860W        W81190  25.635   7.237   5.233
12861W        W81191  15.733  34.913  14.394
12862W        W81192  28.482   9.335   3.221
12863W        W81193  43.375   6.874   4.800
12864W        W81194  44.290  17.769  13.970
12865W        W81195   9.869   9.714  14.930
12866W        W81196  36.067  25.659  14.920
12867W        W81197   7.838   9.253   3.630
12868W        W81198  41.042  44.373   1.357
12869W        W81199   6.896  24.509   2.827
12870W        W81200   4.873   3.451   1.740
12871W        W81201  34.547  31.520   4.204
12872W        W81202   9.250  37.520   3.169
12873W        W81203  29.154  31.107  13.510
12874W        W81204  24.515  25.705   0.377
12875W        W81205  23.036  24.637  14.419
12876W        W81206  37.020   6.688  10.460
12877W        W81207  31.118   5.832   4.768
12878W        W81208  22.579   0.262   1.399
12879W        W81209  24.483  34.546  10.541
12880W        W81210  34.949  24.076  13.982
12881W        W81211  41.944  21.726   1.299
12882W        W81212  24.600   5.332  10.911
12883W        W81213  27.982  13.703   1.233
12884W        W81214  37.344  10.708   1.357
12885W        W81215  26.605  25.109  12.944
12886W        W81216  42.778   7.257  10.891
12887W        W81217  12.772   5.695  13.358
12888W        W81218   2.438  42.510   1.328
12889W        W81219   3.948   9.395  13.010
12890W        W81220   1.962  36.063  14.817
12891W        W81221  44.404  31.022   4.768
12892W        W81222  22.149   8.319   0.447
12893W        W81223  41.863  11.342  12.531
12894W        W81224  26.646  20.733  14.350
12895W        W81225  44.485  11.753   3.642
12896W        W81226  14.117  14.286  11.057
12897W        W81227  32.486  28.141  12.445
12898W        W81228  22.701   2.309   4.728
12899W        W81229  25.492  11.228   1.915
12900W        W81230  21.587   0.322  12.387
12901W        W81231  13.311  43.312   4.642
12902W        W81232  21.239  39.994  13.392
12903W        W81233  20.152  16.792  14.948
12904W        W81234  43.852  33.570   9.942
12905W        W81235  39.062  15.815   1.236
12906W        W81236  15.591  37.519   1.290
12907W        W81237  19.225  11.317  12.403
12908W        W81238  33.447  11.153  13.311
12909W        W81239   3.274   6.401  14.449
12910W        W81240  31.026  15.313   4.300
12911W        W81241  31.436  25.985  10.544
12912W        W81242  24.613  35.979   3.746
12913W        W81243  30.554  38.553   2.815
12914W        W81244  27.067  32.118   0.928
12915W        W81245   4.774   8.703  10.638
12916W        W81246  17.671  38.536   2.177
12917W        W81247  25.486  34.413   3.190
12918W        W81248  31.447  25.962   3.289
12919W        W81249  17.632   1.288  13.429
12920W        W81250  31.619   9.387   3.233
12921W        W81251   0.425  42.834   3.288
12922W        W81252  28.476  40.313   1.848
12923W        W81253  20.713  32.413   1.309
12924W        W81254  29.451  27.013  13.995
12925W        W81255   6.680  41.838  14.413
12926W        W81256  34.932  40.315  10.091
12927W        W81257  29.938  15.095   1.821
12928W        W81258  22.725  40.513  12.943
12929W        W81259   8.194  35.391   2.798
12930W        W81260  38.950   9.714   4.348
12931W        W81261  16.724   1.883   4.598
12932W        W81262  34.107  42.290   3.867
12933W        W81263  42.500  12.297   0.267
12934W        W81264   6.683   5.850  11.946
12935W        W81265  27.023  17.762  12.416
12936W        W81266  14.675   7.358  11.114
12937W        W81267  36.497   3.865   4.325
12938W        W81268  30.622  15.091   4.176
12939W        W81269  27.041   0.900   0.451
12940W        W81270  44.983   4.446   4.311
12941W        W81271  26.669  23.025   0.727
12942W        W81272  35.980  44.422  12.930
12943W        W81273  27.962  26.606   2.210
12944W        W81274   9.322  24.205  14.477
12945W        W81275  38.029  31.646   4.222
12946W        W81276  11.772  42.797  14.937
12947W        W81277  10.815  35.471  13.446
12948W        W81278  21.604  44.399  11.041
12949W        W81279  11.209  32.627   2.253
12950W        W81280  44.846   0.930  11.488
12951W        W81281  17.780   3.245  14.805
12952W        W81282   0.979  24.625  13.944
12953W        W81283  24.015  41.927   3.768
12954W        W81284   4.726  28.567   4.660
12955W        W81285   2.408  11.308   0.261
12956W        W81286  43.498  11.154   0.968
12957W        W81287  40.987  12.150   2.731
12958W        W81288  23.622  34.521   0.811
12959W        W81289  34.576  10.340   0.373
12960W        W81290  21.147  13.270   0.403
12961W        W81291  27.672   3.268   3.363
12962W        W81292  12.710   4.719  10.560
12963W        W81293  40.429  44.822   4.823
12964W        W81294   8.225  11.344   4.249
12965W        W81295  13.674  25.149   4.742
12966W        W81296  28.565  16.590  12.417
12967W        W81297  11.820  40.052   0.939
12968W        W81298  39.920  18.154  12.063
12969W        W81299  34.604  10.668   0.866
12970W        W81300  20.581  40.846   4.604
12971W        W81301  17.216  21.662  11.554
12972W        W81302  25.983  33.590   0.906
12973W        W81303  11.329  13.348   3.322
12974W        W81304  38.472  24.678   3.775
12975W        W81305  14.329   0.930   1.833
12976W        W81306   4.908  18.671  12.042
12977W        W81307   6.399  23.722  12.393
12978W        W81308   4.387  25.041   1.896
12979W        W81309  16.254  25.102  14.299
12980W        W81310  23.507   6.806   0.288
12981W        W81311  14.176  23.501   1.826
12982W        W81312  27.063  12.224  12.000
12983W        W81313  24.115  39.820   1.327
12984W        W81314  21.602   9.195   9.975
12985W        W81315  29.110  20.072  10.955
12986W        W81316  17.183  42.020  14.419
12987W        W81317   4.424  32.979  12.926
12988W        W81318  32.571  40.976  12.442
12989W        W81319  32.448   1.357   0.916
12990W        W81320  37.889  29.428  11.046
12991W        W81321  44.363   0.349  14.471
12992W        W81322  33.940  34.993  11.077
12993W        W81323  43.435  30.549   3.270
12994W        W81324  25.480  44.913   3.694
12995W        W81325   7.416  10.651   4.144
12996W        W81326  30.982  11.173  12.559
12997W        W81327  39.332  20.086   1.274
12998W        W81328  43.835  18.697  14.428
12999W        W81329   2.822  10.287  10.524
13000W        W81330  26.573   0.425   0.950
13001W        W81331   9.160  13.831  11.863
13002W        W81332   1.740  10.673   3.680
13003W        W81333  25.690  24.010  11.479
13004W        W81334  24.615  10.730   9.659
13005W        W81335  10.192  15.646  10.030
13006W        W81336  13.783  19.714   1.775
13007W        W81337   5.395  17.555   1.818
13008W        W81338  40.980   0.834  10.428
13009W        W81339  19.662  36.473  11.112
13010W        W81340   2.242  22.186  10.450
13011W        W81341  42.522   0.305   0.951
13012W        W81342  25.045  23.703   1.761
13013W        W81343  26.491  41.344  10.097
13014W        W81344  41.451  27.658  11.986
13015W        W81345   7.270   1.242   0.267
13016W        W81346  25.679   2.837  14.303
13017W        W81347  40.359  41.313   4.717
13018W        W81348  33.410  28.975   1.925
13019W        W81349  19.740  42.886   1.780
13020W        W81350   9.837   2.391  13.438
13021W        W81351  12.303   6.221  13.491
13022W        W81352   4.432  13.757  12.004
13023W        W81353   4.218   1.909  12.443
13024W        W81354  37.964   8.240  12.923
13025W        W81355  31.467  35.382  12.871
13026W        W81356  37.482  16.652  13.422
13027W        W81357  17.186  28.010  11.475
13028W        W81358  19.708   0.898  12.947
13029W        W81359  19.166  38.528   3.162
13030W        W81360   9.373  20.157   3.788
13031W        W81361   1.969  44.897   0.444
13032W        W81362  23.118   3.733  14.516
13033W        W81363   9.161  21.204  14.847
13034W        W81364  26.477  38.034  13.371
13035W        W81365   8.279  42.968   2.243
13036W        W81366  28.454   5.926   4.197
13037W        W81367  33.484  17.174   3.813
13038W        W81368   2.735  35.567  10.438
13039W        W81369  35.901  25.069  12.867
13040W        W81370  38.886   8.303  10.970
13041W        W81371   7.270   9.694  12.891
13042W        W81372   1.475  40.336  14.826
13043W        W81373   2.323  25.117  14.936
13044W        W81374  43.418  39.458  11.864
13045W        W81375  40.021  31.909  12.340
13046W        W81376  22.709  24.709   2.809
13047W        W81377  13.818  15.128   3.227
13048W        W81378  38.452  16.315   2.273
13049W        W81379  21.625  22.513  12.504
13050W        W81380  25.034  37.452  13.843
13051W        W81381  25.619  25.214  11.411
13052W        W81382   4.268   9.183  11.070
13053W        W81383  34.101  39.839   2.361
13054W        W81384  44.458  15.678   2.360
13055W        W81385  15.647  20.762   4.199
13056W        W81386   2.924   7.789   3.185
13057W        W81387  39.943  18.292  12.869
13058W        W81388  40.816  23.505  12.463
13059W        W81389   4.837  13.797   2.288
13060W        W81390  25.602   7.678  12.852
13061W        W81391  30.939   6.806   2.280
13062W        W81392  14.619  17.109   3.766
13063W        W81393  28.132  33.503  14.504
13064W        W81394  19.683   4.220  10.644
13065W        W81395  23.168  20.201  14.801
13066W        W81396  31.612  39.335  14.408
13067W        W81397  32.557  42.993   2.771
13068W        W81398  13.738  35.929   4.650
13069W        W81399   4.718  43.509  12.368
13070W        W81400  30.612  16.316   2.782
13071W        W81401   3.365  41.039   3.689
13072W        W81402  42.888  36.920   4.119
13073W        W81403  25.017  35.926   4.727
13074W        W81404  10.639  22.201   4.283
13075W        W81405  43.499  20.636  10.896
13076W        W81406   3.433  17.173  13.491
13077W        W81407  31.014  10.662   0.402
13078W        W81408  33.015   8.287   3.865
13079W        W81409  38.378  18.195  11.401
13080W        W81410   8.236  14.638   0.769
13081W        W81411   6.719  20.739  12.418
13082W        W81412  35.420   1.301  14.480
13083W        W81413  14.617  15.712  11.013
13084W        W81414  40.907  39.995  14.008
13085W        W81415  37.900  39.860  14.369
13086W        W81416  21.127  43.331   1.210
13087W        W81417   6.250  39.354  11.992
13088W        W81418  28.675  44.816  13.027
13089W        W81419  15.767  40.409  11.580
13090W        W81420  40.535   1.432  11.463
13091W        W81421   5.832  38.941  11.955
13092W        W81422  27.161  26.080  14.456
13093W        W81423  26.081  31.096  12.869
13094W        W81424  27.188   3.310   3.224
13095W        W81425  29.032  23.240  14.773
13096W        W81426  15.787  13.285   4.320
13097W        W81427  19.097  42.779  12.870
13098W        W81428  11.255   8.269  13.314
13099W        W81429   4.779  16.655   4.331
13100W        W81430  43.292  13.116  14.410
13101W        W81431  21.718  27.647   3.176
13102W        W81432  44.376  30.551  10.049
13103W        W81433  32.613  44.315  12.500
13104W        W81434  38.993   8.799   2.799
13105W        W81435   9.804  12.622  10.456
13106W        W81436  27.103  43.278  14.477
13107W        W81437  16.753  31.610   2.247
13108W        W81438  36.873  17.110   1.267
13109W        W81439  12.163   3.258   4.599
13110W        W81440   1.259  25.709   3.327
13111W        W81441  17.564  21.739   1.774
13112W        W81442  12.217  44.978   2.226
13113W        W81443  13.802  23.704   0.325
13114W        W81444  22.250  20.566   1.856
13115W        W81445  10.309   1.433  11.603
13116W        W81446  30.415  41.001  10.623
13117W        W81447  20.570  22.180   3.185
13118W        W81448  10.216   9.278  13.010
13119W        W81449  20.161  16.253  10.626
13120W        W81450  34.381  36.982   0.821
13121W        W81451  25.175   4.444  12.433
13122W        W81452  35.519  39.410   2.693
13123W        W81453   2.377   0.313  14.834
13124W        W81454  39.484  31.493  14.999
13125W        W81455  44.937  14.111   2.408
13126W        W81456  26.170  23.080   1.435
13127W        W81457  24.105  26.076   2.709
13128W        W81458  25.063  27.016   0.862
13129W        W81459  36.905   7.790  11.115
13130W        W81460  10.756  19.142  13.900
13131W        W81461  33.944  14.661   0.921
13132W        W81462  11.313  38.516   2.727
13133W        W81463  42.014  38.908  13.844
13134W        W81464  22.721  20.613   1.852
13135W        W81465   0.292  38.877   4.788
13136W        W81466  21.614   4.437   0.887
13137W        W81467   4.427  22.708  13.883
13138W        W81468  19.199  25.097   5.612
13139W        W81469   2.318  31.626  12.086
13140W        W81470   6.379   7.722   0.779
13141W        W81471  29.626   1.343   1.797
13142W        W81472  20.565  27.674   3.229
13143W        W81473   7.379  26.678  14.502
13144W        W81474   6.768  37.079  11.533
13145W        W81475   3.766  19.278  11.976
13146W        W81476  33.938   8.336  12.873
13147W        W81477  28.064   5.914  11.098
13148W        W81478  24.578   7.207  11.480
13149W        W81479  37.861   5.871   2.769
13150W        W81480  18.272  23.669   9.940
13151W        W81481  14.183  30.538   1.708
13152W        W81482  39.989  21.019   4.298
13153W        W81483  10.314   7.398  11.990
13154W        W81484  10.252  25.613  12.024
13155W        W81485  19.269  44.445  13.997
13156W        W81486   3.404   4.255  10.910
13157W        W81487  44.778  28.576   1.233
13158W        W81488  30.571  31.475  10.480
13159W        W81489   5.295  17.158   3.373
13160W        W81490   9.291  24.574  11.500
13161W        W81491  20.566   1.309   3.169
13162W        W81492  38.026  15.813   2.857
13163W        W81493  36.044  26.163   4.768
13164W        W81494  19.636  32.129  11.420
13165W        W81495  43.933  11.164   3.759
13166W        W81496  43.822  20.526  11.093
13167W        W81497  24.653  42.912   3.765
13168W        W81498  32.634  10.772   3.215
13169W        W81499  36.537  25.589  12.967
13170W        W81500  24.051  18.275  14.403
13171W        W81501  28.959  13.148  13.424
13172W        W81502   6.339  34.047   3.712
13173W        W81503   2.466  15.300   1.322
13174W        W81504  38.442  13.105   2.860
13175W        W81505  30.588  34.498  11.897
13176W        W81506  12.215  31.034   2.810
13177W        W81507  22.607   4.937  12.514
13178W        W81508  26.198  27.137  14.975
13179W        W81509  40.459  36.520  13.347
13180W        W81510  36.530  25.057   0.443
13181W        W81511  19.053  43.863   4.835
13182W        W81512  26.491  20.051   4.606
13183W        W81513  25.683  40.846  12.021
13184W        W81514   5.428   6.347   2.734
13185W        W81515  41.989  22.191  14.906
13186W        W81516  36.996   4.415  13.480
13187W        W81517  18.132   9.364  10.959
13188W        W81518   1.297  10.377  10.420
13189W        W81519  21.715  11.844   2.804
13190W        W81520  20.746  41.343  14.881
13191W        W81521   9.345  36.443  11.952
13192W        W81522  14.137  19.660   0.738
13193W        W81523  29.452  44.419  14.320
13194W        W81524  32.991   1.953  12.392
13195W        W81525   3.425   9.669  12.017
13196W        W81526   4.815  14.633  12.440
13197W        W81527  12.670   3.387   3.759
13198W        W81528  40.381  12.190   0.353
13199W        W81529  33.940  40.939   3.276
13200W        W81530  31.411  38.448   2.324
13201W        W81531  23.231  13.696   3.277
13202W        W81532  18.170   3.440  12.962
13203W        W81533  15.267  43.406   4.669
13204W        W81534  10.820  11.751   4.210
13205W        W81535  11.842   9.254   2.675
13206W        W81536  37.950  20.146   4.237
13207W        W81537   0.781  13.136  14.942
13208W        W81538   8.298  28.504   4.725
13209W        W81539   4.751   0.398   4.656
13210W        W81540  24.578  17.802   2.265
13211W        W81541  31.530  42.845   0.373
13212W        W81542   2.301   5.350  10.474
13213W        W81543  21.697  42.970  11.514
13214W        W81544  31.412   6.921  12.916
13215W        W81545   8.697  21.717   4.190
13216W        W81546  34.941  15.632   4.633
13217W        W81547  34.905  29.471  10.630
13218W        W81548  13.307  17.096  11.984
13219W        W81549  32.506   8.758   4.248
13220W        W81550  22.564  10.207   2.224
13221W        W81551  36.349  33.954  10.567
13222W        W81552  34.558   1.839  11.119
13223W        W81553  10.298  23.084  12.486
13224W        W81554  37.577  36.450  12.493
13225W        W81555  33.457  18.638   4.612
13226W        W81556  44.392  34.536  11.444
13227W        W81557   8.381  12.126   0.924
13228W        W81558   3.781  34.611   2.393
13229W        W81559  29.109  16.094  14.413
13230W        W81560   7.796  38.555  11.112
13231W        W81561  10.353  33.876   0.816
13232W        W81562  35.368  36.388   2.889
13233W        W81563  39.920  41.453   3.218
13234W        W81564  36.989  33.472  14.975
13235W        W81565   2.940   4.208   2.879
13236W        W81566  17.638  42.880   2.759
13237W        W81567  27.138  32.566   5.115
13238W        W81568   5.341   5.202   0.890
13239W        W81569   6.332  10.254  13.431
13240W        W81570  34.445  24.219  12.435
13241W        W81571   3.717  36.466   5.111
13242W        W81572  41.883  22.129  14.005
13243W        W81573   5.893  35.070   4.311
13244W        W81574  31.014   1.450  13.366
13245W        W81575  42.308  11.349  14.413
13246W        W81576  20.107   1.902   3.802
13247W        W81577  10.325  20.672  13.535
13248W        W81578  35.923  33.923  14.328
13249W        W81579  41.798   9.158  10.931
13250W        W81580   3.947  32.099  12.062
13251W        W81581  30.536  16.572   2.383
13252W        W81582  39.895  32.431  13.495
13253W        W81583  20.188  18.774  11.479
13254W        W81584  42.899  14.169   3.266
13255W        W81585   0.433  35.591   4.350
13256W        W81586  22.679   1.976  14.363
13257W        W81587  34.996   1.847   2.330
13258W        W81588  30.495  37.408   0.325
13259W        W81589   6.398  21.214  14.513
13260W        W81590  10.848  19.611  11.536
13261W        W81591   4.881  39.480   1.701
13262W        W81592  28.117   3.415   4.626
13263W        W81593  29.097  35.428  11.455
13264W        W81594  39.970  31.462   4.207
13265W        W81595  17.646  31.027  10.427
13266W        W81596  10.635  25.541  11.604
13267W        W81597  15.317  38.535  14.923
13268W        W81598  35.375   4.711   3.831
13269W        W81599  15.586  23.544   1.267
13270W        W81600   0.974  40.490   1.290
13271W        W81601  29.656  10.233   2.842
13272W        W81602  40.419  29.144  10.985
13273W        W81603  24.605  30.029   4.174
13274W        W81604  34.102   0.869  14.795
13275W        W81605   9.227  26.028  11.516
13276W        W81606  27.535  24.642   3.732
13277W        W81607  41.882  21.707   2.683
13278W        W81608  17.245  36.047   4.788
13279W        W81609  29.439  18.590   3.302
13280W        W81610   3.253  22.656  11.083
13281W        W81611  38.903  39.945   3.222
13282W        W81612  15.740  39.486  12.364
13283W        W81613   5.258  26.499   4.750
13284W        W81614  29.489  32.074   1.250
13285W        W81615  33.087   4.926  13.512
13286W        W81616  16.768  27.658   2.803
13287W        W81617  31.471  23.026  10.442
13288W        W81618  11.849  28.139   3.367
13289W        W81619  35.382  42.024   4.123
13290W        W81620  41.380  25.170  14.809
13291W        W81621   7.705  39.058  11.030
13292W        W81622   6.256   6.818   0.335
13293W        W81623  28.562  42.004  14.463
13294W        W81624   2.776  30.993  10.645
13295W        W81625  23.684  10.177  14.510
13296W        W81626  30.991  24.126   2.396
13297W        W81627  42.920  22.512  10.950
13298W        W81628   6.738  41.455  12.444
13299W        W81629  30.646   6.208   2.758
13300W        W81630  17.732   8.301  11.528
13301W        W81631  26.668  12.203  14.483
13302W        W81632  32.979   1.908   1.867
13303W        W81633  12.696  22.054  12.996
13304W        W81634  12.782   0.965   3.861
13305W        W81635  24.569  26.562  10.435
13306W        W81636  19.541  22.131   3.171
13307W        W81637   5.219  25.013  13.429
13308W        W81638  25.646  38.432  10.630
13309W        W81639  28.054  36.973   0.455
13310W        W81640  12.362   3.340   4.320
13311W        W81641  17.742  19.713   3.298
13312W        W81642  15.216  43.001  14.817
13313W        W81643  19.193  11.232   1.762
13314W        W81644  26.690  13.249  11.423
13315W        W81645  34.612  44.858  13.375
13316W        W81646   4.827  11.669   5.189
13317W        W81647  26.654  28.487   2.901
13318W        W81648  24.001  44.404   0.417
13319W        W81649   8.378  18.584  14.494
13320W        W81650   6.274  37.881   2.732
13321W        W81651  24.222  19.720  13.453
13322W        W81652  14.702  16.270   0.289
13323W        W81653  38.001  26.663  13.836
13324W        W81654  32.406  16.682  11.916
13325W        W81655   4.280  32.010  10.998
13326W        W81656   7.819   0.757  12.942
13327W        W81657  14.274   0.340  11.121
13328W        W81658  30.453  19.280  11.046
13329W        W81659  15.320   3.368   3.158
13330W        W81660  20.553  12.357   3.681
13331W        W81661  25.989  18.757  13.992
13332W        W81662  44.879  19.712  11.860
13333W        W81663  20.636  18.742   2.186
13334W        W81664  10.245  34.995   3.232
13335W        W81665  43.878   5.728  13.504
13336W        W81666  43.309  43.502  13.353
13337W        W81667  32.941   9.756   4.218
13338W        W81668  19.077  16.205   4.764
13339W        W81669  10.175  23.595  10.580
13340W        W81670  23.640  27.670   4.641
13341W        W81671  27.605  44.298  13.925
13342W        W81672   2.294  34.469   1.304
13343W        W81673  26.485   4.247   3.199
13344W        W81674  36.844  28.184  12.083
13345W        W81675   7.838  14.146  10.500
13346W        W81676  27.559  38.481  14.334
13347W        W81677   0.398  31.572   3.320
13348W        W81678  33.876  23.000   1.814
13349W        W81679   0.485   4.213  12.389
13350W        W81680  29.624   8.330  12.516
13351W        W81681  20.526  12.745   3.764
13352W        W81682  24.016  18.173   1.925
13353W        W81683  37.076  31.979  14.950
13354W        W81684   5.860  30.641   2.190
13355W        W81685  33.939  32.483  14.319
13356W        W81686   2.799   1.913   1.855
13357W        W81687  17.300  33.570   2.221
13358W        W81688  11.760  24.593   3.369
13359W        W81689  15.616  19.708   1.310
13360W        W81690  10.863  13.824   0.897
13361W        W81691   8.213   6.817  14.275
13362W        W81692   3.717  26.155   2.235
13363W        W81693  19.653   5.268  14.973
13364W        W81694  40.977  32.915   2.830
13365W        W81695  19.669  24.052   1.907
13366W        W81696  25.540  18.755  10.984
13367W        W81697  23.532   9.287  11.570
13368W        W81698  35.077  28.523  12.953
13369W        W81699  37.346   9.389   3.702
13370W        W81700   7.762  27.685  11.385
13371W        W81701  28.973  29.568  10.914
13372W        W81702   1.889   0.833  11.045
13373W        W81703  10.324  38.442  10.128
13374W        W81704  24.581  15.287  13.830
13375W        W81705  23.723  42.296  14.437
13376W        W81706   8.342   2.366  14.494
13377W        W81707  12.269  41.363   2.195
13378W        W81708   0.835  43.855  14.325
13379W        W81709  23.201  14.829   4.183
13380W        W81710   9.875  30.104  11.876
13381W        W81711   8.301  21.549  13.873
13382W        W81712  17.302  17.788   3.782
13383W        W81713  22.650  22.232  13.967
13384W        W81714  27.590  31.954   0.415
13385W        W81715  35.934  17.595  12.982
13386W        W81716   5.729   3.321   4.672
13387W        W81717  23.034   5.743  11.128
13388W        W81718  18.081  28.586   1.827
13389W        W81719  31.595  30.954   2.826
13390W        W81720   3.225   9.394   3.679
13391W        W81721   2.725  19.152  12.042
13392W        W81722  28.444  38.341  13.816
13393W        W81723  37.998  24.579   0.924
13394W        W81724  11.208  25.205  11.416
13395W        W81725  36.954   0.259  10.934
13396W        W81726   7.364  41.291   4.758
13397W        W81727  32.061  37.542   3.305
13398W        W81728  33.979  11.792   1.444
13399W        W81729  23.094  34.971  14.419
13400W        W81730  17.083  29.067   4.331
13401W        W81731  18.105  37.468  13.498
13402W        W81732  16.122   4.933   2.774
13403W        W81733  18.286   1.344  10.498
13404W        W81734  26.614  19.570   4.162
13405W        W81735  36.917  19.618  13.362
13406W        W81736   9.760  31.121  13.000
13407W        W81737   5.747  17.555  13.520
13408W        W81738  38.014  42.843   2.787
13409W        W81739   8.400  12.726  13.416
13410W        W81740  26.620  44.455   0.413
13411W        W81741   7.338  29.973  12.374
13412W        W81742  30.957  15.708   0.433
13413W        W81743  14.267  37.395   3.302
13414W        W81744  34.897  33.445   0.280
13415W        W81745  31.902  29.037   0.947
13416W        W81746  38.563   2.857   0.845
13417W        W81747   5.244  18.230  12.997
13418W        W81748   5.211  26.690   4.150
13419W        W81749  24.580   4.234  14.024
13420W        W81750   6.877  19.041   1.922
13421W        W81751  32.548   8.850   0.368
13422W        W81752  38.951  36.431  10.419
13423W        W81753  35.442  17.633  11.524
13424W        W81754  14.204  13.655  10.619
13425W        W81755  22.044  27.570  11.498
13426W        W81756  44.286   7.268   3.847
13427W        W81757  27.584   0.433  11.082
13428W        W81758   0.294  24.104  11.914
13429W        W81759  38.364   3.944  12.510
13430W        W81760   5.736   3.227  12.046
13431W        W81761  26.561  13.150   0.264
13432W        W81762  18.791  22.575  12.352
13433W        W81763  27.185  17.630  14.875
13434W        W81764   8.301  12.219   3.812
13435W        W81765  26.658   7.735  12.085
13436W        W81766  28.017  26.460  10.503
13437W        W81767  41.367  41.823   0.785
13438W        W81768  25.517  22.159   3.679
13439W        W81769  31.548  30.626  14.886
13440W        W81770  35.968  19.638  14.930
13441W        W81771  42.442  37.518   3.672
13442W        W81772  29.966  24.516  13.337
13443W        W81773  23.497   0.810  11.574
13444W        W81774  34.118  14.306  13.043
13445W        W81775  30.416  29.448  10.527
13446W        W81776  29.480  16.768  14.773
13447W        W81777  43.339   1.381  14.327
13448W        W81778   2.334   5.197  11.917
13449W        W81779  13.743  32.407   1.718
13450W        W81780  12.852  41.475   3.302
13451W        W81781  18.589   8.715  14.350
13452W        W81782  38.919  27.461  11.984
13453W        W81783   7.701  33.917   0.863
13454W        W81784   9.328  27.589  14.318
13455W        W81785   4.873  23.595   2.370
13456W        W81786  27.960  17.624  11.987
13457W        W81787  43.322   2.757  12.872
13458W        W81788  26.081  36.359   4.833
13459W        W81789  19.176  25.127  11.086
13460W        W81790  23.985  17.750  10.494
13461W        W81791   9.176  36.011   3.796
13462W        W81792  14.745  25.197   2.299
13463W        W81793  24.687  21.020  13.511
13464W        W81794  18.054  15.787   3.303
13465W        W81795  39.387  40.022  12.913
13466W        W81796  10.648  18.118  10.527
13467W        W81797   1.843  32.416   4.185
13468W        W81798  15.266  24.708   4.265
13469W        W81799  35.455   9.741  11.950
13470W        W81800  38.400  29.505  11.422
13471W        W81801  33.036  14.661   1.231
13472W        W81802   3.758  41.428  12.435
13473W        W81803  22.012  27.951   0.257
13474W        W81804  35.559  30.075   1.438
13475W        W81805  34.900  23.537  10.052
13476W        W81806   3.892  43.402   2.243
13477W        W81807  29.010  15.745   1.895
13478W        W81808  19.776  11.740  14.301
13479W        W81809  35.488  11.804   1.425
13480W        W81810  26.144  18.279   4.240
13481W        W81811  17.626   4.320  14.993
13482W        W81812  23.993  12.362  14.345
13483W        W81813  17.160  18.221   1.852
13484W        W81814  43.931  23.722  10.891
13485W        W81815  37.424  19.720  14.843
13486W        W81816  32.081  30.061   2.792
13487W        W81817  24.168  39.330   3.725
13488W        W81818  32.554  30.134   4.736
13489W        W81819  37.912  16.603   1.812
13490W        W81820  25.037   6.417   5.233
13491W        W81821  33.405  11.774  14.842
13492W        W81822  12.187  35.076   0.305
13493W        W81823  18.615  33.521  10.467
13494W        W81824  37.049  19.677   4.776
13495W        W81825  25.474  21.134   4.333
13496W        W81826  38.864   9.340   2.867
13497W        W81827  33.411  16.291  10.537
13498W        W81828  40.541  26.524   2.260
13499W        W81829  12.742   7.215  14.919
13500W        W81830  26.614  27.663   3.359
13501W        W81831  40.340   1.865  14.952
13502W        W81832  15.788   4.216   4.167
13503W        W81833  19.097  28.995   1.355
13504W        W81834  20.729  26.583   2.255
13505W        W81835  43.336  12.355  12.429
13506W        W81836  14.260  18.057   1.229
13507W        W81837  20.659  23.607  12.523
13508W        W81838   9.828   7.357  14.890
13509W        W81839  34.087  19.629   1.911
13510W        W81840  37.367   1.970  14.423
13511W        W81841   7.813  25.674   2.692
13512W        W81842  18.680  28.598  12.340
13513W        W81843  26.536  26.538   4.122
13514W        W81844  21.213   2.782  10.559
13515W        W81845  42.776  42.527  11.607
13516W        W81846  37.955  37.883   3.772
13517W        W81847  43.304  26.517   1.384
13518W        W81848  30.490  36.364  10.946
13519W        W81849  22.099  24.126  10.982
13520W        W81850   3.343   8.160   0.786
13521W        W81851  20.549  43.953  13.957
13522W        W81852  21.118  40.402  11.955
13523W        W81853   0.865  37.461   3.686
13524W        W81854  37.387  43.298  13.387
13525W        W81855  44.298  43.801  10.951
13526W        W81856   8.304   4.341   1.746
13527W        W81857  24.035  34.463   0.333
13528W        W81858   6.923  20.535   4.168
13529W        W81859   6.730  11.303   2.368
13530W        W81860  41.496   0.402  11.515
13531W        W81861   6.203  32.018  12.973
13532W        W81862  21.050  34.880   1.899
13533W        W81863  40.942   6.868  14.471
13534W        W81864  37.902  37.913   4.658
13535W        W81865  32.427  11.282  13.331
13536W        W81866  44.952  43.368  11.022
13537W        W81867  14.207  33.448  14.784
13538W        W81868  31.581  21.115  10.523
13539W        W81869   8.341  24.710   0.913
13540W        W81870  41.452  23.155  11.122
13541W        W81871   5.384  20.097  13.824
13542W        W81872  29.561  16.207   0.757
13543W        W81873  11.631   7.359  13.812
13544W        W81874  33.883   3.419  12.454
13545W        W81875  25.196  36.920   2.230
13546W        W81876  25.029  10.177  12.982
13547W        W81877  27.151  31.599  13.931
13548W        W81878  14.695  10.660  14.350
13549W        W81879  40.391   0.431   3.234
13550W        W81880  16.255  39.025   3.744
13551W        W81881  25.673  38.422   2.202
13552W        W81882  24.084  41.040   3.762
13553W        W81883   0.915  24.567  14.814
13554W        W81884  23.995  17.697   1.329
13555W        W81885   3.806  43.819   3.749
13556W        W81886  17.291  16.793   0.353
13557W        W81887  12.334  12.727  13.031
13558W        W81888  30.136  26.576   4.795
13559W        W81889  39.978  43.896  10.462
13560W        W81890   4.444   6.819   1.799
13561W        W81891  36.477  41.351  13.387
13562W        W81892  17.142  18.217  12.548
13563W        W81893  41.940  42.281  12.543
13564W        W81894   2.380  36.977  13.816
13565W        W81895  21.645  39.338  13.380
13566W        W81896  21.212  38.543   2.700
13567W        W81897   7.213   4.929   4.113
13568W        W81898  15.212  14.261  13.478
13569W        W81899  21.710   5.428   3.792
13570W        W81900  44.278  22.079  12.415
13571W        W81901  40.305  41.810   1.408
13572W        W81902  31.439  30.477  10.587
13573W        W81903  17.151  21.250  10.502
13574W        W81904  15.116  41.535   2.900
13575W        W81905  18.637  20.581  11.070
13576W        W81906   8.388  41.443  10.562
13577W        W81907  15.721  40.019  13.828
13578W        W81908  32.579  38.849   3.372
13579W        W81909  28.099  23.151  14.918
13580W        W81910   8.758  34.920   3.814
13581W        W81911  42.007  44.875  14.418
13582W        W81912  33.529  30.533  12.534
13583W        W81913  43.280  42.446  10.536
13584W        W81914  30.657  17.254   1.300
13585W        W81915  19.126  24.003   0.960
13586W        W81916   2.456  27.148   0.754
13587W        W81917  18.584   7.291  14.815
13588W        W81918  42.423   5.259  11.604
13589W        W81919   8.270  38.390   2.780
13590W        W81920  41.842  34.934  14.435
13591W        W81921   9.365  10.309  10.899
13592W        W81922   9.335  42.906  10.597
13593W        W81923  18.685  41.947   1.737
13594W        W81924  36.357  14.778   0.467
13595W        W81925  35.081  31.402  12.542
13596W        W81926  17.307  18.171  12.040
13597W        W81927  38.349  37.081  13.323
13598W        W81928  22.573  19.112   0.834
13599W        W81929  32.451  28.147   3.764
13600W        W81930  39.316  29.605  14.397
13601W        W81931  36.490   7.266   2.419
13602W        W81932  19.272   4.423  14.453
13603W        W81933   9.341   3.871  14.424
13604W        W81934  39.481  10.845  14.913
13605W        W81935  13.168   4.828   3.667
13606W        W81936  40.315  15.133  12.569
13607W        W81937  24.066  24.204   3.839
13608W        W81938   3.717  26.969  10.625
13609W        W81939  29.989  14.340  14.989
13610W        W81940  24.156  42.373   3.178
13611W        W81941  41.003  11.739  14.873
13612W        W81942  21.585  43.448   0.744
13613W        W81943   1.884  18.604   1.311
13614W        W81944  44.459   8.772  13.808
13615W        W81945  36.571  28.587   4.774
13616W        W81946  33.457  39.477  10.054
13617W        W81947   2.816  35.079   1.234
13618W        W81948  26.002   4.372   1.741
13619W        W81949  23.138  16.812  14.905
13620W        W81950  20.059   9.869  11.498
13621W        W81951  44.788   8.317   0.357
13622W        W81952  12.834  32.042  13.838
13623W        W81953  39.384  34.974   0.758
13624W        W81954  10.376  32.907   4.177
13625W        W81955  34.572  38.510  11.546
13626W        W81956  41.854   3.903   0.451
13627W        W81957  22.683  28.972   3.313
13628W        W81958  31.536  38.391  12.525
13629W        W81959   5.331   0.355   2.199
13630W        W81960   1.829  42.480   4.660
13631W        W81961   7.391  28.526  11.057
13632W        W81962  24.672  38.947   3.766
13633W        W81963  35.904  10.665   2.347
13634W        W81964  27.506  33.099   4.292
13635W        W81965  30.499  25.989   2.236
13636W        W81966  15.765  38.571  14.438
13637W        W81967  34.417  15.714  12.912
13638W        W81968  14.286  20.525  11.584
13639W        W81969  32.431  12.244  13.362
13640W        W81970  30.968  26.683   3.325
13641W        W81971   1.449  26.992   0.281
13642W        W81972  11.268  17.195   1.349
13643W        W81973  36.500  22.710   0.918
13644W        W81974  32.555   3.719  13.987
13645W        W81975   6.244  17.574   4.234
13646W        W81976   9.866  19.247   1.875
13647W        W81977  18.669  11.215  12.823
13648W        W81978  26.655   6.712   2.900
13649W        W81979  43.424  24.687   2.182
13650W        W81980  42.412   1.733  11.545
13651W        W81981   1.270  28.443  11.078
13652W        W81982  19.204  26.470  13.843
13653W        W81983  14.643  25.041   3.672
13654W        W81984  12.765  26.626  10.972
13655W        W81985  31.609   1.389   0.270
13656W        W81986  34.391  20.614   0.820
13657W        W81987  19.168  30.093  11.107
13658W        W81988  38.566  22.557  12.467
13659W        W81989  24.974  42.969  10.115
13660W        W81990  42.003  42.462   2.875
13661W        W81991   5.259  31.107   0.842
13662W        W81992  34.463  41.433   3.283
13663W        W81993   0.955  39.456  14.287
13664W        W81994  27.517  25.635   1.382
13665W        W81995  33.549  12.788   3.346
13666W        W81996  35.429  18.581  11.392
13667W        W81997  36.486  30.426   1.875
13668W        W81998   9.163   3.870  11.600
13669W        W81999  14.098   0.429   4.350
13670W        W82000   0.359  33.956  12.863
13671W        W82001  30.125  10.725   1.359
13672W        W82002   9.200  37.936   4.149
13673W        W82003   0.439  36.874  14.820
13674W        W82004   6.279  12.326   2.234
13675W        W82005  13.828  27.685   3.727
13676W        W82006  30.513  15.094   1.294
13677W        W82007  25.676  19.122   3.866
13678W        W82008  30.939  14.726  10.981
13679W        W82009  26.124  37.052  12.569
13680W        W82010  44.325  18.122   0.454
13681W        W82011  25.684  29.940   4.613
13682W        W82012  43.823  38.486   1.733
13683W        W82013  36.096  39.465  12.898
13684W        W82014   8.852  39.047   2.253
13685W        W82015  22.142  42.520   3.357
13686W        W82016  29.961  37.465   4.686
13687W        W82017  38.569  30.446  13.396
13688W        W82018  41.500  35.867  10.595
13689W        W82019  27.612   3.347   1.301
13690W        W82020   9.752  11.214  10.636
13691W        W82021  35.492   9.260  11.863
13692W        W82022  10.820  32.092   0.410
13693W        W82023   7.408  21.738   0.858
13694W        W82024  11.858  15.276  13.975
13695W        W82025  17.284  17.706  14.424
13696W        W82026  43.982  27.139  11.910
13697W        W82027   3.763  35.582   0.257
13698W        W82028  32.888  15.616  10.552
13699W        W82029  40.992  31.927  11.050
13700W        W82030  31.641  42.501   0.276
13701W        W82031   0.277   2.930   3.775
13702W        W82032   2.837  12.670   2.728
13703W        W82033  31.553  34.960   0.758
13704W        W82034  22.555  25.123  13.873
13705W        W82035  16.177  39.829  11.414
13706W        W82036   6.892  16.776  14.377
13707W        W82037   7.174  41.836   2.779
13708W        W82038  26.506   9.171   1.753
13709W        W82039  11.675   6.697   2.363
13710W        W82040  37.993  38.355  14.849
13711W        W82041  31.123  15.588   4.320
13712W        W82042  16.569  23.545  13.466
13713W        W82043  23.991  35.865  13.514
13714W        W82044  17.569  20.707   1.774
13715W        W82045   4.236  21.586   3.741
13716W        W82046  31.032  15.649  10.553
13717W        W82047   2.922  25.673  14.031
13718W        W82048  33.126  41.533  12.489
13719W        W82049  38.512   6.777   1.790
13720W        W82050  14.614  28.663  14.897
13721W        W82051  13.116  12.824  10.440
13722W        W82052  11.304  17.195  10.903
13723W        W82053  13.740  27.012   3.639
13724W        W82054  24.675   2.471   4.236
13725W        W82055   3.834  20.691   4.811
13726W        W82056  40.337  24.593   4.208
13727W        W82057  25.567  34.548   0.829
13728W        W82058  14.625  21.706   3.738
13729W        W82059  11.813  34.419  12.540
13730W        W82060  26.114  35.852  10.937
13731W        W82061  14.726  34.958   3.741
13732W        W82062   0.303  22.571  13.418
13733W        W82063  42.963  17.789  13.876
13734W        W82064   5.892  29.965   4.674
13735W        W82065   8.387  42.005   1.428
13736W        W82066   7.370  39.373  11.990
13737W        W82067   4.760  43.350   0.350
13738W        W82068   1.827   2.768   0.835
13739W        W82069   0.477   8.689   2.847
13740W        W82070  20.168  23.046   1.361
13741W        W82071   6.710   6.898   4.698
13742W        W82072  37.515  42.382  11.963
13743W        W82073  41.025  39.015   2.696
13744W        W82074  13.711  38.485   3.813
13745W        W82075  37.003  21.249  10.506
13746W        W82076  20.544  33.016  14.942
13747W        W82077  20.736  29.108   2.762
13748W        W82078  39.550  17.122  11.602
13749W        W82079  17.719  23.132   1.390
13750W        W82080  21.114  16.806  10.012
13751W        W82081  13.175  40.367   5.178
13752W        W82082  24.116  27.150   3.337
13753W        W82083   9.223  29.435   0.853
13754W        W82084  11.154   2.267   2.710
13755W        W82085   9.854   8.797   3.150
13756W        W82086  13.351  42.298  13.331
13757W        W82087  17.196   7.172  11.494
13758W        W82088   4.387  43.484  13.063
13759W        W82089  14.255  19.722   1.835
13760W        W82090  43.829  28.522  13.017
13761W        W82091  22.238  12.713   2.853
13762W        W82092  13.298  29.002  14.932
13763W        W82093  12.157  38.953  14.291
13764W        W82094   5.770  11.141   3.266
13765W        W82095  27.568  44.790  14.285
13766W        W82096  32.942   2.361  13.399
13767W        W82097   1.855  10.203  13.951
13768W        W82098  21.061  21.744  12.395
13769W        W82099  37.900  35.445  13.545
13770W        W82100  25.155   3.442   3.737
13771W        W82101  18.778  30.565   3.719
13772W        W82102   0.322  32.428  13.026
13773W        W82103  10.380  35.433   3.171
13774W        W82104   8.231  32.101   2.372
13775W        W82105  12.654  37.580  11.480
13776W        W82106  11.835  23.589   3.835
13777W        W82107  33.414  41.016  11.002
13778W        W82108  44.488  35.598  10.582
13779W        W82109   4.359  41.303  14.334
13780W        W82110  16.103  39.460  14.445
13781W        W82111  33.963   3.768   0.335
13782W        W82112   1.445  30.016  12.019
13783W        W82113   9.675  41.970  14.500
13784W        W82114   4.824  20.206  13.896
13785W        W82115  14.812   4.410  10.605
13786W        W82116  36.522  38.935   4.640
13787W        W82117  29.522  41.845   3.309
13788W        W82118  12.788  28.167   1.802
13789W        W82119  14.263  36.037  12.544
13790W        W82120  13.312  39.038   1.320
13791W        W82121  11.180  18.206   0.455
13792W        W82122  34.962  21.220  10.596
13793W        W82123  36.528  27.961  13.397
13794W        W82124  25.608  21.228  11.930
13795W        W82125  36.036   7.351   2.852
13796W        W82126  15.816  15.628   1.832
13797W        W82127  16.789  37.473   4.240
13798W        W82128  29.490   6.840   4.655
13799W        W82129  13.729   7.754   4.831
13800W        W82130  29.032  32.972  11.538
13801W        W82131  25.509  40.974   3.231
13802W        W82132  30.558  24.672  14.985
13803W        W82133   8.892  29.454  11.971
13804W        W82134  11.336   3.350  11.020
13805W        W82135  40.499  36.348   2.262
13806W        W82136  15.322  29.119   1.338
13807W        W82137   3.900   1.291   2.880
13808W        W82138  17.582  14.778  10.938
13809W        W82139  18.268  20.710  12.448
13810W        W82140  13.612  35.079  14.490
13811W        W82141  13.135   3.765  12.991
13812W        W82142  20.050  42.891  10.109
13813W        W82143  12.667  23.238  10.978
13814W        W82144  14.333  40.315  12.968
13815W        W82145  15.318   7.411   0.914
13816W        W82146  17.232  38.873   1.398
13817W        W82147  18.282  37.902  11.076
13818W        W82148  25.007  41.526  14.401
13819W        W82149  14.158  10.742  11.537
13820W        W82150  20.035  12.357  12.560
13821W        W82151  40.380  14.127   0.351
13822W        W82152  37.936  40.420   4.296
13823W        W82153  43.852   5.327  11.861
13824W        W82154  19.556   1.239  14.025
13825W        W82155  33.937  30.455   3.695
13826W        W82156  28.977  13.120  11.474
13827W        W82157  33.380  18.748  10.415
13828W        W82158   7.291   1.785   1.796
13829W        W82159  14.707  19.209   1.755
13830W        W82160  18.237  40.040  14.503
13831W        W82161  21.574  37.930  12.021
13832W        W82162  23.056  16.105   0.251
13833W        W82163  17.136   5.426  12.552
13834W        W82164  26.993  28.476   2.277
13835W        W82165  22.667  40.468   0.370
13836W        W82166   5.214  18.765   3.260
13837W        W82167  24.151  21.136   0.274
13838W        W82168  30.457  33.470  13.495
13839W        W82169  38.982  44.420  11.013
13840W        W82170  15.664  14.711  10.933
13841W        W82171  44.848  34.919   0.956
13842W        W82172  41.943  21.162   3.829
13843W        W82173  10.168  13.299   4.731
13844W        W82174  17.107  24.483  12.060
13845W        W82175  13.753   9.728   0.457
13846W        W82176  24.158  37.353  11.924
13847W        W82177  10.205  14.636   0.459
13848W        W82178  19.617  24.142   2.299
13849W        W82179  30.919  38.399   4.790
13850W        W82180   4.938  28.497  12.546
13851W        W82181   3.845  36.487  10.090
13852W        W82182  37.459  44.386  14.818
13853W        W82183  29.501  44.987   2.859
13854W        W82184   7.900  21.737  12.889
13855W        W82185  11.820  21.571  11.998
13856W        W82186   8.166  12.354   0.442
13857W        W82187  18.771  39.060   3.809
13858W        W82188  31.012  36.416  11.428
13859W        W82189  11.213  18.619   4.668
13860W        W82190  19.120  15.143   0.327
13861W        W82191  39.525  39.554   4.695
13862W        W82192  16.079   3.904  11.103
13863W        W82193  38.965  44.791  13.041
13864W        W82194   4.410  16.281  11.576
13865W        W82195  31.491  18.058   2.247
13866W        W82196  34.398  41.930   0.774
13867W        W82197   5.327  33.390  10.533
13868W        W82198  21.568  23.498  12.529
13869W        W82199  19.116  21.644   3.854
13870W        W82200   2.391   4.356   3.265
13871W        W82201  26.619  32.124  11.119
13872W        W82202  14.627  44.377   2.682
13873W        W82203  32.596  30.513   2.856
13874W        W82204  44.296  39.328  14.780
13875W        W82205  24.580  19.187   0.766
13876W        W82206  43.444   7.720   2.259
13877W        W82207   5.315  21.691   3.313
13878W        W82208  43.940  39.917   0.448
13879W        W82209  44.992  21.182  10.492
13880W        W82210  42.798   4.836  14.032
13881W        W82211   3.920  24.596   2.339
13882W        W82212   2.365  38.366  12.580
13883W        W82213  28.067  12.820  14.300
13884W        W82214  43.489  23.700  13.890
13885W        W82215  20.042  18.237   4.799
13886W        W82216  35.467   2.315  13.438
13887W        W82217   8.351  10.225  10.529
13888W        W82218  26.632  40.447   0.317
13889W        W82219   7.198  27.475   4.335
13890W        W82220   4.699  19.110   3.799
13891W        W82221  20.680  26.952   2.208
13892W        W82222  12.737  12.782   3.244
13893W        W82223  28.440  36.462   3.194
13894W        W82224  16.287  16.715   2.220
13895W        W82225   0.766  25.484  14.815
13896W        W82226  25.020  13.204   3.249
13897W        W82227  11.639  40.390   3.195
13898W        W82228  37.417  32.055  10.989
13899W        W82229  28.533  25.585  12.380
13900W        W82230  14.321   1.970  14.964
13901W        W82231  25.597  14.689  13.928
13902W        W82232  38.400  11.156   1.253
13903W        W82233  17.627   6.746   0.934
13904W        W82234  24.701  20.637   3.203
13905W        W82235  35.983  42.472  14.883
13906W        W82236  18.228  44.764   1.848
13907W        W82237  38.031  30.149   1.751
13908W        W82238  44.342  29.626  12.833
13909W        W82239   6.848   8.187  13.525
13910W        W82240   9.322  33.960  10.985
13911W        W82241  36.485  26.460  10.136
13912W        W82242  22.579   7.896  10.055
13913W        W82243  32.461  20.618   9.925
13914W        W82244  20.570  29.091  12.999
13915W        W82245   1.751  10.791   4.795
13916W        W82246  19.550  28.480   0.483
13917W        W82247  11.715  33.910   0.456
13918W        W82248  24.672   5.711  11.091
13919W        W82249  40.361   9.206  11.036
13920W        W82250  23.592  40.871  11.448
13921W        W82251  36.038  16.582   3.685
13922W        W82252  18.735  40.828  10.609
13923W        W82253  30.446  38.412   1.865
13924W        W82254  13.805  23.166   1.316
13925W        W82255   2.245  42.874  13.401
13926W        W82256  28.658  40.904   1.342
13927W        W82257  25.491   4.308  13.506
13928W        W82258   2.744  36.581   1.372
13929W        W82259   4.311   3.405  12.382
13930W        W82260   2.768  24.633  13.856
13931W        W82261  35.498  10.250  12.560
13932W        W82262  19.661  34.083   0.835
13933W        W82263  37.503  27.027  12.049
13934W        W82264  26.602  24.668  14.350
13935W        W82265  18.189  42.872   1.706
13936W        W82266  40.340  18.752   0.916
13937W        W82267  24.714  20.555  11.613
13938W        W82268  10.357   7.207   2.269
13939W        W82269  16.135  30.055  10.589
13940W        W82270  20.726   7.877   1.225
13941W        W82271  44.272  26.975   4.817
13942W        W82272   3.746  13.333  13.886
13943W        W82273  32.629  34.562   0.396
13944W        W82274   3.873  44.272   0.482
13945W        W82275   9.335  32.043  12.512
13946W        W82276  33.585  10.140   3.319
13947W        W82277  15.763  32.415   4.635
13948W        W82278  13.175  26.062  11.611
13949W        W82279  44.462  15.733  14.918
13950W        W82280  14.237   1.839  11.089
13951W        W82281  26.539  32.053  13.536
13952W        W82282  42.502  24.020   2.696
13953W        W82283  10.149   8.767  10.078
13954W        W82284  22.016  17.597   0.259
13955W        W82285   7.772  39.349   1.706
13956W        W82286   2.271  23.520  13.362
13957W        W82287  10.235  39.964  12.838
13958W        W82288   1.796  19.607   0.816
13959W        W82289   8.337  30.598  10.482
13960W        W82290  28.544  35.380   1.726
13961W        W82291  39.942  25.198   2.219
13962W        W82292  43.274  33.466  10.098
13963W        W82293  43.377  24.597   4.282
13964W        W82294   8.212  44.349   3.725
13965W        W82295  29.133   6.807   4.224
13966W        W82296  42.988  19.542  13.485
13967W        W82297  16.252  19.046  10.485
13968W        W82298  25.217   7.189  11.917
13969W        W82299   9.687  24.207  13.465
13970W        W82300   3.385  27.669  11.442
13971W        W82301  34.412  16.622   2.846
13972W        W82302  11.662  43.768   1.402
13973W        W82303  24.206  32.133   0.782
13974W        W82304  19.207  22.040  13.331
13975W        W82305  30.980  39.981  11.935
13976W        W82306   7.839  30.094   2.254
13977W        W82307  23.632  15.767  13.498
13978W        W82308  39.399   0.459  11.068
13979W        W82309  12.362  28.678   0.914
13980W        W82310  17.724  23.168  14.030
13981W        W82311   4.321  15.772   4.749
13982W        W82312  10.767  38.543  10.525
13983W        W82313  21.706  43.397  13.806
13984W        W82314  18.783  28.134   4.787
13985W        W82315  15.599  27.187  10.980
13986W        W82316  40.495  34.991  11.388
13987W        W82317  36.898  20.274   0.266
13988W        W82318  33.059   3.257  11.114
13989W        W82319  12.362  25.980  12.456
13990W        W82320  23.699  19.140  10.558
13991W        W82321   2.811  31.499   3.313
13992W        W82322  20.597  15.649   0.247
13993W        W82323  39.057  25.054   5.247
13994W        W82324  43.992   3.262  12.827
13995W        W82325   0.909   3.216  11.396
13996W        W82326  39.479   6.247   0.307
13997W        W82327  12.812   2.833   1.442
13998W        W82328  24.129  38.938   1.301
13999W        W82329  33.126  20.273   4.814
14000W        W82330  37.367  28.182   4.200
14001W        W82331  38.402  25.988   3.680
14002W        W82332  35.915  34.372   0.418
14003W        W82333   8.240   8.166  11.950
14004W        W82334  21.200   0.861  11.448
14005W        W82335   5.710  16.622   1.351
14006W        W82336   7.796  14.816   1.934
14007W        W82337  21.119  25.527   2.839
14008W        W82338  12.749  31.906   1.713
14009W        W82339  13.628  43.297   3.219
14010W        W82340  27.499  16.750  14.887
14011W        W82341  33.383  42.790   5.260
14012W        W82342  25.622  44.928   2.278
14013W        W82343  22.522  44.491   4.127
14014W        W82344  15.578  28.077  11.459
14015W        W82345  36.981  18.644   4.323
14016W        W82346   7.267  21.156  14.435
14017W        W82347   0.905  31.551   2.747
14018W        W82348  35.597  37.477  13.511
14019W        W82349  16.213  11.197  13.052
14020W        W82350  15.151   2.252   2.741
14021W        W82351  27.990   0.901   4.645
14022W        W82352  44.476  13.269   0.793
14023W        W82353   7.294  40.425  10.465
14024W        W82354  34.545  22.662   0.913
14025W        W82355   2.276  39.042   9.985
14026W        W82356  29.646  44.384  11.466
14027W        W82357  39.389   8.301   9.493
14028W        W82358  12.718   8.333  12.053
14029W        W82359  38.936   8.326  14.805
14030W        W82360  12.737  27.565   4.263
14031W        W82361  32.931  42.424   2.256
14032W        W82362  34.404  30.063   2.233
14033W        W82363   1.762  17.774   2.345
14034W        W82364  41.467   9.325   3.358
14035W        W82365  31.418  20.652   1.754
14036W        W82366  12.640  33.426  12.059
14037W        W82367  27.940  16.793   2.257
14038W        W82368  29.431  33.534   9.549
14039W        W82369  14.258  26.564  10.153
14040W        W82370  15.198   1.426  10.499
14041W        W82371  40.532   9.185  13.919
14042W        W82372   5.901  30.566  10.972
14043W        W82373   6.193  15.223   0.754
14044W        W82374  32.399  43.458  13.397
14045W        W82375  33.950  13.266  14.846
14046W        W82376   1.951  38.898  10.993
14047W        W82377  43.875  15.086   0.799
14048W        W82378   5.217  27.075  11.420
14049W        W82379  26.690   1.256   3.662
14050W        W82380  24.678  41.323  12.904
14051W        W82381  10.141  37.982   4.785
14052W        W82382  19.721  16.634  14.353
14053W        W82383  37.839  42.492   3.833
14054W        W82384  36.353  14.182   0.816
14055W        W82385  10.139  28.937  14.788
14056W        W82386   2.875   3.933  12.578
14057W        W82387  12.849  25.679  12.360
14058W        W82388   9.788  20.191   2.178
14059W        W82389   6.322  23.689  11.541
14060W        W82390  28.961  11.205  12.375
14061W        W82391  11.764  42.383  11.481
14062W        W82392  43.426  44.797  14.844
14063W        W82393  22.705  19.574   1.716
14064W        W82394  24.597  17.161   0.822
14065W        W82395  25.963  38.543   0.792
14066W        W82396   1.303  11.647   2.779
14067W        W82397  35.449  11.836   0.320
14068W        W82398  36.937   2.761  11.934
14069W        W82399   8.665   9.205  12.905
14070W        W82400  43.802  32.941   1.731
14071W        W82401   9.658  21.695  10.518
14072W        W82402  23.656   6.881  10.590
14073W        W82403  12.850   5.922  11.018
14074W        W82404  33.483   8.265   2.863
14075W        W82405  43.437   5.359   1.780
14076W        W82406   2.727  44.000  12.369
14077W        W82407   7.727   6.874   1.804
14078W        W82408  22.536  36.466  13.962
14079W        W82409  38.329  43.914   3.175
14080W        W82410  38.465   9.192  10.917
14081W        W82411   6.370  34.962   3.757
14082W        W82412  32.504  28.181   0.434
14083W        W82413  26.681  15.592   2.728
14084W        W82414  11.783  14.101  12.992
14085W        W82415  22.182  25.658  13.894
14086W        W82416  37.845   8.173   3.295
14087W        W82417  30.598  39.979  11.941
14088W        W82418  14.289  34.975  13.436
14089W        W82419  24.071   7.219   2.204
14090W        W82420  16.115   8.696  14.384
14091W        W82421  24.659  14.655   2.371
14092W        W82422  35.883   1.417  12.874
14093W        W82423  32.464  14.615  10.511
14094W        W82424  16.108  18.557   2.213
14095W        W82425  38.382  37.342   2.684
14096W        W82426  44.756   9.250   3.777
14097W        W82427   3.256   7.334  14.803
14098W        W82428  24.714  41.956   0.869
14099W        W82429  39.516  12.214  11.563
14100W        W82430  33.546   2.271  12.352
14101W        W82431  33.936  27.008   1.367
14102W        W82432  34.483   7.882   3.749
14103W        W82433  15.199  43.812  12.906
14104W        W82434  35.462   3.262   1.768
14105W        W82435  19.208  25.636  13.977
14106W        W82436   0.251  12.272  12.493
14107W        W82437  25.674  17.113  12.462
14108W        W82438  10.677   5.299   1.784
14109W        W82439  25.477  34.614  10.469
14110W        W82440  27.504   1.295   0.849
14111W        W82441  36.542  44.800   3.771
14112W        W82442   7.790  33.935  14.999
14113W        W82443  23.718  11.162  11.507
14114W        W82444  27.662  10.313   3.823
14115W        W82445  39.454  29.558   2.185
14116W        W82446  15.677  32.580  13.005
14117W        W82447   9.825   8.336   4.347
14118W        W82448  13.830   5.706  12.037
14119W        W82449  43.780  17.174  10.930
14120W        W82450   6.210   6.835  10.457
14121W        W82451  25.058  37.929   3.285
14122W        W82452  30.080  20.217  14.880
14123W        W82453  10.217  24.053  13.030
14124W        W82454   2.743   0.897   2.818
14125W        W82455  41.935  19.202   4.127
14126W        W82456   2.382  41.296   0.740
14127W        W82457  23.519  19.080   3.825
14128W        W82458  35.604   8.656   1.868
14129W        W82459  18.089  28.661  13.526
14130W        W82460   6.426   6.865   4.262
14131W        W82461   8.738  16.697  13.537
14132W        W82462  17.230  39.915  13.349
14133W        W82463  29.015  33.018  14.487
14134W        W82464   8.384  24.595   4.296
14135W        W82465  35.072  29.044  11.100
14136W        W82466  15.742   9.741   2.349
14137W        W82467  38.069  20.764  11.543
14138W        W82468  28.638  16.803  12.848
14139W        W82469  38.928  24.554  12.032
14140W        W82470  38.965  39.031   3.181
14141W        W82471   5.854  15.084  13.794
14142W        W82472   9.189  36.510   1.276
14143W        W82473   3.449   8.668  11.912
14144W        W82474  22.716   0.397  12.069
14145W        W82475   3.359  35.536   5.723
14146W        W82476  19.605  34.603   0.478
14147W        W82477  33.418  36.464   4.285
14148W        W82478  39.333   9.737   0.903
14149W        W82479  19.678  44.334  10.413
14150W        W82480  26.589   4.718   0.797
14151W        W82481  25.629  21.691   1.841
14152W        W82482  15.823   6.781  14.819
14153W        W82483  18.682  14.736   2.806
14154W        W82484  34.932  27.466   3.788
14155W        W82485  21.590  26.085   0.767
14156W        W82486  10.777   3.246   0.436
14157W        W82487  24.980   0.752   4.134
14158W        W82488   3.723  36.503  13.844
14159W        W82489  15.710  11.773  14.012
14160W        W82490  26.538   1.768   0.250
14161W        W82491  39.060  21.048  12.879
14162W        W82492  30.466  14.096  14.866
14163W        W82493  15.149  20.627   4.158
14164W        W82494  10.669  43.343   0.918
14165W        W82495  19.575  14.230  14.413
14166W        W82496  30.928  22.100  12.567
14167W        W82497  40.852  16.208   4.232
14168W        W82498  35.876  38.476   4.211
14169W        W82499  17.083  19.609  14.423
14170W        W82500  14.820  39.951  11.525
14171W        W82501  38.436  12.140  14.814
14172W        W82502  30.444  22.165  11.419
14173W        W82503   9.854  25.000   4.655
14174W        W82504  32.090  34.089   1.848
14175W        W82505  14.141  44.869  13.855
14176W        W82506  23.241  18.575   1.407
14177W        W82507  32.615  10.213  14.413
14178W        W82508  10.794  41.791  10.443
14179W        W82509  28.054  37.534  12.890
14180W        W82510  26.018   5.307  11.526
14181W        W82511   9.161  37.400  11.611
14182W        W82512  11.749  31.944  10.948
14183W        W82513  37.358  39.059  13.353
14184W        W82514  23.670  25.608   3.857
14185W        W82515  31.045   2.806   3.228
14186W        W82516   9.383  23.009   1.337
14187W        W82517  27.638  25.152   0.750
14188W        W82518   2.777  22.220   1.355
14189W        W82519  29.158  31.986   2.811
14190W        W82520  42.383  17.791   3.799
14191W        W82521  11.723  44.978  13.400
14192W        W82522  16.250   0.938  13.027
14193W        W82523  38.362  33.445   1.347
14194W        W82524   3.723   5.338   0.812
14195W        W82525  32.538  19.566  14.887
14196W        W82526  22.599   3.714   2.828
14197W        W82527  29.539  11.293   0.779
14198W        W82528  29.114   7.312  10.590
14199W        W82529  38.367  20.572  10.455
14200W        W82530  37.908  35.980   5.192
14201W        W82531   4.740  28.557   1.347
14202W        W82532  31.617  28.954   4.633
14203W        W82533  39.813  36.086   4.781
14204W        W82534  25.611  33.406  11.567
14205W        W82535  19.045  15.749   2.253
14206W        W82536  34.023  13.215   1.726
14207W        W82537  20.569  33.932   4.317
14208W        W82538   2.841  20.170  12.353
14209W        W82539  32.899   3.847   2.878
14210W        W82540  42.817  21.175   4.209
14211W        W82541   0.488  17.239   1.782
14212W        W82542   8.743   4.816  13.982
14213W        W82543   5.690  15.171   2.402
14214W        W82544   0.406  20.533  12.087
14215W        W82545  29.484  35.538  13.454
14216W        W82546   0.971  20.597  14.499
14217W        W82547  42.493  23.060  14.397
14218W        W82548  29.503  40.384  12.496
14219W        W82549   5.206  34.456  14.409
14220W        W82550  29.016   6.249   2.840
14221W        W82551  13.604  27.487   3.367
14222W        W82552  27.514  14.613   2.413
14223W        W82553  44.876  27.059   1.713
14224W        W82554  18.055  26.018  10.960
14225W        W82555  27.575  18.651  11.078
14226W        W82556  29.013  25.514   4.779
14227W        W82557  35.403  27.627   2.192
14228W        W82558   2.399  18.606   3.750
14229W        W82559  35.599   8.403  12.516
14230W        W82560  20.760  24.133   3.244
14231W        W82561  38.878  20.271  12.836
14232W        W82562  25.165  22.701   2.768
14233W        W82563  28.476  40.475  12.456
14234W        W82564  34.464  38.970   2.710
14235W        W82565   6.829  23.555  13.320
14236W        W82566  36.523  37.374  11.866
14237W        W82567  18.743  41.353  12.354
14238W        W82568  22.564  32.484  12.426
14239W        W82569   6.372  28.146  14.313
14240W        W82570  36.976  36.932  14.300
14241W        W82571   4.853  30.000   1.854
14242W        W82572  35.864  19.568   1.214
14243W        W82573  40.993   0.306   3.788
14244W        W82574  36.525  13.322   1.814
14245W        W82575   3.409  24.575  13.342
14246W        W82576  16.111   3.910  12.865
14247W        W82577   9.216  30.942   4.802
14248W        W82578  30.054  37.003  12.509
14249W        W82579  36.013  22.113  14.907
14250W        W82580  35.987  22.064   1.437
14251W        W82581  27.556  34.934  10.955
14252W        W82582  36.964   5.859  11.478
14253W        W82583  12.303  42.964   4.702
14254W        W82584  35.077  26.117  13.470
14255W        W82585   4.438  40.892   3.312
14256W        W82586   6.707  11.219   1.893
14257W        W82587  29.622  20.067   1.449
14258W        W82588  13.767  39.058   0.907
14259W        W82589  43.848  33.582   2.662
14260W        W82590   5.928  40.359   0.925
14261W        W82591  19.773   4.267   4.774
14262W        W82592  31.412  33.615   1.285
14263W        W82593   3.738  34.038   0.955
14264W        W82594  33.408  14.253   0.789
14265W        W82595  27.453  43.324  13.393
14266W        W82596  28.681  22.746   4.129
14267W        W82597  21.568  14.254   2.813
14268W        W82598  13.740  22.677  11.086
14269W        W82599  29.107  18.103   0.786
14270W        W82600  36.554   9.221   4.246
14271W        W82601  34.073  25.554  10.408
14272W        W82602  21.192  19.641  10.942
14273W        W82603  29.545  28.555   1.256
14274W        W82604  17.748   0.270   4.721
14275W        W82605  28.625   4.726  13.023
14276W        W82606   8.164   7.362  11.921
14277W        W82607  19.744  29.013   2.297
14278W        W82608  23.651  21.239  10.564
14279W        W82609  27.475  23.234   3.693
14280W        W82610   9.766   3.712   1.272
14281W        W82611  24.681  11.248   2.704
14282W        W82612  14.646  35.436  10.637
14283W        W82613  18.739   8.392  10.485
14284W        W82614  41.345  42.387  12.833
14285W        W82615   3.792  41.935   1.274
14286W        W82616  14.174  41.787  13.985
14287W        W82617  17.266  37.022  11.882
14288W        W82618  14.336  19.228  12.339
14289W        W82619  24.086   6.923  14.777
14290W        W82620  44.920  41.954  13.491
14291W        W82621  29.167   6.779  14.878
14292W        W82622  17.115   7.710   2.198
14293W        W82623  39.838   4.770  13.044
14294W        W82624  24.564   3.818   4.184
14295W        W82625  22.154  10.239   0.273
14296W        W82626  22.714   8.702  13.791
14297W        W82627   5.345  29.018  12.029
14298W        W82628  25.039  42.287  12.974
14299W        W82629  40.384   1.905   9.949
14300W        W82630  38.894   8.203  10.549
14301W        W82631  13.297   6.222  12.969
14302W        W82632  39.980  13.202  12.987
14303W        W82633  40.495  21.604  12.996
14304W        W82634  35.490  13.678   4.640
14305W        W82635  42.478  33.102   4.830
14306W        W82636   6.862  22.250  11.519
14307W        W82637  44.312  42.935  10.417
14308W        W82638  33.559  37.366  14.790
14309W        W82639  23.586  14.261   1.719
14310W        W82640  44.423   9.190   3.367
14311W        W82641  17.691   5.762  11.975
14312W        W82642  35.970  42.849  10.614
14313W        W82643  32.477   1.756  10.455
14314W        W82644  29.116   8.241  10.467
14315W        W82645  41.977  30.547   3.647
14316W        W82646  21.694  18.669  11.461
14317W        W82647  41.803   5.922   2.880
14318W        W82648   0.988  38.968  10.414
14319W        W82649  40.877  42.914   4.724
14320W        W82650  25.086  17.592  10.915
14321W        W82651   8.395  32.579  12.909
14322W        W82652  35.536  40.870   1.423
14323W        W82653  28.146  28.566   9.931
14324W        W82654  30.931  21.536   3.780
14325W        W82655  37.477  44.496  12.043
14326W        W82656   5.393  20.609   0.361
14327W        W82657   3.941  32.490   3.291
14328W        W82658  33.546  32.479  13.345
14329W        W82659  22.032  24.678  10.403
14330W        W82660  18.190  38.525   1.215
14331W        W82661  30.043   7.902   4.645
14332W        W82662  20.139  34.612   2.192
14333W        W82663  40.924  22.562   0.352
14334W        W82664  44.503   4.840  13.534
14335W        W82665   6.787  15.112  10.562
14336W        W82666  15.282  10.162   1.393
14337W        W82667   9.751  18.620   4.625
14338W        W82668  28.476  13.236  12.357
14339W        W82669  23.219  15.308   1.880
14340W        W82670  14.655  19.189   1.300
14341W        W82671  30.480  24.052  14.772
14342W        W82672  25.650   8.278  10.962
14343W        W82673  22.159  31.904  13.791
14344W        W82674  39.043  26.173  10.966
14345W        W82675  37.073  31.436  11.572
14346W        W82676  30.523  18.643   1.245
14347W        W82677  31.953  22.234  13.978
14348W        W82678  34.903  15.590   3.776
14349W        W82679  22.177  15.143   2.859
14350W        W82680  35.953  14.690   3.323
14351W        W82681  22.616   4.218   3.715
14352W        W82682  10.194  23.526   3.747
14353W        W82683   9.648  12.843   2.721
14354W        W82684   0.944  39.409   4.677
14355W        W82685  38.379  37.032   3.352
14356W        W82686  26.053  20.268   2.334
14357W        W82687   9.387   8.733   4.616
14358W        W82688  44.955  42.817   4.816
14359W        W82689  17.744  25.626  11.905
14360W        W82690  14.732  36.873   3.748
14361W        W82691  36.930  22.172  12.440
14362W        W82692  43.868  38.528   2.859
14363W        W82693  20.069  28.579  13.546
14364W        W82694  25.591   3.784  12.829
14365W        W82695  18.146   6.739  11.086
14366W        W82696  30.000  11.142  12.430
14367W        W82697  24.667  21.522  13.518
14368W        W82698  35.959   6.384   4.657
14369W        W82699  37.412  19.592   0.440
14370W        W82700  26.168  19.042   4.695
14371W        W82701  17.652  30.109   4.689
14372W        W82702  19.624  32.555  11.980
14373W        W82703  25.065  26.702  10.904
14374W        W82704   9.200   3.858  13.479
14375W        W82705  12.312  34.401  13.402
14376W        W82706  35.926   9.288   1.746
14377W        W82707  10.337  10.759   1.731
14378W        W82708  38.466  41.417  10.420
14379W        W82709   2.276  17.220   2.202
14380W        W82710  34.102  11.647  14.366
14381W        W82711   8.850  40.488   1.865
14382W        W82712  42.334   5.395  10.985
14383W        W82713  44.892   2.871   4.165
14384W        W82714  11.361  38.934   4.777
14385W        W82715  28.565  13.739   0.875
14386W        W82716  27.045  37.847   0.809
14387W        W82717  36.525  11.720  12.354
14388W        W82718   1.274   8.876   0.754
14389W        W82719  30.157  24.711  11.035
14390W        W82720   6.308  29.453   3.210
14391W        W82721  39.881   5.690  14.774
14392W        W82722  22.090  33.061  11.941
14393W        W82723  26.464  22.085   4.640
14394W        W82724  28.064  13.705   1.769
14395W        W82725  13.777   1.416  12.046
14396W        W82726  37.058  35.866  13.012
14397W        W82727  14.174  10.338  13.511
14398W        W82728  39.532  42.861   4.802
14399W        W82729  29.014   5.286   3.674
14400W        W82730  15.767  29.545   1.900
14401W        W82731  18.713  10.382   0.848
14402W        W82732  15.265  29.924  12.940
14403W        W82733  22.078   3.461  12.516
14404W        W82734  27.524   7.721  14.303
14405W        W82735  11.294  25.546   0.284
14406W        W82736  37.341   0.288   2.271
14407W        W82737  21.641  18.758   3.188
14408W        W82738  41.471   8.854   4.743
14409W        W82739  12.336  44.802  13.464
14410W        W82740   3.749  43.959   4.608
14411W        W82741  16.791  43.951   3.369
14412W        W82742   7.741  15.178  13.042
14413W        W82743  15.630  43.876   3.674
14414W        W82744   7.204  15.208  11.878
14415W        W82745  27.639  23.513   2.764
14416W        W82746   1.433  44.397  10.146
14417W        W82747  35.110  25.033  10.419
14418W        W82748  27.178  43.393  12.377
14419W        W82749  26.672  22.094   5.278
14420W        W82750  22.193   7.776  10.955
14421W        W82751  40.942  32.439   3.633
14422W        W82752  14.193  18.083  13.949
14423W        W82753  21.686   3.839  14.962
14424W        W82754  15.758  41.016  14.285
14425W        W82755  25.999  11.313  13.416
14426W        W82756  30.049  16.282   0.474
14427W        W82757  15.801   6.277  13.341
14428W        W82758   6.828  44.460  12.866
14429W        W82759  38.862   7.688   5.148
14430W        W82760  15.085  26.607   3.175
14431W        W82761  38.956  34.918  13.489
14432W        W82762  28.944  16.144   0.290
14433W        W82763   0.420  26.158   4.798
14434W        W82764   5.251  24.193   4.656
14435W        W82765  36.383  11.220  11.954
14436W        W82766  11.167  11.641   0.382
14437W        W82767  33.535  29.983  12.876
14438W        W82768  40.926  26.584  13.365
14439W        W82769  11.213  32.130   0.760
14440W        W82770  13.617  39.354  12.551
14441W        W82771  28.466  44.346   1.868
14442W        W82772   4.407   5.817  10.436
14443W        W82773   4.875   7.401   1.872
14444W        W82774  14.293  40.881  14.829
14445W        W82775  24.063   5.406  13.448
14446W        W82776  39.449  18.271  13.444
14447W        W82777  26.477  32.607  14.406
14448W        W82778  32.395  39.560  10.947
14449W        W82779  13.262  29.454  14.879
14450W        W82780  19.574  13.173   1.237
14451W        W82781  41.017  36.593   1.706
14452W        W82782  17.177  39.005  10.441
14453W        W82783  25.094  13.698  13.881
14454W        W82784   8.275  26.070  11.424
14455W        W82785  20.230  42.925   3.204
14456W        W82786  25.072  27.470  13.051
14457W        W82787   8.701  16.758  12.365
14458W        W82788  39.411  42.285  12.453
14459W        W82789  16.107   6.337   2.700
14460W        W82790   9.358  33.460  13.021
14461W        W82791  26.666  32.439   4.680
14462W        W82792  27.591  31.462   0.429
14463W        W82793   3.429  16.274  14.499
14464W        W82794   1.942  24.490   1.214
14465W        W82795   6.783  29.666  10.976
14466W        W82796  30.156  30.965   0.736
14467W        W82797   1.893  20.761  11.107
14468W        W82798  15.098   8.163   4.135
14469W        W82799  16.592  31.590  14.874
14470W        W82800  29.103  16.272  13.860
14471W        W82801   1.426  38.418  11.517
14472W        W82802   5.880  33.062  10.588
14473W        W82803  40.835  20.222   4.212
14474W        W82804  28.515  31.534   2.348
14475W        W82805  30.495  39.002  11.113
14476W        W82806   7.339   2.434  12.890
14477W        W82807  24.703  21.262  14.782
14478W        W82808   9.365  34.930   4.354
14479W        W82809  22.642  30.129  14.982
14480W        W82810  30.457   8.843  13.998
14481W        W82811   9.786  36.434  11.527
14482W        W82812  23.601  13.306  12.444
14483W        W82813  10.348  32.589   0.961
14484W        W82814  27.023  28.547   0.921
14485W        W82815  30.588  24.039  14.403
14486W        W82816  34.908   1.321  10.945
14487W        W82817  14.833  21.555  13.942
14488W        W82818  38.540   1.919   3.676
14489W        W82819  29.522  37.037   4.214
14490W        W82820  36.455   2.908  14.903
14491W        W82821  41.905  22.077   4.759
14492W        W82822  19.610   9.158   2.377
14493W        W82823  17.248  36.975   3.345
14494W        W82824  22.514  11.795  10.415
14495W        W82825  11.316  40.907  11.451
14496W        W82826  40.488  28.599   3.208
14497W        W82827  15.191  29.936   2.731
14498W        W82828  19.736  17.308   1.256
14499W        W82829  24.525   8.898   3.722
14500W        W82830  10.803  23.592   2.819
14501W        W82831  37.364  40.382   0.316
14502W        W82832  21.135  33.106  14.817
14503W        W82833   8.859  32.890  12.438
14504W        W82834  29.562   2.342   3.832
14505W        W82835  22.702   9.884   1.892
14506W        W82836  10.838  31.536  14.947
14507W        W82837  30.533  16.631  11.111
14508W        W82838  37.952  14.119   1.796
14509W        W82839  30.617   9.710  11.091
14510W        W82840   9.875  34.595  14.802
14511W        W82841  40.526  15.761  14.971
14512W        W82842  40.878  42.871   0.855
14513W        W82843  44.268  39.543  11.984
14514W        W82844  43.373  23.707  13.513
14515W        W82845  40.457   9.708   1.887
14516W        W82846  28.068   8.282   2.715
14517W        W82847   3.889  14.639  13.875
14518W        W82848  35.891  13.797  13.042
14519W        W82849  25.623   6.806   3.636
14520W        W82850  17.558  32.491   4.660
14521W        W82851  21.087   4.850  11.592
14522W        W82852  26.099  13.297   1.704
14523W        W82853   8.173  21.585   0.874
14524W        W82854   5.764  14.232   2.862
14525W        W82855   6.284   1.419   0.242
14526W        W82856  41.017  23.572   4.310
14527W        W82857  24.695  27.954   0.753
14528W        W82858  39.383  22.656  13.827
14529W        W82859   5.391  40.874  12.064
14530W        W82860   3.922  27.163   0.277
14531W        W82861  21.040  31.897   3.161
14532W        W82862   1.963  40.955   3.370
14533W        W82863   0.394  12.617  13.370
14534W        W82864  44.815  37.910  12.459
14535W        W82865  11.667   9.271  12.502
14536W        W82866  31.492  14.785  12.955
14537W        W82867  43.497  44.954   0.728
14538W        W82868  11.141  22.710   3.293
14539W        W82869  22.083  35.394   3.698
14540W        W82870  19.661  18.181  13.959
14541W        W82871  22.614  29.151   1.850
14542W        W82872  13.747   5.202   0.341
14543W        W82873   8.335  17.249  10.988
14544W        W82874  30.910  22.215   1.723
14545W        W82875  43.408  18.586   4.708
14546W        W82876  37.450  40.890   3.717
14547W        W82877  32.418  25.188  10.472
14548W        W82878  10.669   5.416  10.435
14549W        W82879  13.676  28.659   4.197
14550W        W82880  14.624  23.229   3.381
14551W        W82881  44.911   9.786  10.992
14552W        W82882  29.013  38.480  13.930
14553W        W82883   6.291  35.927   4.137
14554W        W82884  25.021  19.718   0.932
14555W        W82885  39.888  18.149  14.763
14556W        W82886   7.326  14.321   2.385
14557W        W82887   6.299  37.558   0.334
14558W        W82888  36.047  27.499  13.999
14559W        W82889  31.070  28.503   0.445
14560W        W82890  41.846   6.350   0.258
14561W        W82891  16.238  34.572  11.592
14562W        W82892  44.343  25.192   2.393
14563W        W82893  29.018  26.991   4.725
14564W        W82894  21.233  32.893  12.091
14565W        W82895  13.188  32.903   1.225
14566W        W82896  19.534  19.068   1.734
14567W        W82897  23.666  19.556   3.733
14568W        W82898  25.668  41.911  12.555
14569W        W82899  30.957  41.436  14.025
14570W        W82900   9.768  28.122  12.436
14571W        W82901  20.034   9.763   1.429
14572W        W82902  11.303  21.249   3.218
14573W        W82903   3.404  44.945   0.326
14574W        W82904  35.911   3.864   4.600
14575W        W82905  39.482  35.917  12.448
14576W        W82906  31.956   3.294  13.496
14577W        W82907   5.296   3.278  14.942
14578W        W82908   9.839  34.490  13.519
14579W        W82909  24.616  18.689  13.509
14580W        W82910  22.141  20.670   3.696
14581W        W82911  10.281  40.354   1.331
14582W        W82912  20.044  37.532   4.827
14583W        W82913  31.911  39.412   4.604
14584W        W82914  24.115  25.172   5.292
14585W        W82915  17.632  43.441  13.858
14586W        W82916  11.685   0.463   1.267
14587W        W82917  22.160  24.710   2.790
14588W        W82918  10.878   4.230   1.224
14589W        W82919  24.698   8.773   0.290
14590W        W82920  40.346  16.746  10.539
14591W        W82921  11.695  38.829   0.837
14592W        W82922  25.061  12.357   2.681
14593W        W82923   1.758   8.177  13.451
14594W        W82924  30.941  13.227   0.446
14595W        W82925  40.039  32.974  11.479
14596W        W82926  37.920  15.220   3.231
14597W        W82927  19.634   3.390   1.762
14598W        W82928  20.185  11.285  13.345
14599W        W82929  31.085  34.543   3.189
14600W        W82930  29.426  15.716  13.396
14601W        W82931   4.800  37.919   1.279
14602W        W82932  10.696  18.626   2.881
14603W        W82933   6.239  15.205   4.159
14604W        W82934  17.629  34.986   2.326
14605W        W82935   9.812  29.432  11.039
14606W        W82936  11.153  14.811  10.644
14607W        W82937  17.649  17.716   4.753
14608W        W82938  44.856  39.537   2.344
14609W        W82939  23.630   7.742   1.931
14610W        W82940  44.393  14.821  12.999
14611W        W82941  15.255  30.516   1.757
14612W        W82942  21.043   3.251   5.205
14613W        W82943   3.778  26.691   3.820
14614W        W82944   7.669  31.018   4.345
14615W        W82945  22.572  32.628   4.599
14616W        W82946   2.368  42.483  13.889
14617W        W82947  38.329  38.823   4.241
14618W        W82948  16.242  24.636   2.289
14619W        W82949   1.391  31.090  12.573
14620W        W82950  18.673  18.186   0.911
14621W        W82951  19.228  16.178   0.863
14622W        W82952   1.386  44.391  14.782
14623W        W82953  41.442  25.525  14.453
14624W        W82954  34.004  39.538  11.129
14625W        W82955  42.939  20.674   2.366
14626W        W82956  42.872   8.253  13.451
14627W        W82957  38.443   6.916   5.101
14628W        W82958   0.941  42.851   2.850
14629W        W82959  21.615   8.880  11.073
14630W        W82960  37.522  38.820   2.342
14631W        W82961  39.925   7.308   2.223
14632W        W82962  25.204   2.250  12.398
14633W        W82963  29.135  40.399  12.563
14634W        W82964  15.656  18.150   2.792
14635W        W82965  39.947  33.578   2.389
14636W        W82966   9.802  41.816   0.854
14637W        W82967  19.164   4.217  10.504
14638W        W82968   7.256  19.539  12.450
14639W        W82969   2.300  31.557  14.759
14640W        W82970  27.012  39.911   1.886
14641W        W82971  40.005  31.437  10.942
14642W        W82972  44.450   1.974  11.482
14643W        W82973  13.239   8.326  12.089
14644W        W82974  36.979  26.558   0.847
14645W        W82975  29.580  24.117   2.338
14646W        W82976  13.188  40.331   3.189
14647W        W82977  13.690  25.207   3.764
14648W        W82978   5.783  39.436  10.918
14649W        W82979   1.960  23.232  13.944
14650W        W82980   6.861   2.766   3.174
14651W        W82981  24.141  16.629  12.351
14652W        W82982  32.564  11.303   4.731
14653W        W82983  19.082  43.912   0.246
14654W        W82984  21.653  34.114  12.088
14655W        W82985  32.428  28.038  10.565
14656W        W82986  15.152   4.872  11.471
14657W        W82987  29.035  42.313  12.071
14658W        W82988  16.804  15.759   0.875
14659W        W82989  12.821  15.225  11.009
14660W        W82990   3.384  11.736   1.706
14661W        W82991  25.537  10.156   4.628
14662W        W82992  18.119  21.657   4.312
14663W        W82993  37.410  38.892   3.855
14664W        W82994  44.874  13.677   2.410
14665W        W82995   5.326  44.284   0.850
14666W        W82996   2.853   1.468  14.804
14667W        W82997   2.271  13.244  14.368
14668W        W82998  42.390  24.503   2.385
14669W        W82999  30.450  18.704   0.819
14670W        W83000  13.171  12.729   0.806
14671W        W83001  44.858  25.602   2.737
14672W        W83002  41.020  33.474   4.231
14673W        W83003  29.131   4.450   1.343
14674W        W83004  12.174  39.404   0.481
14675W        W83005  30.537  10.306   3.828
14676W        W83006  32.625  33.923   0.425
14677W        W83007  31.605   4.234   2.184
14678W        W83008  27.062  18.790  12.945
14679W        W83009  31.978  34.579  10.541
14680W        W83010  25.118  26.491  12.842
14681W        W83011   4.376  13.755   4.323
14682W        W83012  12.266  40.506   1.210
14683W        W83013  30.145  42.925  12.419
14684W        W83014  38.066  16.193  14.794
14685W        W83015  23.734  24.063  14.378
14686W        W83016  24.519  25.073   3.320
14687W        W83017  12.342  32.091   3.644
14688W        W83018  41.818  27.029   1.307
14689W        W83019  15.100  14.603  13.532
14690W        W83020  18.054  25.684  12.088
14691W        W83021  30.649   6.868   3.794
14692W        W83022  29.591   5.850   3.735
14693W        W83023  27.569  10.846  11.519
14694W        W83024  36.480   8.357  13.459
14695W        W83025  13.706  33.999  14.815
14696W        W83026  14.712  15.250  14.447
14697W        W83027   0.819  19.071   0.377
14698W        W83028  13.601   6.730  14.908
14699W        W83029  36.853  37.499  11.880
14700W        W83030  43.376  39.443  13.948
14701W        W83031  43.807  18.180  14.350
14702W        W83032  15.109  22.064  14.393
14703W        W83033   0.896  11.729   3.745
14704W        W83034  18.642  30.105  11.432
14705W        W83035  33.123  35.091  12.015
14706W        W83036  26.521  20.092  14.967
14707W        W83037  44.883   8.804  11.373
14708W        W83038   0.892  18.146   1.922
14709W        W83039  21.212   3.916   3.768
14710W        W83040   6.752  19.102   0.451
14711W        W83041  14.231  15.639  14.403
14712W        W83042  28.930   8.211   3.248
14713W        W83043   2.361  28.021   4.317
14714W        W83044  39.363  11.752  11.995
14715W        W83045   3.257  13.312  12.036
14716W        W83046  31.944  17.679  11.991
14717W        W83047  20.225  10.251  10.641
14718W        W83048   2.257  30.536  12.066
14719W        W83049  44.372  25.572   2.261
14720W        W83050  34.453   4.726  10.569
14721W        W83051  39.843  23.049  12.004
14722W        W83052  44.314  25.671  12.411
14723W        W83053  28.469  43.393   0.824
14724W        W83054   9.356  15.325   1.817
14725W        W83055  31.540  26.031   4.753
14726W        W83056  31.001  34.442  11.566
14727W        W83057   4.448  12.168   1.352
14728W        W83058  37.971   8.193   3.634
14729W        W83059  11.256  42.371   2.272
14730W        W83060  42.947  35.551   1.271
14731W        W83061  44.347  40.804   4.798
14732W        W83062   1.906  26.100  14.304
14733W        W83063  29.601  41.965   2.758
14734W        W83064   4.426  28.141  13.929
14735W        W83065  22.072  27.983   9.624
14736W        W83066  41.330   8.726  14.325
14737W        W83067  17.609  19.551  13.489
14738W        W83068  20.031  14.182  13.000
14739W        W83069  41.414  30.445   3.162
14740W        W83070  28.605  32.022  12.532
14741W        W83071   5.926  27.174  13.528
14742W        W83072  40.459  11.276   0.273
14743W        W83073  35.997  11.691  13.506
14744W        W83074  12.215  13.128   0.253
14745W        W83075   6.393  41.024   2.833
14746W        W83076  37.868  29.423   4.836
14747W        W83077  42.335   2.732  10.891
14748W        W83078   0.340  31.473   1.444
14749W        W83079   0.329   3.306   0.861
14750W        W83080   7.825   4.869   4.119
14751W        W83081  28.636   1.929   0.886
14752W        W83082  16.574  38.556  12.018
14753W        W83083  40.444  35.986  13.037
14754W        W83084  35.061  27.100  12.924
14755W        W83085  17.781   6.423   3.782
14756W        W83086  32.493   6.285   3.225
14757W        W83087  25.139  40.487   3.376
14758W        W83088  36.550  22.616  12.058
14759W        W83089  14.124  19.733   0.480
14760W        W83090  24.600  20.096   2.666
14761W        W83091  20.661   1.957  10.466
14762W        W83092  41.438  33.450   3.675
14763W        W83093  21.656  44.497  12.546
14764W        W83094  41.020  26.145   3.731
14765W        W83095   9.731  41.023   2.754
14766W        W83096  39.525  11.184   1.752
14767W        W83097  44.970  35.062   3.283
14768W        W83098  42.485  27.092   3.365
14769W        W83099  20.587   1.474   4.199
14770W        W83100  13.661   4.852  11.940
14771W        W83101  31.987   9.781  14.436
14772W        W83102  39.962   1.965  13.055
14773W        W83103  28.019  24.174   0.884
14774W        W83104  19.621  33.578   3.375
14775W        W83105   2.760  40.811   4.252
14776W        W83106  23.722  41.339  11.395
14777W        W83107  33.109  44.761   0.851
14778W        W83108  14.814  38.926   4.647
14779W        W83109  35.581  15.612  14.832
14780W        W83110  39.878   4.878   0.304
14781W        W83111  11.334  11.216   2.843
14782W        W83112  42.497  17.150   2.711
14783W        W83113  40.428  17.225   2.673
14784W        W83114  27.960  23.165   1.728
14785W        W83115   2.254  38.513  11.463
14786W        W83116  15.100   3.811   2.691
14787W        W83117  26.067  25.088  14.026
14788W        W83118  16.569  20.238   2.855
14789W        W83119  19.265  32.397  10.410
14790W        W83120   4.761  10.185   0.396
14791W        W83121  11.310  34.038   2.214
14792W        W83122  26.483  14.287  14.381
14793W        W83123  12.825  25.002   0.418
14794W        W83124  37.486   5.778   4.208
14795W        W83125  31.044   2.247   0.774
14796W        W83126  11.816  13.697  11.087
14797W        W83127   2.388  43.959  12.546
14798W        W83128   9.747  40.812  14.858
14799W        W83129  21.116  41.938  10.994
14800W        W83130   3.321  24.113  13.996
14801W        W83131  33.579  39.038  13.798
14802W        W83132  39.315  24.673   2.283
14803W        W83133  31.070  38.072   1.307
14804W        W83134  40.364  24.722   3.188
14805W        W83135  40.898  26.460  12.895
14806W        W83136   6.780  38.416  10.902
14807W        W83137  18.081  22.048  13.848
14808W        W83138  11.201  37.045   0.393
14809W        W83139   4.265  25.964  11.911
14810W        W83140  11.131  18.133  12.038
14811W        W83141  18.634   8.812  14.794
14812W        W83142  35.056   8.259   3.639
14813W        W83143  40.343  35.376  12.437
14814W        W83144  44.489  10.678   0.414
14815W        W83145  27.069  10.153   1.259
14816W        W83146  29.503  43.876  12.051
14817W        W83147  23.152  31.953  11.894
14818W        W83148  12.798  31.003  11.994
14819W        W83149  37.053  44.449   3.856
14820W        W83150  43.963  20.110  13.835
14821W        W83151  40.436  32.903   3.280
14822W        W83152  36.008  27.530   1.732
14823W        W83153  44.931  20.250   3.631
14824W        W83154  12.116  33.534  13.854
14825W        W83155  28.564  26.164   3.313
14826W        W83156  25.628  10.372   3.362
14827W        W83157  13.616  22.045   2.328
14828W        W83158   5.913   2.800   1.770
14829W        W83159   9.305   7.731   0.430
14830W        W83160   6.251  20.566   3.859
14831W        W83161   9.345  28.161  10.630
14832W        W83162  36.012  26.622   4.813
14833W        W83163   7.187  43.984   4.785
14834W        W83164  29.943  26.142  14.380
14835W        W83165  13.794   0.447   2.301
14836W        W83166  12.784  41.027   4.284
14837W        W83167   5.888  20.583   2.205
14838W        W83168  28.132   9.281   4.752
14839W        W83169  40.003  30.936   3.864
14840W        W83170  30.109  43.365   1.305
14841W        W83171   3.231  11.845  11.932
14842W        W83172  35.088  21.066  14.961
14843W        W83173  22.051  33.002  10.583
14844W        W83174  44.882  18.729   3.748
14845W        W83175  15.237   8.211   3.341
14846W        W83176  30.146  20.200   9.597
14847W        W83177  22.692  32.905  11.003
14848W        W83178  35.881   8.316  14.454
14849W        W83179   4.375  39.548  11.450
14850W        W83180  23.193  44.961  13.895
14851W        W83181  16.253  15.190  12.395
14852W        W83182  29.105  20.538   0.964
14853W        W83183  10.302  35.397  14.974
14854W        W83184  19.654  33.948  12.555
14855W        W83185  32.548  43.313   2.860
14856W        W83186  31.480  34.555  11.494
14857W        W83187  34.984  27.526  14.863
14858W        W83188  25.189   0.423  12.072
14859W        W83189  15.266  16.095  12.090
14860W        W83190  12.338   5.245   1.871
14861W        W83191  43.809  31.081   4.335
14862W        W83192  30.575  20.685  10.617
14863W        W83193  18.769  25.055  11.124
14864W        W83194  44.968  42.504  11.426
14865W        W83195  32.908  44.279  12.420
14866W        W83196   5.835  27.141  11.887
14867W        W83197  14.645  38.447  13.023
14868W        W83198  30.114   2.297   3.728
14869W        W83199  18.294  18.684  12.506
14870W        W83200  25.697  44.424   2.197
14871W        W83201  27.625  42.433   1.237
14872W        W83202   2.417  14.286  14.895
14873W        W83203  43.460   0.949   3.161
14874W        W83204  38.434   5.269  14.789
14875W        W83205  31.486  18.776  12.476
14876W        W83206  25.181  24.976   3.263
14877W        W83207  40.305  27.681   0.359
14878W        W83208  37.447  18.662   3.796
14879W        W83209   7.363  41.005   0.744
14880W        W83210  39.486   3.812  12.998
14881W        W83211  18.670  30.539   0.889
14882W        W83212  15.666  25.546   1.237
14883W        W83213  20.151  15.118   1.845
14884W        W83214  12.156   4.849   4.619
14885W        W83215  18.667  11.696  12.962
14886W        W83216  30.152  13.192  11.563
14887W        W83217   9.221  26.159  11.059
14888W        W83218  43.276  22.067  10.610
14889W        W83219   9.757   5.696   3.759
14890W        W83220  10.238   7.668   4.124
14891W        W83221  36.942  28.637  13.981
14892W        W83222   2.743  21.628  11.070
14893W        W83223  31.982   3.417   3.644
14894W        W83224   9.304  26.480  11.943
14895W        W83225   6.727   5.212   1.220
14896W        W83226  33.493   0.320   0.798
14897W        W83227  33.605  44.886   4.214
14898W        W83228   3.896  39.913  12.075
14899W        W83229  32.441   0.444  14.313
14900W        W83230  38.476  23.596   1.399
14901W        W83231  43.402  37.402   3.731
14902W        W83232  27.028  44.760   0.812
14903W        W83233  37.345  12.351   1.358
14904W        W83234  34.384  15.594   2.859
14905W        W83235   5.432  36.419  13.908
14906W        W83236  24.055  18.709   0.373
14907W        W83237  23.081  39.461  11.974
14908W        W83238   2.766  26.463   4.187
14909W        W83239  32.022  38.991  12.962
14910W        W83240  11.335   2.763   0.767
14911W        W83241  27.084   8.661  13.414
14912W        W83242  29.470  26.458   5.214
14913W        W83243  10.815  12.641  13.955
14914W        W83244  24.607  40.044  14.972
14915W        W83245  25.041  29.528  12.500
14916W        W83246  12.239  26.140   0.946
14917W        W83247  18.181  43.876  13.905
14918W        W83248  32.965   4.836   3.326
14919W        W83249  32.135  33.625  12.090
14920W        W83250  19.111   8.361   1.935
14921W        W83251  21.624  34.604  14.848
14922W        W83252   7.846  42.788   5.105
14923W        W83253  15.665  25.509  11.959
14924W        W83254  29.977  21.017   4.351
14925W        W83255  20.666  26.610  10.590
14926W        W83256  40.030  38.346   2.302
14927W        W83257  33.527  41.946   1.771
14928W        W83258  16.240  20.676   1.323
14929W        W83259  17.706  12.774  10.523
14930W        W83260   1.863   7.283  14.973
14931W        W83261  12.779  15.809   3.277
14932W        W83262   2.957  22.626   4.182
14933W        W83263  21.725  17.194  14.455
14934W        W83264  14.240   3.940   2.793
14935W        W83265   0.905   5.822  10.925
14936W        W83266  37.526  43.007   2.380
14937W        W83267  14.176  39.996  13.435
14938W        W83268   8.191  38.558  11.110
14939W        W83269  40.909  29.985   4.290
14940W        W83270  25.023  43.975   3.860
14941W        W83271  21.168  33.412   1.331
14942W        W83272  13.205  15.103  13.432
14943W        W83273   2.743  10.640   3.730
14944W        W83274  35.904  21.605   3.371
14945W        W83275  13.233  13.837  12.088
14946W        W83276   2.366  42.412  14.488
14947W        W83277  40.329  16.655  10.897
14948W        W83278   2.731  43.913  14.412
14949W        W83279  38.422  33.983  10.949
14950W        W83280  44.757   5.308   4.748
14951W        W83281  41.376  44.272   2.690
14952W        W83282  32.628  43.935  13.446
14953W        W83283  34.578  35.868   2.685
14954W        W83284  18.546  25.997  11.965
14955W        W83285  10.336  21.602   4.673
14956W        W83286   0.940  43.837   3.262
14957W        W83287  17.696  12.305  11.970
14958W        W83288  25.623  17.249   1.705
14959W        W83289  39.478  16.791  10.936
14960W        W83290  22.149  23.151   0.893
14961W        W83291  44.434  35.902   3.771
14962W        W83292  14.771  24.175  12.081
14963W        W83293  14.140  27.642  14.830
14964W        W83294  24.585   1.950  12.544
14965W        W83295  26.482  11.361  11.892
14966W        W83296  34.522  13.786  11.453
14967W        W83297  32.627  13.801  11.386
14968W        W83298   4.248  10.656  14.360
14969W        W83299  10.297   3.914   1.902
14970W        W83300  16.587   2.897   1.306
14971W        W83301   7.674  40.811   4.179
14972W        W83302   6.195  22.201   3.819
14973W        W83303  39.917  38.023   0.442
14974W        W83304  20.543  14.147  13.975
14975W        W83305  30.079   9.319  10.404
14976W        W83306  26.590  21.710   3.664
14977W        W83307  19.235   9.290   4.616
14978W        W83308  12.614  32.932  14.766
14979W        W83309  34.529  26.177  14.858
14980W        W83310  23.576   3.920   2.225
14981W        W83311  13.292  44.961  14.778
14982W        W83312   7.669  16.566  13.955
14983W        W83313  13.310  11.711  10.442
14984W        W83314  14.218  13.263  11.907
14985W        W83315  19.187  34.452  11.565
14986W        W83316  10.227  29.493  13.415
14987W        W83317   0.809  11.371  12.510
14988W        W83318  12.191  43.512   2.378
14989W        W83319  23.655  41.008   2.738
14990W        W83320   7.685   1.426   1.842
14991W        W83321  43.889  15.728  10.940
14992W        W83322   9.836  24.505  14.028
14993W        W83323  23.673  20.210   1.306
14994W        W83324  11.803  15.152  10.436
14995W        W83325  18.625  19.067  11.078
14996W        W83326  17.697   6.379   4.790
14997W        W83327  32.550  37.533   0.863
14998W        W83328  14.164   3.282  13.937
14999W        W83329   2.789  23.162  10.488
15000W        W83330   6.219  26.163  10.561
15001W        W83331  43.428  43.313  12.024
15002W        W83332  41.433  17.630  11.038
15003W        W83333   3.328  34.886   2.410
15004W        W83334   3.430  27.001   3.321
15005W        W83335  31.606  24.710   3.783
15006W        W83336  32.429  14.109   2.874
15007W        W83337  16.205  10.857  13.458
15008W        W83338  32.597  20.257   9.647
15009W        W83339  34.880  14.610  13.427
15010W        W83340  15.794  11.329   4.179
15011W        W83341  25.108  18.566   0.361
15012W        W83342  12.252   5.810   4.833
15013W        W83343  32.965  33.073   2.384
15014W        W83344  21.712  19.243  12.418
15015W        W83345   7.311   0.977   3.322
15016W        W83346  24.151  15.667  13.833
15017W        W83347  11.169  26.117  12.902
15018W        W83348  31.606  14.196  11.941
15019W        W83349  13.333  21.753  14.500
15020W        W83350  42.848  25.697  14.814
15021W        W83351  40.547   3.829   1.768
15022W        W83352  39.464  16.223  10.949
15023W        W83353   5.870   1.329  12.979
15024W        W83354  37.567  32.403   4.338
15025W        W83355  15.634  31.012   2.229
15026W        W83356  22.684  26.595   4.680
15027W        W83357  19.762  41.307   1.759
15028W        W83358  14.764  43.781   0.892
15029W        W83359  17.157  18.233  11.538
15030W        W83360   1.752  11.236  13.868
15031W        W83361  17.283  13.668  13.911
15032W        W83362  24.027   3.299   0.947
15033W        W83363  32.887  17.249   0.801
15034W        W83364  25.135  10.694   4.613
15035W        W83365   6.677   6.196   0.872
15036W        W83366  42.455  35.460   3.346
15037W        W83367   2.267  27.677   2.392
15038W        W83368  23.118   9.799   9.657
15039W        W83369  25.141  28.109  10.928
15040W        W83370  18.548   4.781   9.950
15041W        W83371  36.922  21.629   1.278
15042W        W83372  36.075  25.196   0.432
15043W        W83373  24.598  24.089   4.715
15044W        W83374  31.509   1.871  14.769
15045W        W83375  14.116  31.637  10.907
15046W        W83376  32.498  42.024   4.688
15047W        W83377  15.817  31.955   3.683
15048W        W83378  38.977  17.090   4.123
15049W        W83379  23.494  42.833  14.794
15050W        W83380  35.554  13.225  10.445
15051W        W83381  36.508  20.568  10.614
15052W        W83382   8.739  19.678  11.505
15053W        W83383  43.955  28.043   1.805
15054W        W83384  15.823  12.160   0.346
15055W        W83385  19.193  38.496   1.877
15056W        W83386  15.220   2.745  11.480
15057W        W83387  14.243  40.821  13.926
15058W        W83388  27.144  13.242  10.905
15059W        W83389   0.457  37.465  10.518
15060W        W83390  24.027  19.272   3.323
15061W        W83391  39.051  18.181  13.352
15062W        W83392   6.253  37.545   4.816
15063W        W83393  11.320  23.234   3.783
15064W        W83394  39.498  21.579  11.499
15065W        W83395  18.678  25.074   0.316
15066W        W83396  30.126   4.771  14.348
15067W        W83397  25.166  27.147  12.467
15068W        W83398   8.206  25.569   3.715
15069W        W83399  41.998  20.551  11.463
15070W        W83400  42.019   9.255   0.341
15071W        W83401   0.831   9.321   4.630
15072W        W83402  35.568  33.442   2.897
15073W        W83403  25.563  35.551   0.327
15074W        W83404  19.643  24.082   9.982
15075W        W83405  13.777  14.293  11.413
15076W        W83406   9.814   2.877  11.578
15077W        W83407  29.984   3.450   2.707
15078W        W83408  42.348  39.921  14.794
15079W        W83409   9.246  43.012  12.374
15080W        W83410   5.361   2.294  11.952
15081W        W83411  17.262  25.992  12.019
15082W        W83412   1.423  41.037   4.126
15083W        W83413  18.615   9.731  11.397
15084W        W83414  20.672  32.039   3.803
15085W        W83415  12.645  27.660  13.005
15086W        W83416  36.503   4.396   0.428
15087W        W83417   0.899  41.837   3.636
15088W        W83418  14.787  12.163  13.907
15089W        W83419  38.037  11.666  12.958
15090W        W83420  42.897  37.956   2.181
15091W        W83421  39.880  37.047  10.440
15092W        W83422   3.861  10.678  14.329
15093W        W83423  33.986  43.341   0.956
15094W        W83424   9.284  30.137  14.011
15095W        W83425   4.816  14.744   2.764
15096W        W83426  21.535   2.238   3.267
15097W        W83427  30.545  24.481  10.522
15098W        W83428  20.717   7.845   0.778
15099W        W83429  25.694  30.412  10.635
15100W        W83430  12.338  33.546  12.917
15101W        W83431  32.098  19.695   9.955
15102W        W83432  41.022  37.064  11.905
15103W        W83433  15.608  23.674  11.878
15104W        W83434  34.411  39.330  11.961
15105W        W83435  25.141  25.633   2.899
15106W        W83436  17.231  40.315   4.265
15107W        W83437  32.070  41.342  13.500
15108W        W83438  20.539  38.545  14.403
15109W        W83439  12.624  22.599  12.865
15110W        W83440   9.199  16.194   1.769
15111W        W83441   6.777  42.902   0.782
15112W        W83442   1.296  32.892   1.885
15113W        W83443  21.168  14.207   3.701
15114W        W83444  12.717  20.658   1.368
15115W        W83445  27.151   8.218   2.720
15116W        W83446  32.110  14.677  12.083
15117W        W83447  18.247  27.468  13.007
15118W        W83448  33.434  22.211  13.467
15119W        W83449  33.936  29.468   2.884
15120W        W83450  41.393   0.918   3.747
15121W        W83451   7.780   9.851   4.330
15122W        W83452  10.346  26.990   2.231
15123W        W83453  29.449  13.746  12.890
15124W        W83454  17.134  24.069   5.259
15125W        W83455  12.209  11.645   1.432
15126W        W83456  44.456  29.630   1.307
15127W        W83457  37.960  12.693  10.045
15128W        W83458  37.012  25.216   2.744
15129W        W83459  20.586  44.779   1.822
15130W        W83460   6.389  10.297   2.841
15131W        W83461   5.195  10.314  10.574
15132W        W83462  30.136  41.794  14.411
15133W        W83463   5.879  28.461  14.347
15134W        W83464   0.275  30.145   3.176
15135W        W83465  18.577   1.739   0.254
15136W        W83466  20.245  11.235  10.908
15137W        W83467  35.918  28.987   3.371
15138W        W83468  31.562  12.843  12.491
15139W        W83469   5.230  11.356   2.844
15140W        W83470   9.276  34.475  10.895
15141W        W83471  12.741   2.890  13.449
15142W        W83472  38.327   4.259   4.332
15143W        W83473  26.064  19.558   4.615
15144W        W83474  32.984   9.889  11.393
15145W        W83475  21.129  24.587  10.418
15146W        W83476  28.999  14.590   3.363
15147W        W83477   3.219  22.617   0.454
15148W        W83478  44.943  19.204  12.066
15149W        W83479  15.203   0.348   4.713
15150W        W83480   0.789  30.103  13.473
15151W        W83481  44.826   1.378   3.826
15152W        W83482   8.238  10.271  12.474
15153W        W83483  17.177  37.430   4.790
15154W        W83484   6.754  41.908  13.524
15155W        W83485  38.994  31.109   2.262
15156W        W83486   6.794  26.492  13.946
15157W        W83487  14.220  30.471  13.849
15158W        W83488  14.285   8.274   0.731
15159W        W83489  22.708  12.346  11.510
15160W        W83490  35.404  11.636   0.781
15161W        W83491  40.543  41.448   1.800
15162W        W83492  37.339  31.434  13.017
15163W        W83493  27.601  37.856  10.890
15164W        W83494  23.491  18.062   2.825
15165W        W83495  42.311  21.669   3.226
15166W        W83496   0.965  22.671   4.294
15167W        W83497  10.747   1.760  14.411
15168W        W83498   5.438   4.316   2.329
15169W        W83499   5.227  27.658   2.304
15170W        W83500  29.019  17.624  12.033
15171W        W83501  42.929   6.905   3.646
15172W        W83502  11.230  14.138  11.553
15173W        W83503  36.420  16.210  13.503
15174W        W83504   7.792  23.682  14.878
15175W        W83505   6.351   3.336   2.380
15176W        W83506  15.637  40.373  13.933
15177W        W83507   0.882  39.522   2.738
15178W        W83508  15.239   9.882   4.279
15179W        W83509  30.424  42.825   1.411
15180W        W83510  40.953  41.509  11.572
15181W        W83511  29.628  31.019   0.299
15182W        W83512   5.824  15.108   3.701
15183W        W83513   8.777  20.764  14.805
15184W        W83514  44.839  19.109  10.526
15185W        W83515  39.340  12.810   1.376
15186W        W83516  34.867  13.702  11.064
15187W        W83517  30.444  43.383  13.377
15188W        W83518  33.953  33.952   3.707
15189W        W83519  15.132  31.482  14.365
15190W        W83520  17.071  15.772   3.235
15191W        W83521  20.068  35.588  12.075
15192W        W83522  38.448   6.224  14.359
15193W        W83523  29.647  14.689   1.712
15194W        W83524   7.666  19.197  14.435
15195W        W83525  37.340  14.769   5.109
15196W        W83526   4.370   7.288  13.827
15197W        W83527  19.107  30.546   0.730
15198W        W83528  17.579  44.837  11.906
15199W        W83529  15.082  28.959   1.898
15200W        W83530  25.014  25.471   2.203
15201W        W83531  20.557  22.564  11.965
15202W        W83532  24.223   0.793  10.982
15203W        W83533  25.045  14.709  12.075
15204W        W83534  40.905   6.344   4.603
15205W        W83535  38.400  16.277   0.952
15206W        W83536  30.129  22.591  10.484
15207W        W83537   6.400  22.669   2.664
15208W        W83538  21.234  24.048   2.789
15209W        W83539  11.266  44.852  13.520
15210W        W83540   4.296  40.914   4.658
15211W        W83541  29.018   0.348   1.704
15212W        W83542  23.701   5.863  11.430
15213W        W83543  28.444  15.209   3.274
15214W        W83544  34.385   1.797   1.387
15215W        W83545  18.741  37.470  10.639
15216W        W83546  35.455  21.634  14.777
15217W        W83547  33.483  30.923  14.325
15218W        W83548  10.234  25.108   4.708
15219W        W83549   4.928  11.216   1.268
15220W        W83550  34.561  40.900   0.744
15221W        W83551  44.395  23.523  11.581
15222W        W83552  27.984  26.691  12.937
15223W        W83553  10.830  18.232   4.803
15224W        W83554  31.632  12.762  11.489
15225W        W83555  32.125  44.502   4.203
15226W        W83556  30.994  33.946  12.545
15227W        W83557   1.309  25.491  13.365
15228W        W83558  34.557  31.898   4.200
15229W        W83559  39.815  29.085   1.361
15230W        W83560  36.863  20.749  14.489
15231W        W83561  37.893  36.889   3.190
15232W        W83562  25.145  37.070   1.900
15233W        W83563  16.794  18.067   0.411
15234W        W83564   6.200   7.791   1.905
15235W        W83565   2.415  32.986   4.350
15236W        W83566   0.824   3.797   4.302
15237W        W83567  28.457  26.488  11.452
15238W        W83568   8.187  29.627   1.829
15239W        W83569   7.286  12.176  13.508
15240W        W83570   9.653  28.533  10.631
15241W        W83571  43.418  32.549   0.386
15242W        W83572   9.661  26.084   2.708
15243W        W83573  19.719  33.503  12.958
15244W        W83574  32.555  32.548  13.997
15245W        W83575  31.078  23.669   4.233
15246W        W83576  17.679  14.762  12.452
15247W        W83577   5.712  20.579  11.911
15248W        W83578   2.364  38.361   1.422
15249W        W83579  37.858  35.912  10.516
15250W        W83580  30.518  23.184  14.444
15251W        W83581   9.776  17.254  14.420
15252W        W83582   0.256   1.813  14.934
15253W        W83583  13.323  41.477  10.109
15254W        W83584  25.989  30.979  12.004
15255W        W83585  14.307  38.333   3.649
15256W        W83586   2.723  38.870   4.205
15257W        W83587  32.944  39.527  12.499
15258W        W83588   8.717  14.683   2.727
15259W        W83589  16.085  19.103  11.002
15260W        W83590   7.370  28.185  14.883
15261W        W83591  42.382  42.330  12.967
15262W        W83592  44.333   3.283   2.306
15263W        W83593   0.418  35.970  10.619
15264W        W83594   2.247  30.425  12.350
15265W        W83595  41.397  15.258   3.667
15266W        W83596  20.602   4.447  12.565
15267W        W83597  31.103  33.028   0.771
15268W        W83598  39.455  39.827  11.565
15269W        W83599  30.981  42.972   2.291
15270W        W83600  38.003  14.716   3.713
15271W        W83601   7.728  30.126   4.641
15272W        W83602  44.982  33.977  13.824
15273W        W83603   6.410   4.865   1.272
15274W        W83604   1.897   6.379   4.747
15275W        W83605  34.464  37.954   4.652
15276W        W83606   1.301  39.820  12.429
15277W        W83607  12.162  36.421   4.155
15278W        W83608  25.010  40.972  10.984
15279W        W83609  39.501  26.961  12.525
15280W        W83610  21.582  31.938  10.097
15281W        W83611  18.293  38.995  13.451
15282W        W83612  35.972   8.861   4.353
15283W        W83613  33.592  12.332   3.302
15284W        W83614   4.867  27.021  12.869
15285W        W83615  10.160  38.888   0.869
15286W        W83616   2.461   3.240  13.869
15287W        W83617  27.630  21.061  11.386
15288W        W83618  31.077  17.165  11.432
15289W        W83619  39.974  34.379   0.838
15290W        W83620  18.693  37.978  14.004
15291W        W83621  31.098  43.432  11.031
15292W        W83622  21.550  17.162  10.485
15293W        W83623   4.374  34.431   3.331
15294W        W83624  36.470   2.768  13.397
15295W        W83625  19.566  43.285  12.370
15296W        W83626  17.166  32.615   3.271
15297W        W83627  40.015  34.562  11.493
15298W        W83628   8.841  41.326  10.477
15299W        W83629  11.273  38.830  14.938
15300W        W83630  15.798  34.412   1.757
15301W        W83631  37.356  26.665  14.453
15302W        W83632  24.483  29.512   0.962
15303W        W83633  39.477  41.490  11.919
15304W        W83634  35.905  25.002  14.984
15305W        W83635  34.518  27.510   3.856
15306W        W83636  36.847  36.874   3.638
15307W        W83637  43.876  14.658  13.516
15308W        W83638  39.392  27.943   2.797
15309W        W83639  25.689  23.714  14.423
15310W        W83640  22.710  19.752  10.967
15311W        W83641  11.155  34.591   2.901
15312W        W83642   6.714  36.464   3.735
15313W        W83643  43.310  27.559   2.191
15314W        W83644   4.744  13.606   4.756
15315W        W83645  13.711  11.831  12.426
15316W        W83646   5.868  17.765   1.277
15317W        W83647  27.967  20.666   1.873
15318W        W83648  20.185  20.038  13.483
15319W        W83649  18.667  41.808   1.325
15320W        W83650  20.614   2.417  13.511
15321W        W83651  13.183  16.629  12.005
15322W        W83652  15.577  41.012   2.755
15323W        W83653  29.556  22.238   3.241
15324W        W83654   4.766   1.443  12.445
15325W        W83655  13.828   5.911  13.851
15326W        W83656  40.824   8.206   2.868
15327W        W83657  21.106  26.051  10.923
15328W        W83658  41.820   2.773  14.424
15329W        W83659  40.940  26.539  10.598
15330W        W83660   6.244  12.186  12.396
15331W        W83661  10.742   2.349   1.387
15332W        W83662  15.298  15.086  11.561
15333W        W83663   4.386  15.252  13.951
15334W        W83664  30.985  42.030  13.994
15335W        W83665   4.207  12.196  13.505
15336W        W83666  34.041   6.717  11.008
15337W        W83667  25.041  27.124   0.273
15338W        W83668  19.227   9.201   4.196
15339W        W83669  31.480  38.033  14.458
15340W        W83670  40.455  41.361  13.985
15341W        W83671  39.392  21.644   0.933
15342W        W83672  42.419  11.686   4.759
15343W        W83673   1.424  34.572   4.836
15344W        W83674  28.964  15.617  12.545
15345W        W83675  25.649  31.423   3.251
15346W        W83676  32.986  15.318  14.926
15347W        W83677  33.105   7.779   1.249
15348W        W83678   8.666  21.122  11.409
15349W        W83679  16.724   1.362  13.317
15350W        W83680  38.400  31.089  12.997
15351W        W83681  24.604   6.221   3.182
15352W        W83682  37.976  41.434  11.907
15353W        W83683  19.179   7.277   2.826
15354W        W83684  16.299  13.171  12.849
15355W        W83685  44.312  17.254  13.864
15356W        W83686  41.429  39.539  13.861
15357W        W83687  30.140  41.377   0.269
15358W        W83688  39.420  38.032  14.855
15359W        W83689  32.553  43.814  11.942
15360W        W83690  32.097  41.805   5.314
15361W        W83691  39.445  27.647   4.622
15362W        W83692  32.635  14.809   3.843
15363W        W83693  10.246  28.083  11.563
15364W        W83694  20.731   6.875  12.005
15365W        W83695  40.837  19.535  14.903
15366W        W83696  36.899  28.467   4.336
15367W        W83697  28.506  19.612   1.427
15368W        W83698  26.549   4.231   9.950
15369W        W83699  44.294  33.070   3.647
15370W        W83700   5.327  14.311   2.280
15371W        W83701  31.930  21.058  14.418
15372W        W83702  40.905  33.121  14.969
15373W        W83703  24.495  35.882  14.963
15374W        W83704  22.684  16.152   0.922
15375W        W83705  33.994   0.842   4.636
15376W        W83706  39.434  41.407   3.150
15377W        W83707  15.127  31.922  13.822
15378W        W83708   7.204  25.199  13.824
15379W        W83709   6.838  14.174  11.874
15380W        W83710  24.587  30.119  14.816
15381W        W83711   1.809  20.731   4.820
15382W        W83712  20.655   2.451  14.998
15383W        W83713  41.486  35.450  11.943
15384W        W83714  17.296  24.013   1.852
15385W        W83715  15.787   4.775  14.888
15386W        W83716  35.535  18.111  10.406
15387W        W83717  35.551   1.798  14.986
15388W        W83718  25.162  24.076   2.301
15389W        W83719  15.083   8.194   1.333
15390W        W83720  22.253  36.015  13.320
15391W        W83721  10.836  37.565   4.821
15392W        W83722  35.451  41.524  12.554
15393W        W83723  40.376  14.095  10.948
15394W        W83724   2.791  24.053   4.303
15395W        W83725  30.154  12.136  12.559
15396W        W83726  33.004  20.580   2.808
15397W        W83727  37.922  30.577  10.974
15398W        W83728  34.596  35.604   2.707
15399W        W83729  14.789  30.972   3.324
15400W        W83730  41.943  30.488   1.917
15401W        W83731  32.130  44.291   1.863
15402W        W83732  23.605  15.606  12.852
15403W        W83733  19.767  32.990  10.453
15404W        W83734   5.415   7.404  14.953
15405W        W83735  43.326  28.666   2.337
15406W        W83736  26.952  19.127  13.368
15407W        W83737  30.055   2.469   2.754
15408W        W83738   8.316  43.434   2.231
15409W        W83739  35.377  33.506   0.824
15410W        W83740  39.512   8.346   3.734
15411W        W83741  13.751  44.413   1.396
15412W        W83742   5.777   7.801   0.906
15413W        W83743  20.751  10.180   1.271
15414W        W83744  22.114  19.042  12.884
15415W        W83745  26.648  31.130   2.415
15416W        W83746   2.906  15.095   3.248
15417W        W83747   6.737  11.372   0.819
15418W        W83748  24.637  19.137  14.393
15419W        W83749  17.160   4.936  12.992
15420W        W83750  27.589   4.836   4.148
15421W        W83751  17.240  31.933  11.092
15422W        W83752   1.292  21.551  11.902
15423W        W83753  35.873  13.184   3.829
15424W        W83754  16.640  33.096   0.774
15425W        W83755   7.731  32.566   1.872
15426W        W83756  15.728  21.613   2.757
15427W        W83757  16.166  18.278   2.828
15428W        W83758  26.637  12.286   9.542
15429W        W83759  41.368   5.431   3.701
15430W        W83760   3.883  38.833   9.588
15431W        W83761  15.802  18.574  13.394
15432W        W83762  11.810   5.753   4.604
15433W        W83763   7.230  11.240   0.863
15434W        W83764   4.299  37.403   0.780
15435W        W83765  25.597  25.038   1.751
15436W        W83766  13.631  20.198  10.591
15437W        W83767  19.044  23.684   4.256
15438W        W83768  18.710  41.436   2.313
15439W        W83769   9.189  30.496   4.140
15440W        W83770  14.821  10.699   1.300
15441W        W83771  37.411  18.110   1.767
15442W        W83772  36.370  36.375   0.845
15443W        W83773  31.542  32.975  11.376
15444W        W83774  23.590   6.848   1.437
15445W        W83775  30.493  43.831  13.331
15446W        W83776  37.553  43.925   1.756
15447W        W83777   0.849  44.799  14.992
15448W        W83778   5.267  40.366  11.044
15449W        W83779   7.672  32.547   3.167
15450W        W83780  44.318  38.906  13.823
15451W        W83781  34.963   5.201   3.294
15452W        W83782   3.761  14.134  13.910
15453W        W83783   8.840  26.629  14.805
15454W        W83784  38.513  11.683   2.232
15455W        W83785   5.221  30.109   3.302
15456W        W83786  32.124  30.532   3.330
15457W        W83787   7.900  21.046  14.995
15458W        W83788  13.743   4.935  13.499
15459W        W83789  44.348  21.069   4.690
15460W        W83790  16.655  35.015   3.819
15461W        W83791  23.555  40.408  13.319
15462W        W83792   8.367  39.452   3.817
15463W        W83793  22.667   2.878   4.608
15464W        W83794  16.276  10.741   0.396
15465W        W83795  31.096  30.441  14.449
15466W        W83796  11.747   5.380   1.335
15467W        W83797  34.606  12.760   4.182
15468W        W83798  37.918  21.250   3.664
15469W        W83799  30.129  17.628   2.328
15470W        W83800  12.684  11.301  14.440
15471W        W83801  38.571  40.326   2.753
15472W        W83802   0.395  27.075   2.692
15473W        W83803  19.241  44.928  10.595
15474W        W83804   3.279  24.984  14.390
15475W        W83805   7.205  44.832  14.943
15476W        W83806  21.676  43.275   4.322
15477W        W83807  11.770  28.456  12.414
15478W        W83808  29.945   8.371   4.235
15479W        W83809  17.762  35.438  13.033
15480W        W83810  29.540   0.861   1.772
15481W        W83811  10.841  38.935   4.767
15482W        W83812  16.107  33.024   3.213
15483W        W83813  25.482  26.017  13.391
15484W        W83814   5.866  43.932   0.918
15485W        W83815  10.264  14.732  10.478
15486W        W83816  36.085  20.028  14.821
15487W        W83817   2.319  37.513  13.850
15488W        W83818  12.705  18.085   1.835
15489W        W83819  24.485  29.462   3.238
15490W        W83820   9.801  18.180   2.392
15491W        W83821  38.384  12.725   2.835
15492W        W83822   5.307   2.291  13.414
15493W        W83823  38.404   1.884   4.179
15494W        W83824  28.125  29.947   1.738
15495W        W83825  19.044   1.461   4.353
15496W        W83826  34.921  27.585   4.207
15497W        W83827  19.143  26.097  13.927
15498W        W83828  39.851  10.863   4.348
15499W        W83829  19.675  44.404  14.365
15500W        W83830   3.831  42.968  12.531
15501W        W83831   0.460   1.400  14.001
15502W        W83832   5.756  16.160   3.858
15503W        W83833   4.828  27.088  11.112
15504W        W83834  12.327  37.948  14.494
15505W        W83835  33.572  41.900   4.142
15506W        W83836  25.144  10.252  14.413
15507W        W83837  11.281  34.053  11.990
15508W        W83838  10.826  17.792  11.415
15509W        W83839  28.096  29.433   2.787
15510W        W83840  44.815  32.496   1.402
15511W        W83841  32.417  25.180   3.867
15512W        W83842  12.616   8.239  10.626
15513W        W83843   4.437  18.631   4.778
15514W        W83844   2.919   8.672   2.212
15515W        W83845  30.495  10.314  11.410
15516W        W83846  33.976  10.703  11.464
15517W        W83847  34.542  20.126  11.037
15518W        W83848  42.879  33.936   4.192
15519W        W83849  28.524  41.845  11.473
15520W        W83850   9.696  44.994   4.319
15521W        W83851  21.609  26.134   0.281
15522W        W83852  37.897  21.686  10.600
15523W        W83853  14.818  23.009  14.902
15524W        W83854  37.944  43.491   2.417
15525W        W83855  40.823  19.581   4.824
15526W        W83856  38.923  10.774  10.973
15527W        W83857  11.248  29.139   4.624
15528W        W83858  28.087  14.181  13.348
15529W        W83859  13.681  36.957  12.527
15530W        W83860  24.186  31.622   4.136
15531W        W83861   4.275  28.968  14.284
15532W        W83862  41.032  40.818   2.708
15533W        W83863   0.937   7.310  12.461
15534W        W83864  28.972   2.942   4.650
15535W        W83865  33.938   7.748   1.796
15536W        W83866  29.029  41.526   1.896
15537W        W83867  37.510   8.237  12.564
15538W        W83868  21.628   6.843  12.432
15539W        W83869  21.697  31.090  10.111
15540W        W83870  33.003  39.925   4.257
15541W        W83871  37.960  36.553   0.816
15542W        W83872  41.386  16.717   0.911
15543W        W83873   1.864  33.402   1.901
15544W        W83874  37.890  39.365  13.520
15545W        W83875  34.088  13.678  12.357
15546W        W83876  13.348  25.991   0.418
15547W        W83877  26.071  23.227   3.772
15548W        W83878  37.024  18.698  11.447
15549W        W83879  19.600  12.667   2.874
15550W        W83880  40.906  12.334  12.830
15551W        W83881   1.284   5.858  11.865
15552W        W83882  19.244  15.699   3.805
15553W        W83883  29.552   1.939   4.316
15554W        W83884   2.441  18.616   2.791
15555W        W83885  24.568   5.929  11.517
15556W        W83886  23.022  42.884   0.244
15557W        W83887  22.567   9.863  14.013
15558W        W83888  14.630  40.911  14.760
15559W        W83889  30.077  17.269   4.697
15560W        W83890  28.174  10.220  13.482
15561W        W83891   6.385  10.690  14.864
15562W        W83892  44.383  27.034   3.766
15563W        W83893  25.084   6.715  14.435
15564W        W83894  26.655  30.928   0.857
15565W        W83895   0.342   0.283   2.408
15566W        W83896  42.004  19.610   2.757
15567W        W83897  24.171  37.897  13.053
15568W        W83898  36.913  32.897  11.903
15569W        W83899  34.404  10.806  11.593
15570W        W83900   1.938  22.128   2.311
15571W        W83901  31.095  14.257   4.725
15572W        W83902   0.428  22.703   4.777
15573W        W83903  17.610  43.357   1.406
15574W        W83904  11.847   2.229  11.967
15575W        W83905  16.596  16.706   1.308
15576W        W83906  38.917  12.261  11.120
15577W        W83907  16.090  41.319   5.153
15578W        W83908  15.224  28.135  12.923
15579W        W83909   5.727  30.445   0.360
15580W        W83910  22.191  35.988   1.695
15581W        W83911  36.416  19.254   1.269
15582W        W83912  23.552  23.198  14.356
15583W        W83913  29.083  15.761   3.658
15584W        W83914   8.722  40.016   4.152
15585W        W83915  30.926   4.727  13.987
15586W        W83916  16.182  10.380   4.181
15587W        W83917  24.580  11.327  11.114
15588W        W83918  11.775  17.268   3.232
15589W        W83919  42.358  21.180  11.073
15590W        W83920  12.197  40.396   3.813
15591W        W83921  35.381  27.673   1.926
15592W        W83922  41.306  26.138   0.729
15593W        W83923  27.525  29.092  14.367
15594W        W83924  42.362  15.800  13.358
15595W        W83925  25.560  14.695  10.953
15596W        W83926   1.378  40.990  11.477
15597W        W83927   1.976  16.076   4.197
15598W        W83928   0.785  11.746   1.271
15599W        W83929  17.226  42.801  11.611
15600W        W83930  20.100  14.793   3.732
15601W        W83931   9.180   8.774   0.868
15602W        W83932  42.512  15.786  12.369
15603W        W83933   0.494   8.681   2.404
15604W        W83934  20.566  31.628   2.353
15605W        W83935   8.736  23.014   2.305
15606W        W83936  40.852  25.622   0.926
15607W        W83937  38.358  35.864  11.439
15608W        W83938  25.205  11.132  10.930
15609W        W83939  26.643  21.545   0.896
15610W        W83940   0.818  13.685   4.289
15611W        W83941  12.755  17.170  12.387
15612W        W83942  33.087  21.145   0.391
15613W        W83943  41.861  37.393  11.455
15614W        W83944  33.462  35.997   2.407
15615W        W83945   8.867  42.014  13.016
15616W        W83946   4.257  21.225  12.035
15617W        W83947  43.303  39.034  10.405
15618W        W83948   4.747  27.955  13.309
15619W        W83949   4.430   9.819  14.923
15620W        W83950  41.942  16.643   2.394
15621W        W83951  16.578   5.723   0.965
15622W        W83952  31.517  13.616  12.908
15623W        W83953  10.653   1.239  10.524
15624W        W83954  13.775  38.962  11.044
15625W        W83955  20.545  14.294  14.794
15626W        W83956  24.558  26.647  10.074
15627W        W83957  27.671  42.878   4.188
15628W        W83958  34.450   3.932  13.511
15629W        W83959  24.716  20.759   0.306
15630W        W83960  27.132  41.478  14.346
15631W        W83961   9.800   6.415   3.710
15632W        W83962  42.508  30.554  12.842
15633W        W83963  28.549  44.787  10.940
15634W        W83964  33.469  35.059   0.798
15635W        W83965  24.179   5.233   2.392
15636W        W83966  30.156  31.062   1.410
15637W        W83967  23.993  28.454   1.890
15638W        W83968  30.085  37.542  11.109
15639W        W83969  25.218  19.731  11.905
15640W        W83970  22.229   6.392   2.401
15641W        W83971   7.898  12.798   3.253
15642W        W83972  27.151  41.039   4.309
15643W        W83973  14.176  19.556  11.998
15644W        W83974  34.981  19.193   0.304
15645W        W83975   5.315  33.562   0.920
15646W        W83976  28.182  34.400   1.237
15647W        W83977  22.668  25.003  10.620
15648W        W83978  33.533   2.919  10.611
15649W        W83979  41.926   8.305  13.895
15650W        W83980  20.641  35.873   2.680
15651W        W83981  34.899   8.308   3.348
15652W        W83982  21.536  19.586  14.842
15653W        W83983   1.938  17.711   1.264
15654W        W83984   7.417  17.193   4.163
15655W        W83985  29.125  41.463  14.937
15656W        W83986  42.356  27.651  10.905
15657W        W83987  44.849  15.184   4.820
15658W        W83988  13.347  22.078  12.045
15659W        W83989  19.261  15.294   3.363
15660W        W83990  22.525  30.987   0.790
15661W        W83991  33.985  40.507   4.760
15662W        W83992  42.527   4.365   2.240
15663W        W83993  29.020  31.098  10.505
15664W        W83994  34.052  37.378  12.058
15665W        W83995  38.372   3.924  10.440
15666W        W83996  26.197  21.070   1.771
15667W        W83997  39.350  22.561  12.091
15668W        W83998  16.606   2.888  11.510
15669W        W83999  27.451   1.466  10.451
15670W        W84000   9.316  32.470  13.520
15671W        W84001  39.501   1.364  13.401
15672W        W84002   8.786  15.757   3.700
15673W        W84003  41.990  11.699   3.373
15674W        W84004  18.730  31.088  13.313
15675W        W84005  15.161  32.493   4.304
15676W        W84006  17.070  16.725   1.864
15677W        W84007  28.063  32.086   9.983
15678W        W84008  39.858   4.758  14.974
15679W        W84009  42.521  31.036   4.622
15680W        W84010  12.611  11.681  13.366
15681W        W84011  24.630  10.379   2.849
15682W        W84012  25.994   0.368  12.535
15683W        W84013   6.714  19.678  13.848
15684W        W84014  19.147  11.331  14.992
15685W        W84015  27.047  14.820  13.925
15686W        W84016   0.316   7.183   3.281
15687W        W84017  26.198  19.284   3.281
15688W        W84018  23.551  17.071   0.846
15689W        W84019  28.090  37.502   2.793
15690W        W84020  27.189   6.799  12.391
15691W        W84021  28.975   8.370  14.516
15692W        W84022   5.690   6.238  10.966
15693W        W84023  28.119   6.213   5.100
15694W        W84024  21.518   3.290   1.779
15695W        W84025  28.952  20.084   2.388
15696W        W84026  41.799  44.780   3.823
15697W        W84027  41.950  15.108   4.205
15698W        W84028  13.125   4.387   0.899
15699W        W84029  41.802   5.248  10.892
15700W        W84030  17.147  32.047   0.734
15701W        W84031  16.258  10.818  10.510
15702W        W84032  33.588  34.604  12.014
15703W        W84033  38.487  10.264  14.968
15704W        W84034  17.631  23.692  13.545
15705W        W84035  38.854  35.048   5.257
15706W        W84036  42.300  28.182  14.793
15707W        W84037  28.434  14.789   0.809
15708W        W84038   5.928  29.614  12.472
15709W        W84039   4.276  12.144  11.129
15710W        W84040  32.914  16.211   4.833
15711W        W84041  33.517  23.508   0.739
15712W        W84042  17.194  16.643   4.697
15713W        W84043  18.571  34.887  12.377
15714W        W84044   6.315  30.520   1.345
15715W        W84045  13.737  31.937  10.942
15716W        W84046  27.590  35.499  11.112
15717W        W84047  16.629  37.912  13.546
15718W        W84048  17.077   0.454   2.710
15719W        W84049  16.570  19.663  12.548
15720W        W84050  30.042  41.369  14.397
15721W        W84051  19.122   4.725  14.788
15722W        W84052  23.206  43.283  12.570
15723W        W84053  42.796  18.065  14.849
15724W        W84054  42.927  38.964   3.685
15725W        W84055   0.488  30.042  14.806
15726W        W84056  32.995  19.571  14.870
15727W        W84057   8.901  26.148   0.817
15728W        W84058   1.340   2.317  10.638
15729W        W84059   3.855   8.821   1.441
15730W        W84060  40.053  41.444   4.821
15731W        W84061  40.445  29.079  11.480
15732W        W84062  18.707  24.719   4.716
15733W        W84063  30.589  32.048  12.972
15734W        W84064  34.408   7.809   2.315
15735W        W84065  22.595   1.801   4.139
15736W        W84066  38.550  25.683  14.355
15737W        W84067  10.799  34.943   2.404
15738W        W84068   6.345  11.692  14.030
15739W        W84069   7.385  24.138  12.347
15740W        W84070  10.194  40.427   4.276
15741W        W84071  22.159  28.963  11.097
15742W        W84072  23.041  20.052   2.393
15743W        W84073   7.671  30.466   4.604
15744W        W84074  17.223  37.885  11.611
15745W        W84075   3.256  30.576  12.538
15746W        W84076  18.089  26.513  13.355
15747W        W84077  42.433  18.067  12.977
15748W        W84078  36.455  11.289  14.947
15749W        W84079  14.289  34.064  11.889
15750W        W84080  14.256  26.141   1.344
15751W        W84081  41.475  18.164   2.799
15752W        W84082  11.282   7.226  14.920
15753W        W84083  13.183  15.602  10.003
15754W        W84084   3.887   6.919   1.762
15755W        W84085  35.474  26.071  12.541
15756W        W84086  10.790  36.850   2.255
15757W        W84087   7.295   4.802   2.306
15758W        W84088  38.480  33.538  14.330
15759W        W84089  38.941  38.399  12.576
15760W        W84090   0.962  16.658   4.666
15761W        W84091  22.086   7.679  12.372
15762W        W84092  13.814  13.155  11.436
15763W        W84093  14.099  13.696   3.667
15764W        W84094  33.466  37.000   0.765
15765W        W84095   4.423  21.721   1.848
15766W        W84096  14.183   1.249  11.536
15767W        W84097  39.520  29.021  13.390
15768W        W84098   1.855  10.864  10.562
15769W        W84099   7.711  37.539   2.890
15770W        W84100   4.823  20.097   0.333
15771W        W84101   2.374   7.758  11.000
15772W        W84102  37.881  24.723   1.862
15773W        W84103  19.270  13.107   4.756
15774W        W84104  29.661  32.099   5.172
15775W        W84105  21.712  31.119  11.009
15776W        W84106  35.015  40.452  14.410
15777W        W84107  17.104  34.869   2.709
15778W        W84108   1.430  10.643   3.751
15779W        W84109  25.645  14.703   3.207
15780W        W84110   1.437   7.285  12.493
15781W        W84111  28.443   0.857  10.416
15782W        W84112  19.647  13.772  13.416
15783W        W84113  29.467  22.710  14.970
15784W        W84114  40.023  27.522  10.485
15785W        W84115  41.339  29.152  12.443
15786W        W84116  29.622  14.733   2.349
15787W        W84117  14.630  38.951  12.982
15788W        W84118   2.798  39.893  14.872
15789W        W84119  22.076   3.261  13.930
15790W        W84120  19.582   6.724  12.374
15791W        W84121  15.681  28.550   3.219
15792W        W84122  35.406   1.844  13.379
15793W        W84123  21.157  21.751   4.623
15794W        W84124  29.616  13.288  10.610
15795W        W84125   6.274  19.163   3.728
15796W        W84126  19.670  34.532   3.156
15797W        W84127  36.993  33.875   3.209
15798W        W84128  20.075  19.162  13.496
15799W        W84129  32.480   2.348  13.412
15800W        W84130   6.712  22.566   3.186
15801W        W84131  11.291  25.700   3.858
15802W        W84132  28.158  39.014   3.649
15803W        W84133  19.747   5.405  14.440
15804W        W84134   9.380  29.459  12.011
15805W        W84135  22.113  42.861   1.404
15806W        W84136   2.452  21.206   2.893
15807W        W84137  19.283   1.433  10.989
15808W        W84138  37.375  33.418  10.950
15809W        W84139  15.220  29.140   4.340
15810W        W84140  26.020  29.594   2.872
15811W        W84141  26.514   9.284  11.597
15812W        W84142   6.811  27.060  14.921
15813W        W84143  15.235  16.298  11.031
15814W        W84144  27.598   6.402   1.786
15815W        W84145  38.044   8.344   0.898
15816W        W84146   3.329  15.622   1.373
15817W        W84147  25.045  44.356  13.398
15818W        W84148  28.153   8.673  10.128
15819W        W84149  17.586  13.131   4.770
15820W        W84150  26.558   5.780   0.826
15821W        W84151  39.466  32.072  13.011
15822W        W84152   4.349   0.900   1.734
15823W        W84153  40.895  30.015   0.366
15824W        W84154  23.520  29.971  12.407
15825W        W84155  23.135  23.581  12.552
15826W        W84156  25.132   2.869  11.039
15827W        W84157  14.618  18.556   2.211
15828W        W84158   2.288  40.370  10.515
15829W        W84159  41.789  44.270  11.393
15830W        W84160  33.982  11.225  14.440
15831W        W84161  27.475  15.812  12.844
15832W        W84162   4.699  25.599  14.432
15833W        W84163  12.728  16.709  14.349
15834W        W84164  18.583  11.633  10.994
15835W        W84165  36.043  15.239   0.444
15836W        W84166  28.611  15.252  14.882
15837W        W84167  32.999  17.715   0.299
15838W        W84168  34.078   3.749   4.342
15839W        W84169  24.510  18.628  13.794
15840W        W84170   4.375  31.147   2.388
15841W        W84171  32.399  28.493   2.264
15842W        W84172   1.251  34.892   2.178
15843W        W84173  27.670  33.406   9.489
15844W        W84174   1.791  26.033   4.722
15845W        W84175  10.151   1.908  14.811
15846W        W84176   0.873  40.003  12.029
15847W        W84177  19.536   4.932   5.280
15848W        W84178   2.258  39.927  13.889
15849W        W84179  44.411  22.627   3.848
15850W        W84180  23.113   1.768  12.381
15851W        W84181   0.358  29.119  10.932
15852W        W84182   0.975  13.637   1.875
15853W        W84183  34.013  14.784  14.401
15854W        W84184  41.933  13.670  12.068
15855W        W84185  17.123  11.720   5.199
15856W        W84186  27.965   0.939  14.857
15857W        W84187  42.026   4.731   4.822
15858W        W84188  29.173  34.955   5.192
15859W        W84189  24.118  34.109  10.504
15860W        W84190  12.716  39.473   2.744
15861W        W84191  19.758  25.194   5.579
15862W        W84192  11.838  11.251  10.527
15863W        W84193  13.148  42.407   1.923
15864W        W84194  23.208  12.207   2.351
15865W        W84195  10.787  11.299  13.815
15866W        W84196   6.204  11.713  14.893
15867W        W84197  16.662   4.373  12.070
15868W        W84198  22.085  15.329  14.015
15869W        W84199  23.566  39.483   2.220
15870W        W84200  43.427   4.415   4.707
15871W        W84201  37.447   2.446   2.231
15872W        W84202   8.701   0.326   3.833
15873W        W84203   0.934   6.919  11.385
15874W        W84204  33.874  37.363   4.140
15875W        W84205  23.678   9.660   3.199
15876W        W84206  32.563   4.288   2.770
15877W        W84207  40.506  32.135   4.333
15878W        W84208  26.036  13.270  12.543
15879W        W84209  42.514  35.439   1.294
15880W        W84210   5.719  20.246  13.477
15881W        W84211   4.237  36.573   3.362
15882W        W84212  20.732   1.893  10.902
15883W        W84213   4.279   0.963  13.813
15884W        W84214  28.174   4.238  10.032
15885W        W84215   6.222  24.532   2.836
15886W        W84216  17.286   1.838  10.899
15887W        W84217  14.177  41.944   2.358
15888W        W84218  34.912  15.706   3.182
15889W        W84219   4.916   1.369  14.316
15890W        W84220  35.989  37.079  12.956
15891W        W84221   0.251   8.400  13.350
15892W        W84222  13.603  35.426  13.426
15893W        W84223  16.232  14.668  14.782
15894W        W84224  44.358  18.760  12.014
15895W        W84225  35.875  11.817  10.901
15896W        W84226  16.314  43.909  10.611
15897W        W84227  17.108  20.608  12.418
15898W        W84228   3.358   7.695  14.447
15899W        W84229   3.848  34.371  11.557
15900W        W84230  14.174   4.906  13.931
15901W        W84231  15.312  20.165  14.915
15902W        W84232  32.911  38.013  10.450
15903W        W84233   8.746  36.961   3.716
15904W        W84234  22.624  42.806   1.923
15905W        W84235  33.972   0.893  11.580
15906W        W84236  12.658  42.490   4.207
15907W        W84237  25.209  33.067   0.833
15908W        W84238  17.234  20.036   1.424
15909W        W84239  11.824   3.374   5.289
15910W        W84240  13.720  11.312  12.531
15911W        W84241  43.444   2.935   3.842
15912W        W84242   5.383  17.570  13.011
15913W        W84243  36.044  37.455  13.419
15914W        W84244  42.332  14.626  12.517
15915W        W84245  25.681  18.548   1.915
15916W        W84246  38.892  44.907   4.206
15917W        W84247  20.662   9.739   1.875
15918W        W84248  40.929   6.294  11.112
15919W        W84249  31.070   5.803   0.373
15920W        W84250  18.223  14.148  11.871
15921W        W84251  21.589   4.761  12.572
15922W        W84252  14.710  28.038   4.294
15923W        W84253  30.130  39.341   1.329
15924W        W84254   6.896  29.996   3.191
15925W        W84255   7.318  30.929  13.063
15926W        W84256  24.201  25.653  11.098
15927W        W84257  34.451  32.499   1.865
15928W        W84258  10.782  12.286  11.128
15929W        W84259  22.565  10.370   3.248
15930W        W84260   3.292  41.870  12.518
15931W        W84261  39.382  34.872  13.839
15932W        W84262  10.851  16.751  11.373
15933W        W84263   9.689  42.406   2.406
15934W        W84264   1.250  33.543   4.195
15935W        W84265  42.330  17.654   0.423
15936W        W84266   1.970  31.074   2.358
15937W        W84267  29.603  35.860  13.859
15938W        W84268  25.472  35.470   4.118
15939W        W84269   4.411  14.654   2.292
15940W        W84270  12.341  31.454  14.968
15941W        W84271  23.548  17.099  13.357
15942W        W84272  18.687  13.119   0.904
15943W        W84273  18.093  21.594  13.858
15944W        W84274  23.721  41.013  12.895
15945W        W84275  37.968  35.430   1.891
15946W        W84276  21.026  11.696   1.863
15947W        W84277  19.543  19.256   2.829
15948W        W84278  10.839   5.726  10.890
15949W        W84279  42.875  18.785  13.352
15950W        W84280  29.426   8.751  10.148
15951W        W84281  32.598  36.376   0.271
15952W        W84282  10.757  10.335   1.821
15953W        W84283  29.943  11.171  14.918
15954W        W84284  37.965  26.086   2.835
15955W        W84285  17.793  33.549  12.928
15956W        W84286  34.103   1.741  12.567
15957W        W84287  37.977   9.673  12.047
15958W        W84288  37.559  28.621   3.215
15959W        W84289  26.952   8.256  13.490
15960W        W84290   2.401   6.395   4.822
15961W        W84291   0.290  37.976   4.330
15962W        W84292  27.641  39.912  10.462
15963W        W84293  28.971   5.395  13.050
15964W        W84294  34.971  27.185  12.087
15965W        W84295  23.560   8.787   2.191
15966W        W84296  24.648  26.580   2.698
15967W        W84297  14.774  31.460   3.772
15968W        W84298  41.337   9.263   4.691
15969W        W84299  35.093  21.551   3.639
15970W        W84300  33.008   3.364   0.332
15971W        W84301  16.153   4.782  12.852
15972W        W84302  12.191  31.017   1.258
15973W        W84303  24.991  38.541   4.637
15974W        W84304  10.850  10.293   3.309
15975W        W84305  42.470  34.444   0.841
15976W        W84306  33.566   6.805  11.072
15977W        W84307  12.339  43.794   2.784
15978W        W84308  38.009  42.814   1.882
15979W        W84309  10.812  15.288   3.354
15980W        W84310  38.467   5.691  11.477
15981W        W84311  27.138  25.086  12.514
15982W        W84312  30.530  33.551  13.943
15983W        W84313  26.046  37.923  10.613
15984W        W84314   5.283  37.542  13.038
15985W        W84315  42.028  42.356   3.744
15986W        W84316  16.721  25.540   5.612
15987W        W84317  30.641  37.504  13.914
15988W        W84318   4.387  29.518   2.316
15989W        W84319  36.893  14.190   1.744
15990W        W84320  41.486  38.877  14.903
15991W        W84321  13.164  24.513  14.428
15992W        W84322  29.167  35.978  12.375
15993W        W84323  42.032  30.415   4.198
15994W        W84324  26.651   7.266  10.088
15995W        W84325  30.454  14.665   0.275
15996W        W84326  38.387  32.119  10.915
15997W        W84327  36.393  15.652  11.478
15998W        W84328  41.374  17.783  10.464
15999W        W84329  33.002   9.305   1.715
16000W        W84330  29.628  39.018  13.052
16001W        W84331  29.079  43.997  12.827
16002W        W84332   5.411  12.182  12.915
16003W        W84333   9.715  32.578  11.000
16004W        W84334   8.254  34.933   4.124
16005W        W84335  33.598  31.490  10.986
16006W        W84336  27.605  43.283   0.779
16007W        W84337  19.692  33.429  11.945
16008W        W84338  16.240  11.251   3.222
16009W        W84339   0.947  18.750  13.801
16010W        W84340  17.698  23.123  12.096
16011W        W84341  26.691  20.199   0.945
16012W        W84342  30.919   9.235   1.371
16013W        W84343  24.620  12.184   4.166
16014W        W84344   8.171  35.960  14.986
16015W        W84345  36.490   5.706   4.808
16016W        W84346  26.620  12.697   3.355
16017W        W84347  38.494  43.926  13.530
16018W        W84348   9.154  23.156   0.366
16019W        W84349  15.316  11.764   2.754
16020W        W84350   2.768  43.301   0.844
16021W        W84351  41.372  44.828   3.241
16022W        W84352  41.863  35.078  10.564
16023W        W84353  36.430   4.937  14.759
16024W        W84354  38.324  35.583  10.629
16025W        W84355   1.776  21.592  13.879
16026W        W84356  14.715   8.863  12.929
16027W        W84357  35.474  31.137   0.870
16028W        W84358  16.295  10.861   0.826
16029W        W84359  32.977  27.595  11.918
16030W        W84360  24.200  41.007  10.573
16031W        W84361  32.019   5.798  12.360
16032W        W84362  35.361  14.279   3.268
16033W        W84363   2.345  13.801   4.149
16034W        W84364  14.788   6.287  13.846
16035W        W84365  35.085  44.259  14.448
16036W        W84366   5.738   4.215   1.917
16037W        W84367   9.790  41.388   4.288
16038W        W84368  13.675  19.731  11.939
16039W        W84369  27.196  22.077   3.265
16040W        W84370   6.859   7.352   4.332
16041W        W84371  28.017  13.272  14.021
16042W        W84372   2.249  44.452  10.987
16043W        W84373  30.006  44.952   0.463
16044W        W84374  41.007   3.717   2.228
16045W        W84375  22.739  40.848  11.948
16046W        W84376  32.044  23.712  11.033
16047W        W84377  21.175  12.736  12.900
16048W        W84378  13.757  44.397  14.376
16049W        W84379  23.586  12.850   0.748
16050W        W84380  40.942   4.809  13.811
16051W        W84381  36.913   2.832   2.349
16052W        W84382   3.901  19.752  13.363
16053W        W84383  22.081  41.813  14.869
16054W        W84384  40.915   5.710   5.696
16055W        W84385  11.314  41.886   0.261
16056W        W84386  21.076  18.592   2.214
16057W        W84387  35.372  32.591  10.418
16058W        W84388  13.276   0.485  11.434
16059W        W84389   7.788  43.955  11.376
16060W        W84390  21.134  41.505  14.900
16061W        W84391  23.143  37.390   1.795
16062W        W84392  31.612   4.811   0.958
16063W        W84393   0.807  34.100  12.346
16064W        W84394  28.623   7.242   2.286
16065W        W84395  42.817  25.657  11.115
16066W        W84396  14.146  40.528  14.441
16067W        W84397   3.389  24.520  10.481
16068W        W84398  29.516  23.572   4.731
16069W        W84399  25.486  11.329   5.121
16070W        W84400  31.011   7.263  13.310
16071W        W84401  44.327  26.086  10.547
16072W        W84402   1.356  25.483   3.746
16073W        W84403  41.857   1.302  14.777
16074W        W84404  41.502  41.937  12.406
16075W        W84405  21.171  20.154   5.726
16076W        W84406  14.147  37.866   1.233
16077W        W84407  19.099  31.596  13.040
16078W        W84408  34.020  37.393   3.699
16079W        W84409   7.188  31.109  12.457
16080W        W84410  29.538  28.574   2.893
16081W        W84411  38.531  43.305   2.871
16082W        W84412  13.300   5.294  11.496
16083W        W84413  19.255  38.454  14.980
16084W        W84414  16.234   1.345  14.292
16085W        W84415  32.590  15.802   4.778
16086W        W84416  37.046  22.673   0.815
16087W        W84417   2.332   9.812  14.513
16088W        W84418  19.099   1.893  11.533
16089W        W84419  15.599  41.322   4.780
16090W        W84420  42.376  28.182   3.857
16091W        W84421  38.444  21.571   1.224
16092W        W84422   7.282  34.864  11.521
16093W        W84423  26.165  11.669   1.252
16094W        W84424   8.816  38.845   4.817
16095W        W84425   3.757  25.533  10.447
16096W        W84426   8.201  15.292   3.236
16097W        W84427  16.701  42.398   0.460
16098W        W84428  38.952  19.721  14.810
16099W        W84429  38.541   9.357   4.135
16100W        W84430   5.740  38.946   0.460
16101W        W84431  30.469  40.482   3.765
16102W        W84432  20.712  43.375  14.501
16103W        W84433  38.421  30.985   1.434
16104W        W84434  29.139   9.254   0.321
16105W        W84435  41.036  39.992  10.576
16106W        W84436  17.094   1.355   3.248
16107W        W84437  16.576  27.136  14.325
16108W        W84438   6.904  26.124   3.353
16109W        W84439  18.178  13.299  10.595
16110W        W84440  28.165  34.880   4.724
16111W        W84441  24.153  14.282  14.513
16112W        W84442   9.771  20.617   2.283
16113W        W84443  11.170  38.491  12.919
16114W        W84444   0.880  12.330   0.254
16115W        W84445  44.910  27.466   0.920
16116W        W84446  43.876  39.888  13.437
16117W        W84447  38.925   7.782  12.401
16118W        W84448  35.991  38.370  14.491
16119W        W84449  31.984  44.884   1.713
16120W        W84450  44.898  36.863  13.323
16121W        W84451  10.778  20.767   1.818
16122W        W84452  26.646   3.791  13.398
16123W        W84453   2.360  24.620  11.984
16124W        W84454  33.893  16.232  12.348
16125W        W84455   4.736   0.828  12.469
16126W        W84456  13.670  34.947   0.426
16127W        W84457  21.118   0.439   1.797
16128W        W84458  33.593  35.604  12.861
16129W        W84459  38.505  29.116  10.567
16130W        W84460  15.263  27.463  12.565
16131W        W84461  11.747  37.570   9.975
16132W        W84462  33.065  18.761  11.948
16133W        W84463  13.789  11.183   0.405
16134W        W84464  12.165  13.830   0.733
16135W        W84465   7.266   6.397  13.379
16136W        W84466  42.853  11.310  10.538
16137W        W84467   5.411  27.510   3.661
16138W        W84468  11.684   7.341   4.799
16139W        W84469   2.441  22.140   0.353
16140W        W84470  27.571  44.493   3.350
16141W        W84471  42.877  15.180   4.241
16142W        W84472  36.963  37.885   1.811
16143W        W84473  10.307  42.936   0.380
16144W        W84474  44.804  31.569  13.839
16145W        W84475  18.558  23.063   4.251
16146W        W84476  34.556  21.197   3.328
16147W        W84477  12.789   9.183  13.521
16148W        W84478  38.477  14.217  13.443
16149W        W84479   7.898  44.867   1.710
16150W        W84480  39.424  13.269   4.756
16151W        W84481  33.982   1.743   0.344
16152W        W84482  41.368  18.659   5.264
16153W        W84483  10.206  26.118   4.113
16154W        W84484  35.942  23.531   1.316
16155W        W84485   7.824  19.132   4.230
16156W        W84486  19.737  33.069   2.303
16157W        W84487  25.169  20.696   4.807
16158W        W84488  32.476  10.167   2.779
16159W        W84489   3.454  11.291  12.083
16160W        W84490  30.039  28.451   2.375
16161W        W84491  27.486   2.790   3.265
16162W        W84492  37.508  31.512   4.699
16163W        W84493  34.372  22.188   2.792
16164W        W84494  14.160  13.214  12.475
16165W        W84495  35.877  14.286  13.423
16166W        W84496  19.588  25.134   3.338
16167W        W84497  32.088  39.043   1.701
16168W        W84498  26.072  37.559  11.450
16169W        W84499  19.105  31.642   0.783
16170W        W84500   1.956   1.902  12.895
16171W        W84501  37.528  26.043   4.251
16172W        W84502  15.755  40.862  12.346
16173W        W84503  32.017  38.039   1.350
16174W        W84504   1.438   5.289   2.214
16175W        W84505  43.987  12.258   4.150
16176W        W84506  24.643  39.401  14.843
16177W        W84507  33.050  39.385   2.363
16178W        W84508  23.135  25.190   2.395
16179W        W84509  24.515  33.474  10.521
16180W        W84510  10.201  27.670   2.322
16181W        W84511   3.865   5.382  14.005
16182W        W84512  29.620  15.708  10.932
16183W        W84513  34.388  41.965   3.255
16184W        W84514  18.235   6.810  10.518
16185W        W84515  17.798  24.500   2.867
16186W        W84516  12.710  36.989  12.354
16187W        W84517   2.820  21.142   2.269
16188W        W84518   2.847  13.230   2.404
16189W        W84519  35.595   1.867   2.272
16190W        W84520   5.773   0.830  13.525
16191W        W84521  40.040  19.648  13.523
16192W        W84522  38.477  37.931  12.921
16193W        W84523  32.909  44.934  12.374
16194W        W84524  37.558  29.963   2.188
16195W        W84525  40.953  26.612  14.800
16196W        W84526  40.905  43.441  14.495
16197W        W84527  10.865  42.460  10.457
16198W        W84528   7.350   2.232  11.524
16199W        W84529  37.915  38.361  12.471
16200W        W84530  42.939  11.817  10.628
16201W        W84531  16.169  11.360  11.517
16202W        W84532   2.404  40.507   1.430
16203W        W84533  24.082  30.480   0.349
16204W        W84534  32.944  21.710   0.365
16205W        W84535  28.183  22.087   0.945
16206W        W84536  32.043  11.312  11.121
16207W        W84537  10.269  28.528  12.084
16208W        W84538  29.656  24.082   0.245
16209W        W84539  24.579  38.433   3.698
16210W        W84540  21.195  13.821  13.350
16211W        W84541   7.738  12.261   2.344
16212W        W84542  21.733  11.706  14.975
16213W        W84543  12.655   0.968  14.898
16214W        W84544  23.574  35.101  12.574
16215W        W84545   7.396  19.756   1.723
16216W        W84546  22.995  10.727   4.726
16217W        W84547   0.871  10.299  13.516
16218W        W84548  39.375  17.708   2.899
16219W        W84549  44.429  40.948   2.403
16220W        W84550  43.977  14.634   4.350
16221W        W84551  32.511  35.963   4.721
16222W        W84552  42.488  19.750  12.026
16223W        W84553  16.131  13.204   4.154
16224W        W84554  27.661  13.313  12.024
16225W        W84555  13.681  41.003  14.357
16226W        W84556   1.434  13.215  13.808
16227W        W84557  44.774  25.983  10.479
16228W        W84558   7.803   2.879  14.424
16229W        W84559  37.846  32.085  12.464
16230W        W84560  31.526  34.510   3.755
16231W        W84561   7.845   3.855  13.989
16232W        W84562  25.515  30.534   2.232
16233W        W84563  15.326  21.075  12.578
16234W        W84564  11.342   4.279  11.122
16235W        W84565  28.471  33.418  11.598
16236W        W84566   2.412  40.352   5.177
16237W        W84567  15.790   4.933  13.886
16238W        W84568  13.251  23.013   0.741
16239W        W84569  10.834  21.262   3.683
16240W        W84570  13.186  30.468  12.558
16241W        W84571  38.326  18.090   0.288
16242W        W84572  24.006  37.348  11.459
16243W        W84573  43.982  34.959   0.320
16244W        W84574  21.685  26.141   3.844
16245W        W84575   8.864  32.072  12.891
16246W        W84576  24.038  28.137  14.030
16247W        W84577  13.300  33.097   2.392
16248W        W84578  11.663  11.774  14.823
16249W        W84579  20.641  12.630   1.340
16250W        W84580   5.816  29.536   3.178
16251W        W84581  33.056  12.736  14.783
16252W        W84582  29.980   6.354  13.833
16253W        W84583  40.814  13.782  13.442
16254W        W84584  12.282   4.842   3.757
16255W        W84585  19.652  37.545   4.347
16256W        W84586  32.120  31.462  11.969
16257W        W84587  15.624  41.483  10.551
16258W        W84588  18.276  10.362  12.026
16259W        W84589   7.861  23.598  11.065
16260W        W84590  10.335  19.773  10.890
16261W        W84591  21.071  23.736  10.496
16262W        W84592  35.456   8.325  11.993
16263W        W84593   6.290  24.201   2.880
16264W        W84594  20.758  34.596   0.264
16265W        W84595   5.710  20.745  12.456
16266W        W84596  21.097  30.652   0.266
16267W        W84597  15.645  15.299  11.489
16268W        W84598  29.971  20.687   5.295
16269W        W84599   5.866  25.215  14.482
16270W        W84600  35.411   0.862   0.770
16271W        W84601  37.438  15.310   2.356
16272W        W84602  12.783  42.854   4.264
16273W        W84603  19.044  16.258  13.374
16274W        W84604  31.907  29.964   1.432
16275W        W84605  15.800   2.328  12.949
16276W        W84606  16.125   1.867   4.764
16277W        W84607  13.198   3.339  11.999
16278W        W84608  37.535  35.398   4.256
16279W        W84609  23.640  35.082   1.320
16280W        W84610   2.794   4.237   0.440
16281W        W84611  32.947  17.703   2.346
16282W        W84612  17.063  20.665  11.378
16283W        W84613  26.085  44.349   0.329
16284W        W84614  43.383  12.276   3.217
16285W        W84615  42.454  35.374  14.429
16286W        W84616  42.964  44.469  14.775
16287W        W84617  43.512  29.949   4.188
16288W        W84618  28.436  13.670  13.310
16289W        W84619  30.539  28.065  14.862
16290W        W84620  23.544   4.361   1.308
16291W        W84621  18.651   5.384  12.893
16292W        W84622  12.803   5.362   2.801
16293W        W84623   9.801   5.302   1.931
16294W        W84624  34.103   7.818  10.594
16295W        W84625  37.060   0.747  10.996
16296W        W84626  15.299  29.141   2.838
16297W        W84627  38.439  34.517  13.384
16298W        W84628  13.191   8.287  14.322
16299W        W84629   7.283   0.744   2.329
16300W        W84630  20.533  26.125   3.296
16301W        W84631  22.995  36.536  12.072
16302W        W84632  34.372  21.737   3.227
16303W        W84633   0.273  11.797   3.868
16304W        W84634  18.546  22.673   5.253
16305W        W84635  24.568  30.076   0.937
16306W        W84636   7.354  17.293  11.035
16307W        W84637  32.112  27.525   2.194
16308W        W84638   8.361  20.221   1.220
16309W        W84639  40.388   6.339  10.123
16310W        W84640  16.766  38.868   3.674
16311W        W84641  24.556  21.648   2.792
16312W        W84642   6.378  33.920  11.923
16313W        W84643  38.909   3.233   1.887
16314W        W84644  18.138  32.504   4.652
16315W        W84645  43.285  44.260   2.769
16316W        W84646   7.900  34.438  11.122
16317W        W84647  25.192  31.598  12.095
16318W        W84648  14.114   1.856  10.522
16319W        W84649  30.626  34.433   3.151
16320W        W84650  43.286  38.520  12.884
16321W        W84651   0.959  17.129  14.955
16322W        W84652   9.185  34.526  11.397
16323W        W84653   9.290  36.852  13.324
16324W        W84654   1.768  44.269   4.291
16325W        W84655  27.086   2.294  12.096
16326W        W84656  12.856  43.290   0.744
16327W        W84657  40.992  23.201   0.781
16328W        W84658  18.774  43.021   2.803
16329W        W84659   2.930  34.011  10.580
16330W        W84660  11.326  31.411  13.965
16331W        W84661   7.376  14.592   0.953
16332W        W84662  20.714  15.185   1.449
16333W        W84663  34.587  34.911  12.538
16334W        W84664  28.060  26.187  10.464
16335W        W84665  11.793   6.333  14.463
16336W        W84666  31.924   2.253  11.477
16337W        W84667  13.290   2.310  14.315
16338W        W84668  16.232  20.142   1.417
16339W        W84669  41.349  38.356   2.273
16340W        W84670  20.523  10.312  13.500
16341W        W84671  34.043  43.788  12.080
16342W        W84672  24.211  10.283  12.970
16343W        W84673   7.728  14.127   0.912
16344W        W84674  20.606   0.323  10.450
16345W        W84675  21.695  36.541   3.221
16346W        W84676   2.371  38.914   1.295
16347W        W84677  18.266   1.829  12.454
16348W        W84678   7.295  26.613   4.722
16349W        W84679  20.108  28.100  13.541
16350W        W84680  16.670  24.603  12.844
16351W        W84681  12.697  14.812   3.271
16352W        W84682  27.533  18.648   3.709
16353W        W84683  15.758  28.595  12.973
16354W        W84684   8.657  16.760   0.748
16355W        W84685  13.341   0.281  10.008
16356W        W84686  18.667  41.812  11.514
16357W        W84687   3.748  24.087  10.438
16358W        W84688  43.359   6.780  11.862
16359W        W84689   9.775   2.770   0.432
16360W        W84690  19.677  18.212  12.827
16361W        W84691  21.071  41.475  13.058
16362W        W84692  33.601  43.874  12.554
16363W        W84693  25.194  20.196   0.469
16364W        W84694  11.841   5.262  10.473
16365W        W84695  25.610   0.324  12.550
16366W        W84696  25.587  23.184   3.299
16367W        W84697  10.772  17.640   4.753
16368W        W84698  37.845  11.691  11.907
16369W        W84699  42.461  17.661   4.180
16370W        W84700  23.570  39.038   2.888
16371W        W84701  25.187  34.437  14.358
16372W        W84702  29.123  24.073  12.519
16373W        W84703   5.364   5.403  12.528
16374W        W84704  20.150  12.772  11.398
16375W        W84705  17.209  19.207   4.768
16376W        W84706   3.920  24.587  11.029
16377W        W84707  42.301   1.871   2.351
16378W        W84708  24.689  21.648  13.943
16379W        W84709   3.742  37.888   1.415
16380W        W84710  42.496   1.410  14.345
16381W        W84711   2.459  31.419   3.741
16382W        W84712   1.350  25.684  14.803
16383W        W84713   6.348   6.792  13.422
16384W        W84714  23.700  29.619  10.421
16385W        W84715  26.506  22.040  10.448
16386W        W84716  29.662  26.967  11.490
16387W        W84717  19.664  12.732  12.396
16388W        W84718   3.375   0.795   3.855
16389W        W84719  11.333  12.216   0.899
16390W        W84720  15.280   1.838  10.571
16391W        W84721  18.060  12.265  11.903
16392W        W84722  15.223  20.578  14.026
16393W        W84723   1.891  11.279  11.546
16394W        W84724  20.079  43.847  11.088
16395W        W84725   4.225  16.275  13.440
16396W        W84726  44.971  30.554  12.547
16397W        W84727  29.958  19.653   1.292
16398W        W84728  14.611   0.351   0.372
16399W        W84729  34.037  24.598   1.373
16400W        W84730  29.455  27.452   3.361
16401W        W84731  38.880   7.882   4.700
16402W        W84732   2.283  34.507   0.255
16403W        W84733  25.117  23.055   1.832
16404W        W84734   5.391  30.644  12.028
16405W        W84735  31.603  44.879   2.710
16406W        W84736  18.174  35.871   4.191
16407W        W84737   4.883  44.840  10.437
16408W        W84738  27.190   6.266   3.647
16409W        W84739  43.887  37.483  11.090
16410W        W84740  26.148  12.710   3.632
16411W        W84741  40.493  21.182   0.829
16412W        W84742   3.456  31.573   3.755
16413W        W84743  24.004  12.636  13.440
16414W        W84744   0.864  26.967   3.711
16415W        W84745  27.051  41.833   3.822
16416W        W84746  43.854  10.219  13.543
16417W        W84747  37.444  42.900   1.385
16418W        W84748  10.723  20.708  12.535
16419W        W84749   9.729  38.901  12.545
16420W        W84750  13.663  18.225  13.522
16421W        W84751  15.302  31.456   4.325
16422W        W84752   8.723  15.824   4.310
16423W        W84753  14.697  38.333  10.483
16424W        W84754  33.928  13.294   1.357
16425W        W84755  10.380  37.011   4.352
16426W        W84756  42.475  29.484   1.793
16427W        W84757  32.574   7.218   4.172
16428W        W84758   5.904   0.982  14.450
16429W        W84759   9.792  21.177   1.777
16430W        W84760  38.006   5.755  12.357
16431W        W84761   0.748  31.555   4.663
16432W        W84762  10.373   8.708  13.990
16433W        W84763  26.012  12.348  13.911
16434W        W84764  32.935   5.853  10.534
16435W        W84765  44.462   9.300  12.000
16436W        W84766  37.551  23.198  14.312
16437W        W84767  32.005   4.318   0.927
16438W        W84768  21.569   1.246  14.840
16439W        W84769  14.100  32.938   2.303
16440W        W84770  10.873   2.817  12.983
16441W        W84771   5.735  28.441   0.860
16442W        W84772  33.520  31.506  11.509
16443W        W84773  43.415  19.163  12.379
16444W        W84774  31.618  18.095  11.993
16445W        W84775   6.403  10.751  10.434
16446W        W84776  41.855  29.972   2.687
16447W        W84777  30.539   0.805  12.441
16448W        W84778   4.919   3.928  12.423
16449W        W84779  28.500  14.300   1.451
16450W        W84780  36.094  37.971   3.200
16451W        W84781  11.723  25.569   4.175
16452W        W84782  11.134  44.339  14.972
16453W        W84783   8.780  39.904  13.420
16454W        W84784  38.882  44.883  10.507
16455W        W84785  16.153  36.012   3.179
16456W        W84786  16.088  17.775  10.508
16457W        W84787   9.209  25.684  13.868
16458W        W84788  34.986  40.470  10.593
16459W        W84789   0.378   3.936   3.202
16460W        W84790  31.452  25.068  10.941
16461W        W84791  28.565  17.147   4.745
16462W        W84792  42.430  12.342  10.408
16463W        W84793  35.924  35.103   4.640
16464W        W84794  22.669  36.987  14.451
16465W        W84795  20.214  30.994  14.817
16466W        W84796  41.847  35.897  12.060
16467W        W84797  38.486  31.640  12.501
16468W        W84798  14.292  32.932  11.383
16469W        W84799  12.345  30.414   4.701
16470W        W84800  23.001   6.827  13.420
16471W        W84801  22.174   2.269  11.424
16472W        W84802  20.643  12.188  12.376
16473W        W84803  39.994  22.056   4.733
16474W        W84804  39.982   9.725   2.893
16475W        W84805   3.395   0.835  14.450
16476W        W84806  21.530  15.236   3.785
16477W        W84807  35.422  42.985   3.159
16478W        W84808  22.555  32.114   5.196
16479W        W84809  14.254  36.356  11.106
16480W        W84810   8.748  27.599   0.910
16481W        W84811  16.176  17.304  10.042
16482W        W84812  15.166  31.969  11.083
16483W        W84813  37.999  40.443   3.807
16484W        W84814  23.538  16.158  11.008
16485W        W84815  14.620  11.357  12.935
16486W        W84816  31.401  34.474   0.814
16487W        W84817  34.921  23.066   4.322
16488W        W84818  19.597   7.240  12.964
16489W        W84819  31.099  44.374   1.220
16490W        W84820  37.427   3.389  12.090
16491W        W84821  34.425   7.858  13.927
16492W        W84822  32.912  19.104   2.316
16493W        W84823  21.618   5.785   0.819
16494W        W84824  32.548   1.847   1.739
16495W        W84825  32.418   2.282  14.965
16496W        W84826  37.440   3.884   0.423
16497W        W84827  44.982  17.162  12.396
16498W        W84828  31.625   5.261   4.633
16499W        W84829  40.497  21.100  11.606
16500W        W84830  29.539  13.693   0.385
16501W        W84831  43.923  38.539   3.172
16502W        W84832  22.512  19.073   4.234
16503W        W84833  26.067  17.710   0.291
16504W        W84834  25.707  14.794  10.587
16505W        W84835  40.953  43.330   3.670
16506W        W84836   2.392  37.084  12.039
16507W        W84837  21.734  38.420   3.196
16508W        W84838  23.697  37.539   2.238
16509W        W84839  11.184   3.843   0.407
16510W        W84840  31.001  22.728   3.631
16511W        W84841  42.927  11.644   3.662
16512W        W84842   7.891  31.555  14.437
16513W        W84843  21.029  14.287  10.969
16514W        W84844  11.291  24.562  13.408
16515W        W84845  21.678  27.039   1.378
16516W        W84846  11.190  41.425  13.416
16517W        W84847  43.406  15.671  12.002
16518W        W84848  12.713  16.147  10.550
16519W        W84849  21.080  26.970  10.913
16520W        W84850  39.459  39.972  14.824
16521W        W84851   1.298  38.003  11.564
16522W        W84852  11.325  23.534  11.082
16523W        W84853  30.434   3.237   0.279
16524W        W84854  23.679  43.800  14.826
16525W        W84855   4.307  12.777   4.787
16526W        W84856  22.248   6.748   5.134
16527W        W84857  35.434  32.015   2.318
16528W        W84858  13.171  21.679  12.434
16529W        W84859  28.065   2.913  12.422
16530W        W84860  12.851  39.813   1.905
16531W        W84861  33.577   2.341   5.169
16532W        W84862  16.661  24.997   0.849
16533W        W84863  26.610  26.658   2.871
16534W        W84864  13.791  30.019   4.630
16535W        W84865  16.632   9.746   1.841
16536W        W84866  12.270  20.714  10.578
16537W        W84867   5.804  21.750  14.328
16538W        W84868  20.249  27.649   2.230
16539W        W84869  22.642  40.892   4.210
16540W        W84870  22.608  35.604  14.960
16541W        W84871  10.162   1.965   4.724
16542W        W84872  24.193  20.163   0.402
16543W        W84873  11.648  19.232   1.727
16544W        W84874  13.635   9.675  12.377
16545W        W84875  30.973  28.581   1.325
16546W        W84876   9.809  43.472  14.994
16547W        W84877  28.593  43.333  13.328
16548W        W84878  21.722  20.126   3.272
16549W        W84879  20.653   1.838   1.334
16550W        W84880  38.441   7.881  13.924
16551W        W84881  29.642  27.574   0.313
16552W        W84882  11.814  28.000  12.995
16553W        W84883   0.421  33.593   4.803
16554W        W84884  33.571  30.968   1.218
16555W        W84885  26.550   9.244   3.150
16556W        W84886  23.054   7.228   1.216
16557W        W84887  18.271  40.859  13.890
16558W        W84888  26.699  29.423   1.262
16559W        W84889   2.722  13.787   1.777
16560W        W84890  27.494  19.606  13.380
16561W        W84891  38.832  42.480   2.380
16562W        W84892  11.729  18.726  11.888
16563W        W84893  37.958  25.033  11.398
16564W        W84894  26.618   2.855   4.143
16565W        W84895  18.764  26.668  14.484
16566W        W84896  12.711   8.308   0.877
16567W        W84897  29.645  39.498   2.701
16568W        W84898  31.499  41.520   1.814
16569W        W84899  25.615  38.547  13.831
16570W        W84900   0.887  42.354  13.344
16571W        W84901   9.724  21.580   1.782
16572W        W84902  10.163   8.758  12.357
16573W        W84903  24.176   4.308   3.323
16574W        W84904  26.532  30.944  10.432
16575W        W84905  18.669  31.979   9.979
16576W        W84906  43.511  29.995   1.434
16577W        W84907  36.961  30.084   3.242
16578W        W84908  28.628  18.087  11.999
16579W        W84909  30.611   1.326   4.808
16580W        W84910  14.224  27.474   3.825
16581W        W84911  17.610  35.058   4.774
16582W        W84912  38.921  32.626   4.126
16583W        W84913  22.099  11.132  13.391
16584W        W84914   0.311  27.085   1.792
16585W        W84915   5.903  26.656   4.758
16586W        W84916  16.187  36.553  11.028
16587W        W84917  43.832   2.238  11.420
16588W        W84918  17.253  41.461  10.929
16589W        W84919  21.516  18.718  11.102
16590W        W84920  31.021  12.284   1.379
16591W        W84921   5.262  44.770   0.463
16592W        W84922  10.718  16.725   4.662
16593W        W84923  12.350   4.244   0.751
16594W        W84924  33.969  25.163   3.208
16595W        W84925  21.200  10.866   9.945
16596W        W84926   9.724  26.588   3.723
16597W        W84927  24.077   4.358  11.609
16598W        W84928  21.213  20.633  11.532
16599W        W84929  16.747   7.249   3.283
16600W        W84930  39.507   6.802  14.791
16601W        W84931   1.795  18.179  11.056
16602W        W84932  38.503  15.605   0.428
16603W        W84933  14.208  18.704  14.314
16604W        W84934  36.087   5.215   4.717
16605W        W84935  15.223  31.544  13.861
16606W        W84936  36.373  29.514  14.422
16607W        W84937  19.678  15.650  12.836
16608W        W84938  33.476  40.975   4.665
16609W        W84939   7.736  12.315   3.333
16610W        W84940  11.632  12.772  13.521
16611W        W84941  33.913  19.248   0.747
16612W        W84942  11.863  25.142   1.859
16613W        W84943  15.190  12.771  14.863
16614W        W84944   0.486  33.560   2.703
16615W        W84945  32.924  16.721   3.736
16616W        W84946  14.817  23.492  11.595
16617W        W84947  29.502  38.901   2.362
16618W        W84948   1.359  14.680  13.425
16619W        W84949  24.985  22.646  14.887
16620W        W84950  41.990  18.122   4.810
16621W        W84951  21.538   9.717  10.530
16622W        W84952  23.625  14.654  13.492
16623W        W84953   2.243   3.869  13.330
16624W        W84954  14.822  11.622   0.765
16625W        W84955  15.083   8.192  10.553
16626W        W84956  33.055  35.957  13.912
16627W        W84957  11.698   8.766   1.221
16628W        W84958  13.215  37.354   3.642
16629W        W84959  27.147  32.573   1.294
16630W        W84960  22.617   2.268   3.633
16631W        W84961  14.110   6.878   1.368
16632W        W84962  19.751  14.794  13.810
16633W        W84963   7.292   5.724   4.247
16634W        W84964  38.423  14.673  13.350
16635W        W84965  37.075  22.595  14.766
16636W        W84966  41.023  23.491   3.151
16637W        W84967  14.642  23.637  11.916
16638W        W84968  38.074  27.449   1.801
16639W        W84969  10.358  28.502  13.052
16640W        W84970  22.042  44.819   4.698
16641W        W84971   1.466  36.888   3.342
16642W        W84972   7.709   3.270   3.695
16643W        W84973  26.577   2.281  14.414
16644W        W84974  11.852  34.454   0.906
16645W        W84975   6.213  30.126  11.521
16646W        W84976   5.213   6.847   3.808
16647W        W84977  30.569  21.135   4.194
16648W        W84978  30.519  41.441  12.035
16649W        W84979  15.625  22.528  14.981
16650W        W84980  35.043  10.876  14.356
16651W        W84981   4.871   5.782   0.932
16652W        W84982  40.950  27.089  11.526
16653W        W84983  38.856  41.476  12.077
16654W        W84984   5.274  16.771   4.338
16655W        W84985   1.298  37.890   1.922
16656W        W84986  15.298  43.462   1.876
16657W        W84987  26.566  21.650  11.868
16658W        W84988  30.647   6.728   3.231
16659W        W84989  17.297  14.240   3.712
16660W        W84990  28.980   2.950  11.005
16661W        W84991  27.547  25.147  12.578
16662W        W84992   9.305  10.219   4.728
16663W        W84993   5.361   2.918   1.210
16664W        W84994  31.953  24.682   2.727
16665W        W84995  42.345  43.958   1.378
16666W        W84996  29.037  39.036  13.902
16667W        W84997  43.479   6.382   1.799
16668W        W84998  20.053  28.679  14.413
16669W        W84999  37.555   9.653  11.039
16670W        W85000  19.542  22.644  12.928
16671W        W85001  42.983  13.258   4.156
16672W        W85002  33.434  32.094   1.374
16673W        W85003  12.784  41.487   2.749
16674W        W85004   0.973  29.569   1.744
16675W        W85005  22.545  11.849  11.002
16676W        W85006  44.304  31.481   0.782
16677W        W85007   8.383  24.201  13.517
16678W        W85008  16.201  18.230  14.291
16679W        W85009  24.126  13.762   0.924
16680W        W85010  38.840   3.435  14.899
16681W        W85011  38.375  14.730  13.901
16682W        W85012  14.748   4.324   2.273
16683W        W85013  22.143  27.991   3.630
16684W        W85014  12.850  38.956   2.784
16685W        W85015  13.800  29.436  14.456
16686W        W85016  33.914  19.633  12.471
16687W        W85017  18.788  40.861   1.408
16688W        W85018  11.819  15.119  12.363
16689W        W85019   5.898  30.024  12.092
16690W        W85020  37.991  18.551  10.605
16691W        W85021  11.316  31.896  13.044
16692W        W85022   9.684   9.828   2.771
16693W        W85023  12.173  15.741   4.600
16694W        W85024  42.433  42.470   1.847
16695W        W85025  24.650  22.664  12.400
16696W        W85026  22.731   6.799   2.268
16697W        W85027  42.882  39.974   0.360
16698W        W85028   1.733  32.063   1.711
16699W        W85029  18.587  10.382  14.961
16700W        W85030  16.679  29.956  13.922
16701W        W85031  18.677  12.281   1.259
16702W        W85032  26.096  22.561   1.414
16703W        W85033  34.933   8.807  14.964
16704W        W85034  37.869  26.647  10.071
16705W        W85035  34.040  22.194  12.048
16706W        W85036   1.781  26.108  13.940
16707W        W85037  18.770  15.136  12.529
16708W        W85038  21.665  18.167   2.793
16709W        W85039  30.477  33.891   4.143
16710W        W85040  14.603  21.522   2.360
16711W        W85041  18.278   3.767  12.395
16712W        W85042   7.868  21.096   1.353
16713W        W85043   0.947   1.247  10.597
16714W        W85044  30.945  27.517   2.899
16715W        W85045  37.986  32.519   4.630
16716W        W85046   6.219  18.668  12.824
16717W        W85047  23.623  26.176  14.411
16718W        W85048   2.900  39.394   1.843
16719W        W85049   6.329   4.808  11.565
16720W        W85050  15.765  43.313   4.287
16721W        W85051   3.721  32.103  12.473
16722W        W85052  31.906   6.191   3.197
16723W        W85053  21.206  24.679  11.485
16724W        W85054  22.510  43.462   2.704
16725W        W85055  42.487   3.885   0.859
16726W        W85056  32.633  36.558   3.185
16727W        W85057  31.997  28.066   1.241
16728W        W85058  26.583  42.021   4.216
16729W        W85059  17.149  42.990   0.344
16730W        W85060  16.152   3.379   1.348
16731W        W85061   7.216  11.666   4.823
16732W        W85062  24.013   2.904   3.717
16733W        W85063   6.913  41.369  11.999
16734W        W85064   7.221  33.609   1.801
16735W        W85065   4.447  44.271  14.328
16736W        W85066  24.991  10.875  12.539
16737W        W85067   4.233  28.107  14.881
16738W        W85068  42.490  39.959  10.947
16739W        W85069   2.815  14.749   0.413
16740W        W85070  12.692  44.370  14.422
16741W        W85071  22.536  31.642   0.289
16742W        W85072  26.480   0.450   1.313
16743W        W85073  15.659   8.391  12.070
16744W        W85074  19.177   1.322   1.815
16745W        W85075  42.933  38.921   4.261
16746W        W85076   7.297  35.857  12.906
16747W        W85077   1.839  22.072   3.838
16748W        W85078   8.683  41.857   2.723
16749W        W85079   0.466  19.771   2.711
16750W        W85080  24.025  11.343  13.867
16751W        W85081  22.102   6.208   3.670
16752W        W85082  25.178  15.636   1.441
16753W        W85083  42.512  23.727  11.976
16754W        W85084  27.084  18.649   4.162
16755W        W85085  30.110  30.094  13.830
16756W        W85086  27.126  30.469   2.415
16757W        W85087   1.435  28.559  11.944
16758W        W85088  35.039  42.373   2.276
16759W        W85089  26.179  25.971  14.358
16760W        W85090  26.500  22.066   3.756
16761W        W85091  35.513  15.672  11.496
16762W        W85092  39.398  29.947  11.512
16763W        W85093  31.529  32.903   3.329
16764W        W85094  27.512  10.181  12.923
16765W        W85095  36.479  19.164   1.767
16766W        W85096  26.508  34.476  10.536
16767W        W85097  14.336   5.688  14.308
16768W        W85098  19.203  43.890  14.330
16769W        W85099  19.758  28.467   1.354
16770W        W85100  16.654  17.186   2.392
16771W        W85101  27.532  35.878   1.236
16772W        W85102  21.523   6.683   0.921
16773W        W85103  22.086  29.099   5.146
16774W        W85104  17.086   6.324  14.969
16775W        W85105  43.908  11.694   4.819
16776W        W85106  26.499   6.211   0.476
16777W        W85107  29.107   2.934   2.858
16778W        W85108  44.402  27.557  10.965
16779W        W85109  23.548  35.916  11.124
16780W        W85110   7.759  25.604   0.426
16781W        W85111  27.958  40.481   1.846
16782W        W85112   9.867  35.927  13.815
16783W        W85113  24.984  39.522  13.418
16784W        W85114  33.511  43.916   1.286
16785W        W85115  35.380   5.797   2.881
16786W        W85116  35.521  16.173  13.488
16787W        W85117   5.903  39.472  11.896
16788W        W85118  25.620  20.190   0.463
16789W        W85119  31.038  41.838  10.409
16790W        W85120  33.980  42.439   1.844
16791W        W85121   1.343   9.307   2.784
16792W        W85122  12.672  11.330  10.993
16793W        W85123  32.035   4.218   4.327
16794W        W85124   7.707   5.374  10.592
16795W        W85125  25.033   4.891   0.733
16796W        W85126  32.037  44.938   1.406
16797W        W85127   4.943  37.963  13.869
16798W        W85128   0.783  35.024  10.482
16799W        W85129  17.744   4.427   2.246
16800W        W85130  16.304  21.605   1.714
16801W        W85131  34.923  35.928   3.320
16802W        W85132   4.723  14.814  11.074
16803W        W85133  28.464  31.523   5.093
16804W        W85134  11.866  29.038  12.933
16805W        W85135  26.028  31.915   0.368
16806W        W85136  31.051  22.552  10.128
16807W        W85137   6.863   2.426  11.961
16808W        W85138  34.532   0.964  12.432
16809W        W85139  27.026  28.563  11.519
16810W        W85140  39.475  36.359   0.278
16811W        W85141  23.083   9.800  12.927
16812W        W85142  31.540  23.501  13.323
16813W        W85143  12.358  12.853  11.425
16814W        W85144  42.523  36.941  12.925
16815W        W85145   7.770  32.993  13.454
16816W        W85146  38.931  36.522  11.051
16817W        W85147  27.121  41.489   3.311
16818W        W85148  38.564  32.636   2.836
16819W        W85149   0.866  36.593   1.828
16820W        W85150  36.848  12.232  10.535
16821W        W85151  28.551  13.230  11.908
16822W        W85152  12.839  32.627  14.981
16823W        W85153  43.837  43.994   0.814
16824W        W85154   7.260   4.942   2.772
16825W        W85155  39.894  38.863  12.536
16826W        W85156   5.758  37.935   1.349
16827W        W85157  28.026  28.660  10.938
16828W        W85158  27.012   8.812  12.920
16829W        W85159   2.279  25.020   3.316
16830W        W85160  40.513  30.472   2.280
16831W        W85161  38.494  42.418  12.985
16832W        W85162  33.102  22.178   1.358
16833W        W85163  17.769  27.646  11.490
16834W        W85164  16.131  13.600   3.783
16835W        W85165  26.663  31.544   2.356
16836W        W85166  42.897  33.912  14.365
16837W        W85167  29.449   4.245  12.560
16838W        W85168  12.266  18.571  14.284
16839W        W85169  15.622  36.936  13.017
16840W        W85170  25.094  12.199   4.341
16841W        W85171  32.458  13.647  11.935
16842W        W85172  21.212  17.639   0.321
16843W        W85173  42.514  42.908   3.296
16844W        W85174  11.763   8.186  14.480
16845W        W85175  30.970  19.700   5.794
16846W        W85176   5.340  10.860  14.338
16847W        W85177  32.015  22.640  11.389
16848W        W85178  31.624   0.325  13.333
16849W        W85179  44.807  42.323   0.739
16850W        W85180  25.090   0.439  13.815
16851W        W85181  30.554  34.906   2.327
16852W        W85182  10.358  32.024  10.531
16853W        W85183  10.297  17.786   3.846
16854W        W85184   7.709  33.530  13.933
16855W        W85185   2.318  17.176   3.847
16856W        W85186  17.302  39.042   5.272
16857W        W85187  24.527  21.105   0.934
16858W        W85188  10.812  36.553  13.059
16859W        W85189  10.376   7.283  11.021
16860W        W85190  20.061  24.148   9.645
16861W        W85191  21.195  26.700   0.833
16862W        W85192  22.011  31.485   2.193
16863W        W85193  42.818  41.859  14.945
16864W        W85194  22.678  24.709   2.342
16865W        W85195  36.467   8.201  14.890
16866W        W85196  26.009  33.511   3.666
16867W        W85197  30.105   8.856  14.801
16868W        W85198  31.426  13.270   4.644
16869W        W85199  38.966  41.871  10.953
16870W        W85200  24.989  34.939   0.284
16871W        W85201  14.304  35.373   2.860
16872W        W85202  38.059  41.872   4.635
16873W        W85203  28.566  35.570  11.990
16874W        W85204  20.047  28.096  13.901
16875W        W85205  25.480  42.419   3.200
16876W        W85206  26.203   0.446  12.832
16877W        W85207  38.889  12.712  12.022
16878W        W85208   7.778  16.810   3.784
16879W        W85209  42.375  29.555  12.931
16880W        W85210  32.949  15.307  12.931
16881W        W85211  18.788  37.044   4.829
16882W        W85212  39.968   4.293  11.452
16883W        W85213   4.883  25.028   1.351
16884W        W85214  23.699  29.162  13.851
16885W        W85215   4.291  15.218  14.281
16886W        W85216  41.907   3.768  12.427
16887W        W85217  43.846  26.045   3.308
16888W        W85218  25.148  33.432  13.331
16889W        W85219   3.405   6.752  12.357
16890W        W85220  16.596  26.509   4.305
16891W        W85221  29.555   6.342   1.233
16892W        W85222  34.978  22.204  12.998
16893W        W85223  20.033  15.752   2.403
16894W        W85224   7.800  26.065  14.975
16895W        W85225   4.359  24.661   3.179
16896W        W85226   8.689   7.195   0.420
16897W        W85227  30.965   2.457   4.304
16898W        W85228  13.644  37.030  11.474
16899W        W85229  27.987  31.065  12.540
16900W        W85230  10.800  34.979  12.055
16901W        W85231  19.203  41.347   0.345
16902W        W85232   3.236  17.190   0.897
16903W        W85233  35.432  35.000  10.579
16904W        W85234  31.442  34.052   4.211
16905W        W85235  16.617  39.452  13.404
16906W        W85236  26.531  29.558   3.199
16907W        W85237  17.092  35.460   5.123
16908W        W85238  18.618  20.209   3.784
16909W        W85239   8.377  12.241  12.993
16910W        W85240  37.395  44.770   1.258
16911W        W85241   6.884  12.653  14.030
16912W        W85242  11.137   8.826   4.774
16913W        W85243   4.317  14.800   4.346
16914W        W85244  18.074  27.533  13.416
16915W        W85245  37.475  29.452   4.659
16916W        W85246   3.232   2.922  11.603
16917W        W85247  28.566   2.332  13.407
16918W        W85248  20.715  36.969  10.910
16919W        W85249  22.027  16.298   0.934
16920W        W85250  38.999  33.005  12.461
16921W        W85251  30.941  11.253  13.808
16922W        W85252  12.234   3.461  10.960
16923W        W85253  39.326   8.260   3.278
16924W        W85254  44.760   5.736   1.786
16925W        W85255  13.761  12.768  10.551
16926W        W85256  20.545  12.137   1.383
16927W        W85257   6.829  11.730  13.524
16928W        W85258  10.751  10.273   2.184
16929W        W85259  22.668  18.199   5.101
16930W        W85260  36.530  27.113   2.393
16931W        W85261  30.642  20.550   3.279
16932W        W85262   4.366   7.778  13.805
16933W        W85263   4.706   9.318  12.969
16934W        W85264   9.679  31.898  13.811
16935W        W85265  14.106   3.904   4.213
16936W        W85266  31.924  31.404   0.442
16937W        W85267  16.231  10.692  11.506
16938W        W85268  40.310  18.740   0.357
16939W        W85269  31.072  40.488  11.968
16940W        W85270  32.077   4.226  11.912
16941W        W85271  42.414  26.622   4.823
16942W        W85272   7.734  29.977  11.981
16943W        W85273   5.919  21.554  13.933
16944W        W85274  35.427  17.749  14.956
16945W        W85275  42.863  14.111  11.008
16946W        W85276  21.548  11.190  14.515
16947W        W85277   0.782  34.488  14.777
16948W        W85278  16.224   7.263  11.044
16949W        W85279  21.029  27.541  10.152
16950W        W85280  16.312  32.124  14.020
16951W        W85281  40.887  39.051   0.335
16952W        W85282  27.040  11.201   4.682
16953W        W85283  13.788  24.057   1.291
16954W        W85284  14.599   3.268   2.296
16955W        W85285   0.476  23.685   3.281
16956W        W85286  16.242  34.051  12.442
16957W        W85287  32.436  13.224  11.548
16958W        W85288  44.008  42.339   3.191
16959W        W85289  14.178  39.395   2.698
16960W        W85290  13.248  33.094   4.700
16961W        W85291   2.291  23.513  13.880
16962W        W85292  12.159  13.129   1.833
16963W        W85293  11.218   2.307   1.721
16964W        W85294  38.518  14.193   0.455
16965W        W85295  14.730  16.675   4.178
16966W        W85296   3.941  35.943  14.772
16967W        W85297  30.033  31.522   2.323
16968W        W85298  15.326  38.859  12.348
16969W        W85299  36.555  16.087   4.806
16970W        W85300  34.424   1.305  10.480
16971W        W85301   3.911  37.022  13.399
16972W        W85302  17.252  44.305   2.846
16973W        W85303  34.990  24.049  14.853
16974W        W85304  15.716  16.314  11.110
16975W        W85305  34.972  29.945   2.807
16976W        W85306  32.630   2.737   3.868
16977W        W85307  31.584  24.000  13.816
16978W        W85308   9.683  10.788   3.842
16979W        W85309   8.316  43.765   1.925
16980W        W85310  38.870  22.538   2.246
16981W        W85311  15.093  16.285  12.992
16982W        W85312  30.572  27.499  10.974
16983W        W85313  29.593  25.181   5.300
16984W        W85314  38.490  33.887  14.950
16985W        W85315  40.978  44.378   1.790
16986W        W85316  12.117   1.356  13.380
16987W        W85317   8.788  10.262  11.084
16988W        W85318  44.369  22.508   5.213
16989W        W85319  16.596  41.932   1.854
16990W        W85320  18.150  27.573   4.825
16991W        W85321  13.715   5.231  13.393
16992W        W85322   8.319  39.375   0.352
16993W        W85323  21.234  15.694   1.787
16994W        W85324  25.095  27.512   3.715
16995W        W85325  40.037  33.529   1.803
16996W        W85326   7.756  18.230  11.429
16997W        W85327  42.855  12.843   0.789
16998W        W85328  34.986  24.640  14.475
16999W        W85329  23.231  26.698   1.800
17000W        W85330  41.413  26.970   4.247
17001W        W85331  43.305  10.373  13.320
17002W        W85332  37.561  27.091   2.840
17003W        W85333  20.252   1.386  12.577
17004W        W85334  36.581  35.027   2.219
17005W        W85335   9.192   1.911   4.290
17006W        W85336  18.597  25.964  14.827
17007W        W85337  14.729  27.557   4.627
17008W        W85338  18.251  26.489   5.161
17009W        W85339   5.708  39.017  13.539
17010W        W85340   4.280   1.416  14.334
17011W        W85341   3.253  12.208   2.376
17012W        W85342  23.631  39.516   0.360
17013W        W85343   4.296  23.716  13.858
17014W        W85344  26.489  43.992   3.724
17015W        W85345  26.143  10.867  12.463
17016W        W85346  14.182   0.286  11.502
17017W        W85347  12.220  23.580  14.948
17018W        W85348  41.505  28.168  11.519
17019W        W85349  10.820  26.567   3.752
17020W        W85350  14.595  19.595  13.326
17021W        W85351  43.787  20.238  11.899
17022W        W85352  31.457  33.913  11.463
17023W        W85353   8.714  13.215   4.349
17024W        W85354  17.151  37.564   0.900
17025W        W85355  28.452  11.842  14.408
17026W        W85356  21.611   9.740   5.698
17027W        W85357  23.561   5.258  12.377
17028W        W85358  44.336  18.274   1.827
17029W        W85359  19.746  38.923  11.491
17030W        W85360   7.232   0.363   1.428
17031W        W85361  17.233  13.599   0.764
17032W        W85362  26.108  12.222  14.766
17033W        W85363  13.128  37.412  14.418
17034W        W85364  13.716  13.823   1.312
17035W        W85365  16.580  44.987   4.748
17036W        W85366   0.350  28.576   0.908
17037W        W85367   2.468   6.315  12.541
17038W        W85368  18.150  40.441   4.700
17039W        W85369  30.631   5.764   3.822
17040W        W85370  10.219  30.572  12.446
17041W        W85371   5.254   1.336   2.284
17042W        W85372   9.886  43.966   0.331
17043W        W85373  41.477  15.805   2.804
17044W        W85374  39.873   5.330   0.259
17045W        W85375   5.219  17.286  13.448
17046W        W85376   7.842  24.063  12.379
17047W        W85377  37.080  20.077  14.436
17048W        W85378  23.031   7.413   0.884
17049W        W85379  43.887  10.779  13.345
17050W        W85380  40.009  29.492   3.356
17051W        W85381  39.434   5.850   0.878
17052W        W85382  16.113  24.650  10.941
17053W        W85383  17.110   8.789   3.348
17054W        W85384   5.840  18.593  11.026
17055W        W85385  42.794  39.514   2.307
17056W        W85386  34.549  37.064   4.782
17057W        W85387  18.123  36.556  11.451
17058W        W85388  14.112  37.832  14.509
17059W        W85389  22.066  29.055  12.074
17060W        W85390  10.347  21.539  10.467
17061W        W85391   7.777  37.443  11.587
17062W        W85392  35.558  25.479  13.428
17063W        W85393  11.373  40.953   4.714
17064W        W85394  18.234   2.913   2.334
17065W        W85395  11.816  12.340   0.471
17066W        W85396  14.602  18.727  12.362
17067W        W85397  20.188   1.767  11.859
17068W        W85398   6.696  28.076   2.374
17069W        W85399  29.089   5.855   1.262
17070W        W85400  24.686   4.712   2.750
17071W        W85401   4.232  27.668   2.804
17072W        W85402   7.819  41.436   0.937
17073W        W85403  24.051   9.215  10.624
17074W        W85404  31.049  33.536  12.508
17075W        W85405  33.087   3.925  13.947
17076W        W85406  24.714  35.512  13.955
17077W        W85407  14.190   0.831   1.390
17078W        W85408  21.572  26.954  14.912
17079W        W85409  19.594   7.374  14.471
17080W        W85410  34.449   7.751   2.702
17081W        W85411  25.212   7.224  13.828
17082W        W85412  28.576  21.104  13.884
17083W        W85413  10.792   8.204  11.465
17084W        W85414  22.106   4.805  10.467
17085W        W85415   0.851  18.782  11.449
17086W        W85416  39.908   2.408  11.486
17087W        W85417  29.925  16.645   3.698
17088W        W85418  32.429  44.973   3.828
17089W        W85419  14.129  41.866  10.556
17090W        W85420  43.372   9.214  13.806
17091W        W85421  41.495  34.904   2.302
17092W        W85422  23.031   1.829   4.173
17093W        W85423  15.600  30.488  12.385
17094W        W85424  35.853  32.620   0.879
17095W        W85425  10.158  42.856  11.856
17096W        W85426   3.760  17.801   3.757
17097W        W85427   0.783   8.723   2.386
17098W        W85428  41.874  15.660   2.712
17099W        W85429  37.436  21.651  13.919
17100W        W85430  36.070  16.090  12.087
17101W        W85431  43.289   1.870   1.830
17102W        W85432  17.076  38.963  14.983
17103W        W85433  24.160  15.146  11.557
17104W        W85434  34.600  12.277  14.492
17105W        W85435   5.817   6.779  12.519
17106W        W85436  39.062   6.256  10.562
17107W        W85437  34.474  25.148   4.673
17108W        W85438  32.462  34.948  13.364
17109W        W85439   7.308  16.596  12.944
17110W        W85440  39.996  38.401  11.890
17111W        W85441  31.098  25.205  13.824
17112W        W85442  25.100   5.383  12.832
17113W        W85443   2.339   2.825   2.404
17114W        W85444   6.713   8.176   2.713
17115W        W85445  17.259  29.557  13.047
17116W        W85446   6.344  22.618  11.589
17117W        W85447  17.118  41.331  12.356
17118W        W85448  21.230  20.059  10.020
17119W        W85449   2.357  37.406   1.717
17120W        W85450  38.945   3.811   1.818
17121W        W85451  11.786  29.060  14.784
17122W        W85452  43.819   8.688  13.017
17123W        W85453  37.575  29.485   0.912
17124W        W85454  27.961  12.283   3.161
17125W        W85455  34.468  28.576   4.325
17126W        W85456  17.213  17.183   0.898
17127W        W85457  14.801   8.722  13.537
17128W        W85458  14.590  17.588   2.800
17129W        W85459   1.890  24.631  11.483
17130W        W85460  43.789  42.009  12.063
17131W        W85461  36.056  37.070   3.753
17132W        W85462  15.245  17.752   4.325
17133W        W85463   8.800  39.454  14.851
17134W        W85464  31.442  22.597  10.060
17135W        W85465  34.019  39.318   0.272
17136W        W85466  35.532  26.196   1.380
17137W        W85467  32.918  40.847  13.931
17138W        W85468  31.076  19.277   9.583
17139W        W85469   5.880   0.962   4.298
17140W        W85470  37.869  43.986  14.477
17141W        W85471  16.116  41.818  10.632
17142W        W85472  13.186  43.330   3.166
17143W        W85473  42.028  43.283   0.321
17144W        W85474   2.816  40.855  14.479
17145W        W85475   5.284   7.835  10.464
17146W        W85476  19.742   7.385   1.392
17147W        W85477  19.248   7.400   3.642
17148W        W85478  26.685  23.553  13.457
17149W        W85479  14.791  35.930   0.813
17150W        W85480  18.555  44.495   1.790
17151W        W85481  40.522  29.657  10.455
17152W        W85482  42.793  22.235   0.944
17153W        W85483  41.019  13.320   3.689
17154W        W85484  14.226  20.136  11.056
17155W        W85485  31.114  41.528  12.863
17156W        W85486   4.882  38.381  12.357
17157W        W85487  42.344  40.029  10.607
17158W        W85488  28.018   5.426   3.653
17159W        W85489  16.759  20.197  12.055
17160W        W85490  16.704  18.130   2.736
17161W        W85491   0.797  21.129  14.765
17162W        W85492  23.113  23.669  14.331
17163W        W85493  14.696  20.135   0.445
17164W        W85494   2.396  13.820  10.547
17165W        W85495   6.831   1.327  11.098
17166W        W85496  42.912   1.923   4.801
17167W        W85497  34.454   6.916   3.339
17168W        W85498  24.100  34.951   0.273
17169W        W85499  21.170   2.354   3.770
17170W        W85500  11.245  35.481  13.017
17171W        W85501   4.447  21.522  10.501
17172W        W85502   4.842  10.231   2.894
17173W        W85503  36.097  13.295   1.272
17174W        W85504  15.127   6.242  13.389
17175W        W85505  17.216  40.908  12.826
17176W        W85506  38.376  29.011  10.915
17177W        W85507   7.845  32.403  11.478
17178W        W85508  11.170  14.154   4.720
17179W        W85509   4.264   3.743   4.127
17180W        W85510  30.438  35.925   3.825
17181W        W85511   9.387   4.787   3.759
17182W        W85512  30.509  22.528  14.818
17183W        W85513  35.948  21.114  10.064
17184W        W85514  23.733  41.956   2.771
17185W        W85515   2.316   9.257  11.084
17186W        W85516   5.220  21.514   0.878
17187W        W85517  27.564  39.878  14.846
17188W        W85518  42.420  31.948  14.943
17189W        W85519  32.634  35.359   4.623
17190W        W85520  25.487  42.955  14.423
17191W        W85521  25.061  22.250  11.612
17192W        W85522  30.011   1.740   0.967
17193W        W85523  44.921   7.189   0.736
17194W        W85524  40.906  25.663   3.363
17195W        W85525  42.922  10.741   4.633
17196W        W85526  35.059  40.489   1.886
17197W        W85527   6.360  39.863   1.218
17198W        W85528  33.551  41.451   5.278
17199W        W85529   8.729  20.222   3.328
17200W        W85530  11.651  29.506   4.644
17201W        W85531   3.460  30.075  11.023
17202W        W85532  33.613  24.998   0.260
17203W        W85533   5.821  16.107  11.541
17204W        W85534   7.219  13.160  13.542
17205W        W85535  16.202  44.359   0.885
17206W        W85536  36.531  38.537   0.949
17207W        W85537  14.759   7.813   3.335
17208W        W85538  12.196  17.767  13.855
17209W        W85539   9.248   9.707  13.330
17210W        W85540  36.492  42.510  14.929
17211W        W85541  37.439   3.331  14.003
17212W        W85542  33.908  42.885   1.736
17213W        W85543  11.664   5.375   4.132
17214W        W85544  16.791  22.632  10.596
17215W        W85545   9.883  16.268   2.795
17216W        W85546   1.797   7.183   4.608
17217W        W85547  17.750  38.986  13.469
17218W        W85548  21.084   9.884   0.273
17219W        W85549  10.265  24.068  13.910
17220W        W85550  11.236   5.909   4.119
17221W        W85551   5.240  42.432   0.321
17222W        W85552   5.912  22.016   0.339
17223W        W85553  35.884  24.493  14.853
17224W        W85554  18.679  32.394   0.805
17225W        W85555  25.173  27.089  11.493
17226W        W85556   6.877  16.715  10.564
17227W        W85557   4.892   7.178  11.980
17228W        W85558   1.415  42.451   3.360
17229W        W85559   5.907  14.284   5.082
17230W        W85560  31.422  31.984  10.933
17231W        W85561  42.367  10.383  12.503
17232W        W85562  32.548  39.813  11.565
17233W        W85563  22.516  28.528   5.261
17234W        W85564  38.040  27.459   3.689
17235W        W85565  18.791   9.170  10.457
17236W        W85566  26.014   3.820  11.044
17237W        W85567  38.393  23.002  13.810
17238W        W85568  27.036  23.164  12.069
17239W        W85569  10.785  16.728   3.636
17240W        W85570  26.488  23.633  12.993
17241W        W85571  32.019  22.067  11.928
17242W        W85572  41.994  22.058   0.375
17243W        W85573  11.702  33.423   3.154
17244W        W85574  17.303  23.216   2.181
17245W        W85575  10.840  34.498  13.897
17246W        W85576  13.791  24.189  13.059
17247W        W85577  33.996  16.677   0.887
17248W        W85578  16.269  28.553  10.639
17249W        W85579  38.894  20.268   2.244
17250W        W85580   0.889   1.948   1.298
17251W        W85581   4.763  27.178   0.287
17252W        W85582  21.714  27.971   4.253
17253W        W85583   7.207  25.631   3.835
17254W        W85584  30.098   4.378  13.955
17255W        W85585  10.803  25.998   1.713
17256W        W85586  39.356  37.464  11.394
17257W        W85587  16.696  24.986   2.890
17258W        W85588  44.755  28.936  13.049
17259W        W85589  14.178  42.812  14.807
17260W        W85590  22.160   3.890   3.338
17261W        W85591  16.273  17.598   0.463
17262W        W85592  15.790  41.025   3.797
17263W        W85593  18.566  39.335  10.574
17264W        W85594  21.566   6.313   2.690
17265W        W85595  23.186   0.767   4.768
17266W        W85596   3.898  12.149   1.386
17267W        W85597  30.075  13.136   2.876
17268W        W85598   8.797  38.392  13.059
17269W        W85599   6.735  26.684   1.800
17270W        W85600  11.216   1.262   1.271
17271W        W85601  35.430  17.561  13.053
17272W        W85602  44.857  41.040   0.461
17273W        W85603  11.352  13.796   0.803
17274W        W85604   2.371  33.907  12.429
17275W        W85605   5.862  32.904   4.705
17276W        W85606   2.743  33.624  11.585
17277W        W85607  21.066  33.031   4.215
17278W        W85608  11.827  39.958   3.196
17279W        W85609  36.374  29.521   4.345
17280W        W85610   8.730   9.186  12.090
17281W        W85611  20.107  26.069  14.946
17282W        W85612  32.058  10.370   2.368
17283W        W85613  11.643  40.418   4.353
17284W        W85614  31.618  17.278  12.408
17285W        W85615  10.720   3.785  14.370
17286W        W85616  21.603  10.351  10.593
17287W        W85617  17.745  27.009  11.128
17288W        W85618  29.151  15.252  13.520
17289W        W85619   3.743  33.597  13.481
17290W        W85620  10.651  31.505   4.344
17291W        W85621   4.376  13.107  14.004
17292W        W85622  27.981  29.928   2.215
17293W        W85623  33.887  34.095   0.764
17294W        W85624   9.375  24.722  11.055
17295W        W85625  11.831  35.487  12.376
17296W        W85626   1.391  19.754  13.547
17297W        W85627   8.371  24.700  11.474
17298W        W85628  38.367   9.664  11.550
17299W        W85629   2.233  30.077  14.284
17300W        W85630  10.878  33.925   0.876
17301W        W85631   8.759   1.977  10.622
17302W        W85632  29.628  17.648  13.546
17303W        W85633   0.756  34.032   0.366
17304W        W85634  41.855  19.188  12.490
17305W        W85635  16.770  13.119  10.412
17306W        W85636  14.253  12.321  11.096
17307W        W85637  30.037  33.904   1.361
17308W        W85638  24.027  32.456   2.320
17309W        W85639  22.651  42.343   5.103
17310W        W85640  23.615  38.825  10.629
17311W        W85641  28.456  18.176  14.470
17312W        W85642  39.447   5.899   2.666
17313W        W85643  33.094   7.255  14.372
17314W        W85644   0.254  10.754  11.986
17315W        W85645  27.553  30.955   4.610
17316W        W85646   0.354  13.281  10.643
17317W        W85647  29.004  38.952   4.774
17318W        W85648  11.832   4.303  13.009
17319W        W85649  11.268  27.138   4.346
17320W        W85650  17.582  11.353  14.798
17321W        W85651   0.792  38.341   1.400
17322W        W85652  12.649  30.656  13.406
17323W        W85653  26.042  37.347  10.410
17324W        W85654   7.358  32.066  11.386
17325W        W85655  24.143  24.209   4.182
17326W        W85656  29.649  10.355   3.820
17327W        W85657  44.989  33.043   4.193
17328W        W85658  40.900  23.029  11.995
17329W        W85659  20.524  44.300  12.471
17330W        W85660  44.784  37.023   3.263
17331W        W85661   7.770  12.754  14.981
17332W        W85662  34.992  24.192  12.844
17333W        W85663  39.030  35.358  12.377
17334W        W85664  34.095  44.413   1.257
17335W        W85665  20.139  43.427  12.568
17336W        W85666  42.880  38.484   0.856
17337W        W85667  29.046  35.375  11.096
17338W        W85668  25.485   2.873  10.903
17339W        W85669   2.379  14.229  10.603
17340W        W85670  19.213   0.434  14.411
17341W        W85671  15.087  25.989  12.550
17342W        W85672  43.940  16.759  14.782
17343W        W85673  30.536  34.885   0.826
17344W        W85674  22.174  44.761  11.592
17345W        W85675   6.314  11.830  11.978
17346W        W85676  17.201  27.663  14.766
17347W        W85677  13.840  34.547  10.911
17348W        W85678  23.658  30.445  11.439
17349W        W85679  15.197   8.824   2.245
17350W        W85680   6.689   0.410   0.917
17351W        W85681  37.842  17.671   4.290
17352W        W85682  21.167  13.780   0.431
17353W        W85683  11.738   6.895  14.982
17354W        W85684  15.095  17.774  13.544
17355W        W85685  11.802  17.204  13.375
17356W        W85686   3.337  19.068  14.857
17357W        W85687  20.632  16.105   9.471
17358W        W85688  10.846  33.101  10.919
17359W        W85689  12.838  13.291  12.946
17360W        W85690  14.833  40.970   0.734
17361W        W85691  19.192  34.490   0.942
17362W        W85692  15.238  29.173   2.282
17363W        W85693  43.017  44.876   3.263
17364W        W85694  39.882  42.323   2.679
17365W        W85695  40.914  42.964   1.301
17366W        W85696  36.521  35.926  10.629
17367W        W85697  36.410  14.667  14.391
17368W        W85698   5.274   2.369  10.935
17369W        W85699   5.729  12.744  11.040
17370W        W85700  20.058  32.966  11.499
17371W        W85701  19.708   9.691   0.749
17372W        W85702  20.249  23.986   5.292
17373W        W85703   8.742  27.489  11.963
17374W        W85704  27.684  11.658   4.655
17375W        W85705  24.064   0.790  12.360
17376W        W85706   6.244   3.429  13.335
17377W        W85707   0.780   3.723  10.528
17378W        W85708  16.685  41.432   2.366
17379W        W85709  39.371   6.920   1.717
17380W        W85710  34.972  30.940   4.638
17381W        W85711  42.363   0.250  11.089
17382W        W85712  12.356  37.930   4.159
17383W        W85713  26.056  43.394   1.413
17384W        W85714  42.314  14.205   4.246
17385W        W85715  21.118  36.477   4.643
17386W        W85716  27.083   4.290   1.223
17387W        W85717  40.897  35.374   4.634
17388W        W85718  14.618  39.019  12.415
17389W        W85719  39.816  40.907  10.638
17390W        W85720  40.409  44.274   2.327
17391W        W85721   7.404   4.217   3.384
17392W        W85722  11.791  28.942  10.948
17393W        W85723  37.966   4.241   1.836
17394W        W85724  40.508  38.378   4.218
17395W        W85725  26.042  23.537  12.449
17396W        W85726  16.605  14.716   2.255
17397W        W85727  17.089  43.319   2.704
17398W        W85728  26.570   2.295   0.812
17399W        W85729  32.115  27.958   2.747
17400W        W85730  37.923   2.445  10.997
17401W        W85731  42.893   1.474  11.904
17402W        W85732   9.372  13.809  10.521
17403W        W85733  14.167  42.880  13.870
17404W        W85734  10.212   3.438   2.181
17405W        W85735   4.425  20.051   0.276
17406W        W85736  11.269  41.811  12.843
17407W        W85737  14.678   1.390  14.417
17408W        W85738  12.215  13.722  14.024
17409W        W85739  28.537  30.426   4.667
17410W        W85740  33.068   4.327  11.117
17411W        W85741  22.090  37.012  11.382
17412W        W85742   0.969  29.046   2.351
17413W        W85743   3.862   0.430  13.460
17414W        W85744  12.817  17.216  13.032
17415W        W85745   8.292   1.956  13.342
17416W        W85746  36.945  32.462  12.981
17417W        W85747   4.233  24.994  14.316
17418W        W85748  25.998  38.026   1.764
17419W        W85749   1.883  26.653  10.944
17420W        W85750   2.838   3.910  13.988
17421W        W85751  21.563  13.148   0.255
17422W        W85752  21.238   6.692  11.523
17423W        W85753   5.412   2.946   1.920
17424W        W85754  25.504  17.583  10.997
17425W        W85755   2.274  13.187   0.318
17426W        W85756  32.548  35.523  10.447
17427W        W85757  10.681  15.194   2.318
17428W        W85758  15.147  22.609   0.765
17429W        W85759  28.135  16.245  11.425
17430W        W85760   4.825  15.745  11.018
17431W        W85761  40.389   9.691   1.364
17432W        W85762  32.038  36.404  14.451
17433W        W85763  38.453  23.509  12.959
17434W        W85764  41.323  39.527   2.666
17435W        W85765  19.672  21.067   0.934
17436W        W85766  12.208   6.359   4.189
17437W        W85767  22.219  36.044  13.001
17438W        W85768  25.110  13.614   3.146
17439W        W85769  43.004  16.813  10.496
17440W        W85770  27.560  22.654  13.938
17441W        W85771   6.775  34.972   2.690
17442W        W85772  14.650  34.002  14.825
17443W        W85773  18.258  10.172  10.584
17444W        W85774   1.958   8.862   3.367
17445W        W85775  35.083  23.525   3.265
17446W        W85776  17.574  41.313   4.323
17447W        W85777  28.675  35.026   4.672
17448W        W85778   9.317  20.186   0.272
17449W        W85779  30.539   0.389  13.963
17450W        W85780  44.916  32.117  12.988
17451W        W85781  16.782  44.817  11.978
17452W        W85782  44.460  10.233   0.751
17453W        W85783  37.075  17.699  12.346
17454W        W85784  20.623  35.452   1.856
17455W        W85785  20.645   7.796   4.798
17456W        W85786  17.289  18.558  10.580
17457W        W85787   2.957  14.604   1.358
17458W        W85788  23.615  29.432   2.880
17459W        W85789  37.079  41.880   4.149
17460W        W85790  37.998   1.462   0.365
17461W        W85791  29.520  12.238   4.648
17462W        W85792  30.018  44.309   0.776
17463W        W85793  19.675   3.342   4.832
17464W        W85794   0.412   3.891   2.315
17465W        W85795  24.577  33.491  13.370
17466W        W85796  12.169  30.604  12.456
17467W        W85797   5.222   0.977   0.370
17468W        W85798  42.451  44.452   4.616
17469W        W85799  42.313   7.780   2.705
17470W        W85800  36.090  15.123  14.436
17471W        W85801  10.361  44.441  12.964
17472W        W85802  31.976  24.108   1.765
17473W        W85803  13.820   3.802   2.735
17474W        W85804  24.500  43.494  13.508
17475W        W85805  41.397  38.859  12.083
17476W        W85806  33.923  22.213  12.918
17477W        W85807  24.624  13.623  12.996
17478W        W85808  34.388  11.650   1.269
17479W        W85809   4.307   9.249   4.209
17480W        W85810  26.541  21.103  10.592
17481W        W85811   9.198  31.995   2.857
17482W        W85812  43.901  24.209   0.308
17483W        W85813  26.647   3.420   0.773
17484W        W85814   8.672  36.393   0.848
17485W        W85815  22.074  38.936   1.931
17486W        W85816  32.395   1.915  10.073
17487W        W85817   5.287  28.531  10.999
17488W        W85818  10.736  35.012  12.360
17489W        W85819  23.719   3.802  10.454
17490W        W85820  31.474  25.068   1.820
17491W        W85821  11.326   8.748   4.240
17492W        W85822  40.475  30.489   1.870
17493W        W85823  40.834  27.142   2.716
17494W        W85824  32.578  33.006  11.104
17495W        W85825  40.376  19.638   2.711
17496W        W85826  27.474  25.056   4.210
17497W        W85827  42.941  37.455  11.418
17498W        W85828  18.756  17.080  10.151
17499W        W85829  24.511  13.814   3.823
17500W        W85830  31.928  29.931  12.824
17501W        W85831   1.794  40.877   4.708
17502W        W85832  34.030  23.617  14.452
17503W        W85833  28.590  27.042  14.779
17504W        W85834  44.341  24.580   2.241
17505W        W85835  10.795  24.065   0.435
17506W        W85836  39.512  12.127   4.339
17507W        W85837  39.326  35.995   3.804
17508W        W85838  22.735  37.852   3.666
17509W        W85839  20.727  17.668  14.966
17510W        W85840  39.536  15.650  10.952
17511W        W85841  22.209   7.349   1.818
17512W        W85842  23.013   3.272   3.733
17513W        W85843  14.602   7.726  12.041
17514W        W85844  35.086  43.378   1.920
17515W        W85845  33.600   0.354  13.980
17516W        W85846   1.769  39.378  12.077
17517W        W85847  36.072  31.056   0.959
17518W        W85848  13.176   8.191   0.934
17519W        W85849  28.566  44.316   2.715
17520W        W85850  35.922  30.041  14.290
17521W        W85851  40.934  26.469   4.812
17522W        W85852  42.344   0.329   4.345
17523W        W85853  22.708  27.565   1.802
17524W        W85854  20.121  20.070  14.961
17525W        W85855  43.310  34.467  13.479
17526W        W85856  35.558  44.931   2.670
17527W        W85857  42.030  41.951   0.393
17528W        W85858  31.462  30.967  14.337
17529W        W85859  16.643  31.916  11.093
17530W        W85860  30.094  22.145   2.804
17531W        W85861  33.584  39.557  13.929
17532W        W85862  18.610  14.729  12.455
17533W        W85863  31.489  41.523   0.747
17534W        W85864   7.830  42.498   4.340
17535W        W85865  38.425  36.056   1.776
17536W        W85866  19.747   1.765  11.394
17537W        W85867  28.488  32.454  10.098
17538W        W85868  27.579  31.628   2.788
17539W        W85869  23.077   0.855   1.909
17540W        W85870  26.199  16.150   4.666
17541W        W85871   2.388   7.217   3.212
17542W        W85872  18.110   4.416  11.386
17543W        W85873  14.754  12.610  14.923
17544W        W85874   0.397  23.732  14.922
17545W        W85875  33.014   0.869   1.360
17546W        W85876  21.541  30.143   1.795
17547W        W85877  19.068  26.673   4.255
17548W        W85878  22.149  19.173  11.997
17549W        W85879  14.128  33.554  12.920
17550W        W85880  42.462  23.516   1.788
17551W        W85881  19.548  43.410  13.008
17552W        W85882  16.651  33.622   0.261
17553W        W85883   2.429  22.197   2.299
17554W        W85884  41.299  44.340   1.794
17555W        W85885  15.254  33.920  14.278
17556W        W85886  39.942  19.250   1.919
17557W        W85887  24.005  41.302  11.495
17558W        W85888  22.537   8.309  13.961
17559W        W85889  26.502  35.901   0.414
17560W        W85890  15.742  40.822   1.303
17561W        W85891  33.119  27.690   2.841
17562W        W85892  22.232  38.393   1.344
17563W        W85893   7.309  30.117   0.387
17564W        W85894  29.585  23.652  13.330
17565W        W85895  41.016  19.548   2.180
17566W        W85896  37.079   0.340   0.341
17567W        W85897   2.397  27.008   2.228
17568W        W85898  44.997  31.105   0.272
17569W        W85899   0.371  11.298  10.933
17570W        W85900  15.796  24.109  10.004
17571W        W85901  20.133  41.859   3.158
17572W        W85902   5.400  37.047   5.229
17573W        W85903  36.379   2.899   0.765
17574W        W85904  27.632   3.893   1.788
17575W        W85905  44.815  44.972   2.892
17576W        W85906  12.753   3.301  12.561
17577W        W85907  11.698  20.571  13.500
17578W        W85908   8.316  25.639   4.792
17579W        W85909  15.623  12.154  13.479
17580W        W85910   4.300  10.181   1.832
17581W        W85911  21.262  38.328   5.124
17582W        W85912  22.206  17.126   5.686
17583W        W85913  34.530  28.178   4.209
17584W        W85914  10.236  30.453   0.478
17585W        W85915   9.385  26.604  13.328
17586W        W85916  42.280   4.441  13.493
17587W        W85917   6.212  13.303   4.323
17588W        W85918  17.127  26.130  13.481
17589W        W85919  12.314  24.014  13.410
17590W        W85920  27.675   9.759  12.051
17591W        W85921   2.887  27.093   3.852
17592W        W85922  11.799   9.269   2.254
17593W        W85923  23.170  28.597   3.696
17594W        W85924   6.878  21.049  14.947
17595W        W85925  32.037  36.915   0.429
17596W        W85926  35.000  41.308   4.218
17597W        W85927  18.715  34.021  11.466
17598W        W85928  37.447  11.299   0.786
17599W        W85929  35.534  20.139  10.417
17600W        W85930  22.713   5.840   4.702
17601W        W85931   4.846  10.232  11.525
17602W        W85932  42.307  34.409   0.297
17603W        W85933   9.388  13.639   3.227
17604W        W85934  29.427  38.513  14.892
17605W        W85935  44.505  14.647  13.964
17606W        W85936  28.549  17.623   3.213
17607W        W85937  18.270  20.095  13.338
17608W        W85938  16.224  22.221  13.826
17609W        W85939  23.143  33.131  13.882
17610W        W85940  34.027  31.001  13.342
17611W        W85941  42.510  38.443   3.308
17612W        W85942   8.816  37.355  12.381
17613W        W85943   5.288  41.867   4.130
17614W        W85944  36.415   4.423   2.305
17615W        W85945  27.446  14.219  13.364
17616W        W85946  42.499  31.059   1.296
17617W        W85947   7.821  34.006  11.555
17618W        W85948  16.130  13.130  14.912
17619W        W85949  35.070   7.357  10.017
17620W        W85950  42.450   3.427  10.521
17621W        W85951  35.881  25.987  11.098
17622W        W85952  35.443  35.036   3.199
17623W        W85953  37.847   6.419   3.279
17624W        W85954  13.733  37.902  13.947
17625W        W85955   7.843   1.806  14.446
17626W        W85956   7.899  11.247   3.751
17627W        W85957   5.889  12.179  11.925
17628W        W85958  16.720  33.470  11.104
17629W        W85959  28.626  19.751   4.746
17630W        W85960  29.122  36.928   0.344
17631W        W85961  44.941   1.748  11.469
17632W        W85962  21.516  19.083   1.314
17633W        W85963  34.983  44.368   3.650
17634W        W85964  36.534  20.708  10.994
17635W        W85965  27.611  16.657   1.820
17636W        W85966   7.297  44.929   0.793
17637W        W85967   0.434  30.534  12.832
17638W        W85968  39.008   3.935  11.485
17639W        W85969   8.892  10.197  13.889
17640W        W85970  28.523  34.093   9.574
17641W        W85971  22.158  32.584   4.807
17642W        W85972  24.202  18.578  13.349
17643W        W85973  22.555  34.536   2.794
17644W        W85974   0.303  36.545  14.006
17645W        W85975   4.839   9.758  11.046
17646W        W85976   2.393   2.813   3.320
17647W        W85977  25.969  44.009  10.460
17648W        W85978  44.483  37.466  12.540
17649W        W85979   2.765  17.787   3.339
17650W        W85980  12.675  25.600  11.469
17651W        W85981  29.511  31.648  13.856
17652W        W85982  11.270   9.660   0.296
17653W        W85983  37.879  34.482  14.863
17654W        W85984  29.432   2.796   0.855
17655W        W85985  43.940  31.951   0.363
17656W        W85986  25.555   3.379  13.003
17657W        W85987  34.593  22.654  10.536
17658W        W85988  12.211  16.694  14.931
17659W        W85989  11.205  30.082  12.850
17660W        W85990  33.131  20.654  10.450
17661W        W85991  25.978  20.670   0.356
17662W        W85992   1.400   8.331   0.940
17663W        W85993   4.427  42.426  13.893
17664W        W85994  20.538   8.329  11.440
17665W        W85995   2.342  12.281  10.487
17666W        W85996  38.897  25.115   2.881
17667W        W85997  43.857  31.559   3.370
17668W        W85998  34.442  14.809   3.669
17669W        W85999   6.337  16.075  11.041
17670W        W86000  43.366  20.124  10.484
17671W        W86001   4.743  16.220   3.300
17672W        W86002  26.616  19.621   1.227
17673W        W86003  18.212  10.677   1.921
17674W        W86004  35.568  30.436  11.059
17675W        W86005   8.227  42.285   1.886
17676W        W86006  17.704  19.072   4.311
17677W        W86007   5.866  43.784   1.233
17678W        W86008  39.872   2.335   1.325
17679W        W86009  26.513  27.051   1.880
17680W        W86010   6.709  35.385   0.949
17681W        W86011   3.914  15.615   3.214
17682W        W86012  30.481  13.835   4.829
17683W        W86013  31.518  30.015  13.000
17684W        W86014  39.056   8.394   4.244
17685W        W86015  25.514  39.498  11.043
17686W        W86016  24.504  19.539   3.864
17687W        W86017  13.802  41.501   0.431
17688W        W86018   0.315  39.363   0.330
17689W        W86019  35.497   4.230  11.509
17690W        W86020  44.923  40.331  11.919
17691W        W86021  18.062  12.612   1.820
17692W        W86022  18.786  34.403  13.502
17693W        W86023  33.431  36.589  11.894
17694W        W86024  37.527   4.832  14.400
17695W        W86025  39.388   1.871   2.337
17696W        W86026  32.931  36.017  14.329
17697W        W86027   4.877  21.258  10.481
17698W        W86028  23.572  42.502   0.292
17699W        W86029  10.703  11.365  10.562
17700W        W86030   3.307   1.465  14.432
17701W        W86031   1.309  14.159  13.054
17702W        W86032   5.347  24.613   4.699
17703W        W86033   5.261  45.000  11.933
17704W        W86034  35.446   3.762   1.904
17705W        W86035  33.031  17.108   3.672
17706W        W86036  37.932   1.406   4.675
17707W        W86037  30.425  43.320  14.278
17708W        W86038  13.273   9.270   4.204
17709W        W86039   4.848  43.770   2.881
17710W        W86040  26.551  32.443  10.995
17711W        W86041  20.228  20.757   4.639
17712W        W86042  30.015   8.857  14.387
17713W        W86043  41.322   2.254   4.825
17714W        W86044   2.773  14.734   0.842
17715W        W86045  38.944   4.942  13.989
17716W        W86046  16.185  27.966  14.788
17717W        W86047  12.658  19.636   1.418
17718W        W86048   0.925  18.170   4.237
17719W        W86049  27.510  34.500  13.878
17720W        W86050   0.371  38.870   2.767
17721W        W86051   3.938  35.945   3.329
17722W        W86052   9.374  22.715   3.240
17723W        W86053   5.223  30.444   4.640
17724W        W86054   0.883  41.896   2.208
17725W        W86055  29.093  18.275   4.197
17726W        W86056   9.730  10.142   0.394
17727W        W86057  18.730  41.021  13.801
17728W        W86058  40.845  31.612   1.810
17729W        W86059  24.509  21.643   3.318
17730W        W86060  16.763  18.694   3.865
17731W        W86061  44.958  28.502   0.959
17732W        W86062   1.430  26.031   2.249
17733W        W86063  43.815  43.401  12.934
17734W        W86064  31.594  42.471  12.053
17735W        W86065  19.126  17.239   3.368
17736W        W86066  27.478  29.934  11.578
17737W        W86067  28.618   7.325   4.240
17738W        W86068  18.186   4.815  13.518
17739W        W86069  43.355  22.604   4.831
17740W        W86070  15.327  14.277   3.297
17741W        W86071   3.937  38.962   9.987
17742W        W86072  24.064   9.858  14.981
17743W        W86073   6.712  39.529   3.378
17744W        W86074  22.161  15.292   1.918
17745W        W86075  19.580  24.122   3.772
17746W        W86076   6.714  12.650  11.503
17747W        W86077   6.890  41.372  11.004
17748W        W86078  12.259  39.551  13.370
17749W        W86079  43.412  12.170   3.673
17750W        W86080  27.465  25.051   1.406
17751W        W86081  28.582  24.660   1.333
17752W        W86082  31.974  44.870  11.949
17753W        W86083  28.177   2.919   2.769
17754W        W86084  14.675  40.988  12.956
17755W        W86085  34.435  23.014   4.612
17756W        W86086  29.627  25.096  14.315
17757W        W86087  19.691  30.626   4.258
17758W        W86088  34.522  15.738   1.217
17759W        W86089   7.792  32.627  11.086
17760W        W86090   4.795  21.755  11.575
17761W        W86091   3.956  29.518  11.586
17762W        W86092  11.148  43.355   1.713
17763W        W86093  42.428  15.192   0.473
17764W        W86094   0.364   2.455  10.988
17765W        W86095  27.188  10.331  13.326
17766W        W86096  25.674  39.547  12.915
17767W        W86097  20.163  28.489   5.751
17768W        W86098  19.239   2.782   0.936
17769W        W86099  30.971   7.702  12.527
17770W        W86100  23.202  11.368   2.825
17771W        W86101  40.452  27.160   4.610
17772W        W86102   3.350   0.872  13.922
17773W        W86103   2.905  16.144  13.897
17774W        W86104  28.517  38.399   1.735
17775W        W86105  14.654  15.313   4.146
17776W        W86106  39.535  32.961   3.700
17777W        W86107   3.277  43.326  12.458
17778W        W86108  20.621  42.883   2.802
17779W        W86109  22.049  14.287   2.317
17780W        W86110  28.590  14.602   2.772
17781W        W86111  30.159  33.081   1.695
17782W        W86112   3.273  23.182  11.981
17783W        W86113  21.075   7.742  12.067
17784W        W86114  35.482  14.811   0.454
17785W        W86115  44.303  18.278   5.260
17786W        W86116  19.275  32.967   3.383
17787W        W86117  23.530  32.513  13.879
17788W        W86118  26.161   7.356   2.396
17789W        W86119  41.938  42.391  14.445
17790W        W86120  18.574  26.136   0.325
17791W        W86121  36.962  35.462  13.877
17792W        W86122   9.213  11.288  10.622
17793W        W86123  22.247  35.517   2.333
17794W        W86124  27.617  29.095   2.384
17795W        W86125   8.316  27.987  12.385
17796W        W86126  29.984   0.799   4.266
17797W        W86127  38.444  26.062  11.924
17798W        W86128  15.755  32.454  12.529
17799W        W86129   9.735  23.698   3.265
17800W        W86130  30.603  13.299  13.967
17801W        W86131  10.237  42.982   1.900
17802W        W86132   6.857  19.663   2.203
17803W        W86133  41.943   9.292   3.826
17804W        W86134  33.032  15.682  11.428
17805W        W86135  19.051  15.616   4.696
17806W        W86136   0.849  20.653  11.536
17807W        W86137  26.660   0.267  10.434
17808W        W86138  22.181  18.780  11.011
17809W        W86139  38.344   9.182   1.841
17810W        W86140  31.593  39.380   3.213
17811W        W86141   0.936  17.095   1.401
17812W        W86142  16.783  17.696   4.235
17813W        W86143  35.048   3.378  11.408
17814W        W86144  43.887  27.676  12.574
17815W        W86145  15.701  29.169   3.207
17816W        W86146   8.856  15.717   0.962
17817W        W86147  12.697  42.467  10.947
17818W        W86148  21.553   5.378   1.268
17819W        W86149  34.468  31.433  10.504
17820W        W86150   1.273  30.035   0.322
17821W        W86151  42.801  27.094  12.915
17822W        W86152  19.045   3.856   1.314
17823W        W86153  12.850  27.691  11.061
17824W        W86154   0.335  25.481  10.561
17825W        W86155  37.836   4.888   3.826
17826W        W86156   4.338  13.785   2.206
17827W        W86157  25.645  23.664   3.817
17828W        W86158  39.440  30.561   1.735
17829W        W86159  28.627  24.618   3.323
17830W        W86160   9.228  15.632  13.322
17831W        W86161  39.525  20.104   4.116
17832W        W86162  17.214  28.994   0.925
17833W        W86163   2.942  17.678  14.299
17834W        W86164  25.962   6.782  11.407
17835W        W86165  14.127  31.586  13.310
17836W        W86166  24.055   5.431  12.540
17837W        W86167  16.259  38.352   3.155
17838W        W86168  14.322  10.294   1.703
17839W        W86169  13.259  15.774   0.883
17840W        W86170  43.484   8.765  12.899
17841W        W86171  22.584   3.786  12.420
17842W        W86172  12.298  21.260   1.887
17843W        W86173  10.789  16.245  14.837
17844W        W86174  30.916  10.316  12.967
17845W        W86175   1.386  33.533   4.642
17846W        W86176  31.925  40.987  11.452
17847W        W86177  13.685  39.827  14.977
17848W        W86178  43.454   8.273   0.396
17849W        W86179  37.020  22.176   4.189
17850W        W86180   9.790   3.757   2.727
17851W        W86181   6.805  18.166   3.752
17852W        W86182  32.903  35.410   0.343
17853W        W86183  31.956  14.632  12.841
17854W        W86184  34.933  29.601   4.649
17855W        W86185  31.090  39.449  13.959
17856W        W86186  22.712  11.366   1.370
17857W        W86187  15.220  13.319   0.735
17858W        W86188  32.553  38.563   4.670
17859W        W86189   7.808  40.855   2.210
17860W        W86190  16.649  37.467   3.353
17861W        W86191  27.122  21.521   4.663
17862W        W86192  43.984   3.244   5.140
17863W        W86193   0.869  39.541   4.179
17864W        W86194  11.355   4.789  11.522
17865W        W86195  25.062  10.289  10.036
17866W        W86196  25.996  33.522   1.825
17867W        W86197  22.242  34.549  13.927
17868W        W86198  39.865   9.351  13.441
17869W        W86199  31.439  28.010  14.816
17870W        W86200  31.629  33.518   4.628
17871W        W86201  13.242  13.674   3.155
17872W        W86202  38.327  40.311   2.191
17873W        W86203  34.043  42.455  13.798
17874W        W86204  33.618  22.513  13.047
17875W        W86205   7.382  37.436   0.479
17876W        W86206   4.846  28.441   3.841
17877W        W86207  35.473  20.673   0.816
17878W        W86208  14.693  36.000   1.772
17879W        W86209   4.784  38.922   0.468
17880W        W86210  17.723  22.521   5.734
17881W        W86211  16.260  31.624   3.819
17882W        W86212  21.750   3.881  12.883
17883W        W86213   6.403  23.131  10.423
17884W        W86214   1.851   8.216   1.217
17885W        W86215  36.365  35.045   3.357
17886W        W86216  15.108  34.543  11.482
17887W        W86217  29.473   3.238   5.318
17888W        W86218  29.619  38.837  11.398
17889W        W86219  32.898  34.874   0.302
17890W        W86220  44.293  34.049   4.302
17891W        W86221  30.992  21.239   3.157
17892W        W86222   7.792   7.693   0.944
17893W        W86223  16.595   2.934   2.193
17894W        W86224  24.690  31.109   3.676
17895W        W86225   0.378  33.979   1.314
17896W        W86226  12.289  13.211   2.392
17897W        W86227  34.561   6.350  13.907
17898W        W86228  37.576   3.890  10.430
17899W        W86229  30.998   8.278   2.353
17900W        W86230   6.285  41.466  13.457
17901W        W86231  43.368  34.489  13.921
17902W        W86232   1.441  34.448  13.334
17903W        W86233  19.058  17.759   4.827
17904W        W86234  31.956  34.567  13.461
17905W        W86235  41.508  37.061   1.827
17906W        W86236   1.861   0.984  11.899
17907W        W86237  12.622  26.608   0.355
17908W        W86238  24.578  20.704   4.174
17909W        W86239   3.360  31.936  12.890
17910W        W86240  13.188   0.859  12.381
17911W        W86241   4.402   0.836   2.742
17912W        W86242  22.568  24.502   1.212
17913W        W86243   0.257  26.983   1.298
17914W        W86244  21.650   2.401  14.833
17915W        W86245  38.825   0.460   4.825
17916W        W86246  37.539  40.497  11.096
17917W        W86247  33.039  40.527   4.215
17918W        W86248  19.084  31.548   0.426
17919W        W86249   9.719   2.930   3.156
17920W        W86250  23.583  10.169   3.806
17921W        W86251  30.556   8.820   4.695
17922W        W86252  13.192  18.638   3.801
17923W        W86253  39.896  27.084   0.466
17924W        W86254   7.881  43.403  10.541
17925W        W86255  44.364  18.646  11.081
17926W        W86256  12.855  43.478  12.475
17927W        W86257  34.606  14.687  12.429
17928W        W86258  26.523  39.487   3.365
17929W        W86259  25.987  29.579   1.219
17930W        W86260  18.709  37.946  12.424
17931W        W86261  13.208  33.556   0.290
17932W        W86262  15.235   9.668   0.774
17933W        W86263  26.173  25.069   2.228
17934W        W86264  10.301  30.163  14.317
17935W        W86265  18.272   0.468   0.353
17936W        W86266  38.832  19.081   1.702
17937W        W86267  30.007  28.946   3.797
17938W        W86268   2.251   7.246   4.751
17939W        W86269  19.600  27.519  13.968
17940W        W86270   1.926   9.292  10.637
17941W        W86271   5.422  30.047  10.932
17942W        W86272   2.747  21.018  11.112
17943W        W86273   8.837  41.983  11.091
17944W        W86274   2.242  34.913   5.316
17945W        W86275  16.281  13.239   2.776
17946W        W86276   7.290  27.579   2.382
17947W        W86277   3.394  29.507   0.758
17948W        W86278  32.097  39.947   1.789
17949W        W86279  30.011  44.424   2.700
17950W        W86280  34.964  37.894  11.480
17951W        W86281  40.041  43.502  13.882
17952W        W86282  20.766   4.788  11.923
17953W        W86283   9.727  36.588  14.381
17954W        W86284  10.717  17.695   2.219
17955W        W86285  20.764  41.392   1.842
17956W        W86286   3.378  29.008  11.576
17957W        W86287  29.605   0.431  11.085
17958W        W86288  36.988  19.566  12.494
17959W        W86289  22.028  26.207   1.364
17960W        W86290  39.966  24.090   3.279
17961W        W86291   4.425  39.457   1.837
17962W        W86292  19.680   9.358   0.338
17963W        W86293   3.825  25.646  14.958
17964W        W86294  37.525  21.663   3.244
17965W        W86295   9.848  13.816  10.632
17966W        W86296   0.445  10.171   3.361
17967W        W86297  44.269  33.486   1.901
17968W        W86298  42.317   1.945   4.216
17969W        W86299  15.173  15.251   1.915
17970W        W86300  16.085   3.267  12.847
17971W        W86301  23.688  10.796  13.889
17972W        W86302  28.953  18.547  13.444
17973W        W86303   8.356  28.531   2.669
17974W        W86304  32.551  24.092  11.397
17975W        W86305  30.577  15.125  11.882
17976W        W86306  25.616  41.467   0.886
17977W        W86307  15.773  24.698  13.536
17978W        W86308   7.243   2.343  13.527
17979W        W86309  24.673  21.069   2.705
17980W        W86310  16.592  30.619   5.096
17981W        W86311  34.921  32.450  14.456
17982W        W86312  10.300  18.275   4.179
17983W        W86313   3.400   3.888  11.867
17984W        W86314  42.486  28.116  10.949
17985W        W86315  12.846  24.651  14.459
17986W        W86316  22.159  37.068   2.232
17987W        W86317  21.554  44.276  10.105
17988W        W86318  16.694   3.787   4.703
17989W        W86319   6.381  13.197   3.820
17990W        W86320  39.480  43.416   2.793
17991W        W86321  11.749  28.500   0.258
17992W        W86322   0.406  14.145  10.445
17993W        W86323  42.514  43.294   0.318
17994W        W86324  36.478   7.909  13.490
17995W        W86325  33.879  35.937  11.088
17996W        W86326  24.079  38.429   2.390
17997W        W86327  28.525   7.819   3.797
17998W        W86328  15.270  31.141  12.069
17999W        W86329  33.915  37.345   1.713
18000W        W86330  42.505   7.761   1.309
18001W        W86331  40.340  36.853  13.501
18002W        W86332  25.624  38.874  11.972
18003W        W86333  38.898  26.567  13.921
18004W        W86334  21.543   9.375   3.277
18005W        W86335  19.175  28.025   3.705
18006W        W86336  39.931  38.933   2.877
18007W        W86337  41.896  28.976  10.641
18008W        W86338  15.651   4.395  11.469
18009W        W86339  27.545  23.676  10.519
18010W        W86340  39.820  20.665  13.046
18011W        W86341  27.946  13.646  13.477
18012W        W86342   6.390  19.668  10.114
18013W        W86343  22.549  17.721   0.347
18014W        W86344  34.056   0.427   3.767
18015W        W86345  36.982  19.725  12.835
18016W        W86346  23.551  10.336  13.330
18017W        W86347  17.184  40.478  12.483
18018W        W86348  28.098  10.817  13.949
18019W        W86349  11.801  24.062   2.226
18020W        W86350  42.470  33.383   0.787
18021W        W86351  36.090  19.777   0.909
18022W        W86352  11.225  20.212  14.799
18023W        W86353  24.121   4.353   4.185
18024W        W86354   0.348  27.970   2.832
18025W        W86355  27.635   2.935   1.334
18026W        W86356  13.139  43.895  12.065
18027W        W86357  36.458  31.971   3.779
18028W        W86358  39.986  42.327  12.346
18029W        W86359  39.460  10.312   2.375
18030W        W86360  31.647  16.783   4.115
18031W        W86361  22.113  20.627   0.768
18032W        W86362  21.018   9.763  14.310
18033W        W86363  36.539  36.884   4.133
18034W        W86364  33.583  24.594  13.427
18035W        W86365  30.606  36.563   3.207
18036W        W86366  19.646   4.889  10.484
18037W        W86367  27.479  44.994  12.920
18038W        W86368  29.472  44.958   4.774
18039W        W86369  11.675   6.191   9.953
18040W        W86370  40.468  42.359   4.113
18041W        W86371   9.227  30.945   1.266
18042W        W86372  35.465  44.454   1.699
18043W        W86373  19.148  40.334   1.273
18044W        W86374  25.616   1.294  12.882
18045W        W86375   2.948  11.696   1.326
18046W        W86376  10.659  33.115  14.883
18047W        W86377  26.061   9.389  11.594
18048W        W86378  27.094   7.362   4.160
18049W        W86379  21.609  35.057  13.831
18050W        W86380   1.435  37.846   4.346
18051W        W86381   5.344  13.120  12.448
18052W        W86382   1.446   0.787   4.204
18053W        W86383   5.816  32.982  13.828
18054W        W86384  27.449  39.374   3.808
18055W        W86385  13.213  28.178   0.837
18056W        W86386  40.830   4.862   0.927
18057W        W86387   2.814   3.313  12.852
18058W        W86388  39.999   3.938  14.941
18059W        W86389  43.367  12.315   1.273
18060W        W86390  27.645  26.658  11.441
18061W        W86391  22.593  30.149  12.004
18062W        W86392   2.963   4.342  13.857
18063W        W86393   5.834   8.661  13.958
18064W        W86394  11.333  32.998  13.839
18065W        W86395  33.513  29.159  14.508
18066W        W86396   3.449  41.460  14.002
18067W        W86397  17.750  32.577  14.960
18068W        W86398  31.112  28.540   2.892
18069W        W86399  21.681  37.364  12.489
18070W        W86400  18.252   6.244   3.815
18071W        W86401   8.863   0.854   2.380
18072W        W86402  37.394  42.417   3.655
18073W        W86403  23.119  38.405   3.652
18074W        W86404   7.211  16.773   1.430
18075W        W86405  10.684  36.951  14.940
18076W        W86406  41.461   3.426  14.924
18077W        W86407  11.833  19.158  13.812
18078W        W86408  26.531  10.796   4.651
18079W        W86409  41.997  42.478   1.699
18080W        W86410  17.088   7.747  11.871
18081W        W86411  29.442  24.479  13.368
18082W        W86412  24.110  11.196   3.827
18083W        W86413  20.739  26.561  13.514
18084W        W86414  17.779   7.282   4.718
18085W        W86415   5.376  10.180   1.697
18086W        W86416  12.846   3.773   1.788
18087W        W86417  20.103  19.647   2.179
18088W        W86418  20.719  15.679  13.989
18089W        W86419   9.819  43.840   0.843
18090W        W86420   2.295  29.476  14.022
18091W        W86421  40.499  28.474  12.479
18092W        W86422   1.774  29.974   1.701
18093W        W86423  32.031   0.846   0.756
18094W        W86424  11.662  34.869  14.495
18095W        W86425  15.707  21.719  13.402
18096W        W86426   9.232  39.949  14.889
18097W        W86427  36.846   5.327   4.749
18098W        W86428  16.154  15.736  14.874
18099W        W86429  44.341   8.885   1.802
18100W        W86430  36.515  21.229  12.995
18101W        W86431   1.945   3.327   2.203
18102W        W86432   0.897   6.419   4.244
18103W        W86433  39.388  37.422   2.250
18104W        W86434  23.633  29.141   0.867
18105W        W86435  32.546  35.600   3.867
18106W        W86436  25.068  38.996   1.240
18107W        W86437  23.689  20.272  13.828
18108W        W86438   5.846   4.819   2.360
18109W        W86439   0.781  38.438   1.855
18110W        W86440  22.611  14.691   0.762
18111W        W86441  12.136  23.992  10.497
18112W        W86442  17.244  14.097  14.852
18113W        W86443  28.948  14.295   4.134
18114W        W86444  25.083  36.366  14.397
18115W        W86445  36.363  21.258  14.284
18116W        W86446  14.156  31.943   1.332
18117W        W86447  42.985   3.356   5.312
18118W        W86448  22.021  21.046  14.761
18119W        W86449  11.722  21.752   3.810
18120W        W86450   2.926   9.842  11.607
18121W        W86451  13.290  24.480  13.920
18122W        W86452  36.874  27.950   2.695
18123W        W86453   1.847  23.137   2.850
18124W        W86454  23.559  16.125   1.237
18125W        W86455  20.103   2.800   0.468
18126W        W86456  36.445  20.265   3.694
18127W        W86457   2.941   8.789  11.603
18128W        W86458   9.730  42.954  10.117
18129W        W86459   1.476   3.891  12.900
18130W        W86460   4.213  35.996   3.192
18131W        W86461  42.896   5.746   2.365
18132W        W86462  15.589  17.286   3.691
18133W        W86463   4.790  29.139   3.199
18134W        W86464  35.495   6.794  12.529
18135W        W86465  28.582   7.192   3.751
18136W        W86466  22.041  22.501  10.450
18137W        W86467  21.572  36.584   0.765
18138W        W86468  41.326  10.246   2.311
18139W        W86469  14.251  24.089  12.392
18140W        W86470   3.249  26.595   2.784
18141W        W86471  30.461  28.610  11.968
18142W        W86472  23.661  32.596   4.610
18143W        W86473  40.358   6.903   4.354
18144W        W86474   2.770   9.684  13.514
18145W        W86475  36.390   7.827  12.377
18146W        W86476  23.644  33.098   4.816
18147W        W86477  27.977  29.474   3.715
18148W        W86478  28.473  35.472  13.334
18149W        W86479  10.371  41.817   0.439
18150W        W86480  27.972  33.905   0.445
18151W        W86481  35.377  16.292   2.808
18152W        W86482   9.729  34.466   2.309
18153W        W86483  29.448  39.901  13.486
18154W        W86484  10.191  41.456   3.697
18155W        W86485  39.974  41.835   2.411
18156W        W86486   4.887   1.401  12.963
18157W        W86487  22.076   2.872  14.296
18158W        W86488  29.145  20.544   0.309
18159W        W86489   7.274  16.607  10.561
18160W        W86490   1.471  25.190   2.191
18161W        W86491  14.199  34.991  11.590
18162W        W86492  16.143  25.018   3.336
18163W        W86493   6.218  30.586   3.857
18164W        W86494  33.969   6.226   1.823
18165W        W86495   2.303  40.404  14.848
18166W        W86496  20.602   3.422  14.932
18167W        W86497  20.125  34.569  11.959
18168W        W86498  15.108  27.198  12.495
18169W        W86499  19.242  34.959   1.730
18170W        W86500  44.407  30.060  11.032
18171W        W86501  33.476   8.321   1.752
18172W        W86502  21.208  36.910  11.924
18173W        W86503  33.549  37.954  11.440
18174W        W86504  26.092   4.354   0.784
18175W        W86505  32.547  10.306  13.522
18176W        W86506  19.123  37.510   2.249
18177W        W86507  11.748  18.614  13.923
18178W        W86508  15.327   3.361  11.986
18179W        W86509   0.789  29.955   2.669
18180W        W86510  19.196  20.680  13.899
18181W        W86511  13.293  41.447  10.532
18182W        W86512  18.166  16.626   0.483
18183W        W86513  25.162  32.067  12.444
18184W        W86514   2.296  44.424  10.446
18185W        W86515   2.412  14.170  12.542
18186W        W86516   3.888  31.902  13.992
18187W        W86517  32.983   8.382   4.648
18188W        W86518  16.107   7.259   1.400
18189W        W86519  28.444  41.349  13.985
18190W        W86520  16.253   8.678   1.745
18191W        W86521  11.216   2.831  13.907
18192W        W86522  23.150  37.384   4.222
18193W        W86523   3.440  31.084  14.983
18194W        W86524  23.611  20.076   4.667
18195W        W86525  24.118  18.692   3.781
18196W        W86526  18.147  16.589  10.473
18197W        W86527  20.155  44.005   0.967
18198W        W86528   5.207  14.787  12.847
18199W        W86529   3.767  38.443  14.924
18200W        W86530  23.991  29.104   3.383
18201W        W86531   0.399  33.033  10.568
18202W        W86532   3.436  43.939   1.241
18203W        W86533   1.752   8.253  12.444
18204W        W86534  22.092  15.727  13.833
18205W        W86535  31.014  32.026  12.059
18206W        W86536  38.332  34.054   3.818
18207W        W86537  21.090  30.042  14.021
18208W        W86538  24.527  27.128  11.901
18209W        W86539  29.520  11.133  14.898
18210W        W86540   2.338  21.158  11.112
18211W        W86541  18.612  20.253   0.893
18212W        W86542  28.481  44.376  13.481
18213W        W86543   2.859  19.248  12.898
18214W        W86544  22.507   2.817   3.232
18215W        W86545  33.116   7.808   0.740
18216W        W86546   6.419   5.266   1.247
18217W        W86547  27.169  41.016   0.333
18218W        W86548  36.091   9.232  13.839
18219W        W86549  37.075   9.801   2.743
18220W        W86550   1.475  38.877  13.474
18221W        W86551  21.749  28.995  11.016
18222W        W86552  27.989  23.626   2.898
18223W        W86553  42.446  25.516   3.245
18224W        W86554  40.463  28.041   0.792
18225W        W86555   1.446  25.990  11.436
18226W        W86556  10.715  34.578  11.422
18227W        W86557  17.665  24.979   9.972
18228W        W86558  42.418  29.142   3.198
18229W        W86559   8.737   8.832   0.251
18230W        W86560  15.131  42.480   4.297
18231W        W86561  12.336  34.905  12.857
18232W        W86562  38.505  21.730  11.976
18233W        W86563  26.205  43.437  10.459
18234W        W86564  32.122  21.728   0.281
18235W        W86565  31.948   6.267   2.835
18236W        W86566  42.378   1.420  14.880
18237W        W86567  30.425  21.225   3.184
18238W        W86568  34.464  17.255  10.495
18239W        W86569   5.898  17.179   0.475
18240W        W86570  43.361   8.654  11.505
18241W        W86571   7.771   3.776  13.333
18242W        W86572  19.678  30.657  11.521
18243W        W86573  19.071  19.580  14.290
18244W        W86574  30.002   8.689  13.532
18245W        W86575  28.090  24.653   4.153
18246W        W86576   4.225  37.526  14.420
18247W        W86577  22.048   8.806   2.835
18248W        W86578  43.796   3.226   0.344
18249W        W86579   8.780  43.948   3.692
18250W        W86580   9.315  34.978   4.684
18251W        W86581  11.234  25.470  14.822
18252W        W86582  40.379   2.415  14.415
18253W        W86583  10.158  28.463   4.770
18254W        W86584  35.024  25.634   1.822
18255W        W86585  32.521  19.176  10.409
18256W        W86586  18.607  40.519   5.230
18257W        W86587  22.134  36.973   4.333
18258W        W86588  16.296  40.331  13.940
18259W        W86589   6.710  23.689  11.488
18260W        W86590   4.796  19.707  11.042
18261W        W86591  27.181  14.301   1.780
18262W        W86592  15.707  26.965   4.173
18263W        W86593  31.069  39.990   1.296
18264W        W86594  27.989  34.592   3.147
18265W        W86595  23.522  29.530   4.809
18266W        W86596   4.420  25.041  13.502
18267W        W86597  39.365  33.440   4.731
18268W        W86598  13.692  44.488  12.516
18269W        W86599  39.029  33.949  13.532
18270W        W86600  12.737  37.354  10.405
18271W        W86601  21.611  10.139  10.117
18272W        W86602  14.259  31.638  14.884
18273W        W86603  32.968   6.302   3.274
18274W        W86604  39.545  44.933  11.542
18275W        W86605  12.320  16.297  14.480
18276W        W86606   2.732   4.209   3.376
18277W        W86607  32.947  23.505  12.579
18278W        W86608   4.406  18.119   1.743
18279W        W86609  28.479  22.025  11.510
18280W        W86610  23.051  10.219   0.758
18281W        W86611  27.592  43.917  11.062
18282W        W86612  30.908  37.348   4.158
18283W        W86613  22.571  28.995  10.539
18284W        W86614  44.447  26.081  14.918
18285W        W86615  18.211  10.762  14.335
18286W        W86616   3.925  16.636  13.979
18287W        W86617  38.023  19.726   2.732
18288W        W86618  23.177  20.081   0.371
18289W        W86619  30.489  40.466  11.038
18290W        W86620  36.487   3.884   3.789
18291W        W86621  32.514  32.068  14.968
18292W        W86622  40.512  43.776  14.951
18293W        W86623  18.719  42.416  12.528
18294W        W86624   4.358  27.143  13.532
18295W        W86625  10.758  44.469  10.039
18296W        W86626  21.752  29.125  11.418
18297W        W86627  10.174  33.001  13.970
18298W        W86628  33.459  39.017   1.760
18299W        W86629  33.526  40.351   5.098
18300W        W86630   0.875  11.640  13.024
18301W        W86631  13.651  28.184   0.748
18302W        W86632   6.300   2.849   1.858
18303W        W86633  27.010  30.986  14.427
18304W        W86634  11.677  29.661   1.797
18305W        W86635  16.081   9.703   0.825
18306W        W86636  21.580   2.834   4.149
18307W        W86637  10.638  44.296  11.413
18308W        W86638  23.216   7.275  11.905
18309W        W86639  23.713  39.060  11.115
18310W        W86640  21.129  26.120   3.769
18311W        W86641   0.791  12.649   0.829
18312W        W86642  34.028   0.346   1.754
18313W        W86643   4.770  30.457   4.804
18314W        W86644  40.907  26.657   2.246
18315W        W86645  23.019  23.697  13.545
18316W        W86646  32.605  20.712   5.155
18317W        W86647  38.845  20.262   4.313
18318W        W86648   1.380  27.676  13.024
18319W        W86649  14.620  28.584   0.419
18320W        W86650   9.364  34.881   0.900
18321W        W86651  17.173   7.221   1.856
18322W        W86652  27.597  40.902   4.613
18323W        W86653  26.465   4.939  11.546
18324W        W86654  41.882  21.576  12.495
18325W        W86655  25.062  20.161  13.456
18326W        W86656  13.145  12.186  11.091
18327W        W86657   2.393  18.252  13.323
18328W        W86658  40.004   5.931   3.351
18329W        W86659  12.257  24.693  12.470
18330W        W86660  22.024  31.092   4.719
18331W        W86661   9.873   2.350   0.287
18332W        W86662  17.154  35.514   2.807
18333W        W86663  32.959  28.043  10.483
18334W        W86664  12.132  26.958  13.947
18335W        W86665  29.121  22.172  14.453
18336W        W86666  33.380  10.321   0.251
18337W        W86667  23.159  14.730   0.930
18338W        W86668  30.604  19.656  10.626
18339W        W86669  18.101   6.739   1.281
18340W        W86670   5.879  31.526   4.775
18341W        W86671  11.352  44.784  12.532
18342W        W86672  26.972   4.219   3.698
18343W        W86673  13.780  28.157   3.740
18344W        W86674  24.690  44.007   2.814
18345W        W86675  17.067  16.619  14.415
18346W        W86676  30.015  43.297  11.604
18347W        W86677   0.840  37.935   3.383
18348W        W86678  16.253  41.472  12.414
18349W        W86679   6.285  25.001  11.038
18350W        W86680  20.181   0.297   1.407
18351W        W86681  35.921  39.880   0.855
18352W        W86682   1.921  13.224   2.374
18353W        W86683  30.016  19.200  14.992
18354W        W86684   3.929   6.908   3.718
18355W        W86685  21.155  42.501   0.407
18356W        W86686  32.929   1.392   0.967
18357W        W86687   8.277  27.193   3.777
18358W        W86688  32.448   7.246   0.781
18359W        W86689  33.959  25.468  11.029
18360W        W86690   9.291   0.297   3.808
18361W        W86691  42.319  11.638   0.864
18362W        W86692  19.756   2.288   4.330
18363W        W86693  13.604  23.116   3.176
18364W        W86694   3.231  41.924  14.478
18365W        W86695  21.653   6.397   3.285
18366W        W86696  25.104   9.808   3.854
18367W        W86697  43.847  34.465  13.335
18368W        W86698  33.973   4.720  12.052
18369W        W86699  18.253  12.165  10.597
18370W        W86700  19.737  10.813  10.529
18371W        W86701   1.937  31.627   3.830
18372W        W86702  14.096  37.347  13.327
18373W        W86703  12.748  29.061   3.725
18374W        W86704  12.157  15.583  10.573
18375W        W86705  29.606   3.728  11.410
18376W        W86706  42.480  15.644   0.752
18377W        W86707  20.658   8.716  10.483
18378W        W86708  16.587  13.710  14.360
18379W        W86709   2.953   4.926   2.852
18380W        W86710  36.544  10.148   0.739
18381W        W86711  22.126  42.923  10.598
18382W        W86712  43.829  25.040  14.508
18383W        W86713  11.340   1.818   2.874
18384W        W86714  13.231  26.464   3.169
18385W        W86715  10.821  30.529   3.293
18386W        W86716  29.651   5.309  13.970
18387W        W86717  20.273  18.188  14.407
18388W        W86718   7.815  17.240   2.770
18389W        W86719  44.805  19.544  13.843
18390W        W86720   9.697  41.021   1.270
18391W        W86721  14.245  43.431   1.280
18392W        W86722  38.026  28.620  12.964
18393W        W86723  24.695  24.990   0.900
18394W        W86724   5.781  14.625  14.029
18395W        W86725  12.765   8.818  11.417
18396W        W86726  39.389  13.809  14.922
18397W        W86727  35.394  30.594   4.176
18398W        W86728  25.552  29.623   2.367
18399W        W86729  41.404  29.003  12.844
18400W        W86730  43.319  32.523   1.424
18401W        W86731   1.925  29.037   0.927
18402W        W86732   7.389  14.255  13.063
18403W        W86733  37.842   9.339  11.596
18404W        W86734  21.726  24.987  12.371
18405W        W86735   0.398  17.721  13.478
18406W        W86736   7.397  43.888   3.362
18407W        W86737   0.825  42.778   1.395
18408W        W86738   8.396  13.178   2.287
18409W        W86739  39.364  43.488  13.540
18410W        W86740  25.996  11.312  11.858
18411W        W86741   9.701  15.106  13.001
18412W        W86742  35.865  16.571   2.852
18413W        W86743   7.713  22.705  12.019
18414W        W86744  33.457   5.435   0.242
18415W        W86745  41.487  19.060  13.424
18416W        W86746  26.476  42.917   3.271
18417W        W86747  41.528  30.433   0.420
18418W        W86748  44.378  40.506   0.296
18419W        W86749  21.230  28.170  11.982
18420W        W86750   0.470  21.669  11.067
18421W        W86751  41.531  20.596   0.785
18422W        W86752   1.868  29.537   3.249
18423W        W86753   3.854  43.921   4.307
18424W        W86754  31.005   6.775   1.213
18425W        W86755  43.286  43.467  14.839
18426W        W86756  36.461   9.167  13.389
18427W        W86757  39.456  34.038   2.316
18428W        W86758  22.031  39.367  10.616
18429W        W86759  20.556  38.946   3.324
18430W        W86760  25.714   1.307   1.747
18431W        W86761  31.524   9.701   2.279
18432W        W86762  16.710  27.602  13.998
18433W        W86763  28.161  22.541   1.280
18434W        W86764  22.500  26.664  13.341
18435W        W86765  42.482  16.104  14.316
18436W        W86766  28.112  11.177   0.812
18437W        W86767   0.306  10.727   4.122
18438W        W86768  32.042  21.560   5.231
18439W        W86769  44.803  38.562   0.746
18440W        W86770  36.964   0.766  12.476
18441W        W86771  19.209   8.328   2.847
18442W        W86772  20.736  10.343   0.443
18443W        W86773  43.360  38.499   1.384
18444W        W86774  13.620  22.520  11.537
18445W        W86775   8.830  39.386   4.256
18446W        W86776  18.767   1.890  14.762
18447W        W86777  43.965  41.430  11.533
18448W        W86778   7.822  16.243   1.729
18449W        W86779   6.911  17.069  14.391
18450W        W86780  44.338  28.039  10.466
18451W        W86781  22.152  22.548   4.708
18452W        W86782  27.503  11.156   0.959
18453W        W86783  33.945  41.871  12.381
18454W        W86784  22.655  29.930   0.273
18455W        W86785  20.742  31.031  13.332
18456W        W86786   6.751  32.003   0.949
18457W        W86787  35.474  17.666   1.734
18458W        W86788   1.249  18.136   1.444
18459W        W86789   1.964  39.353   4.316
18460W        W86790  16.570  39.896  12.929
18461W        W86791  42.301   4.223  11.921
18462W        W86792  40.332   5.905   2.280
18463W        W86793  25.080  40.425  12.079
18464W        W86794  28.136  18.071  10.597
18465W        W86795  29.599   5.429   3.206
18466W        W86796  34.997  32.108   3.762
18467W        W86797  30.042   4.360   1.702
18468W        W86798  42.824  26.490   3.776
18469W        W86799  24.218  29.613  12.933
18470W        W86800  12.306  32.505   3.727
18471W        W86801  12.171   8.388  10.428
18472W        W86802  40.894   9.164   3.824
18473W        W86803   2.273  41.468  10.943
18474W        W86804  10.804  35.576  12.478
18475W        W86805  44.426  12.711   5.107
18476W        W86806  33.040  30.525  11.115
18477W        W86807   8.846  23.570  13.981
18478W        W86808   3.901  12.767  12.341
18479W        W86809  20.100  18.062   3.375
18480W        W86810   3.831  43.313  12.568
18481W        W86811  29.051  20.565   2.248
18482W        W86812   3.866  17.257   4.260
18483W        W86813  30.443   5.215  12.529
18484W        W86814  21.142  30.044  13.485
18485W        W86815  13.332  32.627   0.282
18486W        W86816  18.686  27.489   2.681
18487W        W86817  37.040  16.197   4.675
18488W        W86818  21.112  35.513   0.447
18489W        W86819  30.525  35.052  14.911
18490W        W86820  17.572  28.974   3.683
18491W        W86821  27.621   0.418  11.584
18492W        W86822  27.193  10.202  12.431
18493W        W86823  25.195   5.275  11.943
18494W        W86824   9.332  21.249  11.506
18495W        W86825  10.795  38.377   2.740
18496W        W86826   5.749   7.299  11.460
18497W        W86827  40.509   5.789  10.474
18498W        W86828  11.653  12.784  12.981
18499W        W86829  20.132  27.583   3.230
18500W        W86830  22.692   9.265  13.309
18501W        W86831  14.287  26.636  13.011
18502W        W86832   5.342  11.743  14.960
18503W        W86833  36.059  12.249   2.714
18504W        W86834  43.965  17.061  14.004
18505W        W86835  27.545  27.645  11.514
18506W        W86836   1.468   7.389  10.524
18507W        W86837   4.814   5.259   3.242
18508W        W86838  11.806  17.258   1.272
18509W        W86839   8.403  33.567   1.732
18510W        W86840  41.798  14.759   1.346
18511W        W86841   7.406   0.781   2.877
18512W        W86842  20.055  11.242  14.818
18513W        W86843  25.518  17.618  13.485
18514W        W86844  24.560  21.739   0.904
18515W        W86845  40.536  30.125  14.404
18516W        W86846  34.415  37.394   5.096
18517W        W86847  12.716   4.424  11.385
18518W        W86848   4.811   2.776   2.190
18519W        W86849  22.235  35.001   1.839
18520W        W86850  30.157  22.056   4.263
18521W        W86851  21.055  29.597   1.884
18522W        W86852  15.279  17.641   1.718
18523W        W86853  17.776  30.655   1.250
18524W        W86854   1.841  28.104  13.897
18525W        W86855  40.546  27.685  12.493
18526W        W86856   3.360  12.328  13.048
18527W        W86857  41.300  35.372  14.853
18528W        W86858  14.745  34.475  13.408
18529W        W86859  19.632   5.279  13.062
18530W        W86860  19.100  44.760   3.711
18531W        W86861   4.751  43.022   0.366
18532W        W86862   3.450  11.354  11.553
18533W        W86863  23.648   3.943   2.739
18534W        W86864  12.752   8.268   4.283
18535W        W86865   6.885   9.708  13.795
18536W        W86866   1.855  25.485   2.178
18537W        W86867  43.890  29.527   0.254
18538W        W86868  10.839  26.089   0.376
18539W        W86869  32.946   0.775  14.809
18540W        W86870  33.381  27.045  12.918
18541W        W86871  14.701  44.919  14.892
18542W        W86872   3.372  27.661  14.885
18543W        W86873   4.283  12.133  12.407
18544W        W86874  43.872  44.263   4.315
18545W        W86875  14.225   3.798   0.380
18546W        W86876  28.525  25.482  12.946
18547W        W86877  17.201  30.656   1.927
18548W        W86878  29.525  29.040  12.956
18549W        W86879  24.060  21.515  14.807
18550W        W86880  42.934  42.874  14.877
18551W        W86881  20.621  31.435  10.095
18552W        W86882  30.124  35.394  12.867
18553W        W86883  44.482   1.240  11.097
18554W        W86884  33.463  12.759  13.810
18555W        W86885   0.416  44.908  12.017
18556W        W86886  43.300  42.854   3.681
18557W        W86887  21.752   3.458  14.875
18558W        W86888  33.410   1.347  13.936
18559W        W86889   2.411  33.001   3.813
18560W        W86890  28.511  35.859   4.819
18561W        W86891  18.740  43.349   1.726
18562W        W86892  15.697  19.641   3.325
18563W        W86893  21.036   0.855   5.272
18564W        W86894  19.605  40.548  13.809
18565W        W86895  18.580  22.246  11.496
18566W        W86896  23.694  15.678   1.290
18567W        W86897  21.593   5.378  11.085
18568W        W86898  27.658   3.787  10.551
18569W        W86899  34.378  13.149   1.246
18570W        W86900  22.719  20.664  13.814
18571W        W86901  15.602  37.438   2.289
18572W        W86902  11.204  18.720   1.341
18573W        W86903  36.904  36.971  12.052
18574W        W86904  10.771   7.326   2.221
18575W        W86905  12.760   1.265  10.564
18576W        W86906  25.104  27.506  14.438
18577W        W86907   6.723  18.231  13.453
18578W        W86908  22.077  11.729  10.567
18579W        W86909  22.161   7.827  12.965
18580W        W86910   0.263   5.855   0.388
18581W        W86911  26.697  18.707   0.272
18582W        W86912  31.534   1.867  11.459
18583W        W86913  10.836  11.754  14.927
18584W        W86914   1.474  21.190   4.231
18585W        W86915   3.335   3.361  14.461
18586W        W86916  24.686  44.472   2.805
18587W        W86917  22.699  27.109   4.184
18588W        W86918   2.779  36.521  14.832
18589W        W86919  44.420  35.866   3.218
18590W        W86920  10.265  17.167  12.937
18591W        W86921  19.072  43.004   1.742
18592W        W86922  34.577  21.227  14.367
18593W        W86923   9.710  38.535  11.858
18594W        W86924  28.505   4.868   0.786
18595W        W86925  19.204  15.656   0.249
18596W        W86926  18.071  10.188  12.550
18597W        W86927   2.869  28.137   0.829
18598W        W86928  16.158   7.731   1.931
18599W        W86929  27.165  40.995  10.595
18600W        W86930   4.729  40.397  12.059
18601W        W86931  17.087  39.861  14.827
18602W        W86932   3.867   6.229  11.890
18603W        W86933  31.950  37.835   2.891
18604W        W86934  41.404  19.744  12.430
18605W        W86935  25.172  16.108  14.815
18606W        W86936  44.281  27.538  11.556
18607W        W86937  37.557  24.024  14.842
18608W        W86938   7.732  32.037  14.402
18609W        W86939  40.319  24.121   3.188
18610W        W86940   1.885  10.667  11.930
18611W        W86941  36.909   4.857  11.400
18612W        W86942   8.252  20.087   2.234
18613W        W86943   0.275  14.652  10.596
18614W        W86944  16.128  20.551  13.419
18615W        W86945  19.205   0.977  11.117
18616W        W86946   2.340   7.883   0.245
18617W        W86947  13.643   5.313   2.708
18618W        W86948  41.805   6.777   1.933
18619W        W86949  26.519   0.930   3.687
18620W        W86950  10.141  38.563   0.342
18621W        W86951  16.106  37.019  13.812
18622W        W86952  37.475  18.726  13.519
18623W        W86953  15.759  31.601  11.071
18624W        W86954  25.006  11.257  14.276
18625W        W86955  16.175  41.376   2.894
18626W        W86956   6.413   6.883   3.308
18627W        W86957   0.313  26.128   4.169
18628W        W86958  44.882   8.281   1.927
18629W        W86959   1.263  43.443   0.852
18630W        W86960  22.117  19.737   0.859
18631W        W86961  40.006  22.640   4.350
18632W        W86962  25.142  29.556   0.786
18633W        W86963  22.996  16.217   3.202
18634W        W86964  42.293  23.046  13.509
18635W        W86965  24.622  38.439  11.089
18636W        W86966  13.244   3.259   1.784
18637W        W86967  42.908  26.563   0.795
18638W        W86968  43.008  37.550   4.205
18639W        W86969   6.916  16.610   2.255
18640W        W86970  38.039  19.055   4.116
18641W        W86971  38.454  15.652   0.802
18642W        W86972  34.486  14.334   4.759
18643W        W86973   5.922  25.086  13.844
18644W        W86974   9.360  42.387  11.963
18645W        W86975  18.608  28.117   3.831
18646W        W86976  35.543  24.025   3.177
18647W        W86977  34.086  19.256  12.569
18648W        W86978  36.454  14.155   2.837
18649W        W86979  38.543  31.433   2.853
18650W        W86980  19.678  43.874  11.059
18651W        W86981  10.370  36.986   3.259
18652W        W86982  16.148  16.138  12.344
18653W        W86983  39.931   6.752  12.024
18654W        W86984  26.603  40.415  14.333
18655W        W86985  42.019   3.393   3.648
18656W        W86986  23.188   2.840   2.332
18657W        W86987  28.451  14.614  14.880
18658W        W86988  40.343   3.711  11.484
18659W        W86989  26.058   8.747  14.962
18660W        W86990  12.614   6.384  13.355
18661W        W86991  31.965  43.961  11.383
18662W        W86992   6.854   1.336   1.416
18663W        W86993  30.937   5.242   0.281
18664W        W86994  25.067  10.800  13.036
18665W        W86995   5.304  22.560  14.910
18666W        W86996  43.294  31.545   0.944
18667W        W86997  30.123   5.370  12.833
18668W        W86998   4.237  43.858  14.452
18669W        W86999   2.365  16.682  11.022
18670W        W87000  38.055  17.700  12.040
18671W        W87001  37.893  15.197   2.356
18672W        W87002  42.969   2.841   3.201
18673W        W87003  18.702  38.354  10.622
18674W        W87004  43.309  23.576  10.519
18675W        W87005  23.585  38.567  13.412
18676W        W87006  32.977  41.466  11.534
18677W        W87007  32.552  13.341  11.885
18678W        W87008  10.835  19.168  11.973
18679W        W87009  13.613  26.160   4.128
18680W        W87010  34.096  19.661   5.277
18681W        W87011  34.947   2.748  12.845
18682W        W87012   8.369   9.362  11.613
18683W        W87013  29.644  16.788  13.382
18684W        W87014  19.630  42.516   0.797
18685W        W87015  42.319  31.643   1.718
18686W        W87016  11.290  43.387  12.962
18687W        W87017  22.219  38.917   0.852
18688W        W87018  30.575  22.139   0.798
18689W        W87019  25.598  22.519   4.611
18690W        W87020  21.647  30.146   2.236
18691W        W87021  35.011  31.133  13.868
18692W        W87022  16.654  32.908  14.007
18693W        W87023  34.375  18.756   0.296
18694W        W87024  24.530  25.703   2.306
18695W        W87025  44.818   8.784   4.605
18696W        W87026  22.049   7.371   5.209
18697W        W87027   1.345  34.430   2.405
18698W        W87028  31.057  37.506  12.024
18699W        W87029  15.220  31.908   3.844
18700W        W87030   3.244  36.005  11.477
18701W        W87031  14.235  25.123   0.246
18702W        W87032  32.934  39.498   1.723
18703W        W87033  36.932  17.584   2.393
18704W        W87034  39.849  21.677   3.713
18705W        W87035  33.063   2.870   1.735
18706W        W87036   3.756  32.625  11.884
18707W        W87037  40.475  23.203   3.832
18708W        W87038  30.625   4.371   4.264
18709W        W87039  41.442  40.392  12.398
18710W        W87040   1.388  22.518   2.260
18711W        W87041   1.386   9.179   3.727
18712W        W87042  42.904  12.697  10.470
18713W        W87043  15.098  34.975  13.439
18714W        W87044  19.764  12.331   2.355
18715W        W87045  20.228  21.722  13.313
18716W        W87046  40.898  11.294   3.748
18717W        W87047   3.837  38.399   2.731
18718W        W87048  32.950   2.808  12.540
18719W        W87049  43.983   9.648  13.862
18720W        W87050  28.109  17.593   3.363
18721W        W87051   1.314  37.920  13.420
18722W        W87052  35.406  30.507  11.428
18723W        W87053   3.218   0.323  13.531
18724W        W87054  20.717  26.096  12.917
18725W        W87055  33.077  32.935   1.914
18726W        W87056  33.912  19.050   1.818
18727W        W87057  30.473  40.014   4.254
18728W        W87058  41.310  10.765   3.724
18729W        W87059  16.792  30.502  11.551
18730W        W87060  17.147  29.121  12.520
18731W        W87061  36.855  27.143  10.527
18732W        W87062  20.202  23.177   1.706
18733W        W87063  33.112  24.676   3.346
18734W        W87064  30.470   2.298  10.573
18735W        W87065  39.957  24.988   0.886
18736W        W87066  13.726  40.417   1.347
18737W        W87067  29.096   0.813   0.323
18738W        W87068  26.685  25.506  11.443
18739W        W87069  14.743   0.445   4.670
18740W        W87070  44.377  29.489   4.185
18741W        W87071  19.277  25.489   3.729
18742W        W87072   0.906  36.005  10.912
18743W        W87073  12.202  37.442   2.832
18744W        W87074   4.207  30.036  14.917
18745W        W87075  36.938  37.078  12.880
18746W        W87076  33.569  35.065  12.360
18747W        W87077   8.789  19.061  11.979
18748W        W87078  34.518  29.128  10.917
18749W        W87079  43.471   2.724   4.794
18750W        W87080  13.116  41.358   2.730
18751W        W87081  39.392  19.159  14.844
18752W        W87082  12.335  35.563   4.128
18753W        W87083  38.940  36.866  12.574
18754W        W87084  24.672  11.368  13.994
18755W        W87085  37.881   2.347  12.511
18756W        W87086  40.956  13.757   0.884
18757W        W87087  10.183  43.455   4.261
18758W        W87088  21.148  16.282   3.635
18759W        W87089   6.326   0.466   4.767
18760W        W87090   5.417  12.652  12.832
18761W        W87091  27.986  39.389  14.794
18762W        W87092  14.631  15.757   3.368
18763W        W87093   7.674  29.158  10.623
18764W        W87094  23.595  15.202  13.024
18765W        W87095   2.937  31.476   2.780
18766W        W87096   5.428  37.366  10.490
18767W        W87097  41.013  28.500   3.266
18768W        W87098  35.558  25.177  10.517
18769W        W87099  18.635   5.379   1.731
18770W        W87100  12.663  16.112   1.322
18771W        W87101  18.607   6.361   2.803
18772W        W87102   3.295  33.058  14.311
18773W        W87103  36.999  32.631  13.547
18774W        W87104   0.339   1.328  13.361
18775W        W87105  44.847   9.744   1.831
18776W        W87106   8.884  18.270   0.482
18777W        W87107  37.374  15.160  12.071
18778W        W87108  33.386  19.554  14.287
18779W        W87109  22.650   6.349  13.341
18780W        W87110  41.912  40.498   1.255
18781W        W87111  39.407  13.630   4.599
18782W        W87112  34.955   2.902   3.274
18783W        W87113  43.974  28.600   4.282
18784W        W87114  22.242   2.227  10.916
18785W        W87115   7.877  32.475   0.890
18786W        W87116   8.703  19.177   3.341
18787W        W87117  42.972  26.962   2.818
18788W        W87118  44.473  44.299  14.881
18789W        W87119  17.110  34.437   3.848
18790W        W87120  29.031  44.420   3.656
18791W        W87121   3.243  20.028  10.962
18792W        W87122   8.207   1.450  14.415
18793W        W87123  27.525   7.708   4.165
18794W        W87124   0.270  34.374   3.292
18795W        W87125  15.586  24.229  12.874
18796W        W87126  11.205  32.522   0.825
18797W        W87127  35.035   2.300   3.304
18798W        W87128  31.062  20.088  11.525
18799W        W87129  23.143  27.458   2.200
18800W        W87130  24.508  34.929   1.716
18801W        W87131   1.864  42.917   4.157
18802W        W87132   5.772  42.411   0.943
18803W        W87133  12.172  16.669   0.454
18804W        W87134  35.411  31.133  11.940
18805W        W87135  21.091  20.187  13.380
18806W        W87136   8.729  14.635   2.208
18807W        W87137  11.344  42.516  14.372
18808W        W87138  43.845   3.804  12.865
18809W        W87139   0.406  11.277   3.632
18810W        W87140  44.443  12.624   3.187
18811W        W87141  37.579  26.635   1.431
18812W        W87142  26.632  24.657  12.531
18813W        W87143  26.204  42.850  13.409
18814W        W87144  18.668   1.482   3.868
18815W        W87145  30.455  30.945   3.298
18816W        W87146   7.779   8.720  12.093
18817W        W87147  32.947  17.707   3.645
18818W        W87148   9.812   7.783   4.248
18819W        W87149  33.576  19.535   2.681
18820W        W87150  33.124  13.168   4.264
18821W        W87151   8.763   1.818   4.157
18822W        W87152  18.286  37.046   4.325
18823W        W87153   7.369   0.253  11.606
18824W        W87154  19.158  14.321  14.315
18825W        W87155  40.330  21.090   2.776
18826W        W87156   0.295   5.690   3.813
18827W        W87157  11.855  28.508   2.255
18828W        W87158  30.647   9.154   4.315
18829W        W87159  40.951  32.506  11.560
18830W        W87160  28.443  25.096   3.185
18831W        W87161   4.222  16.093  11.864
18832W        W87162  30.038  16.746   2.298
18833W        W87163  18.050  23.723  11.466
18834W        W87164  22.144  17.776   1.391
18835W        W87165  41.478  17.676   3.759
18836W        W87166  41.835   3.877  12.007
18837W        W87167  25.998  44.466  11.970
18838W        W87168  20.548  15.277  13.041
18839W        W87169  17.204  10.805   4.646
18840W        W87170   6.263  32.956  14.971
18841W        W87171  32.603  39.472  10.535
18842W        W87172  24.146  24.598  12.973
18843W        W87173  31.055  29.080  10.892
18844W        W87174   0.968   9.868   3.753
18845W        W87175  44.351  16.072  10.456
18846W        W87176  18.110  26.197  14.998
18847W        W87177  16.570  11.716  12.095
18848W        W87178   4.247  24.594   0.813
18849W        W87179  34.482  13.168   1.836
18850W        W87180   3.257  44.815   4.810
18851W        W87181  42.830  38.885   5.252
18852W        W87182  42.404  10.823  14.824
18853W        W87183  15.249   1.366  13.455
18854W        W87184  27.969  31.927   2.270
18855W        W87185  16.724  19.117  14.480
18856W        W87186   8.697   1.392  11.572
18857W        W87187  36.450  30.998  12.460
18858W        W87188  33.091  32.576   4.200
18859W        W87189  40.837  35.089   3.364
18860W        W87190  38.368  10.149   4.658
18861W        W87191  20.742   1.362  13.381
18862W        W87192  11.156  32.079  14.411
18863W        W87193   8.669  13.212   0.285
18864W        W87194  12.753   4.362   0.405
18865W        W87195   5.270  19.605  13.868
18866W        W87196  33.937  27.971   1.899
18867W        W87197   1.740   0.317   2.213
18868W        W87198  37.565  25.627   2.720
18869W        W87199  11.371  41.993   2.184
18870W        W87200  38.883  13.615  13.805
18871W        W87201  15.794  23.107   3.847
18872W        W87202   8.259   6.694  12.836
18873W        W87203  44.415  24.527  13.833
18874W        W87204  18.166  17.558  12.523
18875W        W87205   8.278  22.537  10.968
18876W        W87206  21.612  11.622   1.738
18877W        W87207  27.161  39.966   4.607
18878W        W87208  15.169  31.122  12.851
18879W        W87209   3.782  36.957   0.292
18880W        W87210  20.095  39.986   2.202
18881W        W87211  22.614  39.939   4.325
18882W        W87212  39.872  43.502  11.495
18883W        W87213   2.842  32.968   4.192
18884W        W87214  24.223  44.759  14.381
18885W        W87215  16.301  26.980  10.890
18886W        W87216  39.381  29.056   1.706
18887W        W87217  42.872   2.245  12.352
18888W        W87218  40.042  32.067   2.180
18889W        W87219  19.665  43.325  14.955
18890W        W87220  26.987   5.245  13.510
18891W        W87221  32.487  18.171  11.867
18892W        W87222  40.799  27.631  11.941
18893W        W87223  22.723  19.169   0.248
18894W        W87224  41.813  23.718   3.177
18895W        W87225  11.693  43.499  10.472
18896W        W87226   1.413  36.843   3.741
18897W        W87227  11.622  23.052  13.887
18898W        W87228  31.542  44.385   0.928
18899W        W87229  38.037  40.403   0.412
18900W        W87230  41.424  17.108   4.298
18901W        W87231   6.240  11.153  13.497
18902W        W87232  11.861  36.865  12.834
18903W        W87233   2.459  37.451   1.236
18904W        W87234  39.005  27.126  14.991
18905W        W87235  42.463  17.746   4.830
18906W        W87236  34.920  40.018   0.377
18907W        W87237  28.126  11.673   5.268
18908W        W87238  12.360  13.821   3.753
18909W        W87239  19.542   4.927   2.718
18910W        W87240   5.854  26.459  11.076
18911W        W87241  41.864   8.786   4.724
18912W        W87242  25.094  12.621   0.439
18913W        W87243   2.867   9.653   3.234
18914W        W87244  33.982  31.038  11.494
18915W        W87245  44.867  30.478   1.781
18916W        W87246  30.147  15.782  10.916
18917W        W87247   8.310  16.571   4.217
18918W        W87248  27.064  34.067   0.747
18919W        W87249   3.443  36.381   2.211
18920W        W87250  23.573  29.052   3.744
18921W        W87251  21.175  20.753   3.237
18922W        W87252   2.720  14.278  14.419
18923W        W87253   3.943  36.526   0.800
18924W        W87254  11.295  19.200   3.350
18925W        W87255  40.855   8.244  13.503
18926W        W87256  14.755   6.415   4.708
18927W        W87257  44.936  42.996  10.644
18928W        W87258   1.411  12.216   1.792
18929W        W87259   1.816  39.427  10.414
18930W        W87260  33.518  25.562  14.989
18931W        W87261  30.507  22.553  13.901
18932W        W87262   8.182   5.267  12.017
18933W        W87263  38.525  20.073  13.038
18934W        W87264   2.401   3.371   3.752
18935W        W87265  16.603  33.409  12.572
18936W        W87266   9.230  36.459  11.458
18937W        W87267  10.355  31.061   4.789
18938W        W87268  40.830   4.717  14.823
18939W        W87269  28.069   4.902  14.410
18940W        W87270   1.453  26.023  13.505
18941W        W87271  31.408  42.801   4.201
18942W        W87272  15.187  10.687   3.275
18943W        W87273  31.568  39.891  14.875
18944W        W87274  35.017  25.474   3.347
18945W        W87275  16.666  26.204  14.367
18946W        W87276  24.526  37.881   0.801
18947W        W87277  10.315   4.397  12.076
18948W        W87278  38.925  23.211   4.291
18949W        W87279  16.766  39.550   0.733
18950W        W87280  10.336  12.711   0.949
18951W        W87281   8.399  11.372  13.905
18952W        W87282  18.715   1.339  11.080
18953W        W87283  25.638   6.719  11.964
18954W        W87284  31.925   6.292  10.513
18955W        W87285  38.443  10.832  14.813
18956W        W87286  29.460  39.322  11.375
18957W        W87287  28.132  24.109   5.183
18958W        W87288  34.489   9.308  13.481
18959W        W87289   4.382  24.177  12.339
18960W        W87290  17.751  21.643   0.397
18961W        W87291  44.905  13.725  10.412
18962W        W87292  42.463  29.123  12.833
18963W        W87293   6.418  16.619   0.309
18964W        W87294   4.332  10.384   4.150
18965W        W87295  26.140  17.792  12.504
18966W        W87296  29.071  14.276  10.637
18967W        W87297  44.290  22.033  11.531
18968W        W87298  13.206  33.021   3.773
18969W        W87299  44.765  17.693   1.793
18970W        W87300  22.095  26.664  10.448
18971W        W87301  25.613  30.952  14.305
18972W        W87302  20.170  15.171   0.347
18973W        W87303  28.625  38.834  13.036
18974W        W87304   6.697  40.979   1.919
18975W        W87305  42.413  32.975  12.067
18976W        W87306  13.776  34.533   1.279
18977W        W87307  39.559   5.370   3.243
18978W        W87308   5.246   5.389  10.951
18979W        W87309  12.268  19.669   2.247
18980W        W87310  16.642  32.520  14.301
18981W        W87311  20.680   9.257   3.166
18982W        W87312  17.219   5.390  10.494
18983W        W87313  27.457  44.419  13.398
18984W        W87314   8.835  32.465   2.695
18985W        W87315   4.790  37.575   4.281
18986W        W87316  37.495  33.558  12.052
18987W        W87317  32.428   0.783   0.367
18988W        W87318   0.777   6.736  13.841
18989W        W87319   7.903  35.574  14.492
18990W        W87320  34.971  33.948  13.942
18991W        W87321  32.494   1.784  11.120
18992W        W87322  29.941   6.828  10.998
18993W        W87323  26.107   9.805   4.281
18994W        W87324  22.711   6.321   4.601
18995W        W87325   0.777  39.864  12.346
18996W        W87326  31.466  18.236   3.303
18997W        W87327  44.293  21.189  12.009
18998W        W87328   3.225  39.354   2.278
18999W        W87329  39.527  19.661   0.863
19000W        W87330  22.589  41.862   1.872
19001W        W87331  33.060  10.306   1.712
19002W        W87332  43.500   5.285   4.266
19003W        W87333  12.147  25.168   1.930
19004W        W87334  17.127  19.579  10.090
19005W        W87335   3.745   8.887  14.025
19006W        W87336  44.297  43.863   0.283
19007W        W87337   1.322  14.237  14.466
19008W        W87338  44.284  23.069  12.436
19009W        W87339  39.937  20.609  10.568
19010W        W87340  18.288   5.357  11.028
19011W        W87341   7.200   2.910   3.224
19012W        W87342   8.840   0.772  13.008
19013W        W87343   1.241  31.908   0.368
19014W        W87344   1.468   2.243  10.937
19015W        W87345  29.638  31.127  12.503
19016W        W87346  41.890  26.050  11.994
19017W        W87347  27.671  32.888   0.352
19018W        W87348  19.087  41.841   4.648
19019W        W87349   9.245  39.964  13.485
19020W        W87350  36.907  44.965   2.777
19021W        W87351  36.881  27.543  14.380
19022W        W87352   5.260   5.917  12.048
19023W        W87353  11.136  27.602   1.917
19024W        W87354  34.975  38.023   1.801
19025W        W87355   0.897   2.906  11.523
19026W        W87356  18.080  28.976   0.907
19027W        W87357  37.472   1.465  11.455
19028W        W87358  36.967  39.359   0.943
19029W        W87359  29.947  10.788  13.805
19030W        W87360  17.083  11.203  12.353
19031W        W87361  22.503  35.006  12.417
19032W        W87362  27.178  35.399  12.469
19033W        W87363  31.907  24.694  14.988
19034W        W87364  27.627  23.713   1.307
19035W        W87365  31.049  43.497   4.781
19036W        W87366  27.647  28.523   2.803
19037W        W87367   9.340  24.228   4.209
19038W        W87368  21.642  25.552   0.422
19039W        W87369  21.750   6.691   1.739
19040W        W87370  21.036   6.797  14.482
19041W        W87371   8.289  42.418   0.900
19042W        W87372   1.263  24.561   0.878
19043W        W87373  26.975  30.637   0.439
19044W        W87374  41.399  36.381  11.948
19045W        W87375  12.173  22.744   3.656
19046W        W87376  40.403   9.372  10.000
19047W        W87377  12.309  31.611   1.336
19048W        W87378  23.146  14.631  11.582
19049W        W87379  10.646  42.330   4.291
19050W        W87380  20.741   5.831   0.436
19051W        W87381  21.127  44.481   3.325
19052W        W87382  19.543  33.557   1.744
19053W        W87383  11.626  24.097  10.416
19054W        W87384  25.468  21.084   1.332
19055W        W87385  15.136  20.539  12.492
19056W        W87386  42.948  32.537  12.508
19057W        W87387  41.977  35.591  13.855
19058W        W87388  23.502   9.835  10.900
19059W        W87389  32.616  27.625  13.498
19060W        W87390  23.536  37.027   2.829
19061W        W87391  17.119   1.406   0.346
19062W        W87392  34.502  35.002  13.042
19063W        W87393  27.466  15.228  12.945
19064W        W87394   7.234  19.562   0.472
19065W        W87395  29.627  20.050   3.352
19066W        W87396   2.283   1.479  10.934
19067W        W87397  23.645  12.355   0.286
19068W        W87398  15.203  32.129   5.317
19069W        W87399  39.859  36.060   3.824
19070W        W87400  29.657   4.878  11.037
19071W        W87401  42.028   3.896  10.510
19072W        W87402   7.345  28.961  12.057
19073W        W87403  22.191  14.788   3.267
19074W        W87404   4.730  24.533   4.201
19075W        W87405  43.904  36.078  14.478
19076W        W87406  41.307  38.924  11.381
19077W        W87407  30.473  20.216  10.645
19078W        W87408   5.907  30.532   0.775
19079W        W87409  44.790  21.541   4.700
19080W        W87410  41.899  40.983  12.975
19081W        W87411   3.786  15.729  14.514
19082W        W87412  39.554   0.259  12.465
19083W        W87413  14.760  35.524   3.827
19084W        W87414  41.508  31.911  13.812
19085W        W87415  43.960  41.943   3.664
19086W        W87416   8.186   6.827   2.745
19087W        W87417  32.075   1.392  12.028
19088W        W87418   2.889  13.667  10.915
19089W        W87419  23.572  16.127  13.837
19090W        W87420  42.462  43.905  10.439
19091W        W87421  10.253   3.804   2.308
19092W        W87422   1.765  30.495  11.535
19093W        W87423  22.079  20.135   4.769
19094W        W87424   0.408  32.085  14.949
19095W        W87425  18.671   0.856   4.727
19096W        W87426  28.439  44.908   3.708
19097W        W87427  20.139  19.111  10.627
19098W        W87428   8.323  26.135   0.467
19099W        W87429  26.166  15.143   2.821
19100W        W87430  36.085   0.324  12.092
19101W        W87431  10.634  19.714   3.151
19102W        W87432   0.933  41.327   3.374
19103W        W87433  30.479  13.206   3.660
19104W        W87434  42.500  21.749  10.596
19105W        W87435  14.722  33.980   1.269
19106W        W87436  35.522  15.258  10.592
19107W        W87437  19.621   0.826   1.899
19108W        W87438  19.632   6.296  12.463
19109W        W87439  40.504  25.105  14.821
19110W        W87440  28.481  32.439  12.994
19111W        W87441  15.105  19.203   2.814
19112W        W87442  20.034  20.529   1.233
19113W        W87443   1.331  10.235   0.476
19114W        W87444   3.745  19.581  12.972
19115W        W87445  14.663  12.295   4.117
19116W        W87446   7.275  38.422  10.507
19117W        W87447   9.206  13.726  14.013
19118W        W87448   5.409  18.223  13.334
19119W        W87449  14.105  13.189  13.308
19120W        W87450  24.679  39.946  10.544
19121W        W87451  19.054  44.261   4.317
19122W        W87452  43.303   3.953  14.994
19123W        W87453   6.202  41.424   4.633
19124W        W87454  33.131   5.933  11.423
19125W        W87455  17.123  23.501  12.025
19126W        W87456  26.062   5.771   1.885
19127W        W87457  16.662   3.743   1.761
19128W        W87458  19.733  11.353   0.283
19129W        W87459  15.591  19.551   0.455
19130W        W87460  40.002  17.107   3.155
19131W        W87461  14.102  39.949   2.345
19132W        W87462  16.581  36.867   0.775
19133W        W87463  25.668  42.828   4.720
19134W        W87464  11.847  42.333   4.676
19135W        W87465   0.378  42.002   3.820
19136W        W87466  24.167  18.760   1.260
19137W        W87467  20.243  18.722  12.506
19138W        W87468   4.729   5.374   3.701
19139W        W87469  30.951  24.512  14.030
19140W        W87470   2.240  22.531   9.957
19141W        W87471  23.232  13.169  14.024
19142W        W87472  39.053  37.885   3.180
19143W        W87473  11.287   5.860  10.587
19144W        W87474  12.645  24.685  11.910
19145W        W87475  22.555   9.695   3.800
19146W        W87476  27.478  18.221   3.680
19147W        W87477  35.081  12.825   3.347
19148W        W87478   7.869  18.720   1.927
19149W        W87479  23.073  14.683  11.887
19150W        W87480   7.703   0.906   3.684
19151W        W87481  37.047  25.074  14.911
19152W        W87482  39.420  22.654  13.410
19153W        W87483  36.590  15.174   3.236
19154W        W87484  14.261  34.029   4.248
19155W        W87485  42.964  42.825  10.009
19156W        W87486  29.966  28.079  13.978
19157W        W87487  36.439   8.167   4.121
19158W        W87488  34.104  29.524   2.259
19159W        W87489  40.819   9.238   4.726
19160W        W87490  18.131  10.185  10.918
19161W        W87491  41.393  16.618   1.816
19162W        W87492  32.548   0.278   4.247
19163W        W87493  29.515  29.926  13.309
19164W        W87494  43.356  24.717   4.782
19165W        W87495  15.814  43.860   1.698
19166W        W87496  25.618   4.753   0.818
19167W        W87497   3.724  39.441  10.994
19168W        W87498  25.679  30.522   4.315
19169W        W87499  10.225  20.251   2.288
19170W        W87500  29.579  10.833   2.846
19171W        W87501  40.376  42.325   0.296
19172W        W87502  19.152   9.305  11.471
19173W        W87503   0.351  22.187   1.422
19174W        W87504  43.377  25.643  12.558
19175W        W87505  37.916  12.617   2.742
19176W        W87506  27.592  33.886  13.317
19177W        W87507  24.055   2.261   4.164
19178W        W87508  12.638  41.845   3.183
19179W        W87509   3.830  30.509  13.383
19180W        W87510   8.329  44.454   4.268
19181W        W87511   4.348   7.293  12.378
19182W        W87512  41.479  17.734  14.439
19183W        W87513   4.928   5.363   0.964
19184W        W87514  43.933  31.593   0.936
19185W        W87515  23.501  19.535   1.779
19186W        W87516  35.445   5.245  14.412
19187W        W87517   8.187  43.794   4.787
19188W        W87518  22.093  37.430   3.654
19189W        W87519   0.909  33.909   1.822
19190W        W87520   3.940   3.454   5.259
19191W        W87521   3.781   9.323   4.278
19192W        W87522  33.930   1.794   2.738
19193W        W87523  18.790  31.524   2.306
19194W        W87524  17.653  20.673   4.292
19195W        W87525  10.633   5.879   4.242
19196W        W87526  15.788   7.200   2.717
19197W        W87527  24.145  16.097  13.884
19198W        W87528   8.161  38.509  14.937
19199W        W87529  10.198  17.241   1.224
19200W        W87530   5.775  33.874  12.391
19201W        W87531  13.237  40.992   1.261
19202W        W87532   7.763  40.011   0.877
19203W        W87533   7.219  41.493  11.523
19204W        W87534  28.650   3.438  13.936
19205W        W87535  10.783  16.744   4.177
19206W        W87536  29.558  27.049   0.285
19207W        W87537  30.116  34.409   2.217
19208W        W87538  41.023  41.971  14.367
19209W        W87539  10.762  31.100  14.828
19210W        W87540  32.914  32.040   2.801
19211W        W87541   5.693   0.481   2.878
19212W        W87542  20.267  43.364   3.719
19213W        W87543  21.239  37.467  12.473
19214W        W87544  24.222  33.020   4.143
19215W        W87545  15.751  40.005   3.700
19216W        W87546  12.280  32.957   2.190
19217W        W87547  33.408   8.803   2.718
19218W        W87548  31.936  23.657   2.357
19219W        W87549  43.816  37.847  13.945
19220W        W87550  33.929  21.522   1.841
19221W        W87551   7.293  38.014  10.515
19222W        W87552  36.359   2.441   0.817
19223W        W87553  15.723  25.031   3.690
19224W        W87554  43.826  13.726  11.102
19225W        W87555   5.266  22.693   9.975
19226W        W87556  39.896   6.895   0.475
19227W        W87557  35.100  16.728  11.459
19228W        W87558  44.347  38.949   1.445
19229W        W87559  18.085   5.726   0.823
19230W        W87560  27.176  43.461   4.280
19231W        W87561  22.695  31.539  11.957
19232W        W87562  23.044  11.662  11.948
19233W        W87563  16.154  21.097  12.914
19234W        W87564   4.764  15.681  12.985
19235W        W87565   5.694  29.466  14.420
19236W        W87566  15.672  21.726   2.258
19237W        W87567  21.234  33.394   2.756
19238W        W87568   0.254  41.527   1.902
19239W        W87569  27.097  17.565   0.819
19240W        W87570  25.641   2.744  12.059
19241W        W87571   3.911  27.686   0.876
19242W        W87572  21.626  39.489  11.566
19243W        W87573  16.683  26.474  12.476
19244W        W87574  32.014  17.563  13.958
19245W        W87575  32.591  29.119   3.767
19246W        W87576  31.018  13.173   0.769
19247W        W87577  26.511  34.037   3.663
19248W        W87578  34.878  36.494  11.421
19249W        W87579  29.131  39.379   3.257
19250W        W87580  27.599  25.969  11.422
19251W        W87581  24.226  41.386  14.827
19252W        W87582  13.238  43.936   3.375
19253W        W87583  44.777  44.401   0.800
19254W        W87584  22.596  39.351   0.863
19255W        W87585  39.434  43.273  10.408
19256W        W87586   3.720  42.883  11.604
19257W        W87587   0.413  38.549  13.450
19258W        W87588  14.111   6.815  12.951
19259W        W87589  34.048   1.351  12.074
19260W        W87590  14.624  36.377   1.873
19261W        W87591  23.505   7.740   4.140
19262W        W87592  41.875   3.228  14.996
19263W        W87593  44.316   9.820   0.337
19264W        W87594  10.162  28.110  13.826
19265W        W87595  21.634  43.866  13.006
19266W        W87596  19.096  25.519   5.168
19267W        W87597  29.532  13.125  14.461
19268W        W87598  35.975  26.460  10.928
19269W        W87599  24.196  29.956   4.805
19270W        W87600  20.709  43.293  11.048
19271W        W87601  24.550   3.805  11.480
19272W        W87602   6.796  31.501  13.856
19273W        W87603  10.231  40.820  11.389
19274W        W87604  34.936  33.899  14.369
19275W        W87605  44.893  17.710  12.441
19276W        W87606   4.411  31.939   3.629
19277W        W87607   8.836  30.572  13.950
19278W        W87608  33.622  28.161  10.979
19279W        W87609  30.913  11.250   1.710
19280W        W87610  10.265  16.657  10.954
19281W        W87611  31.524   9.800   0.355
19282W        W87612  17.251  31.426   4.609
19283W        W87613  11.632  22.508  11.096
19284W        W87614   8.351  19.092  12.029
19285W        W87615  33.988  35.425  14.425
19286W        W87616   7.396  16.599  11.579
19287W        W87617  42.398  13.330  11.930
19288W        W87618  13.689  31.572   1.730
19289W        W87619  44.384  37.465  12.831
19290W        W87620   6.710  11.363   4.618
19291W        W87621  27.047  35.007  13.967
19292W        W87622  22.996  26.508  11.900
19293W        W87623  36.461  21.217  13.839
19294W        W87624  31.506  17.264   1.251
19295W        W87625   6.312  19.634   2.414
19296W        W87626  14.183  17.302   5.084
19297W        W87627   6.834   7.695  14.375
19298W        W87628  22.656   9.258   5.688
19299W        W87629   0.827  37.865  12.920
19300W        W87630  20.624  20.701  10.890
19301W        W87631   8.356   9.159   1.308
19302W        W87632  14.637   9.390   1.931
19303W        W87633   6.842  31.639  11.869
19304W        W87634  38.045  13.841  10.926
19305W        W87635  11.759  27.983   0.829
19306W        W87636  31.618  39.851   0.899
19307W        W87637   2.885  34.007  14.012
19308W        W87638   7.774  30.932  14.952
19309W        W87639  34.611  43.433  14.818
19310W        W87640  26.072  28.031   3.305
19311W        W87641  22.671  15.637   0.405
19312W        W87642  35.884  40.433  12.999
19313W        W87643   9.841  32.920  11.521
19314W        W87644   5.263  37.376  13.917
19315W        W87645  38.947   3.260  11.029
19316W        W87646  12.278  41.979  12.855
19317W        W87647  32.938  27.054  10.573
19318W        W87648  11.142   9.796  13.042
19319W        W87649  20.204  36.388  11.533
19320W        W87650  11.798  21.718   2.365
19321W        W87651  14.188   1.793  11.610
19322W        W87652  20.638  12.805  12.926
19323W        W87653  25.049  44.811   4.807
19324W        W87654  34.010  22.690  13.011
19325W        W87655  26.601  35.499  14.978
19326W        W87656  35.439   4.699  13.959
19327W        W87657  38.513  16.783  14.463
19328W        W87658  19.645  41.001  11.991
19329W        W87659  38.996   9.682   1.928
19330W        W87660  21.680  14.174  12.957
19331W        W87661  10.181  25.659   1.231
19332W        W87662  24.231  33.484  11.431
19333W        W87663  33.583   7.411  12.836
19334W        W87664  14.269  36.584   0.345
19335W        W87665   6.238  12.179  10.556
19336W        W87666  10.364   4.834  14.393
19337W        W87667  21.598  35.481   0.384
19338W        W87668   3.448  15.798   1.859
19339W        W87669   5.288   7.856  14.391
19340W        W87670  15.753  11.840   0.787
19341W        W87671  17.627  15.701  11.564
19342W        W87672  41.521  38.962   4.659
19343W        W87673  13.619   8.739   1.314
19344W        W87674   5.261  19.105  14.891
19345W        W87675  14.813  27.510  12.954
19346W        W87676   2.272   2.816   0.784
19347W        W87677  42.006  19.063  10.961
19348W        W87678  29.626  24.551  14.323
19349W        W87679  22.069  41.005  12.942
19350W        W87680   6.262  25.699  11.487
19351W        W87681  20.236  31.028   2.723
19352W        W87682  39.399   5.812   3.386
19353W        W87683   1.342  40.375  12.890
19354W        W87684  23.632  13.319  12.053
19355W        W87685  35.556   9.727  12.499
19356W        W87686  24.508   1.343  14.938
19357W        W87687  27.501  19.611  12.991
19358W        W87688  13.631  13.226  10.603
19359W        W87689  32.003  21.554  12.501
19360W        W87690  25.549  29.631   2.667
19361W        W87691   1.967  42.449  12.904
19362W        W87692   6.832  26.590   0.423
19363W        W87693  19.732  19.701  11.446
19364W        W87694   9.872   2.356  10.980
19365W        W87695  30.920  24.987  13.369
19366W        W87696   7.257  44.945  13.541
19367W        W87697   3.368  20.650   2.323
19368W        W87698  26.976  10.159   3.181
19369W        W87699  16.785  31.642  12.980
19370W        W87700   5.867  35.487   0.943
19371W        W87701   9.745   6.415  11.966
19372W        W87702  25.962   7.351   2.757
19373W        W87703   4.239  21.163   4.651
19374W        W87704   6.748   5.759   3.354
19375W        W87705  37.021   3.755  12.049
19376W        W87706  23.544  41.829   0.754
19377W        W87707  42.896  16.268   4.766
19378W        W87708   9.774   0.955   3.200
19379W        W87709  40.310   4.718   4.297
19380W        W87710  11.805  29.542  12.441
19381W        W87711  21.535  34.869   4.222
19382W        W87712  28.445  42.410  12.525
19383W        W87713   2.785  16.159   1.315
19384W        W87714  23.068   4.412   3.369
19385W        W87715   4.297  22.725  13.365
19386W        W87716  14.301   0.785  13.053
19387W        W87717   5.297   7.268  10.523
19388W        W87718  10.171  26.983  14.876
19389W        W87719  28.599  41.870  12.423
19390W        W87720  39.487  18.743   3.748
19391W        W87721  38.382  34.545  11.896
19392W        W87722  36.380   2.936   4.248
19393W        W87723  11.664  29.102  10.598
19394W        W87724  10.322  16.727   4.307
19395W        W87725  37.413  39.886   3.190
19396W        W87726  31.548  21.578  14.343
19397W        W87727  16.698   2.332  13.026
19398W        W87728  35.586  30.971   4.811
19399W        W87729  29.959  25.209   3.262
19400W        W87730   9.283  22.014  13.038
19401W        W87731  21.630  34.508   2.735
19402W        W87732  23.104  37.429   4.695
19403W        W87733   4.264  39.030   1.769
19404W        W87734   3.438  21.206   0.944
19405W        W87735  15.258  21.075   2.878
19406W        W87736  43.011  34.502  11.873
19407W        W87737  13.822  31.134  12.088
19408W        W87738  33.073  14.749   2.890
19409W        W87739  35.604  12.225  11.475
19410W        W87740  40.373  16.280   1.214
19411W        W87741   8.370  17.217   2.294
19412W        W87742  16.689  26.465   1.706
19413W        W87743  33.038  21.021  11.433
19414W        W87744  11.253  16.172   1.882
19415W        W87745  16.072  25.194   5.255
19416W        W87746  22.540  23.018  12.012
19417W        W87747  34.525   7.900   4.227
19418W        W87748  14.125  28.107   3.692
19419W        W87749  12.147  43.447   4.829
19420W        W87750   4.725  35.382  12.960
19421W        W87751  15.727  10.152  13.505
19422W        W87752   5.873  11.646   3.643
19423W        W87753  14.096   6.380   3.222
19424W        W87754  23.640  21.081  14.424
19425W        W87755   4.715  31.914  10.018
19426W        W87756  27.458   1.830  10.918
19427W        W87757  41.025   0.326   4.623
19428W        W87758   4.741  19.631   2.813
19429W        W87759  42.527  34.968  13.930
19430W        W87760   9.166   9.767   4.765
19431W        W87761   9.258  44.305   2.819
19432W        W87762  34.872  11.677  12.007
19433W        W87763  21.218  41.949   0.903
19434W        W87764  44.987  22.121  10.559
19435W        W87765  31.571  25.011   1.373
19436W        W87766   4.319  22.163  14.280
19437W        W87767  15.198  21.568   0.900
19438W        W87768  36.939  41.806  14.842
19439W        W87769   8.859   9.286  10.996
19440W        W87770  33.127  13.108  11.050
19441W        W87771   9.165  19.689   0.270
19442W        W87772  13.348  27.153   3.345
19443W        W87773   2.873  25.140  14.782
19444W        W87774  37.404  41.795   1.343
19445W        W87775  16.794  39.547   3.347
19446W        W87776   8.389  28.624   4.167
19447W        W87777  36.017  17.089  12.537
19448W        W87778  38.820   3.274  12.366
19449W        W87779  29.500  13.193  11.041
19450W        W87780  16.706   3.276  11.096
19451W        W87781   6.814  21.633  12.933
19452W        W87782  15.667   3.909   4.732
19453W        W87783  27.176  14.196   0.306
19454W        W87784  31.597  28.166   4.203
19455W        W87785  42.520  38.464  14.999
19456W        W87786   7.670  25.054   4.681
19457W        W87787  41.921   8.714   3.248
19458W        W87788  19.155  20.617  10.418
19459W        W87789  27.508  29.987   4.122
19460W        W87790   1.870  24.173   2.349
19461W        W87791   3.844   9.677  14.867
19462W        W87792  13.795  17.683  13.014
19463W        W87793  18.767  25.618  12.917
19464W        W87794  42.951  20.680  12.570
19465W        W87795  43.932  38.346   4.341
19466W        W87796  31.436  15.753  11.403
19467W        W87797  27.471  32.027   1.430
19468W        W87798  38.903  18.207   2.299
19469W        W87799  28.007  35.450   4.725
19470W        W87800  43.935   9.152  12.843
19471W        W87801  38.903   9.233   3.231
19472W        W87802  21.545  39.552  14.877
19473W        W87803  11.735  29.494  14.900
19474W        W87804  12.621  38.039   4.731
19475W        W87805  18.181  24.715  12.052
19476W        W87806  10.381  31.528   4.236
19477W        W87807  25.512  21.185  13.855
19478W        W87808   5.221  31.090   4.752
19479W        W87809  12.702  31.976  13.041
19480W        W87810  43.867  16.314  10.923
19481W        W87811  11.696  19.127   4.600
19482W        W87812  12.680   7.182   1.704
19483W        W87813   0.891   6.875  12.418
19484W        W87814   9.670  44.481  14.464
19485W        W87815  40.545  23.668  13.889
19486W        W87816  43.357  43.789   4.245
19487W        W87817  11.184  39.064  13.412
19488W        W87818   5.746  25.609  13.963
19489W        W87819  25.714  32.061   2.377
19490W        W87820  16.598  38.358   1.807
19491W        W87821  34.960  36.084   0.387
19492W        W87822  31.027  14.133  10.438
19493W        W87823  28.674   7.284   1.433
19494W        W87824  25.083  33.024   3.831
19495W        W87825  39.907  21.661   0.796
19496W        W87826  36.074  32.500  10.979
19497W        W87827  17.667  16.296  11.082
19498W        W87828  29.655  15.760  12.546
19499W        W87829  39.437  15.299  11.473
19500W        W87830   7.888  18.679   4.284
19501W        W87831  23.062  28.445   4.744
19502W        W87832  38.045  33.463   2.665
19503W        W87833  21.621  29.513   0.876
19504W        W87834  18.575  37.029  10.634
19505W        W87835  14.740  43.369   4.613
19506W        W87836   0.454  44.837   2.763
19507W        W87837  28.676  24.710  14.281
19508W        W87838  10.332  34.484   4.223
19509W        W87839   0.261  20.677   2.178
19510W        W87840  42.024  42.919   4.752
19511W        W87841   0.479  39.514   0.902
19512W        W87842  37.070   3.262   2.350
19513W        W87843  32.979  37.902   3.207
19514W        W87844   6.232  11.331   4.635
19515W        W87845  16.219  35.533   3.719
19516W        W87846  17.069  38.994  11.456
19517W        W87847  37.057  42.474  13.449
19518W        W87848   0.313   1.257   0.948
19519W        W87849  36.455  14.306   9.987
19520W        W87850  16.193  27.489  14.831
19521W        W87851  29.930  11.746   4.608
19522W        W87852   5.832   3.270  14.975
19523W        W87853  37.981  38.516   0.440
19524W        W87854  26.644  26.013   2.816
19525W        W87855   3.401   5.691  13.489
19526W        W87856  37.897  31.577  11.109
19527W        W87857   4.835  15.084   4.291
19528W        W87858   2.917  41.968   4.624
19529W        W87859  36.427  36.581  14.874
19530W        W87860   7.290  12.291   4.280
19531W        W87861  30.007  36.591   2.808
19532W        W87862  19.686  10.139  13.050
19533W        W87863  12.692  36.936  11.510
19534W        W87864  27.579  32.594  14.312
19535W        W87865  20.041  29.926   1.724
19536W        W87866  10.168  11.695  11.887
19537W        W87867  33.924  43.825  14.854
19538W        W87868  16.632   3.849   2.350
19539W        W87869   0.952  34.387   3.166
19540W        W87870   1.459  35.411   2.205
19541W        W87871   4.914  13.200  10.641
19542W        W87872  21.718  37.483   5.097
19543W        W87873  37.018   1.772  10.468
19544W        W87874  35.865  35.938  12.555
19545W        W87875   4.901  26.047   4.145
19546W        W87876  42.377  18.695  10.565
19547W        W87877  17.245  14.166   3.361
19548W        W87878  29.998  16.778   1.762
19549W        W87879  24.994   3.391   0.787
19550W        W87880  15.770  12.324  14.869
19551W        W87881  34.054  28.051  10.931
19552W        W87882  30.045   4.876   3.834
19553W        W87883  28.153  11.232   3.183
19554W        W87884  21.716  22.525  13.064
19555W        W87885   6.209  18.161  11.551
19556W        W87886  17.246  26.559  11.579
19557W        W87887  37.842  30.614   2.684
19558W        W87888  24.976   1.350   2.372
19559W        W87889   6.775  13.151  13.800
19560W        W87890  28.167  40.980   4.769
19561W        W87891  21.648  33.106   4.732
19562W        W87892  32.035  29.633  10.992
19563W        W87893   9.782  21.022   4.792
19564W        W87894  33.066  40.921   2.806
19565W        W87895  41.827  17.130   1.352
19566W        W87896  19.173  16.796  12.033
19567W        W87897  24.610  17.597  10.508
19568W        W87898  30.462  19.733  14.009
19569W        W87899   2.781  15.782   3.810
19570W        W87900   9.883   9.326  10.921
19571W        W87901  27.981  39.397   2.355
19572W        W87902  42.389  26.509  13.437
19573W        W87903  44.405  39.957   4.808
19574W        W87904  32.119  34.902   2.208
19575W        W87905  21.545  33.592   4.139
19576W        W87906  34.952  14.641   4.713
19577W        W87907  20.637  36.409  13.372
19578W        W87908  27.138  29.965  14.810
19579W        W87909  11.331  26.056   1.385
19580W        W87910  13.165   7.684   4.628
19581W        W87911  13.795   8.243   2.812
19582W        W87912   3.882  29.092  11.536
19583W        W87913  15.705  35.362   4.609
19584W        W87914   7.412   1.732   4.664
19585W        W87915  34.556  22.638   3.768
19586W        W87916  20.243  28.611   4.802
19587W        W87917  22.538  13.182   0.950
19588W        W87918  18.663  27.453   0.273
19589W        W87919  28.521   9.250  12.965
19590W        W87920  37.555  33.608   3.738
19591W        W87921  11.773  30.597  13.455
19592W        W87922  24.016  21.605  12.364
19593W        W87923  11.836  21.521  14.476
19594W        W87924   0.317  26.507   0.831
19595W        W87925  35.467   3.393  10.952
19596W        W87926   1.753   3.902   0.395
19597W        W87927  19.080  23.636  10.044
19598W        W87928  24.627  41.809  12.343
19599W        W87929   5.827  34.870  14.843
19600W        W87930  26.071  21.236  11.970
19601W        W87931  16.585  37.367  12.443
19602W        W87932  29.054  36.409  11.474
19603W        W87933  35.377  31.563  12.031
19604W        W87934  16.612  40.018  13.524
19605W        W87935   8.759  27.549  12.410
19606W        W87936  30.551  43.860  12.893
19607W        W87937  41.432  23.085   2.693
19608W        W87938  36.376  38.965   0.342
19609W        W87939  37.952  24.037  11.019
19610W        W87940  37.423   9.233   3.314
19611W        W87941   4.390  19.242  13.312
19612W        W87942  23.158  29.551   2.864
19613W        W87943   6.838  28.014  10.554
19614W        W87944  30.994   3.292   0.305
19615W        W87945  14.594  42.361  14.471
19616W        W87946  18.734  40.424  13.900
19617W        W87947  28.533  32.428   4.240
19618W        W87948  36.910   0.309   4.146
19619W        W87949  22.233  18.580  13.443
19620W        W87950  10.348  21.674   1.385
19621W        W87951  39.361   4.857  14.358
19622W        W87952  20.157  31.115   4.252
19623W        W87953  28.533  10.833  11.987
19624W        W87954  26.569  30.471   1.285
19625W        W87955  30.437   5.847  13.029
19626W        W87956  19.767  18.645   0.285
19627W        W87957  42.386  27.468  12.859
19628W        W87958  28.958  11.222  14.433
19629W        W87959  15.297  21.592  13.897
19630W        W87960  41.994  33.513  10.637
19631W        W87961  11.788   2.275   1.295
19632W        W87962  42.988  38.854  11.086
19633W        W87963   8.292  18.611   1.413
19634W        W87964  11.243  41.963  12.432
19635W        W87965  38.344   5.328   3.767
19636W        W87966  36.911  15.700  13.015
19637W        W87967  32.536  13.788   1.431
19638W        W87968  31.551   1.958   3.284
19639W        W87969  15.680  24.491   4.234
19640W        W87970  13.728  41.450  13.485
19641W        W87971  12.217  19.541  13.519
19642W        W87972  30.999   6.231  12.446
19643W        W87973  38.449  11.702  14.427
19644W        W87974   6.377  40.958   0.359
19645W        W87975   8.374  40.933   0.881
19646W        W87976  42.008  25.634   2.303
19647W        W87977  29.653   1.313   3.212
19648W        W87978   5.305  42.878  14.384
19649W        W87979  27.482  27.064  12.026
19650W        W87980  39.338  32.493   3.807
19651W        W87981  31.521  31.406   2.379
19652W        W87982   6.876  30.491  13.897
19653W        W87983  25.544  24.097  12.468
19654W        W87984   8.723  27.036   0.824
19655W        W87985  13.316  42.476   0.910
19656W        W87986  35.900  29.465   0.801
19657W        W87987   9.843  24.701   0.795
19658W        W87988  16.084  38.988  11.960
19659W        W87989   3.765   5.752  13.352
19660W        W87990  42.315   9.703  14.843
19661W        W87991   0.422  31.116   4.828
19662W        W87992  32.065  28.534   0.378
19663W        W87993  41.919   5.353  11.865
19664W        W87994  33.998  44.497  10.000
19665W        W87995  39.486  28.132  14.306
19666W        W87996  24.978  19.585  14.399
19667W        W87997  27.474  24.483   0.881
19668W        W87998  17.688  36.859   2.695
19669W        W87999  34.985   2.310   1.358
19670W        W88000  30.135  42.339  13.360
19671W        W88001   1.388   1.744   1.716
19672W        W88002  31.617  23.017  10.085
19673W        W88003  36.485   0.781  14.505
19674W        W88004  33.431  41.401  12.927
19675W        W88005  23.062  23.603  11.424
19676W        W88006   0.906  34.401  11.465
19677W        W88007  14.117  22.719   1.778
19678W        W88008  43.896  25.161   4.237
19679W        W88009  27.609  31.015   2.203
19680W        W88010  19.607  17.799  11.957
19681W        W88011  43.405  41.024   0.362
19682W        W88012   6.186  18.720   1.422
19683W        W88013  30.523   6.342  14.471
19684W        W88014  30.550  27.064  11.939
19685W        W88015  24.657  12.244  14.791
19686W        W88016  18.771  26.192  13.002
19687W        W88017   4.747  13.282   0.927
19688W        W88018  19.160  24.484   3.801
19689W        W88019  44.809   9.320   0.951
19690W        W88020  36.083  35.371   3.258
19691W        W88021  15.270  31.931  12.466
19692W        W88022   0.745  33.102   2.284
19693W        W88023  24.492  12.199   0.755
19694W        W88024   5.791  39.388   1.908
19695W        W88025   5.801  26.082   1.342
19696W        W88026  17.153  33.971   2.698
19697W        W88027  40.950  19.619  13.961
19698W        W88028   6.739  36.943   0.935
19699W        W88029  36.404  39.873  11.569
19700W        W88030  11.328   4.276  14.804
19701W        W88031   6.840  24.169  13.362
19702W        W88032  27.636  44.865   0.828
19703W        W88033  12.632   0.260   1.436
19704W        W88034  11.626   7.775   0.914
19705W        W88035  14.698  25.051   2.818
19706W        W88036  30.520  44.837  10.436
19707W        W88037  34.914  19.686  11.897
19708W        W88038  33.980  14.111   3.149
19709W        W88039  43.827   9.234  14.852
19710W        W88040  35.523  41.375  13.812
19711W        W88041  29.636  23.731   0.853
19712W        W88042  16.628  28.970  11.443
19713W        W88043   1.389  14.158   0.922
19714W        W88044   3.442  21.138  12.073
19715W        W88045  29.604  42.873  11.935
19716W        W88046   1.799   1.770   0.950
19717W        W88047  44.414  30.162  10.516
19718W        W88048  14.687  10.749   4.279
19719W        W88049  28.168  31.061  11.597
19720W        W88050   4.264   1.756   3.674
19721W        W88051  23.693  43.956   4.230
19722W        W88052   4.273  25.512  11.544
19723W        W88053  22.659   6.867   1.906
19724W        W88054  11.730  16.759  10.424
19725W        W88055   0.863  10.334  12.461
19726W        W88056  20.706  13.728  14.884
19727W        W88057  15.328  26.112  14.345
19728W        W88058  33.888  22.195  10.980
19729W        W88059  29.085   9.286  10.510
19730W        W88060   5.825   5.383   1.699
19731W        W88061  41.029   1.967  11.462
19732W        W88062  20.720   8.901  11.984
19733W        W88063  22.144   1.352  12.874
19734W        W88064  32.534  17.219  11.454
19735W        W88065  13.113   3.373   4.309
19736W        W88066  32.053  23.092  14.300
19737W        W88067  38.420   5.931   0.242
19738W        W88068  18.596   3.947   3.700
19739W        W88069  13.196  17.111   4.290
19740W        W88070  28.984  22.157   4.814
19741W        W88071  19.194  14.682  13.511
19742W        W88072  27.993  21.522  12.344
19743W        W88073  36.847  41.983   2.395
19744W        W88074   4.822  38.948   4.279
19745W        W88075   7.669  21.707   4.692
19746W        W88076  29.078  44.309  10.453
19747W        W88077   3.284  17.222   2.894
19748W        W88078  27.621  14.600  10.897
19749W        W88079  39.966  19.284   4.817
19750W        W88080  15.214   8.898   3.674
19751W        W88081  23.151  21.128  11.516
19752W        W88082  42.030   8.183   4.247
19753W        W88083  24.034  16.255   4.172
19754W        W88084  28.524  43.864  10.522
19755W        W88085  38.006  11.795  14.871
19756W        W88086   8.357   9.367  14.849
19757W        W88087  26.693  33.475  13.808
19758W        W88088   6.313  32.065   4.276
19759W        W88089  10.823  41.811  12.013
19760W        W88090  27.955   1.399  10.555
19761W        W88091  40.976  28.026  14.883
19762W        W88092  10.740  15.677   3.767
19763W        W88093   6.756  38.530   2.858
19764W        W88094  24.171  29.078  12.972
19765W        W88095  25.130   1.318  14.443
19766W        W88096  39.051  31.410   4.170
19767W        W88097  23.528  13.735   0.787
19768W        W88098  23.138  17.190  12.914
19769W        W88099   4.241   5.400  13.991
19770W        W88100  19.195  37.903  11.374
19771W        W88101  15.244   5.218  14.433
19772W        W88102   2.343  21.068   2.414
19773W        W88103  30.648  41.482  12.861
19774W        W88104  43.361  11.311  14.835
19775W        W88105  12.323  11.216   4.313
19776W        W88106  41.861  17.783   3.806
19777W        W88107  22.625   1.769   9.992
19778W        W88108  14.326  42.829  11.586
19779W        W88109   2.869  23.659  10.408
19780W        W88110   9.387  28.112   0.804
19781W        W88111  24.499  33.416  11.078
19782W        W88112  36.995  24.225  13.308
19783W        W88113  35.990  30.934   4.154
19784W        W88114   1.309  34.503   2.873
19785W        W88115  30.042   7.782   0.341
19786W        W88116  42.408  34.539  10.530
19787W        W88117   7.195  33.561  12.493
19788W        W88118  34.903  32.609   2.696
19789W        W88119  19.149   6.874  13.934
19790W        W88120  21.141  15.245   0.816
19791W        W88121   6.848  18.071  11.019
19792W        W88122  31.423   7.824  12.967
19793W        W88123  15.303  28.974   3.635
19794W        W88124  15.174  18.059  11.926
19795W        W88125  31.111  18.668  13.375
19796W        W88126  29.446  15.210  12.944
19797W        W88127  37.025  44.797  12.970
19798W        W88128   9.806   0.463  13.540
19799W        W88129  44.342  29.029  10.604
19800W        W88130  18.264  41.954  10.936
19801W        W88131  39.403   2.929   4.813
19802W        W88132  23.219   1.923   3.785
19803W        W88133  14.612  19.691   5.259
19804W        W88134  35.898   5.353   2.791
19805W        W88135   0.266  25.030  14.947
19806W        W88136  16.313   5.833   2.867
19807W        W88137  11.278  37.846  13.534
19808W        W88138  30.017  40.382   4.322
19809W        W88139  38.555  15.317  14.032
19810W        W88140  22.728  14.630   3.345
19811W        W88141  21.018   8.840   3.262
19812W        W88142   5.898  10.634   4.647
19813W        W88143  19.718  12.260   1.895
19814W        W88144  13.178   0.375  14.437
19815W        W88145  42.966  27.487  10.924
19816W        W88146  14.296  37.943  14.789
19817W        W88147  32.077   5.747   0.361
19818W        W88148  33.518   6.922   1.930
19819W        W88149  26.088  43.840  12.949
19820W        W88150  33.934   5.326   1.321
19821W        W88151  44.480   4.244   2.342
19822W        W88152   2.297  19.763  10.070
19823W        W88153  16.188   0.836  12.385
19824W        W88154  27.623  12.824  11.993
19825W        W88155  35.089  17.106  10.158
19826W        W88156  26.588  35.394   2.406
19827W        W88157   2.289  41.920   2.237
19828W        W88158  15.163  23.238  14.430
19829W        W88159  32.040  28.582   4.177
19830W        W88160  43.964  22.551   0.742
19831W        W88161  18.727  33.084  12.913
19832W        W88162  32.011  28.951  11.973
19833W        W88163  28.012  34.878  10.467
19834W        W88164  41.335   2.853   0.405
19835W        W88165  25.002  32.572   3.844
19836W        W88166  31.987   2.931   4.638
19837W        W88167  21.550  30.616   5.289
19838W        W88168  20.575  22.152  13.953
19839W        W88169  27.660  27.172  13.903
19840W        W88170   0.857   0.314  10.560
19841W        W88171  21.673  32.575  13.990
19842W        W88172  29.960  18.169  11.529
19843W        W88173  44.833  34.005   2.321
19844W        W88174  39.828  21.586  10.551
19845W        W88175  28.120  15.176  12.909
19846W        W88176  34.579  26.531  13.982
19847W        W88177  13.268  19.772   2.381
19848W        W88178  20.202  19.154  13.940
19849W        W88179  39.902   1.446   2.688
19850W        W88180  40.511  33.503  13.352
19851W        W88181   1.747  36.894   1.397
19852W        W88182  40.891  34.539   2.674
19853W        W88183   7.240   7.889   1.254
19854W        W88184   3.944  34.501  10.063
19855W        W88185   0.375  41.868  13.490
19856W        W88186  16.700  37.519  12.952
19857W        W88187  10.212  44.002  12.493
19858W        W88188   0.857  15.212   4.167
19859W        W88189  14.777  11.696  11.008
19860W        W88190  30.137  22.995  14.453
19861W        W88191  13.708  15.599  11.576
19862W        W88192  25.145  20.730   0.299
19863W        W88193   0.272   8.813   4.173
19864W        W88194  27.155  32.541   3.634
19865W        W88195   3.284  19.779   0.367
19866W        W88196  19.050  42.382  14.831
19867W        W88197   2.862  39.364  12.358
19868W        W88198  30.583  39.384   1.214
19869W        W88199  20.204  29.664   3.741
19870W        W88200  12.146   7.327   1.707
19871W        W88201  13.655  34.019   2.823
19872W        W88202  28.547   3.829   2.679
19873W        W88203   1.343  28.003   1.230
19874W        W88204  43.320  21.610  12.431
19875W        W88205  39.955  19.767  12.461
19876W        W88206   7.866  32.897  11.046
19877W        W88207   1.750   5.698  13.970
19878W        W88208   1.447   5.846  14.768
19879W        W88209  44.301   4.859  11.482
19880W        W88210  39.942  22.718  14.807
19881W        W88211  19.067  20.756   0.962
19882W        W88212  27.122   1.284   4.807
19883W        W88213  30.021  20.217  12.901
19884W        W88214  40.310  13.789   4.796
19885W        W88215  36.037  36.463  10.579
19886W        W88216  38.009  36.377  14.423
19887W        W88217  14.707   0.746  14.308
19888W        W88218  30.072  38.355  12.095
19889W        W88219  39.422  31.006   3.771
19890W        W88220   3.885  17.642   0.462
19891W        W88221  17.133   9.339  14.305
19892W        W88222  27.678   5.281   4.315
19893W        W88223  25.672  26.508  11.105
19894W        W88224  27.524  19.580   2.720
19895W        W88225  21.528   8.346   0.402
19896W        W88226  41.944  35.944   0.408
19897W        W88227  16.099  29.669  11.515
19898W        W88228  19.717  38.377   2.261
19899W        W88229  13.640   7.402   0.953
19900W        W88230  43.955  39.970   3.194
19901W        W88231  34.544  33.385   4.141
19902W        W88232  16.750  38.037  13.812
19903W        W88233   6.389  19.282  11.430
19904W        W88234   2.442   7.689   3.151
19905W        W88235  33.036  16.609  13.986
19906W        W88236  11.267  30.035  13.991
19907W        W88237  19.687  42.012  14.777
19908W        W88238  28.068  15.100   3.370
19909W        W88239  40.481   8.265  12.096
19910W        W88240  14.758  17.583   3.232
19911W        W88241  10.163  16.696   1.280
19912W        W88242  34.883   5.727  14.006
19913W        W88243  37.554  30.038  14.312
19914W        W88244  12.312   6.695   1.288
19915W        W88245  13.166  27.154  14.484
19916W        W88246  22.674   0.391  12.487
19917W        W88247  40.431  37.484   2.254
19918W        W88248  33.040  19.541  10.513
19919W        W88249  42.348  33.454   2.336
19920W        W88250  11.313   3.435   4.677
19921W        W88251  28.593   2.747   0.327
19922W        W88252  35.090   6.701  10.592
19923W        W88253  10.292   3.337   0.931
19924W        W88254  29.973   3.942  10.508
19925W        W88255  10.166   2.427   3.371
19926W        W88256  38.531  21.174  13.466
19927W        W88257   2.905  11.209  14.444
19928W        W88258  15.627  13.291  13.382
19929W        W88259  29.996  38.498  13.454
19930W        W88260  41.015  20.243  10.613
19931W        W88261  30.071  24.206  11.975
19932W        W88262  23.195   8.226   5.191
19933W        W88263   2.307  26.681  14.010
19934W        W88264   3.926   5.719  13.999
19935W        W88265  10.270   7.204   1.765
19936W        W88266  21.093  33.953   3.160
19937W        W88267  41.381  34.089  14.821
19938W        W88268  42.465  26.668  14.871
19939W        W88269  42.493  19.707  12.893
19940W        W88270  44.501  12.194   0.881
19941W        W88271  31.570  33.484  14.426
19942W        W88272  31.591  29.522  10.950
19943W        W88273  13.183  24.711  13.037
19944W        W88274  39.884  16.697   0.271
19945W        W88275  31.112  10.788  12.917
19946W        W88276  14.218  15.328   4.246
19947W        W88277  10.750  37.954   1.882
19948W        W88278   3.357  43.778  14.353
19949W        W88279  11.165  34.484  14.914
19950W        W88280   3.292   8.703  13.061
19951W        W88281  19.171  13.844  14.999
19952W        W88282  32.039  24.534  14.002
19953W        W88283  13.789  16.630  14.504
19954W        W88284  20.648  31.486  11.586
19955W        W88285  25.678  38.921   1.856
19956W        W88286  21.561  14.696  11.962
19957W        W88287   5.372  12.640   1.349
19958W        W88288   7.233  38.490  11.524
19959W        W88289  22.532  14.705  10.910
19960W        W88290   1.965  28.972   2.237
19961W        W88291  18.275  42.359  11.900
19962W        W88292  18.596   2.815   3.867
19963W        W88293  32.106  16.269   4.680
19964W        W88294  15.771  17.661   1.777
19965W        W88295  29.651  27.111   3.282
19966W        W88296  36.504  28.606  12.519
19967W        W88297  11.285  22.084   3.747
19968W        W88298  34.086   0.774  12.428
19969W        W88299  33.510  24.610   9.981
19970W        W88300  22.089  40.424   0.291
19971W        W88301  37.864  36.493   4.721
19972W        W88302  31.116  43.943  12.941
19973W        W88303   8.393  13.802   2.875
19974W        W88304  37.962  35.488   3.850
19975W        W88305  35.597  13.165  11.539
19976W        W88306   5.690  22.084  11.032
19977W        W88307   7.748  11.216   0.380
19978W        W88308  22.614  27.196   1.293
19979W        W88309  11.649  35.985   9.920
19980W        W88310  17.728  14.607  12.823
19981W        W88311   9.685  13.205  11.507
19982W        W88312   6.300   6.680  10.907
19983W        W88313  35.563  16.238  12.056
19984W        W88314  12.710  19.041   1.325
19985W        W88315  43.908  33.518   0.842
19986W        W88316  29.134  14.257   2.675
19987W        W88317   3.766  21.034  14.862
19988W        W88318  27.102  15.120   1.291
19989W        W88319  13.620  29.433  12.361
19990W        W88320  33.546  42.452  10.577
19991W        W88321   8.789  33.955   1.709
19992W        W88322  19.609  33.128  12.464
19993W        W88323  18.696  34.540  13.993
19994W        W88324  35.108  17.117  11.499
19995W        W88325  28.624  10.840  10.549
19996W        W88326   8.899  18.597   3.773
19997W        W88327  40.873  20.135  13.483
19998W        W88328   2.236  31.604  12.905
19999W        W88329   3.777  13.264  11.070
20000W        W88330  17.282  19.618  11.460
20001W        W88331  24.608  22.520   0.781
20002W        W88332  14.194  31.119  13.513
20003W        W88333  21.174  17.167  12.343
20004W        W88334  16.277  38.977  13.460
20005W        W88335  13.775   8.209  11.517
20006W        W88336  15.244   2.721  10.599
20007W        W88337   8.325  17.584   4.314
20008W        W88338  44.954   3.222  12.355
20009W        W88339  17.703  26.582   1.840
20010W        W88340  25.484  39.052  10.529
20011W        W88341  21.612  38.345   2.401
20012W        W88342  25.597  12.177  14.360
20013W        W88343  19.660  39.949  14.934
20014W        W88344  11.369  30.488   0.462
20015W        W88345   5.860  16.602   2.389
20016W        W88346  41.801   9.668  14.404
20017W        W88347  31.441  16.675   3.267
20018W        W88348  22.040  13.798  14.392
20019W        W88349  43.022  17.187   3.361
20020W        W88350  31.901   8.899  12.344
20021W        W88351  28.076  24.123   1.848
20022W        W88352   6.707  43.949   0.473
20023W        W88353  29.494  15.720   4.739
20024W        W88354  34.443  33.876   0.757
20025W        W88355  26.547  18.768  14.029
20026W        W88356  24.983   2.768   2.258
20027W        W88357  13.636   0.325  10.575
20028W        W88358  25.480   3.328  12.519
20029W        W88359  25.610  28.138   1.887
20030W        W88360  35.986  43.899   4.200
20031W        W88361  15.804  20.224   0.405
20032W        W88362   7.785  40.029  13.493
20033W        W88363  20.135  24.590  10.415
20034W        W88364  19.576  28.477  12.495
20035W        W88365  30.032  33.564   0.865
20036W        W88366  42.969  32.892  10.495
20037W        W88367  22.251  40.549  11.914
20038W        W88368   6.185   1.970  10.635
20039W        W88369  21.232   9.257  14.404
20040W        W88370  22.215   0.939   3.196
20041W        W88371   4.422  43.465   0.728
20042W        W88372  44.404   6.240   4.305
20043W        W88373  20.103  31.127   4.617
20044W        W88374  41.310   2.822   3.380
20045W        W88375   9.255   6.843  12.439
20046W        W88376  36.970  39.514  14.502
20047W        W88377  34.996  31.922  11.383
20048W        W88378  40.906  31.129  14.432
20049W        W88379   4.388  18.576   4.266
20050W        W88380   2.439  42.965  10.892
20051W        W88381  22.630  39.427  12.894
20052W        W88382  24.139  14.788   1.891
20053W        W88383  19.208  30.425   0.414
20054W        W88384  33.976  34.996  14.294
20055W        W88385   7.228  25.682   3.252
20056W        W88386  26.156  34.526  11.576
20057W        W88387  13.301  40.383   0.255
20058W        W88388  17.571  40.860  10.556
20059W        W88389  12.853   6.832   1.303
20060W        W88390  18.252  34.563   0.412
20061W        W88391   9.675   2.273  10.460
20062W        W88392  10.366  36.397   2.667
20063W        W88393  41.366  43.281  14.430
20064W        W88394  22.165  21.557  13.806
20065W        W88395  19.674   2.268  10.467
20066W        W88396  25.989  20.230   4.133
20067W        W88397  24.080  43.365   4.753
20068W        W88398  34.013  35.409   4.343
20069W        W88399  13.262   7.298  13.810
20070W        W88400  12.319  15.604   2.691
20071W        W88401  43.978   0.806   4.623
20072W        W88402  27.602  25.151   3.750
20073W        W88403  23.132   9.861   2.193
20074W        W88404  39.842   0.409  10.981
20075W        W88405  16.806   5.197   1.267
20076W        W88406  20.674  22.152  14.301
20077W        W88407  40.992   0.477  10.546
20078W        W88408  17.593   3.309   0.858
20079W        W88409   3.890  44.844   2.240
20080W        W88410  10.656   3.411  12.550
20081W        W88411  30.132  13.250   4.822
20082W        W88412  37.386  32.637  14.404
20083W        W88413  21.622  12.357  14.361
20084W        W88414  41.818  31.489  11.108
20085W        W88415   8.266  38.515  14.322
20086W        W88416  25.468   9.665  12.044
20087W        W88417  42.872  19.727   5.230
20088W        W88418   7.352   5.927  13.525
20089W        W88419  43.943  16.652  14.443
20090W        W88420   6.736  39.356   0.930
20091W        W88421  27.960  16.283   4.219
20092W        W88422   0.352  17.253   3.305
20093W        W88423   1.817   3.892   3.636
20094W        W88424   4.204  16.269  13.007
20095W        W88425   6.851  25.714   1.825
20096W        W88426  20.703   4.783  12.893
20097W        W88427  13.627  15.588   0.879
20098W        W88428  30.068  28.988  12.083
20099W        W88429   6.389   7.681   4.696
20100W        W88430   7.837  11.670  12.468
20101W        W88431  29.090  28.062  14.942
20102W        W88432  36.895   7.206   3.376
20103W        W88433   5.361  14.168  11.424
20104W        W88434  40.893  43.878  12.387
20105W        W88435   5.355  13.767   3.719
20106W        W88436  39.390  13.215  14.302
20107W        W88437   0.303  42.910  13.019
20108W        W88438  32.412  16.715  12.360
20109W        W88439   4.433  10.214   2.318
20110W        W88440  14.191  41.041  11.924
20111W        W88441  39.401  41.326   2.683
20112W        W88442  24.549  19.779  11.010
20113W        W88443  21.096  11.353   0.443
20114W        W88444   7.736  34.372   3.643
20115W        W88445  16.099  43.975  11.489
20116W        W88446  14.135   5.367  12.955
20117W        W88447  43.458   4.320   2.294
20118W        W88448  27.094   4.795  12.026
20119W        W88449   0.346   6.415  13.994
20120W        W88450  16.276  32.050  10.480
20121W        W88451  44.484  40.469   3.823
20122W        W88452  38.001  41.951  12.995
20123W        W88453  24.093   5.419   3.670
20124W        W88454  44.974   4.282  14.870
20125W        W88455  17.584   5.259   3.732
20126W        W88456  18.205  12.639   0.758
20127W        W88457  35.071   3.339  14.889
20128W        W88458   3.321  12.846   1.905
20129W        W88459  30.150   6.196  13.409
20130W        W88460   5.314  40.819   3.830
20131W        W88461  40.836  24.561   3.294
20132W        W88462  21.259   8.272   0.370
20133W        W88463  22.060  27.072   0.438
20134W        W88464  13.760  27.092  13.542
20135W        W88465  44.374  20.101   1.228
20136W        W88466   8.747  33.964   2.742
20137W        W88467  26.656  21.247  11.437
20138W        W88468  43.455  24.628  12.908
20139W        W88469  10.165  15.177   0.437
20140W        W88470  20.757  40.334  10.935
20141W        W88471  15.176   8.310   3.803
20142W        W88472  18.165  19.614  14.839
20143W        W88473  13.804  39.349   0.274
20144W        W88474  12.692  30.134   2.864
20145W        W88475  12.727  35.100   2.308
20146W        W88476  23.137  41.385  14.918
20147W        W88477   8.280  22.145  11.055
20148W        W88478  44.753  19.754  10.633
20149W        W88479  36.573  38.903  12.876
20150W        W88480   7.237   1.465  13.444
20151W        W88481  33.460  27.015  10.544
20152W        W88482  31.980   2.236   2.721
20153W        W88483  37.545  39.428  14.402
20154W        W88484  21.548  18.147   4.256
20155W        W88485  21.199  23.613  11.982
20156W        W88486  39.512  14.640  10.629
20157W        W88487  17.687  42.312  10.590
20158W        W88488  33.617  38.961   0.779
20159W        W88489  11.132  13.681  13.923
20160W        W88490  33.497  13.268  12.839
20161W        W88491  40.363  20.640  12.836
20162W        W88492  34.950  26.637  10.077
20163W        W88493  37.508   0.979  13.826
20164W        W88494  14.822  42.489  11.971
20165W        W88495  44.854  37.580   2.857
20166W        W88496  21.591  36.916   4.330
20167W        W88497  31.409  37.953   4.327
20168W        W88498  41.428  32.120  10.042
20169W        W88499   9.370  27.672   0.866
20170W        W88500  22.644  10.249   4.229
20171W        W88501  19.657  34.926   1.784
20172W        W88502  28.525  28.076  14.432
20173W        W88503  34.974  44.979   1.289
20174W        W88504  38.565  21.695   4.275
20175W        W88505   1.474  19.273  14.514
20176W        W88506  30.133  32.930   2.737
20177W        W88507  33.124  42.385  14.795
20178W        W88508  35.529  14.660   2.218
20179W        W88509  35.861  28.082  12.537
20180W        W88510  16.318  24.697   3.266
20181W        W88511  19.695   9.657   1.292
20182W        W88512  44.375  34.372   3.771
20183W        W88513  30.422  41.035   4.342
20184W        W88514   7.781  30.524  13.467
20185W        W88515  42.012  43.008   3.840
20186W        W88516  39.488  34.089  13.812
20187W        W88517  32.967  35.413  11.396
20188W        W88518  26.511  16.758  12.527
20189W        W88519  43.772  29.023   3.836
20190W        W88520   8.289  10.737   2.727
20191W        W88521  15.100   5.786  12.557
20192W        W88522  12.130  35.387  14.808
20193W        W88523   2.833  13.333   4.260
20194W        W88524  16.165   5.749  10.889
20195W        W88525  35.884  29.446   1.412
20196W        W88526   2.784  36.860  10.942
20197W        W88527  15.284  38.077  14.914
20198W        W88528   4.822  31.475  13.467
20199W        W88529  32.924  34.039  12.889
20200W        W88530   0.439   7.911  14.383
20201W        W88531  19.663  23.026   5.264
20202W        W88532  44.345  40.326   5.257
20203W        W88533  43.940  15.737   0.809
20204W        W88534  14.723   4.229  13.949
20205W        W88535  18.625  39.017   2.861
20206W        W88536  28.931  14.266  13.858
20207W        W88537  14.827   4.710  11.869
20208W        W88538  35.400  24.003  11.998
20209W        W88539   1.438  29.600   3.229
20210W        W88540   4.260  20.092  12.390
20211W        W88541  35.912  37.069  10.533
20212W        W88542  33.085  29.498  14.392
20213W        W88543  25.711  13.242  11.938
20214W        W88544  29.925   3.851  12.428
20215W        W88545  12.212  14.645   2.875
20216W        W88546  41.870   8.732  11.584
20217W        W88547  16.215  41.499  13.354
20218W        W88548  30.628   8.283  14.339
20219W        W88549  21.028  29.945  11.856
20220W        W88550  13.301  38.523   1.769
20221W        W88551   2.942  27.942  13.906
20222W        W88552  32.391  14.244   1.722
20223W        W88553  26.584  26.171  10.550
20224W        W88554  21.571   1.459   0.348
20225W        W88555  19.723   3.843  13.005
20226W        W88556  20.124   6.709   2.394
20227W        W88557  12.325   9.648   2.395
20228W        W88558  18.150  31.049   3.788
20229W        W88559  11.291  35.590  14.316
20230W        W88560  38.505  33.580   3.147
20231W        W88561   7.793  14.246   2.388
20232W        W88562  24.659  15.618  13.817
20233W        W88563  29.625   3.292   3.188
20234W        W88564  34.459   0.468  11.461
20235W        W88565  15.730  18.647   3.375
20236W        W88566  36.348  24.710   2.308
20237W        W88567  42.349  11.139  11.533
20238W        W88568  29.503  36.975  12.557
20239W        W88569  43.350  25.646  14.479
20240W        W88570  14.192  26.466   5.320
20241W        W88571   0.938  22.727   1.766
20242W        W88572  21.212  12.146  14.944
20243W        W88573  36.055   4.744  11.439
20244W        W88574  18.255  11.647   3.348
20245W        W88575  26.694  12.293   1.895
20246W        W88576  28.113   4.769  12.571
20247W        W88577   3.446  31.908   0.333
20248W        W88578   9.828  13.201  11.878
20249W        W88579  43.412  15.264  13.528
20250W        W88580  23.060  19.065   4.713
20251W        W88581  34.077  41.505   2.270
20252W        W88582   6.787  19.128  12.969
20253W        W88583   5.929   3.447   0.452
20254W        W88584  27.576   4.776  11.402
20255W        W88585  36.409  19.610  10.493
20256W        W88586  17.154   8.278  10.964
20257W        W88587  37.869  22.742  13.825
20258W        W88588   0.872  31.084   1.839
20259W        W88589   7.179  25.624  13.850
20260W        W88590  38.555  23.241   4.125
20261W        W88591   0.760  34.499   3.861
20262W        W88592  16.149  24.981  13.456
20263W        W88593  37.534  44.392  11.116
20264W        W88594  32.988  17.187   2.402
20265W        W88595  32.579  34.022   4.822
20266W        W88596  44.816   3.833  14.803
20267W        W88597  39.497  38.362   2.247
20268W        W88598  17.776   9.680  12.509
20269W        W88599  35.365  41.299   2.751
20270W        W88600  11.320  14.101  10.975
20271W        W88601  28.458   1.897   2.893
20272W        W88602  34.480   0.840  12.833
20273W        W88603  31.635  11.282   3.788
20274W        W88604  12.284  17.612   4.809
20275W        W88605   1.238  20.522   2.804
20276W        W88606  14.612  32.120   2.883
20277W        W88607  32.481  42.862  11.893
20278W        W88608  14.242  15.118   3.674
20279W        W88609  36.058   1.952   3.383
20280W        W88610  18.242  15.150   2.215
20281W        W88611  12.621  19.267  11.955
20282W        W88612  21.682   7.241  13.472
20283W        W88613  18.679  19.722   1.303
20284W        W88614  37.927  21.623  12.050
20285W        W88615  41.313  22.708  11.472
20286W        W88616  30.934  36.097   0.830
20287W        W88617  38.391  11.286  13.405
20288W        W88618  24.558  23.523  10.510
20289W        W88619  12.131  30.650   4.122
20290W        W88620  22.132  42.985   3.741
20291W        W88621  20.635  11.791   4.182
20292W        W88622  23.570  36.533  14.960
20293W        W88623   7.678  11.156   3.334
20294W        W88624  11.253  44.482  14.412
20295W        W88625   6.288  31.412   1.846
20296W        W88626  34.999  27.483   2.711
20297W        W88627   0.260   9.258   0.257
20298W        W88628   7.314  20.536  13.522
20299W        W88629  16.217  35.055  12.469
20300W        W88630   8.782  35.918   0.949
20301W        W88631  15.090  32.466   3.786
20302W        W88632  21.720  36.961   1.732
20303W        W88633  36.028   6.919  12.925
20304W        W88634  23.599  21.680   4.156
20305W        W88635   4.855  43.016   1.297
20306W        W88636   2.960   5.305   2.416
20307W        W88637  40.011  30.155  11.582
20308W        W88638  40.946  23.985   0.404
20309W        W88639  27.024  21.575   2.795
20310W        W88640  16.293   4.306  13.920
20311W        W88641  35.593  29.010   1.235
20312W        W88642  28.531  40.918   3.707
20313W        W88643   9.671  42.294  10.960
20314W        W88644   3.243  26.508   4.786
20315W        W88645  44.495  20.079   4.648
20316W        W88646  22.056  43.319  13.968
20317W        W88647  29.113   2.280   1.210
20318W        W88648  11.746  31.929   1.718
20319W        W88649  15.616  16.280  14.423
20320W        W88650  41.884   0.828  11.127
20321W        W88651  33.050  31.897   0.358
20322W        W88652  14.203  22.586   5.302
20323W        W88653  27.965  41.404  11.908
20324W        W88654  39.036  32.950   0.813
20325W        W88655  11.281   8.831   0.772
20326W        W88656  25.624  14.204  14.857
20327W        W88657  24.198  18.556   2.244
20328W        W88658  18.065  22.679   9.618
20329W        W88659  14.646  11.240   1.802
20330W        W88660  36.917  41.019   1.826
20331W        W88661  42.347   1.815   1.778
20332W        W88662  10.816  32.108  13.431
20333W        W88663  14.235  39.344   4.141
20334W        W88664  36.374  18.555   3.256
20335W        W88665  32.611  33.980  12.393
20336W        W88666   1.896  24.226   0.291
20337W        W88667  20.186  35.932   1.924
20338W        W88668  20.623  16.604   2.844
20339W        W88669   6.335  41.030   1.808
20340W        W88670  14.252  26.653   0.940
20341W        W88671   7.272  13.637   0.428
20342W        W88672   2.935  26.004  14.413
20343W        W88673   2.855  32.401   3.663
20344W        W88674  18.602   6.232  11.076
20345W        W88675   9.278  41.020   4.274
20346W        W88676  34.982   9.202  12.015
20347W        W88677   2.406   6.183  12.908
20348W        W88678  27.531  19.197  13.373
20349W        W88679  22.636  19.186  14.514
20350W        W88680  36.410   0.311   3.654
20351W        W88681   7.671  38.568   3.725
20352W        W88682   6.299   2.926   2.416
20353W        W88683  14.710  18.074  14.865
20354W        W88684   5.397  35.416   0.414
20355W        W88685  44.941  41.369  14.444
20356W        W88686  19.235  10.750   0.466
20357W        W88687   4.923  29.100   4.606
20358W        W88688  14.729  35.959   4.626
20359W        W88689  13.709  39.815   4.290
20360W        W88690  20.215   8.267   2.307
20361W        W88691  25.115   2.744   4.119
20362W        W88692   4.382   3.786   0.857
20363W        W88693  32.065  18.712  10.422
20364W        W88694  17.725  29.532  14.286
20365W        W88695   3.904   6.288  11.005
20366W        W88696  31.535  43.494  12.458
20367W        W88697  25.975  38.413  11.488
20368W        W88698  43.358  21.055  12.882
20369W        W88699   9.275  10.323   0.727
20370W        W88700  10.210  22.554  10.895
20371W        W88701   6.890  39.815   1.254
20372W        W88702  26.165  19.728  14.379
20373W        W88703  42.969  34.004  12.972
20374W        W88704  23.238   7.849   5.130
20375W        W88705  42.015  28.085  13.929
20376W        W88706  11.660   8.662  13.444
20377W        W88707   7.781  20.274  11.886
20378W        W88708  34.492   2.805  12.852
20379W        W88709  29.505  11.781   0.376
20380W        W88710   2.855  25.607   3.817
20381W        W88711  15.590  12.775  11.957
20382W        W88712   7.699  15.609   2.207
20383W        W88713  31.987  36.920  11.414
20384W        W88714   7.911  20.116   2.295
20385W        W88715  39.951  29.482  11.887
20386W        W88716  12.651   2.891   0.874
20387W        W88717  17.249  28.647  12.982
20388W        W88718   6.273  40.015  12.476
20389W        W88719  23.209  18.143   1.427
20390W        W88720  37.962  35.461  11.473
20391W        W88721  24.211  19.772  14.378
20392W        W88722  15.719  40.377   1.754
20393W        W88723   5.326  20.204  12.951
20394W        W88724  37.559   1.909  12.925
20395W        W88725  19.152  10.755  10.582
20396W        W88726  33.531   3.278   4.334
20397W        W88727  34.997  32.995  13.525
20398W        W88728  44.289  21.529   1.286
20399W        W88729  34.440   3.915   2.397
20400W        W88730  42.861  21.203  11.946
20401W        W88731  20.169  44.763  11.081
20402W        W88732  20.129  34.118  10.561
20403W        W88733  28.520  44.993   0.755
20404W        W88734   8.680  17.625   2.388
20405W        W88735   4.348  22.742   0.809
20406W        W88736  39.423  20.611   2.670
20407W        W88737  32.893  22.135  13.006
20408W        W88738  29.628  15.084   1.362
20409W        W88739  15.742   3.280   0.926
20410W        W88740  41.392  20.050   2.273
20411W        W88741   1.434   0.859   2.763
20412W        W88742  29.028  44.869  10.906
20413W        W88743   6.366  14.755  10.423
20414W        W88744  44.347  32.397   1.935
20415W        W88745  41.534   5.866   1.708
20416W        W88746   9.305  33.454   1.882
20417W        W88747  15.627  41.884  14.374
20418W        W88748  13.790  43.314  10.967
20419W        W88749  19.624  42.972   0.320
20420W        W88750  24.977  27.506   1.712
20421W        W88751  43.345  38.043   0.436
20422W        W88752   9.169  34.955  10.049
20423W        W88753   0.452  42.472   1.712
20424W        W88754  35.999   8.724   3.815
20425W        W88755  39.862  35.046   4.319
20426W        W88756  41.456  38.351  14.333
20427W        W88757   8.879   9.645   4.221
20428W        W88758  27.150  12.803   2.827
20429W        W88759   2.382  15.607  12.368
20430W        W88760  24.671  31.146  12.869
20431W        W88761  26.609  17.627  10.590
20432W        W88762  30.528  12.640   4.162
20433W        W88763  11.130  19.658   1.832
20434W        W88764  33.620  12.304  12.914
20435W        W88765  43.500  13.622   2.397
20436W        W88766  12.694  13.229  11.507
20437W        W88767   0.390   3.281  11.930
20438W        W88768  17.725  24.479   3.713
20439W        W88769   7.738   2.248  13.413
20440W        W88770  27.978  31.476   4.656
20441W        W88771  42.873  30.968   0.251
20442W        W88772  10.726  36.020   4.749
20443W        W88773  22.174  12.622   2.331
20444W        W88774  36.536   0.755   4.693
20445W        W88775  17.138  37.014  10.534
20446W        W88776  28.593  23.568   2.781
20447W        W88777  12.742  26.665   4.336
20448W        W88778  19.599   2.745  13.830
20449W        W88779  15.319  43.274   4.144
20450W        W88780  16.776  10.756  13.457
20451W        W88781  37.393  24.511  10.499
20452W        W88782  44.905   9.283   2.699
20453W        W88783  20.689  26.143   2.212
20454W        W88784  28.065  36.365   0.910
20455W        W88785  44.485  42.931   5.269
20456W        W88786  33.099  38.422   4.321
20457W        W88787  44.358   8.341  14.918
20458W        W88788  44.475   5.212  11.871
20459W        W88789  43.963  41.296  13.438
20460W        W88790  34.053  23.147  13.882
20461W        W88791  23.987  41.491   1.858
20462W        W88792  14.606  31.084   3.656
20463W        W88793  17.695   3.435  13.809
20464W        W88794  29.043  41.887  10.488
20465W        W88795  18.729  20.055  13.894
20466W        W88796  19.136  20.256   0.440
20467W        W88797  33.487   0.257   2.887
20468W        W88798  31.151  11.639  12.563
20469W        W88799  11.720  27.476   4.795
20470W        W88800  10.290   3.747  10.631
20471W        W88801  41.457   6.425  10.899
20472W        W88802   9.216  44.831   3.299
20473W        W88803  35.082  16.574   2.277
20474W        W88804   4.313   5.932  12.360
20475W        W88805  14.226  25.128  12.442
20476W        W88806   4.868  33.456  12.486
20477W        W88807  42.800   6.415  13.043
20478W        W88808  34.894  23.191   4.635
20479W        W88809  37.860  21.602   1.440
20480W        W88810  42.952  24.175  12.910
20481W        W88811  17.701  12.323  11.034
20482W        W88812  44.294  26.496   3.730
20483W        W88813  35.022  35.470  13.873
20484W        W88814  12.753  36.955  14.800
20485W        W88815  35.596  36.056  12.926
20486W        W88816  41.979  14.133  12.010
20487W        W88817   4.831   1.278  11.990
20488W        W88818  42.456   0.783  14.316
20489W        W88819  41.975  11.277   4.617
20490W        W88820  40.338   1.338  13.835
20491W        W88821  24.984  38.534   2.352
20492W        W88822  15.817  10.158  10.417
20493W        W88823  43.947   4.716   0.843
20494W        W88824   8.215  22.147   0.462
20495W        W88825   2.735   6.310   4.228
20496W        W88826   0.757  16.160  14.285
20497W        W88827  38.345  22.531   0.948
20498W        W88828   1.805  27.543  11.066
20499W        W88829  40.953  35.958   4.741
20500W        W88830  44.785  10.805   4.282
20501W        W88831  22.571  41.022  13.409
20502W        W88832  10.714   5.296  13.486
20503W        W88833  20.167  41.367  13.358
20504W        W88834  36.891  21.520  11.401
20505W        W88835  12.780  18.746  10.415
20506W        W88836  22.711   7.186   2.230
20507W        W88837  12.843  12.760   2.412
20508W        W88838  27.670   4.226  11.613
20509W        W88839  16.709  17.200  14.461
20510W        W88840  26.983   2.366  13.812
20511W        W88841  18.159  11.143   0.309
20512W        W88842  32.513  40.895  12.832
20513W        W88843  39.535  26.054  10.449
20514W        W88844  14.256   2.875   1.285
20515W        W88845  13.639   6.769   1.865
20516W        W88846  18.640   4.346   3.374
20517W        W88847  34.412  10.795   1.426
20518W        W88848  16.208  23.672   3.352
20519W        W88849  21.026  43.276  14.798
20520W        W88850  10.181   9.858  13.381
20521W        W88851  20.097  10.873  10.469
20522W        W88852  25.519  33.454  12.842
20523W        W88853  25.150  23.546   9.985
20524W        W88854  14.636   6.420   0.779
20525W        W88855  44.905  40.908   0.836
20526W        W88856   3.258   7.382   3.641
20527W        W88857  41.439  33.467   4.313
20528W        W88858  42.003  33.010  13.332
20529W        W88859  37.987  16.636  13.514
20530W        W88860  42.456   6.699  12.545
20531W        W88861  10.252  40.843  14.875
20532W        W88862  32.575  15.745   0.861
20533W        W88863  12.229   5.207   1.347
20534W        W88864   2.244  21.173   1.709
20535W        W88865  43.793  41.438  14.322
20536W        W88866  37.854  13.674  12.488
20537W        W88867   3.713   3.883   4.140
20538W        W88868   0.783  33.492  11.402
20539W        W88869  26.196   1.783  12.872
20540W        W88870  33.957  28.947  11.031
20541W        W88871   4.726  33.614   3.800
20542W        W88872  37.429  43.432  10.923
20543W        W88873   9.382   6.851   2.681
20544W        W88874  22.669  12.242  14.492
20545W        W88875  30.080  18.242   1.391
20546W        W88876  28.531  39.510  13.461
20547W        W88877  18.281  35.581  11.084
20548W        W88878  21.648   4.869   0.468
20549W        W88879  29.152  40.927  10.940
20550W        W88880  41.037  27.604   4.684
20551W        W88881  15.088  16.131   0.748
20552W        W88882  23.079  32.518  12.882
20553W        W88883  23.192  12.850   3.833
20554W        W88884  41.429  28.005   1.426
20555W        W88885  21.170  15.251   3.822
20556W        W88886  35.965   8.379  11.962
20557W        W88887  21.528  38.352   1.265
20558W        W88888   4.707   2.249  13.310
20559W        W88889   9.766  14.096   0.464
20560W        W88890  27.096  17.633  11.606
20561W        W88891  17.121  32.626   4.328
20562W        W88892  12.814  26.157   3.265
20563W        W88893  43.442  22.509   4.321
20564W        W88894  12.703  41.321  12.060
20565W        W88895  19.237  27.643   0.309
20566W        W88896  25.555   8.195  14.991
20567W        W88897   0.413  28.152  12.543
20568W        W88898  17.155  18.643   1.835
20569W        W88899  33.016  38.978   3.822
20570W        W88900  22.130  17.258   9.522
20571W        W88901  32.534   9.391  10.455
20572W        W88902  31.120   5.779   2.860
20573W        W88903  35.517  37.905  11.590
20574W        W88904   7.195  43.345  13.464
20575W        W88905  42.905  20.236   4.833
20576W        W88906  40.531  36.559  11.565
20577W        W88907  32.109  10.363  14.829
20578W        W88908  16.631   0.857   1.910
20579W        W88909   0.270   3.381   0.420
20580W        W88910  43.801   3.243  11.125
20581W        W88911  42.300  19.536   2.295
20582W        W88912  11.163  16.627  14.297
20583W        W88913   4.364  17.155  10.905
20584W        W88914   1.297  38.432  10.950
20585W        W88915  31.410   2.229   1.739
20586W        W88916  43.301  28.003   9.972
20587W        W88917  12.682  40.010   2.782
20588W        W88918  18.626  26.699  11.953
20589W        W88919  44.010  32.895  12.062
20590W        W88920  21.718  38.012   3.653
20591W        W88921  14.338   6.184  10.959
20592W        W88922  37.997  28.595  14.401
20593W        W88923   5.808  44.951  11.030
20594W        W88924  44.309  30.003   0.893
20595W        W88925  43.305  20.120   0.825
20596W        W88926  30.017  27.603   0.416
20597W        W88927   3.299  33.999   2.678
20598W        W88928  26.114  29.133   1.877
20599W        W88929   6.838  41.343   4.733
20600W        W88930  18.639  35.466  13.932
20601W        W88931   5.887  34.368  10.425
20602W        W88932  42.029  14.826  14.331
20603W        W88933   9.733  27.676  14.009
20604W        W88934  14.720  24.069   0.318
20605W        W88935   5.828  14.228  14.891
20606W        W88936   1.380  23.204  12.561
20607W        W88937  28.512  23.023   0.793
20608W        W88938   9.202  27.487  11.123
20609W        W88939  19.181  28.468   4.197
20610W        W88940   0.830  35.021  12.517
20611W        W88941  40.946  23.082   2.860
20612W        W88942  23.072  13.113  10.973
20613W        W88943  19.679  10.147   1.700
20614W        W88944  25.117  22.579  14.363
20615W        W88945   8.218  27.482  13.862
20616W        W88946   8.252  16.588  14.453
20617W        W88947  43.506  24.698  14.452
20618W        W88948  39.373  36.086   1.437
20619W        W88949   2.378  11.781  13.516
20620W        W88950  12.680  44.470  12.394
20621W        W88951  22.013  27.993  13.417
20622W        W88952   6.910  22.054  12.540
20623W        W88953  14.150  32.961  10.953
20624W        W88954  33.382  12.730  12.911
20625W        W88955   4.740   3.436   3.826
20626W        W88956  26.185  19.166  13.494
20627W        W88957  41.002  16.727   1.408
20628W        W88958  29.426  25.603  10.466
20629W        W88959  34.479  33.518   2.803
20630W        W88960  17.559  26.645   4.283
20631W        W88961  31.581  34.112  12.415
20632W        W88962  25.013   0.265   2.390
20633W        W88963  34.998  19.617   2.239
20634W        W88964   3.937   2.257  14.875
20635W        W88965   2.310  33.574  12.367
20636W        W88966   9.265  12.664   0.828
20637W        W88967  16.744  37.572  13.921
20638W        W88968  15.661  31.430  13.416
20639W        W88969  15.719  13.822  13.477
20640W        W88970  33.044   0.267   0.276
20641W        W88971  32.931  40.835   4.302
20642W        W88972   6.370   6.762   2.862
20643W        W88973  32.951  24.048   4.734
20644W        W88974  10.328  30.530  12.086
20645W        W88975  30.045   4.943  11.959
20646W        W88976   1.971   8.193   0.295
20647W        W88977  44.297  22.091   2.875
20648W        W88978  36.355  12.815  12.864
20649W        W88979   6.259  32.919  11.073
20650W        W88980  30.145  15.590   4.168
20651W        W88981  18.583  20.596   2.415
20652W        W88982  20.683  21.651   0.464
20653W        W88983  28.052   7.767  12.028
20654W        W88984   8.739  32.406  10.918
20655W        W88985  21.560  37.497   1.898
20656W        W88986  16.683   4.322  11.559
20657W        W88987  35.039  16.683   3.689
20658W        W88988  24.677   9.183  10.522
20659W        W88989  41.986  26.957   3.675
20660W        W88990  12.319  33.521   2.894
20661W        W88991  42.971   8.270   0.482
20662W        W88992  29.154  35.872  11.037
20663W        W88993  14.814   3.222   0.757
20664W        W88994  30.594   6.361   0.402
20665W        W88995  38.521  34.050  10.504
20666W        W88996  32.391  23.071  14.841
20667W        W88997   1.256  29.143   1.782
20668W        W88998  43.006   7.777  13.951
20669W        W88999   0.813  25.517  11.548
20670W        W89000  11.247  23.143  12.487
20671W        W89001  22.071  13.165   4.696
20672W        W89002   7.209   3.287   3.766
20673W        W89003  20.756   7.228  12.570
20674W        W89004   2.774  32.620  10.463
20675W        W89005  43.414   3.289   1.242
20676W        W89006  28.071   9.735  12.469
20677W        W89007  14.636  28.469  11.974
20678W        W89008  41.314  16.759   3.857
20679W        W89009  16.168  26.026  14.865
20680W        W89010  25.171  21.695   2.777
20681W        W89011  27.960  11.698  13.023
20682W        W89012  34.594   4.746  14.873
20683W        W89013  34.398  24.978   4.320
20684W        W89014  33.974  12.156  13.970
20685W        W89015  44.796  23.508  10.466
20686W        W89016   7.219  23.118   1.411
20687W        W89017  37.932  22.209   3.250
20688W        W89018  42.323   1.895   0.898
20689W        W89019  44.873  43.510   1.430
20690W        W89020  44.971  28.492   2.830
20691W        W89021  40.370   6.821   2.723
20692W        W89022  26.155  42.413   3.340
20693W        W89023  15.267  43.780  14.306
20694W        W89024  33.094  11.363   1.848
20695W        W89025  11.266  24.560   4.186
20696W        W89026   4.349  30.088   1.710
20697W        W89027  36.399  32.973  14.465
20698W        W89028   5.201  20.682  13.947
20699W        W89029  15.287   1.831  10.892
20700W        W89030  10.309  18.270  13.325
20701W        W89031  42.030  36.024   3.369
20702W        W89032  11.841  43.422   1.857
20703W        W89033  43.914  15.280  12.541
20704W        W89034   7.281  10.186  11.916
20705W        W89035  28.461  33.110  13.823
20706W        W89036  38.393  28.543  11.539
20707W        W89037  27.580  20.144   3.870
20708W        W89038  26.124  12.186  11.975
20709W        W89039   4.799   9.713  14.817
20710W        W89040  28.681  16.672  10.957
20711W        W89041  37.525   4.830   0.435
20712W        W89042  18.591  11.682  13.847
20713W        W89043  23.078  10.778   3.862
20714W        W89044  10.711  24.693  13.866
20715W        W89045  23.202   1.784   0.757
20716W        W89046  19.615  34.902  12.353
20717W        W89047  21.512  36.077  14.452
20718W        W89048  37.998   5.879  11.892
20719W        W89049  32.494  40.905   1.722
20720W        W89050  27.980   0.814   2.776
20721W        W89051  35.410   1.267   1.297
20722W        W89052  18.142   0.332  14.925
20723W        W89053   2.438  15.775   1.769
20724W        W89054   5.729  44.505   0.785
20725W        W89055  39.505  22.035  14.954
20726W        W89056  37.494  33.924  13.490
20727W        W89057  10.176  30.948  12.411
20728W        W89058  16.795  24.519   1.703
20729W        W89059   3.243  37.970  13.893
20730W        W89060  38.870  19.088   4.681
20731W        W89061   5.298  28.929   0.409
20732W        W89062  31.424  14.672  13.437
20733W        W89063   3.787   9.354  14.304
20734W        W89064  21.206  10.782  13.480
20735W        W89065  35.986  21.539  14.960
20736W        W89066  15.152  15.670  12.484
20737W        W89067  24.212  35.036   1.310
20738W        W89068  21.064  40.349   2.897
20739W        W89069  19.612  13.646   3.717
20740W        W89070  30.963  25.711   2.705
20741W        W89071  38.435   8.702  12.541
20742W        W89072  15.613   0.449  10.550
20743W        W89073  39.844  13.779   1.929
20744W        W89074  10.637  40.455   1.891
20745W        W89075  32.553   7.678  13.976
20746W        W89076  30.031  18.082   2.697
20747W        W89077   8.303   0.832  11.410
20748W        W89078  29.501  39.043  14.349
20749W        W89079   8.739  24.983   0.437
20750W        W89080  16.794   4.866   4.779
20751W        W89081  22.224  27.987   3.362
20752W        W89082  22.677  30.518   4.701
20753W        W89083   9.654  27.494   2.209
20754W        W89084  14.199   6.888   4.821
20755W        W89085  23.104   5.346   4.735
20756W        W89086  10.862  17.768  13.902
20757W        W89087  25.542  10.277  12.081
20758W        W89088  25.479  24.194   9.991
20759W        W89089   6.251  27.962   3.670
20760W        W89090  14.721  24.491  12.540
20761W        W89091   2.239  14.664  12.985
20762W        W89092  31.522  15.285   2.685
20763W        W89093   7.758  20.234  11.387
20764W        W89094  39.039  39.424  10.458
20765W        W89095  32.392   9.279  13.312
20766W        W89096  26.094   8.812   3.812
20767W        W89097   1.878  39.060  11.603
20768W        W89098  18.292  32.089  13.049
20769W        W89099  10.782   3.284  12.998
20770W        W89100   7.332  15.664   2.705
20771W        W89101  29.469  26.471   1.441
20772W        W89102  44.843  44.785  13.928
20773W        W89103  23.025  20.074   3.652
20774W        W89104  41.994  43.866  14.029
20775W        W89105  13.812  23.170  14.979
20776W        W89106  37.973   0.266  11.479
20777W        W89107  23.149  34.874   4.828
20778W        W89108   8.811  32.589  10.424
20779W        W89109  36.496   9.845   3.195
20780W        W89110  29.067  13.740  14.506
20781W        W89111  19.266  25.990   5.213
20782W        W89112  33.106  26.550   4.832
20783W        W89113  41.006  40.483  12.394
20784W        W89114  41.934  13.105   3.763
20785W        W89115  29.438  24.976   3.181
20786W        W89116  10.330  28.125  14.990
20787W        W89117   0.378  44.337  14.911
20788W        W89118  24.504  20.601   2.337
20789W        W89119  35.955  23.693   4.289
20790W        W89120  27.592  43.329   2.768
20791W        W89121  32.043   1.476  14.029
20792W        W89122  21.523   8.172   2.818
20793W        W89123  17.294  15.143   2.856
20794W        W89124  29.963  39.812  14.408
20795W        W89125  41.424  34.946  13.046
20796W        W89126  34.938   0.817   1.347
20797W        W89127  11.173  28.983  14.507
20798W        W89128  31.600  44.286   2.807
20799W        W89129  22.187  31.550   3.752
20800W        W89130   2.400  22.579  14.438
20801W        W89131  34.490   7.731   0.734
20802W        W89132  38.950   8.279  13.402
20803W        W89133   5.934  35.416   3.345
20804W        W89134  22.674   3.443   4.721
20805W        W89135  36.415  14.327  12.877
20806W        W89136  20.150   9.742  14.820
20807W        W89137  16.296  13.241  14.391
20808W        W89138   6.762  31.963   2.368
20809W        W89139   0.884  27.540   0.792
20810W        W89140  20.044  23.221   4.604
20811W        W89141  14.224  15.082  11.451
20812W        W89142  14.695  28.154   4.783
20813W        W89143  18.732  42.487   4.707
20814W        W89144  41.488  35.394   2.722
20815W        W89145  28.613  10.791   3.745
20816W        W89146   6.370  25.117   0.402
20817W        W89147   1.295  40.962   4.730
20818W        W89148  42.505  34.061  12.523
20819W        W89149   7.244  37.403  12.011
20820W        W89150   9.761  11.175  13.802
20821W        W89151  19.196  28.444   3.656
20822W        W89152   5.246   1.968  12.449
20823W        W89153   4.717  31.040  10.519
20824W        W89154   6.801  32.042   3.218
20825W        W89155  41.351  18.747  14.473
20826W        W89156  24.572  23.702  13.814
20827W        W89157  16.727  27.142  10.988
20828W        W89158  32.543  16.579   1.213
20829W        W89159  11.154   0.965   3.849
20830W        W89160  15.679  19.133   2.785
20831W        W89161  34.486  33.917   1.895
20832W        W89162  23.527  36.464  12.430
20833W        W89163  17.652  14.747  14.842
20834W        W89164  14.670   0.426   1.852
20835W        W89165  29.096  33.875  12.923
20836W        W89166  34.378  23.136  14.411
20837W        W89167  32.578  29.473   0.959
20838W        W89168  17.286  35.929  10.055
20839W        W89169  36.464  14.600   1.726
20840W        W89170  22.675   2.324  13.491
20841W        W89171   8.824   4.725   3.836
20842W        W89172  34.446  35.970  12.512
20843W        W89173  19.620  12.765  10.894
20844W        W89174  11.785  24.175   0.734
20845W        W89175  13.325   8.228   2.305
20846W        W89176  12.225   3.920   4.678
20847W        W89177  13.797  37.363  10.060
20848W        W89178  20.245  42.902  10.912
20849W        W89179  44.382  14.638   2.814
20850W        W89180  23.731  42.995  13.357
20851W        W89181  15.139  16.731   4.766
20852W        W89182  41.948  26.065  14.810
20853W        W89183  12.121  30.040   1.274
20854W        W89184  23.571   1.320  13.513
20855W        W89185  28.033  36.934   2.745
20856W        W89186   4.732  23.594   3.860
20857W        W89187  40.834  14.241  14.464
20858W        W89188   6.239  34.979  11.454
20859W        W89189  31.495   2.426  11.875
20860W        W89190  14.690  32.012  13.467
20861W        W89191   2.810   6.718   2.728
20862W        W89192  28.520   8.720  13.849
20863W        W89193  24.534  22.211  14.847
20864W        W89194  36.019  32.912  13.008
20865W        W89195  37.556  30.424  13.505
20866W        W89196  42.430  22.193   4.706
20867W        W89197  17.253  18.262  11.044
20868W        W89198  22.152  12.301   4.651
20869W        W89199  26.554  26.655  10.479
20870W        W89200  44.811   1.934  12.092
20871W        W89201  41.398  44.764   3.836
20872W        W89202  37.471  14.590   4.321
20873W        W89203  21.643  20.052   0.456
20874W        W89204   5.341  29.492  12.471
20875W        W89205  14.312   4.320   2.699
20876W        W89206  39.921  12.148   4.620
20877W        W89207   9.685  20.091   4.212
20878W        W89208  39.889  28.602  11.051
20879W        W89209  27.990   6.324  14.015
20880W        W89210  24.001  37.557  10.915
20881W        W89211  22.010  18.226  13.365
20882W        W89212  40.000   0.425   1.416
20883W        W89213   4.723   9.708   3.175
20884W        W89214  38.834   8.890  10.645
20885W        W89215  22.639  29.054  11.951
20886W        W89216   1.461  14.228   1.382
20887W        W89217  27.167  32.975  13.871
20888W        W89218  27.051  17.154  11.469
20889W        W89219  12.168  30.990  12.435
20890W        W89220  26.046  16.744   2.796
20891W        W89221  26.526  43.959  14.491
20892W        W89222  37.378  22.672  10.591
20893W        W89223  43.965   4.354   0.899
20894W        W89224  20.580  30.039   1.234
20895W        W89225  29.051   8.750   3.662
20896W        W89226  26.161  37.026  14.883
20897W        W89227  16.578  32.566   2.680
20898W        W89228  27.119  41.306  13.401
20899W        W89229  22.202  22.075   4.257
20900W        W89230  25.569  37.077   0.817
20901W        W89231   7.188  44.467  10.948
20902W        W89232  14.274   1.958   4.700
20903W        W89233  16.279   7.214   4.706
20904W        W89234  13.838  43.356   1.239
20905W        W89235  21.117   9.657   5.185
20906W        W89236  36.866  33.032   0.748
20907W        W89237   5.764  37.455  14.314
20908W        W89238  18.173  10.316  13.999
20909W        W89239  28.507   8.301  10.937
20910W        W89240  12.341  37.850  10.641
20911W        W89241   1.748  39.856  13.862
20912W        W89242  40.408  10.653  14.412
20913W        W89243  27.539  24.169   0.836
20914W        W89244  21.136  20.267   0.414
20915W        W89245   3.768  16.188  11.589
20916W        W89246  10.342  25.070  13.313
20917W        W89247  20.148  15.592  12.058
20918W        W89248  31.915  15.701   0.964
20919W        W89249  16.703  22.028  10.641
20920W        W89250  15.280  32.972  12.952
20921W        W89251  20.153   6.398  13.504
20922W        W89252  41.001   6.807   3.360
20923W        W89253  25.520   3.443   2.354
20924W        W89254  20.030  26.198   0.920
20925W        W89255  29.091  10.288   4.814
20926W        W89256   5.831  18.223  13.421
20927W        W89257  33.017  30.043  13.874
20928W        W89258  21.037  12.759   3.206
20929W        W89259  25.582  37.896  14.773
20930W        W89260  29.659   8.275   0.736
20931W        W89261  43.917  14.774   2.282
20932W        W89262  16.775   6.399   3.713
20933W        W89263  17.260   4.316   3.820
20934W        W89264  12.806  23.147   2.301
20935W        W89265   2.399  36.432   1.286
20936W        W89266  25.058  23.505  11.871
20937W        W89267  18.547  40.335   0.411
20938W        W89268  37.964  16.229   4.731
20939W        W89269   9.660  22.006  11.067
20940W        W89270  24.101  29.621  11.574
20941W        W89271  33.477  15.745  11.954
20942W        W89272   4.408   3.907   2.672
20943W        W89273  31.482  30.098  13.849
20944W        W89274  44.893  21.145  11.432
20945W        W89275  25.505  39.015  14.379
20946W        W89276  26.155  22.184   0.364
20947W        W89277  10.252  34.939   1.838
20948W        W89278   8.715  24.189  13.824
20949W        W89279   7.680   6.801  12.034
20950W        W89280  37.500  18.699  10.621
20951W        W89281  32.476   1.284   3.288
20952W        W89282  19.619  13.220  12.432
20953W        W89283   0.248  40.402  11.578
20954W        W89284   8.800   7.186   1.840
20955W        W89285  27.997  24.511  13.454
20956W        W89286  28.177   0.989  13.482
20957W        W89287  22.135  25.618  11.542
20958W        W89288  41.827  40.947   0.321
20959W        W89289  42.859  32.599  13.978
20960W        W89290  14.804  40.460   4.326
20961W        W89291  36.919  17.307  14.825
20962W        W89292  38.470   2.397  12.508
20963W        W89293  25.008  44.418  12.089
20964W        W89294  31.591  21.155  12.836
20965W        W89295  41.474  17.127   2.278
20966W        W89296  44.002  21.647  10.628
20967W        W89297   3.770  31.434  10.514
20968W        W89298   4.416  27.655  11.961
20969W        W89299  27.972  31.491   2.760
20970W        W89300  23.711  17.280   4.708
20971W        W89301  20.043  39.539  11.441
20972W        W89302  37.396   9.231   2.729
20973W        W89303  32.898  24.502   1.768
20974W        W89304  16.734  34.973   5.179
20975W        W89305  25.573  13.326   0.310
20976W        W89306  43.317   7.682   2.716
20977W        W89307  21.746  36.348  11.909
20978W        W89308  39.012  36.014   1.718
20979W        W89309  22.691  22.030   1.828
20980W        W89310   5.331  13.778   4.157
20981W        W89311  12.280   1.832  14.397
20982W        W89312  31.543   5.272   2.859
20983W        W89313   1.922   4.911  13.859
20984W        W89314  19.190  18.246  14.411
20985W        W89315  30.133  10.727   3.724
20986W        W89316  43.413   9.326   1.742
20987W        W89317  29.023  10.667  12.391
20988W        W89318  44.424  33.485  13.452
20989W        W89319  34.996  32.920   4.598
20990W        W89320  42.821  22.243   0.345
20991W        W89321  26.497  43.476   0.888
20992W        W89322  12.312  12.744  13.498
20993W        W89323  25.217   8.741  12.033
20994W        W89324   7.297  29.961   3.703
20995W        W89325  31.419  35.088  14.854
20996W        W89326  35.007  42.981  10.436
20997W        W89327  11.644   5.698  13.401
20998W        W89328  23.552  36.459  12.885
20999W        W89329   6.202  19.149  14.367
21000W        W89330   2.414  37.940   1.896
21001W        W89331  15.795  36.019  10.586
21002W        W89332   7.239  11.360   2.385
21003W        W89333  40.441   3.907  12.979
21004W        W89334  38.852   3.851   2.231
21005W        W89335  17.787  42.357  14.362
21006W        W89336  42.383  44.952  14.390
21007W        W89337  42.019  11.662   5.224
21008W        W89338  38.942  44.480   5.123
21009W        W89339  43.429   0.313   4.199
21010W        W89340  12.137  18.246   3.735
21011W        W89341  26.053  25.192  12.569
21012W        W89342  12.802  12.813  14.398
21013W        W89343   7.748  23.549   2.854
21014W        W89344  32.635   8.281  13.979
21015W        W89345   3.951  44.845   0.341
21016W        W89346  13.170  12.725   4.243
21017W        W89347  23.604  31.069   3.155
21018W        W89348  16.774  42.480  12.474
21019W        W89349  36.852  36.088  14.323
21020W        W89350   1.479  14.630  10.897
21021W        W89351  31.452   3.856   1.855
21022W        W89352  17.223  38.510   1.438
21023W        W89353   8.281  36.487   4.126
21024W        W89354  20.538  20.183  12.527
21025W        W89355  25.047  17.293   3.281
21026W        W89356  34.613  33.120  13.504
21027W        W89357   1.847  40.486  12.518
21028W        W89358   5.238  42.887   2.668
21029W        W89359  24.157   2.256  13.815
21030W        W89360   5.769   9.233   2.671
21031W        W89361  25.076   7.229   0.736
21032W        W89362   7.195  16.166   1.374
21033W        W89363  32.921  13.669   3.655
21034W        W89364  11.171   7.769  10.626
21035W        W89365  32.540  16.091  10.956
21036W        W89366   6.718  36.843  12.094
21037W        W89367   8.756  19.162   4.273
21038W        W89368  16.589  13.112   2.234
21039W        W89369  38.929  28.178   4.298
21040W        W89370  32.033  26.954   4.165
21041W        W89371  10.803  40.519  13.977
21042W        W89372  22.106   8.232   2.398
21043W        W89373  21.601  41.323   0.433
21044W        W89374   9.832  12.710  13.850
21045W        W89375  28.959   1.902   3.742
21046W        W89376  10.829  43.976  14.778
21047W        W89377   6.690  19.157  11.881
21048W        W89378   1.766  22.039  12.858
21049W        W89379  37.025  35.036   4.811
21050W        W89380  37.435  27.676   2.239
21051W        W89381  43.321  16.153  11.516
21052W        W89382  41.998  26.016  12.891
21053W        W89383  22.728  25.075   1.711
21054W        W89384  43.873  36.065   0.281
21055W        W89385  28.043  15.218   4.192
21056W        W89386  27.983  28.944  10.554
21057W        W89387  24.073  24.713   2.250
21058W        W89388  18.224  26.536  11.938
21059W        W89389  30.917   5.231  12.428
21060W        W89390  18.294  20.699   1.795
21061W        W89391  27.015  28.030   4.275
21062W        W89392  44.262   6.744   2.753
21063W        W89393  37.005  36.009  13.517
21064W        W89394  13.278  23.607  11.026
21065W        W89395  41.816  10.335   1.397
21066W        W89396  43.863  39.809  11.066
21067W        W89397  20.145   7.668   1.784
21068W        W89398   6.724  12.342  11.107
21069W        W89399  26.595  19.570  11.461
21070W        W89400   3.741  35.100  12.966
21071W        W89401  34.097  14.734  11.565
21072W        W89402  44.290  39.512   0.774
21073W        W89403  36.035   5.835  12.007
21074W        W89404  43.346  37.577   1.863
21075W        W89405  16.776  44.768   1.261
21076W        W89406  42.482  18.678  14.324
21077W        W89407  37.572   2.252   2.850
21078W        W89408  17.193   1.284   1.734
21079W        W89409  42.946   6.380   3.708
21080W        W89410   5.252   6.300   1.871
21081W        W89411  11.678  19.544   4.705
21082W        W89412   9.293  44.802   0.742
21083W        W89413  29.433  12.322  14.856
21084W        W89414  15.811   4.913  11.881
21085W        W89415  27.590  29.039  10.539
21086W        W89416  17.077   5.237   0.292
21087W        W89417  20.112  34.505  10.447
21088W        W89418  31.608  40.527   0.436
21089W        W89419  11.684  15.752  14.493
21090W        W89420  18.771  42.812   0.876
21091W        W89421   3.723  41.402  13.412
21092W        W89422   0.742  40.508   4.142
21093W        W89423   0.462  18.113  14.894
21094W        W89424  28.456  29.112   3.297
21095W        W89425  16.244  38.822  14.808
21096W        W89426  18.173  32.452  12.484
21097W        W89427  43.300  11.731   4.630
21098W        W89428  14.094   7.698   2.898
21099W        W89429  17.587   9.389   0.945
21100W        W89430  41.865   7.237   2.852
21101W        W89431  10.633   4.372   4.809
21102W        W89432  34.611  37.946  12.538
21103W        W89433   3.282  30.529   2.191
21104W        W89434  24.142  31.125  13.534
21105W        W89435   6.272  29.952   1.765
21106W        W89436  19.581   4.444  11.103
21107W        W89437   2.374   1.349  12.032
21108W        W89438   0.296   3.792   3.833
21109W        W89439  38.561  30.577  13.837
21110W        W89440  14.624  21.660  14.382
21111W        W89441   0.927  14.147  10.567
21112W        W89442  25.983  31.141  11.024
21113W        W89443  12.817  22.743  14.493
21114W        W89444  23.068   7.777   0.741
21115W        W89445  10.226  29.007  12.470
21116W        W89446  19.724  38.829  13.939
21117W        W89447  31.475  43.414  13.902
21118W        W89448  37.085  27.000   4.835
21119W        W89449   7.756  44.330   4.636
21120W        W89450  24.617   7.802   3.306
21121W        W89451  35.955  37.084   1.375
21122W        W89452   5.321  37.028   3.654
21123W        W89453   5.374   8.842   1.403
21124W        W89454  12.244  43.360  10.476
21125W        W89455  34.031   3.882  14.928
21126W        W89456  40.498  25.147  10.074
21127W        W89457  26.557  13.327   3.755
21128W        W89458  21.099  35.380  13.428
21129W        W89459  19.118  18.265   1.297
21130W        W89460  18.726  35.389   4.217
21131W        W89461  19.185  15.220   4.657
21132W        W89462  13.788  36.861  10.098
21133W        W89463  29.092  35.855   0.910
21134W        W89464   7.809  44.836  12.492
21135W        W89465  42.813   2.277   4.344
21136W        W89466  28.518  32.629   1.418
21137W        W89467  36.008  28.557  13.998
21138W        W89468  37.431  22.211  13.326
21139W        W89469  26.671  38.064   3.191
21140W        W89470  25.153  39.822   2.336
21141W        W89471  39.941  15.249   4.340
21142W        W89472  43.830  25.613  12.874
21143W        W89473  31.935  10.653   1.899
21144W        W89474  22.075  36.988  14.355
21145W        W89475  13.204  43.436  14.014
21146W        W89476   9.335  15.136   0.293
21147W        W89477  14.247  36.488   1.834
21148W        W89478  21.619   9.865   5.169
21149W        W89479  29.448  26.465   0.917
21150W        W89480  42.806   2.882   1.375
21151W        W89481   0.264  39.959   0.367
21152W        W89482  26.464  40.416  11.040
21153W        W89483  30.614  38.430   0.361
21154W        W89484  40.969  13.225   0.809
21155W        W89485  25.484  17.563   4.245
21156W        W89486   5.210  23.187  10.544
21157W        W89487  27.527  22.537  12.008
21158W        W89488  10.323  25.649   2.664
21159W        W89489  38.327  43.453  10.516
21160W        W89490  20.089   0.388   0.934
21161W        W89491  32.524  32.009  12.528
21162W        W89492  15.303  41.026  12.025
21163W        W89493  26.197   0.307   2.409
21164W        W89494  14.169  40.897   3.215
21165W        W89495  18.738   1.973  11.461
21166W        W89496  13.701  33.597   3.214
21167W        W89497  41.827  44.841  13.975
21168W        W89498  14.114  34.397   0.405
21169W        W89499  44.303  21.683  14.809
21170W        W89500  20.742  32.627  14.321
21171W        W89501  21.563  24.542  13.507
21172W        W89502   4.885  24.159  12.960
21173W        W89503  12.824  38.530  12.853
21174W        W89504  34.444  31.971  11.603
21175W        W89505  38.547   3.767   0.317
21176W        W89506  38.374  30.538  10.907
21177W        W89507  31.130  28.513   0.832
21178W        W89508   9.846  34.975   1.827
21179W        W89509  22.996  21.655  10.565
21180W        W89510  11.800  44.825  10.091
21181W        W89511  34.967  14.109   0.471
21182W        W89512   7.201  25.130  12.506
21183W        W89513  31.596  21.197   3.258
21184W        W89514  41.854  19.194   1.218
21185W        W89515  12.630  33.058  13.544
21186W        W89516   5.237  20.062  13.329
21187W        W89517   3.812  38.881   2.306
21188W        W89518  39.475   8.263  14.976
21189W        W89519  19.663  10.285  11.903
21190W        W89520   8.784   6.862  14.775
21191W        W89521  31.619  34.602   0.452
21192W        W89522  38.419  11.829   3.776
21193W        W89523  25.563  41.875  14.393
21194W        W89524  28.518   7.313  13.960
21195W        W89525  19.115   4.232   3.779
21196W        W89526   3.770  22.721   4.350
21197W        W89527  20.273  20.531  10.929
21198W        W89528   3.791  24.695   3.639
21199W        W89529  16.160   2.322  14.440
21200W        W89530  31.512  44.845  13.867
21201W        W89531  30.483   5.833   1.260
21202W        W89532   2.875  22.056  14.838
21203W        W89533  38.566  37.375   0.405
21204W        W89534  29.950  30.097   2.217
21205W        W89535  39.417  41.970   1.451
21206W        W89536  21.542  34.576   1.317
21207W        W89537  22.163  24.991  14.806
21208W        W89538   1.406  39.998  14.783
21209W        W89539  19.263   9.853   3.656
21210W        W89540  39.346   7.236   1.886
21211W        W89541  15.174  30.524  11.981
21212W        W89542   0.790  19.660  13.330
21213W        W89543  33.527  33.625  10.048
21214W        W89544  21.618  44.494  14.765
21215W        W89545  15.814  12.678  12.924
21216W        W89546  40.924  26.617   0.730
21217W        W89547  17.290  16.625  10.505
21218W        W89548  37.901  15.625   0.373
21219W        W89549  36.383  32.502   3.351
21220W        W89550  27.009  18.218   0.392
21221W        W89551  22.542  13.601   3.862
21222W        W89552  10.238  10.173  11.007
21223W        W89553   5.267   1.760   2.409
21224W        W89554  28.123  36.488  10.433
21225W        W89555  28.448  30.572  11.062
21226W        W89556   9.189  24.518  13.311
21227W        W89557  22.713  37.341   4.798
21228W        W89558   8.403  37.900  13.812
21229W        W89559  17.071  43.431   2.229
21230W        W89560   0.376  30.962  14.328
21231W        W89561  26.676  21.024  13.058
21232W        W89562   5.750  26.468   4.261
21233W        W89563  42.449  43.769  12.842
21234W        W89564   8.200   7.849  12.868
21235W        W89565   4.207  25.981  13.453
21236W        W89566  14.644  11.814  13.040
21237W        W89567  10.726  34.916   1.756
21238W        W89568  41.878  27.029  12.070
21239W        W89569  23.697   1.420   4.331
21240W        W89570   0.445   4.766   4.815
21241W        W89571  22.565   7.841  13.358
21242W        W89572  22.039  23.097   3.199
21243W        W89573   0.812  18.252   4.612
21244W        W89574  26.686  17.723   0.320
21245W        W89575  38.365  40.856   2.865
21246W        W89576  43.365  19.552   2.704
21247W        W89577  10.181   4.206   2.309
21248W        W89578  24.990   1.787   2.359
21249W        W89579   6.250  21.260  14.977
21250W        W89580  26.624   5.371   1.867
21251W        W89581  43.321  19.703  14.470
21252W        W89582  33.576  11.804  13.429
21253W        W89583   9.783  37.354  14.978
21254W        W89584   1.913   2.730   2.732
21255W        W89585  43.298  24.006  11.483
21256W        W89586  17.562  30.475  11.450
21257W        W89587  13.194  23.533  10.529
21258W        W89588   8.180   0.316  13.438
21259W        W89589  20.234  23.197   2.769
21260W        W89590   3.898  19.168   1.751
21261W        W89591  19.274  29.989   2.841
21262W        W89592  28.033  15.318   1.318
21263W        W89593  16.579  41.934   0.764
21264W        W89594  32.517  20.183   0.254
21265W        W89595  42.488   2.736   3.193
21266W        W89596   2.438  29.111   1.319
21267W        W89597  41.853  29.116  13.404
21268W        W89598  41.895  36.863   1.311
21269W        W89599   7.172   7.776   2.294
21270W        W89600  21.192  39.903  12.924
21271W        W89601  26.071  41.376  13.955
21272W        W89602  24.563  37.988  12.862
21273W        W89603  37.536   8.270   4.278
21274W        W89604  44.261  43.386   0.767
21275W        W89605   3.931  31.642   0.313
21276W        W89606   8.330   4.357  13.400
21277W        W89607  23.109  19.617  11.535
21278W        W89608  38.848   4.756   9.969
21279W        W89609  24.590  24.064  14.832
21280W        W89610  27.643  17.716  14.781
21281W        W89611   2.755  41.440  14.877
21282W        W89612  31.080   9.179   2.215
21283W        W89613  33.553   6.325  11.385
21284W        W89614  10.720  35.994   3.226
21285W        W89615  26.612  21.135  11.975
21286W        W89616  17.228   9.246   0.297
21287W        W89617  31.470  33.074  12.466
21288W        W89618   4.787  19.636  13.962
21289W        W89619  37.066   9.342   1.410
21290W        W89620  44.000  36.925  14.390
21291W        W89621   6.360  38.390   4.643
21292W        W89622  11.787   8.315  13.834
21293W        W89623  43.866  30.929   3.870
21294W        W89624  12.155  15.659   2.394
21295W        W89625  30.006  16.615  11.371
21296W        W89626  39.998  14.614   2.316
21297W        W89627  18.125  23.089  10.932
21298W        W89628  39.026   8.186  10.040
21299W        W89629   8.316  24.525  13.423
21300W        W89630   3.447  26.563   4.217
21301W        W89631  19.147  14.249   5.283
21302W        W89632  30.445   3.218  13.829
21303W        W89633  40.026  13.268   4.328
21304W        W89634   3.389  29.600   0.320
21305W        W89635  23.223  37.860  14.894
21306W        W89636  34.542  29.152  14.915
21307W        W89637  44.393  30.416  10.536
21308W        W89638  41.445  10.230  14.470
21309W        W89639  15.197  26.033   0.244
21310W        W89640  14.120  23.563  11.446
21311W        W89641  25.212  44.902   4.306
21312W        W89642   7.696  22.163   0.878
21313W        W89643  29.034  41.334  12.942
21314W        W89644  33.610  33.037   1.911
21315W        W89645  19.766   3.361  11.051
21316W        W89646   7.284  31.608   2.345
21317W        W89647  17.793  35.440   4.711
21318W        W89648  37.469   5.284  10.512
21319W        W89649   9.872  14.724   1.728
21320W        W89650  21.642  32.527  11.598
21321W        W89651  38.433  34.453  11.503
21322W        W89652  42.016  13.220  14.381
21323W        W89653   2.420  41.490   2.232
21324W        W89654  32.615  23.707  12.863
21325W        W89655  40.513  29.086   4.319
21326W        W89656  24.217  25.071   1.925
21327W        W89657  10.356  21.196   1.269
21328W        W89658  40.013  36.938   2.835
21329W        W89659   5.292  30.980  10.993
21330W        W89660  43.915  14.667   3.732
21331W        W89661  38.872  33.612   1.853
21332W        W89662  43.445   4.829  10.905
21333W        W89663  32.141  28.118  13.974
21334W        W89664  30.981  21.081  10.938
21335W        W89665   6.677  12.643  12.887
21336W        W89666  29.085  42.787  13.312
21337W        W89667   1.905   4.274   1.235
21338W        W89668  27.941   6.838   2.818
21339W        W89669  36.005  10.159   5.083
21340W        W89670   1.735   6.388   1.445
21341W        W89671  28.623  37.039  14.801
21342W        W89672  15.232  19.230   0.741
21343W        W89673  10.380  22.052  13.416
21344W        W89674  12.687  44.985  12.991
21345W        W89675  25.033  18.755  11.094
21346W        W89676   1.438  18.722  11.476
21347W        W89677  14.637  17.203   1.796
21348W        W89678  17.240  33.623  10.030
21349W        W89679  30.973  14.591  12.060
21350W        W89680  32.059   5.696  13.387
21351W        W89681  11.713  17.648   2.417
21352W        W89682   1.463  30.463   1.930
21353W        W89683  14.315  36.928  12.389
21354W        W89684   3.760   5.844   1.326
21355W        W89685   3.221  41.372   1.434
21356W        W89686  11.223  27.555  10.559
21357W        W89687   8.397  17.639   4.614
21358W        W89688  21.513  31.442   4.209
21359W        W89689   2.766  38.003   1.211
21360W        W89690   5.252   4.357   4.350
21361W        W89691  39.815  23.721  13.540
21362W        W89692  34.478  42.437  13.030
21363W        W89693  41.513  44.260   4.172
21364W        W89694  26.483   6.801   1.434
21365W        W89695   0.751   4.246   1.890
21366W        W89696  27.530  16.150   4.754
21367W        W89697  26.057   9.363   2.230
21368W        W89698  15.211  13.634  12.041
21369W        W89699   4.797  38.519  11.599
21370W        W89700   7.881  24.081  11.067
21371W        W89701  44.828  41.002   4.244
21372W        W89702  35.969  35.431   4.820
21373W        W89703  42.323  18.780   0.329
21374W        W89704  38.496  34.484  10.446
21375W        W89705   9.879  44.971  13.991
21376W        W89706  39.056   8.326  12.410
21377W        W89707  15.127  17.158  13.969
21378W        W89708  38.539  40.931   1.360
21379W        W89709   1.745  21.650   1.836
21380W        W89710  44.913  34.064   1.424
21381W        W89711  37.957  17.212  14.983
21382W        W89712  10.811  31.413   0.864
21383W        W89713  36.981   1.424   0.256
21384W        W89714  23.160  36.880  13.799
21385W        W89715   7.292  19.046   1.794
21386W        W89716  36.027  17.183  13.526
21387W        W89717  28.075  13.333  14.954
21388W        W89718  18.250  20.738  13.801
21389W        W89719  39.968  38.018  12.349
21390W        W89720   6.237  35.017  11.941
21391W        W89721  14.208   3.340  14.953
21392W        W89722  13.805  44.438   2.374
21393W        W89723  24.127  33.441   0.894
21394W        W89724  36.503   0.901  11.398
21395W        W89725  40.895  32.412   0.339
21396W        W89726   0.272  16.736  14.773
21397W        W89727   2.962  12.317  13.966
21398W        W89728   3.879  30.518   5.273
21399W        W89729  19.661  15.586  14.408
21400W        W89730  26.686  10.312  13.366
21401W        W89731  12.276  32.411   2.896
21402W        W89732   0.275   0.868   0.476
21403W        W89733  34.457  32.900  14.373
21404W        W89734  19.102   1.389  11.494
21405W        W89735  10.765  23.646  12.578
21406W        W89736  26.127  34.885   0.311
21407W        W89737  33.464   0.890   0.283
21408W        W89738  44.757  26.600  11.889
21409W        W89739   2.726  44.412   1.226
21410W        W89740  44.504   7.837  14.794
21411W        W89741  38.428   0.813   0.277
21412W        W89742  25.580  17.168   0.847
21413W        W89743  34.112  14.796   0.283
21414W        W89744  20.274  30.965   3.223
21415W        W89745  12.835   3.877   3.707
21416W        W89746  33.082  40.355  10.634
21417W        W89747   9.850  41.334   0.290
21418W        W89748  32.138  13.641   4.838
21419W        W89749  32.400  26.475   3.299
21420W        W89750  39.507  17.149   1.422
21421W        W89751  10.721  39.938   1.886
21422W        W89752  39.887   7.771  13.518
21423W        W89753  13.828  36.928  12.944
21424W        W89754  35.396  23.632   2.345
21425W        W89755  18.157  44.415  11.927
21426W        W89756   5.422  38.845  13.497
21427W        W89757   3.401   8.206  10.621
21428W        W89758   3.807  42.441  12.473
21429W        W89759  18.196  41.368  13.843
21430W        W89760  37.057  26.562   2.839
21431W        W89761  13.207   0.880   1.426
21432W        W89762  32.506  19.125  13.032
21433W        W89763  36.046  27.580  14.491
21434W        W89764  10.379  17.622  11.603
21435W        W89765   7.265  10.828   2.669
21436W        W89766  22.998   7.274   5.104
21437W        W89767  32.948   2.848  12.883
21438W        W89768   9.807   5.362   0.411
21439W        W89769  26.206  11.343  14.883
21440W        W89770  39.539   8.865  13.971
21441W        W89771   7.681   4.319   0.898
21442W        W89772  30.149  44.458   3.361
21443W        W89773  23.022  27.679  14.784
21444W        W89774  22.021  20.067  14.993
21445W        W89775   3.305  44.971   4.162
21446W        W89776  15.675   5.717   2.394
21447W        W89777  35.374  33.498  13.806
21448W        W89778   2.803  43.435  11.609
21449W        W89779   0.440  19.275   1.763
21450W        W89780  10.241  13.146   3.354
21451W        W89781  37.007  18.677  10.931
21452W        W89782   3.860  17.220   2.369
21453W        W89783  20.244  41.794  12.046
21454W        W89784   9.192   7.293   4.199
21455W        W89785  25.514  20.097  13.995
21456W        W89786   5.778  37.002   0.286
21457W        W89787  43.918  10.754  14.916
21458W        W89788  16.577   3.928  14.929
21459W        W89789  18.064   2.341  11.111
21460W        W89790   7.836  18.573   2.338
21461W        W89791  10.850  17.075  10.484
21462W        W89792  25.066  15.609   5.108
21463W        W89793  23.495  24.196  12.042
21464W        W89794  41.909  23.629   1.772
21465W        W89795  12.789  40.398  12.359
21466W        W89796  29.438  11.723  11.120
21467W        W89797   7.285  27.477  13.056
21468W        W89798  43.959  25.676   0.884
21469W        W89799  31.960  31.045   4.723
21470W        W89800  20.250  33.921  10.922
21471W        W89801   7.345  23.721  12.948
21472W        W89802  40.467  26.608  14.832
21473W        W89803   2.253  30.101   2.733
21474W        W89804   0.305  11.689  14.350
21475W        W89805  15.177  28.596   1.376
21476W        W89806  36.937  10.643  10.485
21477W        W89807  30.488  11.372  13.360
21478W        W89808  16.761  19.117   1.343
21479W        W89809   5.349   8.221   1.778
21480W        W89810  17.736  16.789   3.686
21481W        W89811  42.826   4.798   1.293
21482W        W89812  17.731   7.290  12.015
21483W        W89813   7.877  30.502  12.558
21484W        W89814  16.574   3.849   3.720
21485W        W89815   6.805  12.646  14.507
21486W        W89816  25.038  27.469   1.217
21487W        W89817  10.869  16.130  14.032
21488W        W89818  43.974   1.239  11.001
21489W        W89819  25.029  33.083  14.936
21490W        W89820  35.072  12.819   1.400
21491W        W89821   6.406   0.844  13.322
21492W        W89822  42.911   6.749  14.822
21493W        W89823  23.024   1.977   4.735
21494W        W89824  13.157   1.886  14.315
21495W        W89825  44.396  26.687   0.912
21496W        W89826  14.323  13.134   2.830
21497W        W89827  34.922  18.166   3.153
21498W        W89828  36.052  21.120   4.226
21499W        W89829  41.043  33.919  12.078
21500W        W89830   3.451  32.537  11.935
21501W        W89831  23.027  26.668  13.953
21502W        W89832  21.719  28.137   2.284
21503W        W89833  39.546   0.425  14.300
21504W        W89834  40.375  11.145   4.662
21505W        W89835  25.133  15.695  14.455
21506W        W89836  15.625  24.081   4.603
21507W        W89837  43.440  38.382   1.771
21508W        W89838  17.688  27.009  14.784
21509W        W89839   5.349  36.536   2.852
21510W        W89840  15.169   3.730  12.477
21511W        W89841  12.307  16.723   2.873
21512W        W89842  42.444  41.885  10.555
21513W        W89843  18.689  37.429   4.744
21514W        W89844  38.543  35.359   1.369
21515W        W89845  40.495  11.835  14.400
21516W        W89846  19.188  17.592   3.273
21517W        W89847   3.412  40.471   2.282
21518W        W89848   0.877  14.253  13.949
21519W        W89849   3.906   4.769   4.833
21520W        W89850  18.249  22.630  13.313
21521W        W89851   2.876  43.948   3.242
21522W        W89852   2.758  27.460  14.359
21523W        W89853  35.926  41.505  13.956
21524W        W89854  30.004   6.321   1.294
21525W        W89855   1.766   1.900  11.378
21526W        W89856  13.335  38.405  14.424
21527W        W89857   1.483  16.154  14.979
21528W        W89858  31.128  35.543  11.912
21529W        W89859  12.646   4.719   3.739
21530W        W89860  41.338  40.942  14.860
21531W        W89861  12.621  36.988   0.947
21532W        W89862  42.331   8.364   2.294
21533W        W89863  28.456  25.995   3.818
21534W        W89864   2.431  16.806  14.912
21535W        W89865   9.242  13.798  11.540
21536W        W89866  13.782  41.031   3.284
21537W        W89867   8.207   9.288   3.302
21538W        W89868  21.166  32.008   0.880
21539W        W89869  30.985  24.179  13.511
21540W        W89870  17.730  28.960   0.760
21541W        W89871  12.777   6.765  10.450
21542W        W89872  42.881   2.469  14.366
21543W        W89873   4.870  22.590  12.086
21544W        W89874   3.904   6.694  11.543
21545W        W89875   7.177   1.292   1.742
21546W        W89876  30.971  18.100   0.800
21547W        W89877  38.511   8.373   4.664
21548W        W89878  19.658  20.194   0.921
21549W        W89879  28.466  14.321   4.332
21550W        W89880  30.913  37.443   2.314
21551W        W89881  31.015  19.665  10.562
21552W        W89882  21.548  17.724   3.739
21553W        W89883   2.954  42.316  12.982
21554W        W89884  10.674  24.986   0.319
21555W        W89885  20.736  28.051  10.554
21556W        W89886  21.582   0.881   0.797
21557W        W89887  25.013  14.114   4.176
21558W        W89888  21.587  43.989   0.864
21559W        W89889  10.639  41.005  11.435
21560W        W89890  32.632  25.551  12.081
21561W        W89891  26.101   4.820  10.635
21562W        W89892  31.540  13.124  11.402
21563W        W89893  44.354  35.520   4.322
21564W        W89894  40.031   8.864   9.534
21565W        W89895  38.446  21.709   4.738
21566W        W89896  11.227  11.760   2.326
21567W        W89897  15.790   0.922   1.216
21568W        W89898  40.365  28.977   1.322
21569W        W89899  42.327   6.335   2.209
21570W        W89900  22.665  12.189   1.223
21571W        W89901  36.064  40.996  12.490
21572W        W89902  14.141   3.755   1.235
21573W        W89903  33.594   8.201   4.225
21574W        W89904  34.426  11.301   1.853
21575W        W89905  33.119  32.086  11.038
21576W        W89906   3.730  30.111   1.349
21577W        W89907  25.156  15.156   1.799
21578W        W89908  40.525   6.200   5.178
21579W        W89909  41.994  25.679  12.507
21580W        W89910  17.571   7.277  10.567
21581W        W89911  36.496  30.599   2.857
21582W        W89912  32.629  12.323   3.714
21583W        W89913  40.872  19.678   0.340
21584W        W89914  15.138  11.685  13.881
21585W        W89915  27.610  43.337  12.038
21586W        W89916   4.408  34.109   2.190
21587W        W89917  31.944  39.361  13.915
21588W        W89918  23.990  38.978  14.309
21589W        W89919  27.605  44.316  14.953
21590W        W89920  21.069  11.733   0.274
21591W        W89921  43.365  37.971  14.892
21592W        W89922  18.566  20.579  13.876
21593W        W89923  16.200  36.512  11.387
21594W        W89924  31.533   3.429  11.015
21595W        W89925  30.577  35.370   3.829
21596W        W89926  40.830  29.928  13.390
21597W        W89927  43.003  26.635   2.842
21598W        W89928  13.839  28.022  12.010
21599W        W89929  38.983  44.454   0.280
21600W        W89930  14.259  29.537   4.265
21601W        W89931  10.303  21.202   3.857
21602W        W89932  14.743   1.408  10.442
21603W        W89933  17.154  30.573  11.113
21604W        W89934   6.710  44.328  13.338
21605W        W89935  22.035  16.627   1.850
21606W        W89936   9.182  10.174  12.965
21607W        W89937  10.796  42.013  11.408
21608W        W89938  28.966   3.363   4.684
21609W        W89939  10.762  13.657  12.898
21610W        W89940  25.031  17.772   2.271
21611W        W89941  40.449  21.054  10.576
21612W        W89942  17.559  17.271   3.743
21613W        W89943  32.550  31.961   0.417
21614W        W89944  24.228  19.635  10.081
21615W        W89945  10.243  26.663   2.193
21616W        W89946  32.496  32.615   2.284
21617W        W89947  34.469  10.664   3.352
21618W        W89948  33.514  29.983  12.035
21619W        W89949  41.470  29.624   4.290
21620W        W89950   2.875  18.715  14.865
21621W        W89951  19.719  14.647   1.306
21622W        W89952  22.234  18.238   3.811
21623W        W89953   3.888  35.022   3.243
21624W        W89954   8.681  19.720   3.780
21625W        W89955  37.465  14.244  13.396
21626W        W89956  24.095  44.930   3.702
21627W        W89957  28.473   5.842  12.340
21628W        W89958  27.069   0.800  10.618
21629W        W89959  29.149  42.399  14.782
21630W        W89960  21.532  20.571   3.233
21631W        W89961   5.431   1.772   1.801
21632W        W89962  12.825  35.466   4.290
21633W        W89963  15.677  35.913   1.386
21634W        W89964  33.570  29.426   3.671
21635W        W89965  25.508  12.221  13.536
21636W        W89966  36.507   8.767   3.283
21637W        W89967  39.559  40.949   1.748
21638W        W89968   4.842  24.101  11.953
21639W        W89969  12.681  27.970  14.781
21640W        W89970  32.120  12.631   3.833
21641W        W89971  34.457   3.433   0.244
21642W        W89972  24.721  37.362   1.441
21643W        W89973  10.286  39.326  13.443
21644W        W89974   9.280  16.214   0.854
21645W        W89975   4.269  18.636   1.408
21646W        W89976  13.678  22.137   3.195
21647W        W89977  34.534  30.655   0.964
21648W        W89978  37.481  23.540  10.559
21649W        W89979  23.494  43.404   0.328
21650W        W89980   1.808  37.538   0.901
21651W        W89981  13.308  18.171   0.319
21652W        W89982  32.609  44.308  13.412
21653W        W89983  39.975  34.468  12.533
21654W        W89984   8.725  19.144   1.246
21655W        W89985   5.855  18.777   3.349
21656W        W89986  32.454  25.213  11.424
21657W        W89987  34.107  38.443  14.788
21658W        W89988  31.473   2.341  13.535
21659W        W89989  31.406  23.564   0.841
21660W        W89990   8.743  22.631   4.681
21661W        W89991  25.120  14.172  11.076
21662W        W89992   3.321  33.541  14.776
21663W        W89993  33.605  40.335  10.036
21664W        W89994  39.372  12.313  12.036
21665W        W89995  10.701  12.350   4.213
21666W        W89996  37.484  35.591  10.916
21667W        W89997  32.070  17.565  14.849
21668W        W89998  29.565   1.242   2.665
21669W        W89999  29.503  18.060   3.318
21670W        W90000  25.663   6.913  11.111
21671W        W90001  12.630   3.418  13.041
21672W        W90002  24.186  42.393  12.989
21673W        W90003  13.330  14.260  13.888
21674W        W90004  26.539  35.490   0.478
21675W        W90005  40.893  36.549   1.374
21676W        W90006  15.165  34.046   0.782
21677W        W90007  29.942  41.965   4.329
21678W        W90008  36.003  30.947  11.503
21679W        W90009  41.029  35.597  12.849
21680W        W90010  32.043   8.372  12.086
21681W        W90011   9.310   5.826  10.893
21682W        W90012  35.389  21.735  13.547
21683W        W90013  17.108  39.814   1.419
21684W        W90014   5.383  40.370  14.805
21685W        W90015   2.377  11.267  11.028
21686W        W90016  12.720   0.899   3.278
21687W        W90017  34.868   9.176  10.546
21688W        W90018  35.039  25.039   4.349
21689W        W90019   4.344  40.419  13.005
21690W        W90020  13.154  26.041   3.156
21691W        W90021  18.222  20.038  10.461
21692W        W90022  22.157  39.950   1.778
21693W        W90023  33.096  22.553   2.417
21694W        W90024  21.083  10.832   1.724
21695W        W90025  25.999   5.829   4.231
21696W        W90026  21.722  20.228   1.883
21697W        W90027  19.558  41.418  12.061
21698W        W90028  42.800  40.546  12.005
21699W        W90029  28.123  28.662  11.890
21700W        W90030  43.941  13.726  14.011
21701W        W90031  34.967   5.329   1.249
21702W        W90032  16.637  11.826  12.524
21703W        W90033   7.694  13.224   3.296
21704W        W90034   6.206  28.468  12.048
21705W        W90035  26.165  14.224   3.351
21706W        W90036   0.303  39.936  11.376
21707W        W90037   3.457  12.222  14.448
21708W        W90038   6.358  28.957   0.450
21709W        W90039  30.594  13.790   4.302
21710W        W90040  31.633  16.073  10.513
21711W        W90041  35.031   9.701   1.450
21712W        W90042  43.381  42.299   3.648
21713W        W90043  39.015   9.372  12.006
21714W        W90044   1.343  36.505   0.311
21715W        W90045   3.908  44.341   2.316
21716W        W90046  33.912   8.843  12.483
21717W        W90047  36.846  34.391  12.924
21718W        W90048  22.202  43.929  12.374
21719W        W90049  29.991   9.827  12.501
21720W        W90050  21.029  41.341  13.341
21721W        W90051  40.809  44.912   4.812
21722W        W90052  24.123  13.662  13.050
21723W        W90053  24.557  27.109  10.466
21724W        W90054   9.276   9.815   1.717
21725W        W90055  12.246  36.382  12.398
21726W        W90056  36.075  31.040   3.315
21727W        W90057   2.887  14.720   2.235
21728W        W90058   2.438   0.955   0.335
21729W        W90059  39.845  37.867  13.321
21730W        W90060  16.756  28.062  10.459
21731W        W90061  26.599  27.502  11.086
21732W        W90062  17.149  17.755  11.587
21733W        W90063  32.917  20.200  10.516
21734W        W90064  34.945  39.008  13.020
21735W        W90065   0.261  25.071  12.400
21736W        W90066   2.410  34.914  14.469
21737W        W90067  31.136  12.231  11.055
21738W        W90068  23.177  41.956   3.851
21739W        W90069  17.208   3.813   1.928
21740W        W90070   2.355  34.945  10.964
21741W        W90071   4.303  23.052  12.965
21742W        W90072   1.328  15.094   3.768
21743W        W90073   0.282  38.424  10.497
21744W        W90074  36.030   4.938  13.484
21745W        W90075  10.846  12.329  13.054
21746W        W90076  41.944  21.127  12.487
21747W        W90077  37.429   2.891   3.644
21748W        W90078  16.785   7.767  12.997
21749W        W90079   8.683  20.745  14.011
21750W        W90080  24.193  18.763  13.819
21751W        W90081  40.953  22.543  12.468
21752W        W90082  30.016  40.887   2.315
21753W        W90083  19.578  35.097  11.068
21754W        W90084  16.130  14.799   3.262
21755W        W90085  28.061  10.356  12.544
21756W        W90086  40.437  21.092   4.251
21757W        W90087   4.747  22.110  11.583
21758W        W90088  27.167  27.111   1.790
21759W        W90089  14.617  41.307   1.712
21760W        W90090  42.929  14.800   2.379
21761W        W90091  18.640  12.616   4.617
21762W        W90092  17.574   9.756  12.034
21763W        W90093  43.930  29.497  11.469
21764W        W90094  14.670  14.752   2.704
21765W        W90095  21.600   5.720  12.442
21766W        W90096  19.725  14.657   2.673
21767W        W90097   8.682  34.524   0.328
21768W        W90098  30.468   4.845  14.968
21769W        W90099   5.332  10.658  13.012
21770W        W90100  38.481   2.448  13.061
21771W        W90101  21.203  33.998  11.490
21772W        W90102  14.329  30.084  12.826
21773W        W90103  19.550  25.689   0.433
21774W        W90104  29.638  42.897  11.121
21775W        W90105  43.499  32.469  14.759
21776W        W90106  11.677  33.075   1.709
21777W        W90107  37.366  12.304  12.979
21778W        W90108  14.325  22.112   1.775
21779W        W90109   5.272   6.775   2.891
21780W        W90110   1.382  29.009  10.505
21781W        W90111  42.385   3.943   4.717
21782W        W90112  39.967   7.775   5.291
21783W        W90113  30.973  21.074  10.614
21784W        W90114  27.575  18.694  10.591
21785W        W90115  15.660  24.635   0.346
21786W        W90116  25.060  43.477  14.439
21787W        W90117   9.199  44.810  10.497
21788W        W90118   0.381  41.500  12.946
21789W        W90119   5.245  39.964  13.045
21790W        W90120  29.040   1.404  11.586
21791W        W90121  17.210  18.211  13.408
21792W        W90122   3.259  37.870   9.958
21793W        W90123   2.259  33.105   0.836
21794W        W90124  19.114   3.437  12.579
21795W        W90125  35.927  22.569  12.457
21796W        W90126   1.368  26.981  12.356
21797W        W90127  30.524   4.277  14.985
21798W        W90128  11.758  16.689  11.899
21799W        W90129  12.788  42.937   2.379
21800W        W90130  42.983  17.303   5.182
21801W        W90131  36.586  34.376   3.799
21802W        W90132  40.350  43.380  13.817
21803W        W90133  24.570   0.380  11.924
21804W        W90134  32.494  33.423  10.604
21805W        W90135   6.687  14.152   3.341
21806W        W90136  12.612  18.107   0.415
21807W        W90137  41.465   9.688   4.780
21808W        W90138  25.526  16.779   3.639
21809W        W90139  21.662  16.756   5.602
21810W        W90140  38.974  42.884  10.896
21811W        W90141  10.155  40.810  12.022
21812W        W90142  31.475   7.185  10.404
21813W        W90143  24.525  38.400   2.351
21814W        W90144   1.823  28.437   3.802
21815W        W90145  18.081  42.482  12.569
21816W        W90146  34.476  22.193   2.332
21817W        W90147   0.398  39.929  12.988
21818W        W90148  29.162  11.661   1.867
21819W        W90149  22.508  24.034  13.034
21820W        W90150   1.908  30.656   2.271
21821W        W90151  40.376  38.368   3.778
21822W        W90152  14.704   3.244   1.262
21823W        W90153  16.271   4.789  14.458
21824W        W90154  35.907   9.190   4.838
21825W        W90155  16.245  30.951  13.409
21826W        W90156  32.049  43.928  13.351
21827W        W90157  13.261  20.220  12.537
21828W        W90158   4.233  43.833   3.679
21829W        W90159  35.899   4.698   1.289
21830W        W90160  36.420  28.142  13.922
21831W        W90161  15.311   6.753  12.921
21832W        W90162  34.016  33.003  12.962
21833W        W90163  12.754  29.613   2.183
21834W        W90164  28.098  23.599   9.926
21835W        W90165  33.508  13.656  13.445
21836W        W90166  36.412  36.518   1.417
21837W        W90167  29.079   8.306  11.466
21838W        W90168   5.718  29.971  14.391
21839W        W90169  41.343  36.354   1.319
21840W        W90170  10.269  40.923  13.011
21841W        W90171  31.082  13.631   0.916
21842W        W90172  25.984  32.944  14.778
21843W        W90173  14.746   7.894  10.532
21844W        W90174  34.388  20.697  12.935
21845W        W90175  24.522  10.696   4.260
21846W        W90176  32.045  25.535  14.458
21847W        W90177  15.821   5.250  13.373
21848W        W90178  38.053  10.347  13.896
21849W        W90179  23.713  16.125   3.703
21850W        W90180  36.487   8.309   1.834
21851W        W90181  25.004  40.396  14.500
21852W        W90182   9.325  30.144   4.684
21853W        W90183  39.878   5.314   1.255
21854W        W90184   4.390  35.595   4.210
21855W        W90185  40.496  38.989   3.726
21856W        W90186  43.825  36.911  11.994
21857W        W90187  24.624  10.789   9.934
21858W        W90188  29.442   6.719  14.853
21859W        W90189  35.000  19.719   1.374
21860W        W90190  40.463  13.107  14.428
21861W        W90191  39.382  29.134   2.841
21862W        W90192  10.642  14.331  12.826
21863W        W90193  42.961  27.474   3.227
21864W        W90194  42.965  13.183  14.344
21865W        W90195  25.649  17.183  10.888
21866W        W90196  25.704  28.509   1.898
21867W        W90197  26.569  44.458   4.297
21868W        W90198   7.905  36.533   4.608
21869W        W90199  44.394   7.726   1.792
21870W        W90200  36.846  17.658   3.796
21871W        W90201  40.011  32.909  10.594
21872W        W90202   4.425  30.564  10.612
21873W        W90203   9.824  37.885  13.793
21874W        W90204  24.046   0.873   3.764
21875W        W90205  38.843  17.627   3.698
21876W        W90206  35.016  41.805   3.359
21877W        W90207  12.248  37.870   0.903
21878W        W90208  12.667  32.909   2.843
21879W        W90209  19.611  26.193   1.769
21880W        W90210  32.997  15.266   2.383
21881W        W90211  15.219  31.428   0.759
21882W        W90212  43.406  14.291   2.872
21883W        W90213  17.569  21.087   1.700
21884W        W90214  16.311  40.439   3.700
21885W        W90215  44.951  37.897   4.762
21886W        W90216  13.109  15.149  12.830
21887W        W90217  19.602  29.962   2.206
21888W        W90218  30.452  16.571   4.636
21889W        W90219  36.400   0.988  13.916
21890W        W90220  22.102  10.156   2.866
21891W        W90221   8.171   3.838  14.811
21892W        W90222  16.207  42.407   4.191
21893W        W90223  28.532   8.351  14.768
21894W        W90224  37.373  23.040   3.243
21895W        W90225  25.563   6.840  10.567
21896W        W90226  28.085  33.388   4.833
21897W        W90227  34.490   3.315   2.796
21898W        W90228  32.002   8.766  12.897
21899W        W90229  34.534  30.596   1.273
21900W        W90230  26.612  43.995  14.856
21901W        W90231  11.634  30.920   1.330
21902W        W90232  44.371  40.525  10.507
21903W        W90233  44.439  26.541   2.728
21904W        W90234  37.371   7.815  11.029
21905W        W90235  20.102   0.342   2.849
21906W        W90236  37.425  36.870   1.716
21907W        W90237  19.233   5.716  12.893
21908W        W90238  33.934  41.940   1.329
21909W        W90239   2.833  36.470   9.576
21910W        W90240  33.884  29.129  11.521
21911W        W90241   6.878  33.880   2.714
21912W        W90242  42.377  44.878   2.726
21913W        W90243  40.474  32.415   0.934
21914W        W90244   3.266   5.896   1.927
21915W        W90245  17.752  30.560  13.836
21916W        W90246  23.003  42.486   0.444
21917W        W90247  17.699  22.027  10.620
21918W        W90248  37.516  15.205  12.988
21919W        W90249   8.298  19.127  11.039
21920W        W90250   7.228  39.901  11.457
21921W        W90251  30.436  35.413  14.844
21922W        W90252  42.338   1.389   2.337
21923W        W90253  13.351  24.207   4.740
21924W        W90254  21.146  40.317  11.393
21925W        W90255  25.599  22.252  14.911
21926W        W90256   5.878  23.541   0.339
21927W        W90257   4.282  37.037  10.949
21928W        W90258  18.616  39.002  13.482
21929W        W90259  26.547  24.078   3.814
21930W        W90260  37.866  16.297   3.789
21931W        W90261   3.459   7.205  11.006
21932W        W90262  38.380  15.213  13.532
21933W        W90263  33.532   4.943  14.782
21934W        W90264  15.268  33.393   4.698
21935W        W90265  25.063  43.933  14.424
21936W        W90266  23.719  18.242  12.470
21937W        W90267  43.953   5.797   2.252
21938W        W90268   8.398   4.258  12.087
21939W        W90269  21.103  26.670  10.964
21940W        W90270   0.393  23.004   0.727
21941W        W90271  21.705  24.179   3.285
21942W        W90272  36.576  39.855   2.872
21943W        W90273  40.801   9.883  10.423
21944W        W90274  24.989  43.784   4.115
21945W        W90275  16.109  30.142  11.475
21946W        W90276  39.817  10.154  12.477
21947W        W90277   6.276  30.104  14.421
21948W        W90278   8.677  12.184   1.421
21949W        W90279  24.654  17.682  12.504
21950W        W90280  17.738  19.561  11.553
21951W        W90281  35.470  27.107   2.362
21952W        W90282  41.452   2.442  11.514
21953W        W90283  35.486   4.391   0.917
21954W        W90284  13.176   7.832  10.629
21955W        W90285  41.292  39.476  10.917
21956W        W90286  13.720  19.202  10.453
21957W        W90287   4.420  17.227  12.874
21958W        W90288  23.668  40.458   0.954
21959W        W90289  39.542  23.719  11.946
21960W        W90290  27.113  44.265  12.841
21961W        W90291  31.440  24.519   0.419
21962W        W90292  30.005  37.553  14.301
21963W        W90293  25.477  27.113   3.292
21964W        W90294  31.021  28.056  13.326
21965W        W90295  10.768  29.942  14.286
21966W        W90296  24.101  14.669  14.789
21967W        W90297  20.729  28.126  12.533
21968W        W90298  37.505  15.801  11.000
21969W        W90299   3.954  11.763  14.488
21970W        W90300  22.501   1.304   3.644
21971W        W90301  10.776  27.997  11.371
21972W        W90302  40.852  11.130  11.421
21973W        W90303  24.626  30.417  14.889
21974W        W90304  12.169  34.596   3.739
21975W        W90305  23.070   4.735  10.496
21976W        W90306   4.217  34.575  10.944
21977W        W90307   6.713  39.035   4.718
21978W        W90308   0.348  28.078  11.504
21979W        W90309  31.998  30.964   0.833
21980W        W90310  19.045  34.473  11.042
21981W        W90311  31.962  42.005  14.800
21982W        W90312  10.639  17.147   3.281
21983W        W90313  35.053  44.313  13.846
21984W        W90314  22.232  26.566  13.030
21985W        W90315  14.693   4.249  11.028
21986W        W90316   1.444  36.891  13.037
21987W        W90317  32.627   2.456   4.813
21988W        W90318  38.354  39.537  13.472
21989W        W90319  39.460  10.755   3.276
21990W        W90320  18.679  14.772   2.303
21991W        W90321   8.177  21.685  11.952
21992W        W90322  27.038  27.573  12.444
21993W        W90323  18.662  25.612   2.780
21994W        W90324  12.266   0.946  12.021
21995W        W90325  25.143  26.076   1.895
21996W        W90326  33.070  18.719   4.157
21997W        W90327  25.491  31.070   0.922
21998W        W90328   1.775  38.969   1.755
21999W        W90329  22.100  31.023  10.575
22000W        W90330  14.314   8.330  14.981
22001W        W90331   5.795  41.321  12.906
22002W        W90332  42.489  42.965   1.849
22003W        W90333  31.059   3.436  11.875
22004W        W90334  42.295  10.205  11.468
22005W        W90335   8.882   3.833   3.281
22006W        W90336  23.987  23.241   0.755
22007W        W90337   2.859  38.372   4.124
22008W        W90338  36.450  10.705   3.768
22009W        W90339  35.572  12.690   4.678
22010W        W90340  24.149  10.641  13.950
22011W        W90341  36.551  15.669   1.709
22012W        W90342  12.270   4.306   2.852
22013W        W90343  33.609  44.762  14.401
22014W        W90344  29.131  15.144  13.889
22015W        W90345  37.065  32.577  10.598
22016W        W90346  33.524  31.898   2.857
22017W        W90347  11.327  27.034  11.934
22018W        W90348  42.777  37.457   0.243
22019W        W90349  42.394  18.145   2.828
22020W        W90350   3.452   3.285  11.078
22021W        W90351  24.645  15.128  14.481
22022W        W90352  11.793   0.859  13.816
22023W        W90353   2.398  30.487  14.941
22024W        W90354  13.206   9.353   4.616
22025W        W90355  21.037  44.322  13.993
22026W        W90356  28.632   6.357  10.955
22027W        W90357   9.693   3.302   2.771
22028W        W90358  26.130   8.708  11.455
22029W        W90359  41.971  29.433  14.788
22030W        W90360  42.434   4.792  10.627
22031W        W90361  40.308  33.477  12.856
22032W        W90362  20.243  31.053  11.970
22033W        W90363  17.168  36.361  13.867
22034W        W90364  40.515  23.534   5.105
22035W        W90365   2.348  26.108  14.424
22036W        W90366  30.538  24.230   3.377
22037W        W90367  21.682  24.193   4.714
22038W        W90368  17.747  33.569  11.872
22039W        W90369  20.745  11.255   0.880
22040W        W90370  29.129  42.370   3.731
22041W        W90371  21.749   6.813  14.498
22042W        W90372   1.939  26.456   0.833
22043W        W90373  38.413  37.502   2.303
22044W        W90374  44.774  33.409  11.588
22045W        W90375  37.438  29.948   1.701
22046W        W90376   4.761   5.262  10.138
22047W        W90377  36.886   3.358   3.221
22048W        W90378  30.551  35.994   2.190
22049W        W90379   5.705  35.557   2.276
22050W        W90380  10.239  23.718   0.754
22051W        W90381  10.692   0.759  13.524
22052W        W90382  17.144  26.483   4.266
22053W        W90383  23.146   0.405   2.836
22054W        W90384  17.653  18.176   4.755
22055W        W90385  36.536   0.913  12.486
22056W        W90386   6.815  34.509  14.969
22057W        W90387   0.315  43.019   4.654
22058W        W90388   1.847  29.068   3.311
22059W        W90389  39.320   7.323  14.786
22060W        W90390  32.119   8.384  14.931
22061W        W90391  32.032  23.159   2.718
22062W        W90392  28.673  36.057  12.557
22063W        W90393  22.700  42.835   4.735
22064W        W90394   4.363   8.306   1.827
22065W        W90395  34.112  42.996  12.996
22066W        W90396  29.116   6.259  13.982
22067W        W90397  14.136  32.481   2.354
22068W        W90398   4.803  24.555  12.052
22069W        W90399  28.519  17.216  12.568
22070W        W90400   0.905  44.401   4.113
22071W        W90401  44.484  42.441   4.729
22072W        W90402  21.095  10.283  10.600
22073W        W90403   6.714  41.529  13.961
22074W        W90404  38.399  44.756  12.379
22075W        W90405  31.474  14.683   2.381
22076W        W90406  24.014   2.961  10.632
22077W        W90407  17.584  22.209   0.778
22078W        W90408  35.917  31.912   1.862
22079W        W90409  36.936  27.529  10.604
22080W        W90410  42.514  37.032   3.332
22081W        W90411  26.459  26.668  11.902
22082W        W90412  11.244  22.651   1.768
22083W        W90413   3.257  23.693   3.751
22084W        W90414  20.555  38.462   1.229
22085W        W90415   7.383  35.985   1.262
22086W        W90416  10.171  22.162   4.706
22087W        W90417  29.509  15.591   1.248
22088W        W90418  43.988   7.250  14.897
22089W        W90419   8.716  12.328  11.120
22090W        W90420  10.319  26.483   4.172
22091W        W90421   0.773  28.646  13.837
22092W        W90422  29.028  41.037  14.010
22093W        W90423   5.357   6.705   0.903
22094W        W90424  28.109  16.284   3.338
22095W        W90425   9.690  26.189  14.475
22096W        W90426  38.338  36.504  10.605
22097W        W90427   1.359  16.783   2.773
22098W        W90428  28.945  22.505  14.447
22099W        W90429  11.855  18.740  13.459
22100W        W90430  21.680  15.323   0.295
22101W        W90431   2.728  20.541   1.349
22102W        W90432   0.770  11.723  10.533
22103W        W90433  15.302  20.604   3.292
22104W        W90434  28.580  29.172   0.847
22105W        W90435   3.838  35.985   1.291
22106W        W90436   1.843  28.669  12.044
22107W        W90437  17.761  31.645   3.244
22108W        W90438  26.692  22.169  11.862
22109W        W90439  35.456  39.536  11.487
22110W        W90440  25.529  25.152   2.764
22111W        W90441  37.987   2.286  14.351
22112W        W90442  44.431  30.477   2.383
22113W        W90443   2.835  19.760  11.607
22114W        W90444  38.372  40.020   4.789
22115W        W90445  11.626  44.428   1.849
22116W        W90446   5.898  32.032   2.306
22117W        W90447  31.093  25.056   5.288
22118W        W90448  36.858  21.083  11.469
22119W        W90449   9.268   3.328   3.376
22120W        W90450  10.281  12.711   3.349
22121W        W90451  28.177   0.482  13.421
22122W        W90452  20.551  29.046   0.895
22123W        W90453  21.704  27.607   2.789
22124W        W90454  24.666  18.056   4.304
22125W        W90455   8.177  38.842  13.978
22126W        W90456  42.503  40.893   2.838
22127W        W90457   8.216  21.670   2.887
22128W        W90458  19.196  33.093  10.645
22129W        W90459  23.001  44.294   3.326
22130W        W90460   0.850   1.346   2.776
22131W        W90461  30.451  27.061   3.182
22132W        W90462   0.966  22.676  12.023
22133W        W90463  14.176  17.668  11.890
22134W        W90464  18.704   5.828  11.515
22135W        W90465  28.527   3.249   2.310
22136W        W90466   4.208  36.985   4.709
22137W        W90467  10.138  40.903  14.456
22138W        W90468   7.279  12.154  14.348
22139W        W90469   0.418  42.403  10.523
22140W        W90470  33.022  25.690  12.998
22141W        W90471  39.019   1.306  10.520
22142W        W90472  27.584  42.893  10.941
22143W        W90473   6.229   8.189  12.472
22144W        W90474  16.091  10.784  14.776
22145W        W90475  10.675  42.496  14.997
22146W        W90476  32.563   5.712   1.733
22147W        W90477  30.120  10.344  10.629
22148W        W90478  16.577  43.385  12.843
22149W        W90479   2.732  26.128   2.859
22150W        W90480  44.785  37.015   1.803
22151W        W90481  16.804  24.212  12.406
22152W        W90482   9.226  24.074  13.961
22153W        W90483  41.448  37.521  14.858
22154W        W90484   0.811  11.665  13.895
22155W        W90485  11.635   3.793   2.416
22156W        W90486  24.130  43.324   2.375
22157W        W90487  32.131  14.709  14.366
22158W        W90488   5.811  42.395   2.834
22159W        W90489  37.456  16.182  13.887
22160W        W90490  40.929  13.840  13.018
22161W        W90491   8.376  13.631  11.496
22162W        W90492  24.491  16.195   2.238
22163W        W90493  13.752  39.317   3.711
22164W        W90494  37.835  10.807   2.786
22165W        W90495  38.004   8.677  11.894
22166W        W90496  42.936   5.287  11.056
22167W        W90497  28.016  33.938   9.677
22168W        W90498  40.027  29.152   2.203
22169W        W90499  34.041  21.155  14.435
22170W        W90500  22.220  10.163   4.126
22171W        W90501  34.574  21.544  10.504
22172W        W90502  31.052  29.490  14.953
22173W        W90503  40.369  15.293  10.600
22174W        W90504  15.760  32.937   3.179
22175W        W90505  23.514   8.846  11.458
22176W        W90506  14.315  25.666  10.583
22177W        W90507  17.282  15.109  13.005
22178W        W90508  25.686  21.600  11.104
22179W        W90509  28.066  24.055  14.761
22180W        W90510  17.159   4.761  10.994
22181W        W90511  42.848   3.259   0.288
22182W        W90512  14.768  41.824  13.496
22183W        W90513  44.886  33.439   1.312
22184W        W90514  24.165  28.461  12.882
22185W        W90515  21.058  24.036  11.103
22186W        W90516   0.386  38.556  13.823
22187W        W90517  36.044   1.915   0.369
22188W        W90518   5.893  21.745   4.727
22189W        W90519  38.356   9.720  14.850
22190W        W90520  12.645   6.710   4.282
22191W        W90521  40.517   4.445   3.329
22192W        W90522  14.730  22.654  11.608
22193W        W90523   3.312  15.269   3.742
22194W        W90524  43.349  16.241  13.425
22195W        W90525  21.530  13.845   0.924
22196W        W90526   4.762   6.862  11.543
22197W        W90527  21.668  38.417  14.941
22198W        W90528  20.169   7.828  11.960
22199W        W90529  25.538  42.339   1.354
22200W        W90530  32.042   2.848   2.841
22201W        W90531  20.197  19.727   5.109
22202W        W90532  11.184  28.491   2.355
22203W        W90533  41.404  30.593  12.355
22204W        W90534  44.947  42.295  13.952
22205W        W90535  42.832  18.709   3.768
22206W        W90536  17.083  12.796   1.268
22207W        W90537  26.058   6.735   0.251
22208W        W90538  10.645  24.627  11.556
22209W        W90539  16.315   1.240   1.368
22210W        W90540  14.268  27.953  14.892
22211W        W90541  40.018  29.479  14.424
22212W        W90542  39.539  40.834   2.314
22213W        W90543  19.766  39.897  11.474
22214W        W90544  20.236   1.349  14.916
22215W        W90545   0.890  35.442   0.861
22216W        W90546  29.945  22.213  14.947
22217W        W90547  21.585  41.019  13.850
22218W        W90548  42.359  21.122  14.804
22219W        W90549  44.987  30.123   0.396
22220W        W90550  39.427  17.259   2.860
22221W        W90551  37.445  14.605   1.754
22222W        W90552  25.992  11.207   1.732
22223W        W90553  42.512  34.960   4.770
22224W        W90554   2.393  34.896   2.309
22225W        W90555   7.411  13.763  11.481
22226W        W90556   0.961   5.837   1.439
22227W        W90557  37.534   0.415  11.522
22228W        W90558  27.000  15.108   1.839
22229W        W90559  42.797   7.396  11.485
22230W        W90560  11.642  10.689   1.857
22231W        W90561  43.431  31.100   4.685
22232W        W90562  44.882  22.587  11.056
22233W        W90563   5.805  13.333   1.227
22234W        W90564   6.182  28.185  11.119
22235W        W90565  12.676  16.097   2.854
22236W        W90566  28.039  44.441   4.645
22237W        W90567  29.456  42.430   4.724
22238W        W90568  44.269  36.393   2.242
22239W        W90569  43.445  34.084   1.372
22240W        W90570  27.138  18.668   2.370
22241W        W90571   1.263  42.379  12.909
22242W        W90572  25.485  36.038   2.736
22243W        W90573  24.687  44.321  13.026
22244W        W90574  16.598  30.938   0.365
22245W        W90575  26.626  25.566   3.867
22246W        W90576  30.989  27.948   0.411
22247W        W90577   6.842  30.594  11.115
22248W        W90578  27.034  27.490  10.474
22249W        W90579  27.987  42.359  14.783
22250W        W90580  34.577  35.363   4.136
22251W        W90581  15.721   2.391  14.865
22252W        W90582  22.024  10.378  13.408
22253W        W90583   2.344  27.564  13.943
22254W        W90584  34.962  33.903  11.111
22255W        W90585  41.025  38.001   2.334
22256W        W90586  34.062  20.194   3.370
22257W        W90587  43.455  11.202  11.021
22258W        W90588  29.617  28.490   4.269
22259W        W90589   8.674  29.074  12.041
22260W        W90590   7.666  13.771  13.508
22261W        W90591   6.316  24.200  13.866
22262W        W90592  37.392   0.396  14.002
22263W        W90593  20.722   7.693   5.124
22264W        W90594  33.596  37.431  11.577
22265W        W90595  18.058  37.922   4.797
22266W        W90596  10.666  33.017   4.602
22267W        W90597  42.389  21.596   4.155
22268W        W90598  36.984  19.665   2.719
22269W        W90599  16.590  41.411  12.015
22270W        W90600   1.815   4.762  11.910
22271W        W90601   0.759  38.893  13.802
22272W        W90602   8.360  25.647  11.485
22273W        W90603  31.029   4.385  13.439
22274W        W90604  42.813   6.791  13.521
22275W        W90605  36.077  41.011  10.516
22276W        W90606   0.494   4.226   0.290
22277W        W90607  23.624  32.434   2.225
22278W        W90608  13.833  43.318  14.921
22279W        W90609  12.303   4.314   2.208
22280W        W90610  43.440   8.660   0.244
22281W        W90611  39.377  29.616   3.171
22282W        W90612   1.430   1.378  13.832
22283W        W90613   6.426  23.224  12.518
22284W        W90614  35.404  29.156   2.205
22285W        W90615  25.050  28.013   3.691
22286W        W90616  35.546  15.229   4.656
22287W        W90617  40.000   6.314  11.521
22288W        W90618  40.830  29.540   0.438
22289W        W90619  25.630   5.381   1.269
22290W        W90620  21.753  29.608   4.160
22291W        W90621  34.010  37.030  10.963
22292W        W90622  39.957  29.077   0.838
22293W        W90623  22.609  10.182   5.201
22294W        W90624   8.183  17.790   0.813
22295W        W90625   8.672  22.248   2.732
22296W        W90626  36.547  42.860   3.716
22297W        W90627   7.236  24.596   2.668
22298W        W90628  15.677  32.545  13.876
22299W        W90629  18.764  30.582  12.479
22300W        W90630  44.369  10.241   4.285
22301W        W90631   3.760  30.117   3.795
22302W        W90632  28.508   7.401  11.454
22303W        W90633  30.592   0.745  12.871
22304W        W90634  37.956  16.588   2.762
22305W        W90635   6.195   3.710  14.849
22306W        W90636  17.610  13.619  13.451
22307W        W90637  42.839  32.611   5.215
22308W        W90638  34.890   4.811   5.292
22309W        W90639  29.535   3.397  11.117
22310W        W90640  30.093  22.643  14.920
22311W        W90641  23.652   3.275  14.379
22312W        W90642  28.647  31.925   0.767
22313W        W90643  19.128  21.619   3.302
22314W        W90644  22.201  39.489  12.936
22315W        W90645   9.320  42.327   4.333
22316W        W90646  28.054  38.371   2.696
22317W        W90647  32.515  22.060   2.374
22318W        W90648  31.540  13.236  12.491
22319W        W90649   4.895  15.632  10.408
22320W        W90650   8.322   4.742   3.209
22321W        W90651  20.094  25.985   3.751
22322W        W90652  41.937  38.974  12.449
22323W        W90653  25.537   1.401  11.095
22324W        W90654  41.960  22.236   3.203
22325W        W90655  26.019  44.984  10.929
22326W        W90656  27.991  22.709   4.655
22327W        W90657  15.224  38.060  11.382
22328W        W90658   2.732  17.068   4.188
22329W        W90659  40.991  12.753   0.967
22330W        W90660   6.822   2.291   3.261
22331W        W90661   8.808   5.249  14.024
22332W        W90662  40.342   8.252   0.317
22333W        W90663   0.959  42.905  11.999
22334W        W90664  11.230  10.818   4.808
22335W        W90665  22.545  18.770   1.720
22336W        W90666  18.789  23.077   5.137
22337W        W90667  30.953  13.112   2.818
22338W        W90668   8.396  13.823   0.912
22339W        W90669  28.130  12.700  14.904
22340W        W90670  36.954  44.382   0.803
22341W        W90671  19.567  28.567   1.931
22342W        W90672  31.906  19.568   0.876
22343W        W90673   8.735  27.597   2.314
22344W        W90674  28.598   8.330  14.472
22345W        W90675   9.726  15.805  12.396
22346W        W90676  33.039  24.179   3.208
22347W        W90677  35.438  18.570   3.209
22348W        W90678  42.315  35.032   2.218
22349W        W90679  30.010  40.957  11.533
22350W        W90680   0.474  41.391  13.806
22351W        W90681   7.901  15.213   1.712
22352W        W90682  27.943  24.218  11.416
22353W        W90683  13.347  20.603  11.021
22354W        W90684  41.813  23.663  14.920
22355W        W90685  21.535  19.280   2.381
22356W        W90686  21.569  32.561   4.313
22357W        W90687  43.971  36.486  13.837
22358W        W90688  29.651   1.303   2.404
22359W        W90689  44.947  23.230  14.997
22360W        W90690  10.174   9.688  14.455
22361W        W90691   6.892  10.870   0.968
22362W        W90692  28.119  32.511   2.807
22363W        W90693  21.539   7.871  12.375
22364W        W90694  34.912  23.572  11.020
22365W        W90695   7.208   9.660   3.646
22366W        W90696   2.349  24.499   4.727
22367W        W90697  34.919   8.657   5.247
22368W        W90698  20.639   5.772  14.763
22369W        W90699  19.732  34.036   1.895
22370W        W90700   4.906   0.415   0.469
22371W        W90701  14.308  28.185   1.446
22372W        W90702  32.977  27.515  11.548
22373W        W90703  35.589  30.618   1.389
22374W        W90704  36.062  25.689  13.312
22375W        W90705  26.470   2.319   2.801
22376W        W90706  41.530  34.088  10.576
22377W        W90707   0.872  22.108  13.829
22378W        W90708  17.665  25.092   0.811
22379W        W90709  11.671  16.589  11.470
22380W        W90710  34.972   9.737  10.913
22381W        W90711  29.580  13.203   4.290
22382W        W90712  43.928   4.701   2.786
22383W        W90713  25.616  13.109  14.974
22384W        W90714  14.159  21.182   4.126
22385W        W90715  42.904  17.293  13.516
22386W        W90716  27.181   0.818  12.518
22387W        W90717  24.589  42.871  14.370
22388W        W90718   6.828  12.620   4.831
22389W        W90719  27.106  20.067   0.850
22390W        W90720  41.472  23.545   0.245
22391W        W90721  10.856  16.171  11.871
22392W        W90722  36.435  37.832   3.849
22393W        W90723  14.229   3.282   3.734
22394W        W90724  40.411  20.262   2.234
22395W        W90725   0.817   6.876  14.352
22396W        W90726   5.382  10.709  12.362
22397W        W90727  26.072  17.236   3.205
22398W        W90728  32.616  22.516   4.227
22399W        W90729  20.630  19.131   0.343
22400W        W90730  22.583  25.135   2.896
22401W        W90731   0.294  23.181   0.381
22402W        W90732  13.189  38.531  11.406
22403W        W90733  17.067  42.923   0.930
22404W        W90734  18.220  27.509   2.245
22405W        W90735   0.971  42.327   0.748
22406W        W90736   5.727  26.647  11.877
22407W        W90737  17.732  32.406   1.916
22408W        W90738  21.629   9.737   1.256
22409W        W90739  19.270   8.822  14.768
22410W        W90740  17.591  25.630   2.366
22411W        W90741   5.738  22.586  11.041
22412W        W90742  35.078  11.360   0.244
22413W        W90743  30.504  39.530   2.709
22414W        W90744  28.657  31.594  14.285
22415W        W90745   5.691  21.238   1.297
22416W        W90746   3.327   9.874   4.180
22417W        W90747   1.274  39.041   1.731
22418W        W90748   5.221  43.294  14.890
22419W        W90749  38.556  32.904  11.526
22420W        W90750   4.761   3.258  10.489
22421W        W90751  18.697  35.900   5.210
22422W        W90752   1.885  18.694   0.904
22423W        W90753  26.205   4.240   1.344
22424W        W90754  29.918   2.339   4.752
22425W        W90755  10.252  23.657  13.890
22426W        W90756  13.248   7.741   3.755
22427W        W90757  15.309  19.241  11.384
22428W        W90758  14.271  14.277   4.329
22429W        W90759   0.367  24.058   0.306
22430W        W90760  44.501  24.175  13.883
22431W        W90761  27.996   6.868   0.470
22432W        W90762  13.339   9.860  11.888
22433W        W90763  20.711  15.778   0.887
22434W        W90764   3.395  27.033  14.912
22435W        W90765  44.477   4.761  10.135
22436W        W90766   1.295  16.669  14.810
22437W        W90767   6.279  37.067   3.176
22438W        W90768  32.540  43.515  12.577
22439W        W90769   5.860  22.037   2.780
22440W        W90770   5.304  27.027   1.344
22441W        W90771  15.244  36.026   4.273
22442W        W90772  42.781  40.969  10.912
22443W        W90773   7.864   4.312  11.068
22444W        W90774  12.669  42.918   3.797
22445W        W90775  22.150   7.300   0.247
22446W        W90776  12.854  11.724  14.877
22447W        W90777  36.976   0.441   0.788
22448W        W90778   3.356   1.423   4.600
22449W        W90779  27.010  43.379  11.396
22450W        W90780   2.900  32.044  13.329
22451W        W90781  15.299  11.671   1.299
22452W        W90782  31.559  27.673   4.162
22453W        W90783  42.848   0.871  13.969
22454W        W90784  14.610   2.783  14.464
22455W        W90785  32.899  12.823   3.667
22456W        W90786  24.109  26.461  10.988
22457W        W90787  10.289  21.084   0.951
22458W        W90788   9.335  36.423  12.450
22459W        W90789   5.834  15.101   4.684
22460W        W90790  27.527   9.867   3.294
22461W        W90791  37.480  41.028   0.835
22462W        W90792  13.259  21.751   0.324
22463W        W90793   5.254  31.414   0.484
22464W        W90794   9.805   4.435  10.551
22465W        W90795  27.037  37.990  13.898
22466W        W90796   9.850  39.551   3.846
22467W        W90797  16.225  32.598   4.336
22468W        W90798  20.753  41.390  10.557
22469W        W90799  44.269   1.289  11.971
22470W        W90800  15.137  12.333  13.510
22471W        W90801  33.987   0.349   0.892
22472W        W90802  38.986   6.363  10.107
22473W        W90803  13.129  23.024  13.324
22474W        W90804  44.361   9.839   4.242
22475W        W90805  35.008  19.567  13.014
22476W        W90806  32.406   5.338  11.064
22477W        W90807  29.130  26.685  10.635
22478W        W90808   9.838  37.992  11.900
22479W        W90809  19.615  33.020   1.375
22480W        W90810   9.152  13.661  14.806
22481W        W90811  18.789  24.032  11.483
22482W        W90812  21.093  25.062  14.768
22483W        W90813  17.110  18.692   2.382
22484W        W90814  33.397   0.313   1.381
22485W        W90815   4.844  27.053  10.557
22486W        W90816  32.099  38.342  13.399
22487W        W90817   9.877  15.625  10.591
22488W        W90818  30.021  39.402  11.000
22489W        W90819   4.936  25.693   4.320
22490W        W90820  27.543   1.255   2.178
22491W        W90821  16.151  23.140   4.736
22492W        W90822  34.502  42.311   2.216
22493W        W90823   7.176  30.659  14.389
22494W        W90824  16.629  36.847   5.669
22495W        W90825  32.940  27.651  13.421
22496W        W90826  17.257  32.933   0.764
22497W        W90827  13.323   9.383  10.462
22498W        W90828  12.256  32.614   4.311
22499W        W90829   2.860  22.617  11.058
22500W        W90830  23.529   4.874  10.584
22501W        W90831   5.752  25.175   1.765
22502W        W90832  19.122  23.082   2.674
22503W        W90833   9.180   9.748  11.383
22504W        W90834   1.954  24.647  10.537
22505W        W90835  11.638  32.426   2.216
22506W        W90836   3.830  16.141   3.630
22507W        W90837  35.110  11.720  10.476
22508W        W90838  23.175   9.245  13.894
22509W        W90839  29.620  42.455  12.546
22510W        W90840  30.091  39.025  10.501
22511W        W90841  41.015  43.309  14.015
22512W        W90842  11.328  15.798  10.457
22513W        W90843  42.967  41.378  13.334
22514W        W90844  30.942   2.728  11.066
22515W        W90845  17.259  37.570  14.981
22516W        W90846  42.480  13.735  12.503
22517W        W90847  27.667  34.403  12.552
22518W        W90848  23.110   1.922  11.061
22519W        W90849  34.111   5.756   1.410
22520W        W90850  38.029  40.800  14.766
22521W        W90851  33.890  42.953   0.302
22522W        W90852  27.060   0.436   4.777
22523W        W90853  21.171  11.814   1.411
22524W        W90854  26.183  21.605  14.399
22525W        W90855  19.078   8.330   0.361
22526W        W90856  39.452  25.492  11.028
22527W        W90857  15.191  35.604  10.536
22528W        W90858   6.270   2.388   2.675
22529W        W90859  32.537   7.203   3.336
22530W        W90860  14.664   7.261  13.422
22531W        W90861   1.819   2.443   1.841
22532W        W90862  20.655  30.000  13.903
22533W        W90863   4.912  24.200   1.319
22534W        W90864   0.930   3.727  14.352
22535W        W90865  32.573   3.783  14.878
22536W        W90866  14.637  39.530   0.736
22537W        W90867   4.414  31.503   1.373
22538W        W90868  40.468  18.241  11.922
22539W        W90869   3.340   3.339   3.870
22540W        W90870  18.238  38.541   1.799
22541W        W90871  12.725  35.002   4.207
22542W        W90872  34.427  16.247   3.689
22543W        W90873  26.565   6.393  10.955
22544W        W90874  31.084  35.008   2.780
22545W        W90875   3.321  25.475   4.805
22546W        W90876  36.081  10.311  11.117
22547W        W90877  40.546  38.544   1.306
22548W        W90878  39.332   9.394  11.591
22549W        W90879  22.637   0.460   3.781
22550W        W90880  15.599  30.561  11.479
22551W        W90881  11.677   2.421   3.191
22552W        W90882   8.792  34.927  11.402
22553W        W90883  21.097  27.197  13.969
22554W        W90884  19.694  41.905   5.181
22555W        W90885  39.889  31.414   1.444
22556W        W90886  34.538   4.868   2.768
22557W        W90887  12.815  22.674   4.186
22558W        W90888  37.952  29.126  14.913
22559W        W90889   0.796  24.663  13.434
22560W        W90890  42.350  20.716  13.307
22561W        W90891  12.774   8.251  12.897
22562W        W90892   2.374  30.592  10.551
22563W        W90893  24.543  16.139   1.306
22564W        W90894  37.340  37.536  13.332
22565W        W90895  28.522   3.855   0.374
22566W        W90896  27.662  18.648  11.578
22567W        W90897  36.463  14.227   1.299
22568W        W90898  13.178  37.024   1.695
22569W        W90899  18.076  16.642  12.831
22570W        W90900  10.160  10.221   0.931
22571W        W90901  13.146  38.548  13.888
22572W        W90902   2.326  21.706  14.509
22573W        W90903  39.482  24.536   0.814
22574W        W90904  17.162  17.246   9.928
22575W        W90905  39.912  44.922  12.340
22576W        W90906  33.986  29.072  10.460
22577W        W90907   8.221   1.956  11.603
22578W        W90908   0.359  18.554   0.297
22579W        W90909  24.690  15.720  10.138
22580W        W90910   5.878  34.075  11.388
22581W        W90911  27.190   4.798  14.283
22582W        W90912  16.316  44.332   2.383
22583W        W90913  14.218  31.426   2.724
22584W        W90914  38.992   1.342   3.178
22585W        W90915  44.968  34.044  12.541
22586W        W90916  11.765   6.725  13.415
22587W        W90917  19.645   5.829  14.027
22588W        W90918  15.177  27.484   4.182
22589W        W90919  41.028  16.685  12.347
22590W        W90920   8.169  36.909   0.879
22591W        W90921  20.652  32.987   2.785
22592W        W90922  26.006  24.176   1.295
22593W        W90923  26.524  37.046   1.366
22594W        W90924  40.432  33.020  14.032
22595W        W90925  43.295  44.394   4.790
22596W        W90926  38.827  37.431   3.379
22597W        W90927  35.985   2.737   4.137
22598W        W90928  13.696  26.122   3.154
22599W        W90929   1.400  20.220   4.239
22600W        W90930  27.502  17.242   3.752
22601W        W90931  12.318  36.495   0.311
22602W        W90932   7.719  33.031   0.936
22603W        W90933  34.926   8.193  14.977
22604W        W90934  22.144  23.037  13.975
22605W        W90935  10.809   1.321   1.927
22606W        W90936   8.795  31.918   3.785
22607W        W90937   4.875  41.852  10.408
22608W        W90938  43.407  39.506   2.419
22609W        W90939   8.781  21.692   5.172
22610W        W90940   0.488  34.442  14.945
22611W        W90941   4.352  36.408   2.413
22612W        W90942   7.417  14.650   4.679
22613W        W90943   4.390  25.003   3.756
22614W        W90944  12.270  24.704   3.671
22615W        W90945  19.072  40.438  14.502
22616W        W90946  15.194  20.763   1.705
22617W        W90947  41.991  32.568  12.512
22618W        W90948  43.774  13.638  14.345
22619W        W90949   9.237   8.208  12.481
22620W        W90950  11.706   0.466   4.638
22621W        W90951  21.088  36.442   4.123
22622W        W90952   9.329  21.689  12.072
22623W        W90953  18.695   6.343   2.250
22624W        W90954  39.394  15.753   4.122
22625W        W90955  35.558  26.099   4.696
22626W        W90956  20.149  14.100   2.355
22627W        W90957  25.554  10.768  14.963
22628W        W90958   2.854  18.653   1.427
22629W        W90959   4.759  22.040   0.395
22630W        W90960  18.694   1.288   0.308
22631W        W90961  25.017  36.001  11.588
22632W        W90962   6.884  12.613   1.743
22633W        W90963  31.912  24.033   0.305
22634W        W90964  33.908  22.612   2.278
22635W        W90965  16.805   7.359  11.420
22636W        W90966   4.857   8.852   0.932
22637W        W90967  24.648  23.587  12.823
22638W        W90968  22.599  37.415   5.207
22639W        W90969  14.603   8.361  13.528
22640W        W90970  32.888  24.109  14.305
22641W        W90971   3.298  24.987  11.903
22642W        W90972   9.319   5.377  11.557
22643W        W90973  34.930   0.940   1.874
22644W        W90974  27.615  37.434   4.354
22645W        W90975  12.210  20.616  14.858
22646W        W90976  33.473  20.671   3.251
22647W        W90977  16.274  15.671   4.318
22648W        W90978  26.459  32.633   3.169
22649W        W90979   9.748  23.517  14.805
22650W        W90980  40.912  14.134   4.288
22651W        W90981  39.854  24.532  10.600
22652W        W90982   5.785  41.883   3.795
22653W        W90983  23.162  35.957  12.073
22654W        W90984  23.131  34.564   2.799
22655W        W90985  32.112  17.608   3.696
22656W        W90986  42.904  18.178  11.397
22657W        W90987   6.230  29.120   4.203
22658W        W90988  18.137  24.715   5.206
22659W        W90989   6.403  33.610   4.220
22660W        W90990  21.081  29.928   4.334
22661W        W90991  24.724  43.481  13.000
22662W        W90992  25.697  32.075  10.986
22663W        W90993   2.239  27.465  14.983
22664W        W90994  13.181  27.949  10.953
22665W        W90995  36.093  15.592   3.804
22666W        W90996  30.060  30.009   1.875
22667W        W90997  11.140  18.578  11.046
22668W        W90998  43.314   1.919   3.386
22669W        W90999  23.237  15.710   0.841
22670W        W91000   0.853  31.579   1.744
22671W        W91001  18.589  13.200  13.036
22672W        W91002   9.258   0.390   4.197
22673W        W91003   2.424  14.281   4.695
22674W        W91004   4.765  17.276   4.630
22675W        W91005   4.869  44.924  10.915
22676W        W91006   0.476   8.363   4.292
22677W        W91007  21.640  39.961   1.301
22678W        W91008  30.536  24.502   2.212
22679W        W91009  26.991  29.035  12.956
22680W        W91010  16.123  24.573  11.544
22681W        W91011   0.821  14.242   3.318
22682W        W91012  12.288  29.610  10.539
22683W        W91013   6.233  18.250  12.921
22684W        W91014  42.789   7.283  13.380
22685W        W91015  43.942  29.446   2.211
22686W        W91016  37.952  26.014  12.536
22687W        W91017  19.555   4.865  14.010
22688W        W91018  24.633   7.888  12.882
22689W        W91019  29.017  16.713  13.418
22690W        W91020  13.218  29.079   3.321
22691W        W91021  10.849   5.413  12.403
22692W        W91022  35.548  38.470  13.022
22693W        W91023  17.585  37.348  12.370
22694W        W91024  44.856  33.037  14.398
22695W        W91025  15.159  44.870   0.956
22696W        W91026   1.283  44.803  14.762
22697W        W91027  21.062  37.418   4.190
22698W        W91028  41.317  20.749   1.265
22699W        W91029  35.046  42.373  13.896
22700W        W91030  27.495  39.994   0.335
22701W        W91031  16.234   8.802  11.086
22702W        W91032  36.554  25.964  13.818
22703W        W91033  36.365  39.494  13.834
22704W        W91034  28.617  10.178   3.722
22705W        W91035  38.377  27.103   4.311
22706W        W91036  11.142   2.425  11.525
22707W        W91037  18.714  21.664   2.349
22708W        W91038  43.869   2.355   3.345
22709W        W91039  43.017  43.857   4.820
22710W        W91040  16.675  12.703   2.878
22711W        W91041   6.785  14.715  14.969
22712W        W91042  21.745  44.838   2.273
22713W        W91043  42.893  16.707   0.753
22714W        W91044   4.405   3.429  11.094
22715W        W91045  16.214   1.976  13.534
22716W        W91046  37.982   7.359   3.710
22717W        W91047   4.884   3.384   1.236
22718W        W91048  32.423  35.101  14.318
22719W        W91049  42.916   9.821  13.816
22720W        W91050  19.240   3.736   0.330
22721W        W91051  14.093  17.613  14.354
22722W        W91052  26.979  42.919  14.991
22723W        W91053  32.926  33.001  13.329
22724W        W91054  12.700  15.694  14.981
22725W        W91055   8.691   2.960  13.819
22726W        W91056  41.527  37.563   1.784
22727W        W91057  12.340   7.676   3.316
22728W        W91058  41.855  42.789  14.955
22729W        W91059  16.314  37.527  13.020
22730W        W91060   5.383  15.603   1.383
22731W        W91061  14.252  10.847  14.804
22732W        W91062  29.540  40.393   2.265
22733W        W91063  22.522  35.373  10.989
22734W        W91064   3.725   8.192  13.524
22735W        W91065  21.164  19.533   0.419
22736W        W91066   4.254  12.738   1.435
22737W        W91067  20.069  41.523   3.707
22738W        W91068   6.295  14.763  12.534
22739W        W91069  39.018  35.394   1.310
22740W        W91070  32.635  30.417   0.919
22741W        W91071  40.945   3.358  10.462
22742W        W91072  39.494  19.658  10.624
22743W        W91073  42.025  36.508   0.941
22744W        W91074  29.489  29.076  10.104
22745W        W91075  39.811  23.989   2.844
22746W        W91076  27.659  40.031   3.323
22747W        W91077   0.297   3.736   1.241
22748W        W91078  29.048  12.250   2.870
22749W        W91079   4.390  44.786   3.218
22750W        W91080  27.139  40.913   2.788
22751W        W91081  34.982  25.140  13.384
22752W        W91082  28.143   6.909   3.700
22753W        W91083  29.103  10.821   1.293
22754W        W91084  43.373  18.222  14.798
22755W        W91085  34.451  10.186   0.769
22756W        W91086  13.827   4.317  13.980
22757W        W91087  14.668   6.901  11.004
22758W        W91088  28.645  28.980  14.833
22759W        W91089  41.502  19.630   4.729
22760W        W91090  16.160  25.680  11.567
22761W        W91091  27.975   0.862  10.455
22762W        W91092  23.594  22.644  10.519
22763W        W91093  10.300  37.465  10.999
22764W        W91094  34.098  32.036   2.334
22765W        W91095  17.303   6.736  11.904
22766W        W91096  39.322  31.918  14.317
22767W        W91097  26.560  18.673  10.408
22768W        W91098   2.318  42.796   3.306
22769W        W91099   7.904  41.298   5.102
22770W        W91100  30.142  40.955   4.618
22771W        W91101  14.681  12.146  13.414
22772W        W91102  20.608   2.950  13.004
22773W        W91103  12.663  36.853   4.616
22774W        W91104  35.582   2.239   4.272
22775W        W91105  38.934  14.315  10.524
22776W        W91106  37.877  19.699   3.275
22777W        W91107  25.542  36.555  12.965
22778W        W91108  37.056   5.385  11.447
22779W        W91109  11.791  42.902   1.785
22780W        W91110   3.278  23.146  11.430
22781W        W91111  21.160  11.255  14.505
22782W        W91112   6.304  34.891  14.497
22783W        W91113   6.835  18.771   1.316
22784W        W91114  32.583   4.414   4.346
22785W        W91115   8.306  25.201   2.330
22786W        W91116  24.126  28.097  10.515
22787W        W91117  18.726  37.520   1.268
22788W        W91118   4.435   2.373  11.864
22789W        W91119  11.700  19.221   2.769
22790W        W91120  32.422  22.543  10.152
22791W        W91121  44.962  35.423  14.313
22792W        W91122   3.794  12.229   4.806
22793W        W91123  22.548  21.693  12.958
22794W        W91124  22.108  18.234   2.712
22795W        W91125  39.049   9.786  13.499
22796W        W91126  32.554   6.708   1.892
22797W        W91127  21.721   7.703   3.811
22798W        W91128  36.543   9.721   4.216
22799W        W91129  29.129  30.575   3.691
22800W        W91130  40.873  13.145   1.900
22801W        W91131  41.331  21.215  14.405
22802W        W91132  36.498  12.124   0.458
22803W        W91133  28.117  44.267  14.510
22804W        W91134  33.008  37.054   3.199
22805W        W91135  26.669   4.826  12.877
22806W        W91136  22.217   1.942   4.657
22807W        W91137  25.158  31.500  11.094
22808W        W91138  30.413   2.357   4.648
22809W        W91139  33.599   6.366  11.058
22810W        W91140  33.002  10.224  11.501
22811W        W91141  33.395  26.589  11.519
22812W        W91142  30.083  39.825  11.892
22813W        W91143   3.791  28.939  14.364
22814W        W91144   3.807  26.516   0.865
22815W        W91145  37.077   7.364   0.917
22816W        W91146  41.327  16.689  13.805
22817W        W91147   0.770  32.068  11.095
22818W        W91148  18.284   9.811  10.599
22819W        W91149  21.659  39.921  12.993
22820W        W91150  12.647  42.856  10.996
22821W        W91151  11.170  39.491  10.491
22822W        W91152  22.591  13.632   2.418
22823W        W91153  18.097  29.430  12.577
22824W        W91154   4.766  26.033   0.890
22825W        W91155  11.285  18.192   3.272
22826W        W91156  23.523  30.589  12.010
22827W        W91157  13.820  38.372  10.609
22828W        W91158  25.584   0.918   2.776
22829W        W91159  24.695  22.197   4.143
22830W        W91160  38.439  13.197   2.282
22831W        W91161  12.827   1.313   4.212
22832W        W91162  39.410  33.097   0.325
22833W        W91163   4.746  22.624   4.712
22834W        W91164  13.241   1.372   2.382
22835W        W91165  16.596  25.692  12.930
22836W        W91166   3.905  16.620  14.762
22837W        W91167  10.758  42.427   0.294
22838W        W91168  19.677  19.232  10.598
22839W        W91169  24.645  34.088   4.628
22840W        W91170   7.671  38.350   1.733
22841W        W91171  40.533  35.941  11.890
22842W        W91172   5.238   0.355  11.563
22843W        W91173  26.011  28.144   0.869
22844W        W91174   4.291  33.043   2.297
22845W        W91175  12.843  28.678   3.293
22846W        W91176  43.801  28.565   0.918
22847W        W91177  16.790   3.400  13.419
22848W        W91178  27.175  26.513   1.416
22849W        W91179  33.972  20.251   0.402
22850W        W91180   8.176  13.649   1.301
22851W        W91181  30.128  33.983  13.473
22852W        W91182   3.299  27.603  14.493
22853W        W91183  42.343  31.148  12.048
22854W        W91184  30.429  22.181  14.794
22855W        W91185  22.237  20.219  12.855
22856W        W91186  34.009  41.342  12.485
22857W        W91187  12.738  38.527   1.451
22858W        W91188  23.549  18.247  12.918
22859W        W91189  29.158   8.787   0.768
22860W        W91190  31.461   2.964  13.964
22861W        W91191  19.130  39.025  14.455
22862W        W91192  20.568  16.246  14.926
22863W        W91193  40.318  18.564  12.022
22864W        W91194  13.785   4.904  14.778
22865W        W91195   0.907  30.498  10.427
22866W        W91196   7.788  42.953  11.545
22867W        W91197  34.566  39.514  14.454
22868W        W91198  30.050  16.608  13.498
22869W        W91199  29.442  40.483   2.898
22870W        W91200  39.845   5.906  11.109
22871W        W91201  10.255  27.641  12.543
22872W        W91202  36.399   9.295   1.761
22873W        W91203   4.327   7.272  13.518
22874W        W91204  37.483  42.291   3.361
22875W        W91205  43.989   7.879   3.770
22876W        W91206  22.531  42.523  13.818
22877W        W91207  22.742  21.037  11.494
22878W        W91208  27.545  39.012  13.987
22879W        W91209   7.237  39.959  10.934
22880W        W91210  20.113   6.344  12.437
22881W        W91211   7.771  18.256   3.240
22882W        W91212  17.578  36.880  11.536
22883W        W91213  18.578  24.653  12.492
22884W        W91214   9.304  39.533   0.313
22885W        W91215   2.830  40.945  13.968
22886W        W91216  16.102  14.686  10.984
22887W        W91217  11.356   3.328  12.901
22888W        W91218  10.861   4.332  12.372
22889W        W91219  12.139  29.986   2.844
22890W        W91220  19.773  13.623  14.909
22891W        W91221   3.767  23.497   2.291
22892W        W91222  19.646  15.184   0.905
22893W        W91223  27.053  43.516   3.376
22894W        W91224  40.939  12.192   1.442
22895W        W91225  24.642   7.902   2.732
22896W        W91226  12.811  29.653  13.011
22897W        W91227  30.999  16.661   3.654
22898W        W91228  30.079  21.121   2.297
22899W        W91229  13.187  38.442   3.260
22900W        W91230  28.052   8.779  13.888
22901W        W91231   1.289   1.243  14.421
22902W        W91232  20.741  39.325   0.956
22903W        W91233  10.375   1.310  10.496
22904W        W91234  32.442   3.767  13.481
22905W        W91235  38.492   8.168  13.039
22906W        W91236  34.510   7.763   1.321
22907W        W91237   3.351  33.512   3.670
22908W        W91238   4.312  14.674   3.280
22909W        W91239  13.744  31.504  12.485
22910W        W91240   1.420  17.700  13.852
22911W        W91241  12.853  38.489  10.640
22912W        W91242   9.758   1.240  13.346
22913W        W91243   1.895  21.065  11.897
22914W        W91244  37.536  34.530   3.863
22915W        W91245  30.559  24.110   1.794
22916W        W91246   1.374  16.161   1.741
22917W        W91247  30.639  39.038  11.475
22918W        W91248  13.305  42.914   0.809
22919W        W91249  22.092  37.571  10.541
22920W        W91250  16.268   4.733   0.391
22921W        W91251  30.148  15.729  11.982
22922W        W91252   5.737  30.142   1.759
22923W        W91253  10.660   0.791  14.285
22924W        W91254  44.835  23.055  11.941
22925W        W91255  39.530  13.219  10.624
22926W        W91256  10.322   1.250   0.343
22927W        W91257  24.659  20.207  11.406
22928W        W91258  33.053   5.695  12.932
22929W        W91259   2.837  33.432  13.863
22930W        W91260  29.023   6.291   2.385
22931W        W91261   1.928  38.411   2.710
22932W        W91262  15.698   4.389  12.408
22933W        W91263   3.456  28.952  12.850
22934W        W91264  28.638  43.018   0.758
22935W        W91265  14.646  21.746   4.117
22936W        W91266  41.440  12.731   1.412
22937W        W91267   2.246  31.426   2.876
22938W        W91268  37.447  31.117  12.885
22939W        W91269  36.458  34.501   1.293
22940W        W91270  20.127   6.405  11.451
22941W        W91271  44.403  20.572  12.448
22942W        W91272  29.481  17.649   1.827
22943W        W91273   0.337  41.432   4.697
22944W        W91274  14.819  40.843  12.004
22945W        W91275  18.238  15.772  12.346
22946W        W91276  29.104   3.313  14.024
22947W        W91277  17.170  44.857   2.385
22948W        W91278  13.758  36.951   2.217
22949W        W91279  17.692  44.478  12.512
22950W        W91280  22.068  28.476  12.471
22951W        W91281  30.071  37.541   1.311
22952W        W91282  13.220  24.158   2.411
22953W        W91283  44.840  24.515   1.448
22954W        W91284  30.505  20.190   0.820
22955W        W91285  35.859  22.662  13.037
22956W        W91286  36.540  30.111  13.351
22957W        W91287   7.249  32.428   2.836
22958W        W91288  31.004  44.877   0.445
22959W        W91289   8.778   0.881  14.774
22960W        W91290  38.050  37.883   0.746
22961W        W91291  36.040  12.224  13.504
22962W        W91292  33.898  14.329  14.883
22963W        W91293   3.431  39.012   9.453
22964W        W91294  31.098  39.436  14.410
22965W        W91295  34.064  36.420  11.411
22966W        W91296  25.176  24.039  14.434
22967W        W91297   2.771  39.987   2.869
22968W        W91298  41.981  31.495  12.025
22969W        W91299  25.208  30.606   3.155
22970W        W91300  18.704  16.277   0.947
22971W        W91301  11.130   0.982   4.795
22972W        W91302  26.144  15.306  10.497
22973W        W91303   9.207  29.431  10.945
22974W        W91304  10.379  30.432   2.225
22975W        W91305   9.235   4.757  12.050
22976W        W91306  24.224  32.898   3.149
22977W        W91307  12.322  44.996  13.941
22978W        W91308  18.658  16.124   2.388
22979W        W91309  40.356   0.777   3.268
22980W        W91310   2.914  38.397  11.924
22981W        W91311  31.081  39.353   0.400
22982W        W91312   7.775  24.582  14.808
22983W        W91313  12.724  36.049   4.339
22984W        W91314   8.889  25.174  11.599
22985W        W91315  31.539  36.577   3.242
22986W        W91316   8.716  37.455   4.674
22987W        W91317  11.686  33.502  10.555
22988W        W91318  11.638  24.130  11.091
22989W        W91319  11.362  24.078  12.021
22990W        W91320   9.809  33.126   3.268
22991W        W91321   3.299  35.877  13.357
22992W        W91322  34.414  44.904  12.378
22993W        W91323  29.463  37.551  10.924
22994W        W91324  11.783  16.677  10.021
22995W        W91325   0.300   0.906   0.819
22996W        W91326  32.910  15.760   1.847
22997W        W91327  33.532  31.609   1.726
22998W        W91328  10.364  11.341   0.363
22999W        W91329  34.869   6.192   5.303
23000W        W91330  29.044  13.172   0.462
23001W        W91331  42.905  23.057   0.410
23002W        W91332  19.652  40.390  11.916
23003W        W91333   2.722   4.711   2.310
23004W        W91334  20.106   2.423   0.323
23005W        W91335  33.444   3.433   9.964
23006W        W91336  29.118  43.493  14.490
23007W        W91337  13.788  15.252  12.480
23008W        W91338  22.669  17.193  12.508
23009W        W91339  41.974  44.496   0.300
23010W        W91340  35.035  40.852   4.722
23011W        W91341  36.561  14.624  13.501
23012W        W91342  41.843  37.053   0.447
23013W        W91343  16.254  31.940   2.792
23014W        W91344  25.509  44.356  13.346
23015W        W91345  38.974  36.370  11.381
23016W        W91346  11.717   1.410  12.445
23017W        W91347  16.233  11.282  12.082
23018W        W91348  33.051  13.235   3.386
23019W        W91349  15.277  37.394  14.758
23020W        W91350  15.644  30.923  13.017
23021W        W91351  24.555   9.224  11.990
23022W        W91352  14.282   8.756   1.428
23023W        W91353   3.358  21.125  11.096
23024W        W91354  33.486  37.023  13.813
23025W        W91355   4.941  43.907   4.717
23026W        W91356  18.077  41.927   4.762
23027W        W91357  14.305  26.169  13.016
23028W        W91358  16.152  21.755  11.876
23029W        W91359   4.784  16.269   0.349
23030W        W91360  11.196  37.962  13.056
23031W        W91361  33.093  30.505   3.834
23032W        W91362  30.534  37.396   3.166
23033W        W91363  30.120   2.820  13.421
23034W        W91364  28.511  41.323  14.969
23035W        W91365  11.779  34.980   1.735
23036W        W91366  38.326   1.392  14.928
23037W        W91367   0.937  36.396  10.602
23038W        W91368  28.560  19.608   5.100
23039W        W91369   8.230  30.582   3.263
23040W        W91370  25.563  13.308   5.207
23041W        W91371  25.098   3.348  11.037
23042W        W91372  21.531  27.175   2.259
23043W        W91373  17.078  13.656  10.896
23044W        W91374   2.409  29.658   2.882
23045W        W91375  17.713  31.421  12.528
23046W        W91376  29.497   8.286   4.317
23047W        W91377  36.975   4.391   2.897
23048W        W91378   6.340  28.177   3.207
23049W        W91379   7.322  14.795  12.862
23050W        W91380  20.274  30.001   0.837
23051W        W91381  23.113  18.144  13.977
23052W        W91382  16.684  27.616  13.446
23053W        W91383  24.620  16.587   2.786
23054W        W91384  28.515   8.193   4.749
23055W        W91385  34.902  20.640  13.910
23056W        W91386  34.119  10.859   2.304
23057W        W91387   0.895  43.353  12.445
23058W        W91388  41.986  24.489   0.427
23059W        W91389  44.500  16.711  14.906
23060W        W91390  13.829  24.634  13.976
23061W        W91391  37.532   9.824   0.477
23062W        W91392  19.596  42.949   4.173
23063W        W91393   8.270  26.959   0.287
23064W        W91394  36.580  27.606   0.935
23065W        W91395  27.650  14.691  12.826
23066W        W91396  19.251  19.641   4.671
23067W        W91397  30.463   3.789   1.247
23068W        W91398  28.526   2.933   3.818
23069W        W91399   4.871  39.979  10.073
23070W        W91400  22.999  28.958  10.619
23071W        W91401  11.673  25.600  14.365
23072W        W91402  33.009  29.545  10.644
23073W        W91403  13.772  42.970   1.425
23074W        W91404  19.740  18.248   5.225
23075W        W91405  37.582  40.862  11.970
23076W        W91406  35.896  39.348   3.744
23077W        W91407  28.132  32.576  14.441
23078W        W91408  21.638  28.023   3.749
23079W        W91409   2.860   6.728  11.868
23080W        W91410  17.684  26.525   4.670
23081W        W91411  28.929   1.853  13.451
23082W        W91412  10.860  39.497   4.264
23083W        W91413  23.536   7.842  14.345
23084W        W91414  10.763  36.364  13.883
23085W        W91415  42.400  30.132  14.462
23086W        W91416  13.134  34.895   0.774
23087W        W91417  33.609  22.157  11.536
23088W        W91418  30.477   3.941  10.466
23089W        W91419   1.822  40.835  12.095
23090W        W91420  12.718  20.662   1.779
23091W        W91421   1.820  12.697  11.901
23092W        W91422   2.387  20.059   2.867
23093W        W91423  29.956  22.738  14.382
23094W        W91424  13.152  13.635   0.829
23095W        W91425  11.829  24.076   4.709
23096W        W91426  42.824   6.687  12.502
23097W        W91427  27.059  43.861  11.440
23098W        W91428  44.991  11.649  12.504
23099W        W91429  33.453  25.546   2.785
23100W        W91430  36.968   0.769   0.790
23101W        W91431  29.517   0.383  13.989
23102W        W91432  39.994  34.443   2.847
23103W        W91433  40.391   1.253   1.756
23104W        W91434  10.776  14.128   0.776
23105W        W91435   5.261  30.624   2.418
23106W        W91436   3.817  19.078  14.911
23107W        W91437  42.789  17.274   2.198
23108W        W91438  44.846  28.642  11.457
23109W        W91439  31.428  19.664   1.712
23110W        W91440  36.009  18.637   2.753
23111W        W91441  43.338  37.890   0.879
23112W        W91442  24.642  24.097  11.014
23113W        W91443  36.385   8.766  12.356
23114W        W91444  39.026  30.974  14.408
23115W        W91445  11.801  31.056  13.326
23116W        W91446   9.728  19.138   2.337
23117W        W91447   7.232   6.742   3.298
23118W        W91448  34.478  28.557  11.430
23119W        W91449  27.565  41.460  12.981
23120W        W91450  16.247  37.004   1.223
23121W        W91451  16.664  38.383  11.453
23122W        W91452  36.048  44.874   3.666
23123W        W91453  20.680  12.660  12.528
23124W        W91454  21.724  15.781   4.609
23125W        W91455  13.333   6.256   1.434
23126W        W91456  35.582  29.017  13.332
23127W        W91457  31.531  23.721   2.720
23128W        W91458   5.887  12.631  12.035
23129W        W91459  39.854   8.800   4.241
23130W        W91460  31.510   1.454  11.477
23131W        W91461   3.374  22.691  14.434
23132W        W91462  18.092  23.013   3.639
23133W        W91463  35.883  28.636  14.945
23134W        W91464  15.135  35.012   1.736
23135W        W91465  23.196  18.216   3.174
23136W        W91466  12.692  43.338  11.036
23137W        W91467   4.311   1.374   4.248
23138W        W91468  36.481  33.479   2.854
23139W        W91469  19.174  22.715   2.788
23140W        W91470  31.076   1.242   4.140
23141W        W91471  23.526  44.505  14.405
23142W        W91472  26.495  31.546   3.839
23143W        W91473  12.355   4.887  10.562
23144W        W91474  26.657  20.651  13.349
23145W        W91475  32.933  32.609  12.067
23146W        W91476  28.559  35.930  10.578
23147W        W91477  42.937  17.110  10.546
23148W        W91478  26.101  40.924  14.022
23149W        W91479  19.593  29.585  13.366
23150W        W91480  24.596   8.332  12.910
23151W        W91481   9.857  23.635  10.935
23152W        W91482  16.074  24.673   4.212
23153W        W91483  35.059  37.978   2.729
23154W        W91484  17.167  15.312   3.349
23155W        W91485  14.816  15.126   2.802
23156W        W91486  35.013  34.979   4.614
23157W        W91487  23.689  27.958   0.816
23158W        W91488  23.621   6.899  13.459
23159W        W91489  33.115   1.373   3.654
23160W        W91490  12.656  22.639   3.209
23161W        W91491  27.151  28.994   4.722
23162W        W91492  17.772   9.379  13.470
23163W        W91493  11.749  39.500  10.916
23164W        W91494   4.753  31.423   4.779
23165W        W91495  21.718  13.838  10.550
23166W        W91496  33.478  35.376   1.305
23167W        W91497  16.733  10.323   4.811
23168W        W91498  43.956  21.089  12.381
23169W        W91499  22.525  29.039   2.283
23170W        W91500  22.579  11.652   2.850
23171W        W91501  24.102  19.276   2.245
23172W        W91502  38.355  36.370   0.313
23173W        W91503   4.419  22.596   3.769
23174W        W91504   0.333   0.438   0.740
23175W        W91505  38.947   6.193   2.212
23176W        W91506   8.760  42.526  13.800
23177W        W91507  37.518  29.465  14.453
23178W        W91508  13.721  24.144  10.426
23179W        W91509  36.024   6.782   0.858
23180W        W91510  42.390  14.626  11.377
23181W        W91511  34.405  18.716  10.621
23182W        W91512   4.297  24.229  11.555
23183W        W91513  30.940  42.980  11.466
23184W        W91514  27.539  38.075   0.379
23185W        W91515  38.902  31.117   4.691
23186W        W91516   1.738  26.527  14.868
23187W        W91517  11.145   0.744  12.358
23188W        W91518  36.026  39.380  11.432
23189W        W91519  17.268  39.541  13.330
23190W        W91520  21.565  12.312  10.607
23191W        W91521  25.598   1.822  12.070
23192W        W91522   6.919  11.272   3.190
23193W        W91523  32.486   0.447  11.873
23194W        W91524  16.101  38.330   2.190
23195W        W91525  12.772  40.996   0.829
23196W        W91526  19.269  41.936   3.291
23197W        W91527   0.775  12.711   3.349
23198W        W91528  19.719  28.595   3.800
23199W        W91529   6.747  18.128   2.719
23200W        W91530  13.243  10.237  10.016
23201W        W91531  33.405  42.884   0.282
23202W        W91532  24.041  20.693  13.876
23203W        W91533   3.448   4.401  11.605
23204W        W91534  33.597  11.289   3.647
23205W        W91535  31.994  24.157  14.902
23206W        W91536  20.647  32.053   4.284
23207W        W91537  15.089  41.500   4.214
23208W        W91538  27.526  18.561  11.919
23209W        W91539   7.271   5.195  14.985
23210W        W91540  21.027  29.982   1.825
23211W        W91541   4.899   3.753   3.343
23212W        W91542   2.279   1.761  11.524
23213W        W91543  39.935  25.707   0.251
23214W        W91544   0.965  20.578   3.237
23215W        W91545  31.125  27.975  11.994
23216W        W91546   7.831  44.337   2.719
23217W        W91547  29.575   4.707   4.131
23218W        W91548  23.154  32.583  10.614
23219W        W91549  31.998  11.364   3.335
23220W        W91550  44.796  37.919  12.912
23221W        W91551  31.152  25.981   2.226
23222W        W91552  15.119  32.400  14.347
23223W        W91553   3.394  14.241  12.428
23224W        W91554  36.906  30.640   2.761
23225W        W91555  44.918   5.899   0.967
23226W        W91556  23.673   2.764  14.885
23227W        W91557   3.451   1.244   2.291
23228W        W91558  39.907  40.421  13.371
23229W        W91559   4.374  10.782   3.273
23230W        W91560  14.142  23.715  12.446
23231W        W91561   5.232  24.976  11.475
23232W        W91562  23.619  40.003   1.920
23233W        W91563  20.231  28.474   0.296
23234W        W91564  18.622   2.417  12.830
23235W        W91565  31.020  33.113   1.857
23236W        W91566  29.076  35.358   3.178
23237W        W91567   6.288  35.009   3.383
23238W        W91568  44.333   0.867  11.094
23239W        W91569  28.947  42.956   2.696
23240W        W91570   6.344  23.573  10.063
23241W        W91571  30.424   5.336  11.913
23242W        W91572  24.197   4.932  10.574
23243W        W91573  13.802   8.715   0.768
23244W        W91574   0.899  30.588  13.496
23245W        W91575   0.494  18.059   1.800
23246W        W91576  30.145  21.166  13.064
23247W        W91577  28.143   4.726   3.266
23248W        W91578   9.816   6.772  11.963
23249W        W91579  34.983  21.229   2.874
23250W        W91580  38.546  19.232   3.679
23251W        W91581  40.836  30.451  13.522
23252W        W91582  39.955  33.452  11.565
23253W        W91583  14.112  36.453  13.460
23254W        W91584   4.236  14.094  10.929
23255W        W91585   2.379  14.309   3.753
23256W        W91586  25.555   1.838   3.153
23257W        W91587  38.001  29.019   1.364
23258W        W91588  40.827  27.134  14.404
23259W        W91589  29.487   7.882   1.300
23260W        W91590  35.861  40.935   4.156
23261W        W91591   1.278  27.101  11.968
23262W        W91592  29.658  19.696  12.910
23263W        W91593  33.910  32.042  13.850
23264W        W91594  33.567  44.488   0.447
23265W        W91595  13.822  31.447   4.299
23266W        W91596  23.159  13.324   4.347
23267W        W91597  41.337   2.803   4.613
23268W        W91598  23.618  34.425   4.345
23269W        W91599  41.025   0.823  14.907
23270W        W91600  42.406  27.997   0.333
23271W        W91601  33.122  15.191  12.503
23272W        W91602  21.578  27.998   5.269
23273W        W91603  15.245  41.846  10.934
23274W        W91604   1.309  29.010   3.660
23275W        W91605  41.328  29.571  14.763
23276W        W91606  39.925   7.350   3.794
23277W        W91607  44.272   2.824  14.972
23278W        W91608   9.304  33.982  11.969
23279W        W91609   6.365  20.584  11.611
23280W        W91610   8.785  39.913  10.407
23281W        W91611   8.761  39.440   0.762
23282W        W91612  38.987   7.727   4.290
23283W        W91613  24.143  22.245  14.397
23284W        W91614  33.393  10.234  12.011
23285W        W91615  31.080  17.605  13.474
23286W        W91616   3.803   0.266   1.831
23287W        W91617  21.551  31.450  11.924
23288W        W91618   1.776  15.263  13.341
23289W        W91619  36.525   6.724   4.743
23290W        W91620  11.713  35.542   3.744
23291W        W91621  22.024   6.921   0.349
23292W        W91622  42.306   7.742  11.058
23293W        W91623  30.507  41.534  10.989
23294W        W91624  20.527  10.311   4.288
23295W        W91625  12.742  37.060   2.828
23296W        W91626  17.720  30.016   3.852
23297W        W91627  21.657   2.784   0.739
23298W        W91628  38.436  17.194   1.235
23299W        W91629  43.275   8.728  14.309
23300W        W91630  31.012  35.398  10.595
23301W        W91631  44.885   1.257   4.141
23302W        W91632  19.750  31.102  14.860
23303W        W91633  27.123   5.753   4.253
23304W        W91634   2.864  18.149   1.822
23305W        W91635  18.289  14.140  14.774
23306W        W91636  44.489  29.505  13.966
23307W        W91637  44.345   7.306  12.081
23308W        W91638  24.081  43.515  13.986
23309W        W91639  27.477  33.609   0.863
23310W        W91640  12.323  28.633   1.246
23311W        W91641  30.549  44.397  13.047
23312W        W91642   3.312  34.392   2.349
23313W        W91643  14.831  17.262  13.933
23314W        W91644  41.314  15.697  14.337
23315W        W91645   8.273  43.373   0.880
23316W        W91646   0.270   7.344  12.021
23317W        W91647  13.772  25.033  12.353
23318W        W91648  17.161   6.710   3.672
23319W        W91649  30.641  42.910   5.161
23320W        W91650  29.497  42.982  13.340
23321W        W91651  39.048  29.472  10.528
23322W        W91652   0.434   8.718   3.743
23323W        W91653  27.179  44.809  13.336
23324W        W91654  10.704  29.025   4.161
23325W        W91655  17.645   9.702   3.671
23326W        W91656  26.553  44.260   5.136
23327W        W91657   9.305  22.604   2.662
23328W        W91658  28.546  33.478   3.771
23329W        W91659  38.422  24.715  13.036
23330W        W91660   0.358  28.127   3.243
23331W        W91661  24.003  38.062  13.864
23332W        W91662   8.244   7.280  11.544
23333W        W91663  19.602  29.669   0.462
23334W        W91664   2.451  39.447  10.463
23335W        W91665  30.498  13.795   1.846
23336W        W91666  36.467  41.342  13.808
23337W        W91667  27.994  42.370  11.499
23338W        W91668  33.996  10.735   4.673
23339W        W91669  38.886  41.872   4.310
23340W        W91670  39.508  18.101   0.950
23341W        W91671  24.108  13.734  11.977
23342W        W91672  29.480  12.307  13.488
23343W        W91673  25.708  12.187   0.770
23344W        W91674  44.300  24.159  11.543
23345W        W91675  26.051  26.462  12.344
23346W        W91676  32.922  16.273   0.413
23347W        W91677  24.179  16.580  10.446
23348W        W91678  34.426   6.894  12.093
23349W        W91679  14.104  18.741  13.431
23350W        W91680   6.353  38.369   0.920
23351W        W91681   6.308  30.496  11.860
23352W        W91682   1.382  44.903   4.645
23353W        W91683  16.772  33.583   3.810
23354W        W91684  39.050  17.599  11.959
23355W        W91685  27.943   2.460   3.357
23356W        W91686   6.717  20.028   0.764
23357W        W91687  27.099  34.090   3.688
23358W        W91688  38.443   5.891  10.495
23359W        W91689  10.264  41.431  14.397
23360W        W91690  15.583   3.432   2.186
23361W        W91691  16.662  24.503   2.877
23362W        W91692   2.325  32.615  11.918
23363W        W91693  14.225  44.465   4.342
23364W        W91694  13.756   7.338   4.162
23365W        W91695  15.299   0.859   4.810
23366W        W91696  38.484  14.725   1.381
23367W        W91697  10.296  13.137  14.425
23368W        W91698  30.929   3.439   3.211
23369W        W91699  19.174  29.648  10.580
23370W        W91700   5.792  23.017  10.950
23371W        W91701  26.073  12.610  13.425
23372W        W91702  31.118  16.606  12.386
23373W        W91703  14.810  20.150   2.785
23374W        W91704  11.640  39.326  14.850
23375W        W91705  36.083  18.115   0.818
23376W        W91706  16.580  25.158   3.160
23377W        W91707  16.206  35.518   3.309
23378W        W91708  35.952  21.248  12.956
23379W        W91709  28.087   7.308  14.930
23380W        W91710  18.625  35.467   0.421
23381W        W91711  16.220  29.171   1.699
23382W        W91712   5.848   5.765  14.894
23383W        W91713   2.277  33.990   1.251
23384W        W91714  38.851  16.743  14.888
23385W        W91715   6.368  37.350  13.334
23386W        W91716  41.346  32.070  13.061
23387W        W91717  11.699  39.822  11.463
23388W        W91718  33.109   4.756  11.580
23389W        W91719  21.168  23.076  11.455
23390W        W91720  21.537  31.513   3.346
23391W        W91721   3.280  17.218   2.403
23392W        W91722  39.454  44.000   3.177
23393W        W91723  23.013  26.465  10.432
23394W        W91724  20.042  24.105  11.453
23395W        W91725  42.786   6.711   4.736
23396W        W91726  33.408  14.250  10.955
23397W        W91727  27.019  29.940   1.758
23398W        W91728  42.350  12.127  13.055
23399W        W91729  16.249  30.610   5.203
23400W        W91730  37.575  27.133  14.511
23401W        W91731  10.156   4.420  13.395
23402W        W91732  38.377  24.025  14.854
23403W        W91733  38.023   0.405  12.347
23404W        W91734  26.118   4.402  13.489
23405W        W91735  20.749  28.578   4.327
23406W        W91736   0.452   6.918  10.473
23407W        W91737  30.455  16.787   1.888
23408W        W91738  15.581   0.859  13.347
23409W        W91739  28.946  33.124   1.705
23410W        W91740  28.163   4.304   1.852
23411W        W91741   4.830  21.651   3.716
23412W        W91742  12.228  33.004   0.745
23413W        W91743  28.995  23.646   0.728
23414W        W91744   9.382  21.248  13.881
23415W        W91745  35.541  21.171  10.897
23416W        W91746  28.105  35.490  13.383
23417W        W91747  19.534  37.439   2.392
23418W        W91748  37.445  18.078  14.297
23419W        W91749  14.810  44.005  13.850
23420W        W91750   8.198   1.451  13.891
23421W        W91751  22.118  22.549   1.365
23422W        W91752  41.383  14.619   3.670
23423W        W91753   6.695  43.976   3.768
23424W        W91754  42.829  14.142   4.314
23425W        W91755  17.129  10.828   2.837
23426W        W91756  34.521  12.693  13.528
23427W        W91757  13.837  43.894  14.835
23428W        W91758   3.753  43.853   2.216
23429W        W91759  13.224  26.999  12.564
23430W        W91760   8.755  16.091   0.278
23431W        W91761  13.249   9.771   3.187
23432W        W91762  43.985  23.507   2.358
23433W        W91763   8.803  25.555   1.783
23434W        W91764  41.843  18.286   5.289
23435W        W91765   7.686  16.119  11.119
23436W        W91766  27.474  31.078  14.372
23437W        W91767   7.832  11.839  11.889
23438W        W91768  10.278  44.420  10.526
23439W        W91769   8.686  35.507  11.414
23440W        W91770  29.463  16.314  12.049
23441W        W91771  26.143   0.928   4.152
23442W        W91772  22.534  10.713   9.921
23443W        W91773  32.474  17.680  10.507
23444W        W91774  25.494   5.839  13.347
23445W        W91775   3.822  19.548  11.551
23446W        W91776   3.850  22.086  11.020
23447W        W91777  16.707  10.235  14.312
23448W        W91778   0.386  40.957   4.306
23449W        W91779  36.053  20.661   2.373
23450W        W91780  14.278  10.669   3.847
23451W        W91781   1.756  32.989  12.995
23452W        W91782  13.702   0.906  11.957
23453W        W91783  16.746  18.241   1.894
23454W        W91784  41.890  27.944   1.350
23455W        W91785  17.089  10.333   0.338
23456W        W91786  20.528  11.650  10.928
23457W        W91787  35.872  25.701   4.291
23458W        W91788  35.601  38.481  13.515
23459W        W91789  18.577   8.873   4.659
23460W        W91790  44.339  39.871   2.361
23461W        W91791  13.245  30.001   2.213
23462W        W91792  36.064  23.192  14.983
23463W        W91793  35.423   2.441   2.305
23464W        W91794  40.027  43.881   2.215
23465W        W91795  20.179  23.095   2.178
23466W        W91796  33.543  25.159  10.425
23467W        W91797   0.755  40.809  10.536
23468W        W91798   0.895   5.434   3.319
23469W        W91799  41.388  11.337  11.538
23470W        W91800  14.207   8.313   1.734
23471W        W91801  23.149   6.222   1.810
23472W        W91802   5.385  22.037  12.463
23473W        W91803  11.176  39.452  11.593
23474W        W91804  23.686   9.843  12.421
23475W        W91805  27.498  31.486  11.493
23476W        W91806  26.187   4.911   0.270
23477W        W91807   9.747  40.013   0.953
23478W        W91808  37.950  28.126   3.674
23479W        W91809  22.591  23.500   5.136
23480W        W91810  25.005   0.474   0.855
23481W        W91811  10.652  28.059  10.625
23482W        W91812  43.507   3.872   0.475
23483W        W91813  23.570  35.486  12.985
23484W        W91814  43.950   0.287   4.216
23485W        W91815  16.765  36.576  12.874
23486W        W91816  22.637  26.005   4.123
23487W        W91817  18.132  44.001   2.750
23488W        W91818  37.063   4.409   4.726
23489W        W91819  39.027  33.916   2.841
23490W        W91820  10.170   6.343  12.370
23491W        W91821  24.112  28.559   3.362
23492W        W91822  16.200  20.705   0.463
23493W        W91823   3.337   7.682   2.370
23494W        W91824  27.028  36.842   1.272
23495W        W91825  20.202  25.663   4.732
23496W        W91826  23.085  42.359   3.805
23497W        W91827   9.310  27.573  14.848
23498W        W91828  43.440  33.924  11.914
23499W        W91829  40.332  38.853   2.881
23500W        W91830  39.510  21.094   0.910
23501W        W91831   2.232  24.082  12.875
23502W        W91832  40.451  19.115  13.004
23503W        W91833   9.705  28.476   3.341
23504W        W91834  10.227  25.630  10.536
23505W        W91835  39.896   0.866  12.405
23506W        W91836  31.462  15.104   4.222
23507W        W91837  37.945  43.888  10.444
23508W        W91838  17.157  42.880   4.691
23509W        W91839  35.491   6.302  14.874
23510W        W91840  21.744  29.966  12.559
23511W        W91841  14.261  18.192  13.064
23512W        W91842  17.617  44.812  11.424
23513W        W91843  34.926   2.338   2.182
23514W        W91844   9.658  32.636  11.422
23515W        W91845   8.656  37.485   1.887
23516W        W91846  21.666  19.760   4.343
23517W        W91847  41.873  16.253  14.997
23518W        W91848  32.577  38.903   4.141
23519W        W91849  13.716  33.005  13.832
23520W        W91850  19.612  32.525  12.882
23521W        W91851  10.686   4.414  14.329
23522W        W91852   8.381  31.923   3.676
23523W        W91853  13.787  10.343  11.457
23524W        W91854  43.858  40.044  13.831
23525W        W91855  23.006  30.634   1.910
23526W        W91856  30.916  24.603  14.476
23527W        W91857  43.496  34.012  13.419
23528W        W91858  13.695  16.809   2.190
23529W        W91859  35.422   9.713   0.286
23530W        W91860  30.534  30.471  13.541
23531W        W91861   5.371  17.690  14.510
23532W        W91862  43.875  22.084  12.545
23533W        W91863  44.852  36.583  11.923
23534W        W91864  25.614  31.910   1.360
23535W        W91865  33.449  34.077  12.095
23536W        W91866  40.004  21.674   3.373
23537W        W91867  32.994   0.844   4.155
23538W        W91868   6.884  12.761   2.861
23539W        W91869  13.613   9.395   2.314
23540W        W91870  22.579   6.911  13.441
23541W        W91871  17.126  44.899   4.644
23542W        W91872  40.038   2.871   2.265
23543W        W91873  40.460  34.569  13.991
23544W        W91874   8.780   0.335   4.684
23545W        W91875  35.025   2.465   1.792
23546W        W91876   7.762  18.733   3.686
23547W        W91877   0.802  28.554   4.124
23548W        W91878  35.523  22.586  10.585
23549W        W91879  16.731  22.051   4.751
23550W        W91880  32.626  33.959   4.313
23551W        W91881  36.428  28.623   0.351
23552W        W91882  35.990  42.799   3.722
23553W        W91883  43.794  40.545   1.385
23554W        W91884  38.036  21.124  12.385
23555W        W91885   7.270  37.458   4.723
23556W        W91886  14.736   7.306   4.160
23557W        W91887  29.528  21.084   0.429
23558W        W91888  17.143  29.461   0.911
23559W        W91889  26.099   8.230  13.362
23560W        W91890  37.430  17.635  13.342
23561W        W91891  18.295   9.787   4.339
23562W        W91892  37.550  18.239  12.341
23563W        W91893  12.696  31.142  11.021
23564W        W91894  42.309   9.658  11.959
23565W        W91895  44.006  10.142   0.385
23566W        W91896  32.610  38.063   0.947
23567W        W91897  21.639   7.379   4.614
23568W        W91898  41.474   5.282  10.609
23569W        W91899  16.206  32.510   4.757
23570W        W91900   5.366  31.134  12.007
23571W        W91901  35.473   8.822  10.544
23572W        W91902   9.812  22.151  14.353
23573W        W91903   0.435  15.236  14.353
23574W        W91904   4.736  34.448   2.825
23575W        W91905  29.474  37.452   2.372
23576W        W91906   8.694  24.489  13.490
23577W        W91907  30.133  14.810  12.571
23578W        W91908  25.061   3.883  11.122
23579W        W91909  16.098  15.638  10.564
23580W        W91910  29.951  37.537   3.157
23581W        W91911  14.619  41.307   5.280
23582W        W91912   0.808  27.534   1.390
23583W        W91913  31.964  34.022  13.462
23584W        W91914  29.070   1.899   0.257
23585W        W91915  39.315  16.226   2.282
23586W        W91916   8.399   5.805   0.395
23587W        W91917  18.714   7.186   4.838
23588W        W91918  18.274  11.341  11.029
23589W        W91919  20.633  36.022  10.549
23590W        W91920  28.662  33.081  11.436
23591W        W91921   5.313   2.733   4.130
23592W        W91922   8.360  22.618  11.452
23593W        W91923  24.070  38.545   0.392
23594W        W91924  35.537  39.550  14.803
23595W        W91925  28.490  31.571  10.519
23596W        W91926  40.044  12.806   3.779
23597W        W91927  37.429  41.299   2.368
23598W        W91928  10.682  33.010   2.699
23599W        W91929  29.573  40.832  13.999
23600W        W91930  10.665   7.384   4.332
23601W        W91931  43.423  33.039   4.114
23602W        W91932  29.651   3.352   3.850
23603W        W91933   2.282  30.535   1.375
23604W        W91934  21.523  22.635   4.271
23605W        W91935   6.806  14.689  14.357
23606W        W91936  39.547  17.085  12.549
23607W        W91937  27.999  21.656  14.011
23608W        W91938  40.415   0.901  14.379
23609W        W91939   3.939  13.751   1.361
23610W        W91940   9.842  22.554   0.873
23611W        W91941  10.235  43.323  10.443
23612W        W91942  25.160  28.932   0.873
23613W        W91943  14.681  12.726  13.455
23614W        W91944   1.763  23.104  11.868
23615W        W91945  16.293  39.524  11.080
23616W        W91946  35.881   7.360  11.438
23617W        W91947  22.702  43.012   1.327
23618W        W91948  20.709  23.069   4.775
23619W        W91949   1.398  30.916  10.898
23620W        W91950  28.522   7.700   2.828
23621W        W91951  25.095   3.369  14.007
23622W        W91952  32.957  30.569   2.343
23623W        W91953  41.329  41.038   4.127
23624W        W91954   3.315  43.810  12.499
23625W        W91955  32.542  26.204  12.841
23626W        W91956  29.584  42.777  14.920
23627W        W91957  10.743   9.226   3.290
23628W        W91958  28.150   9.838   5.681
23629W        W91959  19.224  11.745   3.368
23630W        W91960  14.306  44.289   3.855
23631W        W91961  41.977   5.356   3.384
23632W        W91962  25.156  28.595  12.047
23633W        W91963   5.222  42.458  11.081
23634W        W91964  33.986  33.914  12.364
23635W        W91965  15.680   8.793  14.005
23636W        W91966  10.380  26.608  12.436
23637W        W91967  34.927   1.748  13.862
23638W        W91968  30.483   0.344   0.815
23639W        W91969  13.679  39.473  12.084
23640W        W91970  44.759  37.522  13.801
23641W        W91971  44.309   1.908   0.897
23642W        W91972   7.766  10.374   0.378
23643W        W91973  13.234  27.497   4.177
23644W        W91974  27.074  12.833  14.012
23645W        W91975  16.679  39.886   1.226
23646W        W91976  37.004  11.679  12.010
23647W        W91977  21.714  24.490  12.946
23648W        W91978  43.791  34.910  13.315
23649W        W91979   9.721  42.410  13.423
23650W        W91980  26.511   0.289   3.336
23651W        W91981  17.306  19.537   0.290
23652W        W91982  37.029  12.140   1.737
23653W        W91983  26.954  16.616  14.789
23654W        W91984  26.170  31.133   0.395
23655W        W91985  34.965  25.607   3.711
23656W        W91986  16.079  28.014   3.707
23657W        W91987  33.108  43.904   1.737
23658W        W91988  40.490   4.807  10.586
23659W        W91989  40.502  31.153  12.866
23660W        W91990  25.490  10.239   2.838
23661W        W91991  21.700  38.401  13.493
23662W        W91992  11.176   4.887   4.724
23663W        W91993   4.700  39.892  14.928
23664W        W91994  16.778  38.488  14.981
23665W        W91995  27.035  23.599  11.588
23666W        W91996  15.165   6.252   1.849
23667W        W91997  41.016  39.975  12.400
23668W        W91998  22.560  44.453  14.939
23669W        W91999   2.406  43.818  13.020
23670W        W92000  18.267  37.896  14.402
23671W        W92001   9.689  14.275  10.453
23672W        W92002  31.058  16.243   1.857
23673W        W92003  42.813  25.575  13.502
23674W        W92004   5.356  16.769  13.019
23675W        W92005  35.857   4.342  11.404
23676W        W92006  27.068   1.958   1.760
23677W        W92007  39.402  33.123   0.778
23678W        W92008  10.203  42.308   2.400
23679W        W92009  18.622  15.786  13.801
23680W        W92010  25.682   6.389  10.421
23681W        W92011  34.445  27.136  14.999
23682W        W92012  44.440  24.154  12.359
23683W        W92013  22.135  42.357  13.896
23684W        W92014  16.662  21.590   1.407
23685W        W92015  38.440  40.454  13.408
23686W        W92016  15.222  26.653  12.450
23687W        W92017  35.012  12.357   3.154
23688W        W92018  38.865  18.116   3.650
23689W        W92019  21.588  13.730   1.309
23690W        W92020  37.918  27.145   1.930
23691W        W92021  15.163  25.600   1.430
23692W        W92022  21.535  26.576   4.713
23693W        W92023  19.683  36.503   1.694
23694W        W92024   0.400  31.951   2.234
23695W        W92025  29.543   6.800  13.446
23696W        W92026  18.626  19.664   9.945
23697W        W92027  40.397  43.828   3.211
23698W        W92028  11.638   7.393   1.223
23699W        W92029  13.605  26.954   2.415
23700W        W92030  34.588   2.797   3.373
23701W        W92031  43.896   2.468  12.048
23702W        W92032  18.615  20.540  13.439
23703W        W92033  29.664   9.856   4.119
23704W        W92034  36.032  33.476   0.887
23705W        W92035  16.672  10.804   4.660
23706W        W92036   3.850   2.300   2.378
23707W        W92037   3.875   0.296   4.613
23708W        W92038  18.765  36.469   4.203
23709W        W92039   2.825  40.812   0.436
23710W        W92040  30.916  15.203   3.804
23711W        W92041  12.228  23.504   3.209
23712W        W92042  22.612  38.389   0.750
23713W        W92043   8.373  26.552   0.822
23714W        W92044   9.663  41.514  12.848
23715W        W92045   8.383  40.455   0.860
23716W        W92046  39.473  43.940  10.498
23717W        W92047   8.194  19.630  11.092
23718W        W92048   3.376  44.288   3.869
23719W        W92049   9.252  30.910   3.218
23720W        W92050   8.165  26.986  13.803
23721W        W92051  27.079  12.742   1.242
23722W        W92052   5.716  12.681   1.740
23723W        W92053  13.639  28.525   0.391
23724W        W92054  43.335  13.279  10.513
23725W        W92055  32.992  32.501   2.775
23726W        W92056  30.072  16.240  11.121
23727W        W92057  32.036  24.038   2.872
23728W        W92058  25.048  18.714  14.939
23729W        W92059  29.641   8.834   3.674
23730W        W92060  30.524  35.952   0.968
23731W        W92061  17.104  41.010  14.946
23732W        W92062  21.538  30.068  13.990
23733W        W92063  30.539  18.065  10.556
23734W        W92064  39.334  34.405  10.606
23735W        W92065  17.214  23.157  10.115
23736W        W92066  17.260  40.384  14.832
23737W        W92067   0.331  21.069   4.202
23738W        W92068  15.634  27.687   4.297
23739W        W92069   8.751  39.503  11.407
23740W        W92070  10.711  34.491  12.342
23741W        W92071   6.691  33.503   2.252
23742W        W92072  14.771  10.833  13.843
23743W        W92073   6.871   1.460  10.441
23744W        W92074  39.338  19.055   1.435
23745W        W92075  16.154   6.806  14.908
23746W        W92076  17.065   9.281  11.403
23747W        W92077  10.316  38.553  10.489
23748W        W92078  37.836  19.691  12.384
23749W        W92079  30.160  32.453   1.403
23750W        W92080  16.809  37.344   0.301
23751W        W92081  33.096   7.253  11.516
23752W        W92082  20.163  36.010   3.164
23753W        W92083  18.569  20.274  13.397
23754W        W92084   6.719   0.431  10.408
23755W        W92085   7.323  44.410  11.944
23756W        W92086   7.323   3.358  11.880
23757W        W92087  35.048  16.639  13.475
23758W        W92088  15.207  32.426  11.012
23759W        W92089  37.405  16.091  10.535
23760W        W92090  23.676   4.233   4.786
23761W        W92091  23.670  10.785  11.489
23762W        W92092   9.342  26.654  12.903
23763W        W92093   3.876  35.467  12.339
23764W        W92094  31.106  39.812   4.597
23765W        W92095  29.576   0.397   2.869
23766W        W92096  11.204   2.856  14.277
23767W        W92097  42.890  36.505   3.752
23768W        W92098  32.029  23.692  14.805
23769W        W92099  24.530  16.709  14.911
23770W        W92100   7.406  35.028   3.798
23771W        W92101   1.957  39.428   1.413
23772W        W92102   6.756  18.126  13.831
23773W        W92103  12.625  28.517  13.394
23774W        W92104  17.782  30.524   3.281
23775W        W92105  30.968  38.924  12.865
23776W        W92106  36.500   1.350  12.824
23777W        W92107  15.747  35.466   4.294
23778W        W92108  18.656  31.433  12.428
23779W        W92109   6.318  35.558  14.783
23780W        W92110  38.522  41.465   2.736
23781W        W92111   1.482  34.601  12.934
23782W        W92112  11.627  24.525   1.366
23783W        W92113  16.271  13.199  10.580
23784W        W92114  28.541  10.649  14.945
23785W        W92115   0.757  25.612   2.275
23786W        W92116  35.502  37.533   3.733
23787W        W92117   5.865  44.914   3.673
23788W        W92118  19.174  43.435   4.717
23789W        W92119  24.167   3.875   2.358
23790W        W92120  16.769  22.706   1.314
23791W        W92121  28.629  33.387   0.950
23792W        W92122  31.134  20.646   4.190
23793W        W92123  10.143   7.669   2.879
23794W        W92124   1.932  17.734  10.939
23795W        W92125  15.198  30.631   0.275
23796W        W92126   1.812  13.611   2.665
23797W        W92127   8.181   9.230  12.518
23798W        W92128  44.265  38.072  12.906
23799W        W92129  34.395   9.691   1.934
23800W        W92130  43.317  35.422  11.010
23801W        W92131  29.967  39.431  14.992
23802W        W92132   7.369  13.815   2.748
23803W        W92133  42.323  16.635  13.830
23804W        W92134   1.899  44.279  12.493
23805W        W92135  12.787  31.965   4.183
23806W        W92136  31.016  39.343   1.302
23807W        W92137  27.536  34.453  11.103
23808W        W92138   9.316  34.992  10.937
23809W        W92139  20.554  20.258   4.662
23810W        W92140   8.659  14.292   2.696
23811W        W92141   6.416  15.307  12.893
23812W        W92142  25.086   5.411  10.999
23813W        W92143  10.641   7.813  10.990
23814W        W92144   5.702  11.651  13.501
23815W        W92145  25.513  29.002   1.287
23816W        W92146  42.456  20.673  11.870
23817W        W92147  36.073  37.378   1.750
23818W        W92148  42.433  18.738  12.466
23819W        W92149  15.326   0.987  14.424
23820W        W92150  34.938  33.519  13.805
23821W        W92151   7.808  29.590  11.384
23822W        W92152  14.300  15.169  14.888
23823W        W92153   6.204  27.682   4.722
23824W        W92154  11.316   5.795   1.856
23825W        W92155   5.438   1.403  12.347
23826W        W92156  26.193  15.329   2.306
23827W        W92157  41.322  42.941   0.368
23828W        W92158  11.317  32.080  12.510
23829W        W92159  30.466  21.570  14.476
23830W        W92160  40.029  10.806  13.919
23831W        W92161  39.490   1.309  14.978
23832W        W92162   1.268  36.456   2.410
23833W        W92163  36.495  14.154   5.241
23834W        W92164  14.144   4.303   3.213
23835W        W92165   4.786  43.372  13.446
23836W        W92166  29.980  16.707   2.892
23837W        W92167  18.649  35.866  11.375
23838W        W92168  41.337   1.304   2.885
23839W        W92169  38.968  40.917   0.946
23840W        W92170  40.543  14.763   3.858
23841W        W92171  15.736  16.716   1.701
23842W        W92172  13.109  23.988   4.346
23843W        W92173  41.816  15.732  14.993
23844W        W92174  24.015   3.227   1.316
23845W        W92175  13.124  36.912   3.741
23846W        W92176  39.014  34.037  10.491
23847W        W92177   2.856  19.706   3.301
23848W        W92178  40.921  33.979   4.724
23849W        W92179  11.167   5.209  13.829
23850W        W92180   3.820   3.907  11.970
23851W        W92181  40.037  40.853  14.767
23852W        W92182  37.017  20.180   0.730
23853W        W92183  11.819  17.102   0.819
23854W        W92184   9.676   5.706   2.806
23855W        W92185   6.411  18.119  13.397
23856W        W92186  21.665  17.152  12.031
23857W        W92187  19.141  28.489  12.514
23858W        W92188  27.049  31.036   3.385
23859W        W92189  15.244  36.427  10.893
23860W        W92190  27.168   0.922  12.004
23861W        W92191  22.572  33.999   2.716
23862W        W92192  16.724  30.582   0.787
23863W        W92193  13.194   7.306   3.348
23864W        W92194  21.593  42.876   1.223
23865W        W92195  35.461   8.746   1.405
23866W        W92196   7.788  22.158   1.403
23867W        W92197  26.192  26.522  10.543
23868W        W92198  21.573   7.827   5.093
23869W        W92199  17.590  41.855   3.767
23870W        W92200  43.468  32.401   2.874
23871W        W92201  24.601  19.678   3.293
23872W        W92202  42.973  44.280   5.309
23873W        W92203   5.278  43.511   4.755
23874W        W92204  21.048  19.179   0.881
23875W        W92205   2.292  28.675  12.546
23876W        W92206   1.429   1.266   1.270
23877W        W92207  34.077   8.668   1.718
23878W        W92208  26.468   8.781   5.148
23879W        W92209  26.043   4.943   0.857
23880W        W92210  24.158   5.420   0.832
23881W        W92211   0.863  21.238  12.501
23882W        W92212  14.258  35.095   5.101
23883W        W92213  19.616  37.528  14.980
23884W        W92214  19.687   3.770   2.842
23885W        W92215  42.458  25.131  10.557
23886W        W92216  24.158  10.807  13.317
23887W        W92217  42.460  34.563   2.682
23888W        W92218   5.277  13.303  13.431
23889W        W92219  16.203   2.782  14.458
23890W        W92220  40.007  19.644  11.588
23891W        W92221  35.908  34.872   1.794
23892W        W92222  42.804  33.918  11.464
23893W        W92223  16.658  38.345   0.919
23894W        W92224  23.991  28.944   4.675
23895W        W92225  32.900  26.538   2.376
23896W        W92226  12.143  13.615   0.370
23897W        W92227  29.442  43.855   1.285
23898W        W92228   0.308  29.075   1.802
23899W        W92229  38.890  23.161   3.653
23900W        W92230  39.063   1.270   0.732
23901W        W92231   2.965  39.502   5.188
23902W        W92232  28.117  12.138  10.974
23903W        W92233  18.153  20.664  10.506
23904W        W92234  18.232   9.788  11.541
23905W        W92235  32.061   3.375  12.355
23906W        W92236  21.701  38.336  12.548
23907W        W92237   9.238  44.951  14.478
23908W        W92238   4.698  28.044  11.044
23909W        W92239  30.052  42.297  14.831
23910W        W92240   6.781  18.197   0.270
23911W        W92241  16.276   9.311   4.350
23912W        W92242  13.758  41.947  11.882
23913W        W92243  25.974   3.405  12.835
23914W        W92244  26.094  29.102  12.938
23915W        W92245  17.133  13.796   1.317
23916W        W92246  15.324   4.921   1.214
23917W        W92247  36.979  30.028   0.885
23918W        W92248  28.169   7.780   4.639
23919W        W92249  14.697  16.702  12.868
23920W        W92250  31.933  28.568  12.483
23921W        W92251  43.403  14.145   4.650
23922W        W92252   3.786  25.021   2.883
23923W        W92253  23.621  38.888  13.010
23924W        W92254  34.405  36.061   0.475
23925W        W92255  32.016   2.399  13.004
23926W        W92256  41.009  35.416  10.630
23927W        W92257   7.763   2.360  10.480
23928W        W92258  23.070   7.382  13.935
23929W        W92259  39.898  13.767  13.412
23930W        W92260  17.656   2.258  14.309
23931W        W92261   1.932   0.379  14.969
23932W        W92262   2.321  36.496  12.889
23933W        W92263  19.284  43.350   3.720
23934W        W92264  19.249   0.460   0.251
23935W        W92265  34.018  35.375   3.861
23936W        W92266  22.584  34.412  10.622
23937W        W92267  16.600  23.158  14.338
23938W        W92268  43.412  15.703  14.773
23939W        W92269  22.238   2.446   0.396
23940W        W92270  30.036  16.617   0.860
23941W        W92271   0.404  26.142   1.387
23942W        W92272  11.179  10.363   0.473
23943W        W92273  26.082   0.779   2.780
23944W        W92274  20.155  23.138   3.757
23945W        W92275  44.323   0.491  12.973
23946W        W92276  21.211  11.731  14.021
23947W        W92277  41.973  17.146  10.429
23948W        W92278  27.581  22.528   0.296
23949W        W92279   7.827   1.802  12.856
23950W        W92280  21.195  33.028  12.350
23951W        W92281  36.532  33.412  10.573
23952W        W92282   4.289  26.132  13.009
23953W        W92283  14.767  43.365  11.122
23954W        W92284  32.068  17.181  11.875
23955W        W92285  28.611   3.415  10.488
23956W        W92286  33.412  12.762   4.313
23957W        W92287  38.466   3.821   1.328
23958W        W92288  41.333  17.649   1.354
23959W        W92289   9.291   7.272   1.702
23960W        W92290  14.671  38.958  14.029
23961W        W92291  43.008  41.976   0.810
23962W        W92292   4.322  28.086   1.422
23963W        W92293  14.110  44.857   2.213
23964W        W92294  19.687  20.735  13.434
23965W        W92295   9.833   5.424  11.111
23966W        W92296  25.475  10.190   9.447
23967W        W92297  35.412  22.642   2.846
23968W        W92298  12.332  36.898   0.283
23969W        W92299   1.890  37.030   3.148
23970W        W92300   8.890  19.738   0.314
23971W        W92301  20.064  24.686   2.669
23972W        W92302   9.749  23.994   0.483
23973W        W92303   2.924  16.305   3.817
23974W        W92304  13.773  34.387  13.540
23975W        W92305   3.276  18.276   0.361
23976W        W92306  23.143  19.593   3.652
23977W        W92307   4.777  43.351   3.772
23978W        W92308  27.168  26.044   2.287
23979W        W92309  16.791  12.694  13.972
23980W        W92310  10.285  24.717  10.581
23981W        W92311  12.803  16.172   2.352
23982W        W92312  30.015  13.320   0.818
23983W        W92313   2.409  14.248   2.726
23984W        W92314  30.104  22.250  10.591
23985W        W92315  12.331   9.326  11.936
23986W        W92316  22.134  29.160   0.375
23987W        W92317   6.390  11.238   4.273
23988W        W92318  19.777  22.656   4.762
23989W        W92319   1.923  30.924   4.623
23990W        W92320  28.120  17.151   4.192
23991W        W92321  24.123  25.004   3.217
23992W        W92322  42.402  44.307   0.347
23993W        W92323  30.090  19.689   0.483
23994W        W92324  25.966  13.776  12.913
23995W        W92325  18.267   7.245  12.992
23996W        W92326   6.708   8.394  10.441
23997W        W92327  40.451   1.266   2.761
23998W        W92328  43.313   7.184   0.429
23999W        W92329   8.244  15.302   3.780
24000W        W92330  15.686   7.236   0.743
24001W        W92331  41.979   5.412   3.662
24002W        W92332   2.924   8.263  13.451
24003W        W92333  43.975  30.524   4.718
24004W        W92334  32.068   3.397  13.811
24005W        W92335  29.524  33.043  14.317
24006W        W92336  41.899  15.287   1.273
24007W        W92337   9.684  38.979   0.261
24008W        W92338   7.831  27.447   0.293
24009W        W92339  38.919  21.675   1.727
24010W        W92340  24.067  37.545   3.282
24011W        W92341  27.027  29.576   4.623
24012W        W92342  32.067  17.107   2.230
24013W        W92343   8.890  38.971  13.863
24014W        W92344  19.642  25.623   1.428
24015W        W92345  42.338  15.234  10.448
24016W        W92346  44.286  15.247   0.891
24017W        W92347  20.650  29.071   1.804
24018W        W92348  12.285  13.761  13.007
24019W        W92349  25.062  42.987  13.041
24020W        W92350   7.366  12.171  12.482
24021W        W92351  13.609  23.647   4.170
24022W        W92352  39.554  31.915   3.798
24023W        W92353  35.399  39.038  12.366
24024W        W92354  24.056   2.941   0.385
24025W        W92355  33.052  32.121   3.634
24026W        W92356  26.471  39.970   4.214
24027W        W92357  10.353  13.144  12.850
24028W        W92358  37.006  19.121  13.484
24029W        W92359  39.357  31.048  13.062
24030W        W92360  32.475  44.425   4.281
24031W        W92361  33.418   9.150   4.164
24032W        W92362  43.828  24.635  13.841
24033W        W92363  37.426  26.092  11.875
24034W        W92364   5.421  25.171  14.006
24035W        W92365   1.391  22.189  14.407
24036W        W92366   8.863  12.655  11.863
24037W        W92367  16.789  20.525  13.963
24038W        W92368  12.693  11.750   4.785
24039W        W92369  44.420  15.771  10.637
24040W        W92370   0.381  44.458   4.195
24041W        W92371  18.068   5.752   3.361
24042W        W92372  30.090  13.310   4.161
24043W        W92373  23.665  15.214  14.304
24044W        W92374  38.073  16.696  12.567
24045W        W92375   3.863   9.277   1.221
24046W        W92376  40.930  34.877   3.634
24047W        W92377  24.511   3.372   4.220
24048W        W92378  33.889  44.933   3.228
24049W        W92379   6.309  38.852   3.192
24050W        W92380  44.363   3.445  11.577
24051W        W92381   8.864  23.147   4.344
24052W        W92382  10.256  27.610   3.855
24053W        W92383  25.185  33.881   1.836
24054W        W92384  42.521  28.450   2.829
24055W        W92385  30.466  32.910  14.820
24056W        W92386  32.584  41.907  12.363
24057W        W92387  29.147  10.255  12.917
24058W        W92388  14.230  25.663   3.836
24059W        W92389  31.111  23.186   0.856
24060W        W92390  16.215  16.200   1.249
24061W        W92391  24.652  31.541  14.966
24062W        W92392  41.823   8.728   4.144
24063W        W92393  22.226  12.820  11.939
24064W        W92394  10.281  39.875   2.732
24065W        W92395  34.904  12.128   2.810
24066W        W92396  42.429  22.565   3.338
24067W        W92397  20.071  11.770  13.941
24068W        W92398  18.287  42.486   4.780
24069W        W92399  19.285  37.880  12.398
24070W        W92400  37.877   3.379  11.938
24071W        W92401  16.679  18.174  10.907
24072W        W92402  10.206  31.414   1.323
24073W        W92403  22.708  27.690   0.270
24074W        W92404  36.016  12.727   2.757
24075W        W92405  22.652  22.680  11.419
24076W        W92406  12.204  26.105  11.058
24077W        W92407  38.527  41.483  11.079
24078W        W92408  39.036   4.289  11.912
24079W        W92409  16.144  30.032   4.200
24080W        W92410  43.419  42.513   3.284
24081W        W92411  30.461  30.603  10.406
24082W        W92412  17.213  42.923  13.803
24083W        W92413  13.136  14.784   4.239
24084W        W92414  39.956   5.877   5.178
24085W        W92415  37.932  32.097   2.832
24086W        W92416  42.994  26.119  10.986
24087W        W92417   5.344   0.927   2.259
24088W        W92418  15.180  42.384   1.242
24089W        W92419   1.733  39.539   5.137
24090W        W92420   5.352  28.507   1.214
24091W        W92421  14.338  24.552  10.437
24092W        W92422  21.700  39.388   1.878
24093W        W92423  22.007  26.106   4.614
24094W        W92424  24.060   9.766  14.352
24095W        W92425  16.757  22.546  11.610
24096W        W92426  16.745  42.500   3.360
24097W        W92427   9.157  31.422  14.376
24098W        W92428  29.510  26.609  10.117
24099W        W92429  30.591  27.676   3.767
24100W        W92430  37.087  23.986  11.934
24101W        W92431  39.418   3.943   2.245
24102W        W92432  17.194  13.203   4.619
24103W        W92433  15.085  24.103   1.327
24104W        W92434  15.090  38.571   0.265
24105W        W92435  44.772   7.777  13.346
24106W        W92436   2.891  35.020  12.380
24107W        W92437  34.973  17.754   3.768
24108W        W92438  15.799  33.046  12.062
24109W        W92439  41.014  10.300  13.895
24110W        W92440  29.488  10.808  11.017
24111W        W92441  23.539  25.142  11.435
24112W        W92442  39.929  21.748   1.806
24113W        W92443  37.442  22.092   3.753
24114W        W92444  12.746  25.544  13.060
24115W        W92445  24.192  32.140  13.530
24116W        W92446  11.319  19.779  13.007
24117W        W92447  13.122  39.416   3.740
24118W        W92448  14.670   7.199   2.327
24119W        W92449  40.413  18.639  12.440
24120W        W92450  13.666  21.704  12.356
24121W        W92451  34.894  31.534  11.905
24122W        W92452  41.840   2.405   4.687
24123W        W92453  31.432   1.922   0.790
24124W        W92454  27.012   3.818  14.924
24125W        W92455  31.648  32.137  13.481
24126W        W92456  29.995   2.776   2.819
24127W        W92457  42.375   5.921   2.296
24128W        W92458  30.429   9.349  10.558
24129W        W92459  32.040   5.221  14.816
24130W        W92460   2.897  39.509  13.358
24131W        W92461  16.281  30.480  12.538
24132W        W92462  36.071  39.429  11.962
24133W        W92463  35.905   3.411   3.698
24134W        W92464  12.823  21.695   3.187
24135W        W92465  22.733   0.968  12.508
24136W        W92466  21.219  43.792   0.384
24137W        W92467  18.676  22.025   3.152
24138W        W92468   9.191  37.061   2.269
24139W        W92469  16.667   7.739  12.343
24140W        W92470  23.721  23.142  11.412
24141W        W92471  32.105  36.921   0.955
24142W        W92472  18.717  16.743   2.377
24143W        W92473   6.922  43.442  12.058
24144W        W92474  22.185  11.645   1.855
24145W        W92475  21.115  22.105  14.898
24146W        W92476  33.091  42.960  12.843
24147W        W92477  34.416  22.143   1.384
24148W        W92478  33.551   9.153  14.758
24149W        W92479  30.051   7.686  13.796
24150W        W92480  20.634  44.413   3.850
24151W        W92481  28.544  17.178  10.623
24152W        W92482   3.441  32.580   2.841
24153W        W92483  26.137  32.546  13.374
24154W        W92484  30.938  33.451  11.957
24155W        W92485  17.598  36.935   2.261
24156W        W92486  34.541   0.337   0.772
24157W        W92487  30.430  35.053  12.851
24158W        W92488   2.357   4.820  13.464
24159W        W92489  33.443  29.526  11.970
24160W        W92490  24.041  32.477  12.388
24161W        W92491  37.891   3.222  13.541
24162W        W92492  30.151  21.184  14.819
24163W        W92493  44.890  11.815  10.535
24164W        W92494  12.687  40.390  13.937
24165W        W92495  13.619  40.869   0.865
24166W        W92496   9.165   7.319   3.681
24167W        W92497  42.001  44.916  14.767
24168W        W92498  26.591  29.629  14.492
24169W        W92499   0.794  37.582  13.542
24170W        W92500  26.978  38.441   0.741
24171W        W92501  38.508  14.281  12.396
24172W        W92502  36.934  19.713  10.405
24173W        W92503  32.969  29.645  12.489
24174W        W92504  19.189  21.635   2.300
24175W        W92505  26.474  42.777  10.045
24176W        W92506   8.892  44.311   5.140
24177W        W92507  27.177  39.871   1.343
24178W        W92508  38.889  14.732  13.792
24179W        W92509  11.240  25.704  11.877
24180W        W92510  15.760   8.267  10.412
24181W        W92511   8.690  42.397   2.732
24182W        W92512  27.564  44.400   0.787
24183W        W92513  30.436  12.121   3.145
24184W        W92514   8.217  15.686   0.337
24185W        W92515   3.784  11.735  13.975
24186W        W92516  42.875  21.194   0.797
24187W        W92517  35.926   9.295   0.315
24188W        W92518  31.539  40.308   3.727
24189W        W92519  31.956  17.124   4.632
24190W        W92520  41.488  19.658   0.807
24191W        W92521  40.016   0.271   1.745
24192W        W92522  22.200  28.437  10.609
24193W        W92523  38.557  30.444  12.380
24194W        W92524  12.694  17.151   4.606
24195W        W92525  27.587  21.022  14.446
24196W        W92526  38.942  36.515  14.799
24197W        W92527  43.449  24.014   0.424
24198W        W92528  38.992  11.190   3.856
24199W        W92529  37.411  42.453   1.433
24200W        W92530  38.050  23.136  13.028
24201W        W92531  30.955  20.129  14.414
24202W        W92532  26.041  35.374   4.677
24203W        W92533  39.058  41.802   1.898
24204W        W92534  40.964  19.678   4.240
24205W        W92535  33.609  11.285  14.434
24206W        W92536  35.379  41.950  14.952
24207W        W92537  16.640  41.952   2.897
24208W        W92538  27.519  13.147   4.185
24209W        W92539  32.629   3.396   1.322
24210W        W92540  44.379   1.768  10.550
24211W        W92541  26.012   7.264   3.204
24212W        W92542  22.641  10.238   2.756
24213W        W92543  34.865  29.520   2.294
24214W        W92544  30.095  21.242  12.005
24215W        W92545  43.466   9.327  11.050
24216W        W92546   4.882   4.271   3.680
24217W        W92547  19.622  12.211  10.555
24218W        W92548  10.161  39.506   2.827
24219W        W92549   3.241  29.003  12.340
24220W        W92550  34.953  41.966  12.859
24221W        W92551  34.519  42.501  13.413
24222W        W92552  35.906  26.457   1.446
24223W        W92553  13.691   2.788  13.389
24224W        W92554  23.736  38.917  13.464
24225W        W92555   0.920  15.595   4.127
24226W        W92556  33.531  35.360  12.504
24227W        W92557  38.979  28.592  11.490
24228W        W92558   2.419  16.216  12.427
24229W        W92559  41.349   0.794  11.950
24230W        W92560   4.354  35.577  12.404
24231W        W92561  16.738   6.235  10.543
24232W        W92562  16.784  24.099  10.160
24233W        W92563  13.787  10.857  12.964
24234W        W92564  16.773   5.248  12.012
24235W        W92565  26.613  36.444  14.307
24236W        W92566  24.530  41.508   3.709
24237W        W92567   1.810  37.534   3.385
24238W        W92568  25.208  10.645  14.938
24239W        W92569  38.883  33.969   3.372
24240W        W92570  16.318  10.348   3.290
24241W        W92571  39.386   9.789  12.498
24242W        W92572  40.885   2.855  14.514
24243W        W92573  33.419  44.369   0.813
24244W        W92574  23.091  15.740  12.422
24245W        W92575   2.853   6.322   2.292
24246W        W92576  24.564  37.949   2.257
24247W        W92577  23.196  28.168   1.846
24248W        W92578  19.109  15.121  14.962
24249W        W92579  41.403  25.095  11.488
24250W        W92580   6.186   7.820  12.851
24251W        W92581   4.268  24.179   1.778
24252W        W92582  16.643  30.482   1.240
24253W        W92583  13.130  19.641   2.855
24254W        W92584  29.925   3.222  13.530
24255W        W92585   7.295  15.120   3.211
24256W        W92586  16.195  34.904   5.282
24257W        W92587  20.106  44.340   9.927
24258W        W92588  43.858  35.556   4.312
24259W        W92589   4.744  40.973  10.901
24260W        W92590  28.940  30.156   2.412
24261W        W92591   6.245  20.230  11.002
24262W        W92592  15.798  30.654   3.205
24263W        W92593  33.573  19.237   1.403
24264W        W92594  34.084  27.637   0.444
24265W        W92595  31.149  12.737  11.038
24266W        W92596  44.480  42.012   3.824
24267W        W92597  12.199  17.141  10.942
24268W        W92598   2.743  30.419  12.843
24269W        W92599  14.774  44.816   2.750
24270W        W92600  44.786   7.760  13.858
24271W        W92601  42.927   2.451  10.964
24272W        W92602  19.602  24.620   9.570
24273W        W92603   3.815   3.855   1.825
24274W        W92604  15.817  10.173  11.961
24275W        W92605  17.780  19.200  10.562
24276W        W92606  38.006  39.897  13.359
24277W        W92607  31.615  37.853   2.325
24278W        W92608  25.083   2.354  11.542
24279W        W92609  19.625   1.474  12.983
24280W        W92610  20.741   1.410   4.798
24281W        W92611   4.911  32.885  12.389
24282W        W92612  41.864  24.663  13.960
24283W        W92613  43.977   8.232  14.311
24284W        W92614  37.986  14.755   0.867
24285W        W92615  17.124  11.824  11.525
24286W        W92616  15.583  23.084   2.416
24287W        W92617  18.154   7.254   4.791
24288W        W92618  30.513   2.724  14.934
24289W        W92619   7.412  29.957   3.172
24290W        W92620  19.068  33.931  13.474
24291W        W92621  14.253  25.073  12.932
24292W        W92622   6.245  12.121  14.323
24293W        W92623  44.954   5.708   0.412
24294W        W92624  22.048  40.346  14.308
24295W        W92625  14.799  44.303  11.055
24296W        W92626  19.596  17.666  13.450
24297W        W92627  14.217  43.919  14.298
24298W        W92628  20.679  31.913   2.185
24299W        W92629  25.644  43.362   3.167
24300W        W92630   7.286  44.312   4.193
24301W        W92631  37.444  12.663  13.307
24302W        W92632  35.553  40.541  14.832
24303W        W92633  23.633  31.953  13.490
24304W        W92634   2.451  17.242  10.011
24305W        W92635  16.699  38.008   4.114
24306W        W92636  25.217  16.195   2.780
24307W        W92637  13.139  31.049  10.985
24308W        W92638  31.416  14.655   2.770
24309W        W92639  14.212   4.415   4.823
24310W        W92640  19.169  42.368  10.471
24311W        W92641  11.832  41.952  12.489
24312W        W92642  24.163  20.069  11.379
24313W        W92643  16.791  13.313  13.959
24314W        W92644  27.047   5.826   1.443
24315W        W92645  30.962   2.239   2.270
24316W        W92646   0.279  29.120  12.079
24317W        W92647  19.234  36.570  14.831
24318W        W92648  25.596  26.687  14.030
24319W        W92649  42.476  21.075   4.791
24320W        W92650  30.583  21.622   1.243
24321W        W92651  41.901  39.808   4.135
24322W        W92652  30.956  17.673  10.910
24323W        W92653  17.215  20.072  14.410
24324W        W92654  10.668  22.208  13.404
24325W        W92655  16.154  29.015   4.662
24326W        W92656  11.339  24.597   1.268
24327W        W92657  24.539  35.370   3.190
24328W        W92658  13.775  11.738  12.085
24329W        W92659  18.228  21.648   1.870
24330W        W92660  29.549  15.823  13.795
24331W        W92661  22.645  16.625   5.162
24332W        W92662  23.570  35.446   2.735
24333W        W92663  17.590  22.714   3.209
24334W        W92664  41.493   3.733  14.430
24335W        W92665  17.766  18.691  13.436
24336W        W92666  22.691  22.206  12.845
24337W        W92667   6.707   4.310  10.488
24338W        W92668  34.599  29.021  13.527
24339W        W92669  18.072  43.924  13.427
24340W        W92670   6.355  26.109   4.268
24341W        W92671  36.540  40.480  14.806
24342W        W92672  23.615   9.873  11.431
24343W        W92673  28.087  25.706  14.444
24344W        W92674  22.572  37.433   0.431
24345W        W92675  12.678  14.781  11.557
24346W        W92676  33.877  29.920  13.366
24347W        W92677   8.870  16.173   2.784
24348W        W92678   3.229   3.711  11.523
24349W        W92679   2.424  35.473   3.696
24350W        W92680  33.031   1.931   2.847
24351W        W92681   7.786  41.992   4.176
24352W        W92682  21.607  27.189   2.813
24353W        W92683  13.112  26.572  11.558
24354W        W92684  21.166  16.595   0.738
24355W        W92685  25.603  16.703   0.407
24356W        W92686  15.136   2.823   3.843
24357W        W92687  28.970  16.682   1.425
24358W        W92688  28.141  28.156  10.942
24359W        W92689   3.755  10.271   2.870
24360W        W92690  23.546  43.510   4.752
24361W        W92691  29.016  20.768   9.543
24362W        W92692   1.324  43.412  10.522
24363W        W92693  34.958   2.957   1.798
24364W        W92694  30.475  18.064   4.788
24365W        W92695  13.819   4.340  13.438
24366W        W92696   0.438  13.825  14.494
24367W        W92697  18.561   2.941   0.304
24368W        W92698  16.116  25.507   2.886
24369W        W92699  44.937   6.323  12.565
24370W        W92700  17.280  18.773  12.866
24371W        W92701  36.912  37.546  14.001
24372W        W92702  12.308   1.849  12.975
24373W        W92703   1.346  24.720  14.021
24374W        W92704  40.325  41.306  13.386
24375W        W92705   4.270  36.847  11.575
24376W        W92706  29.607   8.308  11.599
24377W        W92707  37.971  39.336   2.741
24378W        W92708   8.162  36.047   0.811
24379W        W92709  14.121  25.104   0.812
24380W        W92710  12.205  42.507  13.933
24381W        W92711  43.313   2.391  12.993
24382W        W92712  37.472   0.400  12.552
24383W        W92713  16.223  40.429  14.325
24384W        W92714   6.340   7.247   0.916
24385W        W92715   3.846   4.395   1.897
24386W        W92716  20.757  19.599   0.817
24387W        W92717   6.720   0.314  10.910
24388W        W92718   3.300  27.657   2.881
24389W        W92719  42.290  31.995  11.993
24390W        W92720   9.203   9.784   2.826
24391W        W92721  14.785  43.336   3.672
24392W        W92722  41.813  41.859   1.371
24393W        W92723  19.562  22.593  11.575
24394W        W92724  11.705  21.076  11.497
24395W        W92725  32.531   8.798  12.029
24396W        W92726  35.368  43.965   0.481
24397W        W92727  35.986  20.751   4.787
24398W        W92728  29.554  21.249  10.155
24399W        W92729   9.158  36.935  12.519
24400W        W92730  25.474  19.284   0.733
24401W        W92731  11.265  10.673   0.967
24402W        W92732  26.201  44.890  11.595
24403W        W92733  34.437  13.756   0.732
24404W        W92734  13.217  14.743  12.469
24405W        W92735  23.528  39.370   1.415
24406W        W92736   6.749  27.667   3.209
24407W        W92737  31.444   8.319   1.348
24408W        W92738  34.478  41.920   2.729
24409W        W92739  39.051  25.095   1.806
24410W        W92740  12.231  41.529  11.034
24411W        W92741  36.085  11.225  13.512
24412W        W92742  35.881  22.540  10.552
24413W        W92743   3.891  11.178  13.905
24414W        W92744  39.426  43.822  14.512
24415W        W92745   7.220  36.873   2.898
24416W        W92746  36.396  33.955  12.382
24417W        W92747  22.147  24.505  12.560
24418W        W92748  42.970  12.676   1.265
24419W        W92749  34.883   1.930   1.791
24420W        W92750  20.195  34.543   4.803
24421W        W92751  13.805  37.021  10.527
24422W        W92752  37.488  33.555   2.854
24423W        W92753  43.457  39.863   3.632
24424W        W92754  36.472  23.162   4.702
24425W        W92755  34.097  15.601  11.499
24426W        W92756  18.604  43.947  14.368
24427W        W92757  15.136  31.915  11.937
24428W        W92758  34.882   5.917   0.876
24429W        W92759  21.145  44.867  14.839
24430W        W92760   2.728  43.887   2.272
24431W        W92761  31.429  20.073  11.078
24432W        W92762  12.235  21.609   4.117
24433W        W92763  19.113  27.124   3.288
24434W        W92764  39.910  17.624   0.895
24435W        W92765   5.818   0.261   0.288
24436W        W92766  42.346  23.144  11.879
24437W        W92767   8.293   9.362  13.933
24438W        W92768  32.623  22.652  13.544
24439W        W92769  19.065  40.336  12.926
24440W        W92770  36.458  12.132  11.581
24441W        W92771  42.872  25.569   5.153
24442W        W92772  41.951   9.789   4.117
24443W        W92773  28.975  42.526  11.445
24444W        W92774   1.239  12.242  10.598
24445W        W92775   1.816  14.294   4.225
24446W        W92776  39.455  18.165   3.248
24447W        W92777  42.311  16.281   4.194
24448W        W92778  36.370   6.920   2.889
24449W        W92779  14.123  29.070   2.333
24450W        W92780   7.730  19.226  10.546
24451W        W92781   4.329   2.417   3.329
24452W        W92782  20.611  43.927   4.324
24453W        W92783  33.501  10.309  11.523
24454W        W92784  19.605  36.036  11.106
24455W        W92785   5.863  37.904  10.573
24456W        W92786   6.853   5.921   4.198
24457W        W92787  39.451  16.742   4.748
24458W        W92788  42.856  11.152   2.187
24459W        W92789  18.701  20.047  11.417
24460W        W92790  36.437   4.349  13.801
24461W        W92791  29.101  18.567   3.260
24462W        W92792  18.235  34.088  11.470
24463W        W92793  40.395  40.364  11.610
24464W        W92794   9.670  16.075  13.333
24465W        W92795  24.679  35.600  10.941
24466W        W92796   7.221  30.924  13.311
24467W        W92797  38.384  42.303   2.302
24468W        W92798  12.189   8.398  11.462
24469W        W92799  20.561   4.327  10.887
24470W        W92800  10.658  29.132  12.937
24471W        W92801   0.985   2.225  10.638
24472W        W92802  44.973  35.468   3.202
24473W        W92803  23.018  27.011   3.346
24474W        W92804  41.887  42.422  11.087
24475W        W92805  24.973  25.025   2.282
24476W        W92806  13.232  18.132  12.836
24477W        W92807   4.809  16.581  14.300
24478W        W92808  26.664  41.531  10.590
24479W        W92809  27.654   9.882   9.438
24480W        W92810  36.378   1.325   2.725
24481W        W92811  37.557   5.855   2.687
24482W        W92812   2.282  32.569  14.276
24483W        W92813  15.295  22.074   0.924
24484W        W92814   2.834  23.573  11.433
24485W        W92815  17.089  26.642   1.402
24486W        W92816  40.486  36.906  10.550
24487W        W92817   1.469  16.278  12.052
24488W        W92818  33.490  18.743  12.571
24489W        W92819  37.063   9.305  12.426
24490W        W92820  25.122  27.050   4.633
24491W        W92821  10.291  42.297  10.516
24492W        W92822  21.249  10.816  13.007
24493W        W92823  31.512  27.497  11.401
24494W        W92824  44.969  31.648   4.680
24495W        W92825  27.654  44.496  11.489
24496W        W92826   1.894  40.878   1.805
24497W        W92827  41.017  12.134  12.495
24498W        W92828  25.708  39.405   2.884
24499W        W92829  43.483  11.223   0.298
24500W        W92830  20.074  34.547  13.055
24501W        W92831   7.707  44.778   2.201
24502W        W92832  13.316  13.267  12.461
24503W        W92833  44.865   7.335   0.251
24504W        W92834   2.351  40.019   3.741
24505W        W92835  19.745  28.517  11.562
24506W        W92836  40.045  31.598   0.902
24507W        W92837  30.413  17.796  11.875
24508W        W92838  22.018   4.773   3.659
24509W        W92839  19.080  40.052  10.480
24510W        W92840   7.248   9.732  11.994
24511W        W92841  10.819  10.184   0.441
24512W        W92842  38.857  12.632  14.992
24513W        W92843  36.513   0.904   2.202
24514W        W92844  19.126  10.863   4.114
24515W        W92845  11.181   7.299   3.751
24516W        W92846  26.146  39.842   3.193
24517W        W92847  28.056  28.565  13.476
24518W        W92848  17.259  30.126  13.942
24519W        W92849  17.179  36.566  11.941
24520W        W92850  16.635  34.881  10.490
24521W        W92851  41.315   4.747  12.580
24522W        W92852   4.278   8.392  10.570
24523W        W92853  11.147  20.614   4.651
24524W        W92854  25.061  35.555   1.261
24525W        W92855  36.961  38.020  12.068
24526W        W92856  33.987  33.899  12.062
24527W        W92857  43.504  20.166   0.327
24528W        W92858  13.626  12.614  11.570
24529W        W92859   3.773  40.442   1.211
24530W        W92860   5.784  23.615  10.557
24531W        W92861   4.420  17.106   1.451
24532W        W92862  39.342  17.569  13.494
24533W        W92863   4.829  26.583  13.020
24534W        W92864  34.006  24.156  14.932
24535W        W92865  27.969  17.651   3.787
24536W        W92866   4.843  37.844  13.019
24537W        W92867  36.590  33.495   1.217
24538W        W92868  16.152  27.689  13.819
24539W        W92869  36.851  30.927   1.755
24540W        W92870  21.738  31.992  14.859
24541W        W92871   3.241  34.566  10.462
24542W        W92872   3.244  38.928   5.186
24543W        W92873  30.564  43.826   4.151
24544W        W92874  31.405  24.645  12.411
24545W        W92875  20.595  11.677  14.380
24546W        W92876  39.534  44.003   1.415
24547W        W92877   4.887   2.965  11.456
24548W        W92878  43.848  22.132   4.206
24549W        W92879  33.942   8.350  14.482
24550W        W92880  12.801   0.833  11.864
24551W        W92881  25.560  16.312   0.460
24552W        W92882  27.067  24.483   2.887
24553W        W92883  23.531  35.503  13.476
24554W        W92884  21.186  40.398   3.251
24555W        W92885  33.104  21.203  12.977
24556W        W92886  44.305  25.207  14.890
24557W        W92887  35.908  27.069   3.831
24558W        W92888  27.065  16.590   2.276
24559W        W92889   4.857  23.491   1.751
24560W        W92890  27.486  11.710  14.910
24561W        W92891  38.855  17.566   2.825
24562W        W92892  35.954  28.633   3.827
24563W        W92893  11.630  33.509   5.229
24564W        W92894  19.233  18.685  14.367
24565W        W92895   8.165  24.652   2.208
24566W        W92896   7.367  24.027  11.539
24567W        W92897   1.243  24.631  13.387
24568W        W92898   1.294  19.146   0.336
24569W        W92899  42.777  28.441  14.287
24570W        W92900  17.736  12.675   1.804
24571W        W92901  12.617  44.416   3.190
24572W        W92902   7.865  16.585  10.955
24573W        W92903  12.265  33.006   2.886
24574W        W92904   7.734  41.852  11.565
24575W        W92905  21.610  32.970  11.415
24576W        W92906  43.980  21.731  14.935
24577W        W92907  24.697  11.687  14.485
24578W        W92908  44.408  23.558  12.081
24579W        W92909   4.925   7.689   5.283
24580W        W92910  44.861  37.343   4.154
24581W        W92911  12.628  24.121  13.953
24582W        W92912  43.947  12.856  11.415
24583W        W92913  24.189   2.844   0.869
24584W        W92914  33.044  15.674   4.249
24585W        W92915  18.143  22.535   0.959
24586W        W92916  36.404  37.486  10.421
24587W        W92917   3.722  28.543  14.789
24588W        W92918  19.210  43.817  12.041
24589W        W92919  14.181   7.727   1.362
24590W        W92920  25.106  39.859   0.259
24591W        W92921   3.404  22.249   2.237
24592W        W92922  38.063   3.278   0.815
24593W        W92923  13.691  14.218  13.890
24594W        W92924  23.584  35.938   4.724
24595W        W92925  42.516  27.492   0.754
24596W        W92926   3.320   2.400  10.986
24597W        W92927  30.125  41.447  11.011
24598W        W92928  26.490  43.456  10.407
24599W        W92929  41.017  38.892  12.905
24600W        W92930  17.765  27.599  10.405
24601W        W92931  41.008   4.449  10.550
24602W        W92932  19.208  22.188   2.774
24603W        W92933  25.583  40.999  11.126
24604W        W92934  26.111  23.202  10.950
24605W        W92935  42.953  20.064  13.380
24606W        W92936  26.689  24.593  13.508
24607W        W92937  42.884  30.527  12.511
24608W        W92938  30.593  38.435  14.876
24609W        W92939  44.838  12.183   4.776
24610W        W92940  43.923  32.086   3.305
24611W        W92941  29.596  19.721   5.190
24612W        W92942   2.290  32.096   2.230
24613W        W92943  44.854  22.747   4.322
24614W        W92944  19.765  14.302   2.305
24615W        W92945  19.123   5.907   2.869
24616W        W92946  44.384   0.956   2.280
24617W        W92947  23.096  26.100  13.922
24618W        W92948  27.580   3.792   3.305
24619W        W92949  35.917  34.879   0.966
24620W        W92950  14.245   4.786   1.716
24621W        W92951   4.345  13.325   3.377
24622W        W92952   2.302  24.014  12.473
24623W        W92953  40.862  22.725   1.399
24624W        W92954   9.344  23.223   4.619
24625W        W92955  35.894  28.466   3.292
24626W        W92956  36.358  20.658   4.247
24627W        W92957  40.330  11.157  13.934
24628W        W92958  37.502  35.949  14.904
24629W        W92959  41.852   4.926   3.734
24630W        W92960  25.632  14.111  10.025
24631W        W92961   8.266  27.622   1.846
24632W        W92962   5.427  17.203  12.553
24633W        W92963  35.062  25.123   4.607
24634W        W92964  43.382   4.778  14.511
24635W        W92965  21.737  15.303   4.597
24636W        W92966  18.556   7.277  10.094
24637W        W92967  19.763  44.780  12.904
24638W        W92968  28.509  42.017   2.743
24639W        W92969   4.836  12.672  10.032
24640W        W92970  20.631  10.232  12.052
24641W        W92971  25.522  10.331  13.003
24642W        W92972  31.512  17.798  11.060
24643W        W92973  40.893  18.608  11.997
24644W        W92974   3.417  41.433  10.476
24645W        W92975  22.532   4.375   4.816
24646W        W92976  32.632  37.846   0.465
24647W        W92977   6.841  16.749  12.393
24648W        W92978  20.674  15.083  13.488
24649W        W92979  22.130  16.170   4.805
24650W        W92980  25.085  13.119  12.506
24651W        W92981  10.820  21.221  10.494
24652W        W92982  37.390  22.513  12.937
24653W        W92983  37.552  41.888   3.780
24654W        W92984   2.838  44.924   1.231
24655W        W92985  29.465  34.570  12.346
24656W        W92986   4.863   3.251   2.792
24657W        W92987  43.863  29.477   4.301
24658W        W92988  35.470  27.014  14.516
24659W        W92989   6.204  28.094  10.584
24660W        W92990  37.437  14.327  11.025
24661W        W92991   6.793  42.815  14.321
24662W        W92992   1.977  43.900   4.305
24663W        W92993  38.528   4.368   1.220
24664W        W92994  29.990  41.469   2.324
24665W        W92995  37.568  14.252  13.884
24666W        W92996  10.851  29.604  10.631
24667W        W92997  16.273  31.547   3.263
24668W        W92998  12.205  37.834   1.822
24669W        W92999  33.592  34.540   1.813
24670W        W93000  35.577  42.289   1.277
24671W        W93001   1.956   2.411   0.917
24672W        W93002  23.135   1.309   1.915
24673W        W93003  40.030  11.230   1.293
24674W        W93004  13.318  30.466   2.755
24675W        W93005  19.061  37.532   1.350
24676W        W93006  28.637  16.184  13.026
24677W        W93007  24.983   5.771   4.306
24678W        W93008  44.855   9.783   4.694
24679W        W93009  28.150   9.667  10.075
24680W        W93010  38.361  13.351   3.630
24681W        W93011   2.448  21.514   4.611
24682W        W93012  20.765  39.812  12.385
24683W        W93013  38.549   9.257  13.473
24684W        W93014  13.830  34.943   3.379
24685W        W93015   5.206  39.881  10.496
24686W        W93016  43.891  42.002   2.265
24687W        W93017  37.557  21.703   3.806
24688W        W93018  15.775  26.087  10.427
24689W        W93019  12.353  18.194  14.877
24690W        W93020  29.496   1.913   2.275
24691W        W93021  40.871  12.243   2.385
24692W        W93022  36.521  42.398  10.428
24693W        W93023  20.590   4.327   1.340
24694W        W93024   1.348  37.560   1.737
24695W        W93025  22.644  21.701   3.243
24696W        W93026  20.203  24.187   4.628
24697W        W93027  31.053   4.362   0.938
24698W        W93028  26.017  22.566  11.010
24699W        W93029  10.874   8.350   0.432
24700W        W93030   3.774  20.668   0.830
24701W        W93031  36.525  10.251  14.820
24702W        W93032  10.688  20.635   1.390
24703W        W93033   0.978  28.021  13.861
24704W        W93034  14.760   9.299   3.314
24705W        W93035  11.212   9.335   3.176
24706W        W93036  30.564  28.972   1.399
24707W        W93037  30.975  23.707  13.975
24708W        W93038  38.426  37.338  14.822
24709W        W93039  26.956   1.330  11.015
24710W        W93040  44.383  12.249   3.247
24711W        W93041   1.389  42.920   1.735
24712W        W93042  19.213  31.430  13.967
24713W        W93043   8.883  10.366  13.442
24714W        W93044  39.024  13.745  12.925
24715W        W93045  38.427  30.928   0.797
24716W        W93046   1.831  36.941  11.512
24717W        W93047  26.166  43.310  11.983
24718W        W93048  38.833  11.320   1.916
24719W        W93049  12.229  18.621  12.551
24720W        W93050   2.281  35.957   3.779
24721W        W93051   1.766  40.837  12.916
24722W        W93052  34.864   4.911  14.985
24723W        W93053  37.412  24.604  12.031
24724W        W93054   7.672   9.678  13.449
24725W        W93055  13.112  15.116   1.434
24726W        W93056  36.363  17.186   3.783
24727W        W93057  27.616   8.885  13.883
24728W        W93058  25.073  37.021   1.238
24729W        W93059  35.358  43.347   0.841
24730W        W93060  37.087  42.831  14.360
24731W        W93061  17.068   9.799  12.523
24732W        W93062  34.995  40.465  14.006
24733W        W93063  12.725  19.276  13.349
24734W        W93064  10.143  34.951  13.548
24735W        W93065  35.463   4.861   3.341
24736W        W93066  19.648  41.401   2.863
24737W        W93067  24.504   6.737   3.379
24738W        W93068   6.235  21.673   2.352
24739W        W93069  31.628   3.860   0.773
24740W        W93070  31.507  18.059   0.784
24741W        W93071  17.261   6.320   4.247
24742W        W93072   0.373   6.734   1.927
24743W        W93073   0.964   1.458  12.405
24744W        W93074  20.531  28.001   3.712
24745W        W93075  26.055  27.023   2.881
24746W        W93076   2.729  27.972   4.238
24747W        W93077   2.393  13.228   2.409
24748W        W93078   6.363   9.688  10.498
24749W        W93079  28.457  32.986   1.289
24750W        W93080   6.858  14.337  13.330
24751W        W93081   6.409  21.709   2.748
24752W        W93082  37.401   5.749   5.092
24753W        W93083   3.846  40.858  11.049
24754W        W93084  36.533   7.707   0.299
24755W        W93085   4.763  22.720   2.761
24756W        W93086  37.501  13.333   0.740
24757W        W93087  15.173  10.244   0.805
24758W        W93088  41.844  29.646   1.725
24759W        W93089  11.304  13.700   2.375
24760W        W93090  30.432  44.334  11.521
24761W        W93091  38.558   0.877   1.370
24762W        W93092   7.772   7.318  13.049
24763W        W93093  18.790  33.396  12.883
24764W        W93094   1.789  19.135   0.781
24765W        W93095  36.076  40.358  13.312
24766W        W93096  22.612   2.919  13.847
24767W        W93097  43.007   2.390  14.876
24768W        W93098  21.170  41.410   4.173
24769W        W93099  28.028  18.216   3.843
24770W        W93100  23.704  22.105   1.246
24771W        W93101  40.435  15.262   1.900
24772W        W93102  20.167  43.441  13.019
24773W        W93103   6.247  41.879  14.765
24774W        W93104  33.097  43.957  12.400
24775W        W93105  28.505  20.198  10.567
24776W        W93106  34.487  11.329   3.364
24777W        W93107   6.905  22.722   4.204
24778W        W93108  20.703  30.924  14.340
24779W        W93109  35.413  34.099   2.405
24780W        W93110  17.625  37.346   4.713
24781W        W93111  24.008  42.884  11.380
24782W        W93112  35.494  40.357   3.854
24783W        W93113   4.897  40.538  11.452
24784W        W93114  42.351  20.228  13.992
24785W        W93115  27.171  29.508   4.262
24786W        W93116  30.443  12.289  14.398
24787W        W93117  10.363  39.988  11.463
24788W        W93118  15.626  28.935   0.384
24789W        W93119  44.808  37.465  12.885
24790W        W93120  39.934  43.819  14.991
24791W        W93121   9.350  12.171  13.915
24792W        W93122   9.364  19.243  13.457
24793W        W93123   7.198   3.791  14.406
24794W        W93124  11.865  15.785   1.438
24795W        W93125  11.316   7.751   2.407
24796W        W93126  10.262  42.899   3.329
24797W        W93127  17.644  11.292   4.744
24798W        W93128  22.140  17.150  14.023
24799W        W93129  10.377  44.880   2.782
24800W        W93130  27.596   5.865  14.495
24801W        W93131  28.579  28.465   2.806
24802W        W93132   3.908   3.427   4.211
24803W        W93133   7.757  32.966   0.430
24804W        W93134   3.731   1.868   5.237
24805W        W93135  44.892   5.792  13.060
24806W        W93136  31.037  31.467  14.474
24807W        W93137  18.291   8.181  12.369
24808W        W93138  44.778  21.022   4.165
24809W        W93139  31.444   2.282   3.162
24810W        W93140  44.319  36.592  14.857
24811W        W93141   1.380  27.520   3.737
24812W        W93142  13.661  40.394  13.833
24813W        W93143  38.968  23.497  13.322
24814W        W93144  21.701  21.600   0.284
24815W        W93145  31.595  33.549   3.339
24816W        W93146  22.626  29.575  14.768
24817W        W93147  16.673  20.254   3.153
24818W        W93148  38.954  12.622   1.450
24819W        W93149  21.622  20.041  12.089
24820W        W93150  28.538  11.143  10.450
24821W        W93151   1.327  40.899  12.919
24822W        W93152   2.343  35.027  10.636
24823W        W93153  16.661  28.986   3.687
24824W        W93154  44.503  16.623   3.704
24825W        W93155  21.701  30.154  13.518
24826W        W93156  19.736  30.549  14.467
24827W        W93157  19.172  14.717   3.742
24828W        W93158   7.862   8.819  14.936
24829W        W93159  37.568  39.517   3.858
24830W        W93160  31.474  41.041  12.531
24831W        W93161  33.108  28.161   1.390
24832W        W93162  25.547  13.335  10.091
24833W        W93163   7.277  11.229   4.336
24834W        W93164  43.478   1.297  12.915
24835W        W93165   2.836  26.486  14.446
24836W        W93166  31.575  11.349   2.404
24837W        W93167  37.984   5.901  14.350
24838W        W93168  31.127   7.669  11.085
24839W        W93169  13.276  41.867  13.901
24840W        W93170   9.252  24.046   2.880
24841W        W93171  14.281  32.001   3.699
24842W        W93172  38.508  10.703  13.897
24843W        W93173  26.098  34.610   4.642
24844W        W93174  26.093   8.379   4.166
24845W        W93175  19.162  28.616   4.727
24846W        W93176  26.160  10.163  11.561
24847W        W93177  26.207   0.875   1.902
24848W        W93178  41.534   6.729   1.749
24849W        W93179  20.102   0.929  13.938
24850W        W93180   0.304  28.019   4.136
24851W        W93181  30.092  39.456  14.365
24852W        W93182   3.225  19.758  13.914
24853W        W93183  18.149  42.995   0.757
24854W        W93184  19.153  19.123   5.595
24855W        W93185   3.417  26.661  14.876
24856W        W93186  18.157  11.150  12.446
24857W        W93187  29.635  21.244   2.720
24858W        W93188   5.803   6.236  14.994
24859W        W93189  14.798  34.563  14.353
24860W        W93190  21.560  21.523  12.561
24861W        W93191  34.954   4.836   0.385
24862W        W93192  42.470  26.619   4.154
24863W        W93193   4.338  19.706   0.820
24864W        W93194  10.707   5.405  14.896
24865W        W93195  32.613  26.700   2.214
24866W        W93196  16.111  17.218   4.252
24867W        W93197  25.014   1.410   1.355
24868W        W93198   1.324  19.664   1.431
24869W        W93199  27.491   0.798   4.169
24870W        W93200  22.583  27.961  13.009
24871W        W93201  14.255   4.728   4.152
24872W        W93202   2.964  41.968  12.956
24873W        W93203   5.871  22.648  13.469
24874W        W93204  16.717  21.256  11.424
24875W        W93205  22.682   6.345   2.789
24876W        W93206  34.595  27.534   0.926
24877W        W93207  39.546   5.230  13.513
24878W        W93208   3.304  30.036  13.318
24879W        W93209  18.685  15.699  13.357
24880W        W93210  34.955  31.532  14.979
24881W        W93211  13.334  44.293  13.814
24882W        W93212  37.582   1.446  11.025
24883W        W93213   2.262   6.214   1.265
24884W        W93214   7.759  40.499   1.267
24885W        W93215  11.199  18.681  12.354
24886W        W93216  15.590   1.910  14.866
24887W        W93217  28.597  10.177   5.114
24888W        W93218  44.896  42.795   4.221
24889W        W93219  44.858   8.881  14.935
24890W        W93220  44.900  15.728   1.758
24891W        W93221  38.532  11.289  12.491
24892W        W93222  15.811   3.336   3.781
24893W        W93223   0.771  10.150   0.320
24894W        W93224  11.654  34.988   5.229
24895W        W93225  37.069   3.771  12.553
24896W        W93226   6.807  15.772   2.401
24897W        W93227  21.220   5.933   4.767
24898W        W93228  20.575   2.283  12.929
24899W        W93229  29.433  14.303   2.294
24900W        W93230  26.107  33.112   4.751
24901W        W93231  31.072  22.700   0.777
24902W        W93232  14.756   8.713   0.933
24903W        W93233  20.207  44.915   0.758
24904W        W93234  11.854  26.135  11.536
24905W        W93235  24.222  28.091   0.858
24906W        W93236   7.752  24.652   2.766
24907W        W93237  30.574  35.877   4.813
24908W        W93238   0.835  15.805  14.289
24909W        W93239  37.914  42.866  10.960
24910W        W93240  39.340   0.469   1.696
24911W        W93241  10.348  11.644  13.444
24912W        W93242  38.976   6.827   2.281
24913W        W93243  40.972   5.324   4.706
24914W        W93244  16.730  23.210   0.865
24915W        W93245  29.922  36.099  11.612
24916W        W93246   6.252  23.089   4.327
24917W        W93247   0.471  19.270   3.644
24918W        W93248  14.716  23.545   2.797
24919W        W93249  11.648  12.253  13.926
24920W        W93250  32.409  25.595  14.278
24921W        W93251  16.314  29.562  14.012
24922W        W93252  16.256  42.995   1.752
24923W        W93253   3.873  36.356   1.298
24924W        W93254  10.791  11.141  14.923
24925W        W93255   4.714  40.834  11.577
24926W        W93256  44.810   2.376  10.924
24927W        W93257  12.779  36.526   0.353
24928W        W93258  44.353  10.877  12.441
24929W        W93259  33.950  30.544  10.503
24930W        W93260   0.426  33.986  10.949
24931W        W93261  15.770  28.048   2.362
24932W        W93262   5.316  26.985  10.434
24933W        W93263   3.278  12.144  10.446
24934W        W93264   8.690  15.324  14.429
24935W        W93265  32.896  36.498  10.982
24936W        W93266  16.260  37.352   4.732
24937W        W93267  33.923   7.866   3.373
24938W        W93268  41.484  16.757  10.603
24939W        W93269  34.003  28.979  12.939
24940W        W93270  22.202  35.878   4.669
24941W        W93271  26.021   7.886   2.766
24942W        W93272  21.041  31.082   5.578
24943W        W93273  27.028  22.669  13.369
24944W        W93274  40.427   3.276  11.877
24945W        W93275  24.657  31.150  11.992
24946W        W93276  16.796  11.232  13.812
24947W        W93277  31.483  18.553  11.574
24948W        W93278  35.424  23.234   2.720
24949W        W93279  26.148  28.987  14.330
24950W        W93280  11.146  25.570   4.808
24951W        W93281   7.856  13.351   0.352
24952W        W93282  18.648  26.641   2.873
24953W        W93283  12.226  16.256   2.274
24954W        W93284  39.811  32.494   3.796
24955W        W93285  40.882  42.495   0.371
24956W        W93286  10.653   7.690  13.060
24957W        W93287   8.878  33.965   4.318
24958W        W93288  25.645  21.253   3.168
24959W        W93289  12.201  37.011   3.703
24960W        W93290  43.866  37.534  13.791
24961W        W93291  24.164  31.504   1.431
24962W        W93292  12.339  10.754  11.937
24963W        W93293  36.357  17.241  14.922
24964W        W93294  20.636  31.628  14.791
24965W        W93295   0.911  12.627  12.497
24966W        W93296   3.732  26.513   1.872
24967W        W93297  37.921   2.879   3.633
24968W        W93298  14.313  22.010  14.470
24969W        W93299  12.125  19.253   4.695
24970W        W93300  11.830  12.816   4.661
24971W        W93301  42.368  27.031  13.967
24972W        W93302  18.547   7.893  12.039
24973W        W93303  41.836   8.333   3.208
24974W        W93304  26.958  33.131   5.730
24975W        W93305   4.901  30.098  12.509
24976W        W93306  31.142  41.885   0.737
24977W        W93307  23.510   7.276   0.441
24978W        W93308  27.178  20.583   0.825
24979W        W93309  10.834   1.948  10.414
24980W        W93310  20.716  19.126   0.762
24981W        W93311  31.018  30.497  14.933
24982W        W93312   1.972  40.359  13.486
24983W        W93313  43.817  13.141   3.362
24984W        W93314  22.085  16.679  10.905
24985W        W93315   8.272  15.329   2.895
24986W        W93316  41.430  13.697   2.418
24987W        W93317  41.813  37.060  10.963
24988W        W93318  13.679  18.591   4.669
24989W        W93319   4.389  36.858  10.160
24990W        W93320  34.422  36.076   3.324
24991W        W93321  35.430  33.912   4.306
24992W        W93322  19.728  30.487   0.835
24993W        W93323  40.951  35.513   4.162
24994W        W93324  11.188  42.375  10.501
24995W        W93325  39.544   9.783  10.638
24996W        W93326   2.394   7.229  12.361
24997W        W93327  12.164  44.386  14.315
24998W        W93328  41.846  40.855  13.430
24999W        W93329  39.053  14.221   4.319
25000W        W93330  12.645  19.729   2.852
25001W        W93331  25.628  34.949  10.407
25002W        W93332  24.625  14.727  10.918
25003W        W93333  39.469  13.811  12.954
25004W        W93334  26.510  23.562  10.914
25005W        W93335  41.298  33.111  12.497
25006W        W93336  20.583  30.031   2.827
25007W        W93337   8.339  40.478  14.311
25008W        W93338  33.434  22.093  12.572
25009W        W93339  34.868  36.059   2.760
25010W        W93340  11.214  13.720  12.907
25011W        W93341  39.343  37.850   4.145
25012W        W93342  21.088  19.619  12.408
25013W        W93343   9.827  22.027   3.360
25014W        W93344   4.734  10.736   4.352
25015W        W93345  20.273  25.970  12.424
25016W        W93346  37.396   1.292  14.292
25017W        W93347   3.241  44.932  13.501
25018W        W93348  23.581  22.100  14.361
25019W        W93349   5.263  25.156  14.353
25020W        W93350   0.294  28.061   1.893
25021W        W93351  21.109  16.711  11.030
25022W        W93352  13.202   1.765  11.478
25023W        W93353  42.801  24.031   1.311
25024W        W93354  34.421   8.183   3.327
25025W        W93355  37.344  23.620  11.872
25026W        W93356  39.837  40.475  12.882
25027W        W93357  21.230  26.202   4.257
25028W        W93358  19.626  39.410  11.008
25029W        W93359  23.708  38.325  11.893
25030W        W93360  24.135   2.236  14.954
25031W        W93361  10.788  29.475   4.180
25032W        W93362  44.331  11.281  12.550
25033W        W93363   1.907  15.326   2.796
25034W        W93364  20.736  37.047  12.366
25035W        W93365  19.259  13.606   3.340
25036W        W93366  35.582  20.613   2.875
25037W        W93367   5.387   2.294  12.823
25038W        W93368  17.719  42.332   3.689
25039W        W93369  28.639  14.322  13.336
25040W        W93370  17.749  31.936  11.603
25041W        W93371  33.438  44.446  11.375
25042W        W93372   8.866  19.125  14.916
25043W        W93373  37.496   0.364   4.252
25044W        W93374   4.832  26.151  12.994
25045W        W93375  27.508  13.281   2.666
25046W        W93376   3.350  30.153   0.388
25047W        W93377  35.070  15.279   1.906
25048W        W93378  40.976   2.379  10.985
25049W        W93379   6.851  37.943   3.253
25050W        W93380  15.652  13.172   1.754
25051W        W93381  17.769  44.457   3.314
25052W        W93382  12.703   7.676   4.331
25053W        W93383  29.001  24.044   2.788
25054W        W93384  23.593  33.595  12.862
25055W        W93385   1.314  35.481  14.471
25056W        W93386  16.149  21.589   0.304
25057W        W93387  29.158  36.846   4.654
25058W        W93388  20.094   4.811  12.946
25059W        W93389  35.020   7.849   3.840
25060W        W93390  23.697   8.835   0.924
25061W        W93391  26.059  10.766   5.113
25062W        W93392   3.281  39.541  10.130
25063W        W93393  41.804   7.903   4.771
25064W        W93394   8.386  39.038  11.940
25065W        W93395  27.476   1.371   4.819
25066W        W93396  21.044  31.507  14.887
25067W        W93397  15.813  39.416   0.415
25068W        W93398  28.600  37.479   4.725
25069W        W93399  19.096  26.098   1.760
25070W        W93400  37.917  27.091  11.026
25071W        W93401  34.436  20.732  11.908
25072W        W93402  13.307  12.812  14.797
25073W        W93403  44.464   7.303  12.888
25074W        W93404  44.860  26.467   2.666
25075W        W93405  39.387  23.198  14.279
25076W        W93406  19.775   1.399   2.233
25077W        W93407  12.735  37.528   4.771
25078W        W93408  29.968  42.505   2.382
25079W        W93409  20.678  35.404  13.478
25080W        W93410  38.443  44.348   0.284
25081W        W93411  10.346  18.549  11.119
25082W        W93412  44.395  11.667   0.884
25083W        W93413   3.810  10.281   4.824
25084W        W93414  12.332  25.586   3.184
25085W        W93415  22.107  12.761  12.389
25086W        W93416  14.822  17.249  13.025
25087W        W93417  29.499   2.745  10.610
25088W        W93418  29.610  30.062   0.957
25089W        W93419  42.419  17.292   2.186
25090W        W93420   5.331  23.199   0.792
25091W        W93421  41.982  14.222   4.820
25092W        W93422  33.498  37.471   4.769
25093W        W93423  13.213   8.788  10.937
25094W        W93424   1.404  30.469   3.349
25095W        W93425  18.088  13.627   3.219
25096W        W93426  42.836  10.373   4.686
25097W        W93427  27.531  18.157  14.888
25098W        W93428  40.863  29.143   2.220
25099W        W93429  30.916  41.447  13.471
25100W        W93430   8.663  17.096   2.882
25101W        W93431   8.301  24.124   0.295
25102W        W93432  15.668  22.709  14.435
25103W        W93433  20.693   1.977  14.768
25104W        W93434   6.394  26.513  11.047
25105W        W93435  24.643  44.364   0.834
25106W        W93436  14.810   8.248   2.756
25107W        W93437  30.525  29.592  11.094
25108W        W93438  33.986  42.465  10.925
25109W        W93439  42.527   4.802  12.513
25110W        W93440  24.635  34.875  11.472
25111W        W93441  21.218  19.044  14.277
25112W        W93442   7.881   0.468  13.935
25113W        W93443  34.957   2.349  10.971
25114W        W93444   7.388  18.751   0.941
25115W        W93445   7.229   7.412   4.249
25116W        W93446  42.829   9.840   1.289
25117W        W93447  42.947   2.279   0.883
25118W        W93448   6.697  33.491  13.034
25119W        W93449  16.103  40.497   0.333
25120W        W93450  35.456  18.233   2.835
25121W        W93451   7.713   2.371   4.309
25122W        W93452  23.995  42.432  11.578
25123W        W93453  18.686   2.461   4.780
25124W        W93454  14.281  30.033   2.314
25125W        W93455  36.909  25.165   1.404
25126W        W93456  42.980   6.310  12.029
25127W        W93457  41.011  42.848   1.767
25128W        W93458  23.052  39.466   4.179
25129W        W93459  28.076  36.056  14.936
25130W        W93460  12.171  29.919  13.403
25131W        W93461  44.833  21.102  11.892
25132W        W93462   0.917   5.809   0.762
25133W        W93463  12.791  34.409   2.665
25134W        W93464  20.036   4.912   3.229
25135W        W93465   9.702  13.728   1.296
25136W        W93466   1.910   1.842   1.703
25137W        W93467  10.794  41.318   0.733
25138W        W93468  42.791  40.547   5.209
25139W        W93469   0.891  44.787  11.079
25140W        W93470  18.791  39.969  10.596
25141W        W93471  31.098   5.363  13.400
25142W        W93472  34.006  42.343  14.501
25143W        W93473   7.271  18.649   1.839
25144W        W93474   6.862  34.571   2.314
25145W        W93475  40.852   9.819   0.759
25146W        W93476  29.535  30.045   1.845
25147W        W93477  27.679   2.323   3.850
25148W        W93478  28.670  40.903   2.818
25149W        W93479  40.864  42.338   0.954
25150W        W93480   9.765  31.493  10.598
25151W        W93481  28.113   1.792   5.240
25152W        W93482  21.052  35.958   0.388
25153W        W93483  13.646  17.731   0.892
25154W        W93484  39.419   6.844   1.364
25155W        W93485   0.493  33.587  14.995
25156W        W93486   8.788  35.979   2.419
25157W        W93487  36.980   7.803  11.979
25158W        W93488   1.899  13.265  14.428
25159W        W93489  38.452  14.251   1.908
25160W        W93490  33.063  38.491   3.650
25161W        W93491  43.461   7.392  12.963
25162W        W93492  14.122  11.805   5.191
25163W        W93493  27.533  16.235   0.277
25164W        W93494  39.818  10.192   0.322
25165W        W93495   9.189  35.918  10.945
25166W        W93496  25.643  44.487   1.386
25167W        W93497   5.817  28.978   2.754
25168W        W93498  43.913  30.089  10.932
25169W        W93499   1.916   4.365   0.885
25170W        W93500  15.295  23.033  11.890
25171W        W93501   7.353   1.774  11.514
25172W        W93502  31.904  43.511   0.784
25173W        W93503  43.803  17.645   4.320
25174W        W93504  29.962  12.822  13.535
25175W        W93505  20.639  38.064  12.984
25176W        W93506  17.747  42.848   0.877
25177W        W93507  10.385  10.740   3.155
25178W        W93508  42.950  24.497  10.419
25179W        W93509  39.898   6.247  13.524
25180W        W93510  20.744  38.451  10.529
25181W        W93511  40.326   1.807   0.949
25182W        W93512  17.112   8.697   5.170
25183W        W93513  41.317  33.410  12.038
25184W        W93514  24.112  32.106  12.011
25185W        W93515  27.167  19.581  10.463
25186W        W93516  32.460   3.767  12.475
25187W        W93517   2.401  39.550   0.857
25188W        W93518  16.232  43.290  11.875
25189W        W93519   4.393  29.662   3.687
25190W        W93520  22.570  15.755   3.281
25191W        W93521  20.573  34.459  12.360
25192W        W93522  14.800  34.464  12.898
25193W        W93523   8.776   9.370   0.898
25194W        W93524  36.513  16.606   2.746
25195W        W93525  12.293   4.893   2.351
25196W        W93526  35.056  15.626  13.419
25197W        W93527  34.585  18.253   4.258
25198W        W93528  34.482   3.943  11.112
25199W        W93529  20.712  39.823  10.518
25200W        W93530  38.415  28.448  13.026
25201W        W93531  43.405  39.444  12.399
25202W        W93532  23.681  21.039   1.712
25203W        W93533   7.822  34.565   0.861
25204W        W93534   9.321  34.423   2.294
25205W        W93535   4.394  17.569  11.893
25206W        W93536  40.937   4.329  13.911
25207W        W93537   6.224  20.547   2.684
25208W        W93538  14.674  40.009  13.440
25209W        W93539  20.612  17.250  10.133
25210W        W93540  16.567  36.417  11.522
25211W        W93541  22.076  16.096   0.347
25212W        W93542  31.926  40.407   4.720
25213W        W93543  12.843   0.455  12.931
25214W        W93544  29.061  30.942  11.074
25215W        W93545   1.931   5.910  11.397
25216W        W93546  22.682  13.352  14.404
25217W        W93547  19.741  35.970  14.313
25218W        W93548  36.074  24.660  13.941
25219W        W93549  35.040   9.259  14.801
25220W        W93550   6.682  16.216   0.468
25221W        W93551   7.843  31.605  13.929
25222W        W93552  37.066  38.446  11.985
25223W        W93553  19.169  36.980  14.384
25224W        W93554  15.791  36.590   9.922
25225W        W93555  40.040  36.535   4.254
25226W        W93556  39.007  12.213  12.909
25227W        W93557  27.157  16.657   3.322
25228W        W93558  37.393  34.446   3.310
25229W        W93559   5.378  15.127   0.290
25230W        W93560  36.054  25.109   3.212
25231W        W93561   4.316  34.476   2.215
25232W        W93562   0.930  15.255   4.757
25233W        W93563  37.961  36.858   0.476
25234W        W93564  30.569  24.107  11.542
25235W        W93565  36.449   2.297   3.629
25236W        W93566  16.578  20.709   4.267
25237W        W93567   8.259  15.722   4.630
25238W        W93568  27.013  39.547   2.252
25239W        W93569  24.656  31.979   3.799
25240W        W93570  29.651  31.034  10.914
25241W        W93571  38.534  21.743  14.010
25242W        W93572  11.753  13.196  10.476
25243W        W93573  17.301  41.892  12.034
25244W        W93574  33.995  12.137  10.510
25245W        W93575  27.065  18.213  10.513
25246W        W93576   5.862  40.910   4.832
25247W        W93577  41.382   3.887   2.302
25248W        W93578  16.238  43.905  13.370
25249W        W93579  23.053  37.564   0.336
25250W        W93580  19.727  43.996   2.408
25251W        W93581  10.870  22.042  13.903
25252W        W93582  34.933  38.988  10.456
25253W        W93583  42.972  10.749   3.657
25254W        W93584   4.235  37.862  14.799
25255W        W93585  16.108   2.300   1.918
25256W        W93586  38.881  40.432   9.992
25257W        W93587  38.391  25.064   0.432
25258W        W93588   5.777  20.067  12.093
25259W        W93589  28.485  19.089   2.803
25260W        W93590  42.990  27.510   2.273
25261W        W93591  22.147  32.427   3.767
25262W        W93592  43.378   9.363   0.738
25263W        W93593  14.172  36.907   0.276
25264W        W93594  38.342  26.192  13.890
25265W        W93595  33.985  16.105  13.528
25266W        W93596   7.843   6.283   0.325
25267W        W93597  28.448  35.577   4.608
25268W        W93598  14.137  30.102   0.316
25269W        W93599  18.611  31.144   3.644
25270W        W93600  21.734  31.458  11.477
25271W        W93601  13.281  37.500   2.185
25272W        W93602  24.016  10.710   3.293
25273W        W93603  10.793  34.370   0.783
25274W        W93604  35.996  26.612  11.507
25275W        W93605   7.899  26.535   4.316
25276W        W93606  35.513  14.809  13.407
25277W        W93607  20.656  37.920   3.788
25278W        W93608  29.934  13.170  13.463
25279W        W93609  20.604  11.663  12.406
25280W        W93610  14.244  44.366   0.292
25281W        W93611   7.698  43.409   4.195
25282W        W93612  43.948   3.942   3.358
25283W        W93613  39.358  26.589  11.505
25284W        W93614   1.749  34.074   3.372
25285W        W93615  40.479  36.406   4.784
25286W        W93616  41.963  12.670   4.663
25287W        W93617  16.074   1.269  12.466
25288W        W93618  25.635  25.630   1.387
25289W        W93619  13.698  41.402  12.467
25290W        W93620  23.687  26.540   2.839
25291W        W93621  21.124   4.380   0.330
25292W        W93622  13.844  31.064   0.299
25293W        W93623  41.990  19.718  13.946
25294W        W93624   6.835  27.988   3.707
25295W        W93625  40.967  42.346   3.290
25296W        W93626  21.553  10.671   2.226
25297W        W93627  28.664  16.697   1.811
25298W        W93628  25.143  20.197   3.778
25299W        W93629   1.799  23.218  14.491
25300W        W93630  37.974   3.777  11.897
25301W        W93631  14.108  29.006  13.467
25302W        W93632  12.670   0.805   1.307
25303W        W93633   1.401   4.914   0.456
25304W        W93634  16.259  43.505   4.621
25305W        W93635  44.272  27.116  13.814
25306W        W93636   0.340  24.693  14.032
25307W        W93637  34.544   0.478   2.329
25308W        W93638  35.424  13.320   2.291
25309W        W93639  12.766   3.748  11.916
25310W        W93640  20.750  28.571   5.254
25311W        W93641  12.177   1.826  12.562
25312W        W93642  36.440  18.697   2.380
25313W        W93643  35.050  11.287   4.141
25314W        W93644  43.922  37.487   1.800
25315W        W93645  32.920  26.204   1.383
25316W        W93646  29.011   8.205  14.003
25317W        W93647  19.758  14.178  11.488
25318W        W93648  43.415  12.279   0.924
25319W        W93649   2.842  33.548  12.465
25320W        W93650  17.260   1.905   2.801
25321W        W93651  29.170  25.008  12.346
25322W        W93652   5.886   4.840   3.305
25323W        W93653  26.031  22.115  14.847
25324W        W93654  27.668   3.742  12.954
25325W        W93655  33.612  19.048   3.851
25326W        W93656  11.202  13.237   0.263
25327W        W93657  27.074  43.481  14.968
25328W        W93658  33.550  27.617   1.786
25329W        W93659  16.795  28.508   1.304
25330W        W93660   2.895   9.705  14.914
25331W        W93661  32.102  38.417  14.946
25332W        W93662  22.027   5.818   1.400
25333W        W93663  31.081   9.826   3.744
25334W        W93664  26.618  23.112   5.117
25335W        W93665  34.445  31.444  14.421
25336W        W93666  19.559   0.917   5.119
25337W        W93667  12.787   0.795   0.852
25338W        W93668  43.001  25.701  13.961
25339W        W93669   5.428  28.514  12.399
25340W        W93670  23.026  15.160  12.538
25341W        W93671  32.045   6.835   1.413
25342W        W93672  36.970  22.532  12.390
25343W        W93673  44.418   2.442  12.860
25344W        W93674  13.613  41.473   4.820
25345W        W93675  42.940  33.445   0.371
25346W        W93676  30.153   9.280   3.378
25347W        W93677  16.286  44.447  12.445
25348W        W93678  17.250  35.407  14.411
25349W        W93679  34.027   3.357   0.361
25350W        W93680   6.678   3.320  13.953
25351W        W93681  19.184  22.996   2.301
25352W        W93682  18.561  15.702   2.798
25353W        W93683  28.101  39.040   9.974
25354W        W93684   6.696  22.048   1.432
25355W        W93685  32.543  35.940   9.961
25356W        W93686  15.680  37.020   0.949
25357W        W93687  16.629  14.121  14.914
25358W        W93688   9.370  11.237  13.048
25359W        W93689  13.127   3.457  11.059
25360W        W93690   1.930  39.552   0.830
25361W        W93691  19.696   0.255  14.287
25362W        W93692  15.682  43.981  11.907
25363W        W93693  42.002   4.849   3.235
25364W        W93694  23.042  44.397   3.694
25365W        W93695  35.574   2.287   1.785
25366W        W93696  24.105  37.444   0.265
25367W        W93697  22.124   4.320  11.580
25368W        W93698  36.540   3.929   3.256
25369W        W93699  33.536  30.593  11.509
25370W        W93700  17.168   3.865   0.376
25371W        W93701  36.025   9.717   3.643
25372W        W93702  15.612  34.608   5.107
25373W        W93703  29.464  35.594   2.308
25374W        W93704   2.356   7.352  14.853
25375W        W93705  10.307  40.044   1.748
25376W        W93706  22.641   2.937  13.343
25377W        W93707  23.045  34.506  11.537
25378W        W93708  32.472  20.035  10.061
25379W        W93709  44.894  42.018   1.274
25380W        W93710   5.345  28.145  14.819
25381W        W93711  40.540  27.194  14.358
25382W        W93712  32.085  13.747   2.710
25383W        W93713  43.017  13.828   1.216
25384W        W93714   3.873   7.832   1.746
25385W        W93715   2.871  30.955   1.233
25386W        W93716  19.150  13.662  10.404
25387W        W93717  11.775  34.536   2.752
25388W        W93718  24.118  37.978   2.372
25389W        W93719   6.844   1.278  13.986
25390W        W93720   2.768  25.582   3.190
25391W        W93721  20.259  25.171  13.473
25392W        W93722  31.579  16.108   2.193
25393W        W93723  12.331  26.606  12.349
25394W        W93724  20.272  32.954   4.838
25395W        W93725  31.121  30.995  12.421
25396W        W93726  42.372  10.700   3.319
25397W        W93727   2.738  35.537  11.020
25398W        W93728  42.973  43.848   3.785
25399W        W93729  42.487   8.755   2.289
25400W        W93730  25.553   6.276   4.730
25401W        W93731  40.324  38.466   4.607
25402W        W93732  19.247   0.413  13.428
25403W        W93733  14.687  41.891   0.422
25404W        W93734  44.492  30.479   1.314
25405W        W93735  37.969  35.902  12.434
25406W        W93736  39.837  36.089  14.762
25407W        W93737  34.974   0.884   0.303
25408W        W93738  29.964  10.271   0.350
25409W        W93739  16.301  22.239  10.942
25410W        W93740  12.157  21.259   2.868
25411W        W93741  33.539  31.915  10.086
25412W        W93742  10.185   3.922  11.962
25413W        W93743   4.317   0.821   1.246
25414W        W93744   3.449  38.867   2.749
25415W        W93745  10.376  32.979  12.914
25416W        W93746  31.554  31.926   3.652
25417W        W93747  26.491  43.999  10.631
25418W        W93748  38.003  24.059  12.483
25419W        W93749  38.056  40.846  12.055
25420W        W93750   7.257  17.622  14.350
25421W        W93751  16.282  40.507   3.258
25422W        W93752  23.512  13.351  10.583
25423W        W93753  15.578   9.218  12.985
25424W        W93754  13.138  26.697   0.337
25425W        W93755   3.269   0.381  11.903
25426W        W93756  23.028  39.491   1.855
25427W        W93757  14.134   9.790  13.816
25428W        W93758   6.406  25.488  11.977
25429W        W93759  29.557  21.671  11.938
25430W        W93760  27.005  20.561   3.186
25431W        W93761   3.865  32.106   2.839
25432W        W93762  33.125  24.981   4.735
25433W        W93763  23.650  44.816  12.968
25434W        W93764   6.781  25.587   2.710
25435W        W93765   0.795  17.127  11.441
25436W        W93766   8.687  36.960  14.393
25437W        W93767  22.209  21.155   3.678
25438W        W93768  34.928   7.841  11.423
25439W        W93769  26.018  29.457  14.996
25440W        W93770  40.979  31.031   1.366
25441W        W93771  43.272  25.595   0.389
25442W        W93772  35.005  20.523   3.724
25443W        W93773  31.641  28.500   0.454
25444W        W93774  15.234   5.798  11.506
25445W        W93775  14.306  38.340   1.783
25446W        W93776   9.294   8.833   1.310
25447W        W93777  10.328  20.550   4.743
25448W        W93778  17.618  21.250   4.780
25449W        W93779   1.362   6.681   3.783
25450W        W93780   8.293  15.767  14.982
25451W        W93781  23.239  22.124   3.839
25452W        W93782   4.875   7.176  12.437
25453W        W93783  32.969   7.308  12.856
25454W        W93784   9.161  26.594   2.241
25455W        W93785   2.293   2.465  10.462
25456W        W93786  19.247   5.802  13.863
25457W        W93787  10.268  13.721   9.927
25458W        W93788  24.077  24.005   2.718
25459W        W93789  41.502  32.965  12.833
25460W        W93790  39.326  37.060  11.511
25461W        W93791   8.377  27.100  11.547
25462W        W93792  13.346  35.892  14.962
25463W        W93793  17.670  42.407   0.812
25464W        W93794   7.330  33.039   1.276
25465W        W93795  13.824   2.795  11.542
25466W        W93796  33.523  36.374  12.478
25467W        W93797  37.568  14.706   2.816
25468W        W93798  42.814  26.039  12.924
25469W        W93799   2.833  21.587   4.353
25470W        W93800   8.714  33.476  10.961
25471W        W93801  32.398  31.591   1.396
25472W        W93802  31.110  28.971   3.643
25473W        W93803  17.187   6.783  12.869
25474W        W93804  39.928   7.857   1.401
25475W        W93805  13.183  32.101  11.008
25476W        W93806  40.517  17.114   3.723
25477W        W93807   2.922  14.699  13.871
25478W        W93808  27.508  22.020  12.356
25479W        W93809  22.167  28.026  11.918
25480W        W93810   2.448  22.140  12.933
25481W        W93811  38.376  11.243  11.391
25482W        W93812   7.222  32.404   0.252
25483W        W93813   6.728  26.663   1.302
25484W        W93814  19.116   7.718  11.551
25485W        W93815   1.845  28.933  12.534
25486W        W93816  12.737  27.160  14.899
25487W        W93817  17.665  32.999  13.982
25488W        W93818  15.242   5.224  14.988
25489W        W93819  41.813  12.638  11.923
25490W        W93820  17.253   2.724   2.789
25491W        W93821  43.479  10.768   2.402
25492W        W93822  41.981  40.902   3.329
25493W        W93823  18.181  41.978  13.886
25494W        W93824   3.312  19.575  11.128
25495W        W93825   3.770  11.759  11.512
25496W        W93826  11.367  39.968  10.998
25497W        W93827  30.016  40.415   3.278
25498W        W93828   1.450  44.339   1.702
25499W        W93829   9.394   2.844  10.421
25500W        W93830  23.524  18.290   1.881
25501W        W93831  33.472  14.764   0.299
25502W        W93832  14.140   9.380  10.510
25503W        W93833   1.353  22.711  14.983
25504W        W93834   1.426   4.432   4.766
25505W        W93835   7.387  19.146  14.310
25506W        W93836   3.711   6.762  12.536
25507W        W93837  43.007  22.612   0.476
25508W        W93838   9.833  12.138  14.937
25509W        W93839   6.251  41.951  11.374
25510W        W93840  24.686  37.006   3.167
25511W        W93841  21.549   3.434  11.029
25512W        W93842  40.925  37.540  12.834
25513W        W93843  18.214  10.658  11.456
25514W        W93844  24.644   7.703  10.607
25515W        W93845  35.086  11.708  10.999
25516W        W93846  43.383  26.629  10.556
25517W        W93847  27.545  38.346   3.210
25518W        W93848  35.944  40.462   0.422
25519W        W93849  15.288   0.794  11.042
25520W        W93850  26.151  43.880  11.068
25521W        W93851   6.374   1.836   0.313
25522W        W93852  41.814  16.232   2.676
25523W        W93853  15.639   0.347   3.683
25524W        W93854   7.860  22.101  10.487
25525W        W93855  32.406  42.388   0.357
25526W        W93856  38.942  30.008  13.469
25527W        W93857  21.581  12.301   2.705
25528W        W93858   4.311  39.813   4.280
25529W        W93859  25.192   6.373   4.681
25530W        W93860  16.576  28.676   4.252
25531W        W93861  43.308   6.425  12.495
25532W        W93862  43.015  21.539   1.814
25533W        W93863  32.581  11.638  14.896
25534W        W93864   2.896  17.203  13.051
25535W        W93865  12.819  31.519  10.474
25536W        W93866   5.881   3.253   4.269
25537W        W93867  35.451  41.460  13.059
25538W        W93868   1.308  20.702  10.471
25539W        W93869  29.571   0.279   4.822
25540W        W93870  17.068  29.647  11.923
25541W        W93871   9.154  16.081   0.396
25542W        W93872  24.088  35.496  10.943
25543W        W93873  22.514  22.163   0.955
25544W        W93874  22.149  27.504   5.107
25545W        W93875  32.120   0.383  14.031
25546W        W93876  41.355  35.075  10.468
25547W        W93877  29.438  19.198   2.359
25548W        W93878  41.393   1.299  12.396
25549W        W93879  42.974  43.363   2.358
25550W        W93880  25.635  44.886  14.502
25551W        W93881  37.521   7.172   0.876
25552W        W93882  25.987  17.732  14.859
25553W        W93883  38.017  16.762  11.870
25554W        W93884  31.403  32.004   4.329
25555W        W93885   4.796  43.434  11.512
25556W        W93886  40.462  32.407   2.302
25557W        W93887   1.855  14.207  11.914
25558W        W93888  38.027  35.406  12.551
25559W        W93889  11.854  37.044  14.030
25560W        W93890   5.813  26.645   2.222
25561W        W93891   9.386  24.047   3.797
25562W        W93892  31.087  34.035  11.109
25563W        W93893  26.647  11.284   1.876
25564W        W93894  25.203  18.718  12.363
25565W        W93895   7.722  44.803  10.547
25566W        W93896  42.835  39.416  14.873
25567W        W93897  35.896  26.984  12.422
25568W        W93898  39.337   0.379   0.933
25569W        W93899  20.221  19.161   3.718
25570W        W93900  25.965   9.713  12.532
25571W        W93901  35.468  29.056  11.868
25572W        W93902   5.934  38.833  12.901
25573W        W93903  32.886  30.046   1.788
25574W        W93904  14.623  16.210   0.953
25575W        W93905  13.720  39.346  10.531
25576W        W93906   0.332   6.371   2.706
25577W        W93907  30.126  13.770  14.498
25578W        W93908  25.692  12.738   3.735
25579W        W93909  36.399   5.431   0.939
25580W        W93910   1.887  36.899  12.087
25581W        W93911  20.126  26.055   2.740
25582W        W93912  10.315  19.091   4.300
25583W        W93913  24.565  24.560   2.768
25584W        W93914  30.591  36.021   1.718
25585W        W93915  16.169   1.471   3.724
25586W        W93916  30.439  12.631  13.899
25587W        W93917  43.440  14.134   2.236
25588W        W93918  20.690  40.538  13.349
25589W        W93919  25.625  18.066   1.779
25590W        W93920  26.638  37.487  14.890
25591W        W93921   0.348   7.718   0.956
25592W        W93922   6.910  23.179   2.269
25593W        W93923  36.032  14.660  13.496
25594W        W93924  42.315   0.493  11.388
25595W        W93925  26.602  42.935  14.005
25596W        W93926   5.400  41.916  10.599
25597W        W93927  30.458  39.418   4.693
25598W        W93928  35.907  14.320   3.720
25599W        W93929  15.693   9.301  12.425
25600W        W93930  28.598  38.023   0.788
25601W        W93931  41.430  35.996  11.044
25602W        W93932  24.198  40.918   2.245
25603W        W93933  42.355  40.372   0.803
25604W        W93934  37.878  26.644  11.406
25605W        W93935  26.668  11.234   0.477
25606W        W93936  29.669   2.285   3.206
25607W        W93937   6.717  18.087  11.927
25608W        W93938  11.203   3.362  11.945
25609W        W93939  44.290   2.238   1.441
25610W        W93940  23.578  31.482  12.518
25611W        W93941  14.148  32.408  12.490
25612W        W93942   0.823  41.510   0.278
25613W        W93943  29.010  16.765  10.918
25614W        W93944  29.506  44.428  10.974
25615W        W93945  27.188   6.253   1.420
25616W        W93946  12.120  29.491   3.282
25617W        W93947  41.474  34.895   4.724
25618W        W93948  22.674  36.092  10.422
25619W        W93949  36.562  41.492  14.884
25620W        W93950  26.207  33.086  10.531
25621W        W93951  17.796  36.389   1.275
25622W        W93952  16.731  17.555  10.898
25623W        W93953  38.929  28.483   2.225
25624W        W93954  11.736  38.881   3.828
25625W        W93955   6.332  18.266   1.854
25626W        W93956  27.683  34.077  14.286
25627W        W93957  25.168  29.635  12.859
25628W        W93958  26.172  39.383   1.444
25629W        W93959  42.781   3.734  11.397
25630W        W93960  17.661   9.339  14.763
25631W        W93961  14.145  36.369  12.995
25632W        W93962  10.264   2.414   2.667
25633W        W93963   3.452  21.252  10.444
25634W        W93964   2.761  11.250  12.048
25635W        W93965   9.866  16.161   0.451
25636W        W93966  34.961  18.666   3.370
25637W        W93967  17.617  11.797  13.816
25638W        W93968  13.211  21.062   2.838
25639W        W93969  21.675  36.949  11.546
25640W        W93970   5.265  20.561   3.206
25641W        W93971  40.897  27.494  12.352
25642W        W93972  38.961  19.630  12.917
25643W        W93973  28.075  42.313  11.115
25644W        W93974  12.329  21.682  11.886
25645W        W93975  36.015  44.937   2.721
25646W        W93976   8.366  13.338   0.273
25647W        W93977  43.456  13.672  13.333
25648W        W93978  29.494  43.500  14.017
25649W        W93979   7.396  13.614  11.950
25650W        W93980   5.884  43.874   3.791
25651W        W93981  20.191  43.937   0.364
25652W        W93982   5.690  24.986   4.803
25653W        W93983  35.597  15.202   1.753
25654W        W93984  17.293  42.291   3.303
25655W        W93985  24.097  27.623  13.482
25656W        W93986   5.798   7.842  11.431
25657W        W93987  36.996  23.097  14.358
25658W        W93988   3.870  41.899   4.719
25659W        W93989  40.899  15.230   4.258
25660W        W93990   2.932   4.323   2.414
25661W        W93991  40.936   9.802  14.384
25662W        W93992  12.814  21.544  13.432
25663W        W93993  33.493  31.943  12.093
25664W        W93994   9.805   4.306   4.720
25665W        W93995  27.197  18.624   3.272
25666W        W93996  21.039   2.833   3.379
25667W        W93997   0.846  22.201  13.317
25668W        W93998  25.599  37.467   2.306
25669W        W93999  37.831   4.357  11.994
25670W        W94000   4.771  44.389   2.829
25671W        W94001   8.770  35.888  10.907
25672W        W94002   9.847  19.630   0.757
25673W        W94003  18.239  40.864   4.234
25674W        W94004  14.232  37.932   4.728
25675W        W94005   5.692  28.176   4.291
25676W        W94006  10.155  11.224   5.313
25677W        W94007  36.546   5.888  10.999
25678W        W94008  34.037  42.988  13.357
25679W        W94009  26.588  29.575   2.730
25680W        W94010   0.926   8.316  11.389
25681W        W94011   7.787   2.395   1.774
25682W        W94012   1.968   7.713  12.503
25683W        W94013   9.731  13.333   0.304
25684W        W94014  16.294  17.274  12.046
25685W        W94015  17.269  37.087   3.768
25686W        W94016   0.880  29.965   3.833
25687W        W94017  18.561  31.132  12.087
25688W        W94018  34.934  30.501   1.337
25689W        W94019  14.146  33.060   0.252
25690W        W94020  40.467  14.337  13.362
25691W        W94021  20.197   0.903   4.221
25692W        W94022   8.844  13.664   1.895
25693W        W94023  37.418  32.478  13.329
25694W        W94024  41.808  17.730  14.875
25695W        W94025  32.604  35.485   3.349
25696W        W94026  16.658  24.038   2.794
25697W        W94027   9.298   0.423  10.425
25698W        W94028   0.946  10.852   2.319
25699W        W94029  33.537  19.130  10.028
25700W        W94030  23.665   3.749   0.473
25701W        W94031  16.716   1.413   4.653
25702W        W94032  30.122  10.665  10.500
25703W        W94033  43.792  42.457  11.070
25704W        W94034  44.345  16.761   4.242
25705W        W94035  40.949  44.791   0.415
25706W        W94036  33.513  40.540   4.732
25707W        W94037  12.749  27.456   3.837
25708W        W94038  17.228  42.327  14.476
25709W        W94039  36.554  21.625  12.538
25710W        W94040  18.187   8.834  13.791
25711W        W94041  10.870  22.512  13.891
25712W        W94042   9.309  34.962  13.362
25713W        W94043  44.951  40.829  12.541
25714W        W94044  21.530  43.316  14.974
25715W        W94045  12.682  25.632   0.355
25716W        W94046  19.039  16.286   3.846
25717W        W94047  32.885  21.672   3.859
25718W        W94048  40.996  23.520   0.309
25719W        W94049  27.671   0.373   1.895
25720W        W94050   9.323  21.756   0.323
25721W        W94051  33.071  25.512  13.818
25722W        W94052   6.315   9.876   4.757
25723W        W94053   1.335  15.596  13.320
25724W        W94054  40.045  14.338   2.703
25725W        W94055  22.557  44.413  10.408
25726W        W94056  21.681  43.910   3.208
25727W        W94057  36.872  28.929   3.327
25728W        W94058  13.636  14.785  12.398
25729W        W94059  26.509  24.050   0.388
25730W        W94060   1.443  18.220   3.781
25731W        W94061  44.359  15.228   4.290
25732W        W94062   7.355  36.098  13.411
25733W        W94063  21.024  40.033   4.283
25734W        W94064  24.668  40.429  14.492
25735W        W94065  13.708  16.673  13.904
25736W        W94066   1.898   2.906  12.037
25737W        W94067  31.977  43.933   3.825
25738W        W94068  30.562  20.710   4.646
25739W        W94069  43.840  19.686   5.301
25740W        W94070  13.624  42.834   2.719
25741W        W94071  25.523  42.880   2.334
25742W        W94072  33.904  39.315   4.273
25743W        W94073   4.774  31.041  14.001
25744W        W94074  44.798  34.031   3.846
25745W        W94075   6.813  19.672   1.811
25746W        W94076  23.586  21.061  13.003
25747W        W94077  26.464  13.841  12.934
25748W        W94078   0.487  23.101  11.980
25749W        W94079   0.939   1.415   1.862
25750W        W94080  16.585   9.720  13.518
25751W        W94081  33.009  27.105   0.784
25752W        W94082  38.040   6.731  10.570
25753W        W94083  37.569   1.868  11.474
25754W        W94084  39.000  32.106  10.423
25755W        W94085  12.711  27.568   1.819
25756W        W94086  42.467  26.545  14.290
25757W        W94087  15.183  36.852  10.020
25758W        W94088  19.173  23.511  11.056
25759W        W94089   2.922  40.843  12.905
25760W        W94090  16.663  36.408   5.141
25761W        W94091  25.186  20.747   2.264
25762W        W94092   8.360  15.219   4.123
25763W        W94093  14.626   9.647  12.835
25764W        W94094  19.667  23.056   0.330
25765W        W94095   2.852  27.033   1.446
25766W        W94096  38.060  11.809   0.258
25767W        W94097  20.623  15.609  12.872
25768W        W94098  39.978  18.074   0.342
25769W        W94099  31.137  14.198   2.695
25770W        W94100  19.092  29.082  13.523
25771W        W94101  18.273  42.505  13.940
25772W        W94102  18.067  27.589   2.746
25773W        W94103  29.061  24.523  14.801
25774W        W94104   5.785  18.120  11.464
25775W        W94105  25.163  31.525   3.770
25776W        W94106   3.864  29.013   4.210
25777W        W94107   4.248  10.765  12.364
25778W        W94108  26.154   7.186   3.704
25779W        W94109  15.295  18.594   2.316
25780W        W94110  30.547  21.118  13.401
25781W        W94111  44.428   6.730   0.754
25782W        W94112  31.513  41.893  10.922
25783W        W94113  27.163  11.781   1.224
25784W        W94114  44.380  29.087  13.002
25785W        W94115  20.732  20.065   4.294
25786W        W94116  40.905  44.375   3.806
25787W        W94117  20.634   8.900   3.800
25788W        W94118  36.977   1.458   3.643
25789W        W94119  37.019  39.886  13.435
25790W        W94120  25.561  25.039   5.216
25791W        W94121   3.278   8.840   2.669
25792W        W94122  21.137  13.197   2.359
25793W        W94123   5.433  10.160  12.846
25794W        W94124  35.998  44.475  11.993
25795W        W94125  15.252  23.023  10.596
25796W        W94126  14.811  18.761   1.229
25797W        W94127  10.844  21.060  14.937
25798W        W94128  37.439  11.830  14.023
25799W        W94129  29.986   1.743  13.006
25800W        W94130  29.004  42.775   0.364
25801W        W94131   4.811  12.172   2.705
25802W        W94132  25.530  39.012  13.456
25803W        W94133  18.182  40.342  14.343
25804W        W94134   6.689  19.554   1.434
25805W        W94135  35.384  44.273   1.265
25806W        W94136  38.035  18.568  11.883
25807W        W94137   9.175  24.540  11.866
25808W        W94138  31.447  22.658   1.868
25809W        W94139  11.771   1.964  12.470
25810W        W94140  29.453  20.165   2.204
25811W        W94141  43.837  11.816   3.785
25812W        W94142  31.944   1.812   4.313
25813W        W94143  17.747  42.959  14.806
25814W        W94144  15.713   4.880   3.338
25815W        W94145   6.748  29.633   2.327
25816W        W94146  31.444   7.813   1.281
25817W        W94147  35.433   2.379  13.880
25818W        W94148  43.465  29.603   1.253
25819W        W94149  28.445  41.917  13.956
25820W        W94150  11.860  38.412   2.209
25821W        W94151  26.689  30.651   4.775
25822W        W94152  24.591  27.481  14.367
25823W        W94153  24.214  15.225  13.334
25824W        W94154  33.965  18.244   3.316
25825W        W94155   2.263  27.518   3.773
25826W        W94156  30.031  29.167   4.221
25827W        W94157  13.191  24.000  12.388
25828W        W94158   2.450  38.417   5.769
25829W        W94159  23.673  10.249  12.823
25830W        W94160   2.791  13.225   2.837
25831W        W94161  28.506  20.707   0.773
25832W        W94162  15.592  15.685  12.566
25833W        W94163  40.821   6.917  13.852
25834W        W94164  21.586  29.550   0.402
25835W        W94165  36.560  31.997  11.418
25836W        W94166   6.838  26.674  14.799
25837W        W94167   0.317  22.221  11.445
25838W        W94168  34.934  30.416   3.842
25839W        W94169  26.553   4.330  12.018
25840W        W94170   3.886  39.972   4.123
25841W        W94171  42.365  15.635  12.856
25842W        W94172  20.713  43.353   1.694
25843W        W94173  22.237   9.192  14.287
25844W        W94174  37.854   2.813  10.455
25845W        W94175  33.453  14.248   5.291
25846W        W94176   0.894  28.941   4.171
25847W        W94177  10.665  12.287  13.527
25848W        W94178   8.691  34.110  10.565
25849W        W94179   1.846  34.977  14.924
25850W        W94180  17.748  40.003   1.397
25851W        W94181  12.688  43.780  14.467
25852W        W94182  19.722  20.643   3.226
25853W        W94183  27.975  16.237   4.819
25854W        W94184  11.733  11.800   4.605
25855W        W94185   4.786   9.868   0.401
25856W        W94186  33.450  33.542   2.670
25857W        W94187   6.799  37.542   1.406
25858W        W94188  37.573   6.236  11.887
25859W        W94189  31.916  11.767  10.498
25860W        W94190  37.386  10.371   2.240
25861W        W94191  26.607  11.691  13.349
25862W        W94192  14.735   7.802   1.778
25863W        W94193   0.428  40.992  12.007
25864W        W94194   4.886   9.651   1.737
25865W        W94195  11.291  37.338   3.372
25866W        W94196  43.820  24.105   4.151
25867W        W94197  39.416  21.258   1.760
25868W        W94198  19.179  34.881  10.580
25869W        W94199  27.056  15.188  10.582
25870W        W94200  10.805  19.206  13.006
25871W        W94201  28.502  25.094   3.681
25872W        W94202  24.532  23.656  13.374
25873W        W94203   4.943  32.041  13.800
25874W        W94204  14.684   8.223   1.386
25875W        W94205  12.775  28.472   0.801
25876W        W94206  43.465  22.165   1.907
25877W        W94207  14.730  20.199   3.691
25878W        W94208  24.213  16.671   2.181
25879W        W94209  18.626  18.632  13.921
25880W        W94210  23.724   1.387   0.282
25881W        W94211  36.030  30.077  11.515
25882W        W94212  28.008  28.598  10.616
25883W        W94213  11.288   1.466   3.190
25884W        W94214  39.939  35.082  12.550
25885W        W94215  25.004  14.297   2.728
25886W        W94216   7.296  14.621   4.176
25887W        W94217  33.577  35.066   4.332
25888W        W94218  37.347  25.193  11.886
25889W        W94219   0.952   8.666   3.720
25890W        W94220   8.821  28.956   3.259
25891W        W94221  40.358  33.042  13.496
25892W        W94222  35.376   7.300  14.343
25893W        W94223  17.780  14.809   4.675
25894W        W94224  26.998  39.342   1.237
25895W        W94225  26.985  36.479   2.760
25896W        W94226  13.625  34.007  14.455
25897W        W94227  29.558  27.019  10.496
25898W        W94228  21.594  21.613  14.495
25899W        W94229  10.252  32.395  13.446
25900W        W94230  15.622   7.797  10.498
25901W        W94231   8.802  40.907   2.752
25902W        W94232   3.770  10.168   1.263
25903W        W94233  16.654  26.483  11.055
25904W        W94234  31.472  23.030   5.137
25905W        W94235  31.989  34.032   4.246
25906W        W94236  37.360  22.725   4.327
25907W        W94237  27.040  17.802   0.297
25908W        W94238  22.039  12.192  14.323
25909W        W94239  43.273  16.296  13.922
25910W        W94240   8.356  36.500   1.843
25911W        W94241  23.164   3.340   0.944
25912W        W94242  32.929   0.853   1.768
25913W        W94243  24.485  20.734   2.805
25914W        W94244  12.227  25.574  13.351
25915W        W94245  24.575  32.035   1.773
25916W        W94246  15.632  37.419  13.408
25917W        W94247  38.363   3.917  13.877
25918W        W94248  18.064  22.542  14.397
25919W        W94249  37.927  12.620  13.926
25920W        W94250  24.193  30.120   2.843
25921W        W94251  26.570  41.323  14.992
25922W        W94252  11.703  14.731   1.935
25923W        W94253  15.804  32.996  14.980
25924W        W94254  22.587  21.139  11.967
25925W        W94255   2.795   8.868  13.023
25926W        W94256  44.961   3.933   1.770
25927W        W94257   6.366   5.692  14.885
25928W        W94258  43.328  20.584  12.353
25929W        W94259  44.845  10.221   3.867
25930W        W94260  43.306  21.238   3.336
25931W        W94261  25.137  44.911  12.477
25932W        W94262  41.477  38.867   0.877
25933W        W94263  41.426  23.129  10.502
25934W        W94264  42.290   0.318   1.230
25935W        W94265  22.211   4.220   1.386
25936W        W94266  39.061  23.579  10.572
25937W        W94267   0.883  26.189   0.760
25938W        W94268  10.724  10.191   0.765
25939W        W94269  36.518  25.095  11.531
25940W        W94270  21.183  18.118   1.446
25941W        W94271  34.542  28.112   2.699
25942W        W94272   2.344   1.347   3.792
25943W        W94273  13.346  19.191   1.280
25944W        W94274  24.546  37.564   0.866
25945W        W94275  12.246   0.937   1.316
25946W        W94276  18.589  34.481   0.378
25947W        W94277   9.335  22.176   4.606
25948W        W94278  30.979  19.569  13.309
25949W        W94279  43.481  33.125  11.963
25950W        W94280  27.068  12.206  11.057
25951W        W94281  25.594  44.290   1.742
25952W        W94282  27.149   4.284  10.963
25953W        W94283   8.218   9.383   1.774
25954W        W94284  40.968  19.154   0.879
25955W        W94285   0.959  24.039   2.734
25956W        W94286  21.671   9.734  12.970
25957W        W94287  28.176  28.667   1.856
25958W        W94288  30.580  40.917  13.455
25959W        W94289  18.642  17.778   3.266
25960W        W94290   0.979  20.710  13.796
25961W        W94291  21.725   3.363   0.301
25962W        W94292  44.953  20.641   1.903
25963W        W94293   0.920  35.956  14.782
25964W        W94294  11.287  35.432  11.487
25965W        W94295  26.488   3.294   3.382
25966W        W94296  20.134  20.264  14.410
25967W        W94297  17.797  13.159  14.396
25968W        W94298   2.389   7.363  13.501
25969W        W94299  22.678  44.801   3.711
25970W        W94300  18.661  29.059  11.546
25971W        W94301  37.037  14.299  12.544
25972W        W94302   2.381  18.601   4.206
25973W        W94303  31.553  29.487   2.187
25974W        W94304  22.680  11.293   3.367
25975W        W94305  31.128  42.867   3.322
25976W        W94306   7.411  38.417  11.966
25977W        W94307  23.542  28.089   1.213
25978W        W94308  24.108   4.880  11.418
25979W        W94309   8.889   3.429   2.884
25980W        W94310   8.749  43.365   1.377
25981W        W94311  26.702  19.163  13.525
25982W        W94312  24.057  13.748   0.426
25983W        W94313  37.429  36.875   3.843
25984W        W94314  10.321  40.946  13.796
25985W        W94315  15.813  38.380  11.862
25986W        W94316   3.736  29.024   2.816
25987W        W94317  34.946  26.541  10.404
25988W        W94318   4.290  20.689  13.462
25989W        W94319  44.448  32.573   2.402
25990W        W94320  14.697  29.172   1.822
25991W        W94321  39.900  23.678   3.811
25992W        W94322  12.270  13.141   3.186
25993W        W94323  27.955  18.142   2.695
25994W        W94324  11.847  26.577  10.414
25995W        W94325  11.159  23.094  14.808
25996W        W94326  41.948  29.625  13.828
25997W        W94327  34.613  44.839   0.878
25998W        W94328  23.111   1.449  12.064
25999W        W94329  39.460  20.064  14.966
26000W        W94330  14.319  23.067  11.463
26001W        W94331  38.478  42.817   2.315
26002W        W94332   7.796   2.267   2.842
26003W        W94333   5.350  39.876   4.743
26004W        W94334  37.066  40.446   0.872
26005W        W94335  41.850  40.029  13.363
26006W        W94336  25.216  33.395  12.478
26007W        W94337  12.141  35.893  14.423
26008W        W94338  32.992  13.668  12.451
26009W        W94339  20.194  14.302  12.425
26010W        W94340  29.944  36.021   0.429
26011W        W94341   2.232  18.105   4.734
26012W        W94342  15.143  37.020   2.693
26013W        W94343  32.469  31.897   1.790
26014W        W94344  12.780  12.690   1.330
26015W        W94345  38.912  19.593  10.075
26016W        W94346  25.053  38.524  13.929
26017W        W94347  21.744  21.082  11.601
26018W        W94348  21.665  20.722  12.499
26019W        W94349   9.786  15.675   1.304
26020W        W94350   2.936  36.448   1.788
26021W        W94351  10.288  25.995   0.887
26022W        W94352  26.035  30.454  12.354
26023W        W94353   2.821  37.498   4.794
26024W        W94354  16.602  10.751   0.799
26025W        W94355  40.473   2.283   1.793
26026W        W94356  42.317   1.737   3.289
26027W        W94357  21.111  43.421  13.922
26028W        W94358  14.297  39.041   5.160
26029W        W94359   5.800  36.421  14.500
26030W        W94360   1.386  16.297  13.427
26031W        W94361   3.863  21.688   3.180
26032W        W94362   5.226   9.671  11.953
26033W        W94363  10.212  37.854   2.783
26034W        W94364  29.549  25.596   0.869
26035W        W94365  40.466  30.536  14.507
26036W        W94366  36.580   0.248   4.613
26037W        W94367  22.012  14.652  12.500
26038W        W94368  21.084   2.435   2.372
26039W        W94369  25.507  44.003   1.426
26040W        W94370  26.647  36.533   0.473
26041W        W94371  28.561  25.551  10.984
26042W        W94372   8.664  31.624  12.989
26043W        W94373  32.412  11.206   1.922
26044W        W94374  38.566  17.253  14.501
26045W        W94375  22.046  17.153   3.356
26046W        W94376   9.276  12.722   3.673
26047W        W94377  39.029   7.200   0.258
26048W        W94378  12.660   3.777  14.321
26049W        W94379  14.807  28.163  11.397
26050W        W94380  35.074  17.250   2.673
26051W        W94381   3.719  26.586  13.928
26052W        W94382  19.606  24.189   5.139
26053W        W94383  20.540  42.309   1.830
26054W        W94384  35.590  24.493   0.940
26055W        W94385  21.042  19.229   1.391
26056W        W94386  10.695  14.832  12.461
26057W        W94387   1.904  15.161   0.785
26058W        W94388  37.049  27.983  11.552
26059W        W94389   2.369  31.983  11.517
26060W        W94390  42.977   6.244  10.545
26061W        W94391  18.180  28.434   0.879
26062W        W94392  29.656  34.045  11.464
26063W        W94393   5.308  26.040  11.927
26064W        W94394  19.249  32.491   3.633
26065W        W94395  33.897   0.887   2.813
26066W        W94396  36.412  11.141   2.285
26067W        W94397  30.619   7.260  11.992
26068W        W94398   5.926  20.555  12.868
26069W        W94399  37.007  14.303   4.182
26070W        W94400  39.432  27.609   3.299
26071W        W94401  12.674  31.046   0.423
26072W        W94402   3.848  35.965   0.730
26073W        W94403  40.000  25.127   1.263
26074W        W94404  10.155  40.345  11.931
26075W        W94405   6.742  24.191  14.463
26076W        W94406   7.759   8.226  12.954
26077W        W94407   0.471   0.877  11.884
26078W        W94408  23.671  26.187   2.348
26079W        W94409   1.838  20.576   3.157
26080W        W94410  16.650  14.211   1.288
26081W        W94411  40.861  39.992  10.967
26082W        W94412  38.556  36.893   2.681
26083W        W94413  36.442   5.758   0.442
26084W        W94414   8.271  20.186  13.927
26085W        W94415  44.267   5.702   1.442
26086W        W94416  33.492  44.968  11.551
26087W        W94417  25.695  22.094  13.885
26088W        W94418  35.503  39.948  10.602
26089W        W94419  43.836  26.133   1.250
26090W        W94420  30.443   7.776   1.412
26091W        W94421  23.731   3.308  11.105
26092W        W94422  18.279  21.076  13.333
26093W        W94423   8.377  21.730  10.972
26094W        W94424  34.464  19.184   3.263
26095W        W94425   0.890  34.579  10.630
26096W        W94426  16.655  13.315  13.487
26097W        W94427  16.592  23.596   1.212
26098W        W94428   1.290  13.277   4.304
26099W        W94429  36.440  25.185  14.807
26100W        W94430  32.079   1.824  13.820
26101W        W94431   7.369  15.188   0.369
26102W        W94432   6.407  22.602  10.631
26103W        W94433   5.242  25.967   2.289
26104W        W94434  16.568  39.528  12.855
26105W        W94435  33.592  28.135   5.298
26106W        W94436  13.642  14.175  10.514
26107W        W94437  38.405  37.949  12.020
26108W        W94438  20.215  31.475   1.254
26109W        W94439  16.206  28.003   1.852
26110W        W94440  40.031  29.095  10.580
26111W        W94441  31.595   3.921  10.556
26112W        W94442  16.684  19.535   2.280
26113W        W94443   6.759  35.521  10.561
26114W        W94444  35.566  39.926   1.427
26115W        W94445  23.119   2.931  13.543
26116W        W94446  12.276  35.856  13.438
26117W        W94447  40.496  25.541  12.980
26118W        W94448  32.535   4.243   4.766
26119W        W94449   4.413   0.435   3.656
26120W        W94450  27.623   5.242  14.440
26121W        W94451  23.671  37.061  12.833
26122W        W94452  17.156  40.398  13.309
26123W        W94453   9.751  32.926   1.451
26124W        W94454   6.289   5.748   1.732
26125W        W94455  33.931  21.589  11.429
26126W        W94456  36.995  25.665  14.404
26127W        W94457  13.285  11.298  12.438
26128W        W94458  35.406  13.833  11.118
26129W        W94459  25.491  22.121   2.263
26130W        W94460  37.945  23.167  13.358
26131W        W94461   8.365  30.944   4.297
26132W        W94462  44.304  39.991   3.189
26133W        W94463  29.123   6.920   1.425
26134W        W94464  15.096  29.611   2.330
26135W        W94465  23.099  24.021  12.843
26136W        W94466  27.651  44.783   2.697
26137W        W94467  23.106  13.326  12.406
26138W        W94468  10.141  12.826   1.803
26139W        W94469  31.639  10.239   0.726
26140W        W94470   4.367  16.626  14.824
26141W        W94471  41.918  23.216  14.408
26142W        W94472  30.421  26.135   1.758
26143W        W94473  39.910  29.583   0.304
26144W        W94474  40.484  35.525  11.023
26145W        W94475  39.976   9.883  12.060
26146W        W94476   7.401  22.550   2.382
26147W        W94477  13.232  42.779   3.203
26148W        W94478   2.383  18.611  10.937
26149W        W94479  31.572  21.019  12.566
26150W        W94480  13.168  34.023  14.940
26151W        W94481  36.025  43.791  11.533
26152W        W94482   9.174  19.173   4.651
26153W        W94483  34.970  41.801  12.552
26154W        W94484  25.638   3.743   4.610
26155W        W94485  35.853   5.725  13.456
26156W        W94486   1.962   5.755   4.191
26157W        W94487  37.508  27.123   4.341
26158W        W94488  15.127  34.056  13.420
26159W        W94489  11.717  12.805  11.996
26160W        W94490   6.714  26.611   2.778
26161W        W94491  27.606   9.742   1.221
26162W        W94492  32.958  34.487   1.326
26163W        W94493  41.331   3.318  13.498
26164W        W94494  22.050  13.142   2.854
26165W        W94495  33.473  14.712  10.928
26166W        W94496  25.674   6.199   1.736
26167W        W94497  18.768  16.788   4.344
26168W        W94498  22.221  44.950   3.655
26169W        W94499  19.227  25.005  13.981
26170W        W94500  10.721  15.660  12.876
26171W        W94501   6.289  37.408   0.776
26172W        W94502   5.776  20.613   3.814
26173W        W94503  13.335   7.192   0.317
26174W        W94504  22.075   9.688  10.415
26175W        W94505  33.436  28.985   3.839
26176W        W94506  31.608  31.609  12.397
26177W        W94507  17.598  18.721  13.865
26178W        W94508  40.413  34.444  10.550
26179W        W94509  35.940  16.731   0.844
26180W        W94510   5.389  29.164   2.340
26181W        W94511  22.535   5.361   0.845
26182W        W94512   0.976  41.932   4.748
26183W        W94513  35.467  23.097   1.767
26184W        W94514  14.645  12.719   3.352
26185W        W94515   5.194   8.782  12.910
26186W        W94516   3.734  11.719  13.379
26187W        W94517   7.685   1.439   3.839
26188W        W94518   5.320  13.238  11.959
26189W        W94519  26.032   8.226   3.346
26190W        W94520  39.337  14.679  14.384
26191W        W94521  20.676  23.660   0.363
26192W        W94522   2.300  23.045  13.044
26193W        W94523  21.058  36.400   2.374
26194W        W94524  36.996   9.761  13.824
26195W        W94525  43.769  17.638  14.020
26196W        W94526  32.061  24.071  11.071
26197W        W94527  14.683  16.111  14.456
26198W        W94528   8.200  40.845   3.687
26199W        W94529  14.297  38.411  13.419
26200W        W94530  36.975   5.272   2.701
26201W        W94531  30.568  38.495  11.858
26202W        W94532  20.709  11.732   1.719
26203W        W94533  24.711  41.900   1.269
26204W        W94534  21.112  32.462   3.673
26205W        W94535  27.571   8.320   0.416
26206W        W94536  39.363   7.731  12.990
26207W        W94537  16.082   1.373  11.930
26208W        W94538  41.300  15.673  11.070
26209W        W94539  29.126  41.871   3.783
26210W        W94540  18.722  30.934  10.492
26211W        W94541  11.741  10.819  11.542
26212W        W94542  12.809  39.522  13.460
26213W        W94543   7.291  28.930  12.433
26214W        W94544  17.175  18.675  11.383
26215W        W94545  35.984  44.486  11.580
26216W        W94546  29.020  30.036   2.740
26217W        W94547  31.490  26.579  10.582
26218W        W94548   2.782  27.166  13.812
26219W        W94549  35.371  39.316  10.593
26220W        W94550   8.375  29.959   4.247
26221W        W94551  16.705  20.169   2.381
26222W        W94552  33.010  10.652   4.716
26223W        W94553  23.576   9.314   1.423
26224W        W94554  22.022  36.481   0.351
26225W        W94555   3.850   1.336   0.471
26226W        W94556  25.191  18.710  14.466
26227W        W94557  32.589  20.680   3.829
26228W        W94558  21.191  10.789   0.442
26229W        W94559  25.066   4.701   4.332
26230W        W94560  18.163  43.802  13.042
26231W        W94561   6.411  31.528  10.949
26232W        W94562  18.136  11.185   1.417
26233W        W94563   2.941  24.126   1.337
26234W        W94564  13.123   2.863  12.394
26235W        W94565   0.866   1.789   0.452
26236W        W94566  17.605  11.681  13.337
26237W        W94567  38.993  26.964  11.005
26238W        W94568  21.021  19.604  13.974
26239W        W94569  35.918  24.665  14.300
26240W        W94570  43.422  21.721  11.949
26241W        W94571  26.519   9.844   3.751
26242W        W94572  43.332  29.468  13.803
26243W        W94573  41.868   7.764   4.215
26244W        W94574  30.498  10.838  12.459
26245W        W94575   8.770  13.786   0.904
26246W        W94576  16.139  31.008  11.548
26247W        W94577  39.396   5.780  14.997
26248W        W94578  32.544  19.277   3.161
26249W        W94579  11.173  36.069   1.412
26250W        W94580  41.532  42.525  12.041
26251W        W94581  39.926   4.321   1.422
26252W        W94582  26.128  18.618  12.377
26253W        W94583  37.414   4.263  12.055
26254W        W94584  13.146   6.381   3.300
26255W        W94585  34.544  13.815  12.411
26256W        W94586  14.828  31.924   2.325
26257W        W94587  16.650  30.039  14.485
26258W        W94588  26.663  44.442  12.358
26259W        W94589   7.834  17.676   4.795
26260W        W94590  39.376   6.252  10.972
26261W        W94591  34.988  41.857   4.785
26262W        W94592  12.340  44.809   0.402
26263W        W94593  14.237  16.179  11.977
26264W        W94594   7.227  36.846  14.343
26265W        W94595  38.391   9.232  14.854
26266W        W94596  20.076   2.313   4.322
26267W        W94597  42.789  21.689   4.708
26268W        W94598  44.904  27.471   4.149
26269W        W94599  16.087   0.803  10.022
26270W        W94600  13.204   1.415   0.732
26271W        W94601  42.811  17.286  12.960
26272W        W94602  40.358  22.550   3.790
26273W        W94603  16.763  19.610  10.999
26274W        W94604  37.432  34.931   2.194
26275W        W94605  26.522  28.073  13.912
26276W        W94606  27.144  30.462  11.073
26277W        W94607  28.498  16.691  11.561
26278W        W94608  41.982   6.253   4.296
26279W        W94609  37.546   3.345   2.806
26280W        W94610  44.464  36.942  13.842
26281W        W94611  43.802   3.829  12.493
26282W        W94612  20.046  13.691   2.706
26283W        W94613  30.145  33.048   0.338
26284W        W94614  25.086  17.591   1.285
26285W        W94615  28.542  27.680   1.324
26286W        W94616  41.002   7.304  11.928
26287W        W94617  42.393  17.229   3.145
26288W        W94618  14.098  35.086   2.883
26289W        W94619   5.228  16.711  13.968
26290W        W94620  13.637  26.010  14.458
26291W        W94621  18.546  32.549  13.799
26292W        W94622   0.975  35.399   4.643
26293W        W94623  37.386  29.932   0.949
26294W        W94624  21.202   4.415  11.392
26295W        W94625  41.005  41.458  14.854
26296W        W94626   7.678   3.848  12.011
26297W        W94627   5.394  37.022   5.586
26298W        W94628  34.088   5.755   1.845
26299W        W94629   4.426  38.351   3.711
26300W        W94630  43.931  17.569  10.934
26301W        W94631   5.765   1.242  11.441
26302W        W94632  33.541  42.397   4.163
26303W        W94633  14.705   6.419  13.336
26304W        W94634   4.746  41.798   3.851
26305W        W94635  43.310   7.185   2.221
26306W        W94636  28.459  40.382   0.302
26307W        W94637  18.055  39.470   0.397
26308W        W94638  11.152  32.538   1.864
26309W        W94639  44.947   3.306   4.649
26310W        W94640  12.235  37.419  13.422
26311W        W94641  15.124  35.424   2.732
26312W        W94642  14.597  32.894  12.097
26313W        W94643  26.579  32.562   3.643
26314W        W94644  20.237   9.727   3.150
26315W        W94645   5.750  31.047  10.547
26316W        W94646  33.458  42.301   2.663
26317W        W94647   2.322   8.872   0.771
26318W        W94648  18.246  40.016  10.919
26319W        W94649  12.826  24.552   0.305
26320W        W94650   1.908  25.054  14.851
26321W        W94651   6.323  32.114   4.679
26322W        W94652   0.907  37.986   1.219
26323W        W94653  23.071  38.391  12.832
26324W        W94654  44.262   5.806   3.826
26325W        W94655  39.484  42.984  12.963
26326W        W94656   3.245  15.802  13.057
26327W        W94657  31.439  26.981  11.113
26328W        W94658  13.125  15.598  13.399
26329W        W94659   4.380   6.377  12.909
26330W        W94660  36.465  41.377  12.089
26331W        W94661  29.493  18.196  13.927
26332W        W94662   3.233  40.958   1.806
26333W        W94663   1.816  35.535  12.429
26334W        W94664  42.865   3.297   4.724
26335W        W94665  43.308  35.926  13.323
26336W        W94666  38.913  43.288   3.646
26337W        W94667  21.748  17.643   3.361
26338W        W94668   5.243  34.112  11.443
26339W        W94669  43.289  14.116   0.445
26340W        W94670   4.219  39.013  10.415
26341W        W94671  30.004  40.414   1.313
26342W        W94672  22.546   3.368   3.244
26343W        W94673  43.326  34.053  11.384
26344W        W94674  44.840  20.741   0.330
26345W        W94675  15.141  21.121   2.407
26346W        W94676  16.243  18.272   3.694
26347W        W94677   3.952  19.266  13.443
26348W        W94678  30.106   2.254   2.222
26349W        W94679   0.947  34.488  13.479
26350W        W94680   8.725  29.443   4.690
26351W        W94681  44.812   0.252  13.534
26352W        W94682  31.501  25.517   4.113
26353W        W94683  12.149  44.469   1.421
26354W        W94684  15.248   7.730   0.886
26355W        W94685   3.456  29.948  10.543
26356W        W94686  39.490  42.404  10.934
26357W        W94687  32.617  21.205   2.254
26358W        W94688   2.289  11.818   3.856
26359W        W94689  15.309  18.695   3.841
26360W        W94690  43.002  40.915  12.999
26361W        W94691  38.909  16.123  12.375
26362W        W94692  12.253   8.193  11.859
26363W        W94693   1.752  19.616  13.896
26364W        W94694  31.539  44.307  11.938
26365W        W94695  23.707  11.162  13.841
26366W        W94696  37.929  37.497  11.416
26367W        W94697  32.130   1.273   2.343
26368W        W94698  39.985  24.080   1.775
26369W        W94699  16.645  15.589   1.375
26370W        W94700  29.070  24.043  12.015
26371W        W94701  16.116   7.241  14.880
26372W        W94702  42.316  26.530   3.246
26373W        W94703  30.502   3.716   0.374
26374W        W94704  24.509  19.776   2.348
26375W        W94705  41.911  37.481   1.272
26376W        W94706  14.120  38.854   4.616
26377W        W94707  30.116   2.806  10.590
26378W        W94708  32.887   4.918  13.793
26379W        W94709   1.255  35.043  14.346
26380W        W94710  28.133  24.601  12.894
26381W        W94711  33.013  39.984  10.560
26382W        W94712  31.446  16.207  11.075
26383W        W94713   1.410  23.101  11.417
26384W        W94714  19.752  24.694   1.727
26385W        W94715  29.987  29.612   3.674
26386W        W94716  43.419  29.014   1.913
26387W        W94717  19.560  12.320  13.857
26388W        W94718  34.517  11.272  11.509
26389W        W94719  12.813  11.807   4.305
26390W        W94720  21.567   6.723   3.722
26391W        W94721  33.622  42.921  12.421
26392W        W94722  22.553  26.103   1.770
26393W        W94723   8.734  14.832   4.246
26394W        W94724  33.487  36.432   0.305
26395W        W94725  23.124  34.067   0.770
26396W        W94726  38.394   5.897  10.950
26397W        W94727  24.520   4.366   1.916
26398W        W94728   2.419  26.691   1.765
26399W        W94729  37.579  23.513   4.346
26400W        W94730  33.101  33.027  10.548
26401W        W94731  42.905  40.501  10.520
26402W        W94732  38.854  37.085  10.613
26403W        W94733  35.097  29.450  11.865
26404W        W94734  14.121  15.169  14.406
26405W        W94735  23.000  44.770   2.390
26406W        W94736  28.127  33.609   2.689
26407W        W94737  16.695   4.753   3.757
26408W        W94738  43.277  17.608   1.353
26409W        W94739  21.650  18.181   3.179
26410W        W94740  26.620  19.655  13.359
26411W        W94741  31.963   6.891  11.970
26412W        W94742  44.784  18.130   0.314
26413W        W94743  24.157  22.037   1.738
26414W        W94744   5.912  23.130   1.423
26415W        W94745  12.633  21.159  12.568
26416W        W94746   0.972  25.095   4.260
26417W        W94747   5.395  33.054   2.841
26418W        W94748   9.226  30.154  14.380
26419W        W94749  41.466   9.241  11.892
26420W        W94750  15.288   2.919   1.718
26421W        W94751  17.565  10.304  11.082
26422W        W94752  14.753  16.708   2.833
26423W        W94753   6.414  26.988  11.092
26424W        W94754  22.742  19.715   3.162
26425W        W94755  38.542  22.139  11.523
26426W        W94756  32.911  23.013   0.815
26427W        W94757  29.002  22.565   4.803
26428W        W94758   4.719  35.942   3.850
26429W        W94759  37.342  26.622   5.251
26430W        W94760  36.408   2.906  12.837
26431W        W94761  34.388  17.224  11.404
26432W        W94762  16.155   8.172   2.227
26433W        W94763  27.101  16.578   0.732
26434W        W94764  12.711   5.729   3.696
26435W        W94765   1.464  36.074   4.199
26436W        W94766  38.838   8.853   3.801
26437W        W94767   8.250  35.560  10.521
26438W        W94768  24.668  36.370  11.611
26439W        W94769  37.462   4.846   5.161
26440W        W94770  35.010  37.055   1.889
26441W        W94771  11.701  39.419  10.613
26442W        W94772   8.845   6.278  11.908
26443W        W94773  17.670   8.791  12.506
26444W        W94774  26.539  13.605   0.248
26445W        W94775  19.114  39.524   3.293
26446W        W94776  32.001  24.529   1.212
26447W        W94777  16.281  20.161   1.932
26448W        W94778   6.398  40.989   9.930
26449W        W94779  38.518  22.558  10.923
26450W        W94780   0.472  16.682  12.424
26451W        W94781  32.576  32.051   4.287
26452W        W94782  26.588  23.188   1.700
26453W        W94783  13.287  21.562  10.984
26454W        W94784  12.657   6.709   3.265
26455W        W94785  40.002  10.766   0.478
26456W        W94786  14.242  41.857   3.780
26457W        W94787  33.407  38.853   1.215
26458W        W94788  14.684  33.488   1.268
26459W        W94789  15.110  13.307   3.822
26460W        W94790  27.656   2.733  14.764
26461W        W94791  36.524  33.432   3.740
26462W        W94792  33.595  28.525   3.233
26463W        W94793   3.792   8.243   1.383
26464W        W94794  27.009   3.253  11.071
26465W        W94795  37.435  32.083  13.327
26466W        W94796  31.587  11.237  14.935
26467W        W94797  30.574  13.167   3.267
26468W        W94798  14.783   8.389  11.079
26469W        W94799  39.892  40.348   0.940
26470W        W94800  36.029  28.619   4.761
26471W        W94801  18.130  32.068  12.422
26472W        W94802  38.852  39.009  11.858
26473W        W94803  24.978  40.003  14.317
26474W        W94804  35.363  43.300  10.953
26475W        W94805  21.679   6.825   5.215
26476W        W94806  30.572  42.512   0.804
26477W        W94807  25.986  24.010   4.195
26478W        W94808  40.893   9.217  12.491
26479W        W94809   0.373   1.362   0.257
26480W        W94810  22.670  20.625   3.354
26481W        W94811  11.166  38.387  13.413
26482W        W94812  44.792  36.555  11.107
26483W        W94813  27.686  32.886  14.964
26484W        W94814  11.776  30.079  11.015
26485W        W94815  18.717   5.921  11.118
26486W        W94816  17.260  35.017  12.051
26487W        W94817   9.170  13.789   1.792
26488W        W94818   0.444  22.527   0.933
26489W        W94819  14.666  20.688   1.788
26490W        W94820  22.061  14.286   1.889
26491W        W94821  32.470   8.655  12.401
26492W        W94822  32.605  34.492  12.953
26493W        W94823  16.100   9.360  11.957
26494W        W94824  25.976  11.348  11.454
26495W        W94825  24.722  35.917  14.314
26496W        W94826  12.772  25.509  10.548
26497W        W94827  34.485  20.538  10.412
26498W        W94828  28.500  32.449  12.378
26499W        W94829   3.237  33.462   2.226
26500W        W94830  44.983  33.598  10.897
26501W        W94831  21.559   8.368  10.938
26502W        W94832  19.146  31.622   2.769
26503W        W94833  11.182  21.084  13.367
26504W        W94834  14.149  21.750   4.316
26505W        W94835   2.430  33.445  12.008
26506W        W94836  16.219  24.001  10.548
26507W        W94837  41.310  42.882   3.820
26508W        W94838  39.005  42.885  13.801
26509W        W94839   7.314  34.379  14.842
26510W        W94840   9.148  26.528  11.007
26511W        W94841  42.957   1.956   0.896
26512W        W94842  22.693  33.106  13.969
26513W        W94843   8.311  25.159   0.380
26514W        W94844  17.708  10.154   0.275
26515W        W94845  11.706   7.286  11.951
26516W        W94846  37.518   8.659   2.822
26517W        W94847  39.852  32.527   0.478
26518W        W94848   8.834  10.320  12.978
26519W        W94849   7.741   8.668  14.389
26520W        W94850  36.039  42.873  14.347
26521W        W94851  44.768  31.034   1.274
26522W        W94852  39.504  24.711   4.293
26523W        W94853  25.102  26.951  12.904
26524W        W94854  24.533  12.215  12.524
26525W        W94855  27.127  30.049   2.851
26526W        W94856  30.590  44.346  10.998
26527W        W94857   4.851  39.501  13.054
26528W        W94858  37.373   6.238  11.069
26529W        W94859  42.322  40.501  12.363
26530W        W94860  18.092  38.063  14.813
26531W        W94861  16.298  13.674   2.670
26532W        W94862  42.863   7.851   3.707
26533W        W94863  19.233  40.914  11.112
26534W        W94864   2.456  33.486   2.697
26535W        W94865  15.589   5.286   3.340
26536W        W94866  27.568  37.971  12.410
26537W        W94867  36.485  44.382  13.005
26538W        W94868   7.896  28.105   0.348
26539W        W94869  26.078   4.399  14.841
26540W        W94870   3.317   9.661  13.011
26541W        W94871  19.635  34.466  12.084
26542W        W94872  41.415  24.119   0.265
26543W        W94873  17.628  43.002  13.872
26544W        W94874  18.195   5.384   2.274
26545W        W94875  41.401   2.314   1.786
26546W        W94876  31.137  19.047  12.030
26547W        W94877  31.134  33.125   4.761
26548W        W94878  13.182  12.636   2.698
26549W        W94879  11.630   6.386   4.742
26550W        W94880  20.169  40.883  14.004
26551W        W94881  21.552  18.603   1.726
26552W        W94882   8.874  16.281   2.377
26553W        W94883  42.403  37.531  14.995
26554W        W94884  35.487  12.315  14.515
26555W        W94885  12.623   9.157  13.024
26556W        W94886  37.869  27.448   0.937
26557W        W94887  35.060  32.408  11.489
26558W        W94888  41.954  20.175  13.910
26559W        W94889  35.938  37.892  13.039
26560W        W94890  15.782  38.499   4.648
26561W        W94891  42.956  15.784   2.418
26562W        W94892  12.622  42.994   2.758
26563W        W94893   3.235  36.490   3.339
26564W        W94894  11.344  22.643  14.368
26565W        W94895  30.143  18.069  11.876
26566W        W94896  41.936   7.369   4.634
26567W        W94897  27.941  28.532   2.361
26568W        W94898   8.370  30.590   1.696
26569W        W94899  43.831  23.196   2.743
26570W        W94900  18.608  12.314  11.501
26571W        W94901   5.852  38.051   3.651
26572W        W94902  11.367  43.913  12.491
26573W        W94903  38.851   1.469  13.540
26574W        W94904  30.987  41.306   0.927
26575W        W94905  36.075  31.473   1.857
26576W        W94906  43.300   5.217  13.964
26577W        W94907   7.238  16.260  10.418
26578W        W94908  25.694   9.695  10.631
26579W        W94909  42.789  10.746   2.806
26580W        W94910  33.499  35.955   4.761
26581W        W94911  24.165  27.452   4.617
26582W        W94912   1.964  41.790  12.040
26583W        W94913  21.655  43.879   4.148
26584W        W94914  24.128  40.970   0.288
26585W        W94915  14.779  15.167  10.423
26586W        W94916   7.181  15.768  11.530
26587W        W94917  43.283  13.832  14.938
26588W        W94918  18.156  36.585   1.366
26589W        W94919  26.641   9.864   2.300
26590W        W94920  21.693   6.913  13.431
26591W        W94921   6.921  36.964  11.103
26592W        W94922  14.318   2.760  12.344
26593W        W94923   3.260  17.641  14.312
26594W        W94924  10.740   1.358   0.783
26595W        W94925  22.104  17.685   2.702
26596W        W94926  42.415   0.416   3.741
26597W        W94927  44.004  14.273   2.321
26598W        W94928  30.567  18.782  14.890
26599W        W94929   1.917  14.282   0.277
26600W        W94930  41.349  19.750   0.462
26601W        W94931  13.264  41.408  12.542
26602W        W94932  32.006  36.578   3.274
26603W        W94933  16.707   8.289   4.605
26604W        W94934  42.796  22.706   4.716
26605W        W94935  11.788  25.508   1.725
26606W        W94936  37.407  41.961  11.456
26607W        W94937  30.422  30.657  11.569
26608W        W94938  22.597  41.005  14.789
26609W        W94939  39.940  31.424  12.493
26610W        W94940  12.619  32.501  10.936
26611W        W94941  38.522  40.856  12.073
26612W        W94942  39.850  30.425  14.308
26613W        W94943  11.781  35.391  14.465
26614W        W94944  22.064  38.352  13.394
26615W        W94945  12.770   1.287  11.039
26616W        W94946   9.809  43.486   4.340
26617W        W94947  41.920  26.191   2.667
26618W        W94948  13.790  25.024   0.829
26619W        W94949  29.175  44.941  10.502
26620W        W94950   8.850  18.135  10.474
26621W        W94951  21.740  34.872   3.238
26622W        W94952  19.552  28.596  14.824
26623W        W94953  26.069  39.854   2.185
26624W        W94954  42.962   5.204  12.898
26625W        W94955  31.027  24.071  10.923
26626W        W94956  32.439  21.700   2.286
26627W        W94957  13.654   0.258   3.673
26628W        W94958  20.255   1.888  14.888
26629W        W94959  28.054  19.209   0.381
26630W        W94960  41.809  13.793  14.824
26631W        W94961  33.503  18.053  12.943
26632W        W94962  35.368  12.245   0.473
26633W        W94963   2.405  32.451   2.277
26634W        W94964  43.340  17.289  13.845
26635W        W94965  26.110  38.859   2.333
26636W        W94966  17.764   3.794   1.897
26637W        W94967  28.601  29.657  12.519
26638W        W94968  31.084  12.187  12.009
26639W        W94969  19.652  16.650  12.509
26640W        W94970  13.791  16.259  13.874
26641W        W94971  40.363  31.629  14.905
26642W        W94972  42.364   2.306   3.714
26643W        W94973  40.541  14.790  14.842
26644W        W94974  30.625  24.035   2.721
26645W        W94975  24.023  18.071  12.013
26646W        W94976  28.942  32.515   1.897
26647W        W94977  18.604   8.668   0.393
26648W        W94978  44.000  29.012   1.432
26649W        W94979   5.434  11.224  14.319
26650W        W94980  41.985  20.170  12.521
26651W        W94981  20.049  14.790   0.743
26652W        W94982  24.580  34.449  14.860
26653W        W94983  36.089  16.735  13.799
26654W        W94984  12.639   1.468  13.018
26655W        W94985  32.918  35.894  11.938
26656W        W94986  36.573  22.715   1.829
26657W        W94987  21.069   5.754   2.886
26658W        W94988   5.769  31.419   3.741
26659W        W94989  19.217   2.285   3.833
26660W        W94990  16.640  24.589   0.360
26661W        W94991  18.262  38.520   0.313
26662W        W94992  33.556   2.314   1.797
26663W        W94993  37.847   6.798   0.783
26664W        W94994   6.905   8.362   3.793
26665W        W94995   2.300  44.380  12.406
26666W        W94996  31.970  15.607   4.142
26667W        W94997  17.223  28.186   4.239
26668W        W94998  19.215  42.374   4.188
26669W        W94999  12.216  21.163  12.402
26670W        W95000   1.809  14.139  14.309
26671W        W95001  44.970  15.170   0.263
26672W        W95002   0.402  21.178  10.443
26673W        W95003  11.851  22.223  13.974
26674W        W95004   8.738  29.501  11.520
26675W        W95005   6.377  18.217   4.220
26676W        W95006  18.603  16.787   2.747
26677W        W95007  13.763   0.906  11.580
26678W        W95008  19.714  43.434   1.906
26679W        W95009   4.227  42.823   2.798
26680W        W95010  41.800  28.679   2.222
26681W        W95011  12.829  36.586   2.771
26682W        W95012  10.336   6.249  12.892
26683W        W95013  20.202  40.903   3.370
26684W        W95014  39.850  14.826  13.373
26685W        W95015   0.255  10.687   4.668
26686W        W95016  15.780   2.946   0.245
26687W        W95017  13.119   7.296  11.590
26688W        W95018  23.085   8.361   9.519
26689W        W95019  36.938  25.477  13.016
26690W        W95020  29.448  31.517  12.370
26691W        W95021  13.639  23.656   0.822
26692W        W95022   9.677   6.734   0.408
26693W        W95023  13.188  37.364   2.727
26694W        W95024  35.581  15.651   4.240
26695W        W95025  11.220  16.077   4.693
26696W        W95026   3.259   1.474  13.940
26697W        W95027  21.681  35.399   4.827
26698W        W95028  21.200  35.959   0.871
26699W        W95029  41.339  25.683  11.610
26700W        W95030  14.636   1.814   5.168
26701W        W95031  18.282  27.562  12.072
26702W        W95032  36.386  29.007   3.288
26703W        W95033  15.144  19.675  14.302
26704W        W95034  14.128  19.069   3.777
26705W        W95035  16.142  38.381   4.223
26706W        W95036  22.746  15.601   4.151
26707W        W95037  10.381  28.651   2.317
26708W        W95038  40.032   8.748   5.167
26709W        W95039  44.935   0.447   0.354
26710W        W95040  16.072  43.287  12.993
26711W        W95041   8.237  16.752   4.809
26712W        W95042  15.637  24.500   2.253
26713W        W95043  40.925   2.331  14.976
26714W        W95044  40.525  41.964  10.907
26715W        W95045  22.056  28.591  11.519
26716W        W95046  29.932  33.929  10.592
26717W        W95047  16.774  44.789  10.614
26718W        W95048  17.189  38.992   4.692
26719W        W95049   6.863  32.020  13.957
26720W        W95050   8.682  16.238  12.094
26721W        W95051  22.082   0.796   4.220
26722W        W95052  34.435   6.420  10.432
26723W        W95053   9.872  13.710  11.443
26724W        W95054  25.052  42.993   5.254
26725W        W95055   8.672  13.677   3.315
26726W        W95056  40.921  42.808   3.783
26727W        W95057  28.472  38.484   2.274
26728W        W95058   9.685  25.158   4.242
26729W        W95059  21.658  23.655  13.063
26730W        W95060  21.246   6.320   1.244
26731W        W95061  21.255  17.088   5.101
26732W        W95062  23.993  22.537  13.520
26733W        W95063  39.817  10.796  10.968
26734W        W95064  41.310  15.717  14.914
26735W        W95065   7.884  21.246   5.266
26736W        W95066  32.393  38.037  11.904
26737W        W95067   2.911  12.173   3.733
26738W        W95068  40.369   0.415   2.680
26739W        W95069  16.278  19.159   0.414
26740W        W95070  26.571  12.648  13.818
26741W        W95071   7.326  23.140  10.607
26742W        W95072  36.069   3.428   3.236
26743W        W95073   5.386  22.586  13.802
26744W        W95074  11.334   7.388   0.359
26745W        W95075  16.260  40.949   1.763
26746W        W95076  29.938  29.528  10.937
26747W        W95077  25.594   9.742   9.596
26748W        W95078  22.221  24.612  13.826
26749W        W95079  41.496  42.322   0.905
26750W        W95080  44.806  11.228   0.321
26751W        W95081  16.201  39.352  14.860
26752W        W95082  22.091   1.396  11.051
26753W        W95083  40.949  19.653  11.413
26754W        W95084   4.804  31.438   3.222
26755W        W95085  17.745   4.711  13.868
26756W        W95086  30.576  11.290   0.818
26757W        W95087  24.973  39.376  12.375
26758W        W95088   9.841  18.702  10.922
26759W        W95089  41.438  22.659  12.451
26760W        W95090  43.368   6.249   3.708
26761W        W95091  26.491  13.737   3.371
26762W        W95092  42.471  34.459  11.932
26763W        W95093  34.929   2.410  11.383
26764W        W95094   2.338   0.774  13.439
26765W        W95095  21.577  14.210   4.727
26766W        W95096  44.379  20.668   0.455
26767W        W95097  18.171  34.375  12.865
26768W        W95098  43.914  30.964   0.405
26769W        W95099   7.877   9.704   2.897
26770W        W95100  38.879  24.657  13.028
26771W        W95101  25.535  19.172  11.886
26772W        W95102  37.854  13.152  12.952
26773W        W95103  17.750  22.660  11.031
26774W        W95104  38.561  22.175   4.834
26775W        W95105  16.648  21.249   1.922
26776W        W95106  26.504   6.837  11.035
26777W        W95107  43.421   6.865  14.813
26778W        W95108  15.108  23.551  13.433
26779W        W95109   2.885  20.677  12.895
26780W        W95110  13.341   1.770   0.305
26781W        W95111   8.752  44.795  12.060
26782W        W95112   4.826  25.687   1.788
26783W        W95113  39.328  27.096  12.914
26784W        W95114  14.614  19.095  14.950
26785W        W95115   5.368  26.081  11.441
26786W        W95116   5.791  35.858  11.913
26787W        W95117  13.620  16.607   4.700
26788W        W95118   4.219  30.158  13.501
26789W        W95119  31.561  29.119   3.362
26790W        W95120  37.520  26.593  13.856
26791W        W95121  33.480  29.467  14.385
26792W        W95122  34.940  12.751   4.173
26793W        W95123  34.582  13.617  13.012
26794W        W95124  24.974  29.655   5.163
26795W        W95125  34.406   0.306  13.513
26796W        W95126  10.171   3.810   0.762
26797W        W95127  11.800   5.702  12.932
26798W        W95128  29.587  39.335   4.609
26799W        W95129  40.496  26.589  13.851
26800W        W95130  33.018  33.578  10.924
26801W        W95131  13.268  15.610  14.309
26802W        W95132  14.684  14.256  12.483
26803W        W95133  35.019  29.131   4.610
26804W        W95134  34.982  34.986   1.383
26805W        W95135   5.346  34.397   0.429
26806W        W95136  11.643  23.027  12.506
26807W        W95137   1.871  19.732   0.262
26808W        W95138  19.673  44.265   3.673
26809W        W95139   7.886  43.452  13.938
26810W        W95140  31.542   1.351  12.826
26811W        W95141  23.201  23.735  11.086
26812W        W95142  25.675   5.822   2.360
26813W        W95143  22.008   4.360   3.301
26814W        W95144  37.978   2.761  10.991
26815W        W95145  30.116  12.290   0.286
26816W        W95146  42.017  17.788   0.361
26817W        W95147  18.571   5.707   2.249
26818W        W95148  10.282  40.490  13.011
26819W        W95149   5.801  13.157  13.921
26820W        W95150  21.743  32.549   0.316
26821W        W95151  32.620  29.478  13.346
26822W        W95152  34.079  17.643  13.506
26823W        W95153  21.158  32.142   2.688
26824W        W95154   1.460   6.224  11.400
26825W        W95155  26.526  33.887  14.938
26826W        W95156   4.205   0.861  10.596
26827W        W95157   6.328  17.136   3.632
26828W        W95158  18.675  20.037  14.963
26829W        W95159   0.355   4.217  11.122
26830W        W95160  37.913  27.048  13.313
26831W        W95161  43.799   0.477   3.817
26832W        W95162   9.701  38.566  12.828
26833W        W95163   0.743  11.718  12.040
26834W        W95164  17.670  23.211  14.381
26835W        W95165  27.975  43.499   2.309
26836W        W95166   3.259  14.115  14.324
26837W        W95167  36.098  42.383   4.770
26838W        W95168  32.604  20.694  10.551
26839W        W95169   4.335  25.086   2.323
26840W        W95170  18.244  37.477   1.706
26841W        W95171  30.430  15.733   1.322
26842W        W95172  16.152  24.674   0.945
26843W        W95173  17.604  19.748  12.028
26844W        W95174  26.558  23.029  10.594
26845W        W95175  33.028  20.082   3.696
26846W        W95176  38.996   5.739   4.259
26847W        W95177   3.381   7.901  14.763
26848W        W95178   2.361   5.714  11.596
26849W        W95179   1.437   4.284   0.291
26850W        W95180   9.184  44.422  11.569
26851W        W95181  10.145  16.184  14.906
26852W        W95182  39.982   1.794   4.158
26853W        W95183   4.387  30.161  12.516
26854W        W95184   6.915   6.761  10.933
26855W        W95185  30.487  12.337  14.008
26856W        W95186  20.705  24.631   0.952
26857W        W95187  39.818   2.845   0.735
26858W        W95188  24.656  12.137   1.698
26859W        W95189   8.321  17.185  11.412
26860W        W95190  31.903  17.774  10.411
26861W        W95191  26.572  33.127   1.237
26862W        W95192  42.850   5.854  12.948
26863W        W95193  39.559  22.118  12.462
26864W        W95194  27.447  38.352   2.337
26865W        W95195  18.075  15.599   1.775
26866W        W95196   5.781  34.900  11.965
26867W        W95197   0.347  40.928   3.738
26868W        W95198  23.668   0.872  13.398
26869W        W95199  33.391  44.920   0.830
26870W        W95200   1.783   8.862  10.583
26871W        W95201  20.645  27.134  14.296
26872W        W95202   4.700  13.670   1.248
26873W        W95203  11.742  20.168  13.048
26874W        W95204  15.236  32.983   4.748
26875W        W95205  23.238  17.296  12.438
26876W        W95206  23.174  12.218   0.390
26877W        W95207  42.864   9.239  13.397
26878W        W95208  16.318   0.420  11.601
26879W        W95209  12.166  14.705  14.406
26880W        W95210  39.826  16.807   2.900
26881W        W95211  20.143  25.689   0.315
26882W        W95212   4.414  42.363  12.844
26883W        W95213  16.568  36.997   1.375
26884W        W95214  11.227   3.907  12.537
26885W        W95215  18.643  22.009  10.545
26886W        W95216  11.694  18.084  13.336
26887W        W95217  38.406  12.637  11.435
26888W        W95218  39.943  39.062  10.940
26889W        W95219  33.055  27.538  14.902
26890W        W95220  35.374  42.849   1.253
26891W        W95221  11.185  39.947   1.700
26892W        W95222  15.156  44.917   1.745
26893W        W95223  26.486  43.321  11.471
26894W        W95224  33.027   7.744   3.779
26895W        W95225  23.683  26.089  10.465
26896W        W95226  43.482  33.450  14.770
26897W        W95227   7.773   7.901   4.803
26898W        W95228   0.446  43.937  12.549
26899W        W95229  26.120  19.656  11.982
26900W        W95230  34.394  19.702  10.587
26901W        W95231   3.373   9.293   0.852
26902W        W95232  20.674   4.904   4.802
26903W        W95233  35.439  20.549   1.231
26904W        W95234   4.789  28.567  11.385
26905W        W95235  39.545  25.069   2.379
26906W        W95236  41.792  38.398   1.904
26907W        W95237  27.463  10.682  10.452
26908W        W95238   3.748  18.704  12.989
26909W        W95239  43.950  19.568   4.777
26910W        W95240  34.003  16.684   4.280
26911W        W95241  44.276  15.697   4.737
26912W        W95242   0.851  22.629  10.448
26913W        W95243   1.755  37.884  11.485
26914W        W95244   4.370  16.133  14.349
26915W        W95245  16.772   1.838   3.719
26916W        W95246  23.134  39.521   2.194
26917W        W95247  39.348   6.344  12.042
26918W        W95248  40.507  15.814   5.268
26919W        W95249  10.363   2.870   4.608
26920W        W95250  38.545  10.145  13.054
26921W        W95251  28.680   8.281  10.466
26922W        W95252   7.179   1.869  12.080
26923W        W95253   0.946  32.567  10.407
26924W        W95254  11.265  27.592   3.309
26925W        W95255  18.563  13.171   2.231
26926W        W95256  42.918  28.176   4.293
26927W        W95257  40.006  17.088  11.407
26928W        W95258  36.056  26.965  12.889
26929W        W95259  10.634  37.424   1.406
26930W        W95260  11.857  41.442   0.830
26931W        W95261   4.363   0.782  14.857
26932W        W95262  22.503   6.808   4.772
26933W        W95263  11.130   3.746  11.536
26934W        W95264  39.448   8.893   9.662
26935W        W95265  35.034  22.693  11.506
26936W        W95266  28.026  30.041  13.544
26937W        W95267  14.731  28.123   2.889
26938W        W95268  31.062  36.053  13.044
26939W        W95269  30.973  19.780   4.281
26940W        W95270  32.562  35.552   1.211
26941W        W95271  12.692   4.805  11.425
26942W        W95272  19.552  30.543   0.321
26943W        W95273  21.241  27.657   3.767
26944W        W95274  38.471  14.741   3.182
26945W        W95275  17.618  21.662  14.389
26946W        W95276  19.197  44.478  13.345
26947W        W95277  16.217  25.477   1.220
26948W        W95278   6.792  30.036   3.754
26949W        W95279  16.747  35.002   9.487
26950W        W95280  33.395  12.694  10.075
26951W        W95281  32.905  27.662   3.798
26952W        W95282  39.840  24.002  13.845
26953W        W95283  17.796  30.433   0.748
26954W        W95284  30.045  25.983   2.333
26955W        W95285  29.129  38.058   0.326
26956W        W95286  18.138  22.132   1.756
26957W        W95287  39.057  29.465   2.862
26958W        W95288  23.207  13.292  10.466
26959W        W95289  30.927  31.580  11.437
26960W        W95290  14.767   4.278  13.381
26961W        W95291  37.355  10.239   0.908
26962W        W95292  27.668   4.224  13.016
26963W        W95293   7.184   9.229   0.408
26964W        W95294  39.913  28.599   3.699
26965W        W95295  18.248  40.958   0.909
26966W        W95296  13.121  39.016  13.852
26967W        W95297   6.921  30.129   2.856
26968W        W95298  17.606  21.749  13.895
26969W        W95299  16.198  32.949   4.113
26970W        W95300  15.208  10.225  14.784
26971W        W95301   8.809  26.189  12.553
26972W        W95302  23.068  29.664   9.523
26973W        W95303   2.738  18.114   0.845
26974W        W95304  25.121   0.937   0.372
26975W        W95305  38.536  18.719  14.965
26976W        W95306  26.974  33.988   1.412
26977W        W95307  21.024   0.905   4.610
26978W        W95308  23.690  11.349  13.513
26979W        W95309  28.931  31.022   3.310
26980W        W95310  26.161  33.093  12.878
26981W        W95311  13.155   3.719  14.851
26982W        W95312  29.669  27.974   0.439
26983W        W95313  23.614   1.977   4.195
26984W        W95314  27.135  17.760  13.909
26985W        W95315   1.445  19.265  12.927
26986W        W95316   7.898  41.919  13.537
26987W        W95317  16.285  32.918  13.839
26988W        W95318   3.417  43.441  11.542
26989W        W95319  29.664  38.329  12.543
26990W        W95320  26.503  32.927  11.892
26991W        W95321  23.220   7.905  12.354
26992W        W95322  16.653  43.963  14.002
26993W        W95323  43.004  11.663   5.143
26994W        W95324  12.242  18.050   0.375
26995W        W95325  30.077  20.147   3.869
26996W        W95326  41.410  12.707  13.391
26997W        W95327  12.715  25.561  14.330
26998W        W95328  31.105  45.000  10.443
26999W        W95329  28.119   0.432   4.203
27000W        W95330  28.071  19.645   1.759
27001W        W95331  42.826  21.705  14.515
27002W        W95332  20.212  41.985  13.472
27003W        W95333  10.171  38.974   0.329
27004W        W95334  17.146  30.054  11.415
27005W        W95335   5.802  40.983   4.281
27006W        W95336  24.600   2.350  14.388
27007W        W95337  28.580  34.471   1.307
27008W        W95338   2.277  26.472   2.737
27009W        W95339  26.619   1.375  12.516
27010W        W95340  11.145  35.544  10.413
27011W        W95341  41.847   8.245  13.506
27012W        W95342   4.317   1.416  10.925
27013W        W95343   6.189   8.854   4.198
27014W        W95344   1.874  29.094  13.040
27015W        W95345  30.023   4.909   1.316
27016W        W95346  15.595   1.803  10.915
27017W        W95347   2.357  32.543   1.901
27018W        W95348   9.395  37.428   2.303
27019W        W95349  16.707  19.070  14.807
27020W        W95350  29.444  37.567   1.258
27021W        W95351  27.633  37.402  12.347
27022W        W95352  17.615  36.496   2.251
27023W        W95353  33.468   4.718   0.290
27024W        W95354  35.381  31.931  11.916
27025W        W95355   9.860  28.173  12.060
27026W        W95356  32.406   8.359  14.498
27027W        W95357  22.219  36.405   3.176
27028W        W95358  26.673  17.304  11.082
27029W        W95359  18.243   5.888  12.407
27030W        W95360  20.732  26.018   0.311
27031W        W95361  29.637  36.913  12.943
27032W        W95362   1.483  13.783  14.419
27033W        W95363   2.465   9.322  11.413
27034W        W95364  15.171  34.077   3.698
27035W        W95365  28.565  44.359  14.994
27036W        W95366  24.604  44.419  12.076
27037W        W95367  16.648  36.377   1.431
27038W        W95368  29.964  38.371   3.355
27039W        W95369  29.454  44.818   3.841
27040W        W95370  42.854   9.272   0.426
27041W        W95371   1.454  12.326   3.762
27042W        W95372  31.428  11.725  13.337
27043W        W95373  10.338  27.564  13.489
27044W        W95374  17.073   4.783   2.261
27045W        W95375  19.225   2.363   2.377
27046W        W95376   5.739  38.969  14.812
27047W        W95377  38.824  29.069   4.260
27048W        W95378  10.280  43.870  10.575
27049W        W95379  19.188   4.820  14.397
27050W        W95380   4.847  23.079  13.993
27051W        W95381  25.018   1.258  13.931
27052W        W95382  42.998  31.139  14.901
27053W        W95383  13.754  22.715   2.867
27054W        W95384  15.104   1.329  14.475
27055W        W95385  20.168   7.326  10.084
27056W        W95386  36.534  14.647   4.801
27057W        W95387  20.161  41.513  13.835
27058W        W95388  18.556  24.662   4.330
27059W        W95389  39.517  15.310  12.923
27060W        W95390  21.133  11.667  14.412
27061W        W95391  14.778  35.110  10.136
27062W        W95392  26.521  16.632   1.341
27063W        W95393  17.188  31.125  10.532
27064W        W95394  21.133   4.719   4.318
27065W        W95395  21.643   2.840   2.704
27066W        W95396  39.971  25.666   1.357
27067W        W95397  43.923  19.282  10.581
27068W        W95398  29.111   9.292   3.754
27069W        W95399   4.769  17.605  14.339
27070W        W95400   2.887  30.598  14.896
27071W        W95401   9.713  12.143   3.737
27072W        W95402  29.976  20.074   1.696
27073W        W95403  33.119  32.406   1.835
27074W        W95404   7.788  11.741  13.928
27075W        W95405  11.775  39.537  12.051
27076W        W95406  18.107  40.354   2.237
27077W        W95407  31.485  32.473  13.405
27078W        W95408  13.811  22.193   0.397
27079W        W95409   0.797  18.552  13.408
27080W        W95410  21.666  31.579  10.071
27081W        W95411  44.001  19.693  14.295
27082W        W95412  12.805  14.255   3.734
27083W        W95413  42.334  22.660  11.087
27084W        W95414  44.384   4.806   2.353
27085W        W95415  21.222  20.738  14.903
27086W        W95416  44.901   3.312  10.936
27087W        W95417  15.203  26.067   4.253
27088W        W95418  32.607   7.827   0.762
27089W        W95419  43.376   5.742  11.452
27090W        W95420  14.735  30.446   5.156
27091W        W95421   1.329  29.515   1.848
27092W        W95422  42.349   0.911  12.496
27093W        W95423  24.137  16.286   0.740
27094W        W95424  28.154  32.916  10.568
27095W        W95425  41.921  41.987   2.784
27096W        W95426   2.251  35.951  10.481
27097W        W95427  44.490  31.519  10.544
27098W        W95428  40.450  16.683   4.783
27099W        W95429  12.785  20.208   3.274
27100W        W95430  38.496  31.104  11.598
27101W        W95431  41.868  30.045   1.702
27102W        W95432  26.531  31.619  14.278
27103W        W95433  11.302  30.069   2.257
27104W        W95434   9.648   5.871   4.247
27105W        W95435  40.541  12.245  13.429
27106W        W95436  36.568  40.435   0.880
27107W        W95437  43.923   6.838   2.367
27108W        W95438  10.282   5.709   2.846
27109W        W95439  42.373  19.092   1.296
27110W        W95440   8.363  18.677  12.446
27111W        W95441  13.225  17.214   2.197
27112W        W95442  26.472  21.146   9.969
27113W        W95443  32.395   7.248  11.373
27114W        W95444  33.468  10.640  10.557
27115W        W95445  43.391   9.395   2.226
27116W        W95446  34.995  23.657   1.333
27117W        W95447  10.165   0.984  14.995
27118W        W95448   8.701  41.999   2.359
27119W        W95449  21.720  32.080   3.713
27120W        W95450   6.874  43.847   0.851
27121W        W95451  44.405  26.991  13.057
27122W        W95452   5.312   2.265  11.448
27123W        W95453   8.711  40.820   3.351
27124W        W95454  30.556  44.010  12.534
27125W        W95455  37.031  29.590   1.351
27126W        W95456  19.753  14.127  13.541
27127W        W95457   0.451  41.362   0.280
27128W        W95458  20.587  28.490   1.223
27129W        W95459  13.200  22.711   0.854
27130W        W95460  15.245  37.905   2.198
27131W        W95461  26.007  42.500   0.732
27132W        W95462  42.885  18.691   2.181
27133W        W95463  16.170  33.522   9.986
27134W        W95464   0.258   5.696  13.869
27135W        W95465  44.292   8.667   9.930
27136W        W95466   8.257  41.985  10.618
27137W        W95467   0.355  15.617  14.897
27138W        W95468  40.920  29.431   3.239
27139W        W95469  11.226   7.236   0.765
27140W        W95470   4.820   3.755  14.326
27141W        W95471  20.117   4.251  12.376
27142W        W95472  37.926   3.431   1.912
27143W        W95473  17.593  22.719  10.151
27144W        W95474  22.006  21.737   3.157
27145W        W95475  12.638   9.369   1.277
27146W        W95476  20.258  32.028   4.210
27147W        W95477  27.988   4.317  10.898
27148W        W95478  24.597  43.794   0.850
27149W        W95479   0.955  42.866   4.156
27150W        W95480  28.958  31.091  12.994
27151W        W95481   3.748  31.135   4.311
27152W        W95482  35.947  31.404   4.734
27153W        W95483  11.684  29.466   0.877
27154W        W95484  40.354  34.422   2.183
27155W        W95485  34.386  17.244   3.837
27156W        W95486  22.681  43.892  12.860
27157W        W95487  25.700  23.645   1.899
27158W        W95488  34.087  39.556   4.721
27159W        W95489  28.558  25.167   2.855
27160W        W95490  12.245  41.882   4.231
27161W        W95491  10.269  23.588   3.158
27162W        W95492   6.866  39.357  12.093
27163W        W95493  18.093  27.604  13.996
27164W        W95494  41.374   0.933  12.871
27165W        W95495   7.407  31.151  13.988
27166W        W95496  30.046   5.390   4.194
27167W        W95497  37.413  24.210  11.088
27168W        W95498  29.517   3.779   2.226
27169W        W95499   4.727  40.844  14.419
27170W        W95500  43.773  32.440  13.820
27171W        W95501  19.667  26.053  12.433
27172W        W95502  34.939   8.229  13.327
27173W        W95503  14.340  15.594  12.515
27174W        W95504  10.310  36.527   2.329
27175W        W95505  31.472   4.247   3.727
27176W        W95506  19.279  17.735  12.933
27177W        W95507  10.289  10.323  13.519
27178W        W95508  20.740  29.662  13.995
27179W        W95509  17.085   4.371   3.248
27180W        W95510  35.909   3.735   3.823
27181W        W95511   7.290  14.602   2.210
27182W        W95512  20.038   6.914  11.447
27183W        W95513  36.895  32.902   3.215
27184W        W95514  38.380  30.531   4.756
27185W        W95515   1.863  12.147   2.296
27186W        W95516   1.945  19.153   2.799
27187W        W95517   5.852  15.744  12.040
27188W        W95518  42.378  22.094  13.420
27189W        W95519  21.641  26.523  11.946
27190W        W95520  18.627  18.058   2.870
27191W        W95521  39.381  15.262   4.120
27192W        W95522  23.018   8.242   4.223
27193W        W95523  28.165  41.937   2.288
27194W        W95524   4.259   3.323  14.286
27195W        W95525  28.154  11.256  14.434
27196W        W95526  37.502  37.023   3.276
27197W        W95527   4.710   5.291  11.051
27198W        W95528  16.813   5.271   3.357
27199W        W95529  30.069  27.140   3.680
27200W        W95530  39.408  15.585  12.823
27201W        W95531  27.463   1.946  12.368
27202W        W95532  24.006   5.370  13.966
27203W        W95533   5.202  25.691  13.470
27204W        W95534   2.754   1.937  14.947
27205W        W95535  18.053  23.677   9.632
27206W        W95536  22.158  18.787  13.815
27207W        W95537  21.239  30.924   1.386
27208W        W95538  17.587  21.164   2.744
27209W        W95539  34.558  26.604   4.655
27210W        W95540  33.988   4.835   9.934
27211W        W95541  27.984  31.976   2.847
27212W        W95542  38.011  26.964  13.996
27213W        W95543  26.049  42.873   3.319
27214W        W95544  33.930  44.877  11.592
27215W        W95545  27.568  36.417  11.428
27216W        W95546   9.700  30.564   1.360
27217W        W95547   2.378  36.936  11.063
27218W        W95548  34.941  25.493  14.410
27219W        W95549  14.148   7.813  10.554
27220W        W95550  23.637  32.483  10.628
27221W        W95551   2.407   3.818   2.864
27222W        W95552  39.940  39.952   0.896
27223W        W95553  23.063  25.032  13.889
27224W        W95554  13.748  38.413   4.765
27225W        W95555   3.218  37.841   0.479
27226W        W95556  32.106  27.475  14.975
27227W        W95557   6.224  31.036  12.077
27228W        W95558  28.114  36.098   2.723
27229W        W95559  31.048  16.793   2.233
27230W        W95560  43.932  15.672   1.843
27231W        W95561  35.516  29.529   1.709
27232W        W95562  25.531  10.687   4.270
27233W        W95563  28.629   3.276   4.266
27234W        W95564  33.883  12.165  11.515
27235W        W95565  18.572  11.826   4.641
27236W        W95566  44.767  28.175  14.852
27237W        W95567  14.659  26.688  11.567
27238W        W95568  39.317  21.248  13.985
27239W        W95569  16.207  17.131   0.732
27240W        W95570  43.940   6.203  12.056
27241W        W95571  30.915  39.886  13.432
27242W        W95572  14.654  10.237  12.862
27243W        W95573  35.892  37.406  11.104
27244W        W95574  39.862  11.344  13.982
27245W        W95575   6.776  18.740  11.523
27246W        W95576  31.568  41.831  13.037
27247W        W95577   5.311  38.035  14.472
27248W        W95578  25.188   1.313   4.154
27249W        W95579  34.007  24.479  11.406
27250W        W95580  15.704  12.219  11.526
27251W        W95581  27.467  29.474   3.771
27252W        W95582  39.007  41.292  12.851
27253W        W95583  32.503   8.803   2.875
27254W        W95584  11.131  18.246  14.013
27255W        W95585  10.322  26.685  14.826
27256W        W95586  37.840  44.458   4.180
27257W        W95587  41.896   0.853   3.148
27258W        W95588  19.139  25.673  11.042
27259W        W95589  15.092  12.281   4.785
27260W        W95590  34.105   1.779   2.413
27261W        W95591  17.101  33.003   0.461
27262W        W95592  31.964  13.827  11.429
27263W        W95593  37.855  30.500   3.293
27264W        W95594  29.561  14.823   2.797
27265W        W95595  36.861  26.077   2.274
27266W        W95596   3.337  25.105  14.765
27267W        W95597   5.730  34.561  11.958
27268W        W95598  20.250  37.397  13.854
27269W        W95599  18.572   1.962   2.817
27270W        W95600  40.831  30.489  12.013
27271W        W95601  44.477  32.893  13.951
27272W        W95602  29.918   0.851   4.816
27273W        W95603  30.478   2.293  11.867
27274W        W95604   3.305  35.875   9.501
27275W        W95605  38.480  30.466   3.808
27276W        W95606  18.705  36.400  12.824
27277W        W95607  14.290   7.736   2.222
27278W        W95608  22.511  18.749  11.968
27279W        W95609  17.728  38.983   2.294
27280W        W95610  21.636  15.675  13.510
27281W        W95611  25.003   6.771  12.407
27282W        W95612   9.205  18.655   0.282
27283W        W95613   2.783  43.403  13.457
27284W        W95614  43.775  15.798  12.575
27285W        W95615  34.601  26.642  11.040
27286W        W95616   8.294  44.988  14.444
27287W        W95617  36.360  11.676  12.075
27288W        W95618   6.222  17.073  14.459
27289W        W95619  26.954  26.619  10.975
27290W        W95620  30.945  25.486   3.224
27291W        W95621  44.332  34.372  10.987
27292W        W95622  23.599  32.488  14.990
27293W        W95623  22.094  26.570   4.699
27294W        W95624   5.819  34.472   3.775
27295W        W95625  32.394  37.523  14.475
27296W        W95626  17.180  17.190  12.024
27297W        W95627   9.853  23.233  13.903
27298W        W95628  20.089   7.260  11.385
27299W        W95629  42.987   5.710   3.675
27300W        W95630   3.297  24.607   4.636
27301W        W95631   2.723  26.119   2.408
27302W        W95632  22.060   7.182  11.596
27303W        W95633  15.182  40.962   2.835
27304W        W95634  15.150  17.729  13.797
27305W        W95635  43.006  24.592  14.813
27306W        W95636  35.068  42.887  14.357
27307W        W95637  41.485   1.812   3.858
27308W        W95638   2.410   6.397   0.946
27309W        W95639  37.942  42.348  12.893
27310W        W95640  30.087   8.693  10.900
27311W        W95641  19.178  31.585  11.495
27312W        W95642   5.235  44.362   3.157
27313W        W95643  34.047  43.789   4.352
27314W        W95644  37.915  23.173   0.372
27315W        W95645   3.773  39.471  10.057
27316W        W95646   8.685  42.894   3.290
27317W        W95647   0.973  39.853  11.467
27318W        W95648  13.164  43.862  14.787
27319W        W95649  37.027  36.458   3.859
27320W        W95650  28.653  14.179  10.417
27321W        W95651  19.247  24.481  12.508
27322W        W95652   6.907  18.638  14.902
27323W        W95653  19.050   8.670   1.424
27324W        W95654  26.526  43.344  13.859
27325W        W95655  12.355  44.466   4.217
27326W        W95656  43.810   4.702   1.874
27327W        W95657   5.712   0.808   3.385
27328W        W95658  38.550  36.560  12.052
27329W        W95659  15.215  41.925  11.475
27330W        W95660  39.515  31.123   1.307
27331W        W95661  38.405   7.181   1.437
27332W        W95662  13.829   0.893   2.400
27333W        W95663  24.689  24.671  12.495
27334W        W95664  35.866  16.245   2.726
27335W        W95665  22.198  36.389   2.801
27336W        W95666  28.095   4.448  14.987
27337W        W95667  38.359  16.168  14.510
27338W        W95668  38.893  36.428   4.638
27339W        W95669  16.803  39.835   3.638
27340W        W95670  15.246  33.539  11.485
27341W        W95671  36.406  33.474   4.831
27342W        W95672  39.314  33.972   2.810
27343W        W95673  21.033  14.753   0.881
27344W        W95674  24.707  17.197   1.902
27345W        W95675   2.826  41.448   0.311
27346W        W95676   2.303   6.889   4.813
27347W        W95677  27.073  40.384  13.544
27348W        W95678  34.890  26.610  12.932
27349W        W95679   9.871  21.107  13.510
27350W        W95680  36.028  39.409  14.306
27351W        W95681  13.626  21.672   1.742
27352W        W95682  17.570  13.233  13.422
27353W        W95683  28.112  44.398  10.589
27354W        W95684  28.533  10.152   2.405
27355W        W95685  36.401  10.219   2.249
27356W        W95686   3.431  36.083  13.798
27357W        W95687   8.278  30.587  11.055
27358W        W95688   7.900  41.948   1.710
27359W        W95689  21.126  34.880  11.373
27360W        W95690  22.606  36.885   4.782
27361W        W95691  44.259  44.277  12.940
27362W        W95692  43.894  39.320   2.335
27363W        W95693  17.733  38.418  13.901
27364W        W95694  40.969  34.929  13.814
27365W        W95695  19.735  29.620  12.060
27366W        W95696   9.770  11.837   2.315
27367W        W95697  17.580  35.409   9.614
27368W        W95698   0.890  33.434  10.964
27369W        W95699   9.663  13.806   2.691
27370W        W95700   6.376   9.890   3.387
27371W        W95701  37.908  13.211  13.822
27372W        W95702   9.667  42.812  13.365
27373W        W95703   5.352  41.904  12.851
27374W        W95704  21.211  20.202   5.225
27375W        W95705  25.684  41.828   0.479
27376W        W95706  33.495  21.653   1.791
27377W        W95707  41.444  12.630   3.778
27378W        W95708  35.030  24.090  11.108
27379W        W95709  15.147  15.157  14.876
27380W        W95710  35.016  22.066   0.916
27381W        W95711  27.986   8.661   5.283
27382W        W95712   2.793  17.755  12.900
27383W        W95713  13.749  17.703   0.445
27384W        W95714  41.520   3.789   3.165
27385W        W95715  27.158  44.373   2.220
27386W        W95716  17.594  13.340   2.369
27387W        W95717   5.727  13.329   0.828
27388W        W95718   3.790  27.971   2.819
27389W        W95719   8.836  38.547  12.483
27390W        W95720   8.851  41.943  13.814
27391W        W95721  40.829   3.356  14.798
27392W        W95722   3.346  25.591  13.306
27393W        W95723  42.465  27.523   2.385
27394W        W95724   3.344  27.189   4.229
27395W        W95725   8.348  34.113   0.804
27396W        W95726  33.622  34.607  13.056
27397W        W95727  17.608   0.879  13.832
27398W        W95728  27.520  37.450   1.712
27399W        W95729  22.052   4.872   2.718
27400W        W95730  25.505  43.387   0.727
27401W        W95731  40.326   5.775  13.971
27402W        W95732  15.727  41.876   3.216
27403W        W95733  10.152   2.400  12.361
27404W        W95734  12.656  39.044   0.303
27405W        W95735  24.984  32.076  14.799
27406W        W95736  17.708  10.199   2.389
27407W        W95737  15.589   8.792   3.833
27408W        W95738  31.046  16.198  13.373
27409W        W95739  14.668   0.410  12.950
27410W        W95740  13.741   1.902  14.877
27411W        W95741  42.400  25.140   4.763
27412W        W95742  10.740  31.408  11.986
27413W        W95743  12.626  21.214   3.845
27414W        W95744  34.030  20.599  12.420
27415W        W95745  24.626   4.740  11.872
27416W        W95746  36.847  36.435   4.620
27417W        W95747  21.542  42.489  12.828
27418W        W95748  15.128  36.402   2.826
27419W        W95749  14.303  29.523   1.857
27420W        W95750  43.390  41.402  14.311
27421W        W95751   8.165  25.101  13.502
27422W        W95752  34.415  32.617  12.073
27423W        W95753  31.992   9.818   1.274
27424W        W95754  22.040  18.701   5.256
27425W        W95755  17.167  31.407   1.280
27426W        W95756  35.871  27.182  13.936
27427W        W95757   1.876  41.957  13.841
27428W        W95758  35.364  39.993  11.975
27429W        W95759   0.908  32.123   1.439
27430W        W95760  25.619  40.321   9.949
27431W        W95761  16.790  37.427  11.971
27432W        W95762   2.869  22.727   0.727
27433W        W95763  30.614  17.263  11.581
27434W        W95764  31.011  11.169   4.175
27435W        W95765  24.646   6.348  12.946
27436W        W95766  23.990  24.586  13.349
27437W        W95767  44.879   6.884   2.299
27438W        W95768   8.861  29.143  14.891
27439W        W95769  33.968  29.563   4.197
27440W        W95770  27.632  44.333   1.313
27441W        W95771   0.767  39.444   0.881
27442W        W95772  10.662  38.423  13.469
27443W        W95773   7.878  15.744  13.518
27444W        W95774  11.198  24.215   2.311
27445W        W95775  44.857   8.294  14.845
27446W        W95776  25.172  33.434  12.886
27447W        W95777   7.709  37.999   4.630
27448W        W95778  31.463  27.096   1.696
27449W        W95779  10.165  18.660  13.369
27450W        W95780   6.313  24.700   1.291
27451W        W95781  41.319  13.838  10.957
27452W        W95782  15.098   8.235   2.802
27453W        W95783  14.807  34.907  13.348
27454W        W95784  28.032   8.247   0.315
27455W        W95785   0.332   0.295  11.432
27456W        W95786   7.262  28.945   4.763
27457W        W95787  13.253  18.712   0.285
27458W        W95788  29.950  17.787   4.731
27459W        W95789   7.229  29.656  11.388
27460W        W95790  20.030  18.077   1.246
27461W        W95791  25.999   3.712   2.734
27462W        W95792  19.279  31.600   4.240
27463W        W95793  15.776  25.673   2.717
27464W        W95794  25.011  11.333  11.389
27465W        W95795  27.942   2.776  11.079
27466W        W95796   8.711  10.352  11.410
27467W        W95797  20.606   6.753   2.194
27468W        W95798  10.205  14.291  10.559
27469W        W95799   6.807  34.564  10.508
27470W        W95800  18.101   0.856  10.417
27471W        W95801  38.536  31.023  13.907
27472W        W95802  38.026   7.199  13.536
27473W        W95803  43.955  15.648  13.898
27474W        W95804  25.066  23.232   3.750
27475W        W95805  44.823  25.714   3.693
27476W        W95806  24.487  34.563  14.497
27477W        W95807  23.225  30.441  14.297
27478W        W95808  18.260  33.095  12.517
27479W        W95809  12.310  20.255  12.579
27480W        W95810  40.919  30.420   4.228
27481W        W95811  35.040  29.494   3.634
27482W        W95812  29.925  20.711  13.794
27483W        W95813   4.927  20.045  10.899
27484W        W95814  27.581   5.728   4.765
27485W        W95815   1.794  11.207   1.230
27486W        W95816  37.936  17.611   3.751
27487W        W95817  30.537  30.924  13.455
27488W        W95818   1.830  17.237  14.878
27489W        W95819  38.361   5.389   4.233
27490W        W95820  38.537  16.167  13.426
27491W        W95821   4.267  19.686  10.630
27492W        W95822  24.149  26.516  14.026
27493W        W95823  21.564  41.977  13.042
27494W        W95824   6.275  37.578  14.515
27495W        W95825   2.287  39.042   5.300
27496W        W95826  27.447   6.697   2.730
27497W        W95827   1.974  22.030  12.032
27498W        W95828  16.629  41.905   3.780
27499W        W95829  37.028  15.613   0.445
27500W        W95830   0.248  41.942   2.238
27501W        W95831  22.592   7.840   0.898
27502W        W95832  16.680  21.021  10.509
27503W        W95833  44.320  35.959   1.860
27504W        W95834   4.722  22.109  12.502
27505W        W95835  17.151  28.154  14.376
27506W        W95836  40.467  22.217  13.504
27507W        W95837  39.839  43.316   1.846
27508W        W95838  33.461  26.097  10.889
27509W        W95839  20.744  31.101   5.717
27510W        W95840  38.520  40.994  13.478
27511W        W95841   1.239  35.070   0.252
27512W        W95842  30.595  33.019   4.786
27513W        W95843  10.346  29.473  14.326
27514W        W95844  20.064   9.243   2.809
27515W        W95845  35.490  39.837  11.000
27516W        W95846  12.217  40.528  10.944
27517W        W95847  34.007  14.223   1.364
27518W        W95848  41.524  44.945   1.290
27519W        W95849  10.147   3.353  10.487
27520W        W95850  20.630  39.330   2.323
27521W        W95851   1.931  39.916   1.279
27522W        W95852   4.920  25.710  11.446
27523W        W95853  17.671  39.481  10.608
27524W        W95854  16.174  24.207  12.431
27525W        W95855  40.327  23.709   2.382
27526W        W95856  31.026  17.681   4.782
27527W        W95857  19.629  43.856  12.393
27528W        W95858  44.394   6.290   3.828
27529W        W95859  32.093  25.110   3.641
27530W        W95860  21.201   8.393  14.363
27531W        W95861  19.753  33.935   3.331
27532W        W95862  36.026  14.815  12.896
27533W        W95863  38.419   3.824  11.029
27534W        W95864  41.889  27.001   2.270
27535W        W95865  20.564  19.136   2.717
27536W        W95866   0.775  18.678   1.852
27537W        W95867  30.461   3.446   2.265
27538W        W95868   4.821  38.838  14.361
27539W        W95869  22.218  16.669   9.482
27540W        W95870  15.644  43.771  11.504
27541W        W95871  24.008  26.148  10.948
27542W        W95872   7.863  15.176  11.122
27543W        W95873  17.290   4.901   1.758
27544W        W95874  40.832   1.327  10.918
27545W        W95875  31.430  25.521  11.550
27546W        W95876  28.067  25.648  11.454
27547W        W95877  12.744  29.979  10.577
27548W        W95878   5.353  37.566  14.460
27549W        W95879   1.957  34.951   4.603
27550W        W95880   7.410  10.208   1.831
27551W        W95881  27.013  41.426  13.937
27552W        W95882  30.608  16.080  12.995
27553W        W95883  42.825  30.965   4.263
27554W        W95884   8.357  29.590   4.777
27555W        W95885  22.650   6.917   0.329
27556W        W95886  17.591  41.031  13.496
27557W        W95887   4.715  28.121  14.386
27558W        W95888  36.017  31.558  10.933
27559W        W95889  12.667  17.299   4.115
27560W        W95890   2.248   8.870  12.440
27561W        W95891   3.821   6.212   3.714
27562W        W95892  24.604  43.909   3.679
27563W        W95893  35.909  34.961  14.299
27564W        W95894  30.994  34.606   9.950
27565W        W95895  17.735  20.267  12.078
27566W        W95896  15.204  10.290   3.149
27567W        W95897   4.259  35.003  12.052
27568W        W95898  22.030   5.823   3.639
27569W        W95899  30.543  22.737   0.880
27570W        W95900   3.320  44.915  10.957
27571W        W95901  44.797   5.203   3.792
27572W        W95902   5.728   8.221   4.606
27573W        W95903  18.228  37.523  12.017
27574W        W95904   1.464  39.557   1.871
27575W        W95905  44.821  43.402   0.824
27576W        W95906  29.978  42.959  13.993
27577W        W95907   4.711  11.640   3.308
27578W        W95908  27.625   1.933   0.742
27579W        W95909   0.796  43.373   0.268
27580W        W95910  26.202   8.184  14.293
27581W        W95911  43.380  17.702   4.735
27582W        W95912  34.460   7.199   0.394
27583W        W95913  22.669   2.745   1.812
27584W        W95914  36.567  38.531  14.406
27585W        W95915   7.348  37.550  12.981
27586W        W95916   9.787   0.483   2.748
27587W        W95917  19.080  11.685   4.124
27588W        W95918  12.729  27.561   4.779
27589W        W95919  17.680  30.066  11.990
27590W        W95920  15.276  22.112   1.878
27591W        W95921   6.217  36.862   0.821
27592W        W95922  27.192  29.490   2.405
27593W        W95923  20.590   9.269   2.898
27594W        W95924  31.475  30.491  11.430
27595W        W95925   7.856   7.844   3.632
27596W        W95926  23.644  24.666  13.901
27597W        W95927  11.817  31.552  12.024
27598W        W95928   4.405  31.022   4.674
27599W        W95929  21.207  34.868  14.002
27600W        W95930  18.239  42.942  13.997
27601W        W95931   4.855   4.857  13.986
27602W        W95932   7.784  26.685  11.946
27603W        W95933   3.889  40.422   2.666
27604W        W95934  14.157   6.285  14.994
27605W        W95935   7.808   0.472  12.571
27606W        W95936  27.014  24.494  10.485
27607W        W95937   9.369  42.887   1.248
27608W        W95938  16.697  21.515  12.855
27609W        W95939  41.399   3.221   3.190
27610W        W95940  40.997  34.594  12.882
27611W        W95941   7.819  31.588  11.412
27612W        W95942  38.551  29.978  10.594
27613W        W95943  27.692  12.294   5.311
27614W        W95944  43.400  37.528  12.472
27615W        W95945   0.400   5.193  13.884
27616W        W95946  21.523  34.497   5.259
27617W        W95947  19.645  24.686  14.500
27618W        W95948  42.457  29.949   0.843
27619W        W95949  43.860  22.643   1.320
27620W        W95950  32.501  21.175  11.010
27621W        W95951  13.161  27.046   4.317
27622W        W95952  40.375  35.096   0.341
27623W        W95953  17.111   8.198  10.597
27624W        W95954  12.263   6.241   3.370
27625W        W95955  12.340  17.201  11.501
27626W        W95956   7.310  41.958   1.312
27627W        W95957   8.655   7.182   1.389
27628W        W95958   6.775  18.051  12.379
27629W        W95959  44.840  40.384  14.288
27630W        W95960  18.777  20.574  11.398
27631W        W95961  28.981  30.451   0.801
27632W        W95962  34.460   9.359  11.995
27633W        W95963   5.893  21.122   0.425
27634W        W95964  36.022  44.978  10.902
27635W        W95965   5.868   3.410  12.361
27636W        W95966   7.832  43.489   0.730
27637W        W95967   8.785  31.152   4.340
27638W        W95968   9.663   9.207  13.481
27639W        W95969  33.467   8.182  14.307
27640W        W95970  28.065  39.916   2.352
27641W        W95971  18.580   9.667   0.269
27642W        W95972   2.232   6.747   3.190
27643W        W95973  37.529   5.913   0.318
27644W        W95974   0.789  44.448  13.883
27645W        W95975   6.365  15.117  12.006
27646W        W95976  44.345  17.272  14.370
27647W        W95977  17.114  42.999   1.404
27648W        W95978   8.225  11.831  11.475
27649W        W95979  13.297  29.078  11.489
27650W        W95980   0.260  28.619  11.562
27651W        W95981   3.226  22.676   2.790
27652W        W95982  21.153  38.430   2.315
27653W        W95983  20.647   8.836   2.266
27654W        W95984  19.597   1.468  11.383
27655W        W95985  30.514  22.574   2.398
27656W        W95986   6.876  21.741  10.916
27657W        W95987  29.127  35.930  13.891
27658W        W95988  24.536  43.356  10.488
27659W        W95989  35.054  22.731   4.821
27660W        W95990  22.038  40.858  12.409
27661W        W95991  37.088  37.998  10.424
27662W        W95992  26.675  42.835  14.853
27663W        W95993   2.770  36.046  12.424
27664W        W95994  23.612  27.964  12.437
27665W        W95995  18.575  28.015  13.064
27666W        W95996   4.447  12.278  14.942
27667W        W95997   7.251  19.753   4.702
27668W        W95998  23.153  36.414   3.293
27669W        W95999   9.278  11.632  13.834
27670W        W96000  31.102  27.167   1.322
27671W        W96001   5.737  43.447   3.269
27672W        W96002   6.679  27.569  10.993
27673W        W96003   1.955  32.080   3.785
27674W        W96004  16.299   4.367   4.761
27675W        W96005  24.539  24.658   3.201
27676W        W96006  11.760   7.354   1.861
27677W        W96007  42.958  42.342  12.978
27678W        W96008  34.600  36.474   2.882
27679W        W96009   0.253  34.493   4.694
27680W        W96010   8.755  30.590   1.240
27681W        W96011  33.058  27.690  13.012
27682W        W96012  10.230   5.782  11.928
27683W        W96013  37.830  34.113   0.876
27684W        W96014  20.577  25.636  13.489
27685W        W96015  36.381  25.575   0.809
27686W        W96016  37.470  13.752   1.230
27687W        W96017  22.033  33.421  11.857
27688W        W96018  41.341   2.932  14.454
27689W        W96019  30.536  20.720  14.869
27690W        W96020   1.352  20.732   1.219
27691W        W96021   6.307  17.786  10.626
27692W        W96022  31.000   9.226   0.479
27693W        W96023  16.766  43.324  12.006
27694W        W96024   4.934  35.042   2.865
27695W        W96025  28.464   5.435   1.786
27696W        W96026  22.086  22.227   0.898
27697W        W96027  13.706  37.387   2.716
27698W        W96028  17.699  37.490  13.441
27699W        W96029  40.488  22.625   2.267
27700W        W96030  14.760  18.655   2.723
27701W        W96031   2.246  12.747  13.899
27702W        W96032  17.105  41.501   3.737
27703W        W96033  25.136  40.304   0.855
27704W        W96034  42.399  23.653  10.539
27705W        W96035  15.246  11.743  11.969
27706W        W96036   7.729  38.399  12.061
27707W        W96037  25.200  34.579   4.728
27708W        W96038  27.668  16.638  12.482
27709W        W96039   9.307  24.131  11.913
27710W        W96040   2.315   0.987  12.963
27711W        W96041   8.241  10.708   0.931
27712W        W96042   3.411  10.757  12.846
27713W        W96043   4.799   2.958  13.924
27714W        W96044  17.666  41.485   1.380
27715W        W96045  40.472  43.417  12.956
27716W        W96046  38.517  19.285  12.532
27717W        W96047  38.552   9.659   1.373
27718W        W96048  17.302   8.173   4.186
27719W        W96049  14.721  28.546  14.334
27720W        W96050  44.290  44.759  10.975
27721W        W96051   5.748  11.249   1.794
27722W        W96052  44.399  31.116   1.369
27723W        W96053  37.349  35.058   3.664
27724W        W96054  27.189  10.353  10.889
27725W        W96055   9.710  35.974   0.885
27726W        W96056  14.763  34.926   0.806
27727W        W96057  19.772   4.873   9.946
27728W        W96058  42.797  20.595   1.809
27729W        W96059  35.566  20.039  12.906
27730W        W96060  24.499  15.688  10.449
27731W        W96061  32.112  32.553  14.906
27732W        W96062   1.867  39.890  11.494
27733W        W96063  10.821  13.229  11.381
27734W        W96064  19.182  22.698   3.169
27735W        W96065  33.539   2.327   2.665
27736W        W96066  32.085   7.692   5.309
27737W        W96067   0.250  15.320   1.445
27738W        W96068  40.416  15.631   4.194
27739W        W96069   5.846  12.712   0.370
27740W        W96070   7.732   3.259   4.597
27741W        W96071  34.977  38.384  14.877
27742W        W96072  16.190  41.966   3.811
27743W        W96073  24.602   7.186   4.118
27744W        W96074   6.341   1.358   3.735
27745W        W96075  11.647  38.987   0.442
27746W        W96076   2.379  32.032   3.280
27747W        W96077  22.092   6.291  10.904
27748W        W96078  35.582   2.736  12.392
27749W        W96079   9.238   6.850   3.161
27750W        W96080  21.583  25.678  13.998
27751W        W96081  33.423   1.927   4.779
27752W        W96082  17.076  19.121  10.511
27753W        W96083   7.323  30.937  11.941
27754W        W96084   7.246  38.915   4.664
27755W        W96085  42.802  31.923   4.736
27756W        W96086  31.941  27.579  10.024
27757W        W96087  15.668  19.657   2.323
27758W        W96088  29.978  12.822   4.743
27759W        W96089  26.048  13.351  11.468
27760W        W96090   6.296  10.725  13.548
27761W        W96091  39.972  32.104   0.818
27762W        W96092  31.034   1.264  12.896
27763W        W96093  24.704  42.418   3.713
27764W        W96094   0.895  16.762   1.268
27765W        W96095  30.960  40.999  14.020
27766W        W96096  25.506  41.343  14.822
27767W        W96097  17.670   3.897  11.883
27768W        W96098  19.643  13.187   2.832
27769W        W96099   0.272  29.112  12.394
27770W        W96100  18.602  14.147   1.705
27771W        W96101  33.991  12.155  14.995
27772W        W96102  36.505  10.874  10.969
27773W        W96103  38.043   7.763   1.437
27774W        W96104  26.060   7.720  12.882
27775W        W96105  35.478   3.331  11.450
27776W        W96106  32.017  23.540  13.927
27777W        W96107  21.678   8.248  13.364
27778W        W96108   4.382  10.747  13.846
27779W        W96109  12.658  20.146  13.013
27780W        W96110   1.767   9.354   3.336
27781W        W96111   9.275   3.746   3.246
27782W        W96112  41.328  43.916  12.469
27783W        W96113  17.652  38.332   2.823
27784W        W96114   1.379  22.033   1.887
27785W        W96115  27.138  37.922   3.687
27786W        W96116  41.519  18.565   2.248
27787W        W96117  17.656   7.350   2.862
27788W        W96118  16.608   4.755   4.203
27789W        W96119  39.500  21.052  11.550
27790W        W96120  17.200  23.660   1.914
27791W        W96121  10.687  19.639  12.492
27792W        W96122   8.162  33.013   3.383
27793W        W96123  40.545  38.884  11.398
27794W        W96124  22.021  35.577   1.316
27795W        W96125  30.946  40.416   4.613
27796W        W96126  11.164  17.182   2.255
27797W        W96127   3.233   4.734   1.352
27798W        W96128  10.840   4.924   3.354
27799W        W96129  20.580  11.714   2.733
27800W        W96130  32.498  39.396  13.953
27801W        W96131   4.762  40.831   0.360
27802W        W96132  44.376  25.572  13.827
27803W        W96133  10.152  34.443   1.805
27804W        W96134  24.194  36.548  12.396
27805W        W96135  25.010   0.777  11.998
27806W        W96136  35.046  42.512  14.969
27807W        W96137  35.563  43.318   3.233
27808W        W96138  42.793  24.069  12.000
27809W        W96139  24.156   7.734   3.652
27810W        W96140  23.122  12.281   1.419
27811W        W96141  33.905  17.223  11.577
27812W        W96142   8.348  24.202   1.929
27813W        W96143  14.285   0.797  13.909
27814W        W96144  21.711  34.986   1.380
27815W        W96145  43.326  13.320   3.346
27816W        W96146  26.183  26.489  11.040
27817W        W96147  37.431  34.567  10.927
27818W        W96148  44.484  35.923  14.980
27819W        W96149  39.061  29.489   2.334
27820W        W96150  21.153   7.838  11.595
27821W        W96151  44.399   3.335  12.975
27822W        W96152  30.628  40.459   0.899
27823W        W96153   1.842  11.813   0.290
27824W        W96154  19.558  29.499  12.555
27825W        W96155  33.021  22.117   1.791
27826W        W96156   2.836  27.992  11.909
27827W        W96157  18.155   7.232   2.709
27828W        W96158  26.691  28.931  12.425
27829W        W96159  43.481   0.277  13.909
27830W        W96160   3.830  41.426  11.459
27831W        W96161  39.832  15.703  10.915
27832W        W96162  18.559  32.072   4.743
27833W        W96163  20.212  23.621   2.279
27834W        W96164  20.137  16.205  10.904
27835W        W96165  37.422   5.890   2.278
27836W        W96166  42.973  33.105   2.321
27837W        W96167  12.711  42.399  14.963
27838W        W96168  37.382  43.488  10.535
27839W        W96169  25.039  44.960  10.952
27840W        W96170  37.943   5.314  12.452
27841W        W96171   5.802  44.475  14.510
27842W        W96172   3.360  20.753   4.183
27843W        W96173  42.945  39.854  10.607
27844W        W96174   3.928   6.262  12.515
27845W        W96175   6.733  14.641  11.516
27846W        W96176   6.873   5.282  14.873
27847W        W96177   8.715  23.612   0.345
27848W        W96178   2.729  10.289   1.863
27849W        W96179  34.503  17.627   4.343
27850W        W96180  18.239  36.465  14.285
27851W        W96181  26.698  23.563   4.709
27852W        W96182  24.479  41.838  10.485
27853W        W96183   4.260  14.711   1.781
27854W        W96184  23.123   4.847   1.252
27855W        W96185   6.782  42.860   4.674
27856W        W96186  37.844   0.448  13.982
27857W        W96187  15.242   9.339   2.856
27858W        W96188  12.361   1.964  10.445
27859W        W96189  34.065  11.363  12.073
27860W        W96190  39.886   2.373   3.750
27861W        W96191  36.424   7.778  11.414
27862W        W96192  20.656  28.949  11.961
27863W        W96193   4.403  30.942   4.193
27864W        W96194  42.865  19.594  11.421
27865W        W96195  38.867  36.412   2.267
27866W        W96196  15.669   5.722  14.908
27867W        W96197  26.667  40.510   1.790
27868W        W96198   4.943  30.645   0.787
27869W        W96199   1.761  31.446  12.950
27870W        W96200  19.233  13.194  14.010
27871W        W96201  14.251  39.315   0.905
27872W        W96202  34.931  36.534  11.079
27873W        W96203  13.699   5.746   1.426
27874W        W96204   1.936  39.379   1.711
27875W        W96205  29.922   0.770  13.030
27876W        W96206  11.756  43.296  11.406
27877W        W96207  15.204   4.744  13.448
27878W        W96208  28.932  20.747  14.977
27879W        W96209  35.880   6.199   1.246
27880W        W96210  28.954  34.031   3.379
27881W        W96211  40.972  24.213  13.527
27882W        W96212  26.150  25.660   2.403
27883W        W96213  40.008  41.965   4.124
27884W        W96214  40.320  11.642   2.785
27885W        W96215   3.911   4.316  14.345
27886W        W96216  19.187   0.307   2.778
27887W        W96217  29.528  13.748   3.266
27888W        W96218   3.386  11.667   4.787
27889W        W96219  32.981   2.254  12.082
27890W        W96220   4.876   1.818   0.368
27891W        W96221  19.735   3.270  13.531
27892W        W96222   9.159  34.021  14.373
27893W        W96223  24.160   0.772   4.139
27894W        W96224   2.236  31.463   1.768
27895W        W96225  22.023  34.931   4.831
27896W        W96226   9.184  31.546   4.601
27897W        W96227  31.955  25.556  12.849
27898W        W96228   6.307  42.859   4.271
27899W        W96229  13.647  41.509  14.918
27900W        W96230  23.040  19.766  13.813
27901W        W96231   3.889  37.564   2.877
27902W        W96232  10.344  37.475   5.173
27903W        W96233  37.003  25.515   2.181
27904W        W96234   7.730  37.981   3.251
27905W        W96235  34.996   7.678  10.550
27906W        W96236  39.341  36.588   2.800
27907W        W96237  39.998  23.186   2.857
27908W        W96238  21.175  44.265  11.417
27909W        W96239  28.133   1.966  12.474
27910W        W96240  13.191   3.868  14.424
27911W        W96241  12.225  10.140  10.503
27912W        W96242  12.789  28.170  14.499
27913W        W96243  21.040  10.359   4.265
27914W        W96244   2.381  25.217  13.032
27915W        W96245  38.543  11.179  13.994
27916W        W96246  18.659  36.865   0.856
27917W        W96247  20.557  41.940   0.401
27918W        W96248  30.466   8.393  12.955
27919W        W96249  10.846  43.271   2.361
27920W        W96250   5.396  32.559  14.383
27921W        W96251  15.733   6.248  11.400
27922W        W96252  39.960  21.631  14.809
27923W        W96253   5.200  43.902  12.882
27924W        W96254  41.338  19.103   2.894
27925W        W96255   1.846  43.998  13.336
27926W        W96256  23.206  13.647  14.021
27927W        W96257  21.626  15.266  14.904
27928W        W96258  10.350  30.530  10.597
27929W        W96259  11.225   4.837  10.456
27930W        W96260  41.894  23.171  13.439
27931W        W96261  18.246   0.802  12.365
27932W        W96262   7.396  16.772  13.406
27933W        W96263   4.918  39.360  13.984
27934W        W96264  34.068  38.844   1.301
27935W        W96265  34.501  24.563  11.451
27936W        W96266  28.090  17.244   2.738
27937W        W96267  14.247  29.574   2.827
27938W        W96268  21.678  10.853   1.847
27939W        W96269  40.991  34.545  10.621
27940W        W96270  39.044  42.370   4.774
27941W        W96271   4.785  27.660   2.676
27942W        W96272   9.229  41.419  11.005
27943W        W96273  10.167  30.157  13.350
27944W        W96274  39.346  20.725  14.307
27945W        W96275  43.319  17.683   1.716
27946W        W96276  40.410   0.971  11.392
27947W        W96277  13.179   3.360   0.876
27948W        W96278  17.752  16.082   1.804
27949W        W96279   5.860  29.933  12.538
27950W        W96280  40.401  14.790  10.637
27951W        W96281  19.767  12.330   2.664
27952W        W96282  31.639  15.625  10.615
27953W        W96283  25.995  13.279  10.973
27954W        W96284  37.551  29.120  10.464
27955W        W96285  39.485  36.027   0.418
27956W        W96286  31.454  22.532   2.263
27957W        W96287   5.921  11.241  11.409
27958W        W96288  37.412  10.809   3.370
27959W        W96289  36.980  17.190  13.871
27960W        W96290  27.541  22.590  12.904
27961W        W96291  41.474  31.521  14.766
27962W        W96292  12.253  40.435  11.385
27963W        W96293  34.925  14.683  12.497
27964W        W96294  16.679   8.711  10.624
27965W        W96295  31.128  31.094   4.317
27966W        W96296  33.545  24.482   1.715
27967W        W96297  31.625  37.368  14.495
27968W        W96298  35.990  42.323   4.318
27969W        W96299  34.474  32.898   4.157
27970W        W96300   3.425  18.284  10.991
27971W        W96301  35.857  33.971   3.849
27972W        W96302  11.798  16.158  14.512
27973W        W96303  31.590  38.497  13.916
27974W        W96304   6.347  43.877   3.811
27975W        W96305   8.730  19.707  14.801
27976W        W96306   8.370  25.987  14.981
27977W        W96307  10.874  35.062  14.432
27978W        W96308  34.536  27.124   4.155
27979W        W96309  19.606  23.234  11.008
27980W        W96310  18.105   0.957   4.325
27981W        W96311  36.443  10.203   2.786
27982W        W96312  40.842   5.337  11.008
27983W        W96313  37.416  33.571  13.915
27984W        W96314  22.619  19.138   1.273
27985W        W96315  18.193  23.537  11.907
27986W        W96316  44.863  24.514  12.957
27987W        W96317  10.314  39.818   3.223
27988W        W96318  37.982   3.736   0.481
27989W        W96319  39.048  41.804  12.893
27990W        W96320  44.301   5.758  11.989
27991W        W96321  41.294  43.912  10.967
27992W        W96322   6.694  32.061  12.577
27993W        W96323  26.965   4.326   0.473
27994W        W96324  44.975  10.300  10.436
27995W        W96325  44.278   9.672   3.348
27996W        W96326  31.924  39.425   2.194
27997W        W96327  20.144  28.957  14.475
27998W        W96328  26.652  28.110  12.552
27999W        W96329  23.636  10.794   1.922
28000W        W96330  15.604  25.021  12.417
28001W        W96331  35.424   9.666  13.976
28002W        W96332  25.965  34.557  13.945
28003W        W96333  15.228  44.801  10.558
28004W        W96334  43.469  31.552  14.789
28005W        W96335  19.189  41.506  14.282
28006W        W96336   6.349  23.101  12.070
28007W        W96337  21.754  28.068   1.739
28008W        W96338  24.201  33.607   2.734
28009W        W96339  21.542  31.152   4.290
28010W        W96340   4.359  25.519   0.836
28011W        W96341  39.533   9.818   1.261
28012W        W96342  33.067  23.015   2.797
28013W        W96343  37.943  24.689   0.443
28014W        W96344  29.004  17.183  12.360
28015W        W96345  24.151  39.460  12.057
28016W        W96346  13.249  23.029  11.908
28017W        W96347  19.124  14.267   2.236
28018W        W96348   7.874  39.978   2.895
28019W        W96349   4.205  33.088   0.390
28020W        W96350  37.519  40.368   3.380
28021W        W96351  31.486  40.310  10.575
28022W        W96352  25.640   2.784   0.269
28023W        W96353  21.560  18.236  11.974
28024W        W96354   5.718  44.478   2.364
28025W        W96355  41.844  18.080  11.868
28026W        W96356  32.570  23.056  12.921
28027W        W96357  32.440   1.950  14.975
28028W        W96358   5.863  28.649   3.198
28029W        W96359  10.767  39.847  12.996
28030W        W96360  28.972  31.082   1.914
28031W        W96361  13.204  25.069   1.854
28032W        W96362   0.272  14.191   1.860
28033W        W96363  40.992  33.012   3.320
28034W        W96364  32.064   7.807   0.752
28035W        W96365  24.188  11.271  12.500
28036W        W96366   5.759  31.126   3.200
28037W        W96367  22.036   7.842   0.343
28038W        W96368  36.514  28.985  13.441
28039W        W96369   5.907  42.910   2.296
28040W        W96370  36.989  18.783  13.921
28041W        W96371  43.942  44.812  13.045
28042W        W96372  23.575  32.561   1.427
28043W        W96373  30.070   7.192  14.807
28044W        W96374  23.991  41.519   2.892
28045W        W96375   7.754  19.062  11.424
28046W        W96376  26.558   9.764  12.845
28047W        W96377   5.864  36.405  14.968
28048W        W96378  33.039  17.622  12.508
28049W        W96379  16.700   1.740  14.807
28050W        W96380  18.264  19.645   4.250
28051W        W96381  16.712  19.083  11.942
28052W        W96382  35.867  28.010   1.826
28053W        W96383  39.511  16.787  12.836
28054W        W96384   2.455  44.778   0.383
28055W        W96385  19.597  12.693   4.752
28056W        W96386  20.190  11.346  14.496
28057W        W96387  26.579   1.818  10.090
28058W        W96388   7.360   9.716   0.341
28059W        W96389  19.049  19.195   9.438
28060W        W96390  42.787  16.078   1.777
28061W        W96391  39.822  21.079   4.725
28062W        W96392  33.928  17.175   1.369
28063W        W96393  24.127  13.789  13.829
28064W        W96394  44.384   1.779   0.384
28065W        W96395  38.872  23.055   0.264
28066W        W96396   7.395  23.705   1.843
28067W        W96397  30.109  15.254   3.326
28068W        W96398  29.066  41.469  13.973
28069W        W96399  28.473  39.019  12.422
28070W        W96400   7.757  26.488  12.476
28071W        W96401  25.172  38.332   1.331
28072W        W96402  17.779  12.829   0.832
28073W        W96403  29.082  41.319   0.258
28074W        W96404  12.729  41.890   1.717
28075W        W96405  38.508  38.512   2.863
28076W        W96406  29.998  38.025   4.646
28077W        W96407  40.437   8.680   2.347
28078W        W96408   9.277  40.005  12.573
28079W        W96409  24.492  24.144  12.542
28080W        W96410  31.153  39.937  13.950
28081W        W96411  28.949  16.124   3.857
28082W        W96412  40.830  43.898   4.280
28083W        W96413  15.612   9.873  14.450
28084W        W96414  37.436  11.271  10.542
28085W        W96415  17.133  11.703   4.749
28086W        W96416  23.222  30.591   2.750
28087W        W96417  29.156  34.382   0.790
28088W        W96418  29.597  14.172  12.464
28089W        W96419  11.767  44.469  10.030
28090W        W96420  15.197  14.831  11.901
28091W        W96421  42.309  30.119   1.219
28092W        W96422   1.740  30.573  13.931
28093W        W96423  36.395   0.465  14.853
28094W        W96424  37.881  39.468   3.236
28095W        W96425  39.933  13.790  14.944
28096W        W96426  43.855  34.048  10.499
28097W        W96427  18.130   4.398  14.918
28098W        W96428  17.767   1.449  14.338
28099W        W96429  27.453  21.651   4.622
28100W        W96430   4.869  15.797   0.399
28101W        W96431  11.671  18.257  14.505
28102W        W96432  40.480  42.966  14.962
28103W        W96433   0.907  37.372  14.785
28104W        W96434  44.386  12.856  10.405
28105W        W96435   7.720  26.530  13.052
28106W        W96436  38.438  19.550   1.358
28107W        W96437  27.672  17.204   4.782
28108W        W96438  32.521  11.693   4.766
28109W        W96439  23.182  22.145   3.326
28110W        W96440  25.106   7.734   3.248
28111W        W96441  10.708   1.973   2.337
28112W        W96442  43.436  40.931  11.526
28113W        W96443  21.676  33.468  14.949
28114W        W96444  19.120  38.927  14.837
28115W        W96445  21.589  43.494  11.418
28116W        W96446  29.640  36.553   2.806
28117W        W96447  44.458   7.821  12.569
28118W        W96448  25.490  13.225   4.749
28119W        W96449  29.031  29.160   1.819
28120W        W96450   9.230  38.965  13.808
28121W        W96451  23.493   2.466   3.159
28122W        W96452  40.328  31.127   4.831
28123W        W96453  40.870  15.748  12.076
28124W        W96454  17.259  31.023   2.334
28125W        W96455  14.314  43.868  11.517
28126W        W96456  42.402  28.596  12.467
28127W        W96457   4.789  35.449  14.465
28128W        W96458  18.255   4.440  12.374
28129W        W96459  27.152  31.908   3.728
28130W        W96460   7.300  21.234   1.856
28131W        W96461   4.815  29.453  12.493
28132W        W96462  13.740  19.551   2.255
28133W        W96463  34.905   3.255   2.815
28134W        W96464  34.059  38.540   1.837
28135W        W96465   8.784   3.782  13.904
28136W        W96466  24.564  20.046   1.699
28137W        W96467  24.636   2.264  10.947
28138W        W96468  28.163  26.178   0.305
28139W        W96469  37.981  29.533   1.905
28140W        W96470  36.978  40.475   3.273
28141W        W96471  31.026  36.052   5.148
28142W        W96472  23.071  42.435   0.784
28143W        W96473  12.850  23.004  13.850
28144W        W96474  19.047  26.516   3.371
28145W        W96475  21.640  34.986   0.351
28146W        W96476  20.175  31.124   5.205
28147W        W96477  16.089  19.637   4.338
28148W        W96478  32.502  31.122  13.019
28149W        W96479  22.024   8.694   2.389
28150W        W96480  34.535  11.632   4.226
28151W        W96481  39.340  22.196  14.415
28152W        W96482  44.769  17.222   0.283
28153W        W96483   2.959  37.076   2.222
28154W        W96484  18.053  42.490  14.339
28155W        W96485   3.844  29.942  12.557
28156W        W96486   5.271  33.977   1.841
28157W        W96487   2.859  15.250  13.014
28158W        W96488   6.743  37.377   3.268
28159W        W96489  26.686   2.799  11.464
28160W        W96490  19.239   7.187   2.331
28161W        W96491  44.328  42.472  14.407
28162W        W96492  32.904  34.092  11.397
28163W        W96493  13.253  30.531   1.308
28164W        W96494   3.387  31.505   3.312
28165W        W96495  33.502  38.410   1.348
28166W        W96496  39.379   2.926   4.278
28167W        W96497   6.293   4.298   2.682
28168W        W96498  38.510   4.762  10.891
28169W        W96499  33.407  26.073   1.335
28170W        W96500  27.527  41.308  14.472
28171W        W96501  34.391  14.702  12.990
28172W        W96502   0.446  14.820  11.569
28173W        W96503  44.381  26.966  11.942
28174W        W96504   0.978  10.322   3.867
28175W        W96505   2.409  27.581  14.419
28176W        W96506   1.467  11.752  12.576
28177W        W96507  20.053  35.420  12.357
28178W        W96508  21.530   2.898  13.472
28179W        W96509  19.746   4.355  13.882
28180W        W96510  29.126  37.085  10.421
28181W        W96511  18.684  20.545  12.981
28182W        W96512  21.157  27.519   3.166
28183W        W96513  13.338  21.140  14.864
28184W        W96514  11.300   8.382  13.876
28185W        W96515   4.862   3.775  10.946
28186W        W96516  40.331  11.243  12.339
28187W        W96517  23.142  10.831  11.961
28188W        W96518   8.272  16.675   3.755
28189W        W96519  19.696  26.468   2.665
28190W        W96520   7.187  38.379   2.333
28191W        W96521  37.848  19.152   0.792
28192W        W96522  23.716  38.992   2.225
28193W        W96523  22.107  24.010   3.312
28194W        W96524  42.432  10.636  12.359
28195W        W96525  11.754  32.009  10.503
28196W        W96526  37.578  36.866   4.647
28197W        W96527  19.145  27.571  10.927
28198W        W96528  35.480  31.488   1.825
28199W        W96529  17.681  39.533   1.722
28200W        W96530  28.598  40.965  12.430
28201W        W96531   9.766  18.150   1.283
28202W        W96532   0.321  42.368  13.498
28203W        W96533  34.969   6.777   1.300
28204W        W96534  25.594  30.595   1.351
28205W        W96535   1.244   9.375  11.446
28206W        W96536  12.778   8.860   2.713
28207W        W96537   2.939   8.298  12.401
28208W        W96538  13.267  17.797   1.795
28209W        W96539  10.874   4.942   3.638
28210W        W96540  42.502  24.546   4.309
28211W        W96541   4.270  16.234   3.339
28212W        W96542   1.323   0.326  11.931
28213W        W96543   5.840  16.257   4.328
28214W        W96544   3.765  22.245  14.495
28215W        W96545  27.605  42.827   4.656
28216W        W96546  28.969  22.656   1.819
28217W        W96547   0.788  43.296  11.860
28218W        W96548  24.489  43.435   2.686
28219W        W96549  33.571  10.166   0.920
28220W        W96550   0.873  10.639   3.637
28221W        W96551   7.682  12.850   0.868
28222W        W96552   5.782  25.203  12.352
28223W        W96553   9.860   6.290  14.311
28224W        W96554   1.766   3.281   1.814
28225W        W96555  12.817  21.691   0.397
28226W        W96556   7.846  38.950   3.378
28227W        W96557  28.159  18.699  13.501
28228W        W96558   6.891   5.819   0.782
28229W        W96559   3.881  24.584   4.653
28230W        W96560  29.615  41.446  14.339
28231W        W96561  28.653  21.066  11.507
28232W        W96562   0.473   9.338   2.363
28233W        W96563  11.796   8.315  12.879
28234W        W96564  35.956  24.083   2.399
28235W        W96565   0.753  41.351   2.234
28236W        W96566  33.521  42.031  14.883
28237W        W96567  29.126  23.565   0.312
28238W        W96568  35.429  33.517   0.266
28239W        W96569  39.539  21.196   1.431
28240W        W96570   3.886  16.245  12.978
28241W        W96571  40.802  39.961  12.954
28242W        W96572   8.355  12.116   3.284
28243W        W96573   1.407   0.783   2.313
28244W        W96574  29.992  14.240  13.044
28245W        W96575   4.903  18.062   1.330
28246W        W96576  43.004   2.778   3.850
28247W        W96577  44.997  17.626   3.781
28248W        W96578  16.292  26.578   0.315
28249W        W96579  21.205  37.363  14.398
28250W        W96580   9.861  16.727  10.612
28251W        W96581  39.926  35.589   4.723
28252W        W96582  30.011  29.082   1.296
28253W        W96583  14.638  22.086   0.285
28254W        W96584  36.031   3.417  14.972
28255W        W96585   8.360  40.455   2.690
28256W        W96586  42.415  11.206  10.416
28257W        W96587  32.536  16.612   3.382
28258W        W96588   0.368  29.457   2.364
28259W        W96589  36.407  33.486  12.483
28260W        W96590  38.493  33.619   3.735
28261W        W96591  42.894  19.230   1.303
28262W        W96592  28.462  42.948  14.961
28263W        W96593  12.177  34.109   0.869
28264W        W96594  18.648  39.436  13.009
28265W        W96595  13.231   0.380   2.220
28266W        W96596   0.973   4.256  14.861
28267W        W96597   5.701  20.534  11.114
28268W        W96598  29.569  25.630  12.344
28269W        W96599  33.951  38.544  10.457
28270W        W96600   0.946   0.390   1.258
28271W        W96601  40.323  33.099   3.832
28272W        W96602   5.239  24.587  11.461
28273W        W96603  26.007  11.252  13.846
28274W        W96604  14.105  24.635   1.888
28275W        W96605  35.426  43.495  12.387
28276W        W96606  18.774  34.085  14.400
28277W        W96607  40.944  21.553   2.676
28278W        W96608   2.467  24.675  12.468
28279W        W96609  13.737  33.413  10.892
28280W        W96610  19.671   3.833   1.263
28281W        W96611  21.176  17.201  10.899
28282W        W96612   5.334   9.171   4.767
28283W        W96613  27.668  25.602  12.034
28284W        W96614  21.565  22.146   0.437
28285W        W96615  10.740  17.783   2.816
28286W        W96616   5.392  33.987   0.933
28287W        W96617  43.845  24.628  12.568
28288W        W96618  34.457  18.127  12.867
28289W        W96619   3.812  37.459  13.866
28290W        W96620  24.613  44.330   3.320
28291W        W96621  11.698   6.847  10.527
28292W        W96622  28.586  22.227  13.347
28293W        W96623  39.508  40.494   2.346
28294W        W96624  12.805  42.019  12.574
28295W        W96625  37.375  26.010   3.651
28296W        W96626  23.003  44.368   4.682
28297W        W96627   4.731  24.043   2.810
28298W        W96628  35.581  27.946  13.337
28299W        W96629  31.030  17.161   2.688
28300W        W96630  22.599  11.800   4.773
28301W        W96631   0.475   4.286  10.420
28302W        W96632  30.023   8.169   1.449
28303W        W96633  23.088  19.649   0.445
28304W        W96634   6.903  18.684  10.428
28305W        W96635  43.508  24.492  11.981
28306W        W96636  13.659  11.362   4.133
28307W        W96637  14.659  22.698   2.399
28308W        W96638   0.341  22.701  10.482
28309W        W96639  33.433  20.768  10.916
28310W        W96640  40.017  14.142  11.487
28311W        W96641  32.119  44.787  12.443
28312W        W96642   7.686  39.371  10.612
28313W        W96643  36.973  14.815   1.288
28314W        W96644   4.288  36.936  14.997
28315W        W96645  34.526  22.229   3.354
28316W        W96646   9.857  21.170   3.763
28317W        W96647   9.839  37.938   4.341
28318W        W96648  32.492  37.408  12.389
28319W        W96649   9.706  34.913   3.721
28320W        W96650  23.653   2.813   2.301
28321W        W96651  24.992  32.571   0.455
28322W        W96652  27.130   6.742  14.808
28323W        W96653  35.387   9.799  14.330
28324W        W96654  35.958   8.382   2.831
28325W        W96655  19.618  14.712   2.325
28326W        W96656   1.280  35.480   1.863
28327W        W96657  36.918  29.617  14.900
28328W        W96658   5.755  33.437   2.287
28329W        W96659  12.212  38.983   1.343
28330W        W96660   2.780  23.734  10.907
28331W        W96661   3.814   6.823  11.893
28332W        W96662  33.058  23.518  11.075
28333W        W96663  33.518  40.813   3.365
28334W        W96664   4.394  20.524   1.304
28335W        W96665  25.066  31.906  10.537
28336W        W96666  23.050   5.927   1.748
28337W        W96667  18.773  36.581   2.697
28338W        W96668  28.954   8.799   1.810
28339W        W96669  27.584   0.289   0.786
28340W        W96670  17.734  27.660  13.456
28341W        W96671   7.241  39.395  13.992
28342W        W96672   4.253  38.416   2.700
28343W        W96673  24.572   1.453  12.461
28344W        W96674   4.851  42.936   1.709
28345W        W96675  12.187   3.916  14.859
28346W        W96676  36.881  33.966   0.923
28347W        W96677  11.277  27.611   1.415
28348W        W96678   6.349  24.569   3.148
28349W        W96679  18.153   3.450  10.504
28350W        W96680  16.612   5.195   4.124
28351W        W96681  23.647  21.130  12.073
28352W        W96682  34.409  26.520  12.044
28353W        W96683   2.768  19.675  10.960
28354W        W96684  11.685  21.099  11.971
28355W        W96685  32.089  27.982  13.053
28356W        W96686  40.423  25.102   0.439
28357W        W96687  35.474  15.197   4.120
28358W        W96688   4.907   2.232  10.891
28359W        W96689  42.952   2.954  11.111
28360W        W96690  25.158  29.540   3.200
28361W        W96691  41.438   9.281   2.314
28362W        W96692  30.649  26.133   3.753
28363W        W96693   1.964  13.631   0.865
28364W        W96694  12.655  10.826   2.662
28365W        W96695  27.061  19.161   1.905
28366W        W96696   1.762  20.679  12.983
28367W        W96697   8.847  33.597   2.756
28368W        W96698   4.863  28.942  12.829
28369W        W96699  44.392  20.201   0.869
28370W        W96700  36.348  40.800  12.898
28371W        W96701  34.088  10.254  10.927
28372W        W96702  29.559  18.146  14.919
28373W        W96703   0.419  30.598   1.768
28374W        W96704  30.457  20.043   5.178
28375W        W96705   2.259  22.555  12.365
28376W        W96706  19.777  30.438   5.655
28377W        W96707  10.793  12.746  12.946
28378W        W96708  18.287  10.790  12.038
28379W        W96709   5.856  34.563  14.312
28380W        W96710  13.212  24.982  11.557
28381W        W96711  19.613  16.707   4.761
28382W        W96712  36.361  30.657  11.427
28383W        W96713  23.202  32.428  14.987
28384W        W96714  31.592  10.763   3.173
28385W        W96715  41.896  13.329  13.337
28386W        W96716  20.116  20.217  10.487
28387W        W96717  39.351   9.818   2.669
28388W        W96718  17.782  16.097  13.504
28389W        W96719  11.273  31.619   0.432
28390W        W96720   2.854  29.924   1.402
28391W        W96721   2.757  28.125   4.822
28392W        W96722  12.155  29.538   4.294
28393W        W96723   5.252  16.244  11.547
28394W        W96724  25.205  30.516   2.750
28395W        W96725  42.954  34.027  14.009
28396W        W96726  19.183  21.192  11.553
28397W        W96727  41.950  33.021   1.311
28398W        W96728  40.013  21.735  11.392
28399W        W96729  12.198  28.969   2.325
28400W        W96730  31.086   5.913  10.605
28401W        W96731   2.356  31.950  13.396
28402W        W96732  39.970  31.126   1.371
28403W        W96733   7.237  13.110  12.039
28404W        W96734  26.575  22.215  11.046
28405W        W96735  19.235   8.796  12.863
28406W        W96736  35.948   7.230  14.971
28407W        W96737  27.628  33.525  10.486
28408W        W96738  27.110  19.077   1.313
28409W        W96739  10.166   5.819  10.579
28410W        W96740   2.763  15.716   0.924
28411W        W96741  25.634  11.793   4.175
28412W        W96742  17.791   2.869   1.924
28413W        W96743   3.284  14.247   0.297
28414W        W96744  11.343   8.270   2.834
28415W        W96745  22.995  12.656   2.739
28416W        W96746   1.853   7.715   3.850
28417W        W96747  30.464   8.390  10.414
28418W        W96748   8.293  28.601  14.496
28419W        W96749  42.377  40.871   2.183
28420W        W96750  41.953  36.350   2.710
28421W        W96751  26.647  10.700   5.094
28422W        W96752  11.294   8.333  11.484
28423W        W96753   3.228   9.303   3.240
28424W        W96754   5.804  27.007  14.468
28425W        W96755  17.570  26.125  13.878
28426W        W96756  21.109   9.739  12.976
28427W        W96757  34.880   0.953  12.826
28428W        W96758  41.978  40.892  10.616
28429W        W96759  19.117  28.446   5.619
28430W        W96760  33.948  12.806   4.812
28431W        W96761   3.804  12.345  10.497
28432W        W96762  33.463  11.349  13.881
28433W        W96763   3.744  27.679   4.264
28434W        W96764  23.096   8.691   1.241
28435W        W96765  22.028  41.900   4.679
28436W        W96766   3.305  17.799  13.980
28437W        W96767  18.747  42.999  10.445
28438W        W96768   8.720  31.926   2.710
28439W        W96769  43.927  29.581   3.685
28440W        W96770  28.564  36.884  12.918
28441W        W96771  29.036   9.866  12.009
28442W        W96772  36.402  33.045  13.006
28443W        W96773  23.538  22.100  12.512
28444W        W96774  24.648  38.335   0.480
28445W        W96775  30.967  22.015   4.708
28446W        W96776  44.272  14.283  12.861
28447W        W96777  19.188  27.683   2.752
28448W        W96778  38.382  15.280  12.002
28449W        W96779   9.869  43.401  12.425
28450W        W96780  18.581  28.521   0.327
28451W        W96781  11.346  14.589  12.410
28452W        W96782  23.004  39.871   3.348
28453W        W96783  26.477   6.273   4.611
28454W        W96784  27.105  38.874  12.429
28455W        W96785  29.052  44.329   3.342
28456W        W96786  33.392   7.861  13.522
28457W        W96787  12.847  25.207   0.831
28458W        W96788   2.855   0.344   2.197
28459W        W96789  23.591  13.708   2.391
28460W        W96790   9.387  32.415   0.919
28461W        W96791  24.653  22.178  13.873
28462W        W96792  39.829  38.026  12.882
28463W        W96793   3.278  14.181  13.064
28464W        W96794  27.602  30.482  14.766
28465W        W96795  22.590  19.610   2.345
28466W        W96796  37.376  34.565  11.946
28467W        W96797  20.750  14.284  14.352
28468W        W96798  44.921  44.432   1.343
28469W        W96799  16.718   2.460   4.692
28470W        W96800  20.543  29.527  12.024
28471W        W96801   9.697  25.193  13.499
28472W        W96802   5.296  11.857  12.415
28473W        W96803  20.233  31.536   1.713
28474W        W96804  11.338  27.665   0.307
28475W        W96805   4.278  39.493   0.887
28476W        W96806  30.044  26.550   0.413
28477W        W96807  38.977   9.156  13.976
28478W        W96808  17.283  13.601   2.198
28479W        W96809  17.116  36.372   0.260
28480W        W96810   5.812  24.179   0.435
28481W        W96811  10.651  44.954   2.848
28482W        W96812  24.550  13.344  13.855
28483W        W96813  31.630  38.469   4.787
28484W        W96814   7.779   9.187  10.940
28485W        W96815  16.237  42.023  12.435
28486W        W96816  34.506  19.723  13.470
28487W        W96817  20.138  20.122  11.388
28488W        W96818  24.658   3.458   2.862
28489W        W96819  36.553   4.907  14.483
28490W        W96820   5.922  20.217  14.015
28491W        W96821  39.821  21.558   2.372
28492W        W96822  18.123  15.683  13.425
28493W        W96823  23.076  16.572   2.413
28494W        W96824  33.562  16.692   4.114
28495W        W96825  11.631  34.091   1.846
28496W        W96826  29.995   0.923   0.245
28497W        W96827   6.376  12.805   2.259
28498W        W96828   0.440  19.069  10.979
28499W        W96829  43.875  31.939  13.475
28500W        W96830  11.637  24.590  13.352
28501W        W96831  26.651  43.474  13.454
28502W        W96832  29.025  22.526   0.901
28503W        W96833  43.982  13.177  11.463
28504W        W96834  35.972   9.309  11.940
28505W        W96835  29.514  42.511   2.664
28506W        W96836  17.605  24.068   5.232
28507W        W96837  15.296   6.794   3.679
28508W        W96838  27.026  10.785   3.820
28509W        W96839   9.651  24.011   4.253
28510W        W96840   7.389  18.723   4.643
28511W        W96841  17.264  19.718   3.253
28512W        W96842  15.170   5.762  11.008
28513W        W96843  23.689  11.670  10.506
28514W        W96844   4.261  18.554  13.355
28515W        W96845   5.361  44.819  12.874
28516W        W96846  12.214  36.092   3.289
28517W        W96847  43.889  24.683   3.732
28518W        W96848  30.430  32.535   2.850
28519W        W96849  32.887  31.487  12.400
28520W        W96850  27.528  44.454   0.281
28521W        W96851  43.463  34.528  12.828
28522W        W96852  11.686  21.557   0.939
28523W        W96853  37.412  13.620   2.264
28524W        W96854  36.051  29.575   5.095
28525W        W96855  26.008  14.631   2.194
28526W        W96856  41.821  42.359   1.429
28527W        W96857  19.596  31.414  12.061
28528W        W96858  25.167  15.254  14.499
28529W        W96859  43.331  32.015  12.450
28530W        W96860   0.851  18.075  10.590
28531W        W96861  33.901  31.037  12.413
28532W        W96862  19.115  33.625   4.135
28533W        W96863   4.399   1.310   0.776
28534W        W96864  28.111  24.722  10.451
28535W        W96865   0.916  15.631   1.373
28536W        W96866  14.313  14.181  12.396
28537W        W96867  37.897   6.185  12.046
28538W        W96868  28.999  16.724   3.813
28539W        W96869  38.512  42.024  11.550
28540W        W96870  42.288  29.129  14.967
28541W        W96871  15.170   9.828   4.673
28542W        W96872   7.742  27.530  12.024
28543W        W96873   9.699   1.372   4.669
28544W        W96874  23.174  13.262  12.957
28545W        W96875   0.302  14.788  14.907
28546W        W96876  14.607  41.813  13.846
28547W        W96877   7.817  37.045   3.317
28548W        W96878   0.940  16.236   0.941
28549W        W96879  32.111  28.110  11.029
28550W        W96880   7.792  37.027   4.613
28551W        W96881  41.465  26.647  14.337
28552W        W96882  27.152   6.254  13.327
28553W        W96883   2.335  38.819   1.910
28554W        W96884  23.657   0.905   0.246
28555W        W96885   4.274  30.436  11.390
28556W        W96886  21.194  36.985  13.976
28557W        W96887  20.609  14.237   4.715
28558W        W96888  41.883  29.449   4.805
28559W        W96889   5.833   7.864  13.392
28560W        W96890  37.877  27.980   4.290
28561W        W96891   4.843  32.967  10.023
28562W        W96892  32.474  14.095   2.218
28563W        W96893  19.602  11.255   0.837
28564W        W96894  31.571  30.929   4.141
28565W        W96895  20.229   9.362  12.831
28566W        W96896  42.877   7.893   1.308
28567W        W96897  37.403  11.311  11.518
28568W        W96898  19.575  12.280  11.981
28569W        W96899  42.891  37.538  14.376
28570W        W96900  38.564  29.627  12.442
28571W        W96901  31.050  40.005  12.861
28572W        W96902  40.041  37.459   2.844
28573W        W96903   0.344   1.901   1.281
28574W        W96904   3.863  40.492  11.015
28575W        W96905  32.556  23.999  12.012
28576W        W96906  36.466  26.147  10.992
28577W        W96907  19.280  23.061  12.436
28578W        W96908  40.866  27.598  14.001
28579W        W96909   5.333  21.023  10.508
28580W        W96910  23.640  23.193  13.892
28581W        W96911  29.587   5.304  12.531
28582W        W96912   0.883  35.989   5.145
28583W        W96913  30.945  14.812  12.499
28584W        W96914   7.692  31.487   1.448
28585W        W96915  38.429   5.775   2.341
28586W        W96916  23.608  15.718  13.878
28587W        W96917  24.480  19.183   2.739
28588W        W96918  44.791  44.456   2.372
28589W        W96919  12.733  24.138   0.768
28590W        W96920  19.701  20.214  12.992
28591W        W96921   6.906  26.469  12.951
28592W        W96922   0.961  40.372  14.474
28593W        W96923  31.646  29.932  13.534
28594W        W96924  31.031  29.457   1.912
28595W        W96925  24.976  24.703  11.580
28596W        W96926  23.702   9.263  12.451
28597W        W96927  31.150  23.142   5.109
28598W        W96928  40.334  22.587   0.383
28599W        W96929   7.181  25.528  14.407
28600W        W96930  23.693  20.543   0.817
28601W        W96931  17.155  41.994   4.667
28602W        W96932  37.406   7.388  10.026
28603W        W96933  39.905  29.504  11.417
28604W        W96934  18.725  18.716  12.925
28605W        W96935  40.004   5.297   3.724
28606W        W96936  15.810   1.327   3.684
28607W        W96937  23.558  43.841  14.395
28608W        W96938   2.226  25.117  13.934
28609W        W96939  18.173  31.917  13.792
28610W        W96940  23.664   0.298  12.965
28611W        W96941  35.023  14.264  14.781
28612W        W96942   2.439  34.918  12.869
28613W        W96943   2.384  12.296   4.755
28614W        W96944   4.421  40.932   1.256
28615W        W96945  27.011   2.300   1.721
28616W        W96946  14.601   6.185  12.430
28617W        W96947   3.266   9.277   5.087
28618W        W96948  24.624   9.305  14.028
28619W        W96949  24.062   1.746  11.604
28620W        W96950  42.985  13.707   2.364
28621W        W96951  31.978  25.161  13.355
28622W        W96952  22.589  35.362  13.403
28623W        W96953   2.314  33.012   1.342
28624W        W96954  23.153   1.483  13.481
28625W        W96955  13.201   6.303   4.808
28626W        W96956  21.658  28.659  10.130
28627W        W96957   9.686  26.612  12.358
28628W        W96958  16.653  40.496   0.304
28629W        W96959  12.703  10.182  14.826
28630W        W96960  27.515  20.685  10.908
28631W        W96961   3.816  25.480  13.339
28632W        W96962  36.462  40.365   1.417
28633W        W96963   3.458  34.961  12.343
28634W        W96964  44.415   0.747   0.378
28635W        W96965  23.117  13.115   1.733
28636W        W96966  26.030   1.978  14.407
28637W        W96967  16.809  28.981   4.663
28638W        W96968  40.530  14.330   3.726
28639W        W96969  23.165   6.382  14.377
28640W        W96970   9.857  41.926  11.882
28641W        W96971  21.732  18.665   2.407
28642W        W96972   3.295  11.864   3.678
28643W        W96973  38.876   9.837  12.506
28644W        W96974  26.083  13.667   2.799
28645W        W96975  29.519  15.218  14.427
28646W        W96976  44.393  35.023   0.915
28647W        W96977  37.067  32.460   2.396
28648W        W96978  28.585  37.902   4.277
28649W        W96979  17.673   2.786  13.817
28650W        W96980  23.129  10.379   5.284
28651W        W96981  14.187  38.571  12.488
28652W        W96982   9.204  17.738  13.808
28653W        W96983  19.219   2.387  13.842
28654W        W96984  18.058   0.806  13.449
28655W        W96985  30.510   5.419   3.688
28656W        W96986  17.136  25.147   0.342
28657W        W96987  18.588  32.024   2.884
28658W        W96988   1.966  27.498  12.040
28659W        W96989   2.839   5.220  12.378
28660W        W96990  22.153  31.600  11.521
28661W        W96991  35.511  26.182   2.248
28662W        W96992  37.846   6.345  10.494
28663W        W96993   6.795  22.707  13.057
28664W        W96994  24.569   8.304   3.287
28665W        W96995  24.592  12.308   2.694
28666W        W96996  33.889   2.453   0.936
28667W        W96997  38.338   8.848  12.998
28668W        W96998  26.047  36.861  12.967
28669W        W96999  22.190  10.743   1.272
28670W        W97000  12.332  35.444  13.023
28671W        W97001   8.351   4.312  14.860
28672W        W97002   2.348  37.491   3.851
28673W        W97003  11.153  33.033   3.648
28674W        W97004  39.364  28.997  14.806
28675W        W97005  15.213   4.230  12.490
28676W        W97006  41.821  44.389  13.329
28677W        W97007  29.497  35.048   1.243
28678W        W97008  16.256  32.909  12.365
28679W        W97009  44.339   0.325   2.886
28680W        W97010  31.456  22.695   4.681
28681W        W97011  21.581  30.611  10.442
28682W        W97012   7.321   2.802  14.332
28683W        W97013  41.923  34.881  14.848
28684W        W97014  20.715  27.657   0.344
28685W        W97015  24.112  35.020   2.711
28686W        W97016  38.850  27.140   0.300
28687W        W97017  23.594  42.865  11.476
28688W        W97018   5.916  12.192  14.884
28689W        W97019  14.688  19.752  10.623
28690W        W97020  14.289  33.580   3.809
28691W        W97021  21.049   7.259   1.301
28692W        W97022  19.585  17.231  11.491
28693W        W97023  26.078   4.297   2.263
28694W        W97024  40.350   9.214   2.900
28695W        W97025  42.355  27.472   1.701
28696W        W97026  30.131   3.927   2.224
28697W        W97027  42.406   2.791  10.504
28698W        W97028   6.783  14.589   4.776
28699W        W97029   6.261  13.135  12.515
28700W        W97030  30.046  28.128  12.973
28701W        W97031   9.338   8.686  10.530
28702W        W97032  32.062  41.839  11.019
28703W        W97033  27.597  39.987  13.011
28704W        W97034  37.563  38.913   4.629
28705W        W97035  24.566  40.331  10.546
28706W        W97036  35.972  38.378   2.279
28707W        W97037  18.597  30.046   0.784
28708W        W97038  13.154   0.295   0.445
28709W        W97039  23.990  23.042   1.358
28710W        W97040  13.623  23.564  14.504
28711W        W97041  15.192   9.297   4.687
28712W        W97042  10.765   3.229  11.392
28713W        W97043  43.447  33.601  11.480
28714W        W97044   3.791   6.822   2.330
28715W        W97045  24.720   6.343  11.980
28716W        W97046  10.361  24.570   2.297
28717W        W97047   2.904  21.669  12.368
28718W        W97048  23.117  10.235   2.745
28719W        W97049  23.135  20.259  11.051
28720W        W97050   2.868  32.469  14.946
28721W        W97051  25.028   3.743  14.334
28722W        W97052   6.733  29.128   2.850
28723W        W97053   2.924  27.183   4.276
28724W        W97054  44.379  43.945   1.228
28725W        W97055   8.276  43.385   4.742
28726W        W97056  17.216  25.521   4.282
28727W        W97057  32.939  44.492   1.928
28728W        W97058   2.878  34.039  11.081
28729W        W97059  29.932   1.291  12.090
28730W        W97060  40.380  11.264   2.816
28731W        W97061  27.646  28.547  10.961
28732W        W97062   5.277  10.712   1.905
28733W        W97063  40.510  16.702  12.458
28734W        W97064   7.764   0.333  10.528
28735W        W97065   4.919  37.055  12.878
28736W        W97066  27.079  28.154   3.661
28737W        W97067  37.899   4.410  11.567
28738W        W97068   3.730   8.294   4.729
28739W        W97069  34.521  13.105   3.695
28740W        W97070  11.650  22.216  14.295
28741W        W97071  11.714   9.261   3.735
28742W        W97072  25.568  11.288   4.760
28743W        W97073  21.213  29.957   5.615
28744W        W97074  41.790  35.074   3.681
28745W        W97075  20.649  28.122  13.502
28746W        W97076  20.257  18.610   3.363
28747W        W97077   6.816  17.600   1.400
28748W        W97078  38.496  37.562   0.776
28749W        W97079   5.382  28.584  14.008
28750W        W97080  15.322  34.931   3.703
28751W        W97081  40.960  25.001  13.835
28752W        W97082  17.623  31.151  12.482
28753W        W97083  35.441  30.982  11.037
28754W        W97084  33.418   7.286   2.184
28755W        W97085  33.093  36.550  12.458
28756W        W97086   5.349  32.125  13.920
28757W        W97087  23.611   7.835   2.191
28758W        W97088  35.603  16.273   3.278
28759W        W97089   8.822  28.638   1.807
28760W        W97090  21.537  10.194   3.371
28761W        W97091  39.375  35.564  14.915
28762W        W97092  40.972  25.061   4.802
28763W        W97093  37.889   2.346  13.878
28764W        W97094  29.605  21.058  12.935
28765W        W97095  23.134  18.760  14.336
28766W        W97096  42.940  33.458  11.547
28767W        W97097  19.258   2.287  11.426
28768W        W97098  22.670  17.088  13.024
28769W        W97099  27.102  41.325   5.307
28770W        W97100   8.697  31.410  12.066
28771W        W97101  21.611  39.897  11.937
28772W        W97102   2.405  16.687   1.431
28773W        W97103  34.579   1.956   3.646
28774W        W97104  11.176  11.758   4.307
28775W        W97105  32.071  40.949   3.784
28776W        W97106   1.803   3.321  12.086
28777W        W97107  21.629  26.514  10.502
28778W        W97108  36.968  13.778  11.376
28779W        W97109   7.360  20.102  12.071
28780W        W97110  39.924  38.435   1.885
28781W        W97111   4.891  30.499  14.515
28782W        W97112  31.153   1.396   2.271
28783W        W97113  32.970  43.780   0.836
28784W        W97114  21.041  16.801   2.714
28785W        W97115  13.749  20.243   1.785
28786W        W97116  42.942  16.140  12.483
28787W        W97117  21.713  42.360  13.501
28788W        W97118  40.931  40.947   0.926
28789W        W97119  10.736   6.863  12.978
28790W        W97120  10.799  29.009   0.264
28791W        W97121  34.879  43.959  11.882
28792W        W97122   1.903  28.664  13.832
28793W        W97123   2.815  11.823  11.079
28794W        W97124  18.159  26.209   5.654
28795W        W97125  20.573  39.958   2.183
28796W        W97126  12.752  10.715  10.935
28797W        W97127  10.707  26.636   1.737
28798W        W97128   5.713  33.988   0.309
28799W        W97129   6.785  22.690  11.054
28800W        W97130  21.641  10.253   5.677
28801W        W97131  27.529  24.993  11.956
28802W        W97132  17.130  18.606   3.715
28803W        W97133  35.560  37.339  12.941
28804W        W97134  31.957  20.746  12.093
28805W        W97135  24.212  39.397   0.470
28806W        W97136  36.396   3.362  13.365
28807W        W97137  25.174  35.016   4.667
28808W        W97138  41.864  21.140   1.268
28809W        W97139  29.474   8.845   1.927
28810W        W97140  28.070  35.901   5.089
28811W        W97141  38.358  18.594  11.901
28812W        W97142  28.542  21.632  14.306
28813W        W97143  20.603  10.285   3.804
28814W        W97144   7.295  33.124  10.577
28815W        W97145  29.643  21.637   9.995
28816W        W97146  28.014  19.761  10.966
28817W        W97147   9.266   1.360   4.646
28818W        W97148  21.588  20.102  12.499
28819W        W97149  20.066  25.711  13.507
28820W        W97150   2.737  32.104   2.751
28821W        W97151  26.615  39.551   4.739
28822W        W97152   3.279  30.966  13.397
28823W        W97153  17.197  21.168  13.505
28824W        W97154  35.585   3.299  12.069
28825W        W97155  44.437   5.353  14.812
28826W        W97156  37.859  15.722  13.502
28827W        W97157   6.834   0.953   4.751
28828W        W97158  21.078   0.776   3.177
28829W        W97159  23.153  15.808  11.522
28830W        W97160  33.969  33.470   2.245
28831W        W97161  35.030  44.348   3.328
28832W        W97162   3.780  42.364  11.459
28833W        W97163  33.612  12.786  14.820
28834W        W97164   4.816  37.561  13.986
28835W        W97165  40.311   6.292   2.784
28836W        W97166  44.315  36.543  13.427
28837W        W97167   0.765   3.252   3.806
28838W        W97168  37.004  34.107  10.417
28839W        W97169  11.213  40.391   1.816
28840W        W97170  21.689  31.564  14.907
28841W        W97171   4.293  41.996   4.749
28842W        W97172   6.901  10.329   4.293
28843W        W97173  22.564   2.966  14.939
28844W        W97174   0.822  33.388   2.228
28845W        W97175   1.774   5.906   3.364
28846W        W97176  18.249  18.759   2.208
28847W        W97177  31.402   0.327   3.670
28848W        W97178  22.124  37.057   0.434
28849W        W97179  30.511  22.054   5.153
28850W        W97180  31.543  43.348   3.251
28851W        W97181  21.546   8.730   4.171
28852W        W97182  32.064  14.670   4.146
28853W        W97183   5.766  30.112  13.028
28854W        W97184  25.554   1.788  13.923
28855W        W97185  24.553  41.956  13.486
28856W        W97186  29.016  33.505   2.730
28857W        W97187   3.287  23.104  14.278
28858W        W97188  24.575  29.458   4.204
28859W        W97189  43.925   3.901  14.311
28860W        W97190   6.233   4.779  14.847
28861W        W97191  29.007  39.853   4.829
28862W        W97192  33.445  19.615   2.406
28863W        W97193  43.929  20.757   0.787
28864W        W97194  34.895  12.846  10.954
28865W        W97195  41.313  11.792   2.879
28866W        W97196  16.590  38.022   0.772
28867W        W97197   4.257  28.997  13.957
28868W        W97198  43.309   0.390   2.352
28869W        W97199  13.336  13.185   2.386
28870W        W97200  42.838  20.110  11.958
28871W        W97201  30.120  20.725   0.356
28872W        W97202   6.311  21.209   2.220
28873W        W97203  15.135  17.079   2.369
28874W        W97204  12.163  31.896  11.093
28875W        W97205  16.080  18.236   2.309
28876W        W97206  40.807   9.218  11.992
28877W        W97207  36.412  14.312   4.350
28878W        W97208  32.440  31.547   3.373
28879W        W97209  31.088   6.894  14.029
28880W        W97210  35.873  31.415  12.837
28881W        W97211  41.448  19.581  14.919
28882W        W97212  16.785   6.831   2.783
28883W        W97213   3.734  23.497  14.826
28884W        W97214  35.525  38.006   4.157
28885W        W97215  26.665  37.537   5.173
28886W        W97216  39.968   6.899  14.439
28887W        W97217  44.807   5.407  11.568
28888W        W97218   6.907   0.797  13.392
28889W        W97219  27.641  31.899   2.280
28890W        W97220  24.481  29.128   2.784
28891W        W97221  14.144   2.303   2.866
28892W        W97222   2.287   9.643  12.471
28893W        W97223  32.038  16.182   1.843
28894W        W97224  33.384  22.224   4.277
28895W        W97225  18.637  30.951   2.304
28896W        W97226  15.670  27.639   1.866
28897W        W97227  14.690  20.680   4.790
28898W        W97228  34.918  27.181  12.562
28899W        W97229  33.385  43.828   1.764
28900W        W97230  21.542  37.374   1.371
28901W        W97231  33.607  26.955   3.852
28902W        W97232   3.342   3.433   1.897
28903W        W97233  25.018  37.514  14.788
28904W        W97234  43.850  20.633   1.803
28905W        W97235  14.332  32.983  14.873
28906W        W97236  19.046  17.627  14.440
28907W        W97237  24.079  27.180  10.594
28908W        W97238  31.481  30.468  13.943
28909W        W97239  19.228   3.456   0.950
28910W        W97240  28.650  21.062   0.901
28911W        W97241  39.879   3.951   1.395
28912W        W97242   7.759   7.408   4.307
28913W        W97243  16.609   1.826   3.358
28914W        W97244   7.173   7.357  13.920
28915W        W97245  43.313  24.123  13.327
28916W        W97246   9.787  43.805   2.374
28917W        W97247  19.732   6.330   1.317
28918W        W97248  28.999  15.276  10.628
28919W        W97249  33.447  34.039   1.842
28920W        W97250  16.235  26.162   3.296
28921W        W97251  24.112  19.178  10.632
28922W        W97252   8.752   0.963   4.811
28923W        W97253  27.616  44.787  11.919
28924W        W97254  37.345   6.902   5.166
28925W        W97255  39.818  34.989   3.733
28926W        W97256   4.288  40.867  13.988
28927W        W97257  25.184  15.136  11.048
28928W        W97258  15.729  10.140   3.800
28929W        W97259  31.616   3.887   1.245
28930W        W97260  42.873   6.204   4.661
28931W        W97261  33.555  16.266   4.136
28932W        W97262  13.149  21.050   3.150
28933W        W97263  23.205  34.944  14.824
28934W        W97264  16.222  44.358  10.608
28935W        W97265  27.009   9.799  12.987
28936W        W97266  33.576   5.354   4.303
28937W        W97267  41.996  44.993  11.936
28938W        W97268  35.877  21.670  12.488
28939W        W97269  36.058  20.706   4.326
28940W        W97270   2.813  21.610   1.344
28941W        W97271  12.168  27.615   4.122
28942W        W97272   0.921   0.399  10.071
28943W        W97273   3.225  12.304   2.692
28944W        W97274  18.068  35.518   2.845
28945W        W97275  20.082   6.883   1.840
28946W        W97276  11.653  31.610  10.081
28947W        W97277  41.876  25.024   0.821
28948W        W97278   9.367  26.087   2.357
28949W        W97279  27.132  32.619   2.414
28950W        W97280  34.887  25.012   2.676
28951W        W97281  36.986  24.506  14.278
28952W        W97282  10.375  18.771   1.449
28953W        W97283  27.073   5.891  11.855
28954W        W97284  15.717  25.649   2.327
28955W        W97285  24.668  42.403  11.856
28956W        W97286  18.729  17.064  14.312
28957W        W97287   2.884   2.278   4.272
28958W        W97288   5.695  21.713   3.224
28959W        W97289  27.446  23.996  14.440
28960W        W97290  27.164   6.202   4.630
28961W        W97291  44.961  20.203   1.281
28962W        W97292   3.429  39.055   1.800
28963W        W97293  24.539   9.381   4.347
28964W        W97294  21.582   8.393  10.427
28965W        W97295  20.219  32.475   1.416
28966W        W97296  11.184  11.253  12.408
28967W        W97297  15.325   0.399   4.118
28968W        W97298  23.619  41.789  10.889
28969W        W97299   1.827  23.192   3.167
28970W        W97300  10.817  15.716   0.804
28971W        W97301  40.350   3.822  10.620
28972W        W97302   7.796  25.119   0.796
28973W        W97303  38.972  12.665  10.094
28974W        W97304  42.908  28.652  10.444
28975W        W97305  16.315  21.223  12.386
28976W        W97306  18.227  37.390  13.841
28977W        W97307  18.288   8.241   0.309
28978W        W97308   3.217  18.128   0.839
28979W        W97309   1.832   3.364   3.791
28980W        W97310  39.361  20.586   3.365
28981W        W97311  21.628   5.766   3.846
28982W        W97312  21.131  27.041  11.862
28983W        W97313  38.364  31.116   4.294
28984W        W97314  41.424  32.023  10.592
28985W        W97315  21.085   1.869   4.737
28986W        W97316  36.982  37.987   4.619
28987W        W97317  26.134  32.024  12.463
28988W        W97318  28.187  26.587   0.788
28989W        W97319  38.051  32.085   3.638
28990W        W97320  22.097   1.470   4.608
28991W        W97321  14.122  26.647  14.957
28992W        W97322   6.734  44.947   2.391
28993W        W97323  22.054  30.527  14.009
28994W        W97324   2.385  34.415   0.931
28995W        W97325   6.915  32.610  13.378
28996W        W97326  21.059  29.036  14.880
28997W        W97327   8.800  32.039  13.483
28998W        W97328  16.106  19.615  12.007
28999W        W97329  25.702  29.149  12.522
29000W        W97330  35.093   7.359  11.083
29001W        W97331   5.223  32.999  11.907
29002W        W97332  40.471   1.902  11.478
29003W        W97333  22.157  39.921   4.780
29004W        W97334  20.687  18.582   0.433
29005W        W97335  13.840  36.415   3.331
29006W        W97336  15.744  43.338  12.902
29007W        W97337  32.033  26.024  12.945
29008W        W97338  43.976  41.458   2.712
29009W        W97339  29.943   7.308  11.892
29010W        W97340  18.750  40.478  11.978
29011W        W97341  17.705  19.073  14.954
29012W        W97342  34.423   4.860  11.110
29013W        W97343  13.346  41.482   4.670
29014W        W97344  11.780  39.971   2.407
29015W        W97345  11.758  26.007  13.051
29016W        W97346  20.044  31.063   1.917
29017W        W97347  35.414  20.266  10.972
29018W        W97348  34.067  27.982  13.421
29019W        W97349  39.328  12.765  11.887
29020W        W97350  28.088  36.921  11.028
29021W        W97351  17.619  26.123   9.646
29022W        W97352  21.588   2.784   3.663
29023W        W97353   0.272  26.178  14.309
29024W        W97354  13.297  20.561   3.829
29025W        W97355  44.400  28.665   3.697
29026W        W97356   8.169  25.651  10.581
29027W        W97357  26.018  18.099  11.418
29028W        W97358  42.857  27.995  14.975
29029W        W97359   0.442  24.676  14.344
29030W        W97360  41.356   6.761   2.779
29031W        W97361  34.115   4.872   1.217
29032W        W97362  11.831  19.079   0.293
29033W        W97363  13.180  42.486   4.703
29034W        W97364   4.290  15.801  13.343
29035W        W97365  34.012   1.844  14.888
29036W        W97366  13.748  26.970   0.940
29037W        W97367  14.304  12.696   4.680
29038W        W97368   3.837  16.212  14.835
29039W        W97369   0.937  28.048   4.293
29040W        W97370  42.988  42.461  12.082
29041W        W97371  12.669  31.956   0.309
29042W        W97372   8.275   9.706   4.696
29043W        W97373  14.777  33.619   0.731
29044W        W97374  26.007  25.214  11.468
29045W        W97375  26.638  40.813   0.291
29046W        W97376  34.921  11.648  13.001
29047W        W97377  26.651  42.000   1.300
29048W        W97378  11.269  11.721  14.472
29049W        W97379  12.834  16.078  12.386
29050W        W97380  24.985   0.856   1.723
29051W        W97381  29.167  28.668   2.417
29052W        W97382  21.607  25.554   4.680
29053W        W97383  10.763  36.421   2.181
29054W        W97384  33.617  15.177   1.727
29055W        W97385   9.320  11.633   3.865
29056W        W97386  10.650  42.963   4.669
29057W        W97387  36.558   2.241  14.434
29058W        W97388  37.955  23.077   2.332
29059W        W97389  32.974  15.102   1.923
29060W        W97390  34.873  43.991  10.577
29061W        W97391   9.760  41.420   2.378
29062W        W97392  22.541  30.478   5.604
29063W        W97393   3.247  11.225   2.352
29064W        W97394  37.546  41.895   2.806
29065W        W97395  17.775   0.930  14.511
29066W        W97396   5.802   8.743   3.810
29067W        W97397   6.328  31.976  13.811
29068W        W97398  30.524  30.416  12.048
29069W        W97399  11.659  32.013   4.651
29070W        W97400  10.637  36.465   2.826
29071W        W97401  36.377  38.369   3.240
29072W        W97402  27.691  25.996  10.916
29073W        W97403  33.064  30.935   1.428
29074W        W97404  11.647  13.708  14.378
29075W        W97405  37.403  32.397  11.518
29076W        W97406  11.333  39.391   2.783
29077W        W97407   1.268  33.881   2.273
29078W        W97408  41.356  14.189   0.406
29079W        W97409  29.981  30.924   3.279
29080W        W97410  16.610   5.735  13.421
29081W        W97411  33.394   3.222   0.733
29082W        W97412   1.308  40.514   2.216
29083W        W97413  12.329  25.630  11.504
29084W        W97414  22.173  40.416  13.987
29085W        W97415   8.883  21.091   3.702
29086W        W97416   8.274  24.998   5.320
29087W        W97417  23.035   8.693  10.004
29088W        W97418  21.752  40.363   1.418
29089W        W97419  37.084  21.108   4.183
29090W        W97420  40.502  25.683   1.431
29091W        W97421  43.286  10.156   3.256
29092W        W97422   8.725  25.620  11.066
29093W        W97423   2.351  31.508  12.532
29094W        W97424  42.957   4.351   3.375
29095W        W97425  15.176  10.303  12.036
29096W        W97426  11.204  38.995   3.852
29097W        W97427  27.952   9.241  14.823
29098W        W97428   3.810  29.664   2.248
29099W        W97429  16.134  16.756   2.717
29100W        W97430  44.902   3.757  10.458
29101W        W97431  34.115  17.085  10.935
29102W        W97432  40.994  18.631   1.444
29103W        W97433  25.192   2.343   1.342
29104W        W97434   3.726   7.716   2.792
29105W        W97435  33.586  34.583   5.098
29106W        W97436   4.236  24.666  11.035
29107W        W97437  29.983   9.156  12.431
29108W        W97438  13.232  26.630   1.932
29109W        W97439   6.268  29.988   3.863
29110W        W97440   9.247   8.223  13.484
29111W        W97441  41.969  19.760   4.122
29112W        W97442   4.316  32.556  13.308
29113W        W97443  17.104  16.793  13.862
29114W        W97444  12.707  25.121   1.386
29115W        W97445  15.168  14.625  10.586
29116W        W97446  18.546  24.509   2.898
29117W        W97447  40.385   2.299   2.290
29118W        W97448  14.615   7.415  14.458
29119W        W97449  33.991   6.840   4.749
29120W        W97450  31.506  38.357  12.826
29121W        W97451  34.973  39.044   2.252
29122W        W97452  32.515  25.193   5.292
29123W        W97453   9.871  18.161  12.885
29124W        W97454  32.504  12.768   2.299
29125W        W97455  18.553  12.755   3.366
29126W        W97456   5.375  11.188  12.357
29127W        W97457  10.687  17.557   1.324
29128W        W97458  19.207  14.289  14.849
29129W        W97459   7.202  41.834  12.938
29130W        W97460   3.809   6.264   0.883
29131W        W97461   4.232  38.463  13.402
29132W        W97462  44.458  23.730   0.291
29133W        W97463  16.615  29.486  10.430
29134W        W97464  15.603  22.553   1.382
29135W        W97465  25.709  41.531   4.597
29136W        W97466  27.617  20.686   0.944
29137W        W97467  35.056  28.606   1.866
29138W        W97468  36.384  23.643  10.571
29139W        W97469   8.663   8.846   3.276
29140W        W97470  21.516  22.186   4.778
29141W        W97471  14.308  29.048   2.714
29142W        W97472  37.545  32.395  14.776
29143W        W97473  25.201  13.712   4.197
29144W        W97474  37.456  34.386   4.602
29145W        W97475  41.418  16.627  12.910
29146W        W97476  40.860  44.969  12.880
29147W        W97477   0.964  35.570  13.389
29148W        W97478   7.174  20.239  14.770
29149W        W97479  22.641  11.368   2.416
29150W        W97480  40.799  12.199   4.317
29151W        W97481  23.195  34.435  12.576
29152W        W97482  18.232  15.259   1.304
29153W        W97483  35.561   7.891  14.838
29154W        W97484  15.131  30.577  14.337
29155W        W97485  30.469  13.302  13.009
29156W        W97486  26.129  33.892   2.355
29157W        W97487  37.012  18.075  13.864
29158W        W97488  32.596  32.981  14.786
29159W        W97489   1.798   2.424   3.671
29160W        W97490  37.494   3.856   3.175
29161W        W97491  44.895  34.014   0.265
29162W        W97492   2.376   8.383   4.224
29163W        W97493  39.458  15.304   3.161
29164W        W97494  36.058   4.905   4.245
29165W        W97495  34.475  13.736  13.892
29166W        W97496  21.057   3.285   3.317
29167W        W97497  39.999   8.735   0.329
29168W        W97498  13.224  40.482  14.919
29169W        W97499  42.806  12.799   2.199
29170W        W97500  44.502  25.963   2.693
29171W        W97501  29.465   9.163  14.804
29172W        W97502  16.154  12.661  12.823
29173W        W97503  35.110  22.736  14.478
29174W        W97504  13.725  30.619  12.983
29175W        W97505  43.001  19.166   0.430
29176W        W97506  13.771   9.795   4.629
29177W        W97507   5.258  22.661   0.874
29178W        W97508  34.469  18.153  13.474
29179W        W97509  34.607  13.778   1.898
29180W        W97510   4.257   5.315  11.009
29181W        W97511  43.403  10.719   3.735
29182W        W97512   8.673   0.401  13.024
29183W        W97513  31.018  25.525   2.179
29184W        W97514  17.647  36.954  10.639
29185W        W97515   9.194   9.254  13.341
29186W        W97516  30.096  37.435   1.808
29187W        W97517   3.773  18.677   1.394
29188W        W97518   0.373  22.166  11.050
29189W        W97519  11.257  41.961  10.940
29190W        W97520  14.768   3.903  14.772
29191W        W97521  17.154  26.103   9.622
29192W        W97522  20.605  15.143  14.377
29193W        W97523   6.840  16.801   2.871
29194W        W97524   6.899  43.962  13.966
29195W        W97525  15.129   2.296  12.948
29196W        W97526  28.131  36.982  12.490
29197W        W97527  16.119  16.769   3.765
29198W        W97528   6.705  35.523  13.416
29199W        W97529  35.889  31.998   0.816
29200W        W97530  12.125  40.526  12.521
29201W        W97531  40.403  13.339  11.127
29202W        W97532   9.320  32.057   4.130
29203W        W97533   0.977  16.632  11.496
29204W        W97534  12.726  44.321  13.906
29205W        W97535  36.522  44.479   1.349
29206W        W97536  27.137  19.601   3.837
29207W        W97537  13.329  17.095   5.084
29208W        W97538  16.775  22.025  13.364
29209W        W97539  28.946   5.692   3.745
29210W        W97540  22.139   3.411  11.432
29211W        W97541  36.554   5.899  11.922
29212W        W97542  38.329   6.259   1.300
29213W        W97543  40.404   3.925  10.968
29214W        W97544  21.532  19.086   5.168
29215W        W97545   8.865  33.470   1.326
29216W        W97546  25.614  31.944   2.707
29217W        W97547  19.742   2.240   3.771
29218W        W97548  28.572   2.466   0.792
29219W        W97549  39.905  22.654   1.882
29220W        W97550   9.648  32.923   4.200
29221W        W97551   8.847   2.358   0.850
29222W        W97552  39.005  44.982  11.454
29223W        W97553  11.331  42.894  12.929
29224W        W97554   6.865  37.516  14.297
29225W        W97555  12.637   1.931  11.928
29226W        W97556  24.088  26.600   3.302
29227W        W97557  14.219   7.909   0.353
29228W        W97558  31.525  13.744   2.743
29229W        W97559  26.616   9.385   0.281
29230W        W97560  10.202  15.127   1.404
29231W        W97561   7.814   5.385  14.334
29232W        W97562  21.549  10.688   0.308
29233W        W97563  31.090   3.732  10.941
29234W        W97564  33.529  25.064   2.667
29235W        W97565  33.418  43.354  13.367
29236W        W97566  42.499  43.837   4.138
29237W        W97567  13.674  42.447   1.805
29238W        W97568  38.372  44.821  11.032
29239W        W97569  37.414  38.070   3.313
29240W        W97570  23.016   4.817  12.928
29241W        W97571  17.793  24.042   2.858
29242W        W97572  34.117  30.588  12.411
29243W        W97573  16.768  41.951  13.052
29244W        W97574  17.801   0.364   3.730
29245W        W97575  34.896  36.041   4.757
29246W        W97576  21.734  35.986   1.378
29247W        W97577  18.774  40.882   4.328
29248W        W97578  38.495  19.055  10.505
29249W        W97579  28.102  10.843  13.444
29250W        W97580  28.680  23.226  12.089
29251W        W97581  14.268   6.289  11.946
29252W        W97582  39.831  23.656   1.926
29253W        W97583  20.179  29.655  14.378
29254W        W97584  44.322  13.177  12.945
29255W        W97585  15.675  17.220   4.328
29256W        W97586   0.269  40.309   3.247
29257W        W97587   6.211  29.622   4.206
29258W        W97588  42.874  28.600  11.088
29259W        W97589  21.116  40.952  13.958
29260W        W97590   0.409   3.380  14.004
29261W        W97591  11.353  37.536  12.574
29262W        W97592  16.590  44.836   4.235
29263W        W97593  19.128  24.518  13.794
29264W        W97594  11.828  24.225   4.258
29265W        W97595  41.042  38.351   1.425
29266W        W97596  32.982  40.961  11.903
29267W        W97597  20.527  30.928   9.499
29268W        W97598  40.804   4.860   1.298
29269W        W97599   7.736  15.329  11.862
29270W        W97600  25.034   3.738  11.522
29271W        W97601   4.888  21.086  12.021
29272W        W97602  24.575  23.726   4.767
29273W        W97603  26.556  34.103   1.218
29274W        W97604  29.546  26.616   2.684
29275W        W97605  22.727  15.804  10.539
29276W        W97606  14.236  37.050   2.234
29277W        W97607   2.398   7.172  11.048
29278W        W97608  33.069  35.071   0.854
29279W        W97609  18.096   1.880   2.863
29280W        W97610   4.401  26.585   2.285
29281W        W97611  19.176  41.801   0.352
29282W        W97612   5.327  19.662  10.586
29283W        W97613   1.840  42.974  11.501
29284W        W97614  43.874  10.800   0.781
29285W        W97615  37.082   3.918   0.825
29286W        W97616  21.203   8.354   3.184
29287W        W97617  13.742  30.960   1.332
29288W        W97618  23.208  19.699  13.347
29289W        W97619  18.100  40.841  11.940
29290W        W97620  27.031  10.207   4.750
29291W        W97621  34.889  28.065  12.976
29292W        W97622  31.990  16.808   3.843
29293W        W97623   2.739  24.143   2.384
29294W        W97624  37.875   7.740  12.409
29295W        W97625   5.428  15.230   2.744
29296W        W97626  35.920  36.859  11.376
29297W        W97627  10.805  30.117   3.857
29298W        W97628   2.265  20.124   1.695
29299W        W97629   9.279  37.840  12.341
29300W        W97630  10.223  42.956   0.944
29301W        W97631  19.627   1.923  12.398
29302W        W97632  33.448  35.435   4.113
29303W        W97633  35.363  31.634   2.758
29304W        W97634  15.310  30.415   3.348
29305W        W97635  24.108  26.656  12.053
29306W        W97636  33.990  22.096   4.166
29307W        W97637  31.423  39.895  10.998
29308W        W97638   4.822  25.089  10.535
29309W        W97639  30.449  36.462  12.051
29310W        W97640   4.265   2.277   3.639
29311W        W97641  29.641  33.928   3.863
29312W        W97642  18.568  22.730  13.058
29313W        W97643   2.803   5.737  10.993
29314W        W97644  36.906  12.224  12.073
29315W        W97645  13.310  42.390   2.318
29316W        W97646  28.600  34.100   1.785
29317W        W97647  40.875  27.055   1.803
29318W        W97648   1.947  18.727   3.747
29319W        W97649  44.851  39.062  14.032
29320W        W97650   5.864  37.566  11.544
29321W        W97651  41.844  30.651  13.389
29322W        W97652  12.741  43.417   0.248
29323W        W97653   7.714  33.020  12.835
29324W        W97654   7.911  22.205   2.787
29325W        W97655  29.521   3.847   4.750
29326W        W97656  18.082  10.334  11.382
29327W        W97657   9.687  16.616   1.423
29328W        W97658  41.966  30.993   0.419
29329W        W97659  31.935  39.956  11.085
29330W        W97660  38.473   6.817  10.414
29331W        W97661  20.553  31.568  10.559
29332W        W97662  14.592   4.821   9.962
29333W        W97663  29.620  26.191  10.998
29334W        W97664  38.065  36.866   3.655
29335W        W97665  26.031   5.894  13.314
29336W        W97666  11.211   3.353  10.139
29337W        W97667   8.338   3.908  10.426
29338W        W97668  22.058  36.574  13.989
29339W        W97669  24.552  20.084   0.794
29340W        W97670  32.476  18.266   2.873
29341W        W97671  36.439  38.007  14.354
29342W        W97672  20.576  33.542   3.693
29343W        W97673  40.966   0.388   2.296
29344W        W97674  37.920  29.127  10.430
29345W        W97675  38.455  19.716  11.508
29346W        W97676  28.977   4.923   3.227
29347W        W97677  29.608   5.342   1.283
29348W        W97678  10.666  25.676   3.716
29349W        W97679  27.112  39.443  14.845
29350W        W97680  10.683   1.257   4.672
29351W        W97681  25.108   4.340   1.776
29352W        W97682  43.817  18.283   0.931
29353W        W97683  34.117  18.282  13.043
29354W        W97684  18.264  35.917  11.091
29355W        W97685   1.796   0.802   2.809
29356W        W97686  29.983  39.868   2.727
29357W        W97687   2.885   6.242  13.336
29358W        W97688   8.839  25.133  12.341
29359W        W97689  44.452  16.570  11.043
29360W        W97690  33.415  42.973   4.249
29361W        W97691  11.705  27.175  11.959
29362W        W97692  23.168  37.948   2.743
29363W        W97693  30.508   1.833   1.719
29364W        W97694  39.812  29.647   2.865
29365W        W97695  41.389  28.182   4.333
29366W        W97696  35.885   0.860  12.075
29367W        W97697  31.546  27.176  14.984
29368W        W97698   6.696   0.302   4.188
29369W        W97699  41.511  43.969  14.370
29370W        W97700  38.064  27.086   1.346
29371W        W97701  16.073   9.646  12.970
29372W        W97702  38.077   4.781  10.532
29373W        W97703  27.546  42.958  12.921
29374W        W97704  33.977  27.968   0.897
29375W        W97705  12.331   9.202   3.802
29376W        W97706  18.626  10.725   0.346
29377W        W97707  32.040  24.592  11.868
29378W        W97708  43.856   1.887   2.825
29379W        W97709  35.016  36.383   2.367
29380W        W97710  16.195  30.063   2.888
29381W        W97711  27.012  37.569   3.808
29382W        W97712   3.330  26.546  13.821
29383W        W97713  37.921  39.920  12.462
29384W        W97714  14.817  41.943   2.786
29385W        W97715  10.256  23.602   4.728
29386W        W97716   1.404  16.157   0.306
29387W        W97717  41.443   5.860   3.770
29388W        W97718  41.923  27.484  14.409
29389W        W97719  18.710   4.842  12.491
29390W        W97720   1.316  19.559  13.806
29391W        W97721   3.909  29.165  10.024
29392W        W97722   8.667   8.366  13.008
29393W        W97723  32.905   8.249  12.380
29394W        W97724   2.788  10.875   2.238
29395W        W97725  15.755  44.380   4.276
29396W        W97726  30.631  13.135  10.939
29397W        W97727  23.111  25.107   0.887
29398W        W97728  37.940  24.199   3.237
29399W        W97729  20.746  27.534  10.044
29400W        W97730  44.973  18.088  14.944
29401W        W97731  27.530  11.133   5.195
29402W        W97732  42.963  22.072  10.610
29403W        W97733  10.252  39.942  14.972
29404W        W97734  41.501  13.638  11.443
29405W        W97735  34.055  35.411  11.945
29406W        W97736  27.075  44.812   2.737
29407W        W97737  42.789  41.831   3.629
29408W        W97738  23.009  32.032  12.563
29409W        W97739  33.586  19.777  12.540
29410W        W97740  24.195  12.835   2.867
29411W        W97741  27.961  23.075   2.183
29412W        W97742   9.832   1.475  14.510
29413W        W97743  36.556  24.508   4.329
29414W        W97744   6.684  41.404   2.411
29415W        W97745  25.512  27.102   0.366
29416W        W97746  26.094  10.687   1.384
29417W        W97747  18.209  20.082   3.284
29418W        W97748  34.456  39.910   4.828
29419W        W97749  40.811  38.854  12.505
29420W        W97750  43.946  22.702  10.927
29421W        W97751  25.016  12.724   2.260
29422W        W97752  15.601   7.255  11.927
29423W        W97753  35.463  31.463   1.426
29424W        W97754  14.602   7.204   0.411
29425W        W97755  11.718  26.498  12.854
29426W        W97756  43.012  25.541   1.439
29427W        W97757  23.565  43.341  10.532
29428W        W97758  31.545  23.115   5.721
29429W        W97759  20.679  44.469  10.133
29430W        W97760   1.874   2.309   2.373
29431W        W97761  19.582  41.886   2.809
29432W        W97762  14.621  43.297   2.270
29433W        W97763   1.299  36.490  12.829
29434W        W97764  37.959  28.935  11.086
29435W        W97765   2.754  23.491  14.281
29436W        W97766   9.869  20.137   3.863
29437W        W97767  44.769  44.849  14.343
29438W        W97768  17.698  14.814  11.513
29439W        W97769  36.881  40.544  12.028
29440W        W97770  43.799  16.707  12.858
29441W        W97771  26.659  21.745   3.203
29442W        W97772  16.235   0.332   1.891
29443W        W97773  20.624   1.404  14.845
29444W        W97774   7.865  11.785   2.240
29445W        W97775  17.795  37.465   4.281
29446W        W97776   9.807  12.183   1.827
29447W        W97777  10.286  28.169  12.910
29448W        W97778  31.009  19.284   0.409
29449W        W97779  13.147   0.743  11.916
29450W        W97780  32.575  30.953   0.944
29451W        W97781  35.509  24.044   0.881
29452W        W97782  20.537  36.507   0.452
29453W        W97783  37.478  33.489  10.641
29454W        W97784   4.828   5.844   3.225
29455W        W97785  10.732  44.844   1.318
29456W        W97786  29.479  41.449  12.914
29457W        W97787  21.052  14.696   1.873
29458W        W97788  13.737  13.701   2.266
29459W        W97789  44.836   3.926  13.502
29460W        W97790   4.351  24.565  13.515
29461W        W97791  27.126  36.487  13.946
29462W        W97792  17.668  44.890  11.053
29463W        W97793  39.847  31.417  11.479
29464W        W97794  31.083  28.987   1.221
29465W        W97795  33.938  43.968  11.490
29466W        W97796  44.828  12.651   1.230
29467W        W97797  21.205   3.378   2.267
29468W        W97798  34.054   0.833  13.926
29469W        W97799  33.493  18.710   2.741
29470W        W97800  26.982   0.378  12.390
29471W        W97801  20.160  13.656  11.051
29472W        W97802  37.945  42.388   0.943
29473W        W97803  41.942   6.396   1.879
29474W        W97804   5.210  33.929   1.364
29475W        W97805  10.173  21.114  11.072
29476W        W97806   9.323  38.057   4.662
29477W        W97807  19.095   7.245   4.633
29478W        W97808  25.975  23.006   0.848
29479W        W97809  40.304  11.790  11.935
29480W        W97810  38.040  34.536  10.975
29481W        W97811   1.341  17.616   2.301
29482W        W97812  31.959  25.518   2.414
29483W        W97813  42.920  43.377   3.721
29484W        W97814  22.044   4.794   0.267
29485W        W97815  10.854  18.597  14.811
29486W        W97816  24.993  41.521   1.370
29487W        W97817  32.556   1.309   1.324
29488W        W97818  14.821  14.205  10.551
29489W        W97819  15.098   0.844  10.595
29490W        W97820  25.526  25.693   4.717
29491W        W97821  39.448  23.984   0.323
29492W        W97822  21.263  17.193  13.416
29493W        W97823  14.589  18.544  13.416
29494W        W97824  26.694  30.130   0.301
29495W        W97825   8.682  16.179  14.432
29496W        W97826  15.214  21.518   2.701
29497W        W97827   2.956   7.827  14.028
29498W        W97828  17.679   1.295  10.966
29499W        W97829  24.572  29.096  11.025
29500W        W97830  30.534  27.165  11.095
29501W        W97831  34.422  20.163   1.799
29502W        W97832  26.666  38.499  14.830
29503W        W97833  37.838  19.623  11.041
29504W        W97834  41.380  44.299  11.116
29505W        W97835  40.532  44.349  12.093
29506W        W97836  13.759  32.567   0.276
29507W        W97837  38.366  14.272  14.988
29508W        W97838  10.288  13.781   4.170
29509W        W97839  18.665  31.130  12.389
29510W        W97840  14.128  31.628   4.196
29511W        W97841  32.100  23.018   2.272
29512W        W97842  12.239  31.407  12.505
29513W        W97843  39.048   2.738   3.167
29514W        W97844   3.805  30.073  11.594
29515W        W97845  13.151   5.891  12.428
29516W        W97846   6.708  16.127   3.694
29517W        W97847   8.273  18.676  11.477
29518W        W97848  10.252   0.271  14.331
29519W        W97849   7.744  35.899   4.271
29520W        W97850  12.178  27.625  12.857
29521W        W97851  41.433  40.859   1.863
29522W        W97852  23.156  18.755  13.499
29523W        W97853   8.690  27.679   2.736
29524W        W97854  13.204   1.322   1.296
29525W        W97855  44.298  39.989  13.882
29526W        W97856  27.628  41.347  10.967
29527W        W97857  26.626   9.233   5.709
29528W        W97858  36.893  36.068  14.801
29529W        W97859   2.819  17.577   1.298
29530W        W97860  20.273  38.011  13.395
29531W        W97861   8.192   2.301  12.533
29532W        W97862   4.218  14.206  10.451
29533W        W97863  30.106  15.322   3.704
29534W        W97864   3.317  17.711   3.306
29535W        W97865  30.072  43.926   1.316
29536W        W97866  14.139  41.483  11.885
29537W        W97867  22.009  27.482  13.324
29538W        W97868   5.248  33.955  10.499
29539W        W97869   7.395  32.901  10.996
29540W        W97870  36.923  38.842  14.387
29541W        W97871  17.233  34.920   2.270
29542W        W97872   3.940  33.923   1.820
29543W        W97873  42.971   4.903   5.288
29544W        W97874  36.874  28.941  11.384
29545W        W97875   8.860  21.666  14.438
29546W        W97876  17.666  19.724   4.634
29547W        W97877  22.225  23.045   4.116
29548W        W97878  14.722  40.003   2.336
29549W        W97879  12.232   4.888  11.915
29550W        W97880  43.965  25.974  14.815
29551W        W97881  26.184   6.246  14.921
29552W        W97882  20.207  23.734   4.165
29553W        W97883   9.727  44.822   3.798
29554W        W97884  20.232  16.214   0.394
29555W        W97885   2.903  42.920   4.179
29556W        W97886   0.386  28.969   2.711
29557W        W97887   9.712  28.520   0.406
29558W        W97888   5.280  44.893   3.371
29559W        W97889  17.081   3.906  14.457
29560W        W97890  17.281  41.803  14.982
29561W        W97891  11.179   8.785   2.860
29562W        W97892   8.796   2.390  11.129
29563W        W97893  43.394  27.690  11.488
29564W        W97894  34.506  38.017   0.783
29565W        W97895   5.924  19.148  14.482
29566W        W97896  39.412  41.324   0.269
29567W        W97897   1.315  40.349  12.568
29568W        W97898  41.516  23.075  11.874
29569W        W97899   4.216  36.024   3.747
29570W        W97900  26.110  33.880  12.021
29571W        W97901  35.566  43.286   1.338
29572W        W97902  11.158  32.033   1.314
29573W        W97903  30.026  19.665  12.973
29574W        W97904   1.417  30.962   4.787
29575W        W97905  21.117   2.815  13.420
29576W        W97906  39.057  34.522   4.675
29577W        W97907  31.026  16.200  13.839
29578W        W97908   1.391  22.680  14.494
29579W        W97909   2.365  33.593  12.990
29580W        W97910   4.740  26.480   0.347
29581W        W97911  21.671  12.318   0.354
29582W        W97912  44.958  19.719  13.400
29583W        W97913   2.763  33.422   3.314
29584W        W97914  21.069  29.034  11.985
29585W        W97915  40.346  22.569   4.837
29586W        W97916  42.977   4.838   0.851
29587W        W97917   4.777  29.655  10.562
29588W        W97918  36.858  34.979   1.234
29589W        W97919  33.589  29.504   1.932
29590W        W97920  23.208  29.457  10.968
29591W        W97921  14.251  27.104   2.205
29592W        W97922  44.477   8.783  14.406
29593W        W97923   0.278   5.697  14.393
29594W        W97924  17.303   6.901   2.754
29595W        W97925  32.118  28.985   1.237
29596W        W97926  32.526  19.637   2.253
29597W        W97927  33.904   4.769   1.773
29598W        W97928  40.308  29.560   3.807
29599W        W97929  33.986  17.204  12.080
29600W        W97930  15.147  38.839   0.731
29601W        W97931  31.931   4.395  12.402
29602W        W97932   7.777  37.506  10.012
29603W        W97933  12.756  13.836  13.427
29604W        W97934  43.998  40.495   0.453
29605W        W97935  14.198  34.468   0.957
29606W        W97936  22.711  11.314  13.821
29607W        W97937  25.185   7.199  11.098
29608W        W97938   1.369  24.675   2.254
29609W        W97939  41.408  10.788  13.501
29610W        W97940  13.284  29.553   2.303
29611W        W97941  25.506  31.448  10.444
29612W        W97942  25.148  20.067  14.002
29613W        W97943  16.615  41.494  11.605
29614W        W97944  42.498  30.944   2.902
29615W        W97945  29.560  13.739  10.638
29616W        W97946  24.161  20.266   1.277
29617W        W97947  19.729  35.009  14.765
29618W        W97948   9.277  29.535   2.821
29619W        W97949   3.305  33.011   4.667
29620W        W97950  26.620  38.018   0.950
29621W        W97951   5.687  42.359  12.054
29622W        W97952   6.353  42.841   4.776
29623W        W97953  18.218  30.985   0.845
29624W        W97954   1.340  16.240  10.616
29625W        W97955  11.639  21.044   4.236
29626W        W97956  42.964   7.910  12.978
29627W        W97957   1.754  15.794   0.424
29628W        W97958   1.865  33.130   2.778
29629W        W97959   6.810  12.828   4.215
29630W        W97960  42.855  34.460   1.765
29631W        W97961  19.234  11.278   2.903
29632W        W97962  44.467  30.967  14.477
29633W        W97963  24.116  43.931  10.631
29634W        W97964  30.483  37.459   5.299
29635W        W97965   6.396  36.012  10.514
29636W        W97966  40.420  32.510   2.710
29637W        W97967   9.876   9.677   4.621
29638W        W97968  39.338   5.420  14.936
29639W        W97969  22.602  16.224   4.192
29640W        W97970  26.579   5.888  12.356
29641W        W97971  16.599  39.358   0.464
29642W        W97972  26.198   8.675  10.099
29643W        W97973   5.689   8.889  12.536
29644W        W97974  14.643  17.172   0.328
29645W        W97975   0.293  19.557   0.472
29646W        W97976  25.686  35.863   3.709
29647W        W97977  29.039  15.281   0.368
29648W        W97978  24.032  13.648   1.334
29649W        W97979  11.647  36.089   1.805
29650W        W97980  33.514  16.174  11.990
29651W        W97981  43.360  31.950  10.458
29652W        W97982  17.760  10.264  11.959
29653W        W97983  32.984  28.075  13.906
29654W        W97984  33.586  35.407   0.441
29655W        W97985  40.514  30.122  12.872
29656W        W97986  32.591  13.724   0.363
29657W        W97987  28.442  44.860   2.703
29658W        W97988  26.083  16.103   2.727
29659W        W97989  26.505  33.996  11.569
29660W        W97990  19.152  20.037  11.390
29661W        W97991   0.434  32.121   4.690
29662W        W97992  26.000  10.190  11.097
29663W        W97993  41.335   3.266  14.327
29664W        W97994  32.390  17.656  12.051
29665W        W97995   8.832  41.433   0.293
29666W        W97996  19.735  18.601   3.728
29667W        W97997  35.496  28.165  14.417
29668W        W97998  15.747  17.119   1.343
29669W        W97999  33.083  17.684   4.836
29670W        W98000  15.726  26.473  12.030
29671W        W98001  37.866  37.911  11.567
29672W        W98002  29.617  34.914   4.621
29673W        W98003  13.628  15.684  14.933
29674W        W98004  15.220  36.522   2.240
29675W        W98005  12.823  32.595  10.561
29676W        W98006  15.816  10.243  13.951
29677W        W98007  12.791  15.129  11.502
29678W        W98008  36.478   3.302  11.481
29679W        W98009  22.219  23.554   3.255
29680W        W98010  21.621   4.894  10.927
29681W        W98011  27.970  42.905   2.746
29682W        W98012  35.565  31.099  13.803
29683W        W98013  33.413   5.296   1.919
29684W        W98014  43.906  38.026  14.875
29685W        W98015  44.762  22.683  14.963
29686W        W98016  40.922  37.426  13.364
29687W        W98017   8.683  25.630   4.279
29688W        W98018  37.396   2.794  11.501
29689W        W98019   9.689  37.543   4.713
29690W        W98020  35.364  31.406   0.754
29691W        W98021  20.179  27.131  14.911
29692W        W98022  14.180  37.001  10.068
29693W        W98023  15.188  33.017  13.920
29694W        W98024  16.769  15.322   0.258
29695W        W98025  34.924  28.535   4.203
29696W        W98026  30.599   6.882   1.406
29697W        W98027   3.877  21.202   2.238
29698W        W98028  12.677   4.739   1.280
29699W        W98029  26.606  25.532   4.324
29700W        W98030  13.749  14.783  11.107
29701W        W98031  21.519  21.602   4.752
29702W        W98032   3.295  37.507  14.511
29703W        W98033   8.340   8.305   4.713
29704W        W98034  25.707  26.033   2.223
29705W        W98035  31.105  29.990   1.844
29706W        W98036   1.260  25.047   3.692
29707W        W98037  34.986  11.314   1.366
29708W        W98038   5.377  24.124   4.170
29709W        W98039  26.689  40.981   4.341
29710W        W98040  28.041  18.635   4.187
29711W        W98041  12.116  42.482   0.371
29712W        W98042   2.429  38.072  11.498
29713W        W98043  41.853  24.619  10.628
29714W        W98044   3.231  17.265  11.448
29715W        W98045  32.022  19.568   2.301
29716W        W98046  34.437   7.312  13.522
29717W        W98047  15.092  34.595   0.739
29718W        W98048  24.681  22.244   0.770
29719W        W98049  28.436  20.737  12.490
29720W        W98050   3.421   1.901  13.357
29721W        W98051   0.282  23.695   2.716
29722W        W98052   9.737  10.853   4.770
29723W        W98053  43.901  11.677   1.403
29724W        W98054   6.749  20.151  13.061
29725W        W98055  35.012  36.047   5.219
29726W        W98056  37.904   1.884   1.272
29727W        W98057  30.546  34.010  14.789
29728W        W98058  27.075  25.513  14.401
29729W        W98059  24.497  13.673  13.817
29730W        W98060   4.403   1.836   4.229
29731W        W98061  14.109  24.494   4.761
29732W        W98062   4.232  17.669  13.815
29733W        W98063  12.134  32.495   0.812
29734W        W98064  15.246  24.066  12.891
29735W        W98065  25.078  29.442   3.710
29736W        W98066  40.379  27.575  14.389
29737W        W98067   7.274  27.172  12.890
29738W        W98068   9.689  27.144  12.421
29739W        W98069   0.884  17.700  10.463
29740W        W98070  26.640  42.872   0.423
29741W        W98071   4.300   8.181   1.273
29742W        W98072   8.834  31.047  12.539
29743W        W98073  25.524  12.735  14.355
29744W        W98074  18.142  36.038  13.334
29745W        W98075  18.668  40.412   3.755
29746W        W98076  21.693   4.358  12.863
29747W        W98077  23.991   1.259   3.225
29748W        W98078   1.269   8.386   2.855
29749W        W98079  13.275  34.055  12.061
29750W        W98080  16.569  33.498   4.333
29751W        W98081   3.419  40.856  10.415
29752W        W98082  30.583  29.008  12.343
29753W        W98083   1.260   2.322  12.863
29754W        W98084   3.899  44.872  11.895
29755W        W98085  43.005  25.962   1.751
29756W        W98086   8.781  21.250  12.906
29757W        W98087  29.444  32.590   1.286
29758W        W98088  29.444  14.814  13.995
29759W        W98089  34.010  17.746  14.942
29760W        W98090  22.700  42.369  10.982
29761W        W98091   6.262  17.163  11.430
29762W        W98092  13.802   4.842   4.687
29763W        W98093  27.613  19.062  13.979
29764W        W98094   9.709   5.863   3.316
29765W        W98095   9.814  30.049   0.287
29766W        W98096  32.099  37.502   1.245
29767W        W98097  31.548  19.624  14.922
29768W        W98098   5.919   3.276  10.476
29769W        W98099   2.409   7.761  13.918
29770W        W98100  27.582  31.647   4.224
29771W        W98101  37.035  44.350  11.959
29772W        W98102   5.695  37.066  13.017
29773W        W98103  37.935  19.697   4.201
29774W        W98104  12.828  42.456  11.425
29775W        W98105   0.878  33.999   4.744
29776W        W98106  40.386  19.763  13.027
29777W        W98107  12.746  12.328   1.882
29778W        W98108  13.331  26.659  12.360
29779W        W98109  38.364   3.807  11.897
29780W        W98110  25.481   2.274   3.683
29781W        W98111  15.749  28.098   0.832
29782W        W98112  19.665  21.071  10.961
29783W        W98113   8.843  29.151  10.465
29784W        W98114   0.325  27.072   0.861
29785W        W98115   7.398  44.910   0.463
29786W        W98116  29.930  40.507  11.948
29787W        W98117  30.108  36.347  12.579
29788W        W98118  36.964  24.200   2.835
29789W        W98119  34.910  32.970  12.402
29790W        W98120  16.209   3.323  13.308
29791W        W98121  12.345  40.943   2.867
29792W        W98122  25.601  27.949  14.472
29793W        W98123  20.667   1.895   2.224
29794W        W98124  23.633  17.753  13.908
29795W        W98125   4.291  38.969   3.149
29796W        W98126  27.007  41.851   2.866
29797W        W98127  21.586  19.607   0.781
29798W        W98128   5.783  44.482  11.118
29799W        W98129  19.642  39.516  12.914
29800W        W98130  24.122   0.338   0.947
29801W        W98131  11.239  44.349  10.529
29802W        W98132  28.486  29.953  13.827
29803W        W98133  18.601  30.442   2.229
29804W        W98134  35.359  41.395   1.775
29805W        W98135  10.214  32.079  12.484
29806W        W98136  29.007   4.297  11.437
29807W        W98137   9.781  31.034   4.714
29808W        W98138   5.306  34.384   3.720
29809W        W98139  18.161  37.914   2.382
29810W        W98140  32.392   4.408  10.506
29811W        W98141  38.896  15.679  12.388
29812W        W98142   4.784  14.254  12.880
29813W        W98143  19.702  24.146   4.327
29814W        W98144  19.095  22.731   1.878
29815W        W98145  44.900   9.184   2.409
29816W        W98146  42.286  39.344   2.362
29817W        W98147  38.852  25.687   3.223
29818W        W98148  16.682  13.787  13.393
29819W        W98149  33.623  24.229   1.358
29820W        W98150  40.339  29.481   4.742
29821W        W98151  38.541  15.306  14.911
29822W        W98152  36.026  23.583  14.377
29823W        W98153  11.203  25.657  14.493
29824W        W98154  28.947  24.598   4.621
29825W        W98155  42.409  20.229   1.925
29826W        W98156  26.042  35.856   4.121
29827W        W98157   9.859  43.807   1.232
29828W        W98158   8.831   1.940  11.393
29829W        W98159  32.421  13.337   3.382
29830W        W98160  22.185  25.142   2.891
29831W        W98161   1.258  20.057  14.322
29832W        W98162   7.904  14.675   4.314
29833W        W98163  14.710  22.097  11.022
29834W        W98164  16.606  33.080   1.781
29835W        W98165   5.752  18.785  12.518
29836W        W98166   4.889  31.129  11.513
29837W        W98167  36.440  14.275   4.731
29838W        W98168  36.460  30.457   5.155
29839W        W98169   5.291  14.635   2.205
29840W        W98170  13.205  31.973   1.723
29841W        W98171  26.040  28.158  14.325
29842W        W98172   6.860  16.318  12.426
29843W        W98173  19.232  43.858  12.371
29844W        W98174  19.169  19.623  12.872
29845W        W98175  10.838  43.475  11.879
29846W        W98176  42.988  20.088  12.372
29847W        W98177  23.704  11.332   3.337
29848W        W98178  10.280  29.013  14.332
29849W        W98179  11.220  12.779  11.041
29850W        W98180  26.469  15.737  13.460
29851W        W98181  36.544  23.071  12.949
29852W        W98182  25.598  19.698  12.347
29853W        W98183  10.369   6.239   1.242
29854W        W98184  37.965  33.493  14.392
29855W        W98185  26.684  35.468  14.507
29856W        W98186  37.879  23.033   3.712
29857W        W98187  41.902   5.772   1.243
29858W        W98188  10.749  12.137   1.451
29859W        W98189  21.039  16.144  11.899
29860W        W98190   5.221  31.634   4.827
29861W        W98191   3.906   4.917   0.769
29862W        W98192   2.458  32.082   1.727
29863W        W98193  44.368  10.229   1.401
29864W        W98194  37.429  22.538   5.148
29865W        W98195  28.511  27.621   4.205
29866W        W98196   8.253  16.600  10.521
29867W        W98197  42.480  27.000   1.858
29868W        W98198  14.316  43.342   4.229
29869W        W98199   8.177  43.945   3.861
29870W        W98200  19.690  37.088  12.500
29871W        W98201  41.946   4.911  11.009
29872W        W98202  39.427   2.405  12.400
29873W        W98203   1.320   8.778   0.447
29874W        W98204  23.221  29.042   2.835
29875W        W98205  29.640  10.740  13.817
29876W        W98206  22.151  44.819   2.360
29877W        W98207  33.508   4.305  11.080
29878W        W98208  31.998   7.185  12.058
29879W        W98209  37.978  12.756  10.494
29880W        W98210  13.205  42.424  11.896
29881W        W98211  37.385  30.051   3.662
29882W        W98212  13.309   7.688   0.337
29883W        W98213  33.093  24.225   1.258
29884W        W98214   6.786  42.309  10.456
29885W        W98215  33.509   5.845  11.403
29886W        W98216  26.486  29.542  12.046
29887W        W98217  30.452  25.585  14.891
29888W        W98218  31.927  23.538   3.686
29889W        W98219  35.441  10.743   2.178
29890W        W98220   0.479   1.415   2.314
29891W        W98221  26.540   3.245  13.970
29892W        W98222  40.377   9.305  13.465
29893W        W98223  17.800   6.720  14.404
29894W        W98224  23.042   1.435   2.793
29895W        W98225   0.362  40.403  10.642
29896W        W98226  29.436  43.413  12.499
29897W        W98227  41.342  28.981  11.463
29898W        W98228  13.322   5.270   3.175
29899W        W98229  39.987  28.087   4.697
29900W        W98230   9.298  28.598   3.769
29901W        W98231  16.683  12.742  14.509
29902W        W98232  24.120  22.061   0.912
29903W        W98233   9.366  18.225   2.880
29904W        W98234  15.751  31.151   0.294
29905W        W98235   9.283  37.953   0.799
29906W        W98236  42.489  15.607  10.488
29907W        W98237  30.643  33.906  11.962
29908W        W98238  42.526  10.772   1.780
29909W        W98239  24.997  16.215  13.489
29910W        W98240   9.862  25.115   0.819
29911W        W98241  22.067  33.419   0.368
29912W        W98242  13.679  16.681   1.779
29913W        W98243   3.870   5.212   3.634
29914W        W98244   3.841   5.295   2.212
29915W        W98245  28.559  33.012   0.941
29916W        W98246  18.082   9.318  10.552
29917W        W98247  23.159   9.755  11.932
29918W        W98248  24.124  12.131   4.351
29919W        W98249  24.481  36.441  11.964
29920W        W98250  19.100   3.952   3.756
29921W        W98251  15.721   1.417  10.418
29922W        W98252  20.622  44.892  12.918
29923W        W98253  10.155  25.709  13.352
29924W        W98254  40.306  15.312  13.488
29925W        W98255  10.198  37.359  11.909
29926W        W98256  29.458   5.436   2.832
29927W        W98257  30.978  37.874  14.956
29928W        W98258   8.186  28.164  12.034
29929W        W98259  33.586  37.074  14.821
29930W        W98260  14.323  35.468  11.577
29931W        W98261  21.203  30.051   5.107
29932W        W98262  29.139  18.596  14.948
29933W        W98263  37.032  35.854   4.611
29934W        W98264   0.962  19.631   3.358
29935W        W98265  31.109  27.641   3.683
29936W        W98266   5.747  42.948  13.801
29937W        W98267   4.757  25.167  10.027
29938W        W98268  28.936  32.584   3.673
29939W        W98269  40.920  43.971   3.240
29940W        W98270   7.299  20.757   3.311
29941W        W98271  39.029  41.999   2.273
29942W        W98272  18.287  17.223  14.847
29943W        W98273  31.149  15.698  11.506
29944W        W98274  32.442   8.244   0.367
29945W        W98275  44.975   4.409  14.474
29946W        W98276  24.669   5.395  11.867
29947W        W98277  29.995  35.581  12.542
29948W        W98278  12.797  28.595  12.885
29949W        W98279  28.930  34.495  13.874
29950W        W98280   8.665  44.486   4.125
29951W        W98281  14.103  40.528  13.322
29952W        W98282  39.969  16.686  11.398
29953W        W98283  18.682  34.457   4.270
29954W        W98284  40.935  44.801   2.812
29955W        W98285  30.489  42.855   1.820
29956W        W98286  37.377  20.131   2.247
29957W        W98287  43.015  41.342  13.857
29958W        W98288  35.389   2.367   4.679
29959W        W98289  40.524  35.092   4.832
29960W        W98290  43.765  10.220  12.442
29961W        W98291  13.686  15.321  10.945
29962W        W98292  28.487   3.941  13.832
29963W        W98293  20.654  19.762   9.493
29964W        W98294   3.915  24.561  13.368
29965W        W98295  25.596  25.975   4.782
29966W        W98296  21.126  18.625   1.765
29967W        W98297  24.179  22.130   0.255
29968W        W98298   3.300  24.059   5.315
29969W        W98299  27.085  38.903  13.887
29970W        W98300   1.892   6.364  10.498
29971W        W98301  16.809  34.389  13.876
29972W        W98302  10.380  10.696  11.912
29973W        W98303   2.240  11.624   1.265
29974W        W98304  43.765   9.652   1.352
29975W        W98305   2.404  37.401   4.309
29976W        W98306   1.968  26.060   2.390
29977W        W98307  12.732  16.228   0.433
29978W        W98308  21.142  39.530   0.759
29979W        W98309   3.265  38.890  10.950
29980W        W98310  36.852  17.625  14.453
29981W        W98311   4.285  26.627  13.942
29982W        W98312  28.462  21.211  11.060
29983W        W98313  42.282  30.093  13.813
29984W        W98314   0.796   2.736   3.264
29985W        W98315  16.076   0.322   1.373
29986W        W98316  21.031  32.134  14.331
29987W        W98317   2.268  23.177   2.316
29988W        W98318  39.521  22.232   1.723
29989W        W98319   4.238  14.261   0.783
29990W        W98320  19.279  32.566  11.036
29991W        W98321  42.902   4.844  10.961
29992W        W98322  41.346  18.587   0.958
29993W        W98323  34.007  14.589  12.831
29994W        W98324  24.108   5.409  12.934
29995W        W98325  28.573  23.203  11.449
29996W        W98326  33.919  43.914  12.953
29997W        W98327  29.136  12.304  12.870
29998W        W98328  34.394   8.761   1.848
29999W        W98329  18.589   9.837   4.689
30000W        W98330  36.884  21.050   2.395
30001W        W98331  29.464  17.707  12.832
30002W        W98332  17.761   4.887   4.195
30003W        W98333   3.290  16.175   2.319
30004W        W98334   9.834  20.561  14.811
30005W        W98335  11.310   0.398   0.322
30006W        W98336  37.005  18.206   4.712
30007W        W98337   2.331  25.218  13.497
30008W        W98338  17.608  28.047   4.811
30009W        W98339  33.477  39.979   1.722
30010W        W98340  35.470  41.972  13.918
30011W        W98341   3.731  34.382   1.217
30012W        W98342  40.797  39.061   3.629
30013W        W98343  43.878  39.879  11.468
30014W        W98344   2.889  25.119  13.805
30015W        W98345  17.722  15.645   1.413
30016W        W98346  10.179  41.362   2.283
30017W        W98347   7.219   7.682  11.992
30018W        W98348  14.823  39.013   3.207
30019W        W98349  39.551   6.691   0.862
30020W        W98350   7.413  44.290   2.872
30021W        W98351  40.540  28.568  10.413
30022W        W98352  15.127  15.704  11.977
30023W        W98353  20.551  21.104   1.365
30024W        W98354  33.422   9.849   4.210
30025W        W98355  15.744  33.396  10.503
30026W        W98356   0.444  25.482   2.773
30027W        W98357   2.433  10.655  13.039
30028W        W98358   1.432  44.812  10.940
30029W        W98359   4.765  26.639   4.171
30030W        W98360  35.083  18.644  14.319
30031W        W98361   2.288  32.048   0.849
30032W        W98362   5.836   3.845  12.380
30033W        W98363  22.583  33.112   2.203
30034W        W98364  20.066  27.160  14.487
30035W        W98365   5.865  20.548  11.459
30036W        W98366  21.035   9.838   2.795
30037W        W98367  34.902  18.622   0.404
30038W        W98368   1.861  25.694   3.316
30039W        W98369  17.084  23.560   4.607
30040W        W98370  39.415  12.126  14.446
30041W        W98371  40.878  10.650  13.983
30042W        W98372   1.893  32.010   0.374
30043W        W98373  39.494  44.416  14.493
30044W        W98374  33.588  13.260   3.803
30045W        W98375  35.572   4.728  10.012
30046W        W98376  29.603   1.311   3.647
30047W        W98377   1.808  34.465   4.258
30048W        W98378   6.750   8.672  11.128
30049W        W98379  34.871  44.433  11.065
30050W        W98380  30.466  19.142  14.830
30051W        W98381  26.593   8.659   4.810
30052W        W98382  43.899  32.047  10.414
30053W        W98383  11.760  25.682   1.399
30054W        W98384  30.085  23.050   4.300
30055W        W98385  15.317  30.591   0.796
30056W        W98386  24.085  24.041  14.879
30057W        W98387  16.312  17.716  11.914
30058W        W98388  20.038  20.720  10.645
30059W        W98389  23.645  20.182   3.851
30060W        W98390  21.713   9.703  11.926
30061W        W98391  33.502  19.285  10.638
30062W        W98392  31.529   4.712   3.648
30063W        W98393  27.160  18.230  12.447
30064W        W98394   4.922   4.923   4.156
30065W        W98395  21.241  34.522  14.353
30066W        W98396  14.620  40.985  10.485
30067W        W98397  31.054  26.602  11.125
30068W        W98398   4.789  19.660  11.378
30069W        W98399   4.376  37.431  11.511
30070W        W98400  18.738  21.228   2.855
30071W        W98401  10.227  10.261   2.838
30072W        W98402  15.111  15.811  10.635
30073W        W98403  15.748  10.842  12.402
30074W        W98404  10.208  10.187  11.889
30075W        W98405  31.061  43.923  11.487
30076W        W98406   9.301   9.754  14.929
30077W        W98407   1.849  33.102   0.483
30078W        W98408  25.130  28.478  13.015
30079W        W98409  43.465   7.791  10.413
30080W        W98410   0.785  38.980   2.408
30081W        W98411  15.202  34.396  10.544
30082W        W98412  37.914  26.641   3.269
30083W        W98413  19.119   3.877   4.725
30084W        W98414   8.899  38.958   3.385
30085W        W98415  14.115  25.485  11.938
30086W        W98416  12.157  17.713  13.494
30087W        W98417  16.157  12.847   0.849
30088W        W98418  21.247   9.188  12.865
30089W        W98419   4.896  18.164   2.860
30090W        W98420   4.755  42.928   2.827
30091W        W98421  11.150   0.464  12.436
30092W        W98422   4.271  20.100  10.947
30093W        W98423  24.001  23.521  14.405
30094W        W98424  24.150  12.289   0.812
30095W        W98425  41.935  31.029  12.356
30096W        W98426  19.150   2.386   0.880
30097W        W98427   2.940  25.542  11.539
30098W        W98428   3.261  18.693  14.506
30099W        W98429  40.344   3.369   2.662
30100W        W98430  21.117  34.504  10.064
30101W        W98431  25.632  29.502  12.401
30102W        W98432  25.608  33.626   0.379
30103W        W98433  13.121  28.469  10.962
30104W        W98434  42.004  29.042  12.930
30105W        W98435  37.573  40.955  12.452
30106W        W98436  25.110  44.763   1.239
30107W        W98437  43.431  22.693  14.360
30108W        W98438   0.264  27.550   0.891
30109W        W98439   4.432  37.916   0.818
30110W        W98440  18.715   3.237   1.810
30111W        W98441  28.443  11.785   3.812
30112W        W98442  39.852   7.406   2.757
30113W        W98443   7.358  13.629  10.623
30114W        W98444  37.975  37.578   4.814
30115W        W98445  29.434   1.896   4.790
30116W        W98446  41.365  14.649   0.946
30117W        W98447  11.622  11.639   9.933
30118W        W98448  25.040  16.257   3.300
30119W        W98449   9.656  35.368   1.298
30120W        W98450  32.466   6.225  10.113
30121W        W98451  22.222  26.030  13.817
30122W        W98452  27.545  21.634  14.286
30123W        W98453  32.566  19.728  11.088
30124W        W98454  24.493   7.744  12.552
30125W        W98455   6.848  17.127  12.957
30126W        W98456  23.027  21.052   0.305
30127W        W98457  15.305   0.434  12.404
30128W        W98458  30.139  23.567   0.391
30129W        W98459   1.897  26.681  10.498
30130W        W98460   7.716   4.391  13.512
30131W        W98461  25.993  43.994  12.502
30132W        W98462  15.591  15.199   3.634
30133W        W98463  34.610  30.467   2.884
30134W        W98464   7.405   8.281  12.023
30135W        W98465  14.688  31.134  10.568
30136W        W98466  23.594  20.576   0.244
30137W        W98467  24.627   5.357   0.347
30138W        W98468  43.498  22.193   0.905
30139W        W98469  11.799  14.648   2.823
30140W        W98470  20.699  14.821  12.841
30141W        W98471  38.927  31.574   4.789
30142W        W98472  19.265  34.074  10.987
30143W        W98473   8.234  11.705   1.765
30144W        W98474  27.687  34.936  14.031
30145W        W98475   2.440  18.193   1.933
30146W        W98476  33.026  39.387  13.548
30147W        W98477  35.900  33.484   4.252
30148W        W98478  44.290  22.019   1.836
30149W        W98479  26.506  30.143  11.872
30150W        W98480  14.642  12.302   1.922
30151W        W98481  22.996  34.398   3.359
30152W        W98482  23.045  10.189  14.857
30153W        W98483  40.958   7.302   3.785
30154W        W98484  44.414  44.996   4.605
30155W        W98485  32.070   8.753   4.229
30156W        W98486  21.581  20.032   9.665
30157W        W98487  25.019  23.586  14.482
30158W        W98488   7.273  43.841   4.125
30159W        W98489  44.478  11.852   3.332
30160W        W98490  14.142  28.992  14.490
30161W        W98491  15.588  13.672   1.901
30162W        W98492  29.584  21.754   4.165
30163W        W98493  17.118   1.893  13.361
30164W        W98494  23.614  41.031   4.635
30165W        W98495   3.710  40.023   1.869
30166W        W98496  27.105  23.050   3.192
30167W        W98497   1.887  17.121   2.354
30168W        W98498  32.084   9.792   0.366
30169W        W98499  25.489  39.481  10.488
30170W        W98500  17.072   3.387  11.934
30171W        W98501   6.910  22.572   3.849
30172W        W98502   9.329   0.338   0.425
30173W        W98503  39.545  11.636  13.329
30174W        W98504  13.611  25.574  14.773
30175W        W98505  28.527  17.752   2.699
30176W        W98506   9.241  24.607   2.778
30177W        W98507  43.275  10.694  11.564
30178W        W98508  11.177  30.966  10.419
30179W        W98509  36.059  32.495   4.772
30180W        W98510   3.317  37.400  14.975
30181W        W98511  14.279  39.811  12.487
30182W        W98512  40.429  43.448  10.504
30183W        W98513   9.792  26.951   0.824
30184W        W98514  36.512  10.302   1.698
30185W        W98515  38.390   2.287  10.615
30186W        W98516   5.205  18.164   2.866
30187W        W98517  20.028  23.179   3.296
30188W        W98518  42.506  13.739   0.408
30189W        W98519   8.893  37.912  10.479
30190W        W98520  37.900  26.479  14.312
30191W        W98521   4.770  43.818  10.472
30192W        W98522  23.564  18.547   1.698
30193W        W98523  10.151  43.310   4.675
30194W        W98524  19.574  37.358  12.022
30195W        W98525  18.669   5.851   0.732
30196W        W98526   1.392   2.456   0.851
30197W        W98527  28.985  27.050  11.489
30198W        W98528  38.884  41.463   2.378
30199W        W98529   7.204  41.897  14.403
30200W        W98530  19.199   9.651  12.547
30201W        W98531  24.489  10.811  12.020
30202W        W98532  23.116  29.136   2.249
30203W        W98533  15.194  30.022   4.207
30204W        W98534  14.167  27.156   1.325
30205W        W98535  29.594   7.202   4.351
30206W        W98536  42.862  38.953  14.029
30207W        W98537  10.642  42.996  13.452
30208W        W98538  29.027  17.132  11.511
30209W        W98539  27.641  21.036  10.605
30210W        W98540  23.162  28.494  10.902
30211W        W98541  40.464  29.500  13.837
30212W        W98542   9.878  44.917   2.839
30213W        W98543  23.561   0.266   2.301
30214W        W98544   0.912  13.198   4.798
30215W        W98545  24.155  29.459   3.283
30216W        W98546  33.607  32.474   0.388
30217W        W98547   4.450  20.766  13.010
30218W        W98548   6.868   5.746   4.796
30219W        W98549  41.496  43.770  13.983
30220W        W98550  43.840  24.657   0.426
30221W        W98551   8.717  41.511  14.322
30222W        W98552  40.327  30.415  11.064
30223W        W98553  36.902  20.087  12.846
30224W        W98554  18.685  23.544   0.324
30225W        W98555  14.733  12.744   0.850
30226W        W98556  34.103  31.999   2.714
30227W        W98557  29.137  40.912  11.590
30228W        W98558  28.006  42.826  14.409
30229W        W98559  17.675  34.968   1.884
30230W        W98560  32.501  32.550  11.590
30231W        W98561   8.815  35.423   3.288
30232W        W98562  12.223  37.439   1.911
30233W        W98563  25.972   5.907  13.885
30234W        W98564  33.064   8.791   2.900
30235W        W98565  18.724   6.913  13.524
30236W        W98566   6.856  26.053   1.919
30237W        W98567  17.682  15.638  12.990
30238W        W98568   3.288  44.932   1.298
30239W        W98569  13.309  25.599  12.517
30240W        W98570  27.140  42.958  11.888
30241W        W98571  26.659  27.633   5.250
30242W        W98572  31.995  25.187   1.385
30243W        W98573   2.388  22.203   1.819
30244W        W98574  10.344  22.716  13.045
30245W        W98575  14.136   9.167  14.292
30246W        W98576  43.381  39.837   1.922
30247W        W98577  31.569  23.713  11.485
30248W        W98578  19.594  38.347   1.862
30249W        W98579  27.526  24.581   0.469
30250W        W98580  36.474   9.313   4.832
30251W        W98581   2.805  30.972   2.805
30252W        W98582  18.191  25.152  12.431
30253W        W98583  31.418  42.496  13.433
30254W        W98584   4.779  23.594  12.565
30255W        W98585  10.676  32.958  13.447
30256W        W98586  26.997  36.901   2.179
30257W        W98587   9.852  32.513  14.493
30258W        W98588  36.443  29.474   2.247
30259W        W98589   0.490   5.308  11.549
30260W        W98590  14.165   1.254  13.400
30261W        W98591   6.822  28.679  12.883
30262W        W98592  24.672   0.823  14.868
30263W        W98593  20.138  20.585   4.233
30264W        W98594  34.886   8.246  12.945
30265W        W98595  21.024  34.383  12.829
30266W        W98596   2.245  29.564  12.056
30267W        W98597  43.299   1.953   2.728
30268W        W98598  18.781  28.063   9.954
30269W        W98599  37.563  17.696  12.509
30270W        W98600  16.766  25.640  11.382
30271W        W98601   9.678   6.914   0.958
30272W        W98602   7.794  17.640  10.486
30273W        W98603  21.212  21.609  14.387
30274W        W98604  44.810  35.485  12.036
30275W        W98605  38.837   7.316  11.533
30276W        W98606  12.216   2.280  14.297
30277W        W98607  20.613  10.657   4.122
30278W        W98608   8.855  20.229   5.132
30279W        W98609  24.529   4.868  14.912
30280W        W98610  34.108  41.310   1.830
30281W        W98611   2.404  18.251  14.929
30282W        W98612  41.314  16.802   2.778
30283W        W98613  30.097   6.781   3.738
30284W        W98614   3.364   8.181  11.075
30285W        W98615   5.923  26.052  11.901
30286W        W98616  42.881  43.345  11.443
30287W        W98617   4.748  36.372  12.453
30288W        W98618   5.738  35.923   2.672
30289W        W98619  33.030   4.368  11.559
30290W        W98620  41.523  40.800  12.472
30291W        W98621  19.538  39.974  10.915
30292W        W98622  26.165  37.010  14.515
30293W        W98623  41.511   4.447  11.434
30294W        W98624  23.133  22.575  11.081
30295W        W98625  39.022  39.456  12.571
30296W        W98626  15.247   3.712  13.473
30297W        W98627  34.510  16.726   2.389
30298W        W98628  32.595  33.536   0.458
30299W        W98629   9.189  28.485   4.805
30300W        W98630   3.859  33.558  11.863
30301W        W98631   8.658  25.194   3.222
30302W        W98632   2.732  24.625  12.447
30303W        W98633  42.814   5.292  14.956
30304W        W98634  44.767   0.869  13.435
30305W        W98635  42.002  36.023  14.440
30306W        W98636  39.453  21.641  12.849
30307W        W98637  43.908  37.970   0.945
30308W        W98638  11.128  19.670   4.322
30309W        W98639  36.855  11.632   1.361
30310W        W98640   7.846  16.264   0.790
30311W        W98641  22.741  39.957   2.774
30312W        W98642  15.269  27.669  14.327
30313W        W98643  11.177  44.303   1.767
30314W        W98644   0.758   8.260   2.341
30315W        W98645   0.846   0.413   3.174
30316W        W98646   0.756  13.664  11.605
30317W        W98647  41.415  22.209   3.247
30318W        W98648   1.733  44.856  10.636
30319W        W98649  26.957  36.862  14.841
30320W        W98650  25.029  37.417  13.307
30321W        W98651  33.505  42.301  12.842
30322W        W98652   1.913   8.360   0.768
30323W        W98653  30.519   8.356  10.931
30324W        W98654   1.930  30.595  12.949
30325W        W98655  11.806   3.395  11.603
30326W        W98656  35.412  18.789  13.045
30327W        W98657  24.168  26.978  11.025
30328W        W98658  18.248  22.648  11.927
30329W        W98659  26.584  22.719  11.379
30330W        W98660  38.876   5.738  10.107
30331W        W98661   6.698  13.774  13.478
30332W        W98662   4.415  20.631  10.590
30333W        W98663  25.661  31.148   0.277
30334W        W98664  41.897  17.655  12.459
30335W        W98665  26.603   4.236   4.721
30336W        W98666  35.580  42.901  10.993
30337W        W98667  20.129  40.046  11.591
30338W        W98668  17.307  22.209   1.750
30339W        W98669   2.918  15.680  11.471
30340W        W98670  33.385  11.737   3.682
30341W        W98671  13.242  26.024  13.016
30342W        W98672  10.298   4.391  12.954
30343W        W98673  14.775  15.688   1.823
30344W        W98674   1.261  40.399   0.372
30345W        W98675   4.731  44.915   2.683
30346W        W98676  17.241   6.222   4.658
30347W        W98677   4.410  14.303  13.853
30348W        W98678  41.823  24.158   0.335
30349W        W98679  28.147   2.292   4.184
30350W        W98680   4.807  31.919   0.401
30351W        W98681  29.540   2.375   4.304
30352W        W98682  14.226  33.126  13.441
30353W        W98683  29.484  33.472  13.819
30354W        W98684   7.349   7.854  11.578
30355W        W98685  12.180  20.239   3.859
30356W        W98686  24.108  13.758   2.782
30357W        W98687  35.944  14.235   4.259
30358W        W98688  13.333  34.053   2.367
30359W        W98689   0.851  27.073  13.791
30360W        W98690  44.829  16.713  13.886
30361W        W98691  25.034  20.071   3.170
30362W        W98692  39.834  22.007   1.280
30363W        W98693  34.491  39.324  13.860
30364W        W98694  34.381  44.957  11.416
30365W        W98695   2.342   4.735   0.425
30366W        W98696  15.728  39.848   4.698
30367W        W98697  10.663  40.038  10.433
30368W        W98698  17.774  41.884   0.309
30369W        W98699   5.698  35.063   0.853
30370W        W98700   9.852   6.298   2.871
30371W        W98701  36.978  19.272  14.357
30372W        W98702  23.219  17.706  11.390
30373W        W98703  13.312   6.210  13.968
30374W        W98704   6.222  14.182   2.676
30375W        W98705   7.177  20.034  10.500
30376W        W98706  35.464  17.114  14.998
30377W        W98707   5.813  24.584   3.672
30378W        W98708  23.064   3.883  11.092
30379W        W98709  19.630   7.357  10.922
30380W        W98710  31.899  29.552   3.793
30381W        W98711   5.862  19.691   4.734
30382W        W98712  15.270  19.636   3.642
30383W        W98713  44.889  26.125   0.768
30384W        W98714  10.708  33.054   2.218
30385W        W98715  31.078  16.258  10.563
30386W        W98716  28.172  11.314   2.861
30387W        W98717  14.176  41.894   1.848
30388W        W98718   3.293   4.766  14.012
30389W        W98719   0.430  41.921   4.622
30390W        W98720  10.162  27.580   4.783
30391W        W98721  28.575  25.196  11.537
30392W        W98722  14.255  25.219  11.478
30393W        W98723  41.020  36.880  14.509
30394W        W98724  12.339  22.538   2.820
30395W        W98725  34.991  32.112  13.884
30396W        W98726  44.902  40.988  11.111
30397W        W98727  38.560   2.780   3.681
30398W        W98728  16.678  14.771  13.003
30399W        W98729  17.172  26.491  13.338
30400W        W98730   9.348  15.752   3.749
30401W        W98731  40.976  31.506   2.393
30402W        W98732  20.250  22.531  10.582
30403W        W98733  15.633  42.383  10.634
30404W        W98734  10.322   9.187  11.529
30405W        W98735   2.729  15.603  12.442
30406W        W98736  13.723  20.730  11.897
30407W        W98737  43.408  35.080   0.838
30408W        W98738  21.189  18.110   3.853
30409W        W98739  21.161  17.142   0.753
30410W        W98740  35.368  14.308   3.815
30411W        W98741   3.838   1.842  10.986
30412W        W98742  43.500  33.972  14.983
30413W        W98743  43.971  34.382  12.965
30414W        W98744  23.050  11.726  13.397
30415W        W98745  33.071  26.957  12.935
30416W        W98746  19.758  44.266  14.010
30417W        W98747   8.358  18.258   0.951
30418W        W98748  21.591  30.970  14.490
30419W        W98749  22.517  28.571   1.404
30420W        W98750  18.181  12.359  12.834
30421W        W98751  34.492  33.576   0.425
30422W        W98752  41.007  44.920  11.032
30423W        W98753  33.586  30.640   1.303
30424W        W98754   0.867   4.855  11.395
30425W        W98755  25.525   0.887   4.788
30426W        W98756  21.131  19.212  11.578
30427W        W98757  17.080  19.109   1.253
30428W        W98758   2.344   3.303   4.182
30429W        W98759  20.575   9.794   1.246
30430W        W98760  32.995  21.744   0.839
30431W        W98761   8.901  13.783  10.512
30432W        W98762  17.797  18.265   1.868
30433W        W98763  41.042  36.375   4.789
30434W        W98764  16.716   0.983   3.329
30435W        W98765   5.254  20.096  14.866
30436W        W98766  29.459  32.971   4.628
30437W        W98767  11.226  39.902   4.651
30438W        W98768  43.813  13.666  12.481
30439W        W98769  16.681  37.016   2.820
30440W        W98770  29.156  14.771   2.828
30441W        W98771  26.474  36.968   2.365
30442W        W98772  33.936   6.372   0.735
30443W        W98773  21.170  42.981  10.160
30444W        W98774   5.880  38.991   2.882
30445W        W98775  41.397  29.483   1.364
30446W        W98776  36.048   4.264   0.830
30447W        W98777  30.650   1.294   1.738
30448W        W98778  19.693  29.143   1.315
30449W        W98779   3.934  42.947  14.381
30450W        W98780  31.982  32.429  11.579
30451W        W98781   0.818  13.734  13.821
30452W        W98782   4.852  32.443   0.907
30453W        W98783   6.267  37.517   3.295
30454W        W98784  35.406  15.665  14.380
30455W        W98785  24.611  44.958  12.065
30456W        W98786  25.042  24.990  14.810
30457W        W98787  43.815   8.396  11.124
30458W        W98788  27.575  40.385   3.691
30459W        W98789  21.695  20.231  13.035
30460W        W98790  24.683   5.727  12.898
30461W        W98791  38.969  12.722  10.460
30462W        W98792  26.062  24.693  14.904
30463W        W98793  18.183  33.499  14.906
30464W        W98794  11.780   5.900   3.317
30465W        W98795   3.341  21.524  14.503
30466W        W98796  34.538  23.102   0.337
30467W        W98797  43.307  16.269   0.262
30468W        W98798  40.822  11.699   1.403
30469W        W98799   3.345  35.559   2.864
30470W        W98800  15.660  17.291   5.099
30471W        W98801  17.784   7.736   3.185
30472W        W98802  41.437  21.101   2.325
30473W        W98803  13.213  43.303  10.913
30474W        W98804  17.074   1.316  11.116
30475W        W98805   1.478  33.484   2.899
30476W        W98806  19.704   1.457  14.923
30477W        W98807   8.255  44.939   4.200
30478W        W98808  13.730  44.799  14.022
30479W        W98809  33.978   8.898  14.499
30480W        W98810  42.509  37.469  11.613
30481W        W98811  32.024  30.102  12.483
30482W        W98812  36.426  20.085   0.931
30483W        W98813   3.925  44.431  12.363
30484W        W98814  22.549  36.021   1.442
30485W        W98815  27.039  42.791   2.690
30486W        W98816  29.514  19.065   0.483
30487W        W98817  31.455  16.184  13.320
30488W        W98818  31.042  44.782   0.826
30489W        W98819   7.675  40.902   2.758
30490W        W98820  12.320  10.361  11.100
30491W        W98821  15.798   9.883  13.402
30492W        W98822   8.836   6.794   3.313
30493W        W98823  10.741  36.582   4.678
30494W        W98824  36.563  44.861  10.896
30495W        W98825   6.704   1.782   4.210
30496W        W98826   5.427   1.282   4.610
30497W        W98827   5.810  26.151   2.180
30498W        W98828  28.114   1.734  10.627
30499W        W98829   8.798  43.380  13.321
30500W        W98830  35.044  37.884   3.661
30501W        W98831  24.478  43.346   0.244
30502W        W98832  26.182  27.467  13.323
30503W        W98833  23.198  42.959  13.886
30504W        W98834  42.424  37.457  10.636
30505W        W98835  43.981  11.796  10.902
30506W        W98836   0.792   1.401  14.514
30507W        W98837  37.935  41.027  13.007
30508W        W98838  38.949   1.457  12.025
30509W        W98839  13.806  28.180  12.966
30510W        W98840  15.327   8.896   1.863
30511W        W98841  13.129  23.712   0.381
30512W        W98842  29.617  22.699   3.808
30513W        W98843  30.942  32.558  13.490
30514W        W98844  39.025  38.842  13.985
30515W        W98845  20.143   2.344   4.808
30516W        W98846  29.608  19.621  10.538
30517W        W98847  43.362  31.101   3.733
30518W        W98848  31.454  15.655   4.278
30519W        W98849  24.981  42.989  12.510
30520W        W98850   6.831   1.466  14.917
30521W        W98851  14.825  13.267   3.262
30522W        W98852  37.367  44.435   4.666
30523W        W98853  25.050  29.642  14.310
30524W        W98854  30.445  33.557   1.443
30525W        W98855  31.137  17.756   3.349
30526W        W98856  29.958  27.190   3.180
30527W        W98857  30.502  44.469  14.866
30528W        W98858  30.041  42.920   1.430
30529W        W98859  25.532  25.587   3.739
30530W        W98860   0.462  18.092   0.346
30531W        W98861  17.190  24.480   3.272
30532W        W98862   4.404  36.010  10.094
30533W        W98863   1.365   3.739   1.356
30534W        W98864  30.501  39.964   1.724
30535W        W98865  29.951  44.845  11.861
30536W        W98866   0.942  37.473   2.300
30537W        W98867   5.734  43.795  12.938
30538W        W98868   7.398  39.536  11.017
30539W        W98869  40.322  31.998  11.383
30540W        W98870  34.874  20.049   4.805
30541W        W98871  43.351   5.352  12.967
30542W        W98872  30.471  37.881  14.994
30543W        W98873  26.509  33.534  10.433
30544W        W98874  20.694  12.314   4.268
30545W        W98875   2.876  31.511   4.132
30546W        W98876  32.010  35.084  10.971
30547W        W98877   5.353  35.043   2.391
30548W        W98878  22.714   0.435   2.717
30549W        W98879  25.618  15.784   3.685
30550W        W98880  15.321  34.402   3.261
30551W        W98881  24.200   4.285   2.838
30552W        W98882   2.773   6.235  14.284
30553W        W98883  32.971  24.699  12.522
30554W        W98884  12.122   8.331   0.751
30555W        W98885  11.183   2.873  12.045
30556W        W98886  31.460  21.084  13.441
30557W        W98887  43.284  20.662  10.409
30558W        W98888   9.194  38.971   1.227
30559W        W98889  34.062  29.101   0.265
30560W        W98890   0.837  24.226  14.981
30561W        W98891  42.958  36.951   1.370
30562W        W98892   5.746   4.338   0.480
30563W        W98893  41.414  18.246  13.051
30564W        W98894   2.441   1.941  11.068
30565W        W98895  22.624  40.920  10.907
30566W        W98896   3.786  28.180  11.012
30567W        W98897  16.116   0.968   1.817
30568W        W98898  44.348  27.641  14.361
30569W        W98899   6.761  35.549  12.342
30570W        W98900   5.426   8.763   2.840
30571W        W98901  36.898  32.587   4.280
30572W        W98902  10.312  35.895   0.248
30573W        W98903  10.144  41.829   3.170
30574W        W98904   0.257  18.744  14.990
30575W        W98905  25.635  23.053  11.005
30576W        W98906  18.296  15.665   0.800
30577W        W98907  19.258  28.672   0.293
30578W        W98908   1.760  11.268  14.459
30579W        W98909  35.393  40.468  11.422
30580W        W98910  14.781  40.043   0.244
30581W        W98911  40.371  32.503   1.432
30582W        W98912  44.411   8.362  12.013
30583W        W98913  23.564  37.392   4.711
30584W        W98914  30.561  26.203   3.229
30585W        W98915  14.801  12.235  14.864
30586W        W98916   2.885  23.044  14.487
30587W        W98917  20.559  23.201   3.806
30588W        W98918  38.876   7.849  10.157
30589W        W98919  33.996  44.786   0.319
30590W        W98920  12.204   9.690   3.222
30591W        W98921  18.612   9.771   2.336
30592W        W98922  37.419  40.920   0.328
30593W        W98923  40.304  21.611  13.463
30594W        W98924  41.368  39.011  14.447
30595W        W98925   9.165  15.579  11.065
30596W        W98926  31.479   6.805  13.463
30597W        W98927  21.071  24.531  13.950
30598W        W98928  27.496  38.433   1.805
30599W        W98929   4.226  21.642  13.504
30600W        W98930  20.756  27.539  11.462
30601W        W98931  28.614  39.912   2.800
30602W        W98932  12.676  30.128  13.832
30603W        W98933  30.980  14.794   4.346
30604W        W98934   5.930   7.204  11.128
30605W        W98935  23.074  33.921   1.223
30606W        W98936  11.720  33.971  13.999
30607W        W98937  19.084  31.056   0.888
30608W        W98938  11.311  10.691  11.129
30609W        W98939   7.769  28.534  10.416
30610W        W98940  37.992   3.730  14.304
30611W        W98941   2.405  34.383  14.818
30612W        W98942   9.694  34.447  14.462
30613W        W98943  34.419  32.928  11.919
30614W        W98944  43.423  36.565  10.546
30615W        W98945  30.108  15.787  14.802
30616W        W98946  43.459  19.046  13.860
30617W        W98947   6.727  31.131   1.867
30618W        W98948  14.602   1.925   2.205
30619W        W98949  39.414  12.842  12.992
30620W        W98950  14.186  37.389  13.888
30621W        W98951  20.594   0.355   2.827
30622W        W98952  16.168   6.238   0.885
30623W        W98953   4.865  12.157   0.294
30624W        W98954  26.993  11.724  12.460
30625W        W98955  18.734   6.779   3.803
30626W        W98956  12.774   4.336  10.525
30627W        W98957  15.123  21.057   3.646
30628W        W98958  38.891  11.814  12.924
30629W        W98959  21.709  38.869   0.342
30630W        W98960  10.865  42.995   1.754
30631W        W98961  32.614  33.089  14.450
30632W        W98962   5.731  10.870   2.842
30633W        W98963  27.562  10.294  12.359
30634W        W98964   3.778  12.164   2.748
30635W        W98965  19.581  39.849   3.313
30636W        W98966   9.666   4.266   2.417
30637W        W98967  26.183  10.223  14.916
30638W        W98968   6.891   7.798  12.402
30639W        W98969   2.337  29.172   2.780
30640W        W98970  20.112  43.926  10.484
30641W        W98971  18.670  24.197   0.378
30642W        W98972  26.139   3.380  14.445
30643W        W98973  28.532  24.119  11.931
30644W        W98974   8.660  37.055  13.015
30645W        W98975  34.573  29.497   1.914
30646W        W98976  24.125   5.403   1.386
30647W        W98977  12.691  42.905  14.877
30648W        W98978  14.716  31.023  10.950
30649W        W98979  18.553  38.536   4.819
30650W        W98980   7.337  37.899  13.032
30651W        W98981  31.915  22.652  10.559
30652W        W98982  27.515  29.475  12.359
30653W        W98983  18.544  31.639  14.022
30654W        W98984  30.937  32.102   2.337
30655W        W98985   2.724   4.837   3.633
30656W        W98986  40.510  14.106   5.307
30657W        W98987  10.278  34.998   0.255
30658W        W98988  14.153  14.259   3.670
30659W        W98989  37.876  32.592   0.761
30660W        W98990  17.749   3.383  13.323
30661W        W98991  21.063   1.850   9.986
30662W        W98992  11.185  38.821  12.446
30663W        W98993  15.588   0.312  14.467
30664W        W98994   5.918   2.913   0.935
30665W        W98995  20.094  18.663   2.811
30666W        W98996  24.230  27.037   4.679
30667W        W98997  14.723  28.964  14.803
30668W        W98998  13.645  21.047   2.346
30669W        W98999  10.193   0.276  14.840
30670W        W99000  31.521  24.694  14.764
30671W        W99001  36.993   2.466   0.343
30672W        W99002   8.694  32.502   2.206
30673W        W99003  27.972  26.200  12.481
30674W        W99004  21.149   3.763   4.217
30675W        W99005  32.075   3.401   0.284
30676W        W99006   0.323   4.339  13.904
30677W        W99007  33.426  42.838   1.328
30678W        W99008  44.802  42.802  11.504
30679W        W99009  34.089  16.673   1.897
30680W        W99010  21.681   9.863   0.263
30681W        W99011  17.754  42.006  13.990
30682W        W99012  15.735  11.360   9.924
30683W        W99013  35.073  22.056   2.378
30684W        W99014  31.117  17.695  10.592
30685W        W99015   8.303  44.406   2.741
30686W        W99016  22.229  15.189   3.304
30687W        W99017  33.879  41.902  10.496
30688W        W99018  17.068  40.335  10.909
30689W        W99019  38.504  12.329   2.252
30690W        W99020  19.678  19.769   3.776
30691W        W99021  26.485  16.603   2.695
30692W        W99022  19.153   3.776   0.749
30693W        W99023  36.949  30.508  11.526
30694W        W99024  31.038   2.749  10.535
30695W        W99025   7.206  43.874  12.348
30696W        W99026  25.105  23.172  14.792
30697W        W99027   9.310  21.682   2.785
30698W        W99028  20.582  24.592   2.698
30699W        W99029  30.115  26.529   0.838
30700W        W99030  40.443  27.031   2.410
30701W        W99031  43.273   1.927   0.337
30702W        W99032  15.249  35.888  11.895
30703W        W99033  32.604  40.845   1.451
30704W        W99034   3.349   3.725   2.750
30705W        W99035   1.919  23.518  11.962
30706W        W99036  36.537   3.334   2.819
30707W        W99037  42.299  16.210  14.940
30708W        W99038   7.326   5.224   3.761
30709W        W99039  32.557  24.218   0.783
30710W        W99040  34.931  15.730  11.970
30711W        W99041  32.471  20.048   2.716
30712W        W99042  16.180  21.063  13.385
30713W        W99043  15.307  44.420   1.389
30714W        W99044  29.567  40.859   2.715
30715W        W99045  12.222  19.720  14.431
30716W        W99046  21.711  37.507  13.328
30717W        W99047  20.099  24.495   3.857
30718W        W99048  28.979  28.105   4.822
30719W        W99049  13.154   3.459   1.434
30720W        W99050   9.678  38.486  14.824
30721W        W99051  28.570  34.601   0.482
30722W        W99052  12.187  22.100  14.450
30723W        W99053  20.169  43.914   2.871
30724W        W99054  20.064   7.671   5.715
30725W        W99055  17.572   9.665   4.628
30726W        W99056  40.363  15.258  10.915
30727W        W99057  41.400  36.937  12.918
30728W        W99058  42.873  39.400   2.839
30729W        W99059  27.619  24.067  13.382
30730W        W99060  36.357  22.172   1.294
30731W        W99061  40.882   0.493   1.846
30732W        W99062  44.890   9.838  12.850
30733W        W99063  34.916  28.487  13.386
30734W        W99064  32.966  28.597  14.414
30735W        W99065  36.845  27.969   3.261
30736W        W99066  20.100  32.944  12.531
30737W        W99067  40.928  38.536  12.576
30738W        W99068  24.503   0.319  14.506
30739W        W99069  15.628  11.157   2.370
30740W        W99070   7.316  27.042   2.321
30741W        W99071  25.704   1.902  13.323
30742W        W99072  32.575  20.608   4.306
30743W        W99073  24.701  28.168   4.607
30744W        W99074  13.820  39.506  13.997
30745W        W99075  32.988  37.476   1.330
30746W        W99076  24.152  14.693  14.422
30747W        W99077  14.290   5.363   0.347
30748W        W99078  14.786  34.563   1.749
30749W        W99079  14.738   8.291   2.389
30750W        W99080  41.813  42.921   1.707
30751W        W99081  21.195   1.388  13.050
30752W        W99082  43.290  14.251  13.494
30753W        W99083   1.322   5.901   4.149
30754W        W99084  31.431  21.648  10.495
30755W        W99085  22.682  14.739   4.204
30756W        W99086  36.999  28.660  14.422
30757W        W99087  27.123  37.531  14.309
30758W        W99088  29.522  36.383   3.857
30759W        W99089  36.520   8.309   2.340
30760W        W99090  39.925  38.828   4.730
30761W        W99091   8.689  24.197  14.974
30762W        W99092  23.501  37.420  11.603
30763W        W99093   1.417  41.479   3.224
30764W        W99094  38.893   9.359   1.730
30765W        W99095  22.686   6.275  11.038
30766W        W99096  44.985   0.461   1.717
30767W        W99097  24.089   8.715   3.804
30768W        W99098  33.547   7.887  13.861
30769W        W99099  25.968  38.925  11.042
30770W        W99100  23.617   3.748   3.714
30771W        W99101   1.326  10.212  13.422
30772W        W99102  20.690   6.845  12.961
30773W        W99103   3.760  16.800  11.610
30774W        W99104   4.345  13.798   3.284
30775W        W99105  32.017  44.411   0.249
30776W        W99106  18.105   0.778   2.804
30777W        W99107   4.783  38.072   0.427
30778W        W99108  24.624  44.888   1.702
30779W        W99109  41.329  14.212   1.381
30780W        W99110  10.286  12.776   2.834
30781W        W99111   3.216   9.742   3.726
30782W        W99112   5.779  12.704  13.512
30783W        W99113  16.226  30.614  10.475
30784W        W99114  22.660  41.804   2.750
30785W        W99115  13.630  16.632  12.512
30786W        W99116  16.657   7.370   2.354
30787W        W99117   6.778  10.333   2.380
30788W        W99118  12.162  29.125   0.433
30789W        W99119  30.639  34.008  12.486
30790W        W99120  30.464  10.258   0.872
30791W        W99121  20.565  12.162  11.461
30792W        W99122  41.886  29.540  14.394
30793W        W99123  16.630  25.504  10.588
30794W        W99124   4.339   6.908   2.390
30795W        W99125   3.921   3.406  13.980
30796W        W99126  34.383   7.872  14.321
30797W        W99127   6.890  21.552   3.733
30798W        W99128  26.471   5.897  11.973
30799W        W99129  24.041   1.404  12.544
30800W        W99130  16.749  33.522   1.785
30801W        W99131  35.512  27.639   1.240
30802W        W99132   6.418  38.511  10.453
30803W        W99133  40.432  38.851   9.993
30804W        W99134  32.024  23.635  13.015
30805W        W99135  10.313   8.296  12.072
30806W        W99136  13.807  24.721   1.405
30807W        W99137  44.363  10.248   1.780
30808W        W99138  31.471  29.438   0.963
30809W        W99139  34.960  25.038  11.017
30810W        W99140  19.145  20.050  11.014
30811W        W99141  11.757  23.160   1.262
30812W        W99142  31.070  41.944   2.855
30813W        W99143  33.984   2.762  10.550
30814W        W99144   9.796   9.343  12.008
30815W        W99145  42.352   8.833   4.717
30816W        W99146   3.289   0.344  11.420
30817W        W99147  42.886   9.681   1.849
30818W        W99148  36.916   5.744  12.547
30819W        W99149   9.851  42.333   4.125
30820W        W99150  42.793   4.314  13.389
30821W        W99151  42.388  36.413  13.986
30822W        W99152  11.170  43.010  12.543
30823W        W99153  20.678  23.210   2.888
30824W        W99154  18.136   1.862  12.063
30825W        W99155  26.026  42.797   3.737
30826W        W99156   7.850  27.130  10.426
30827W        W99157  13.232  28.480   2.214
30828W        W99158  16.609  42.467  11.968
30829W        W99159  12.680  30.039   0.819
30830W        W99160  36.465  42.943   9.945
30831W        W99161  33.950  22.720   0.300
30832W        W99162  23.537  28.471  12.453
30833W        W99163  29.440  41.505   3.336
30834W        W99164  31.561   8.219  13.029
30835W        W99165   5.793  28.449  13.418
30836W        W99166  43.014  12.160   2.306
30837W        W99167  21.649   0.754  12.969
30838W        W99168  23.241  38.456  12.074
30839W        W99169  15.280   8.788   1.429
30840W        W99170  12.254  28.098  13.015
30841W        W99171  32.612  41.527  12.524
30842W        W99172  37.904  29.598  14.976
30843W        W99173  26.055   1.836   3.710
30844W        W99174  30.585   1.290   3.230
30845W        W99175  37.952  11.629   4.272
30846W        W99176  23.537  29.052  12.965
30847W        W99177  41.474  38.892  12.900
30848W        W99178  36.086  17.108   4.816
30849W        W99179  24.178  26.460  14.431
30850W        W99180  44.923  18.253   1.315
30851W        W99181   0.775   6.223  10.636
30852W        W99182  11.188  24.983   0.938
30853W        W99183  15.787  40.440   4.806
30854W        W99184  12.689  38.032   4.353
30855W        W99185  27.148  15.294   3.692
30856W        W99186  31.618   5.220   1.819
30857W        W99187  39.904  15.290   1.713
30858W        W99188   0.318  21.038  13.384
30859W        W99189   9.208  27.138   1.301
30860W        W99190  19.567   1.881  13.457
30861W        W99191  24.703  10.645  12.896
30862W        W99192  20.057  30.620   3.643
30863W        W99193   4.809  28.968  11.595
30864W        W99194  32.434   4.879   1.850
30865W        W99195  24.975  35.521  13.029
30866W        W99196  23.538  38.822  11.936
30867W        W99197  37.891   6.194  11.499
30868W        W99198  22.152  23.051   1.446
30869W        W99199   5.201  38.465   5.590
30870W        W99200  40.358  38.376   0.737
30871W        W99201  29.931  39.341  11.508
30872W        W99202  26.188  37.522  13.053
30873W        W99203   1.273  36.057  14.445
30874W        W99204   7.829  25.219   5.154
30875W        W99205  15.748  23.707   5.102
30876W        W99206  36.591  24.212  10.561
30877W        W99207   8.198  29.455  13.026
30878W        W99208  25.159  35.860   4.113
30879W        W99209  24.707   6.389  14.380
30880W        W99210  24.688  24.533   4.325
30881W        W99211   1.964  31.120   1.779
30882W        W99212  20.085  33.540   3.214
30883W        W99213  43.310   1.867  11.376
30884W        W99214  22.208   1.358  14.365
30885W        W99215   4.394  29.037  12.505
30886W        W99216  33.441  13.603   0.264
30887W        W99217  32.428  11.843   0.297
30888W        W99218  33.580  38.565  10.902
30889W        W99219   6.784  11.198  11.033
30890W        W99220  31.424  12.325   0.252
30891W        W99221   7.234  30.594  13.034
30892W        W99222  35.101  17.225   3.318
30893W        W99223  26.088  34.938  10.927
30894W        W99224  25.641  41.371   2.879
30895W        W99225  22.734  35.000  11.111
30896W        W99226  41.876  18.117   2.287
30897W        W99227  31.960  39.936   4.717
30898W        W99228  11.776   5.889   2.316
30899W        W99229  23.561  14.809  12.901
30900W        W99230  18.620  17.647  13.484
30901W        W99231   0.895  24.495   0.356
30902W        W99232  21.702  31.477   1.223
30903W        W99233   1.883  13.183  12.518
30904W        W99234  12.779   7.174  10.971
30905W        W99235  35.500  19.634   3.696
30906W        W99236  13.782  17.606   4.192
30907W        W99237  27.965  44.260   1.749
30908W        W99238  15.691   3.830  13.545
30909W        W99239  24.118   6.404   3.867
30910W        W99240  27.942  27.682  10.588
30911W        W99241  22.243  16.742  13.887
30912W        W99242  15.619  10.793   1.901
30913W        W99243   6.296   0.756  13.832
30914W        W99244  29.560  16.763  14.409
30915W        W99245   1.408  15.755  10.472
30916W        W99246  36.550  31.599  13.394
30917W        W99247  24.527   6.299   2.876
30918W        W99248  26.151   7.408   0.393
30919W        W99249   3.322  28.929  13.796
30920W        W99250  14.590  32.088   3.692
30921W        W99251  13.798  35.366  13.045
30922W        W99252  39.332  17.577   1.742
30923W        W99253  16.085  10.851   1.404
30924W        W99254  21.713  43.304  10.633
30925W        W99255  32.096  23.692   0.781
30926W        W99256  39.370  40.990  11.534
30927W        W99257  37.837  38.515  10.943
30928W        W99258   9.784  42.299   4.661
30929W        W99259  25.691  40.488  11.856
30930W        W99260  21.656  28.061   2.711
30931W        W99261   3.921  35.106   4.814
30932W        W99262  17.712  15.597  11.950
30933W        W99263  26.618  36.437   3.795
30934W        W99264   1.413   6.901   4.237
30935W        W99265  30.962   1.938   9.920
30936W        W99266  17.115  12.355  12.410
30937W        W99267  18.233   2.258   4.278
30938W        W99268  37.944  25.145   5.305
30939W        W99269  38.054  33.057   0.343
30940W        W99270  27.133  26.565  13.459
30941W        W99271  16.783  14.713  13.347
30942W        W99272   8.355  26.047  10.890
30943W        W99273  24.173  11.654   2.266
30944W        W99274   6.357   7.867   2.411
30945W        W99275  23.037  43.431   0.738
30946W        W99276  43.271   0.329  13.030
30947W        W99277  18.623  37.074   3.867
30948W        W99278  35.596  19.588  11.104
30949W        W99279   3.809   9.275  12.391
30950W        W99280   5.702  27.555  11.535
30951W        W99281  31.968  39.438  10.615
30952W        W99282   3.253   6.399  12.879
30953W        W99283  28.998  38.388   3.159
30954W        W99284  44.902  43.905  12.042
30955W        W99285  20.715  11.269  14.873
30956W        W99286  41.360   0.402  13.020
30957W        W99287  33.482   5.303  12.442
30958W        W99288  36.013  15.770   2.706
30959W        W99289   5.746   3.917   0.922
30960W        W99290  40.972  29.009   4.271
30961W        W99291  21.714  44.455  11.551
30962W        W99292  15.216  10.689   1.837
30963W        W99293  40.545  33.461   3.206
30964W        W99294  32.985  39.414   3.779
30965W        W99295  44.501   2.861  13.909
30966W        W99296  32.895  39.545   1.244
30967W        W99297  15.602  19.187   0.445
30968W        W99298   1.295  12.316  11.397
30969W        W99299  22.012  28.458   4.259
30970W        W99300  20.688  38.482  12.497
30971W        W99301  29.555  39.002   2.854
30972W        W99302   1.444  11.155  14.870
30973W        W99303  42.445   8.183   3.243
30974W        W99304  35.967  23.003  12.553
30975W        W99305  33.527   1.394   1.701
30976W        W99306   7.791   5.311  13.379
30977W        W99307   2.913  23.192   0.343
30978W        W99308  13.703  30.949   4.251
30979W        W99309  30.988  27.685  11.494
30980W        W99310  32.438  30.492   4.791
30981W        W99311  42.464  19.739  13.811
30982W        W99312  20.196  42.402  10.920
30983W        W99313  11.256  34.013  13.450
30984W        W99314  18.219   8.396  13.335
30985W        W99315  19.635  35.906   2.743
30986W        W99316   1.304  25.653   1.418
30987W        W99317  32.932  22.711   1.325
30988W        W99318  34.112  38.545   4.641
30989W        W99319  18.178   7.829  13.945
30990W        W99320   1.863  27.092  13.022
30991W        W99321  31.934  42.792  10.154
30992W        W99322  41.340  12.138  12.009
30993W        W99323  13.120   0.838   3.681
30994W        W99324  17.744  11.705   0.357
30995W        W99325  26.975  42.443   1.316
30996W        W99326   1.249   8.272  11.389
30997W        W99327  44.863  16.773  14.336
30998W        W99328   5.780  28.014   3.670
30999W        W99329   5.205  34.984   3.167
31000W        W99330  41.304  28.455   2.224
31001W        W99331   1.377  42.484  14.864
31002W        W99332  31.420  29.944   0.827
31003W        W99333  23.181  24.709  10.602
31004W        W99334  33.437  36.985   5.174
31005W        W99335  22.693   3.258  14.509
31006W        W99336  17.232  29.086   1.302
31007W        W99337  19.111  38.421  13.430
31008W        W99338  30.589  26.027  10.423
31009W        W99339  23.218  28.057  14.396
31010W        W99340  22.134  13.281   3.750
31011W        W99341  28.008  29.635  14.426
31012W        W99342  39.048  42.902   4.309
31013W        W99343  29.485  41.305   2.348
31014W        W99344   8.178  24.992  11.453
31015W        W99345  39.351  14.227  11.429
31016W        W99346  22.241  28.945   9.946
31017W        W99347   8.774  19.722  13.058
31018W        W99348  31.945  20.541  12.899
31019W        W99349   5.906  27.997  11.512
31020W        W99350  31.091   6.329  10.607
31021W        W99351  10.207   8.858  14.848
31022W        W99352  32.019   3.886  12.033
31023W        W99353  35.517   9.270  13.399
31024W        W99354  29.145  25.050  14.867
31025W        W99355  19.176  34.914   3.166
31026W        W99356  30.944  24.180  11.485
31027W        W99357  34.418  23.645   2.188
31028W        W99358  33.959  38.029  13.833
31029W        W99359  28.938   8.392   2.719
31030W        W99360  19.071  17.579  10.139
31031W        W99361  27.081   5.271   4.637
31032W        W99362   2.768  42.969  12.944
31033W        W99363   8.221  18.626   1.694
31034W        W99364  29.449  42.926   9.977
31035W        W99365  31.495  44.409   4.170
31036W        W99366  10.699  35.062  10.969
31037W        W99367   3.281  41.446  11.057
31038W        W99368  27.987  19.104   0.926
31039W        W99369  34.089  43.823  14.435
31040W        W99370  35.560  12.712   0.806
31041W        W99371  15.797  14.700  13.486
31042W        W99372  34.562   5.916   1.283
31043W        W99373  41.043   5.318   3.376
31044W        W99374  27.536  15.131  14.898
31045W        W99375  15.633  22.219  13.876
31046W        W99376   4.266  25.487  14.947
31047W        W99377  29.471   4.845   5.181
31048W        W99378  40.833  20.645  11.373
31049W        W99379  12.658  23.144   4.194
31050W        W99380  29.447  44.986   1.931
31051W        W99381  41.993  15.277  12.577
31052W        W99382  31.553  31.899   2.336
31053W        W99383  34.942   3.387  13.896
31054W        W99384  33.018  16.314  10.982
31055W        W99385  10.347  38.475  13.867
31056W        W99386  38.549   6.292   1.910
31057W        W99387   7.906  38.029   4.282
31058W        W99388  30.626  10.247   4.666
31059W        W99389  35.383  42.390   3.670
31060W        W99390  25.156   9.381  12.528
31061W        W99391   1.843  10.824   3.315
31062W        W99392  18.715  40.498  11.082
31063W        W99393  12.210  21.540   4.697
31064W        W99394  28.081   1.240  10.021
31065W        W99395   9.193  12.744   3.339
31066W        W99396  18.673  16.167  11.878
31067W        W99397  28.496  21.221  12.472
31068W        W99398  34.432   4.748   4.720
31069W        W99399  31.117  43.885  14.280
31070W        W99400  26.068  25.215  14.316
31071W        W99401  28.122  39.973  14.887
31072W        W99402   9.833  41.504   3.859
31073W        W99403  20.674  36.518  14.884
31074W        W99404  15.787  41.816   2.181
31075W        W99405   3.855   0.368   3.856
31076W        W99406  29.558  39.862   0.806
31077W        W99407  10.289  40.805   1.342
31078W        W99408  21.159  42.897   3.830
31079W        W99409  27.025  34.000   4.151
31080W        W99410  24.493  17.124  12.078
31081W        W99411   4.806  38.369   0.360
31082W        W99412   9.252   4.267  11.957
31083W        W99413  26.468  25.028  14.763
31084W        W99414  44.343  25.149  13.318
31085W        W99415  11.272  44.763   1.748
31086W        W99416  15.735  14.686   3.705
31087W        W99417  32.923  37.559   3.288
31088W        W99418   0.925   0.799  11.543
31089W        W99419  14.271   3.323  14.515
31090W        W99420  32.409   2.836   0.786
31091W        W99421  15.100  10.638  12.008
31092W        W99422  31.067   6.878   0.331
31093W        W99423  36.471  25.005  10.071
31094W        W99424  28.145  15.688  10.059
31095W        W99425   1.888  13.776  10.962
31096W        W99426  27.588  12.793  10.943
31097W        W99427   3.379  36.986   5.671
31098W        W99428  12.699   2.302  13.492
31099W        W99429  26.657  26.991  12.478
31100W        W99430  19.668  23.153  11.995
31101W        W99431  18.279   1.384   0.939
31102W        W99432  33.585  12.844   2.349
31103W        W99433  41.928  17.075   4.130
31104W        W99434  41.025   7.864   3.257
31105W        W99435  15.326  21.584  11.586
31106W        W99436  19.167  38.027   0.785
31107W        W99437   7.367  20.531  11.067
31108W        W99438  29.007  36.990   2.350
31109W        W99439  32.538   7.348   3.717
31110W        W99440   6.874  33.107  10.563
31111W        W99441  30.529  21.174   1.847
31112W        W99442  18.119  40.922  13.439
31113W        W99443  41.932  40.832  12.095
31114W        W99444  10.316  14.189   2.179
31115W        W99445  23.594  18.230  13.423
31116W        W99446  12.140   9.726  14.997
31117W        W99447  24.579  19.571   0.827
31118W        W99448  16.147  18.608  14.382
31119W        W99449  44.774  36.427   3.821
31120W        W99450   1.483  30.161  14.838
31121W        W99451  17.611  11.834  14.828
31122W        W99452  27.455  40.397   2.759
31123W        W99453  36.495  31.089   3.230
31124W        W99454   3.724   2.304   1.749
31125W        W99455  20.625   2.868   0.811
31126W        W99456   9.272  30.627   0.346
31127W        W99457  39.962  42.907  11.442
31128W        W99458   4.774  35.454  13.472
31129W        W99459  27.168  42.488   4.275
31130W        W99460  13.108   7.824  13.059
31131W        W99461   0.384  10.349  14.792
31132W        W99462  42.294   5.771   4.736
31133W        W99463  23.580  26.997  14.305
31134W        W99464  23.563  40.322   1.739
31135W        W99465  33.932  40.440   1.267
31136W        W99466  22.674  10.772   1.729
31137W        W99467  23.020  19.581   4.263
31138W        W99468  15.288  20.707  13.322
31139W        W99469  37.581   8.186  13.913
31140W        W99470  34.586  19.707   1.808
31141W        W99471  27.605   7.899   0.792
31142W        W99472  34.095  25.987   0.474
31143W        W99473  26.140  22.682  12.559
31144W        W99474  11.190  36.447   3.784
31145W        W99475  33.596  31.903   0.790
31146W        W99476   0.748  38.551  11.442
31147W        W99477  33.116   1.327   2.748
31148W        W99478  41.506   0.869  12.554
31149W        W99479  18.582   6.271  14.333
31150W        W99480  20.677   2.926   1.318
31151W        W99481  36.499  11.223  11.040
31152W        W99482   0.751   5.835  13.312
31153W        W99483  11.230  43.878   1.271
31154W        W99484   5.931   4.382  13.031
31155W        W99485   6.363  38.017   1.905
31156W        W99486  40.901  11.830  12.005
31157W        W99487  10.216   4.761   3.218
31158W        W99488  44.495  15.169  14.422
31159W        W99489  13.340   3.721  11.457
31160W        W99490  14.299   2.302  12.355
31161W        W99491  24.696   0.987  13.925
31162W        W99492  26.538  21.201  14.891
31163W        W99493  21.218  41.349   2.830
31164W        W99494  17.148  40.906   1.844
31165W        W99495  28.499  17.723   4.609
31166W        W99496  42.939   5.415  13.979
31167W        W99497  14.826  37.481  13.380
31168W        W99498  27.037   9.751  10.106
31169W        W99499  22.076  25.531  12.095
31170W        W99500  24.505  11.667  10.569
31171W        W99501  37.519  32.022  12.558
31172W        W99502   5.746  33.602  13.959
31173W        W99503  41.983  25.058  14.402
31174W        W99504  41.441  16.127  14.279
31175W        W99505   1.246  33.079   4.639
31176W        W99506  30.567  27.032  12.339
31177W        W99507  30.126  18.644  14.291
31178W        W99508  26.461  33.573   1.776
31179W        W99509   1.455  42.778   0.773
31180W        W99510  20.763   5.724  14.022
31181W        W99511  26.560  27.940   5.234
31182W        W99512  36.938  31.525   1.264
31183W        W99513  31.052  12.645  12.365
31184W        W99514  22.138  41.908  11.426
31185W        W99515   7.882   7.218   0.732
31186W        W99516  41.523  37.980   2.197
31187W        W99517  42.875   0.322  11.555
31188W        W99518  19.589  27.953  12.482
31189W        W99519  16.103  29.922  12.975
31190W        W99520  21.262  12.658   3.722
31191W        W99521  28.160  25.113   0.792
31192W        W99522   6.814  22.200   4.328
31193W        W99523  24.112  30.149  10.905
31194W        W99524  34.523  34.012  14.903
31195W        W99525  14.742   3.248  13.317
31196W        W99526  27.458  10.722  14.898
31197W        W99527  39.409   4.433  13.325
31198W        W99528   3.454   6.719  11.492
31199W        W99529  15.235   3.370  12.941
31200W        W99530   8.819  20.220  13.977
31201W        W99531  17.191  30.156  14.958
31202W        W99532  36.555  20.250  11.419
31203W        W99533  12.757  27.167  10.423
31204W        W99534  13.745  41.833  10.467
31205W        W99535  20.268  44.817  12.890
31206W        W99536  12.353  24.673   0.464
31207W        W99537  40.852  16.310  13.959
31208W        W99538  24.224   6.186   4.820
31209W        W99539  21.693  22.569  10.897
31210W        W99540  25.482  18.107   2.730
31211W        W99541  13.669  32.570  14.866
31212W        W99542  26.136  18.577   2.181
31213W        W99543  28.484  44.493  14.314
31214W        W99544   3.868  42.890   3.307
31215W        W99545  42.853  35.012   3.376
31216W        W99546  39.931  27.046  14.464
31217W        W99547   6.355  19.278  12.936
31218W        W99548   0.291  44.501   1.244
31219W        W99549  36.476  25.487   2.769
31220W        W99550  38.403  15.174   3.206
31221W        W99551  23.181  44.004   4.115
31222W        W99552  26.182   4.214  11.036
31223W        W99553  30.519  41.400  13.794
31224W        W99554  13.841  19.536  10.547
31225W        W99555  12.250   2.410   2.189
31226W        W99556  10.174  14.592  11.455
31227W        W99557  23.703  16.662   4.670
31228W        W99558  28.516  13.315  11.097
31229W        W99559  16.685  44.815  12.492
31230W        W99560   5.241  39.041  14.342
31231W        W99561  44.326  28.004   1.809
31232W        W99562  19.750  13.748  11.497
31233W        W99563   2.329  22.729   1.291
31234W        W99564  38.010  25.121  11.098
31235W        W99565  29.032  32.445  14.004
31236W        W99566  17.792  18.200   3.385
31237W        W99567  29.510   9.714   4.809
31238W        W99568  21.078  22.104  10.568
31239W        W99569  23.535  24.193   1.255
31240W        W99570  33.462  39.361  10.594
31241W        W99571   8.190  41.389  12.038
31242W        W99572   1.834  17.599   0.318
31243W        W99573   1.876  11.146   2.381
31244W        W99574  40.857   3.819   1.785
31245W        W99575  11.215  34.403  14.004
31246W        W99576  43.277  35.031   1.433
31247W        W99577   3.452  30.034  14.008
31248W        W99578  24.037  17.669   2.299
31249W        W99579  12.140   5.744   0.262
31250W        W99580  32.924  25.545   2.902
31251W        W99581  17.600  21.097   0.370
31252W        W99582  39.940   2.886  12.013
31253W        W99583  42.417   3.345  12.959
31254W        W99584   9.875  12.241  13.958
31255W        W99585  22.707  28.470  13.868
31256W        W99586  30.917  20.208   5.125
31257W        W99587  28.571  37.061   4.172
31258W        W99588  36.871  12.761   3.837
31259W        W99589   5.794  37.398  14.859
31260W        W99590  44.789  40.331   0.427
31261W        W99591  44.477   6.910  14.412
31262W        W99592  25.100   2.809   4.747
31263W        W99593  38.069  13.237   4.306
31264W        W99594  40.807  14.644  12.450
31265W        W99595  26.619  38.391   4.823
31266W        W99596   3.456  32.635   3.317
31267W        W99597  22.081  15.818   1.870
31268W        W99598  28.543   0.467   3.795
31269W        W99599  37.540   8.215  11.554
31270W        W99600   5.288   9.175   0.334
31271W        W99601   3.460  39.955  10.638
31272W        W99602  43.810  15.782   2.277
31273W        W99603  40.532  16.176  14.890
31274W        W99604  43.301   3.367  10.521
31275W        W99605  43.320  19.730   3.802
31276W        W99606  34.545  11.196   3.708
31277W        W99607  28.090   7.185   3.333
31278W        W99608  40.042  38.927  14.762
31279W        W99609  27.504  19.283  14.872
31280W        W99610  41.806   0.351  12.982
31281W        W99611  37.009  42.364  14.785
31282W        W99612  43.821  12.329  10.411
31283W        W99613   7.749  31.036  13.926
31284W        W99614  14.649  35.541   4.599
31285W        W99615   4.221   6.798   0.885
31286W        W99616  21.600  14.194   3.168
31287W        W99617  37.423  44.935   4.261
31288W        W99618  32.000  18.059  10.947
31289W        W99619  11.324   8.225  11.041
31290W        W99620   4.399  19.545   4.197
31291W        W99621  18.170  42.377  13.507
31292W        W99622  11.724  34.446  11.029
31293W        W99623  40.315  39.938  14.498
31294W        W99624  10.150  18.591  12.957
31295W        W99625  20.653  19.257  10.527
31296W        W99626  24.521  37.429   2.891
31297W        W99627  40.932   7.720   0.342
31298W        W99628  27.627   6.304   1.359
31299W        W99629  22.248   0.972  12.933
31300W        W99630  42.493  35.416  10.424
31301W        W99631   6.352  30.487  10.456
31302W        W99632  25.492  32.478  10.952
31303W        W99633  23.036   1.884  11.885
31304W        W99634  27.194  11.297   1.407
31305W        W99635  25.135  23.736   4.616
31306W        W99636  43.473  37.385  14.854
31307W        W99637  23.121   4.434   2.373
31308W        W99638  23.520  18.699   0.737
31309W        W99639  29.050  42.998   1.368
31310W        W99640  27.956   2.346  13.981
31311W        W99641  31.030  40.018  12.456
31312W        W99642  41.456  10.257  10.431
31313W        W99643  15.096  29.062   3.272
31314W        W99644  38.500   8.212  14.501
31315W        W99645  44.843   0.374   4.317
31316W        W99646   3.890  43.457  14.890
31317W        W99647   0.946   9.681   1.790
31318W        W99648  23.204  41.997  10.599
31319W        W99649  12.761   3.762   0.471
31320W        W99650  30.635  23.675   1.876
31321W        W99651  13.140  24.110  10.574
31322W        W99652  23.011  15.325   0.766
31323W        W99653  10.784  37.845  10.593
31324W        W99654  24.008   0.983  13.416
31325W        W99655   2.444  33.561   0.926
31326W        W99656   7.386  41.937  13.806
31327W        W99657  18.550  18.092   2.241
31328W        W99658  32.594  37.879  10.477
31329W        W99659  19.063  19.207   5.318
31330W        W99660  19.697  31.945  14.390
31331W        W99661  43.811  43.966  14.341
31332W        W99662  30.446  13.841  13.528
31333W        W99663  23.210  27.107  11.929
31334W        W99664  29.029  15.716   2.330
31335W        W99665  17.746  26.467  14.423
31336W        W99666  21.738  36.471   3.744
31337W        W99667  36.484  10.849   4.150
31338W        W99668  21.130  30.086   2.804
31339W        W99669  20.560  12.772   4.128
31340W        W99670  18.559  29.962   4.601
31341W        W99671  38.373  41.888   4.661
31342W        W99672  29.002   2.885   1.704
31343W        W99673   4.259  35.937  14.483
31344W        W99674   6.267  25.031  11.896
31345W        W99675  33.040  25.142  13.943
31346W        W99676  22.183  39.432  13.368
31347W        W99677  40.315  43.971   2.231
31348W        W99678  37.535  12.154  13.424
31349W        W99679  43.498   7.760  13.896
31350W        W99680  36.515   4.430  10.519
31351W        W99681   0.786  17.758   0.872
31352W        W99682  26.046  13.678  11.113
31353W        W99683   4.890  28.593  10.639
31354W        W99684  20.532   2.779  13.381
31355W        W99685  31.138  21.514   4.256
31356W        W99686  35.521  43.491   3.833
31357W        W99687  11.350  11.142   4.281
31358W        W99688  26.608  18.573   2.328
31359W        W99689  44.378  16.147   0.468
31360W        W99690  18.667  18.714   3.340
31361W        W99691  34.425   2.943   4.235
31362W        W99692  15.716  28.097   2.885
31363W        W99693  40.322   0.371  13.472
31364W        W99694  27.563   3.317  13.385
31365W        W99695  20.070  18.260  14.942
31366W        W99696  29.970  12.328  13.998
31367W        W99697   1.947  21.147   2.779
31368W        W99698  22.706  29.071   0.874
31369W        W99699  19.677  42.776   4.759
31370W        W99700   7.365  33.081   0.802
31371W        W99701  17.267   8.362   3.194
31372W        W99702  39.872   7.681   3.748
31373W        W99703  40.338  11.797   4.689
31374W        W99704   2.811  40.995   2.226
31375W        W99705  11.321   7.771   1.321
31376W        W99706  13.157  24.092  14.448
31377W        W99707   0.863  39.879   1.912
31378W        W99708  36.067   2.758  11.582
31379W        W99709  26.562  15.272   2.863
31380W        W99710  27.631  27.022   0.909
31381W        W99711  28.052  30.078   4.272
31382W        W99712  24.657  15.587  14.293
31383W        W99713  13.698  35.598  11.560
31384W        W99714  39.042  21.030  12.087
31385W        W99715  34.991  17.238  14.286
31386W        W99716  16.217  26.506   1.431
31387W        W99717  37.562  31.460   2.892
31388W        W99718  22.596  25.668   0.245
31389W        W99719   0.346   3.314  12.523
31390W        W99720  11.843  26.637   5.283
31391W        W99721  37.493  28.156   0.474
31392W        W99722  17.110  33.903  14.332
31393W        W99723  15.785  42.960  13.903
31394W        W99724  33.898  40.930  13.315
31395W        W99725   5.342  19.742   1.235
31396W        W99726  41.401  19.238   2.352
31397W        W99727  27.950   2.859   2.369
31398W        W99728  25.178  16.576  11.057
31399W        W99729   1.267  40.387   1.756
31400W        W99730  23.229  34.391  13.504
31401W        W99731  42.026  43.314  13.032
31402W        W99732  24.003  24.988  13.947
31403W        W99733   9.169  42.802   4.609
31404W        W99734  42.333  40.929  11.888
31405W        W99735  28.673  34.440  11.088
31406W        W99736  17.667  34.987   3.684
31407W        W99737  40.973  21.034   4.787
31408W        W99738  29.501  42.002  10.450
31409W        W99739  32.050   7.211   1.891
31410W        W99740   8.729   2.289  14.461
31411W        W99741  21.668  40.008  11.508
31412W        W99742  33.450  15.742   1.786
31413W        W99743  32.615  35.567  14.292
31414W        W99744  43.884  20.556   2.271
31415W        W99745  23.992  31.150   0.763
31416W        W99746   0.889  16.660  11.034
31417W        W99747  42.787  35.030   1.883
31418W        W99748  34.952  31.436  11.489
31419W        W99749   3.347  17.750  13.485
31420W        W99750  11.633   9.774  10.601
31421W        W99751  23.189   0.325   2.179
31422W        W99752   6.722   6.687   3.832
31423W        W99753  16.107  36.990  11.898
31424W        W99754  15.728  18.119  12.456
31425W        W99755   4.432  12.185   0.748
31426W        W99756  18.654  41.993  13.815
31427W        W99757  43.997   6.791   3.797
31428W        W99758  26.200  10.160   2.727
31429W        W99759  27.455  34.512   1.748
31430W        W99760   6.891  39.401   0.418
31431W        W99761   8.342   8.790   1.821
31432W        W99762  39.377  24.162  13.818
31433W        W99763  29.487   3.274   2.742
31434W        W99764  11.249   0.309  14.292
31435W        W99765  10.650  41.455  14.950
31436W        W99766  39.032  10.669   1.867
31437W        W99767  28.509  43.412   0.305
31438W        W99768   3.899  16.758   1.441
31439W        W99769   7.189  22.564   1.334
31440W        W99770  33.500  27.551  12.069
31441W        W99771  34.950  43.017  13.803
31442W        W99772   3.261  36.018  10.154
31443W        W99773   6.205  40.409   5.103
31444W        W99774   4.807  21.118   4.817
31445W        W99775  36.899  44.975   2.274
31446W        W99776  16.149  37.935   1.327
31447W        W99777  37.431  13.757   1.922
31448W        W99778  26.586  40.039   9.983
31449W        W99779   1.845  41.486   1.815
31450W        W99780  39.422  44.413   3.781
31451W        W99781   4.786  17.800  12.999
31452W        W99782  27.036  41.003  11.982
31453W        W99783  26.491  19.629   3.725
31454W        W99784  33.928  44.869  13.494
31455W        W99785  16.250  18.576   1.426
31456W        W99786  14.204  18.544   2.384
31457W        W99787  22.670   7.273   4.751
31458W        W99788   0.889  31.413  13.948
31459W        W99789  29.036  39.978   0.423
31460W        W99790  20.527  21.196   2.333
31461W        W99791  23.582  43.003   4.673
31462W        W99792  42.332  30.993  14.278
31463W        W99793   9.226   1.960   2.227
31464W        W99794  17.133  33.399  13.937
31465W        W99795  29.620  19.766   3.768
31466W        W99796  32.494  29.118   2.274
31467W        W99797   0.871  18.126  14.309
31468W        W99798  11.274  16.127   3.253
31469W        W99799  13.247  33.461  14.819
31470W        W99800  17.168   8.852   3.838
31471W        W99801  22.508   6.224  11.416
31472W        W99802  12.214   9.156   1.771
31473W        W99803  36.422  17.763  12.412
31474W        W99804   5.422  18.729  10.500
31475W        W99805  44.797   8.841   0.755
31476W        W99806  42.439  30.103  12.000
31477W        W99807  42.383  10.646   2.376
31478W        W99808   5.783  36.515   4.808
31479W        W99809  40.969   2.386  10.625
31480W        W99810  29.930  13.810   3.710
31481W        W99811  30.103   1.763   1.777
31482W        W99812  38.447   7.673   4.677
31483W        W99813  23.710  44.443  13.387
31484W        W99814  17.683  37.520   2.414
31485W        W99815  10.147  39.432  12.493
31486W        W99816  33.558   3.772   3.386
31487W        W99817  12.139  11.639  11.033
31488W        W99818  42.478   5.853  12.442
31489W        W99819  34.032  19.227  13.347
31490W        W99820  20.213  18.589   4.797
31491W        W99821  38.850   5.700  13.476
31492W        W99822  12.713  26.679   3.218
31493W        W99823  27.675  14.750  11.379
31494W        W99824   3.821  31.407  11.115
31495W        W99825  23.525  16.575  10.507
31496W        W99826  40.364  39.372  10.971
31497W        W99827  40.471  22.660   1.275
31498W        W99828  29.016   3.710   0.802
31499W        W99829  44.934   2.269   0.780
31500W        W99830  18.087  24.590   9.921
31501W        W99831  20.721  34.885  10.546
31502W        W99832  25.531  13.188  11.559
31503W        W99833   3.878   9.848  10.625
31504W        W99834   2.883  37.055  10.406
31505W        W99835  13.688  12.701   2.814
31506W        W99836  26.960  38.504   1.872
31507W        W99837  31.584  33.575  10.567
31508W        W99838  36.430  10.333   3.383
31509W        W99839  20.713  35.579   4.743
31510W        W99840  14.669  40.532   1.246
31511W        W99841   3.367   0.421   0.921
31512W        W99842  17.277   4.794   1.399
31513W        W99843  34.916  44.828   4.663
31514W        W99844  38.943  20.543  14.838
31515W        W99845  39.008  28.045   3.768
31516W        W99846  17.248   6.890   3.359
31517W        W99847  18.679  35.083   1.723
31518W        W99848  19.619  15.187  13.543
31519W        W99849  10.206  37.873   1.697
31520W        W99850   3.424  28.149   4.161
31521W        W99851  37.338   7.902  13.902
31522W        W99852  14.341  14.310   4.770
31523W        W99853  33.433  44.401   4.793
31524W        W99854  37.422  11.213   2.250
31525W        W99855   3.355  31.031   0.342
31526W        W99856  37.924  24.158   0.729
31527W        W99857  28.502   3.372   3.760
31528W        W99858  22.679  19.272   5.081
31529W        W99859  33.978  39.058   3.338
31530W        W99860   5.231   0.905   2.683
31531W        W99861  30.584   5.288   0.373
31532W        W99862  41.452  41.384  13.819
31533W        W99863  34.538  16.629   1.871
31534W        W99864  35.388  20.722  10.990
31535W        W99865  40.004   9.320   0.309
31536W        W99866   1.464   0.960   1.862
31537W        W99867  27.033  31.101  13.475
31538W        W99868  29.981  42.959   2.289
31539W        W99869  42.304  30.649   3.332
31540W        W99870   3.775  28.065   1.374
31541W        W99871  37.858   6.760   1.295
31542W        W99872  21.176  22.142  13.344
31543W        W99873   2.471  14.764  14.895
31544W        W99874  17.749  39.934  11.048
31545W        W99875  28.466  21.062  12.070
31546W        W99876  35.587  25.137   2.664
31547W        W99877   4.933  21.103   0.400
31548W        W99878  21.074  11.692   3.348
31549W        W99879  41.371  37.454  12.539
31550W        W99880   1.846  38.373  13.841
31551W        W99881   3.346  43.975  10.894
31552W        W99882  29.112   1.769   4.121
31553W        W99883  23.508  44.916   1.826
31554W        W99884  15.603  16.793  13.358
31555W        W99885   7.253  17.585   3.687
31556W        W99886  32.492  24.509  14.446
31557W        W99887   2.799  27.160  10.513
31558W        W99888  35.446  15.216  14.796
31559W        W99889  11.258  31.434   3.683
31560W        W99890   3.370  16.792  11.957
31561W        W99891   6.338  28.038  11.962
31562W        W99892  15.119  16.754  12.924
31563W        W99893  17.730  17.290  12.530
31564W        W99894   6.900  26.152  11.509
31565W        W99895  18.153  20.724   3.756
31566W        W99896  18.599  16.627   3.754
31567W        W99897  36.031  15.672   3.311
31568W        W99898  17.132  40.823   1.370
31569W        W99899  23.538  26.635   3.164
31570W        W99900  16.099  21.119   3.218
31571W        W99901  27.647  12.312   4.783
31572W        W99902  11.704  44.491   1.392
31573W        W99903  12.818  13.201   3.327
31574W        W99904   8.372  14.791  12.998
31575W        W99905  23.089   2.227  13.532
31576W        W99906   7.200  44.297  12.942
31577W        W99907  26.161  43.310   4.831
31578W        W99908   4.232  31.955  13.484
31579W        W99909  20.055  16.220   0.727
31580W        W99910  28.505  37.564  14.981
31581W        W99911   8.668  22.199  11.599
31582W        W99912   8.160   6.390  11.125
31583W        W99913   6.685  29.154  14.298
31584W        W99914  39.487  43.358   4.165
31585W        W99915  22.537  11.704   9.957
31586W        W99916  36.463  38.856  11.034
31587W        W99917   7.285  43.377   3.269
31588W        W99918  14.833  41.291   2.397
31589W        W99919  28.930   4.444   3.364
31590W        W99920  40.529   9.208   4.829
31591W        W99921  16.096  30.066  14.949
31592W        W99922  12.343   0.885   2.399
31593W        W99923  29.451  11.133  13.446
31594W        W99924  13.741   2.340  14.947
31595W        W99925   3.277   5.431  13.025
31596W        W99926   5.408  38.002   0.782
31597W        W99927  13.745   8.228   0.805
31598W        W99928  40.872  18.095   3.694
31599W        W99929  10.654   9.679   0.730
31600W        W99930  16.092  22.141   4.753
31601W        W99931  19.224  17.285  12.480
31602W        W99932  17.160  26.176  14.940
31603W        W99933   1.379  12.834  12.987
31604W        W99934   8.854  14.303  13.316
31605W        W99935  22.695  17.700  11.443
31606W        W99936   2.408  32.949   4.742
31607W        W99937  36.039  15.201   3.170
31608W        W99938  34.380  31.503  11.056
31609W        W99939  27.691  32.397  13.909
31610W        W99940  38.439  38.360  14.350
31611W        W99941  15.145  37.038   5.219
31612W        W99942  39.900  22.595   3.188
31613W        W99943   8.398  31.913  10.568
31614W        W99944   8.180   4.292  12.944
31615W        W99945  20.071  35.940   2.382
31616W        W99946  43.919   8.340  10.438
31617W        W99947  15.749  25.536  14.493
31618W        W99948   0.379  19.053   3.356
31619W        W99949   6.300   5.870  10.902
31620W        W99950   3.221  35.498  14.323
31621W        W99951   0.353  21.581  13.380
31622W        W99952  20.089   4.229   2.883
31623W        W99953  28.048  41.536  14.796
31624W        W99954  31.117  35.527  13.891
31625W        W99955  32.062  37.919   2.199
31626W        W99956   8.402  21.541   2.225
31627W        W99957   8.666   9.198   4.784
31628W        W99958   9.727  42.869  13.049
31629W        W99959   9.306  13.119  11.016
31630W        W99960   6.830  42.945  13.426
31631W        W99961  32.566   8.800  13.982
31632W        W99962  27.047  28.582  14.354
31633W        W99963  18.072  11.210   4.194
31634W        W99964  36.020  26.703  12.021
31635W        W99965  33.050  11.143  12.440
31636W        W99966   4.853   6.248  13.547
31637W        W99967   6.408  21.726   4.617
31638W        W99968  39.822  24.027   2.418
31639W        W99969   8.184  20.139  11.554
31640W        W99970  29.011  16.743  13.060
31641W        W99971  30.150  20.529   4.693
31642W        W99972  36.075  18.725   5.095
31643W        W99973   5.815  14.218  13.013
31644W        W99974  33.576  12.226   3.819
31645W        W99975  28.584  13.740  12.474
31646W        W99976  21.741  26.105  14.285
31647W        W99977  23.108  28.644   1.322
31648W        W99978  24.536   1.462  13.925
31649W        W99979  23.590  25.594  12.972
31650W        W99980  25.675   9.809   1.875
31651W        W99981   9.339   7.380  10.934
31652W        W99982  26.097  34.986   1.808
31653W        W99983  19.614  15.232  11.388
31654W        W99984   1.786  20.544  13.544
31655W        W99985   4.875   0.846   3.218
31656W        W99986   9.713  40.978  12.012
31657W        W99987  19.561   5.210   2.664
31658W        W99988  21.556  11.337  11.038
31659W        W99989  29.051  12.289   4.656
31660W        W99990  37.557  27.117  12.375
31661W        W99991  42.389  42.306   0.851
31662W        W99992   5.759  10.368  14.316
31663W        W99993   3.392  37.395  13.489
31664W        W99994   0.310  15.673  12.357
31665W        W99995   6.892  20.217  14.359
31666W        W99996  18.715  10.637   4.658
31667W        W99997  29.998   5.388   4.628
31668W        W99998  19.574  18.113   0.389
31669W        W99999  15.775  27.658  12.920
31670W        W    0  41.886  14.617  12.516
31671W        W    1  34.453  15.252  11.571
31672W        W    2  31.981   9.721  14.850
31673W        W    3  25.678  12.310   5.255
31674W        W    4  33.384  12.763   0.462
31675W        W    5  33.886  19.779  11.890
31676W        W    6  20.607  35.914   3.276
31677W        W    7   8.281  43.299  12.378
31678W        W    8  27.073  20.133   4.182
31679W        W    9   9.356  10.292   3.678
31680W        W   10  32.900  40.885   0.349
31681W        W   11   3.875  12.354   0.755
31682W        W   12   5.895   7.253   0.352
31683W        W   13  29.139  24.571  12.419
31684W        W   14  28.184  43.901   2.717
31685W        W   15   0.889  43.298   2.692
31686W        W   16   6.271  26.473   4.126
31687W        W   17  19.573  38.828   0.877
31688W        W   18  42.990  18.565  11.576
31689W        W   19   3.307  19.148  13.837
31690W        W   20  34.528  42.025  14.915
31691W        W   21  13.815   1.429  12.934
31692W        W   22   3.933  29.437  12.566
31693W        W   23  22.635  34.454  13.935
31694W        W   24  44.838  22.249   1.242
31695W        W   25   5.274  16.135   2.770
31696W        W   26  28.440   4.331   2.251
31697W        W   27   8.720  30.511   0.803
31698W        W   28   0.297   8.177   2.254
31699W        W   29  42.319  13.727  14.976
31700W        W   30  24.090  38.428  10.432
31701W        W   31  20.586  30.626   3.745
31702W        W   32  41.316   7.402   3.758
31703W        W   33  38.955   1.825   0.778
31704W        W   34  19.145  40.333   3.350
31705W        W   35   5.259  13.846  13.807
31706W        W   36  40.845  34.582   0.315
31707W        W   37   0.870  34.048  13.403
31708W        W   38  13.136   0.365  10.965
31709W        W   39  18.069  21.515  12.428
31710W        W   40  12.760  25.515   0.726
31711W        W   41  34.510   3.217  14.964
31712W        W   42  33.588  25.999  14.912
31713W        W   43  26.159  19.050  12.012
31714W        W   44  22.031  10.166   9.933
31715W        W   45  24.100   8.166   0.942
31716W        W   46  24.485  21.082  10.984
31717W        W   47  37.919  27.445  11.111
31718W        W   48  37.374   5.757  13.471
31719W        W   49  27.680  32.606   2.824
31720W        W   50  31.473  35.401  11.034
31721W        W   51  32.072   1.246  11.078
31722W        W   52  18.160   0.466  11.990
31723W        W   53  38.398  32.070   1.435
31724W        W   54  22.522  27.630  11.890
31725W        W   55  39.868  15.322  10.994
31726W        W   56   1.912  32.115   0.921
31727W        W   57   9.865  39.064  12.088
31728W        W   58  16.708  36.867   5.141
31729W        W   59   0.322  38.012   3.741
31730W        W   60  31.072   1.926   2.181
31731W        W   61   2.412   6.706  11.982
31732W        W   62  29.091  28.606   1.740
31733W        W   63  21.727  15.617   3.269
31734W        W   64  41.297  26.695  10.419
31735W        W   65  26.700  38.344  10.596
31736W        W   66  17.288  39.892   0.937
31737W        W   67  35.510   4.430  13.547
31738W        W   68  43.787  39.833   3.820
31739W        W   69  22.720  37.878  13.427
31740W        W   70  44.319   1.940  14.915
31741W        W   71   3.447   3.291  10.435
31742W        W   72  14.710   3.925   0.300
31743W        W   73   2.250  37.943  12.890
31744W        W   74   6.682  22.698  11.903
31745W        W   75   4.224  24.146   4.623
31746W        W   76  22.511  44.263  14.015
31747W        W   77  25.704  24.092  11.953
31748W        W   78  37.896   2.268   1.697
31749W        W   79  36.368  12.268  11.014
31750W        W   80  32.537   6.836  13.317
31751W        W   81  10.687   5.283   1.429
31752W        W   82  19.141  33.059  13.019
31753W        W   83  17.156  35.028   9.927
31754W        W   84  33.596   2.296  11.420
31755W        W   85  36.478   6.779   4.189
31756W        W   86  35.860  37.885   0.414
31757W        W   87  12.777  35.358  11.438
31758W        W   88  44.356  26.500   3.174
31759W        W   89  41.338   7.716   0.377
31760W        W   90  36.947   4.705   2.198
31761W        W   91  11.372  34.418   4.182
31762W        W   92  35.462   6.818  11.522
31763W        W   93  18.052  20.535  13.449
31764W        W   94   0.437  43.366  10.581
31765W        W   95  36.927   1.823   1.864
31766W        W   96  15.218  37.893  14.027
31767W        W   97  41.828  11.262   2.395
31768W        W   98   2.444  26.173  13.449
31769W        W   99  43.289  29.565   4.165
31770W        W  100  20.704  21.650  14.902
31771W        W  101  30.103   0.484   3.322
31772W        W  102  44.392  39.899  13.011
31773W        W  103  33.052  12.711  14.444
31774W        W  104  26.994  42.855   3.837
31775W        W  105  25.038  35.985   2.786
31776W        W  106   8.725  12.307   2.698
31777W        W  107   7.837   3.907   1.363
31778W        W  108  21.163  31.068   0.400
31779W        W  109   6.311  21.534  13.855
31780W        W  110  23.530  36.907   4.249
31781W        W  111  44.839   7.743   3.152
31782W        W  112  18.568  23.039   1.441
31783W        W  113  18.782  13.320  13.886
31784W        W  114  33.053  25.081  10.431
31785W        W  115   5.709  33.990  14.425
31786W        W  116  24.499   9.167   2.707
31787W        W  117   2.908  16.800  14.497
31788W        W  118  40.025  14.284   5.251
31789W        W  119  30.910  34.424  12.886
31790W        W  120  44.919  27.150  11.573
31791W        W  121  18.132  14.192  13.064
31792W        W  122  34.012  16.573  10.988
31793W        W  123  26.508  33.461   0.466
31794W        W  124  35.393  44.374  14.981
31795W        W  125  26.009  27.965  10.486
31796W        W  126  11.205  44.261   0.744
31797W        W  127  15.766  25.655   4.606
31798W        W  128  25.079  21.719  13.815
31799W        W  129   7.245  18.064   3.296
31800W        W  130  30.992  38.895  11.585
31801W        W  131  17.259  17.288   1.726
31802W        W  132  39.390  19.539   1.262
31803W        W  133   5.354  37.937  11.081
31804W        W  134   9.291   4.427  13.367
31805W        W  135   7.722  43.338  12.352
31806W        W  136  10.755   6.902   4.815
31807W        W  137   7.389  12.232   2.843
31808W        W  138  26.054  17.594  11.546
31809W        W  139  25.691   7.734   1.842
31810W        W  140  22.547  19.563   4.670
31811W        W  141  13.823  35.478   2.717
31812W        W  142  44.472  10.853  10.993
31813W        W  143  17.124  43.380  13.515
31814W        W  144  40.437  42.914   1.825
31815W        W  145   5.839   2.934  10.612
31816W        W  146  25.492  36.028   4.639
31817W        W  147  23.027  33.035  14.383
31818W        W  148  15.261   8.882  14.817
31819W        W  149   0.441   2.789  12.359
31820W        W  150  14.698  29.501   3.361
31821W        W  151   5.769   9.296  11.401
31822W        W  152  18.255   3.853   2.813
31823W        W  153  19.119  12.284   2.734
31824W        W  154  42.902  20.548  10.405
31825W        W  155  34.105  33.040  12.018
31826W        W  156   6.367  27.625   0.315
31827W        W  157   8.808  23.539  12.449
31828W        W  158  22.102  19.145   3.800
31829W        W  159  24.062  21.021   5.116
31830W        W  160  17.165   1.379   1.263
31831W        W  161  29.054  20.713  12.495
31832W        W  162  13.313  20.692   4.705
31833W        W  163   6.274  28.112   1.899
31834W        W  164   2.958  37.013   0.827
31835W        W  165  25.570  16.727   2.194
31836W        W  166  13.170  44.791   2.192
31837W        W  167  36.930  32.062   2.229
31838W        W  168  21.051  16.124   9.572
31839W        W  169  29.506   4.383   0.903
31840W        W  170  12.163  36.929  11.509
31841W        W  171   0.308  34.908  10.515
31842W        W  172  40.305   0.940  12.850
31843W        W  173   3.856  29.968  13.964
31844W        W  174  43.355  23.534   4.183
31845W        W  175  18.218  23.987   5.256
31846W        W  176  33.418  37.049  12.540
31847W        W  177  35.366   4.905   2.689
31848W        W  178  28.563  13.268   0.408
31849W        W  179   3.265   9.184  11.489
31850W        W  180   1.950  40.041   0.781
31851W        W  181   0.769   4.885   1.370
31852W        W  182  35.596   2.786   2.252
31853W        W  183   9.163  17.223  14.400
31854W        W  184  10.206  29.944   1.234
31855W        W  185  22.538  19.570   2.876
31856W        W  186  17.736  44.957  13.347
31857W        W  187  36.406   6.421   5.145
31858W        W  188   2.902  28.507  11.390
31859W        W  189  24.575   4.915  12.872
31860W        W  190  39.037  37.342   4.775
31861W        W  191   4.783  21.664   1.242
31862W        W  192   4.273  41.414  10.531
31863W        W  193  15.632  19.195  12.433
31864W        W  194   9.351   6.737  13.955
31865W        W  195  35.051  42.403  12.063
31866W        W  196   7.801   3.722   0.925
31867W        W  197  26.622  42.793  12.883
31868W        W  198  21.633  40.047  14.873
31869W        W  199  38.547  44.292  11.890
31870W        W  200  12.682  17.556  10.462
31871W        W  201  28.136  14.297   3.748
31872W        W  202  13.114  33.601   5.095
31873W        W  203   1.399  21.578   3.793
31874W        W  204  24.063   6.894   1.899
31875W        W  205  30.088  33.464  10.064
31876W        W  206  40.420   3.737   0.784
31877W        W  207  25.091   3.352  11.914
31878W        W  208  28.556  25.565   4.825
31879W        W  209   2.389  28.183   3.823
31880W        W  210  24.631  23.001   0.758
31881W        W  211  27.073  28.116  11.890
31882W        W  212  11.868  36.024  14.021
31883W        W  213   3.853  39.986   3.830
31884W        W  214  15.754  27.959   5.151
31885W        W  215  38.854  41.315  10.043
31886W        W  216  19.724  16.666   0.966
31887W        W  217  22.195  26.989  11.943
31888W        W  218  35.372  37.416  14.772
31889W        W  219  27.092  10.727   5.106
31890W        W  220   3.767  19.089   0.876
31891W        W  221  44.274  18.684   4.137
31892W        W  222  35.358   4.432   1.870
31893W        W  223  37.849  32.957  14.319
31894W        W  224  19.272  25.656   2.342
31895W        W  225  43.411  42.474  12.014
31896W        W  226   8.705  10.854  14.977
31897W        W  227  36.017   9.668  13.383
31898W        W  228   2.738  16.318  14.373
31899W        W  229   8.393  28.587   1.308
31900W        W  230   4.339  35.008   0.774
31901W        W  231  28.105  29.022  10.077
31902W        W  232   8.885  37.392   1.221
31903W        W  233  26.108  43.346   3.189
31904W        W  234  14.827   7.397   1.308
31905W        W  235  27.583  44.966   3.826
31906W        W  236   7.236  14.703  14.020
31907W        W  237  21.254  17.203  14.953
31908W        W  238  18.147  40.464   1.884
31909W        W  239   3.372  10.294   2.287
31910W        W  240   0.858  24.173  13.958
31911W        W  241  24.625  37.897   4.805
31912W        W  242  12.618  12.800  12.376
31913W        W  243  28.071   7.868   0.876
31914W        W  244  12.749   9.194   0.253
31915W        W  245  31.988  30.033   3.189
31916W        W  246  37.453  25.194  13.441
31917W        W  247  39.904  29.976   3.153
31918W        W  248  38.063   6.407  10.987
31919W        W  249   5.819  32.436  13.048
31920W        W  250  40.935   8.722  14.991
31921W        W  251  31.031   4.861   2.242
31922W        W  252  38.570  12.301   4.153
31923W        W  253  18.773  26.989  14.412
31924W        W  254  22.673   9.859  11.414
31925W        W  255  22.141  36.564  13.467
31926W        W  256  11.169   3.358   2.338
31927W        W  257  11.671  32.552   3.346
31928W        W  258  34.087  32.603  14.011
31929W        W  259  39.540  37.043   4.795
31930W        W  260   2.439   4.310  14.792
31931W        W  261  25.567   2.910  13.971
31932W        W  262  39.463  32.614   0.243
31933W        W  263  30.163  44.990  11.392
31934W        W  264  29.051  10.267  10.959
31935W        W  265   7.179  26.652  11.868
31936W        W  266  38.421  27.109   1.860
31937W        W  267  23.704  40.392   1.359
31938W        W  268  21.227  44.454   4.689
31939W        W  269  28.001  33.599   1.423
31940W        W  270  41.296  38.951   0.266
31941W        W  271  44.466  32.399  12.555
31942W        W  272  30.083  39.004  13.525
31943W        W  273   7.259  13.804  11.014
31944W        W  274  34.008  12.238  14.366
31945W        W  275  40.907  14.274  14.944
31946W        W  276  34.920  22.043  10.432
31947W        W  277  43.315  30.074  12.517
31948W        W  278  15.583  33.606   1.713
31949W        W  279  34.909  35.490  14.490
31950W        W  280   4.366   1.735   0.727
31951W        W  281  23.031  10.645   2.837
31952W        W  282  26.661  32.095  12.402
31953W        W  283  43.277  19.638  10.453
31954W        W  284  13.208  31.615  12.999
31955W        W  285  16.730  26.635  13.853
31956W        W  286  19.709  39.055  13.044
31957W        W  287   0.863  22.068   0.441
31958W        W  288  30.008  15.637  13.472
31959W        W  289  38.909  18.198  11.050
31960W        W  290   1.245  24.644  12.976
31961W        W  291   9.648  40.506  14.768
31962W        W  292  28.162  44.429  12.456
31963W        W  293   7.710  31.475   3.311
31964W        W  294  43.845  27.130   4.676
31965W        W  295  31.949  38.014   3.378
31966W        W  296   5.769  40.867  14.363
31967W        W  297  33.068  37.499   3.703
31968W        W  298  21.154   4.369   0.857
31969W        W  299  11.719  42.477   2.778
31970W        W  300  34.060  22.165  13.967
31971W        W  301  16.241  31.629  13.954
31972W        W  302  41.389  16.798  14.399
31973W        W  303  27.659  42.281   4.207
31974W        W  304  29.055  19.077   4.219
31975W        W  305  32.521  19.713   1.935
31976W        W  306  28.588  21.243  14.507
31977W        W  307  33.994  44.999   2.242
31978W        W  308  32.566  34.471   1.263
31979W        W  309  22.230   2.910  10.573
31980W        W  310   1.779  26.021   3.821
31981W        W  311  12.229  27.076  14.500
31982W        W  312   8.254  42.332   2.405
31983W        W  313  19.709   1.277  12.066
31984W        W  314  19.576  12.267  12.440
31985W        W  315   8.390  44.872  13.992
31986W        W  316  35.948  31.930  13.793
31987W        W  317  27.600  31.617   1.814
31988W        W  318  10.195  20.702  14.303
31989W        W  319  42.954   1.469   4.228
31990W        W  320   3.773  19.554  12.028
31991W        W  321  19.768  34.421   0.756
31992W        W  322  40.310  43.868   2.751
31993W        W  323  38.017  29.643   1.363
31994W        W  324  34.865  22.081   4.196
31995W        W  325  10.215  21.600  13.055
31996W        W  326   5.852  27.970  12.878
31997W        W  327  38.890  42.028   1.268
31998W        W  328  34.994  39.430  13.982
31999W        W  329  29.001  20.553   2.686
32000W        W  330   8.406  11.745   1.232
32001W        W  331  21.174  21.113   5.181
32002W        W  332  20.043  38.407   2.861
32003W        W  333  26.051   1.899   3.168
32004W        W  334   8.865  42.437  14.849
32005W        W  335   9.761  10.731   4.330
32006W        W  336   1.836  16.707  11.895
32007W        W  337  19.041  33.050   4.727
32008W        W  338   7.304  12.195   0.874
32009W        W  339   7.370  12.662   2.784
32010W        W  340  24.657  32.110  10.589
32011W        W  341  28.173  38.497  11.459
32012W        W  342   4.891  39.964   1.828
32013W        W  343   5.277   8.750  14.000
32014W        W  344  17.090  26.171   3.673
32015W        W  345   6.309  26.025  12.521
32016W        W  346   1.863  32.892   4.794
32017W        W  347   5.887  34.417   4.149
32018W        W  348  30.163  26.975  12.867
32019W        W  349   2.342   7.362   5.085
32020W        W  350   5.340   9.846  10.913
32021W        W  351   9.644   0.915  12.089
32022W        W  352  44.300  21.528   4.784
32023W        W  353  12.710  31.976   4.706
32024W        W  354  40.471   5.288   2.805
32025W        W  355   4.314   4.246  11.018
32026W        W  356  44.999  18.722  10.965
32027W        W  357  26.587  37.535   3.824
32028W        W  358  13.108  39.810  10.499
32029W        W  359  10.632  30.917  14.488
32030W        W  360  27.069  34.946   4.348
32031W        W  361  21.155   4.934   4.787
32032W        W  362  39.927  44.771   4.320
32033W        W  363  16.795   1.859   1.792
32034W        W  364  43.803   4.346  13.345
32035W        W  365  27.544  23.111  13.421
32036W        W  366  38.377  43.497   4.632
32037W        W  367  29.614   3.255  14.314
32038W        W  368   8.236  30.124  13.844
32039W        W  369  42.458  40.847  14.330
32040W        W  370  32.611  41.457   1.257
32041W        W  371  19.108  32.435  13.831
32042W        W  372  40.006  40.027  10.430
32043W        W  373  33.497  27.652   2.763
32044W        W  374  35.988  42.368   0.314
32045W        W  375  11.691   3.954  14.768
32046W        W  376  18.262  22.706   1.900
32047W        W  377  38.457  38.515  11.570
32048W        W  378   3.369  23.166   2.237
32049W        W  379  34.919   9.198   0.795
32050W        W  380  33.389  14.645   2.680
32051W        W  381   7.362  19.727  11.115
32052W        W  382   6.689  36.430  12.343
32053W        W  383  19.059  34.976   0.740
32054W        W  384  13.197  16.731  12.858
32055W        W  385  41.324   3.314  12.827
32056W        W  386  26.966  42.995  13.009
32057W        W  387  24.546  32.584  12.080
32058W        W  388   3.264  21.731   1.843
32059W        W  389  39.986  35.483   0.779
32060W        W  390  35.010  11.275  13.539
32061W        W  391  20.200  24.575  14.843
32062W        W  392  28.592   1.856  14.763
32063W        W  393  22.563  11.714   0.306
32064W        W  394  41.017  28.037   4.748
32065W        W  395  22.102  22.146   2.339
32066W        W  396  22.243  42.399   3.750
32067W        W  397  26.125  43.853   3.783
32068W        W  398  13.335  38.361   0.831
32069W        W  399  44.756  33.078   0.256
32070W        W  400  35.901  32.952   4.713
32071W        W  401  13.134   9.341  12.555
32072W        W  402   1.778   0.862  11.518
32073W        W  403  26.961  42.832   5.225
32074W        W  404  23.678  43.815   2.734
32075W        W  405  43.810  36.408   1.804
32076W        W  406   5.859  27.649   1.705
32077W        W  407   6.806  36.485  11.997
32078W        W  408  32.407  26.636  13.971
32079W        W  409   4.944  40.311   0.426
32080W        W  410  11.707  26.096  14.400
32081W        W  411  30.146  32.486   3.257
32082W        W  412  39.961  43.383   0.849
32083W        W  413  33.442   2.277  11.004
32084W        W  414  10.202  15.696   4.139
32085W        W  415  38.998  26.479   3.634
32086W        W  416  20.227   7.841  14.787
32087W        W  417   3.946  38.472  13.995
32088W        W  418  40.819   7.322   4.826
32089W        W  419  18.732   2.935   2.887
32090W        W  420  43.970  35.975   2.884
32091W        W  421  20.145  25.683   0.952
32092W        W  422  12.217  26.456   2.809
32093W        W  423  31.998  14.288   4.166
32094W        W  424  36.588  36.460  12.035
32095W        W  425  37.874  16.791   2.179
32096W        W  426  20.037  43.021  10.636
32097W        W  427  30.613  28.483   0.742
32098W        W  428  24.696   5.438   4.181
32099W        W  429  19.163  26.673  12.064
32100W        W  430  17.281   4.448  13.451
32101W        W  431  18.080   6.290   4.243
32102W        W  432   2.462  12.362   2.215
32103W        W  433  16.672  44.501   1.914
32104W        W  434   0.383   3.728  12.392
32105W        W  435   0.439   3.438   2.193
32106W        W  436   0.481   8.388  10.609
32107W        W  437  22.742  20.754  13.447
32108W        W  438  35.500   0.294  12.571
32109W        W  439  25.122  43.932  12.936
32110W        W  440  14.588   5.707   4.783
32111W        W  441  13.665  31.431   3.790
32112W        W  442  14.325  37.374   0.463
32113W        W  443  35.108  24.170   2.204
32114W        W  444  11.677  17.177  10.015
32115W        W  445   0.273  27.533   2.811
32116W        W  446  38.972  35.970   0.279
32117W        W  447  39.946  20.626   0.851
32118W        W  448  39.548  40.963  10.486
32119W        W  449  14.778  30.561   4.243
32120W        W  450  29.618  22.109   4.812
32121W        W  451  37.466  12.847   0.472
32122W        W  452   9.221  14.653  11.604
32123W        W  453  13.637   4.933   0.818
32124W        W  454  37.927  39.889  13.838
32125W        W  455  28.451  42.436   0.826
32126W        W  456  34.910  20.157   1.311
32127W        W  457  13.327  26.508   4.210
32128W        W  458  17.700  40.889  10.948
32129W        W  459   7.674  31.432   4.259
32130W        W  460   9.888  29.101   3.637
32131W        W  461  11.166  39.888   1.442
32132W        W  462  32.011  22.559   0.295
32133W        W  463   2.843  15.622   1.419
32134W        W  464  24.560  43.972  10.481
32135W        W  465  14.321  42.935   2.230
32136W        W  466  43.767  39.383  14.820
32137W        W  467   3.312  33.037  13.342
32138W        W  468  20.661   5.791   2.678
32139W        W  469  21.039  34.081   1.374
32140W        W  470  36.352  38.496  13.055
32141W        W  471  40.525  25.060   1.421
32142W        W  472   0.981  14.292  14.870
32143W        W  473  25.525   0.361  10.908
32144W        W  474   8.287  24.497  14.813
32145W        W  475  33.900  21.090   4.631
32146W        W  476  44.946  16.648   2.392
32147W        W  477  22.094  14.153  12.533
32148W        W  478  14.255  33.571   2.732
32149W        W  479  22.236  36.516  14.783
32150W        W  480   8.329  37.989  14.896
32151W        W  481  35.457   0.987  14.967
32152W        W  482   0.335  36.355  12.373
32153W        W  483  24.566  16.802  12.027
32154W        W  484  43.433  32.984   2.408
32155W        W  485  21.086  20.677   2.810
32156W        W  486  21.233  18.209  13.823
32157W        W  487  40.938  43.994   2.402
32158W        W  488  17.651  21.649   4.812
32159W        W  489   0.822  30.948   4.703
32160W        W  490  18.763   9.705   2.808
32161W        W  491  29.932  19.229  12.540
32162W        W  492  35.519  32.054  13.320
32163W        W  493  44.385   5.836   2.384
32164W        W  494  41.948  36.390  10.576
32165W        W  495   5.224  21.684  10.967
32166W        W  496  30.039  32.125   1.935
32167W        W  497   5.855  22.025   0.747
32168W        W  498  25.664  15.096  14.441
32169W        W  499  18.627  34.486  12.509
32170W        W  500  42.464  44.980   1.369
32171W        W  501   6.740  10.174   1.824
32172W        W  502  29.428  36.561   2.192
32173W        W  503  12.703  42.030   2.304
32174W        W  504  11.633   2.410   0.932
32175W        W  505  13.239  23.061  13.988
32176W        W  506   6.784   9.735   2.277
32177W        W  507  10.743  12.181   2.196
32178W        W  508  14.695   3.305   0.478
32179W        W  509  28.579   1.319  13.376
32180W        W  510  37.029   2.945   0.875
32181W        W  511   4.347  42.923   4.171
32182W        W  512  36.356  12.116   1.852
32183W        W  513  40.336  28.989   2.709
32184W        W  514  41.789  31.515   1.425
32185W        W  515  15.118  23.142   0.405
32186W        W  516  32.114  18.129  14.947
32187W        W  517  42.364  15.701  12.010
32188W        W  518  32.137   7.680   1.702
32189W        W  519  36.519  13.809  11.884
32190W        W  520  34.977  32.593   0.295
32191W        W  521   8.845   5.874   0.929
32192W        W  522  11.792   3.886  13.018
32193W        W  523  14.695  27.632  14.021
32194W        W  524  35.027  29.441  11.027
32195W        W  525   5.904   3.808   0.445
32196W        W  526   9.795   1.469  11.886
32197W        W  527  13.243  34.524  14.903
32198W        W  528  15.818  41.298  14.973
32199W        W  529  28.534  15.631  10.994
32200W        W  530   9.666   7.673   1.432
32201W        W  531  10.844   5.829  12.860
32202W        W  532   4.881  14.667  11.889
32203W        W  533  35.013  33.110   1.255
32204W        W  534  21.132  21.170   3.647
32205W        W  535   4.449  33.441   2.842
32206W        W  536   1.881  27.091  10.917
32207W        W  537  19.559  28.001   0.312
32208W        W  538  23.011  38.892  13.057
32209W        W  539  17.088  27.026  12.486
32210W        W  540   3.932  27.614  12.088
32211W        W  541  22.693  37.499   9.952
32212W        W  542   3.798   9.880  14.311
32213W        W  543  19.104  25.013  12.835
32214W        W  544  36.867  27.583   3.202
32215W        W  545  15.290  14.687   1.222
32216W        W  546  44.277  25.174   2.742
32217W        W  547  21.561   2.243   3.753
32218W        W  548  17.277  31.150  13.453
32219W        W  549  27.450  35.059   3.866
32220W        W  550  30.932  44.969   2.187
32221W        W  551  42.940  24.000   2.852
32222W        W  552   7.902  20.604   4.819
32223W        W  553   5.390  34.588  14.892
32224W        W  554  41.936  31.027   1.394
32225W        W  555  33.414  43.288  13.991
32226W        W  556  36.354  35.487  12.020
32227W        W  557  36.589  34.940  12.092
32228W        W  558   4.305  10.292   0.347
32229W        W  559  29.485  27.678  14.504
32230W        W  560   4.896  43.304   3.221
32231W        W  561  15.140  26.187   1.859
32232W        W  562  41.907  11.853   3.777
32233W        W  563   7.733   2.921  11.574
32234W        W  564  42.797  23.042  12.960
32235W        W  565  20.094  36.367  10.572
32236W        W  566   0.830  36.953   1.348
32237W        W  567  38.058   3.730   2.886
32238W        W  568   3.258  35.867   5.658
32239W        W  569  17.789  33.501   2.395
32240W        W  570  14.809  40.539  10.493
32241W        W  571  14.175  17.070   1.770
32242W        W  572  24.083   4.205   0.318
32243W        W  573  42.456  41.999  12.461
32244W        W  574  16.756  16.638   0.338
32245W        W  575   6.327   9.256   2.282
32246W        W  576  29.059  17.187  14.937
32247W        W  577  39.451   5.433   4.599
32248W        W  578  36.556   9.729  13.803
32249W        W  579   2.415  24.103   1.713
32250W        W  580  40.337  37.394   1.239
32251W        W  581  14.103  32.975  11.914
32252W        W  582  42.483  16.094   1.273
32253W        W  583  36.465  14.201  10.403
32254W        W  584  13.337  34.061  11.548
32255W        W  585   2.448  44.491  10.146
32256W        W  586  44.504  17.117   2.883
32257W        W  587  32.593  10.752  14.351
32258W        W  588   1.305  30.573   1.214
32259W        W  589  15.189  23.101  12.956
32260W        W  590  15.316   5.394  13.897
32261W        W  591  12.187  29.132   1.884
32262W        W  592   5.359  12.712  10.507
32263W        W  593   6.831   6.217   2.764
32264W        W  594  26.565  29.142   4.200
32265W        W  595   2.730  34.951   3.230
32266W        W  596   0.960  39.029   0.466
32267W        W  597  18.787  23.645   4.120
32268W        W  598  17.228  34.523  10.461
32269W        W  599  36.001   6.345   2.663
32270W        W  600  37.950  37.389  14.839
32271W        W  601  41.392   0.297   4.132
32272W        W  602  40.911  25.059   4.299
32273W        W  603  33.537  24.659   4.310
32274W        W  604   4.816  42.865   4.280
32275W        W  605  35.045  33.018  11.570
32276W        W  606   5.805  34.929  13.410
32277W        W  607  27.950  28.952   1.734
32278W        W  608  35.023   0.460  11.596
32279W        W  609  28.972   5.398  14.295
32280W        W  610   8.878  20.231   4.339
32281W        W  611   2.900   9.157  13.878
32282W        W  612  16.076   4.788  12.374
32283W        W  613  43.878   6.690  11.109
32284W        W  614   7.680  41.832  14.959
32285W        W  615   0.413  30.611   1.261
32286W        W  616   1.858  36.954  14.338
32287W        W  617  12.707  33.055   3.347
32288W        W  618  22.136   4.382  14.377
32289W        W  619  34.385   0.946  11.595
32290W        W  620   8.727  43.842  14.965
32291W        W  621  31.577   5.833  11.905
32292W        W  622   7.819   9.327   1.837
32293W        W  623  41.981  17.693   4.213
32294W        W  624  41.932  43.389  14.916
32295W        W  625  20.076  34.948  14.862
32296W        W  626  37.914  35.424  14.847
32297W        W  627  22.658  26.699  11.570
32298W        W  628  26.551  23.074  12.991
32299W        W  629  36.368  37.352  14.992
32300W        W  630  39.012   1.885  14.379
32301W        W  631  29.479   0.851   4.629
32302W        W  632   6.870  20.247   3.164
32303W        W  633  39.956  30.456  12.087
32304W        W  634  17.580  21.689  11.872
32305W        W  635   2.298  34.022  10.930
32306W        W  636  24.614   0.987  12.422
32307W        W  637  26.985  26.969   3.691
32308W        W  638   7.820   9.390   2.386
32309W        W  639  18.721  19.570  14.866
32310W        W  640  13.618  44.879   1.291
32311W        W  641  12.345  18.630   2.230
32312W        W  642  38.045  25.981  11.860
32313W        W  643   6.819  13.696  12.966
32314W        W  644  18.200  28.955   2.414
32315W        W  645  22.608  23.029   0.429
32316W        W  646  18.587  13.774  14.776
32317W        W  647  15.309   9.743  13.857
32318W        W  648  28.960  17.301   1.934
32319W        W  649  37.363  11.224  11.093
32320W        W  650   7.288  18.080  13.450
32321W        W  651  36.945  19.205  10.445
32322W        W  652  32.016  33.033   4.700
32323W        W  653  16.183   9.322   4.620
32324W        W  654   3.918  35.032  11.409
32325W        W  655   8.678  39.961   1.719
32326W        W  656  13.639   1.892   1.255
32327W        W  657   5.779  28.934   3.211
32328W        W  658  36.937   1.914  14.011
32329W        W  659  34.882  25.073   1.252
32330W        W  660  33.467  44.930  12.909
32331W        W  661  23.074  30.131   0.272
32332W        W  662  41.834   3.352  12.049
32333W        W  663   9.171  36.542  10.636
32334W        W  664  13.628   9.337   2.892
32335W        W  665  40.920  17.283   1.882
32336W        W  666  36.360  43.293  10.625
32337W        W  667   6.807  38.937  10.138
32338W        W  668  12.658   5.756   0.268
32339W        W  669  16.703  18.783   4.660
32340W        W  670   9.752  30.514  13.055
32341W        W  671  37.019  10.835  11.927
32342W        W  672  11.665  18.058  13.980
32343W        W  673  36.048  35.099   0.411
32344W        W  674  43.387  43.454  12.861
32345W        W  675  38.486  41.866   0.362
32346W        W  676  39.345   0.368   0.469
32347W        W  677  35.998  35.393  12.982
32348W        W  678  33.574  10.313  10.425
32349W        W  679  23.537   6.705   2.733
32350W        W  680  43.897  14.811  14.982
32351W        W  681  43.769  41.309  14.903
32352W        W  682   6.783   7.174   1.699
32353W        W  683  39.976  12.175  12.551
32354W        W  684  12.713  21.193   1.435
32355W        W  685  27.067  13.712  14.950
32356W        W  686  19.059  44.928  13.005
32357W        W  687  27.096  30.415   1.810
32358W        W  688  15.200  11.841   0.966
32359W        W  689  21.739  44.276  14.305
32360W        W  690  28.176  30.108  13.871
32361W        W  691  17.071   8.677   1.780
32362W        W  692  23.721  28.509  10.462
32363W        W  693  38.423  39.850   1.258
32364W        W  694  14.708  39.915   4.294
32365W        W  695   7.668   7.242   2.755
32366W        W  696   7.413  26.181  14.865
32367W        W  697   9.752  14.255   4.763
32368W        W  698   7.740  13.641   1.402
32369W        W  699  25.708  33.882   1.374
32370W        W  700  10.172  30.460  13.387
32371W        W  701   7.775  20.683  13.480
32372W        W  702  36.527  31.113   0.759
32373W        W  703   6.238  27.464   0.765
32374W        W  704  34.949  21.215  10.041
32375W        W  705  40.842  27.585  14.853
32376W        W  706  18.766  19.685  12.933
32377W        W  707  10.255  22.716   2.389
32378W        W  708  26.975  14.795   2.881
32379W        W  709  19.168  17.114   1.257
32380W        W  710   7.753  15.759  10.617
32381W        W  711  13.116  36.377   4.223
32382W        W  712  26.056  41.798   2.824
32383W        W  713   6.835   5.688  10.497
32384W        W  714  16.652  38.431   3.164
32385W        W  715  27.608  34.450   4.679
32386W        W  716   2.933  39.543   4.827
32387W        W  717  20.213  25.018  11.558
32388W        W  718   0.938  15.294   2.281
32389W        W  719  15.671  14.307  13.433
32390W        W  720  33.077  38.444   2.704
32391W        W  721  28.042   8.767   3.699
32392W        W  722  35.368  30.057   4.775
32393W        W  723  30.009  33.459   3.339
32394W        W  724   2.774  14.813  12.436
32395W        W  725  24.059  34.080   3.285
32396W        W  726  28.012  35.060  12.058
32397W        W  727  20.229  11.337   0.762
32398W        W  728   5.404  23.015  12.946
32399W        W  729   4.831  17.755   2.874
32400W        W  730  22.216  22.164  13.348
32401W        W  731  32.050  38.555  12.019
32402W        W  732  35.532  17.740   4.600
32403W        W  733  23.089  24.516   4.741
32404W        W  734  24.225  38.528   3.695
32405W        W  735  12.209  43.924  12.074
32406W        W  736  18.252  20.657  14.803
32407W        W  737   9.854  39.890  10.496
32408W        W  738  42.953  13.792   0.427
32409W        W  739  27.563  33.435  14.326
32410W        W  740  24.203   4.430  11.065
32411W        W  741  11.267  39.396   1.371
32412W        W  742  40.302   6.374   4.134
32413W        W  743   7.887  12.253  12.093
32414W        W  744  44.953  32.475   3.208
32415W        W  745   1.838  44.825  14.507
32416W        W  746   8.178   8.166  10.419
32417W        W  747  36.979  32.052   3.176
32418W        W  748  19.596  22.735   2.339
32419W        W  749  37.004  13.680  13.411
32420W        W  750  28.093  38.022  14.841
32421W        W  751  17.635   0.759   3.351
32422W        W  752  38.896  33.957  12.928
32423W        W  753  40.994  39.486   2.706
32424W        W  754  32.428  14.214   0.424
32425W        W  755   8.689  40.469   5.284
32426W        W  756  17.744  28.047  12.032
32427W        W  757  16.685  33.950   2.855
32428W        W  758   6.284  28.442   0.314
32429W        W  759   9.844  14.146  12.574
32430W        W  760  44.972  22.141  14.497
32431W        W  761  34.495  28.450   1.417
32432W        W  762  19.254  13.668   1.753
32433W        W  763  44.776  11.180   3.146
32434W        W  764  41.838  17.629   1.827
32435W        W  765  15.246  41.504  14.315
32436W        W  766   2.311  15.809  13.911
32437W        W  767   6.763  35.870  14.879
32438W        W  768  40.314  35.085   0.809
32439W        W  769  32.998  24.230  12.471
32440W        W  770  12.226  41.394  12.840
32441W        W  771  40.900  43.312   1.430
32442W        W  772  21.584  34.569   2.181
32443W        W  773  31.625   8.258  12.361
32444W        W  774  44.404  43.346  14.818
32445W        W  775  21.690   3.952   2.810
32446W        W  776  10.190  19.119  13.887
32447W        W  777  34.389  38.941  11.959
32448W        W  778  20.734  37.367   3.378
32449W        W  779  26.480  37.564   3.383
32450W        W  780   3.366  22.203  12.884
32451W        W  781  13.155  37.010  11.452
32452W        W  782   7.720  40.054  14.419
32453W        W  783  34.482  29.979  11.097
32454W        W  784  16.276  11.238  14.032
32455W        W  785  20.260   9.215   0.441
32456W        W  786  12.331   7.259  14.451
32457W        W  787  33.423  37.934  13.485
32458W        W  788  13.663   8.790   3.695
32459W        W  789  30.493  40.938  15.000
32460W        W  790   5.882  38.059  11.082
32461W        W  791  16.620  10.189  12.008
32462W        W  792  29.662  12.835  13.476
32463W        W  793   2.227  17.619  12.395
32464W        W  794  43.864  44.972  12.442
32465W        W  795  31.001  10.857   4.352
32466W        W  796  44.956  32.047   2.392
32467W        W  797   7.284  15.248   2.811
32468W        W  798  13.347  20.040  11.877
32469W        W  799  20.654  17.743   3.179
32470W        W  800  14.685  34.080   1.931
32471W        W  801  15.700  38.541  11.113
32472W        W  802   6.405  38.568   1.424
32473W        W  803  22.075  25.168   0.959
32474W        W  804  29.037  30.073   4.781
32475W        W  805  34.117  38.039  12.902
32476W        W  806  43.791  28.930   3.152
32477W        W  807   8.277  33.945  10.519
32478W        W  808   5.795  19.589   0.749
32479W        W  809  39.034  37.571  14.399
32480W        W  810  32.900   9.729   1.314
32481W        W  811  28.471  31.111   1.790
32482W        W  812  37.475  39.945  13.480
32483W        W  813   8.789  34.416  14.280
32484W        W  814   2.838   6.888  11.526
32485W        W  815  35.962  12.229  14.781
32486W        W  816   2.849  44.504  14.294
32487W        W  817  21.190  28.945   5.114
32488W        W  818  19.084  34.387   4.653
32489W        W  819  20.178  24.179   5.684
32490W        W  820  38.892  43.913   0.316
32491W        W  821  22.019  37.980   4.627
32492W        W  822  27.032  36.470  10.502
32493W        W  823  17.297   8.173  12.052
32494W        W  824  42.790  31.612   1.271
32495W        W  825  31.427  19.635   3.149
32496W        W  826   8.661  40.495  14.513
32497W        W  827  36.381  10.264  12.560
32498W        W  828   1.273   2.741   4.241
32499W        W  829  44.454  17.632   3.714
32500W        W  830  14.754   6.253  12.879
32501W        W  831  31.423  11.172   4.736
32502W        W  832  34.395  21.112  11.084
32503W        W  833  35.076  11.220  10.910
32504W        W  834  12.723  11.855   1.907
32505W        W  835  36.941  22.708  11.917
32506W        W  836  11.358  28.089  11.961
32507W        W  837  32.560  30.985   4.232
32508W        W  838  15.104  10.351  12.384
32509W        W  839  32.049   0.825   2.210
32510W        W  840  40.469   8.179  12.957
32511W        W  841  37.579  28.579  11.931
32512W        W  842   2.472  39.328  12.446
32513W        W  843  18.636  28.066  11.119
32514W        W  844  29.941   1.865  14.380
32515W        W  845  26.648   5.786   4.338
32516W        W  846  40.825  20.050   0.443
32517W        W  847  21.615  16.169   0.738
32518W        W  848  36.896   2.294   2.239
32519W        W  849  15.134  14.144   1.338
32520W        W  850  14.267  32.550   4.769
32521W        W  851  16.303  10.827   3.190
32522W        W  852  41.941  27.167   1.818
32523W        W  853  32.897   5.713   3.256
32524W        W  854  29.127  29.549   1.797
32525W        W  855  25.520   4.208  13.012
32526W        W  856   8.700  29.589  12.918
32527W        W  857   0.898  10.699  12.520
32528W        W  858  31.017  23.563  14.437
32529W        W  859  14.665  18.083  11.427
32530W        W  860  18.623   3.367   2.786
32531W        W  861  35.006   7.323  10.415
32532W        W  862  29.049  20.546   4.778
32533W        W  863  16.702  41.010   4.729
32534W        W  864   9.206  23.017  13.376
32535W        W  865  38.964  27.621   2.850
32536W        W  866  12.291  10.737  13.351
32537W        W  867  28.620  36.550  13.496
32538W        W  868  17.607  42.314   2.236
32539W        W  869  29.030  32.627   1.318
32540W        W  870  44.835  36.964  12.044
32541W        W  871  12.246  29.602   2.888
32542W        W  872  37.490  40.028  11.008
32543W        W  873  10.162  19.557  10.160
32544W        W  874  10.321  26.557  10.458
32545W        W  875  26.485  24.667  11.019
32546W        W  876  18.745  38.567  10.892
32547W        W  877  19.252  24.626  10.518
32548W        W  878  39.442  29.650   3.760
32549W        W  879   8.354  11.156  10.966
32550W        W  880  44.766  42.935  10.952
32551W        W  881  31.145  16.268   0.396
32552W        W  882  36.358   7.331   9.934
32553W        W  883  29.982  34.401   3.334
32554W        W  884  37.927  30.635   1.735
32555W        W  885  22.133  32.966  13.842
32556W        W  886   6.401   2.243   0.838
32557W        W  887   9.703  27.577  12.933
32558W        W  888  28.576   8.268  13.933
32559W        W  889  16.690  32.885  12.423
32560W        W  890  35.863  33.979  10.455
32561W        W  891  34.000  19.658  10.562
32562W        W  892  34.557   3.321  11.975
32563W        W  893   8.875  33.005  13.361
32564W        W  894  18.270  10.199  14.762
32565W        W  895  39.860  16.787  14.293
32566W        W  896   1.875  44.454  13.471
32567W        W  897  34.028  39.512  13.046
32568W        W  898  44.315  12.191   3.629
32569W        W  899  30.506  34.514  13.369
32570W        W  900   0.367  34.927  13.885
32571W        W  901  15.794  39.892   2.758
32572W        W  902  25.684   8.329   1.216
32573W        W  903  16.775  39.978  14.328
32574W        W  904  39.951  30.924   4.766
32575W        W  905   7.416  26.976   4.633
32576W        W  906  25.654  22.579  11.051
32577W        W  907  15.287  24.692  12.962
32578W        W  908   1.410  39.815  13.307
32579W        W  909   1.900   7.180   2.722
32580W        W  910  32.953  10.346  12.026
32581W        W  911  34.948  20.144  10.465
32582W        W  912  20.584  17.190  10.496
32583W        W  913   3.411  13.726  14.818
32584W        W  914  36.496  40.332   3.676
32585W        W  915  11.246  19.202  11.021
32586W        W  916  35.043  30.442   0.732
32587W        W  917  40.890  32.392  13.979
32588W        W  918   6.713  23.504   0.447
32589W        W  919   7.317   6.186   1.239
32590W        W  920  35.893  10.359  13.408
32591W        W  921  37.440  18.561   2.325
32592W        W  922   5.380  35.032  11.089
32593W        W  923  33.443   4.855  12.985
32594W        W  924  27.489  38.342  10.561
32595W        W  925  24.598   1.785  14.428
32596W        W  926   4.365   3.922   3.727
32597W        W  927  30.539  43.014  14.277
32598W        W  928   3.239  11.676   4.180
32599W        W  929  39.043  37.876   2.259
32600W        W  930  39.481   4.399  11.116
32601W        W  931  30.439   2.411   0.880
32602W        W  932  30.131  36.880   4.671
32603W        W  933  39.034  23.032  11.897
32604W        W  934  34.390  23.223   1.838
32605W        W  935  25.976  37.368   0.850
32606W        W  936  12.694   9.276  13.797
32607W        W  937  15.624  43.886   0.861
32608W        W  938  33.489  20.242  12.480
32609W        W  939  14.279  17.080   4.644
32610W        W  940  23.097  44.368  11.506
32611W        W  941  28.558   8.879   1.342
32612W        W  942  16.118  35.604  14.486
32613W        W  943   1.866   6.766  12.975
32614W        W  944  24.684  11.287   0.909
32615W        W  945   0.763  33.114   1.731
32616W        W  946  10.649  14.823  13.852
32617W        W  947   0.297  34.004   0.466
32618W        W  948  40.407   4.386   4.810
32619W        W  949  41.959  32.393  10.513
32620W        W  950  21.084  21.698   1.308
32621W        W  951  17.643  10.312  14.316
32622W        W  952  24.193  27.954   2.785
32623W        W  953  27.590  35.870   0.440
32624W        W  954   5.863   3.246  14.377
32625W        W  955  30.449  17.704   1.421
32626W        W  956  19.045  35.569   4.747
32627W        W  957  16.635   0.775  10.435
32628W        W  958  44.372  24.131  14.316
32629W        W  959  25.660  22.224  12.045
32630W        W  960  12.814  32.518   0.936
32631W        W  961  11.809  26.119   4.696
32632W        W  962  42.029  32.998  11.555
32633W        W  963   9.296  31.453   1.303
32634W        W  964  24.670   4.273   0.812
32635W        W  965  40.893  36.924  14.809
32636W        W  966  43.855  27.675   4.772
32637W        W  967  23.647  36.402  11.474
32638W        W  968  25.610  24.578   1.820
32639W        W  969  43.315   4.896   2.280
32640W        W  970  17.602  24.147  13.442
32641W        W  971  15.208   3.722  14.008
32642W        W  972  22.579  34.970   3.238
32643W        W  973  20.671  31.130   2.774
32644W        W  974  35.473  29.960  12.017
32645W        W  975   2.450  20.563   0.907
32646W        W  976  39.848  17.671  13.804
32647W        W  977  28.618  15.622  13.943
32648W        W  978  29.646  35.898   4.228
32649W        W  979   8.879   6.270  13.379
32650W        W  980  18.594  25.578   1.774
32651W        W  981  44.352  11.134   2.285
32652W        W  982  19.614  14.233   4.180
32653W        W  983  38.008  18.281   1.263
32654W        W  984  33.435  43.792   4.254
32655W        W  985   8.175  31.484  13.542
32656W        W  986  26.177  41.880   3.358
32657W        W  987   7.345  17.657  12.075
32658W        W  988   0.345  24.497   4.206
32659W        W  989  13.748  44.845  11.529
32660W        W  990   2.966  15.819   1.903
32661W        W  991  37.518  29.541  11.926
32662W        W  992  14.210  42.356  11.496
32663W        W  993  29.491  35.547  11.909
32664W        W  994  16.788  43.982  12.047
32665W        W  995  24.014   5.251   3.205
32666W        W  996   3.825   8.853   4.333
32667W        W  997   2.750  41.973   2.804
32668W        W  998  32.514  26.064   2.820
32669W        W  999  32.964  40.039   2.371
32670W        W 1000  12.335  43.433   4.269
32671W        W 1001  19.047  36.884   4.745
32672W        W 1002  41.361   8.167   0.445
32673W        W 1003  29.053  17.730   1.790
32674W        W 1004  40.421  31.637  14.030
32675W        W 1005   5.876  18.659  14.873
32676W        W 1006  33.573  17.689   2.415
32677W        W 1007  12.650  36.566   0.768
32678W        W 1008  25.602  34.073   1.835
32679W        W 1009  13.762  18.699  13.802
32680W        W 1010  37.438  38.060  10.526
32681W        W 1011  25.115  23.180  13.376
32682W        W 1012  28.542  31.070   4.234
32683W        W 1013   3.880  36.047   9.674
32684W        W 1014  42.523  26.064  10.421
32685W        W 1015   4.856  41.443   0.385
32686W        W 1016  39.505  10.341  10.009
32687W        W 1017  22.021  30.046   2.302
32688W        W 1018  42.843  38.866  11.904
32689W        W 1019  43.303  24.006  10.606
32690W        W 1020  16.621  29.612   0.909
32691W        W 1021  44.276  27.051  11.044
32692W        W 1022  34.385   1.748   1.708
32693W        W 1023  44.268  31.064  12.539
32694W        W 1024   8.184  10.203   1.280
32695W        W 1025  44.295  33.909  13.503
32696W        W 1026  38.892  43.516  13.033
32697W        W 1027  36.588   6.716  14.969
32698W        W 1028   3.415  35.586  10.938
32699W        W 1029   4.777  15.216   3.238
32700W        W 1030  38.940   9.739  10.891
32701W        W 1031  43.867  44.349   2.403
32702W        W 1032  24.204  29.544  14.300
32703W        W 1033  13.633  30.101  14.299
32704W        W 1034  20.537  19.747   4.350
32705W        W 1035  14.233  21.581  12.535
32706W        W 1036  25.007  43.019   4.260
32707W        W 1037  21.625  28.478   2.773
32708W        W 1038   0.907  29.524   4.346
32709W        W 1039  23.087  12.316  10.457
32710W        W 1040  11.316  25.008  13.383
32711W        W 1041  19.749  35.532  14.878
32712W        W 1042  15.315  21.131  11.951
32713W        W 1043  24.046   2.761  10.982
32714W        W 1044  20.154  36.003   3.805
32715W        W 1045   0.396   0.790   4.309
32716W        W 1046  39.901  20.065  13.824
32717W        W 1047  42.473   3.746   0.369
32718W        W 1048  32.085   5.401   2.368
32719W        W 1049  21.718  38.061   0.262
32720W        W 1050   2.278  33.573  10.989
32721W        W 1051  44.777  38.012   4.181
32722W        W 1052   7.723  26.201  11.543
32723W        W 1053   8.808  29.489   3.146
32724W        W 1054  17.775  11.839  11.056
32725W        W 1055  38.918  33.548  11.017
32726W        W 1056  35.956  10.659   0.373
32727W        W 1057  22.101  30.545  12.920
32728W        W 1058  13.768  35.432   1.705
32729W        W 1059  11.292  17.206   3.222
32730W        W 1060  37.349  33.581  14.904
32731W        W 1061  42.024   2.467  13.831
32732W        W 1062  12.203   7.224  12.529
32733W        W 1063  22.675  34.573   3.821
32734W        W 1064  30.953  42.374  14.387
32735W        W 1065   6.739   2.370  11.394
32736W        W 1066   6.717  21.045   4.184
32737W        W 1067   1.970   3.877   0.893
32738W        W 1068  38.407   5.839  14.015
32739W        W 1069  30.982  15.819   4.780
32740W        W 1070  33.047  10.380   1.286
32741W        W 1071  14.756  14.700   3.696
32742W        W 1072  25.549  28.511  13.913
32743W        W 1073  24.194  42.925  14.948
32744W        W 1074  39.860  33.468   0.797
32745W        W 1075  13.172  33.123  10.555
32746W        W 1076  17.630   5.797  11.468
32747W        W 1077   9.380  19.214  10.508
32748W        W 1078  32.116  26.508   4.822
32749W        W 1079   7.889  15.712  14.984
32750W        W 1080  30.982  20.174   3.863
32751W        W 1081  43.905  10.805  12.008
32752W        W 1082  28.960  24.157  11.055
32753W        W 1083  39.535  28.659   4.679
32754W        W 1084  34.877  13.261   0.318
32755W        W 1085  44.429  34.604   2.393
32756W        W 1086  27.116  31.084   4.334
32757W        W 1087  10.329  35.517  11.982
32758W        W 1088   0.261   0.936  14.965
32759W        W 1089  34.025  17.569  11.122
32760W        W 1090  22.192  10.160  14.815
32761W        W 1091  36.930   6.916  11.869
32762W        W 1092  37.968  18.118   3.224
32763W        W 1093  17.784   6.291  13.816
32764W        W 1094  16.180  28.078   9.967
32765W        W 1095   5.739   4.410   3.742
32766W        W 1096  29.525  37.402   3.158
32767W        W 1097  40.540  33.081   4.288
32768W        W 1098  22.689   0.876  11.038
32769W        W 1099  30.110  42.924  14.857
32770W        W 1100   7.224  11.369   3.761
32771W        W 1101   4.907   8.184  14.317
32772W        W 1102  32.915  35.911  11.581
32773W        W 1103   2.871  35.477  14.305
32774W        W 1104  14.308  37.950   4.312
32775W        W 1105  14.327  18.724  11.905
32776W        W 1106  32.492  43.911  11.587
32777W        W 1107  29.158  23.556  11.049
32778W        W 1108  43.925  24.542   1.367
32779W        W 1109  23.514  39.921  13.450
32780W        W 1110  14.272   0.828  11.120
32781W        W 1111  14.773  10.645   0.895
32782W        W 1112  38.934  17.601   4.134
32783W        W 1113   1.419  19.134  11.433
32784W        W 1114   7.329  11.353  12.088
32785W        W 1115  17.632  25.685   5.120
32786W        W 1116  35.010  23.107  13.334
32787W        W 1117  26.506  17.651  11.960
32788W        W 1118  43.929  30.616  12.392
32789W        W 1119   0.860   5.415   1.882
32790W        W 1120  32.593  38.365   4.170
32791W        W 1121  20.689   8.321   2.398
32792W        W 1122   8.680  29.969  13.488
32793W        W 1123  29.459  42.863  12.424
32794W        W 1124   6.710  10.304  10.951
32795W        W 1125  35.867   1.464   4.257
32796W        W 1126  30.600  23.671   0.272
32797W        W 1127  22.543  36.450  11.874
32798W        W 1128  32.094  44.764   2.679
32799W        W 1129  31.513  37.086  14.864
32800W        W 1130   3.954  30.975   3.640
32801W        W 1131  40.452  35.468   1.424
32802W        W 1132  26.065  11.756  14.954
32803W        W 1133   7.379  23.644   3.706
32804W        W 1134  10.794  14.665   1.699
32805W        W 1135  24.566  22.509   3.183
32806W        W 1136  23.991   5.742  14.764
32807W        W 1137  17.619  28.660   1.407
32808W        W 1138  15.295  22.198   3.765
32809W        W 1139  35.911  15.240  13.833
32810W        W 1140   2.471  41.870  12.067
32811W        W 1141  29.962  26.697  10.642
32812W        W 1142   0.765  28.997   4.798
32813W        W 1143   6.227   4.932   3.188
32814W        W 1144  38.006  38.822  11.405
32815W        W 1145  25.674  20.644   1.867
32816W        W 1146  38.465  21.519   2.698
32817W        W 1147  31.994  38.379   1.857
32818W        W 1148  10.780  37.501   9.971
32819W        W 1149   2.324  14.101  11.964
32820W        W 1150   9.343  17.695  14.511
32821W        W 1151  28.648  28.532   1.746
32822W        W 1152  33.061  10.191   3.324
32823W        W 1153  15.785  41.297  13.486
32824W        W 1154  40.974  38.521   2.850
32825W        W 1155  11.852  15.591   3.672
32826W        W 1156  20.031  17.137   1.450
32827W        W 1157   2.877  14.197   4.311
32828W        W 1158  23.587  40.971   0.386
32829W        W 1159  42.328  42.935   4.836
32830W        W 1160  21.196  39.439   3.716
32831W        W 1161  17.768  28.161  12.397
32832W        W 1162  29.628  18.625  13.890
32833W        W 1163  37.861  34.405  12.386
32834W        W 1164  29.103  39.978  13.986
32835W        W 1165  27.979  33.018   0.420
32836W        W 1166  35.991  24.061  11.949
32837W        W 1167  21.206   9.879  10.930
32838W        W 1168  30.419  15.256   1.837
32839W        W 1169  28.434  29.431  12.963
32840W        W 1170  26.695  23.986   2.729
32841W        W 1171  33.510  27.089  11.540
32842W        W 1172  31.971  19.745  13.380
32843W        W 1173  41.842   8.391   4.761
32844W        W 1174  28.510  32.534   5.154
32845W        W 1175  29.090  14.110   0.804
32846W        W 1176  13.651  35.563   2.185
32847W        W 1177  17.574  11.743   3.222
32848W        W 1178  25.532  28.166   0.369
32849W        W 1179  27.640  12.687  12.831
32850W        W 1180  42.991   7.288  10.458
32851W        W 1181   7.293   2.796   1.866
32852W        W 1182  20.172  13.602   4.654
32853W        W 1183  24.021  22.251  13.468
32854W        W 1184  15.697  38.907   3.329
32855W        W 1185  24.119  32.053   2.295
32856W        W 1186  26.541  12.685   4.289
32857W        W 1187  43.446  42.803   3.266
32858W        W 1188  19.211  22.182  11.947
32859W        W 1189   5.878  31.553  10.425
32860W        W 1190  23.113  22.710  13.548
32861W        W 1191   9.225  23.503   3.637
32862W        W 1192  11.746   0.752   5.126
32863W        W 1193   0.373   6.750   3.328
32864W        W 1194  22.596  42.958  10.136
32865W        W 1195  42.961  34.049   2.825
32866W        W 1196   0.910  23.680   4.194
32867W        W 1197   5.837  10.221   0.742
32868W        W 1198  32.040  31.085   1.926
32869W        W 1199  39.027  23.521  14.868
32870W        W 1200  27.195  35.904  14.508
32871W        W 1201  32.534  15.674   3.205
32872W        W 1202  25.517  42.918  10.018
32873W        W 1203  29.568  35.878   2.404
32874W        W 1204   0.848  35.878   3.372
32875W        W 1205  21.750  19.680  11.969
32876W        W 1206  40.451  23.651   0.799
32877W        W 1207   9.857  10.705   3.251
32878W        W 1208  22.696  22.630   2.785
32879W        W 1209  44.925  26.974   1.315
32880W        W 1210  40.808  30.611  14.760
32881W        W 1211  41.789  11.640  11.591
32882W        W 1212   6.398  24.593   4.799
32883W        W 1213  26.700  14.305  12.086
32884W        W 1214  43.792  22.600   1.714
32885W        W 1215  24.668   3.766   0.281
32886W        W 1216  29.643  23.179   2.391
32887W        W 1217  39.330  18.193   1.411
32888W        W 1218  39.972   1.399   1.445
32889W        W 1219  28.440   2.753  14.988
32890W        W 1220  10.381   3.330  10.159
32891W        W 1221  36.007  35.031   1.223
32892W        W 1222  20.245  20.134   3.641
32893W        W 1223  20.131  25.526   2.282
32894W        W 1224  23.575   3.820  12.965
32895W        W 1225  34.093  11.686   3.270
32896W        W 1226  43.508  33.431   2.803
32897W        W 1227   3.910  12.692  14.982
32898W        W 1228   8.889  27.568  10.614
32899W        W 1229  37.049  42.507  10.643
32900W        W 1230  16.297  29.155   3.218
32901W        W 1231  12.334  24.643  12.904
32902W        W 1232   9.730   5.910  10.557
32903W        W 1233  30.619   0.774  10.481
32904W        W 1234   2.837  31.002  12.503
32905W        W 1235  20.757   5.784  11.027
32906W        W 1236  40.933  31.930  13.996
32907W        W 1237  38.846  18.608  13.038
32908W        W 1238  31.436  41.293   3.663
32909W        W 1239  29.653   1.435  11.932
32910W        W 1240   8.681  34.912  14.872
32911W        W 1241  36.358  20.063  13.989
32912W        W 1242   1.737  24.658  14.327
32913W        W 1243   7.769  19.546   1.302
32914W        W 1244  43.378  35.096  14.299
32915W        W 1245   7.753  29.485   2.182
32916W        W 1246   5.248   5.787  11.444
32917W        W 1247  18.637  22.145   4.616
32918W        W 1248  11.718  36.438  14.508
32919W        W 1249  43.273   0.833   4.244
32920W        W 1250  17.260   9.344   1.819
32921W        W 1251  16.730  24.671  10.923
32922W        W 1252   8.821  40.963  12.899
32923W        W 1253  11.290   9.837   1.254
32924W        W 1254  41.984  19.642  14.959
32925W        W 1255  35.588  23.054  11.396
32926W        W 1256  16.664  21.526   4.325
32927W        W 1257   4.219  44.309  11.400
32928W        W 1258  43.910  25.176  13.472
32929W        W 1259  27.477  14.635  13.870
32930W        W 1260   4.415  18.758  13.997
32931W        W 1261  13.754   9.346  10.437
32932W        W 1262  30.595  27.569  14.328
32933W        W 1263  21.019  22.043  14.320
32934W        W 1264   3.853  19.671  14.966
32935W        W 1265  20.531   5.346  13.842
32936W        W 1266  34.445   8.197  12.824
32937W        W 1267  16.629  25.991  13.924
32938W        W 1268  21.722  33.009  13.384
32939W        W 1269  44.885  38.040   3.197
32940W        W 1270  34.368  37.922   0.261
32941W        W 1271  29.551  11.276   0.321
32942W        W 1272  13.245  21.677  11.399
32943W        W 1273  39.356   0.765   3.235
32944W        W 1274  40.954   3.272   4.122
32945W        W 1275  24.581  19.606  10.446
32946W        W 1276  34.492  43.940   4.615
32947W        W 1277   6.748  15.665  14.313
32948W        W 1278  28.629  32.489  14.795
32949W        W 1279  34.520  21.709  11.122
32950W        W 1280  43.959  21.536  11.474
32951W        W 1281  34.541   5.395  12.348
32952W        W 1282  41.970  24.009   3.857
32953W        W 1283  15.817   9.180   0.738
32954W        W 1284  43.979  29.557  11.923
32955W        W 1285  19.271  33.431  10.537
32956W        W 1286  16.140  26.075   4.667
32957W        W 1287  25.493  22.570  11.505
32958W        W 1288  44.979   2.806  14.977
32959W        W 1289  33.626  27.654  11.555
32960W        W 1290  31.015  32.536   0.272
32961W        W 1291  10.651  12.739  10.569
32962W        W 1292  36.894  30.416  14.936
32963W        W 1293  32.562   9.178   3.236
32964W        W 1294   4.270  29.449  12.437
32965W        W 1295  26.965   5.759  14.326
32966W        W 1296  15.631  43.840  13.013
32967W        W 1297  14.172   8.688  11.108
32968W        W 1298  20.274  15.720  14.910
32969W        W 1299   3.896   7.840   0.320
32970W        W 1300  11.722  18.262  13.006
32971W        W 1301   5.363   5.220   3.278
32972W        W 1302  43.814  27.080  14.302
32973W        W 1303   0.360  31.501  14.836
32974W        W 1304  21.039  18.583  14.444
32975W        W 1305  37.083  35.978  11.048
32976W        W 1306  10.704  21.599   0.431
32977W        W 1307  34.119   2.780  14.286
32978W        W 1308   2.749  41.989   2.256
32979W        W 1309  39.487  41.838   4.182
32980W        W 1310  12.163   8.200   3.362
32981W        W 1311   9.376  33.397  10.626
32982W        W 1312  18.610   9.394  12.834
32983W        W 1313  43.948  29.989   2.271
32984W        W 1314  11.696  22.060  14.999
32985W        W 1315  32.944  21.169   1.394
32986W        W 1316  24.180   1.978  10.143
32987W        W 1317   2.865  42.514   0.404
32988W        W 1318  42.524  25.142   1.409
32989W        W 1319   7.295  29.519   2.300
32990W        W 1320  22.076  37.041   2.834
32991W        W 1321   6.270  25.555   0.362
32992W        W 1322  40.308  28.018  14.288
32993W        W 1323  24.124  44.993  10.643
32994W        W 1324   6.916  27.137  14.385
32995W        W 1325  32.633   9.735  14.989
32996W        W 1326  21.563  40.909  12.044
32997W        W 1327  30.609  25.013  12.826
32998W        W 1328  34.400  21.574  13.800
32999W        W 1329   0.418  16.683  11.127
33000W        W 1330  29.962   0.800   2.396
33001W        W 1331  21.171  42.510   3.167
33002W        W 1332  25.183   5.221  14.291
33003W        W 1333  39.478  18.223   2.368
33004W        W 1334  36.371  39.845   0.927
33005W        W 1335  13.605  35.947  11.593
33006W        W 1336  34.374  24.601  13.338
33007W        W 1337  34.052  35.934   2.372
33008W        W 1338   8.856   8.813  12.945
33009W        W 1339  21.700  43.289   1.268
33010W        W 1340  28.533  32.094  10.012
33011W        W 1341   4.707  44.827  11.588
33012W        W 1342  38.554  16.113   3.303
33013W        W 1343  21.109  37.874  12.907
33014W        W 1344   8.824  13.844  14.990
33015W        W 1345   0.308  43.838   3.754
33016W        W 1346  33.020   2.401   0.383
33017W        W 1347   2.463  14.215  11.547
33018W        W 1348  37.950  28.070   4.821
33019W        W 1349  14.601  43.937  14.951
33020W        W 1350   0.397  12.254  14.460
33021W        W 1351   6.413  44.434   2.750
33022W        W 1352  34.888   9.830  13.988
33023W        W 1353  27.059  21.717  13.520
33024W        W 1354  37.397  27.014  10.898
33025W        W 1355  32.495  29.046   1.836
33026W        W 1356  19.746  17.711  12.415
33027W        W 1357   8.381  42.942   3.694
33028W        W 1358  13.240  33.551   2.189
33029W        W 1359  32.916  13.786   1.361
33030W        W 1360  12.223   5.730   1.800
33031W        W 1361  30.008  32.138  11.997
33032W        W 1362  36.348  23.694   4.630
33033W        W 1363  10.750  13.834  10.510
33034W        W 1364  17.794  38.430  12.381
33035W        W 1365  22.038  40.455   1.266
33036W        W 1366  27.510  32.985  13.037
33037W        W 1367   9.155  41.367   0.301
33038W        W 1368  23.590  17.145  12.936
33039W        W 1369  38.324  21.737   3.698
33040W        W 1370  31.989  44.446  13.985
33041W        W 1371  30.126  43.353   4.255
33042W        W 1372  22.023  22.212  10.445
33043W        W 1373  37.405  41.957  12.374
33044W        W 1374   7.862  37.560  13.039
33045W        W 1375  18.206  15.588   1.353
33046W        W 1376  29.970  32.955  14.316
33047W        W 1377  38.833  34.372   0.461
33048W        W 1378  38.439  32.409   0.284
33049W        W 1379   7.786  27.044   3.657
33050W        W 1380  29.170   9.765  14.980
33051W        W 1381  17.178  42.949   4.349
33052W        W 1382  15.748  25.013   2.223
33053W        W 1383  25.069  40.398   2.320
33054W        W 1384  27.057  35.569   3.801
33055W        W 1385  17.207  37.894   5.174
33056W        W 1386  20.762   9.274   3.776
33057W        W 1387   9.805  16.300   4.171
33058W        W 1388  44.306  27.026  12.563
33059W        W 1389   7.700  18.219  12.546
33060W        W 1390  20.164  26.683   4.692
33061W        W 1391  40.455  27.627  12.944
33062W        W 1392  41.873  28.516   4.206
33063W        W 1393  36.873  34.967  13.466
33064W        W 1394  22.222  16.628   0.335
33065W        W 1395  39.053  12.737  12.437
33066W        W 1396  29.059   8.877  10.439
33067W        W 1397  39.401   2.805  11.973
33068W        W 1398  34.478  19.120  12.979
33069W        W 1399  35.549  28.488   3.161
33070W        W 1400  24.216  15.276  13.822
33071W        W 1401  16.602  19.762   0.940
33072W        W 1402  19.098  14.163   3.347
33073W        W 1403  42.452  35.096  10.930
33074W        W 1404   4.379  27.124   2.385
33075W        W 1405   4.280  32.972  14.294
33076W        W 1406   4.833   0.810   9.931
33077W        W 1407  40.501   5.874   4.674
33078W        W 1408   9.679  29.557  11.462
33079W        W 1409   5.388  22.083   4.668
33080W        W 1410  22.043   9.802  14.353
33081W        W 1411  32.936  11.845   0.320
33082W        W 1412  14.316  11.367  10.636
33083W        W 1413   8.745  26.531   2.784
33084W        W 1414   2.881  16.789  11.116
33085W        W 1415  20.555  23.680   1.258
33086W        W 1416   7.391   7.728   3.737
33087W        W 1417  26.473   7.208  10.636
33088W        W 1418   0.940  22.147  12.409
33089W        W 1419  24.625  31.531   4.714
33090W        W 1420  13.846  40.856  12.541
33091W        W 1421  11.655  19.590   1.377
33092W        W 1422  16.118  23.066  10.987
33093W        W 1423  44.925   0.942  13.035
33094W        W 1424  36.854  30.510  13.044
33095W        W 1425  16.655  40.469  13.529
33096W        W 1426  35.857   3.341  12.401
33097W        W 1427  27.097  16.098   2.376
33098W        W 1428  35.885  10.773   3.780
33099W        W 1429  43.401  20.551   0.788
33100W        W 1430  41.837  23.524   3.746
33101W        W 1431  44.993  19.099  12.531
33102W        W 1432  11.637   3.860   1.788
33103W        W 1433   0.986  17.666   2.192
33104W        W 1434  16.656  12.142   2.835
33105W        W 1435   4.428   7.282  10.923
33106W        W 1436  27.166  40.052  14.802
33107W        W 1437   2.296   9.189  13.402
33108W        W 1438  24.480  39.918   4.244
33109W        W 1439  28.662  11.366   1.272
33110W        W 1440  41.971  39.437  11.514
33111W        W 1441  29.526   8.808  13.381
33112W        W 1442   3.394  42.860  12.851
33113W        W 1443   8.372  39.055   2.815
33114W        W 1444  17.160  36.066   0.954
33115W        W 1445  39.368  41.984   3.256
33116W        W 1446   1.259  28.652  14.006
33117W        W 1447  10.196  28.635   0.782
33118W        W 1448  22.081   9.785   4.238
33119W        W 1449  32.962  25.007   2.750
33120W        W 1450   1.863  32.620  13.485
33121W        W 1451  16.694   6.239   1.920
33122W        W 1452   5.377  17.090   4.246
33123W        W 1453  27.011  39.876  11.459
33124W        W 1454  25.179  37.480   2.832
33125W        W 1455  11.295  38.008  10.928
33126W        W 1456  31.051  12.184   4.833
33127W        W 1457  29.999  27.588   3.152
33128W        W 1458  18.571   6.686  14.010
33129W        W 1459  37.365   3.718   4.259
33130W        W 1460  38.936  21.071   0.808
33131W        W 1461  26.972  25.658   1.345
33132W        W 1462  24.161  26.495   0.955
33133W        W 1463  18.750  43.767  12.417
33134W        W 1464  29.611  34.599   5.312
33135W        W 1465   1.318   9.363  12.069
33136W        W 1466   2.876  25.508  12.400
33137W        W 1467  30.440  38.005   3.736
33138W        W 1468  26.699  16.697  14.015
33139W        W 1469   1.338   6.868  14.484
33140W        W 1470  21.548  44.910  11.066
33141W        W 1471   1.901  32.025  12.361
33142W        W 1472  25.685  17.601  10.624
33143W        W 1473   4.361  36.447   2.890
33144W        W 1474  12.748  18.054   4.330
33145W        W 1475  32.637  43.412   0.416
33146W        W 1476  17.760  32.423   2.739
33147W        W 1477   5.801  20.743  14.939
33148W        W 1478  21.110  43.939  13.921
33149W        W 1479  21.681  43.364  12.840
33150W        W 1480   1.799  21.576   2.388
33151W        W 1481  12.683  39.872   1.450
33152W        W 1482  43.930  42.852  12.428
33153W        W 1483  18.776   9.681  11.008
33154W        W 1484  30.137  41.386   3.187
33155W        W 1485  15.684  32.999  13.942
33156W        W 1486  16.093  35.381  10.913
33157W        W 1487   4.830  40.970   3.744
33158W        W 1488  25.044   6.255   2.401
33159W        W 1489  16.216   7.205  13.535
33160W        W 1490  17.570  10.741   4.832
33161W        W 1491   2.354  43.018  14.816
33162W        W 1492   2.369  36.382   3.384
33163W        W 1493  16.121   3.717   4.760
33164W        W 1494   4.803  27.151  11.979
33165W        W 1495  29.510  44.274  14.017
33166W        W 1496  23.057  42.023  10.982
33167W        W 1497  11.730  20.698   3.792
33168W        W 1498  42.791  28.437  13.970
33169W        W 1499   8.724   8.896  10.966
33170W        W 1500  13.205  12.828  14.415
33171W        W 1501  27.036  12.252   9.484
33172W        W 1502  44.344  14.749   3.337
33173W        W 1503  28.056  40.459   4.809
33174W        W 1504  21.747  31.415   9.669
33175W        W 1505  10.806   4.211   4.129
33176W        W 1506   7.861   4.329   3.819
33177W        W 1507  12.805  28.440  14.962
33178W        W 1508  15.180  14.718   0.958
33179W        W 1509  18.199  15.799   4.652
33180W        W 1510  37.446  15.653  14.794
33181W        W 1511  30.997  26.114  11.487
33182W        W 1512  16.644   7.321  12.572
33183W        W 1513  35.411  39.998   3.276
33184W        W 1514   4.897  19.146  10.990
33185W        W 1515  38.993  19.539  10.617
33186W        W 1516  15.677  36.555   3.812
33187W        W 1517  36.539  19.118   2.225
33188W        W 1518   4.786  42.356   4.343
33189W        W 1519  13.602  40.033   2.820
33190W        W 1520   8.669  44.781  14.391
33191W        W 1521  28.975  10.151   2.189
33192W        W 1522   1.915  24.991  11.490
33193W        W 1523  26.521  12.324  12.989
33194W        W 1524  37.351  12.134  10.439
33195W        W 1525  10.326  33.600  13.380
33196W        W 1526  11.682  23.044   0.840
33197W        W 1527  39.404  17.756  11.498
33198W        W 1528   0.791   4.328   3.284
33199W        W 1529  17.588  40.391  12.559
33200W        W 1530  35.523  43.799   2.890
33201W        W 1531  24.610  29.506  12.976
33202W        W 1532  34.490  28.547   3.836
33203W        W 1533  14.733  21.615   3.294
33204W        W 1534  31.076  26.529   4.691
33205W        W 1535  44.405  20.571   3.704
33206W        W 1536  36.434  31.059  10.937
33207W        W 1537  37.473  38.340   1.215
33208W        W 1538  15.628  14.822   0.453
33209W        W 1539  38.035  20.146   4.717
33210W        W 1540   3.822  33.095  11.040
33211W        W 1541  38.042  10.804   3.228
33212W        W 1542   8.854  11.143  12.555
33213W        W 1543  37.084  38.906   3.281
33214W        W 1544  19.162  29.593  14.357
33215W        W 1545   0.829  29.537  13.328
33216W        W 1546  43.874  28.969  14.813
33217W        W 1547  44.317  27.609   4.124
33218W        W 1548  15.155   4.789   3.362
33219W        W 1549   2.396  39.317  14.840
33220W        W 1550  26.529  43.894  13.315
33221W        W 1551   8.672  26.632  10.431
33222W        W 1552  11.709  29.957   0.478
33223W        W 1553   3.340   6.421   4.204
33224W        W 1554   8.671   1.443  12.408
33225W        W 1555  14.816  26.506   0.271
33226W        W 1556  40.947  13.656  11.984
33227W        W 1557  32.562  34.975  12.865
33228W        W 1558  15.146  24.997   2.858
33229W        W 1559  14.199  36.954  13.364
33230W        W 1560   1.830   2.234  12.469
33231W        W 1561   3.365  19.709   4.598
33232W        W 1562   9.809  13.726   4.167
33233W        W 1563  36.499   7.369   3.294
33234W        W 1564   1.238  31.541   3.667
33235W        W 1565   8.715   0.777  13.518
33236W        W 1566  11.791  37.546   4.746
33237W        W 1567   5.926  24.544  12.080
33238W        W 1568  26.568  18.646   1.766
33239W        W 1569  34.390  26.543   1.758
33240W        W 1570  43.345   3.240   5.178
33241W        W 1571  16.222   6.267  12.379
33242W        W 1572  26.067  40.979   3.360
33243W        W 1573  20.110   0.319  13.969
33244W        W 1574  11.320  22.182  10.593
33245W        W 1575  21.159   4.234  10.151
33246W        W 1576  43.448  36.416  14.390
33247W        W 1577  27.503   4.270   0.393
33248W        W 1578   2.449   2.947  13.969
33249W        W 1579   6.217  34.103  13.959
33250W        W 1580  44.827  42.971  13.423
33251W        W 1581  19.220   5.259  10.497
33252W        W 1582  27.532   2.395  10.502
33253W        W 1583  12.661  40.336  11.426
33254W        W 1584  14.339  38.864   2.746
33255W        W 1585  41.492  39.040  12.449
33256W        W 1586   8.802  16.079  13.893
33257W        W 1587  14.770  25.038  11.512
33258W        W 1588   6.271  11.369  11.984
33259W        W 1589  25.087  41.399   2.687
33260W        W 1590   9.778   6.785   4.673
33261W        W 1591  29.950  14.726  11.529
33262W        W 1592  20.223   1.294   0.365
33263W        W 1593  13.250  22.206  11.422
33264W        W 1594  38.031  32.960  10.438
33265W        W 1595   3.775  30.618   1.827
33266W        W 1596  27.450  16.096  13.386
33267W        W 1597   2.890  37.372  12.001
33268W        W 1598  27.448  33.583  13.446
33269W        W 1599  17.214   9.208   2.331
33270W        W 1600   8.268  11.848  12.987
33271W        W 1601  23.067  10.287   0.426
33272W        W 1602  27.568   5.323  11.997
33273W        W 1603  42.381   5.294  13.796
33274W        W 1604  22.598  17.736   3.308
33275W        W 1605  10.711  15.737   2.331
33276W        W 1606  34.549  20.603   1.406
33277W        W 1607  20.131   0.294  11.089
33278W        W 1608  41.427  20.528  14.509
33279W        W 1609  42.869  31.950  11.597
33280W        W 1610  16.127   7.670  14.799
33281W        W 1611   6.288  14.195  11.579
33282W        W 1612   4.347  31.113  14.291
33283W        W 1613   4.404  41.803  13.925
33284W        W 1614  31.922  41.352   1.787
33285W        W 1615  15.262  43.305   0.876
33286W        W 1616  31.897  32.038   0.452
33287W        W 1617  34.562  38.053  11.425
33288W        W 1618  21.646  38.840   9.970
33289W        W 1619  17.643  11.684   4.739
33290W        W 1620  13.134  24.003  13.049
33291W        W 1621  28.045  43.844  10.092
33292W        W 1622  29.165  42.436   0.799
33293W        W 1623   6.763  31.996   4.287
33294W        W 1624  16.081  19.063  14.790
33295W        W 1625   7.835  31.618  10.949
33296W        W 1626  30.976  15.701  13.980
33297W        W 1627  44.005   5.899   0.306
33298W        W 1628  16.772  33.620  14.992
33299W        W 1629  36.457  33.999  13.909
33300W        W 1630   5.321  40.368   2.221
33301W        W 1631  30.969  34.561   0.287
33302W        W 1632   5.299  24.649   0.456
33303W        W 1633  18.608  44.329   3.702
33304W        W 1634  13.653  35.484  10.998
33305W        W 1635  40.822  44.420  11.874
33306W        W 1636   6.918  37.961   3.808
33307W        W 1637   0.405  11.678  10.590
33308W        W 1638  33.576  33.618  12.945
33309W        W 1639  43.417  44.776   4.646
33310W        W 1640  38.347  35.050   2.245
33311W        W 1641  28.073  21.518  11.461
33312W        W 1642  34.394  32.134   3.189
33313W        W 1643   7.240  18.268   3.735
33314W        W 1644   3.275  33.489   2.716
33315W        W 1645  20.163  20.173  10.144
33316W        W 1646  21.248  23.564  12.951
33317W        W 1647  27.078  23.195   1.269
33318W        W 1648  18.554  36.078   3.782
33319W        W 1649  41.802  24.077  11.372
33320W        W 1650   6.192   5.750   0.267
33321W        W 1651  31.909  13.722   1.272
33322W        W 1652  15.301  41.824  14.475
33323W        W 1653  43.951  26.967  14.951
33324W        W 1654  36.368  39.423  14.766
33325W        W 1655   3.403  44.847  14.946
33326W        W 1656  40.994   6.425  12.445
33327W        W 1657  12.175  20.699   0.846
33328W        W 1658  30.094  10.793  12.058
33329W        W 1659  18.141   3.880   4.156
33330W        W 1660  15.786  19.168  12.906
33331W        W 1661  19.233  18.546  13.925
33332W        W 1662  27.168  26.127  13.900
33333W        W 1663  15.096  20.151  14.497
33334W        W 1664  30.513   7.904   4.618
33335W        W 1665  37.984  25.575  13.322
33336W        W 1666  16.613  31.031  13.976
33337W        W 1667   8.228  19.271   1.390
33338W        W 1668  11.782   6.731  12.018
33339W        W 1669   1.835  23.056   0.356
33340W        W 1670  41.990  19.283  11.931
33341W        W 1671  16.170  33.464   3.151
33342W        W 1672  32.458  17.283  10.433
33343W        W 1673   2.839  16.634   0.914
33344W        W 1674  42.955  16.141   3.807
33345W        W 1675  24.169  30.604  13.496
33346W        W 1676  10.651  40.546   0.481
33347W        W 1677  11.807   1.965   1.275
33348W        W 1678   1.271  43.972   2.825
33349W        W 1679  28.475  39.521   2.241
33350W        W 1680  17.161  28.989   2.796
33351W        W 1681  11.204  39.927   0.407
33352W        W 1682   8.198  33.383   3.386
33353W        W 1683  23.077  43.491  10.523
33354W        W 1684  29.448  22.537   4.326
33355W        W 1685  26.556  20.543   3.760
33356W        W 1686   8.799   5.303   0.307
33357W        W 1687  20.190  22.247   0.755
33358W        W 1688  30.485  42.920  10.509
33359W        W 1689   8.750  15.112   4.302
33360W        W 1690  31.455   5.298   3.334
33361W        W 1691   0.827  22.504   3.837
33362W        W 1692  31.639  20.590   2.892
33363W        W 1693  11.851  25.523  14.004
33364W        W 1694  26.125   0.899  12.563
33365W        W 1695  39.054  30.588   4.297
33366W        W 1696   2.722  29.059  11.966
33367W        W 1697  35.572  41.811   4.650
33368W        W 1698  15.327   6.711   3.158
33369W        W 1699  19.694  25.200  13.387
33370W        W 1700  10.658  23.140  14.515
33371W        W 1701  11.707  15.160  14.476
33372W        W 1702  38.972   6.367  13.411
33373W        W 1703  35.394  14.762  13.037
33374W        W 1704  35.030  17.260  13.907
33375W        W 1705  43.312  11.326  12.839
33376W        W 1706  10.255  21.637  12.448
33377W        W 1707  13.204  23.551   1.707
33378W        W 1708  27.183  37.407   0.729
33379W        W 1709  24.116  21.704  14.375
33380W        W 1710  44.760  22.016   4.610
33381W        W 1711  14.835  35.064  14.976
33382W        W 1712  32.509  24.088  14.770
33383W        W 1713  43.999  12.797  12.983
33384W        W 1714   9.312  13.706   3.641
33385W        W 1715  14.173   7.372  11.494
33386W        W 1716  20.731  40.861  10.590
33387W        W 1717  38.473  35.068  14.765
33388W        W 1718   2.465  20.044  14.880
33389W        W 1719  37.454  44.322   2.692
33390W        W 1720   0.321  35.530  11.592
33391W        W 1721   1.389  44.816  12.518
33392W        W 1722  23.208  17.693  13.431
33393W        W 1723  27.112  10.760  11.893
33394W        W 1724  15.253  42.295   2.743
33395W        W 1725   8.699  18.227  14.316
33396W        W 1726  30.925  25.984   2.789
33397W        W 1727  15.296  30.417  11.571
33398W        W 1728  33.002  28.072   2.686
33399W        W 1729  24.677  20.587   0.928
33400W        W 1730  16.755   0.392   4.723
33401W        W 1731  31.630  20.723   0.402
33402W        W 1732  26.168  12.352  12.578
33403W        W 1733   0.380  16.179   0.272
33404W        W 1734  35.085  26.101   2.890
33405W        W 1735  36.417  39.862  10.518
33406W        W 1736  25.506  37.341   4.664
33407W        W 1737  28.458  17.220  14.306
33408W        W 1738   8.354  19.760   1.741
33409W        W 1739  10.323  39.990   5.282
33410W        W 1740  36.004  25.070   0.814
33411W        W 1741   4.345  41.430  12.993
33412W        W 1742  39.518   7.325  11.008
33413W        W 1743  37.059  20.042   4.826
33414W        W 1744   6.182   7.392  10.554
33415W        W 1745   2.828   5.273   1.250
33416W        W 1746  43.838  23.028   2.332
33417W        W 1747  26.549  31.519  11.516
33418W        W 1748  24.613  22.252  13.312
33419W        W 1749  17.741  36.083   4.153
33420W        W 1750  14.834  32.031  11.525
33421W        W 1751  14.147  41.449  14.466
33422W        W 1752  20.112   5.345  11.576
33423W        W 1753   8.785  38.546   0.786
33424W        W 1754  33.980  17.220  13.025
33425W        W 1755  35.901  28.174  14.328
33426W        W 1756  41.322  41.475  10.507
33427W        W 1757  36.869   8.684  10.490
33428W        W 1758  23.726  35.541  11.881
33429W        W 1759  32.460  33.049  12.875
33430W        W 1760   9.286   5.301  11.022
33431W        W 1761   0.833  14.762   2.717
33432W        W 1762  24.985  29.596  12.007
33433W        W 1763  41.889   7.272   4.135
33434W        W 1764  11.200  33.425  11.039
33435W        W 1765  26.610  44.492  11.598
33436W        W 1766   0.374  26.981  12.853
33437W        W 1767  37.063  24.056  13.009
33438W        W 1768  25.191  14.296  12.420
33439W        W 1769   3.737  44.334   4.751
33440W        W 1770  10.267  43.437   2.748
33441W        W 1771  24.152  22.722   0.309
33442W        W 1772  24.986  21.749   1.730
33443W        W 1773   2.454  35.379   2.670
33444W        W 1774   3.368  31.632  12.853
33445W        W 1775  20.141  41.895  13.877
33446W        W 1776   4.348  37.573  14.902
33447W        W 1777  20.712   9.714   4.184
33448W        W 1778  15.685   0.745  11.113
33449W        W 1779  19.081   4.780   4.776
33450W        W 1780  11.812   4.381   0.365
33451W        W 1781  15.235  42.359  12.080
33452W        W 1782  38.456  22.167   1.441
33453W        W 1783  10.723  33.952   1.829
33454W        W 1784  43.392  36.584   3.860
33455W        W 1785  19.226  34.026  12.074
33456W        W 1786  12.851  15.105   3.637
33457W        W 1787   4.327  38.970  10.011
33458W        W 1788  31.086   0.295  12.876
33459W        W 1789  10.175  44.009  12.869
33460W        W 1790  43.981  27.142  12.828
33461W        W 1791  18.267  30.587   0.932
33462W        W 1792  38.820  39.013   2.403
33463W        W 1793   4.291  33.081  11.120
33464W        W 1794  21.678  13.821   0.318
33465W        W 1795   0.872  35.410   1.261
33466W        W 1796  22.670   0.445   4.352
33467W        W 1797   8.377  41.900  13.415
33468W        W 1798   3.894  25.181  13.032
33469W        W 1799  25.570  17.199   3.837
33470W        W 1800   7.304  26.633  10.568
33471W        W 1801  44.777   6.758  12.527
33472W        W 1802  11.656  42.281   3.680
33473W        W 1803   3.433   7.241  12.382
33474W        W 1804  43.784  41.532  10.579
33475W        W 1805   8.799  23.022  14.422
33476W        W 1806  16.134  34.370  12.006
33477W        W 1807  40.904  28.568  10.998
33478W        W 1808  33.010  19.568   4.171
33479W        W 1809  19.077  37.397  13.506
33480W        W 1810  27.609   4.226   1.854
33481W        W 1811   1.312  11.745   3.315
33482W        W 1812  24.606   7.355   0.254
33483W        W 1813  25.099  23.069  11.577
33484W        W 1814  31.900  34.607   3.261
33485W        W 1815   1.421  38.956   2.206
33486W        W 1816  27.487  28.175   1.431
33487W        W 1817  41.493  43.954   3.186
33488W        W 1818  23.595  27.535  10.927
33489W        W 1819  28.941  21.251  11.438
33490W        W 1820  43.428  14.272  11.487
33491W        W 1821  18.057  32.107   3.147
33492W        W 1822   3.870   3.737   0.731
33493W        W 1823  36.041  11.237  11.055
33494W        W 1824  39.552  26.456  13.521
33495W        W 1825  24.585   7.236  11.870
33496W        W 1826   2.230  14.637  10.927
33497W        W 1827  18.676  29.061  10.534
33498W        W 1828  34.489  15.225  14.291
33499W        W 1829   1.816  22.654  14.310
33500W        W 1830   3.278  14.645   2.312
33501W        W 1831  33.907  15.267  12.438
33502W        W 1832  25.034  21.657  10.600
33503W        W 1833  29.116  32.040  10.461
33504W        W 1834  13.647  32.952  13.404
33505W        W 1835  40.457  13.725   3.151
33506W        W 1836  22.042   0.332  13.519
33507W        W 1837  24.085  40.892  13.957
33508W        W 1838  28.987  14.143  12.022
33509W        W 1839  35.057   8.692  14.432
33510W        W 1840  26.104  44.991   4.309
33511W        W 1841  24.100  19.221  13.443
33512W        W 1842  32.505  37.050   2.338
33513W        W 1843  28.477  37.456  14.303
33514W        W 1844  13.350  25.603  12.910
33515W        W 1845  15.712   0.978  12.091
33516W        W 1846  13.158  43.813   4.249
33517W        W 1847  14.192  43.951   3.854
33518W        W 1848  43.834  21.556  14.302
33519W        W 1849  16.212  36.983   1.888
33520W        W 1850  43.406  42.516  13.361
33521W        W 1851  22.549  36.585   0.247
33522W        W 1852  41.347   1.959  14.982
33523W        W 1853  44.365  17.783  12.839
33524W        W 1854   4.841  30.565  13.997
33525W        W 1855  27.524  23.105  14.928
33526W        W 1856   9.823  40.362   3.287
33527W        W 1857  43.899  12.133  12.357
33528W        W 1858  12.230   3.381  14.410
33529W        W 1859  10.143  11.162  14.362
33530W        W 1860  22.107  20.218   9.959
33531W        W 1861   3.941  17.226  10.930
33532W        W 1862  12.155  33.921   2.362
33533W        W 1863   4.709  36.084  14.351
33534W        W 1864  25.585  40.436  12.875
33535W        W 1865  37.071  14.695   1.736
33536W        W 1866   1.886   1.955   1.349
33537W        W 1867   0.841   2.946  14.960
33538W        W 1868  34.561   6.779   3.755
33539W        W 1869  17.559  35.930  10.586
33540W        W 1870  11.271  21.706  10.517
33541W        W 1871  40.535  38.553   2.286
33542W        W 1872  34.603  23.099   4.132
33543W        W 1873  43.304  29.668  10.599
33544W        W 1874  24.042   1.878   0.337
33545W        W 1875  30.425   4.270  13.932
33546W        W 1876  39.847   6.204  12.561
33547W        W 1877  34.601  31.518  12.375
33548W        W 1878  22.230  43.896   0.746
33549W        W 1879  38.348  15.307  12.579
33550W        W 1880   9.350   3.760  10.546
33551W        W 1881  10.645  22.737   2.216
33552W        W 1882  17.718   6.866  12.887
33553W        W 1883  35.869  35.532  13.466
33554W        W 1884  20.058  43.953  13.457
33555W        W 1885  25.585   0.256   1.804
33556W        W 1886  35.393   4.777   0.448
33557W        W 1887   3.337  26.064  14.808
33558W        W 1888  19.621   5.863   2.351
33559W        W 1889  20.125   1.328  13.541
33560W        W 1890  43.783  17.606   1.431
33561W        W 1891  31.489  24.210   2.355
33562W        W 1892  35.431  20.674  12.470
33563W        W 1893   5.285  27.632  13.891
33564W        W 1894  27.446   4.419   0.961
33565W        W 1895  28.073  17.646   4.225
33566W        W 1896   6.275   8.242   1.932
33567W        W 1897  27.672  15.187   3.186
33568W        W 1898   1.470  35.036  11.979
33569W        W 1899  14.241  29.535   4.669
33570W        W 1900  18.147   6.409   1.905
33571W        W 1901  18.698  29.118   1.880
33572W        W 1902  28.602  12.647  12.898
33573W        W 1903  22.728  32.895   1.379
33574W        W 1904  23.188  44.344  13.910
33575W        W 1905  29.945  13.646   4.746
33576W        W 1906  35.104  12.728   4.764
33577W        W 1907  40.312  39.848   3.810
33578W        W 1908   7.688  40.877   1.806
33579W        W 1909   1.464   6.681   2.859
33580W        W 1910  24.521  21.724   4.786
33581W        W 1911  43.279  15.744   4.834
33582W        W 1912  13.329   4.377  13.818
33583W        W 1913   8.224  11.354  11.597
33584W        W 1914   2.417   4.413  13.530
33585W        W 1915  27.529   6.410   0.401
33586W        W 1916  27.135  30.610   4.625
33587W        W 1917  42.839  23.536   0.823
33588W        W 1918  25.545  10.138   5.275
33589W        W 1919  28.474  13.691  11.948
33590W        W 1920  26.069  31.054   1.399
33591W        W 1921  26.675  37.509   0.951
33592W        W 1922  15.251  31.416   4.755
33593W        W 1923  44.435  33.024   4.343
33594W        W 1924  30.975  23.046  13.049
33595W        W 1925  43.904  36.077  14.800
33596W        W 1926  24.495  32.473   4.285
33597W        W 1927   0.270  33.577   3.283
33598W        W 1928  42.955   5.367   0.960
33599W        W 1929  31.007  39.865  10.983
33600W        W 1930  18.055  36.856   2.766
33601W        W 1931   3.954  37.855  11.974
33602W        W 1932  29.167  21.734  12.034
33603W        W 1933   9.385  32.924   3.818
33604W        W 1934   9.258  16.610   1.355
33605W        W 1935   0.338   0.486   3.641
33606W        W 1936  27.183   8.242  11.427
33607W        W 1937   3.365   1.798   0.401
33608W        W 1938  28.521  12.262  14.767
33609W        W 1939  17.607  44.901   0.365
33610W        W 1940  14.606  42.362   3.330
33611W        W 1941  23.034  40.844  11.104
33612W        W 1942  42.988   6.798  11.898
33613W        W 1943  34.075  37.941  12.504
33614W        W 1944  10.190  13.322  14.962
33615W        W 1945   4.735  26.008   2.332
33616W        W 1946  12.206   8.690   4.324
33617W        W 1947  20.186  39.518  11.921
33618W        W 1948  29.000   5.353   0.740
33619W        W 1949  26.985   4.348  12.075
33620W        W 1950  16.295  37.967  13.976
33621W        W 1951  21.518  40.953   4.220
33622W        W 1952  22.242  25.160   2.296
33623W        W 1953  39.874  41.004   4.739
33624W        W 1954   0.939  18.074   0.967
33625W        W 1955   8.808  12.727   1.844
33626W        W 1956  16.705   6.871  10.631
33627W        W 1957  38.026  13.666   3.799
33628W        W 1958  29.506  41.788   4.118
33629W        W 1959   2.316  44.503   4.220
33630W        W 1960  24.005   9.681  13.919
33631W        W 1961  28.018  40.945  14.825
33632W        W 1962  41.842  12.145   1.915
33633W        W 1963   1.933  12.169  14.287
33634W        W 1964   8.852  18.140   3.166
33635W        W 1965  12.739  19.103   3.355
33636W        W 1966  22.046   5.716  13.412
33637W        W 1967  25.109  16.139   4.779
33638W        W 1968  34.012  25.177  13.806
33639W        W 1969  24.570   5.908   3.813
33640W        W 1970  28.988  21.173   1.278
33641W        W 1971  29.449  29.603   2.347
33642W        W 1972  27.670   5.398   4.803
33643W        W 1973  16.170   5.803   1.271
33644W        W 1974  11.649  40.855  13.952
33645W        W 1975  38.033   3.722  10.919
33646W        W 1976  40.440  24.025  12.911
33647W        W 1977  25.650  40.034   1.719
33648W        W 1978  13.187  19.748  11.984
33649W        W 1979  11.660  37.528   1.318
33650W        W 1980  24.589  40.040  12.558
33651W        W 1981  30.073  26.176  13.503
33652W        W 1982  24.661  11.746   1.910
33653W        W 1983   2.421  16.188  13.348
33654W        W 1984  39.380   0.393   2.374
33655W        W 1985  19.097  17.140   0.894
33656W        W 1986  10.189  36.483  14.972
33657W        W 1987   8.277  12.847  12.044
33658W        W 1988  12.728  23.657   4.249
33659W        W 1989  42.366  22.035   3.797
33660W        W 1990   1.843  40.424   1.372
33661W        W 1991  38.878  26.158   1.400
33662W        W 1992  12.219  16.233   1.425
33663W        W 1993   9.334  27.581   1.746
33664W        W 1994   5.335  28.088  12.571
33665W        W 1995  30.161  12.664  12.377
33666W        W 1996  33.426  21.721  14.925
33667W        W 1997  42.448   5.807  11.578
33668W        W 1998  22.506  10.265   4.647
33669W        W 1999  12.148  42.032  11.035
33670W        W 2000  16.081  13.323   1.267
33671W        W 2001  20.576  40.899   4.224
33672W        W 2002  20.591  22.217   1.333
33673W        W 2003  41.949  14.715   4.275
33674W        W 2004   6.861   1.379   0.753
33675W        W 2005  29.077  33.421  14.931
33676W        W 2006  27.661  12.261  12.976
33677W        W 2007  15.662  38.517  10.016
33678W        W 2008  22.542   7.320   3.812
33679W        W 2009  26.549  22.079  12.360
33680W        W 2010  38.859  27.654   0.314
33681W        W 2011  36.464  32.583  12.452
33682W        W 2012  23.563   0.353   2.674
33683W        W 2013  34.009  22.066  11.462
33684W        W 2014   9.726   3.380  14.887
33685W        W 2015  32.547   9.644  12.365
33686W        W 2016  32.101  21.134   0.811
33687W        W 2017  34.043   4.318   0.798
33688W        W 2018  41.306  30.931   0.890
33689W        W 2019  17.264  16.570  10.912
33690W        W 2020  34.469  14.623   1.705
33691W        W 2021  18.231  42.798  12.911
33692W        W 2022  40.928  44.499  10.991
33693W        W 2023  21.184  18.190   4.669
33694W        W 2024  25.198  32.618   4.265
33695W        W 2025   8.188  28.080   4.317
33696W        W 2026  23.730  38.984   3.760
33697W        W 2027  43.358  30.524  11.927
33698W        W 2028   8.671  11.708   3.308
33699W        W 2029  25.193  12.301   9.951
33700W        W 2030  34.073  12.357  12.498
33701W        W 2031   2.776  35.521   3.337
33702W        W 2032  22.153  30.430  14.445
33703W        W 2033  28.555  34.878  11.901
33704W        W 2034  34.375  28.120  10.435
33705W        W 2035   5.414  40.839   0.833
33706W        W 2036   6.312  18.623   2.282
33707W        W 2037  28.486   6.726   1.856
33708W        W 2038  22.017  30.017  12.372
33709W        W 2039  30.964  29.449  11.999
33710W        W 2040  31.495  44.283   2.245
33711W        W 2041   3.219  28.003  11.514
33712W        W 2042  18.240  30.059  12.971
33713W        W 2043  24.607  15.183  12.966
33714W        W 2044  29.943   4.236   1.273
33715W        W 2045  29.045  24.990  11.123
33716W        W 2046  40.369  31.951   9.983
33717W        W 2047  15.189  28.107   4.306
33718W        W 2048   2.948  12.765   4.770
33719W        W 2049  30.982  44.327  12.092
33720W        W 2050  32.013  24.209   5.089
33721W        W 2051  18.556  38.390  12.560
33722W        W 2052  39.433  11.700   1.753
33723W        W 2053  26.530  34.609   1.255
33724W        W 2054   6.885   6.859   0.796
33725W        W 2055  30.952  28.474  12.861
33726W        W 2056  30.020  25.628   1.851
33727W        W 2057  41.418  42.779   1.856
33728W        W 2058  28.436  17.758  13.936
33729W        W 2059   2.931  25.105   4.804
33730W        W 2060  21.096  25.964   1.322
33731W        W 2061  42.868   8.876  12.999
33732W        W 2062  30.467  17.224   2.292
33733W        W 2063  40.887  34.507  12.353
33734W        W 2064  27.661  12.157   1.911
33735W        W 2065  44.412  32.590   3.819
33736W        W 2066  42.031  15.803   3.857
33737W        W 2067   9.695   3.931  13.867
33738W        W 2068  25.490  24.092  12.831
33739W        W 2069  32.571  23.548   1.350
33740W        W 2070  23.114  20.149   1.263
33741W        W 2071  30.595   2.944   1.218
33742W        W 2072  19.090  26.018   0.424
33743W        W 2073  22.616  37.436  11.402
33744W        W 2074  37.933  27.116  14.919
33745W        W 2075  36.902  12.286  13.540
33746W        W 2076   5.239  18.597  11.865
33747W        W 2077  15.579  20.628   1.361
33748W        W 2078  31.424  27.488   3.797
33749W        W 2079  37.871   1.928   0.737
33750W        W 2080  29.041   4.382   4.185
33751W        W 2081  40.043  31.048   4.266
33752W        W 2082  39.428  24.563   1.311
33753W        W 2083  21.529  43.441   1.798
33754W        W 2084  29.144  34.937   1.870
33755W        W 2085  15.637   0.881  12.345
33756W        W 2086  41.291   0.393  10.482
33757W        W 2087  43.493  20.127  13.825
33758W        W 2088   4.803   5.731  14.286
33759W        W 2089  42.284  33.001   0.877
33760W        W 2090  10.281  41.875   5.146
33761W        W 2091  28.983  11.363  12.902
33762W        W 2092  11.226  22.195   4.742
33763W        W 2093   2.254   9.330  12.546
33764W        W 2094  39.864   3.338  10.973
33765W        W 2095  36.065  43.295   1.760
33766W        W 2096  16.642   0.960   2.858
33767W        W 2097  29.063  38.435  11.855
33768W        W 2098  34.864  12.782   0.928
33769W        W 2099  44.904   2.849   0.944
33770W        W 2100  25.647  24.084  10.635
33771W        W 2101   6.415  24.037   5.233
33772W        W 2102  19.046  32.949  14.437
33773W        W 2103  30.579  39.365  12.457
33774W        W 2104  16.195  24.009   3.260
33775W        W 2105  41.017  44.810  14.374
33776W        W 2106  23.649  10.351  11.554
33777W        W 2107  14.226   8.863   1.762
33778W        W 2108   4.437   4.763  12.364
33779W        W 2109  21.129   0.465  14.024
33780W        W 2110  28.175  44.788  10.495
33781W        W 2111  26.953  37.400  11.513
33782W        W 2112  12.170  34.443  11.431
33783W        W 2113  32.437  31.064   2.787
33784W        W 2114  28.087  36.969   2.239
33785W        W 2115  29.046   9.778  11.566
33786W        W 2116   1.469  41.823   0.770
33787W        W 2117  11.347  17.567  10.933
33788W        W 2118  41.898   5.835   3.254
33789W        W 2119  30.451  18.097  14.332
33790W        W 2120  35.589  36.375   2.380
33791W        W 2121  28.449  13.137  13.955
33792W        W 2122   2.307  41.986   3.687
33793W        W 2123  15.247   3.385   4.709
33794W        W 2124  29.036  36.870   0.729
33795W        W 2125  38.544  33.602   0.883
33796W        W 2126  43.292  30.653  11.493
33797W        W 2127  40.328  30.995  11.997
33798W        W 2128  30.469  13.311   0.783
33799W        W 2129  36.368   9.391  13.795
33800W        W 2130   7.773  39.368   2.414
33801W        W 2131   2.800   7.251  10.894
33802W        W 2132  29.928  27.540  14.870
33803W        W 2133  15.735  13.214   3.787
33804W        W 2134  32.942  12.264  13.976
33805W        W 2135  36.875  33.938  12.989
33806W        W 2136  31.435   8.346  11.013
33807W        W 2137  27.113  22.130   1.289
33808W        W 2138   5.842  34.983   3.811
33809W        W 2139  39.515  19.689  13.317
33810W        W 2140  28.516  40.990  10.977
33811W        W 2141  10.777   6.841   1.258
33812W        W 2142   6.298  29.462   2.727
33813W        W 2143  18.053  18.241  13.475
33814W        W 2144  44.471  34.576  13.375
33815W        W 2145  33.493   9.831   2.194
33816W        W 2146  40.024  44.490  14.497
33817W        W 2147   9.175  25.705  14.497
33818W        W 2148  26.132  37.940  14.454
33819W        W 2149  13.162  20.615  11.491
33820W        W 2150  29.611  24.173   1.839
33821W        W 2151  39.333  41.916   1.878
33822W        W 2152  30.907  28.029   1.703
33823W        W 2153   1.828  35.604  14.329
33824W        W 2154  14.807  44.856   2.201
33825W        W 2155   7.312  40.362   4.354
33826W        W 2156  27.625  12.139  14.909
33827W        W 2157  38.901  40.433   0.925
33828W        W 2158  20.617  21.670   4.316
33829W        W 2159  25.215  19.253   3.305
33830W        W 2160  19.584  10.808  12.073
33831W        W 2161  29.521  33.512  12.908
33832W        W 2162  40.534  23.160   0.447
33833W        W 2163   0.956  28.595   3.677
33834W        W 2164  33.556  28.500  11.485
33835W        W 2165   8.286   9.839   2.272
33836W        W 2166   6.880  44.934   0.739
33837W        W 2167  32.892  19.166   4.269
33838W        W 2168  34.080  43.806   0.369
33839W        W 2169  34.945  20.729  12.497
33840W        W 2170  12.237  10.806   0.283
33841W        W 2171   8.675  44.350   2.808
33842W        W 2172  12.241  16.790   3.707
33843W        W 2173  34.012   2.298  14.396
33844W        W 2174   5.809  38.410  14.307
33845W        W 2175  25.570  28.959  13.011
33846W        W 2176  22.104  32.048   1.763
33847W        W 2177  33.106   8.859   3.749
33848W        W 2178   0.297  33.959  12.486
33849W        W 2179  13.250  16.120   1.331
33850W        W 2180  29.666   0.295   0.353
33851W        W 2181   2.919  39.559   9.436
33852W        W 2182  10.823  42.809   0.449
33853W        W 2183  35.036   0.431  10.947
33854W        W 2184  30.100   0.477   1.831
33855W        W 2185  31.587  41.317   2.816
33856W        W 2186  32.591  18.163  13.356
33857W        W 2187   3.874   9.361  11.946
33858W        W 2188  38.383   6.879   3.808
33859W        W 2189  30.952  40.512  14.356
33860W        W 2190  23.553  23.043  11.080
33861W        W 2191  21.689  39.938   2.881
33862W        W 2192  25.176  32.516  11.061
33863W        W 2193   8.790  38.420  13.928
33864W        W 2194  29.012  17.573   0.782
33865W        W 2195   1.951  40.935   1.392
33866W        W 2196  26.068  39.996  13.521
33867W        W 2197   5.746   6.303   3.340
33868W        W 2198  44.753  44.873   0.448
33869W        W 2199  17.104  21.223   4.155
33870W        W 2200   8.210  23.239   2.684
33871W        W 2201  23.024   9.869   9.966
33872W        W 2202  23.157   6.356   3.842
33873W        W 2203  34.888  26.515   3.767
33874W        W 2204  33.013  33.522  12.577
33875W        W 2205  16.810  28.163   2.228
33876W        W 2206  13.301   2.758   3.348
33877W        W 2207  27.058  31.546  13.337
33878W        W 2208  39.848  31.408   3.680
33879W        W 2209   6.415  11.787   1.837
33880W        W 2210  26.975  39.461  13.013
33881W        W 2211  21.241  10.795  11.995
33882W        W 2212  20.755  12.279   1.751
33883W        W 2213  31.060  19.277   4.812
33884W        W 2214  21.246  41.826  13.033
33885W        W 2215  14.161  39.994  13.867
33886W        W 2216  28.558  13.708  13.901
33887W        W 2217  19.117  19.742  12.446
33888W        W 2218  32.076  42.408  14.889
33889W        W 2219  12.808  19.181   2.710
33890W        W 2220  32.418  28.093   1.219
33891W        W 2221  38.345  36.052  12.939
33892W        W 2222  38.514  28.445  11.985
33893W        W 2223  11.736  11.230   3.199
33894W        W 2224   0.266  20.092   1.793
33895W        W 2225  40.422   8.891  11.970
33896W        W 2226  11.685  12.358  12.528
33897W        W 2227  23.644   7.280   3.145
33898W        W 2228  32.010  12.733   0.467
33899W        W 2229  39.407   3.711  14.396
33900W        W 2230   0.760  26.478  10.901
33901W        W 2231  33.410  35.563   0.878
33902W        W 2232  39.560  34.999  14.502
33903W        W 2233   7.414  11.786   2.261
33904W        W 2234  18.548  42.994  12.080
33905W        W 2235  32.482   6.768  14.351
33906W        W 2236  14.596  43.432   0.271
33907W        W 2237   9.816  34.483   4.712
33908W        W 2238  20.118   3.828   4.803
33909W        W 2239  42.920  35.003   4.743
33910W        W 2240  18.552   5.742   1.903
33911W        W 2241   0.287  13.303   2.255
33912W        W 2242   5.903   8.281   0.826
33913W        W 2243  28.001  37.846   3.732
33914W        W 2244  24.692   4.907   3.268
33915W        W 2245   9.735   7.672   4.757
33916W        W 2246   3.914  10.654   0.736
33917W        W 2247  41.834  18.629   2.343
33918W        W 2248  26.064   4.336  13.976
33919W        W 2249  13.316  42.464   3.772
33920W        W 2250  33.605   3.843  12.417
33921W        W 2251  22.533  33.394   5.146
33922W        W 2252  33.505  17.596  14.881
33923W        W 2253  13.605   8.755   2.828
33924W        W 2254  30.473  25.509   1.223
33925W        W 2255  24.635  20.641   1.904
33926W        W 2256  41.373  29.987  11.988
33927W        W 2257  10.850  44.395  12.463
33928W        W 2258  39.926  33.962   3.166
33929W        W 2259  24.036  29.120  13.499
33930W        W 2260  43.837  12.228   0.399
33931W        W 2261  33.044  38.992  14.962
33932W        W 2262   4.218  18.556   3.161
33933W        W 2263   1.274  33.916  13.539
33934W        W 2264   6.696  16.682  11.964
33935W        W 2265  17.249   8.700   2.231
33936W        W 2266   4.304   3.371   2.275
33937W        W 2267   6.285   1.753   4.778
33938W        W 2268  43.468  12.308  14.894
33939W        W 2269  35.566  41.483   2.401
33940W        W 2270  13.845  31.999  10.072
33941W        W 2271   8.666  35.402  10.627
33942W        W 2272  38.001  37.521  11.008
33943W        W 2273  10.778   5.218   0.273
33944W        W 2274  44.322  33.549   5.245
33945W        W 2275  30.120   0.391  11.112
33946W        W 2276  16.612  28.938  13.355
33947W        W 2277  25.978   7.769   4.718
33948W        W 2278  30.007  43.372   0.285
33949W        W 2279  33.483  31.128  12.026
33950W        W 2280  39.944   0.770  14.942
33951W        W 2281  19.723  42.786  14.277
33952W        W 2282  41.343  14.723  10.581
33953W        W 2283   4.735   7.697   1.267
33954W        W 2284  35.570  23.208  11.050
33955W        W 2285  36.868   6.693  13.058
33956W        W 2286  28.613  41.388  11.459
33957W        W 2287   7.779  32.887  11.423
33958W        W 2288  27.047  26.515  13.874
33959W        W 2289  21.213  27.149  11.423
33960W        W 2290   6.923  17.632   4.816
33961W        W 2291  10.751   7.809  13.420
33962W        W 2292  20.261  20.162   3.218
33963W        W 2293  12.143  14.684   3.340
33964W        W 2294  43.935  40.933   4.700
33965W        W 2295  13.607   5.347   3.830
33966W        W 2296  18.270  29.013  11.911
33967W        W 2297  11.624  16.676  12.578
33968W        W 2298  29.532  43.509   0.379
33969W        W 2299  15.763  17.796  13.840
33970W        W 2300   9.788  43.794  13.025
33971W        W 2301   2.464  17.300   4.722
33972W        W 2302  13.634  33.558   1.308
33973W        W 2303  31.087  34.060  10.448
33974W        W 2304  15.105  18.592  13.411
33975W        W 2305  43.427  26.065  11.066
33976W        W 2306  12.136  20.091   2.850
33977W        W 2307  15.710   2.897   1.805
33978W        W 2308  42.961  19.176  14.412
33979W        W 2309   9.353   0.337  10.893
33980W        W 2310  17.741   3.766   3.160
33981W        W 2311  23.585  24.063   3.216
33982W        W 2312  34.948  17.104  11.976
33983W        W 2313  43.795  31.446  13.859
33984W        W 2314  13.199  29.095   1.434
33985W        W 2315  21.664  35.986  11.426
33986W        W 2316  23.222  34.503  14.506
33987W        W 2317  25.618  18.705   2.798
33988W        W 2318  22.183  29.926   3.784
33989W        W 2319  35.008  22.079   1.707
33990W        W 2320  39.550  43.360   1.793
33991W        W 2321   8.668   2.411   1.399
33992W        W 2322   3.351   9.151   1.902
33993W        W 2323  34.041  24.197   2.291
33994W        W 2324  34.094  38.942  13.878
33995W        W 2325   6.860  16.705  13.440
33996W        W 2326  11.181   1.481   4.671
33997W        W 2327  30.626  18.657  12.971
33998W        W 2328  29.028  39.319   1.290
33999W        W 2329  42.982  44.868  11.517
34000W        W 2330   7.246   6.804  14.839
34001W        W 2331  25.211  10.335   1.437
34002W        W 2332  39.467  26.491   4.236
34003W        W 2333   1.285  35.935  13.900
34004W        W 2334  25.969  13.636  11.934
34005W        W 2335  32.923  14.685   3.326
34006W        W 2336  25.471   7.208   2.237
34007W        W 2337  17.298   6.719   2.212
34008W        W 2338  24.137  13.662   4.274
34009W        W 2339  22.653  11.832   4.117
34010W        W 2340   4.250  23.224  12.565
34011W        W 2341  36.044   5.266  10.636
34012W        W 2342   9.802  41.462  12.368
34013W        W 2343  44.264  16.295  13.462
34014W        W 2344  21.517  29.015   4.310
34015W        W 2345  17.234  38.968  12.058
34016W        W 2346   6.832  27.600   1.418
34017W        W 2347  41.954  43.775   4.255
34018W        W 2348  22.686   2.438  12.980
34019W        W 2349  15.107   1.265   2.747
34020W        W 2350  14.618  41.876   1.809
34021W        W 2351  32.113  33.445  14.879
34022W        W 2352   7.219  13.216  12.850
34023W        W 2353  36.490  40.878  14.440
34024W        W 2354  20.106  11.204  12.386
34025W        W 2355  16.694   5.326  10.950
34026W        W 2356  10.690  30.431   4.271
34027W        W 2357  31.423  13.260  13.346
34028W        W 2358  15.174  17.223  14.903
34029W        W 2359  31.123  13.305   1.366
34030W        W 2360  31.083   8.304   1.801
34031W        W 2361  17.277  44.927  10.038
34032W        W 2362  41.022  38.830  14.345
34033W        W 2363  42.379  20.226   2.259
34034W        W 2364  21.235  40.434   0.433
34035W        W 2365  10.323   9.244   2.819
34036W        W 2366  43.277   4.270   2.777
34037W        W 2367  39.487  24.118  12.045
34038W        W 2368  33.975  16.813   2.394
34039W        W 2369  36.076  39.026   0.294
34040W        W 2370  11.350  36.010   2.359
34041W        W 2371  16.679  34.434  14.870
34042W        W 2372  30.153  39.906  10.936
34043W        W 2373  13.777  24.109  11.585
34044W        W 2374  28.180  14.630   2.857
34045W        W 2375   3.356  15.603   2.699
34046W        W 2376  38.063  17.160   1.371
34047W        W 2377  16.747   0.825  13.024
34048W        W 2378  36.013  29.568   2.715
34049W        W 2379   6.777  18.258   2.204
34050W        W 2380  41.425   9.711   4.141
34051W        W 2381  35.968   5.202  14.938
34052W        W 2382   9.842  39.489  11.059
34053W        W 2383  33.529  28.669   3.708
34054W        W 2384  36.422  34.443  14.926
34055W        W 2385  20.618  18.074  10.157
34056W        W 2386   4.238  27.572   1.344
34057W        W 2387  14.120  15.617  11.477
34058W        W 2388  40.826  28.181  11.553
34059W        W 2389  44.970  32.112   1.419
34060W        W 2390  11.164  29.637   0.308
34061W        W 2391  27.992   5.717  14.920
34062W        W 2392  25.608  14.686  12.980
34063W        W 2393  12.688  29.437   1.286
34064W        W 2394   7.715  35.472   4.319
34065W        W 2395   5.713  17.640  14.866
34066W        W 2396  22.654  29.629   9.936
34067W        W 2397  19.701  20.236  11.880
34068W        W 2398  27.556  36.498   2.190
34069W        W 2399  17.093  19.125  10.888
34070W        W 2400  37.901  29.972   2.255
34071W        W 2401   2.870   9.384   0.789
34072W        W 2402   3.376   4.925  12.551
34073W        W 2403  31.973  44.849  14.972
34074W        W 2404  20.137  19.249  14.494
34075W        W 2405   7.910  15.221   3.779
34076W        W 2406  20.593  18.224   3.239
34077W        W 2407  21.101   4.855  10.526
34078W        W 2408  41.886  37.462   3.736
34079W        W 2409  37.579  40.015  12.059
34080W        W 2410   6.763  20.183   1.823
34081W        W 2411   6.220  19.722   0.939
34082W        W 2412  34.507  16.616  11.086
34083W        W 2413  16.171  43.463   0.809
34084W        W 2414  24.031   8.263   2.393
34085W        W 2415  17.242  11.682  10.151
34086W        W 2416  40.391  17.718   3.304
34087W        W 2417  24.561  18.706   3.691
34088W        W 2418  44.768  14.633   3.859
34089W        W 2419  21.119   2.370  13.544
34090W        W 2420  32.457   9.350  12.430
34091W        W 2421  25.647  13.674   2.900
34092W        W 2422  30.659  33.916   1.220
34093W        W 2423  27.480  42.797  12.370
34094W        W 2424  20.622  24.654  10.613
34095W        W 2425  33.910  37.003   1.402
34096W        W 2426  39.317   5.346  11.452
34097W        W 2427  35.852  41.887   2.874
34098W        W 2428  18.580  37.080  12.074
34099W        W 2429   4.905   3.373   4.354
34100W        W 2430  39.518  23.616  10.572
34101W        W 2431  23.033  28.073   3.865
34102W        W 2432  30.019   2.900   0.739
34103W        W 2433  37.079  22.578   3.855
34104W        W 2434  32.577  11.178  11.868
34105W        W 2435  22.007  15.311  14.397
34106W        W 2436  44.833  10.642   4.776
34107W        W 2437  28.029   6.734  12.358
34108W        W 2438   4.713  21.712  10.935
34109W        W 2439  15.194  34.606  13.927
34110W        W 2440  22.043  42.324   2.707
34111W        W 2441   1.237  24.176  11.523
34112W        W 2442  32.483  38.949  11.493
34113W        W 2443  42.352  41.362   0.480
34114W        W 2444  24.075  26.622   9.945
34115W        W 2445  12.800  23.090  12.353
34116W        W 2446  31.600  19.136   5.207
34117W        W 2447  15.313  42.367   3.644
34118W        W 2448  23.216  44.363   1.293
34119W        W 2449  31.456  31.952  11.952
34120W        W 2450  26.987  29.519   0.777
34121W        W 2451  18.074  37.919   1.861
34122W        W 2452  17.577  14.757  14.320
34123W        W 2453  36.584  14.188   1.797
34124W        W 2454  36.562  41.883   0.310
34125W        W 2455  12.161  21.741  14.350
34126W        W 2456  43.818  10.285   1.253
34127W        W 2457  10.202  20.587   2.395
34128W        W 2458  10.633   5.786   0.336
34129W        W 2459  39.039  42.867   0.917
34130W        W 2460  35.105   9.372  14.026
34131W        W 2461  22.674  38.569  10.025
34132W        W 2462  16.664  30.439  14.442
34133W        W 2463   4.835  42.322   2.760
34134W        W 2464   8.203  28.499   0.779
34135W        W 2465   8.768  12.804  13.908
34136W        W 2466  10.868  35.535   2.293
34137W        W 2467   5.894  25.684  12.411
34138W        W 2468   3.916  35.505   3.272
34139W        W 2469  39.474  22.706   2.855
34140W        W 2470  21.102  20.066  14.797
34141W        W 2471  36.086  37.995   2.255
34142W        W 2472  22.577  35.973   0.778
34143W        W 2473  19.107  23.646   5.151
34144W        W 2474  23.696  21.060  10.901
34145W        W 2475   5.395  29.960   1.723
34146W        W 2476  16.236  25.700  14.298
34147W        W 2477  11.127  38.358   1.786
34148W        W 2478  38.422  44.952  10.502
34149W        W 2479  11.285  10.872  13.391
34150W        W 2480  39.059   3.313  11.455
34151W        W 2481   1.265  24.518  11.465
34152W        W 2482   0.317  35.450   1.344
34153W        W 2483  24.502  39.871  13.546
34154W        W 2484  16.166   6.874   4.258
34155W        W 2485   1.413   4.380   2.826
34156W        W 2486  31.962  29.031  13.822
34157W        W 2487  32.443   7.241   2.727
34158W        W 2488  27.114   6.897   0.306
34159W        W 2489   9.664  10.156   4.691
34160W        W 2490  17.626  30.064   3.245
34161W        W 2491   5.769  10.877   1.312
34162W        W 2492  16.611  39.822   0.379
34163W        W 2493  39.471  15.129   3.867
34164W        W 2494  30.907  28.574   1.820
34165W        W 2495   7.409   6.824   2.859
34166W        W 2496  31.110  34.495   4.114
34167W        W 2497  44.328  19.547  12.467
34168W        W 2498  23.700  16.214   0.306
34169W        W 2499  38.479   1.931  10.628
34170W        W 2500   7.850  17.151   0.916
34171W        W 2501   0.307   1.831   4.154
34172W        W 2502  42.418  25.070   3.325
34173W        W 2503  24.105   3.317   4.603
34174W        W 2504  22.641  18.050   2.832
34175W        W 2505  41.881   2.255  12.435
34176W        W 2506  44.263  13.125   1.830
34177W        W 2507  32.578  28.080   4.158
34178W        W 2508  14.161  44.366   2.744
34179W        W 2509   0.903  33.075  10.497
34180W        W 2510  33.589  11.309   1.406
34181W        W 2511  25.680  41.984  11.054
34182W        W 2512  23.549  11.199  11.058
34183W        W 2513  17.677  17.171   0.910
34184W        W 2514   9.228  18.131   5.141
34185W        W 2515  32.407  31.601  14.369
34186W        W 2516  25.163  28.946   4.330
34187W        W 2517  37.529  21.036   5.240
34188W        W 2518   8.222  40.373   4.681
34189W        W 2519  35.019  12.642   0.408
34190W        W 2520   9.691  28.450  14.829
34191W        W 2521   1.920  33.623  11.920
34192W        W 2522  42.371  27.639  12.438
34193W        W 2523  40.527  36.411  11.929
34194W        W 2524   0.383  17.759  14.808
34195W        W 2525  15.135  19.215  13.381
34196W        W 2526   9.387  32.457  10.950
34197W        W 2527  41.998  16.099   3.244
34198W        W 2528   5.394  31.527   2.854
34199W        W 2529  22.594  11.824  14.276
34200W        W 2530  11.746  13.283  13.329
34201W        W 2531  13.335  29.000  14.468
34202W        W 2532  32.510  21.518   5.309
34203W        W 2533   8.848  34.102   0.336
34204W        W 2534  37.395   8.172  11.918
34205W        W 2535   5.330  12.711   0.297
34206W        W 2536  31.413   5.741   1.707
34207W        W 2537   3.459  20.085  10.427
34208W        W 2538   5.359   3.946  10.634
34209W        W 2539  24.638  24.061   1.266
34210W        W 2540  13.120   6.419  12.562
34211W        W 2541  17.243  31.427  13.873
34212W        W 2542  29.010  25.542   3.741
34213W        W 2543  33.549  40.350  10.463
34214W        W 2544   1.361  19.268   0.729
34215W        W 2545  41.826  28.150  12.430
34216W        W 2546  37.393  11.173   2.696
34217W        W 2547   0.978   8.765   1.310
34218W        W 2548  14.190  35.054  12.969
34219W        W 2549   1.808  26.111  12.889
34220W        W 2550   3.274  13.272   4.264
34221W        W 2551  21.100  37.425  10.522
34222W        W 2552   0.815   5.325   1.348
34223W        W 2553   2.329  28.664  14.397
34224W        W 2554  44.337   9.163   5.164
34225W        W 2555  30.089  34.059   5.240
34226W        W 2556  30.653   5.842  10.130
34227W        W 2557  24.124  43.897  14.515
34228W        W 2558  17.216  33.585   4.838
34229W        W 2559  31.610   4.225   4.216
34230W        W 2560  24.005   1.936  14.336
34231W        W 2561   7.815   3.411  11.520
34232W        W 2562  11.309   9.794  14.399
34233W        W 2563  16.640  39.517   3.833
34234W        W 2564  39.506  14.210   0.793
34235W        W 2565  25.101  22.580   3.203
34236W        W 2566  41.370  40.405  10.986
34237W        W 2567   5.910  16.811  13.807
34238W        W 2568  34.458  21.684  14.777
34239W        W 2569   9.149   7.908  11.445
34240W        W 2570   3.793  21.546  12.535
34241W        W 2571  30.927  21.689  10.456
34242W        W 2572  13.604  13.639  11.052
34243W        W 2573   5.779  15.316  10.989
34244W        W 2574  22.221  22.121   3.165
34245W        W 2575  22.165  27.540  14.909
34246W        W 2576  31.426  42.455   1.739
34247W        W 2577  39.355  27.190  13.973
34248W        W 2578  17.153  12.309  10.456
34249W        W 2579  23.653   9.151   3.166
34250W        W 2580  30.629   8.314   4.698
34251W        W 2581  10.762  41.919   2.321
34252W        W 2582  31.904  26.146   1.391
34253W        W 2583  12.800  24.995  13.036
34254W        W 2584   3.857  27.623   2.839
34255W        W 2585  14.684  15.604  11.540
34256W        W 2586  25.657  19.167   3.377
34257W        W 2587  32.048  41.493  11.047
34258W        W 2588  10.356   6.915   0.924
34259W        W 2589  19.187  41.349  10.971
34260W        W 2590  19.264  37.017  10.414
34261W        W 2591  13.729  38.367  13.916
34262W        W 2592  11.200  33.925   0.444
34263W        W 2593  42.477   0.791   3.196
34264W        W 2594  36.962  31.029   3.862
34265W        W 2595  38.419  28.480   2.384
34266W        W 2596  11.163  43.862   1.797
34267W        W 2597   8.181   6.769   3.374
34268W        W 2598  15.323  26.689  13.890
34269W        W 2599  43.981   5.219  14.914
34270W        W 2600  18.083  17.594   1.392
34271W        W 2601  13.739  43.419  10.465
34272W        W 2602  25.026  43.467  11.433
34273W        W 2603  31.127  24.588   3.704
34274W        W 2604  39.322  38.568   3.652
34275W        W 2605  29.566  13.240   1.800
34276W        W 2606  15.190   0.889   0.267
34277W        W 2607  10.259  20.094   3.831
34278W        W 2608  32.115  35.067   1.859
34279W        W 2609  36.069  27.619   0.798
34280W        W 2610   5.361  22.168  13.973
34281W        W 2611   7.261   0.978   0.347
34282W        W 2612  17.596  11.301  10.905
34283W        W 2613  22.236   6.424  10.606
34284W        W 2614  12.841   3.237   1.810
34285W        W 2615   1.746  12.219  13.523
34286W        W 2616  17.610  44.930   4.252
34287W        W 2617  22.038  14.147  14.433
34288W        W 2618  22.547  44.360  10.103
34289W        W 2619  28.166  34.570   4.180
34290W        W 2620   0.763   1.739  13.526
34291W        W 2621  36.924  13.723  14.335
34292W        W 2622  39.475  16.095   3.152
34293W        W 2623  15.207  38.946   3.799
34294W        W 2624  25.098  12.807   5.153
34295W        W 2625  28.105  22.545   0.767
34296W        W 2626  39.836  32.500  11.072
34297W        W 2627   2.336  38.467   2.716
34298W        W 2628  29.068   1.262  12.345
34299W        W 2629  20.534  25.477  13.953
34300W        W 2630  36.907  27.497   0.449
34301W        W 2631  23.530   2.457   4.285
34302W        W 2632  11.221  28.084  13.007
34303W        W 2633   2.281  35.506  10.476
34304W        W 2634   2.841  29.480  13.983
34305W        W 2635  11.298  27.101  13.312
34306W        W 2636  24.054  37.930  11.422
34307W        W 2637   7.786  21.736  11.029
34308W        W 2638  20.642   3.807   0.966
34309W        W 2639  41.393   7.333   1.821
34310W        W 2640  34.911  28.077  12.477
34311W        W 2641  29.637  14.270  12.981
34312W        W 2642  42.421   0.315  14.285
34313W        W 2643   1.753  18.296   2.881
34314W        W 2644  15.714  14.190  13.969
34315W        W 2645  31.430  39.884  12.540
34316W        W 2646  22.715  40.447   3.634
34317W        W 2647  20.754  29.628  13.336
34318W        W 2648  33.422  30.544   0.388
34319W        W 2649   3.417  44.951   0.929
34320W        W 2650   2.810  15.623  14.351
34321W        W 2651  28.644  18.569  10.895
34322W        W 2652  29.998  27.129   1.302
34323W        W 2653  43.333   0.927  11.435
34324W        W 2654  19.220  18.559  10.509
34325W        W 2655  28.599  13.777   4.344
34326W        W 2656  21.750  18.092   2.234
34327W        W 2657  33.929  28.520  10.896
34328W        W 2658  31.625  39.951  13.328
34329W        W 2659  34.401  13.610  10.525
34330W        W 2660  13.636   4.282   0.274
34331W        W 2661  23.043   2.440  10.422
34332W        W 2662  20.188  24.630   4.824
34333W        W 2663  43.415  35.929  14.431
34334W        W 2664   1.823   7.730  12.870
34335W        W 2665  42.793  18.569  14.911
34336W        W 2666   9.265  31.557   3.745
34337W        W 2667   3.391  34.415  11.041
34338W        W 2668  33.597  28.162   1.341
34339W        W 2669  37.903  21.680   4.353
34340W        W 2670   0.412  34.073   2.223
34341W        W 2671  12.639  26.108   3.840
34342W        W 2672   4.895   2.304  12.460
34343W        W 2673  31.083  27.940   2.674
34344W        W 2674   5.930  26.638  11.588
34345W        W 2675  33.441  43.941   2.202
34346W        W 2676  25.535  36.470  10.888
34347W        W 2677   0.286  16.773  10.409
34348W        W 2678  27.457  24.648  12.046
34349W        W 2679   0.259  42.007  12.903
34350W        W 2680  14.140  17.141  13.430
34351W        W 2681  42.832   8.772  13.942
34352W        W 2682  41.921   1.900  12.948
34353W        W 2683   7.814  31.921   5.114
34354W        W 2684  12.295  28.498  13.370
34355W        W 2685  41.402  22.014   1.388
34356W        W 2686   4.375   1.901   1.358
34357W        W 2687   1.470  39.908   3.780
34358W        W 2688  33.046  14.788  13.948
34359W        W 2689  29.927  15.148  12.362
34360W        W 2690  15.816   7.237   1.752
34361W        W 2691  21.582   2.834   1.715
34362W        W 2692  26.460  43.354   3.783
34363W        W 2693  44.911  19.227  14.325
34364W        W 2694  32.966  15.214  11.436
34365W        W 2695  38.007  11.625   2.246
34366W        W 2696  16.800  41.977   4.259
34367W        W 2697  29.038  34.405   5.773
34368W        W 2698  19.065  27.471  14.397
34369W        W 2699  14.665  26.694   2.717
34370W        W 2700   7.704   1.325  11.420
34371W        W 2701  30.562  35.870  12.986
34372W        W 2702  10.843  30.944   2.847
34373W        W 2703  17.280  41.386   3.366
34374W        W 2704  43.291  24.200  13.045
34375W        W 2705  29.942  30.140   1.446
34376W        W 2706  21.066   6.199   5.119
34377W        W 2707   5.877  11.696   4.696
34378W        W 2708   5.439  21.746  13.020
34379W        W 2709  25.090  33.071  11.912
34380W        W 2710  43.010  42.323   1.438
34381W        W 2711   3.849  19.675  10.957
34382W        W 2712  12.814  29.946   3.704
34383W        W 2713  10.701  21.234   3.230
34384W        W 2714  42.375  32.578  13.863
34385W        W 2715  23.729  12.755  11.377
34386W        W 2716  35.916  22.075   3.848
34387W        W 2717  23.082   6.381   3.322
34388W        W 2718  27.496   4.702   4.634
34389W        W 2719  33.963  30.004   3.270
34390W        W 2720  21.119   2.350  12.532
34391W        W 2721  25.518  15.688   2.363
34392W        W 2722  32.073  34.938   4.745
34393W        W 2723  34.397  28.054   3.770
34394W        W 2724  32.002  33.461   0.352
34395W        W 2725  41.916  41.453  13.033
34396W        W 2726  29.089  10.861  11.894
34397W        W 2727   8.773  30.569   2.325
34398W        W 2728  15.094  20.656  14.439
34399W        W 2729  29.667   6.296   0.433
34400W        W 2730  25.018  22.180  13.028
34401W        W 2731   5.362  22.041  12.932
34402W        W 2732  25.130  18.718   4.724
34403W        W 2733  34.071   4.821   2.234
34404W        W 2734  25.713   0.931  10.965
34405W        W 2735  29.601  36.359  12.358
34406W        W 2736  11.238   0.904   1.861
34407W        W 2737  21.735  21.161   3.217
34408W        W 2738  30.596  25.670   0.790
34409W        W 2739  39.013  24.559   1.723
34410W        W 2740  28.073   3.394  10.138
34411W        W 2741  34.414   6.733   4.789
34412W        W 2742   3.442  21.710  11.956
34413W        W 2743  40.488  27.609  13.943
34414W        W 2744  10.259  11.218  11.421
34415W        W 2745  34.981   3.924   4.151
34416W        W 2746  43.900   6.799  11.507
34417W        W 2747  20.653  37.415  14.847
34418W        W 2748  17.289   1.345   0.824
34419W        W 2749  25.481  26.676   3.338
34420W        W 2750   6.305  12.731  13.813
34421W        W 2751  18.603  30.576  11.466
34422W        W 2752  35.537  32.515   3.266
34423W        W 2753  13.296  28.663  11.401
34424W        W 2754  32.605  29.429   4.657
34425W        W 2755  16.730  28.982  13.046
34426W        W 2756  43.994   4.391  14.327
34427W        W 2757  27.050   1.433   2.722
34428W        W 2758  33.457   1.377   0.243
34429W        W 2759  44.262  18.573   3.282
34430W        W 2760  31.110  20.265  13.427
34431W        W 2761  41.870  21.716  10.569
34432W        W 2762  25.559  23.665   2.692
34433W        W 2763  17.196  21.609  10.482
34434W        W 2764  43.828   5.694   4.274
34435W        W 2765  12.751  44.297   2.318
34436W        W 2766  36.528  14.798   2.407
34437W        W 2767  18.690  27.104   0.743
34438W        W 2768  33.952  25.487   0.877
34439W        W 2769   8.736  27.634   3.653
34440W        W 2770  29.090  22.082   0.438
34441W        W 2771   5.236   9.816   0.960
34442W        W 2772  16.755   3.897  12.443
34443W        W 2773  12.252  44.383  12.522
34444W        W 2774  15.590  33.513  10.022
34445W        W 2775  35.513  27.954   4.686
34446W        W 2776   4.395  33.494  12.883
34447W        W 2777  14.709   2.891  12.856
34448W        W 2778  44.311  24.510   1.390
34449W        W 2779   8.883  28.977   4.122
34450W        W 2780  41.830  25.980   0.397
34451W        W 2781  33.503  28.608  14.471
34452W        W 2782  13.245  23.222  12.873
34453W        W 2783  17.712   8.255   0.454
34454W        W 2784   2.907  25.204   0.864
34455W        W 2785  10.778  36.013   3.696
34456W        W 2786  10.330  33.442   3.786
34457W        W 2787   7.408  11.276  10.560
34458W        W 2788  23.035  35.475  14.283
34459W        W 2789  39.341   9.811  11.878
34460W        W 2790  41.519  31.544  11.467
34461W        W 2791   6.285  31.536   2.702
34462W        W 2792   9.332  20.056   4.142
34463W        W 2793   2.288  16.662  11.891
34464W        W 2794  12.630  14.319   3.323
34465W        W 2795  39.029  41.471   3.216
34466W        W 2796  20.079   0.416   1.909
34467W        W 2797   3.434  12.243  10.958
34468W        W 2798   9.867  13.689   4.771
34469W        W 2799  28.134  10.764  11.934
34470W        W 2800   7.286  27.482  10.579
34471W        W 2801   5.706   2.897  14.980
34472W        W 2802  12.795   1.356  11.900
34473W        W 2803   4.819  24.021   3.331
34474W        W 2804  44.903  19.773   0.376
34475W        W 2805  26.491   2.756   4.626
34476W        W 2806   9.332  31.571   0.374
34477W        W 2807  14.830  19.076   0.385
34478W        W 2808   0.252   3.415  13.358
34479W        W 2809   0.749  40.491  13.792
34480W        W 2810  33.047  38.485   1.324
34481W        W 2811   0.419  30.654  11.554
34482W        W 2812  27.510  33.435   1.302
34483W        W 2813   9.219  18.097  14.794
34484W        W 2814  27.999  10.832   2.790
34485W        W 2815  30.983  17.275  13.396
34486W        W 2816  35.952   8.698   1.696
34487W        W 2817  24.158  38.006  11.003
34488W        W 2818   8.688  16.602   1.715
34489W        W 2819  22.164  35.479  13.034
34490W        W 2820  22.177  36.448   4.320
34491W        W 2821  29.582  12.824  11.401
34492W        W 2822  26.047  16.089  14.320
34493W        W 2823   4.364  20.135   3.839
34494W        W 2824   9.369  34.374  14.475
34495W        W 2825   6.747  15.235  11.572
34496W        W 2826  26.966  22.701   2.831
34497W        W 2827  44.443  44.442  12.539
34498W        W 2828  27.638  14.824   4.828
34499W        W 2829  41.336  26.619   2.178
34500W        W 2830  22.583   2.898  10.950
34501W        W 2831  43.372  17.076  12.572
34502W        W 2832   0.967  32.058  11.458
34503W        W 2833  26.194  13.222   0.320
34504W        W 2834  43.398  19.118   0.282
34505W        W 2835   9.389   6.825  10.432
34506W        W 2836   2.421  17.081  14.333
34507W        W 2837  26.017   7.910  11.076
34508W        W 2838  22.105  23.158  12.509
34509W        W 2839   4.934  15.244   3.743
34510W        W 2840  36.400  24.208  12.889
34511W        W 2841  35.408  27.487  14.323
34512W        W 2842  42.512  12.838  13.806
34513W        W 2843   1.788   1.954   3.670
34514W        W 2844  14.265  23.060   3.335
34515W        W 2845  39.408  36.946   2.728
34516W        W 2846  27.146  14.616  10.987
34517W        W 2847   7.855  19.728  11.978
34518W        W 2848  32.097  22.513  12.945
34519W        W 2849   9.276   6.829   1.725
34520W        W 2850  13.831  32.559  14.473
34521W        W 2851  15.134  11.285   2.298
34522W        W 2852  42.817   1.869   2.276
34523W        W 2853  14.274   1.824   1.914
34524W        W 2854  10.217   6.899  10.644
34525W        W 2855   1.451  43.833   1.371
34526W        W 2856  31.915  39.421  11.491
34527W        W 2857  25.099  18.184   0.839
34528W        W 2858  28.049   4.922  14.888
34529W        W 2859  28.464   5.714  10.555
34530W        W 2860  20.263  10.194  11.046
34531W        W 2861  35.389   0.278   1.898
34532W        W 2862  28.032   9.717   3.769
34533W        W 2863   3.847  17.126   1.413
34534W        W 2864  42.963   0.373  12.355
34535W        W 2865  30.653   0.359   3.699
34536W        W 2866  29.556  43.788  11.057
34537W        W 2867  21.732  40.313   0.337
34538W        W 2868  35.523  16.077   1.918
34539W        W 2869   7.355  32.576   3.146
34540W        W 2870  17.722   0.851   0.424
34541W        W 2871   5.724  10.196  13.805
34542W        W 2872   2.312  37.069   4.194
34543W        W 2873   3.954  42.896   3.857
34544W        W 2874  17.564   7.278   3.803
34545W        W 2875   6.337  14.313  14.353
34546W        W 2876   6.350  15.639   2.186
34547W        W 2877  34.505  29.171  12.913
34548W        W 2878  35.521  25.987  13.793
34549W        W 2879   4.769  41.329  13.900
34550W        W 2880  21.064  37.561  12.954
34551W        W 2881  35.416  25.996  14.351
34552W        W 2882  41.021   4.804  11.453
34553W        W 2883  31.965   4.228  13.957
34554W        W 2884  23.119   2.432   2.767
34555W        W 2885  16.755  26.046  10.945
34556W        W 2886  20.744  24.145   2.743
34557W        W 2887  36.354  22.086   3.784
34558W        W 2888  28.072  16.697   1.784
34559W        W 2889  11.761   4.900   5.295
34560W        W 2890  10.234  18.184   1.714
34561W        W 2891  44.813  14.253   0.727
34562W        W 2892  29.660   5.843  10.462
34563W        W 2893   2.798  36.580   5.653
34564W        W 2894  25.193  31.629   2.742
34565W        W 2895  44.348  26.699  12.467
34566W        W 2896  35.446  27.108   4.808
34567W        W 2897  19.681  21.717   1.223
34568W        W 2898  31.083  11.760   1.872
34569W        W 2899  26.517  12.681  14.852
34570W        W 2900   9.885  36.007   1.331
34571W        W 2901  19.536  38.407   3.292
34572W        W 2902  30.493  37.020  14.798
34573W        W 2903  36.884  32.408  11.481
34574W        W 2904  40.817  44.850  11.394
34575W        W 2905  25.988  38.557  10.446
34576W        W 2906  35.861  11.129   3.779
34577W        W 2907   8.307  21.589  12.419
34578W        W 2908  44.776  44.986  11.555
34579W        W 2909  36.530  20.090   0.306
34580W        W 2910  11.653   8.860   3.304
34581W        W 2911  20.616  13.741  12.072
34582W        W 2912  25.171  39.549  12.001
34583W        W 2913  21.630   8.272   3.740
34584W        W 2914  13.133  30.083  14.946
34585W        W 2915  30.942  31.557   1.239
34586W        W 2916  42.887  10.654   1.296
34587W        W 2917   3.733  18.609  14.972
34588W        W 2918   8.258  39.928   4.234
34589W        W 2919  12.157  29.650   0.746
34590W        W 2920  29.669  40.960  11.100
34591W        W 2921   9.311  17.626   1.313
34592W        W 2922  11.208  38.076   2.191
34593W        W 2923   4.220  33.130   1.924
34594W        W 2924  42.869  29.559  13.830
34595W        W 2925  12.745  44.401  10.969
34596W        W 2926  31.567   9.229   2.718
34597W        W 2927   9.821  42.377   1.768
34598W        W 2928   0.341  16.282  14.354
34599W        W 2929  29.147  24.029  11.391
34600W        W 2930  43.851  25.573  12.433
34601W        W 2931   3.282   5.316   2.342
34602W        W 2932  39.967  12.722   4.693
34603W        W 2933   9.721  33.431   0.941
34604W        W 2934  14.722   5.721   2.181
34605W        W 2935  22.725  10.672  13.971
34606W        W 2936  30.948   2.753   3.631
34607W        W 2937   1.967   8.405   4.190
34608W        W 2938  19.568  16.205   4.674
34609W        W 2939  17.166  27.125  11.544
34610W        W 2940  44.996   8.239  12.343
34611W        W 2941  33.982  21.710  13.375
34612W        W 2942  37.048  34.546   4.194
34613W        W 2943  18.158   3.403  12.376
34614W        W 2944   7.774  39.950  13.021
34615W        W 2945  38.517  15.791  11.121
34616W        W 2946  22.241  37.502  11.564
34617W        W 2947  12.258  40.023  13.405
34618W        W 2948   8.658   7.720   3.835
34619W        W 2949  38.432   4.898   1.316
34620W        W 2950  16.266   4.429  11.595
34621W        W 2951  15.139  32.534  14.922
34622W        W 2952  24.665  31.592   0.792
34623W        W 2953  11.647  33.113   3.205
34624W        W 2954  15.272  28.139  11.015
34625W        W 2955  12.202  23.566  13.340
34626W        W 2956  31.997  20.070  12.979
34627W        W 2957  19.556  15.669   4.637
34628W        W 2958   9.159  29.003  10.571
34629W        W 2959  27.648  34.563   3.195
34630W        W 2960  16.684   8.202  14.928
34631W        W 2961  43.283  25.705   2.868
34632W        W 2962  21.549  18.170  14.450
34633W        W 2963  11.370  32.460   1.393
34634W        W 2964  18.605  13.709   1.404
34635W        W 2965  44.943   6.218   4.161
34636W        W 2966  33.910  32.990   2.730
34637W        W 2967  20.170  13.668  13.045
34638W        W 2968   0.308  38.929   0.739
34639W        W 2969  19.743  34.604   3.731
34640W        W 2970   1.841   3.886  12.963
34641W        W 2971  35.873  36.943  12.372
34642W        W 2972  26.605  34.044  10.423
34643W        W 2973  33.877  26.081  13.827
34644W        W 2974  37.033  37.983  11.472
34645W        W 2975  19.084   2.946  13.997
34646W        W 2976   7.699   8.337   0.418
34647W        W 2977  15.267  20.233  10.887
34648W        W 2978  30.926  44.375  13.836
34649W        W 2979  10.271  29.071   4.175
34650W        W 2980  34.060  25.188   3.744
34651W        W 2981  16.198   4.296  14.405
34652W        W 2982  15.759  18.085   0.736
34653W        W 2983  12.361  21.619   1.378
34654W        W 2984   8.230   3.896  12.392
34655W        W 2985  10.745  28.021  12.991
34656W        W 2986  10.822  29.624  14.839
34657W        W 2987   7.322  18.213  14.316
34658W        W 2988  40.455   7.239   2.247
34659W        W 2989  31.127  24.182   2.865
34660W        W 2990  30.432  30.571   1.764
34661W        W 2991  10.706  39.404   3.271
34662W        W 2992   1.788  12.645   3.253
34663W        W 2993   2.258  29.956   2.338
34664W        W 2994  11.243  23.532   1.430
34665W        W 2995  37.339   1.482   0.461
34666W        W 2996  42.849  37.060  11.949
34667W        W 2997  11.649  33.565  13.959
34668W        W 2998  39.959  38.465   0.948
34669W        W 2999  35.956  11.221   4.114
34670W        W 3000  35.969  39.480   2.284
34671W        W 3001   0.747  30.422   0.452
34672W        W 3002  27.067  25.970  11.094
34673W        W 3003  17.591  36.396  11.501
34674W        W 3004  14.104  19.136  12.024
34675W        W 3005  32.393   1.806  13.421
34676W        W 3006  31.491  31.119   1.363
34677W        W 3007  31.991  36.348  10.489
34678W        W 3008  40.905   3.228   2.374
34679W        W 3009  25.074  20.048  12.878
34680W        W 3010   7.854  26.173  13.328
34681W        W 3011  41.958  19.243   2.210
34682W        W 3012  17.291  21.022   4.646
34683W        W 3013  29.661  11.643   3.844
34684W        W 3014  39.830  36.016  10.424
34685W        W 3015  22.080   3.859  12.489
34686W        W 3016  14.232  34.034  14.421
34687W        W 3017   2.425  23.558  11.975
34688W        W 3018  25.106   9.812  12.464
34689W        W 3019  26.203  20.598   0.825
34690W        W 3020  35.375  23.195  10.644
34691W        W 3021  29.058  38.376   4.322
34692W        W 3022   6.801  26.101   0.745
34693W        W 3023  19.534   7.257   3.373
34694W        W 3024   3.767  32.026   2.221
34695W        W 3025  23.124  19.650   1.448
34696W        W 3026  29.506  29.172  11.013
34697W        W 3027  18.563   6.308  13.865
34698W        W 3028   3.351  27.508   1.880
34699W        W 3029   3.718  28.531  14.358
34700W        W 3030   5.423  37.419   0.841
34701W        W 3031   0.970  26.485   1.372
34702W        W 3032   0.367   8.669   3.255
34703W        W 3033  22.125  12.757   3.772
34704W        W 3034  33.109   5.242   1.276
34705W        W 3035  17.559  20.553  14.905
34706W        W 3036  17.111  30.066  13.382
34707W        W 3037  34.399   2.923  12.420
34708W        W 3038  24.523  35.377   0.853
34709W        W 3039   9.168  34.455  14.844
34710W        W 3040  16.625   2.761   4.781
34711W        W 3041  10.846  35.578  12.992
34712W        W 3042   1.834  13.169  10.623
34713W        W 3043  17.250  10.731  12.577
34714W        W 3044  36.497  41.509   4.695
34715W        W 3045  30.146  16.674   4.187
34716W        W 3046   6.317   0.490  11.029
34717W        W 3047   8.395  20.657  10.636
34718W        W 3048  20.717  23.561  13.889
34719W        W 3049   1.790  10.702  12.485
34720W        W 3050   7.224  23.718  13.929
34721W        W 3051  17.223  40.944  12.397
34722W        W 3052  33.052  22.038   4.760
34723W        W 3053  28.101  21.089   4.200
34724W        W 3054  32.042   6.317  11.106
34725W        W 3055  40.447  21.669   4.143
34726W        W 3056  22.707  20.202   1.443
34727W        W 3057  32.952  31.096  10.887
34728W        W 3058   6.817   2.913  14.787
34729W        W 3059  29.156  41.936   0.353
34730W        W 3060  19.190  24.130   2.280
34731W        W 3061  16.230  26.138  10.896
34732W        W 3062  37.441  19.105   4.607
34733W        W 3063  25.571  42.341  13.316
34734W        W 3064  42.821  25.112   0.393
34735W        W 3065  12.621  13.647   4.311
34736W        W 3066   9.799  18.691  11.910
34737W        W 3067   4.846   9.173  14.447
34738W        W 3068  41.916  34.015  13.942
34739W        W 3069  17.632  22.235   0.275
34740W        W 3070   5.368  32.899  13.976
34741W        W 3071  14.204  20.613   1.711
34742W        W 3072  43.396  16.240   2.864
34743W        W 3073   9.849  41.978   3.242
34744W        W 3074  26.592  41.848  10.633
34745W        W 3075   8.400  44.285   3.381
34746W        W 3076   6.363  41.930  10.544
34747W        W 3077   1.965   0.354   3.255
34748W        W 3078   2.892  27.550  10.516
34749W        W 3079   1.805  12.752  13.313
34750W        W 3080  39.346  22.217  12.932
34751W        W 3081  37.425  35.410   3.337
34752W        W 3082  38.877   2.890   5.322
34753W        W 3083  23.221  31.059   2.322
34754W        W 3084  27.560  18.702   0.887
34755W        W 3085  29.096  34.910   0.468
34756W        W 3086  27.076  43.008  11.526
34757W        W 3087  37.911   3.948  14.783
34758W        W 3088  26.962  36.383   3.381
34759W        W 3089  21.552  40.491   2.745
34760W        W 3090   2.884  12.210   4.774
34761W        W 3091  12.130  13.651  10.988
34762W        W 3092   0.759  34.524  11.914
34763W        W 3093  16.797  11.688  10.892
34764W        W 3094  30.997  16.679   3.285
34765W        W 3095  25.142   9.153   3.798
34766W        W 3096  13.809  18.230   4.795
34767W        W 3097  17.277   9.836  13.312
34768W        W 3098   9.277  20.756   2.220
34769W        W 3099  42.841  32.545   0.452
34770W        W 3100  23.085  41.876   0.815
34771W        W 3101  36.073  40.970  14.277
34772W        W 3102  29.140  15.803  10.605
34773W        W 3103  15.714  43.376  14.880
34774W        W 3104  31.127  30.604  13.825
34775W        W 3105  19.699  39.850   2.182
34776W        W 3106   9.172  30.073  10.620
34777W        W 3107  37.347  40.322  12.572
34778W        W 3108   7.700  29.625   1.909
34779W        W 3109  16.129  40.381   1.327
34780W        W 3110  33.917  33.098   3.268
34781W        W 3111  20.062  38.422   1.700
34782W        W 3112  31.477   5.411   0.253
34783W        W 3113  26.971   9.798   5.610
34784W        W 3114  44.300  23.522  12.469
34785W        W 3115  33.057  16.625   1.707
34786W        W 3116   0.944  19.557  11.047
34787W        W 3117  40.530  31.076  13.389
34788W        W 3118   9.353  27.142  10.523
34789W        W 3119  11.208   2.230   3.797
34790W        W 3120   7.800  25.514  11.125
34791W        W 3121   3.943  26.095   1.370
34792W        W 3122   4.882   5.809   0.452
34793W        W 3123  28.083  28.445  14.895
34794W        W 3124   8.397   1.408  14.844
34795W        W 3125   2.799  42.832   3.738
34796W        W 3126  31.045   9.845  13.816
34797W        W 3127  10.182  11.208  10.592
34798W        W 3128   6.678  31.111  11.462
34799W        W 3129  18.072   1.846  14.293
34800W        W 3130   3.713  22.073  12.076
34801W        W 3131  40.842  13.162   4.755
34802W        W 3132  31.062   5.732   1.407
34803W        W 3133  38.038   5.904  10.900
34804W        W 3134  39.879  37.063   1.888
34805W        W 3135  24.073  26.502  10.599
34806W        W 3136   0.918   3.825   1.286
34807W        W 3137  37.514  34.599   0.371
34808W        W 3138  30.945   0.265  13.508
34809W        W 3139   9.297  18.564   3.339
34810W        W 3140  17.227   2.736  13.323
34811W        W 3141  26.566   5.299  11.041
34812W        W 3142  24.200  12.720  12.387
34813W        W 3143  44.957  31.532   1.340
34814W        W 3144  10.146  11.230  12.936
34815W        W 3145  33.052   7.337   4.153
34816W        W 3146  23.731  29.024  14.968
34817W        W 3147  35.968  23.508  11.076
34818W        W 3148  13.147  11.331   3.358
34819W        W 3149   1.901  40.818  10.413
34820W        W 3150  21.671  24.995  14.811
34821W        W 3151  17.722  35.458   2.800
34822W        W 3152   0.434  24.491  14.768
34823W        W 3153  41.493  30.413  14.482
34824W        W 3154  26.665  20.103   2.346
34825W        W 3155   4.232  14.745  13.910
34826W        W 3156  35.949  40.954  12.880
34827W        W 3157  36.539  37.458   4.801
34828W        W 3158   2.369  40.891  11.502
34829W        W 3159  30.480   5.742  13.422
34830W        W 3160   8.347   2.376  13.438
34831W        W 3161  24.654   5.238  13.948
34832W        W 3162  20.634  44.881  11.016
34833W        W 3163  30.991  13.179  11.582
34834W        W 3164  25.044  43.291   2.240
34835W        W 3165  20.553  38.365   1.765
34836W        W 3166  31.583   3.900  13.796
34837W        W 3167  25.112  27.627  11.935
34838W        W 3168  25.042  20.599  12.946
34839W        W 3169  22.148  24.519  14.970
34840W        W 3170  16.256  32.896   4.730
34841W        W 3171   9.212  20.697   3.371
34842W        W 3172   0.463  23.612  10.986
34843W        W 3173   4.304  38.872   2.248
34844W        W 3174   1.950  41.447   4.710
34845W        W 3175  35.963  22.209   1.812
34846W        W 3176  22.510  16.127  13.334
34847W        W 3177  19.548  18.085   0.729
34848W        W 3178   4.731  37.879  14.980
34849W        W 3179  21.632  31.560  10.630
34850W        W 3180  15.137  27.029   4.222
34851W        W 3181  14.835   4.445  13.044
34852W        W 3182  43.886   5.412   1.248
34853W        W 3183  33.610  39.992   0.875
34854W        W 3184  40.827   1.853  12.423
34855W        W 3185  14.323  19.230  12.910
34856W        W 3186  11.798  41.373  14.817
34857W        W 3187  44.828  38.051  14.835
34858W        W 3188  44.852  41.312   2.870
34859W        W 3189  14.796  13.230   1.384
34860W        W 3190  30.643  10.666   2.386
34861W        W 3191  11.836  35.050  10.442
34862W        W 3192   6.224  30.018   0.396
34863W        W 3193  11.651  40.532   9.955
34864W        W 3194  29.495  14.333   3.197
34865W        W 3195  12.720  42.825   0.365
34866W        W 3196  44.962   6.397  14.477
34867W        W 3197  38.920  31.082  13.467
34868W        W 3198  27.623  40.401  11.019
34869W        W 3199  12.653  22.131   4.748
34870W        W 3200   4.230  12.773  14.395
34871W        W 3201   9.181  24.006  13.441
34872W        W 3202  30.025  21.722   0.875
34873W        W 3203   9.760  25.097  14.403
34874W        W 3204  31.037  44.791  13.423
34875W        W 3205  30.069  42.879  14.306
34876W        W 3206  15.086   4.790   0.777
34877W        W 3207  42.458  19.063  11.977
34878W        W 3208  11.868  25.476  14.851
34879W        W 3209   3.237  13.187  11.114
34880W        W 3210  38.879  23.520  11.475
34881W        W 3211   3.785  21.043  13.533
34882W        W 3212  43.985   3.453   3.164
34883W        W 3213   0.291  30.598   2.281
34884W        W 3214   6.277  31.528   0.755
34885W        W 3215  11.335  40.434  12.959
34886W        W 3216  38.556  30.464  10.508
34887W        W 3217  16.806  33.003  11.503
34888W        W 3218  29.486  30.659   0.782
34889W        W 3219  22.589  20.184   4.834
34890W        W 3220   1.453   7.882  12.982
34891W        W 3221  41.911  34.885   1.331
34892W        W 3222  15.635  27.125  14.020
34893W        W 3223  29.039  38.518  11.471
34894W        W 3224  43.943  23.713  11.591
34895W        W 3225  43.766  34.522  10.541
34896W        W 3226  23.640  18.738  14.985
34897W        W 3227  20.235  33.052   3.170
34898W        W 3228  19.232  32.392   1.801
34899W        W 3229  38.499  27.011   0.848
34900W        W 3230  24.076  29.027   5.252
34901W        W 3231  15.231  44.845  12.344
34902W        W 3232  33.380  13.131  13.950
34903W        W 3233  33.478  34.459  12.350
34904W        W 3234  40.929  21.238  14.300
34905W        W 3235  25.198   2.840  12.358
34906W        W 3236  26.473  36.862  12.356
34907W        W 3237  24.068  29.557   0.795
34908W        W 3238  29.103  21.120  10.441
34909W        W 3239  41.936  33.522  13.023
34910W        W 3240  10.373   9.736   1.718
34911W        W 3241  22.687  38.876   0.868
34912W        W 3242  12.174  38.851  12.561
34913W        W 3243  29.948   7.872   2.721
34914W        W 3244   6.418  17.800  11.578
34915W        W 3245  41.824   3.276  13.051
34916W        W 3246  28.620  38.945   0.263
34917W        W 3247   8.380  35.395   2.217
34918W        W 3248  40.483   7.255   4.723
34919W        W 3249  10.176  22.505  14.801
34920W        W 3250   8.886  34.081   1.384
34921W        W 3251  20.178  42.290   4.145
34922W        W 3252  17.648   8.264   1.806
34923W        W 3253  20.610  21.126   0.246
34924W        W 3254  32.526  25.689   4.609
34925W        W 3255  35.370  17.150   4.345
34926W        W 3256  42.293  11.714  12.048
34927W        W 3257  16.172  37.907  14.372
34928W        W 3258  44.828  30.450   2.892
34929W        W 3259  24.186   7.314   3.714
34930W        W 3260   6.911  27.572  11.598
34931W        W 3261  27.661  27.662  13.482
34932W        W 3262  23.989   1.287  13.040
34933W        W 3263  32.094   9.216  14.369
34934W        W 3264  14.133  24.610  14.408
34935W        W 3265  37.897  38.997   4.826
34936W        W 3266  29.553   7.811  14.346
34937W        W 3267  32.931  39.535   4.749
34938W        W 3268  15.774  21.685   0.785
34939W        W 3269  16.236  22.070   0.786
34940W        W 3270  24.078  38.539  13.540
34941W        W 3271   7.843  17.288   4.318
34942W        W 3272  35.519  41.809   1.334
34943W        W 3273   4.770  37.071  14.405
34944W        W 3274  33.598  29.521  13.455
34945W        W 3275  33.961  29.575  13.505
34946W        W 3276  32.607  20.550  12.417
34947W        W 3277   8.219  11.817  13.541
34948W        W 3278  44.785  20.258  12.829
34949W        W 3279  42.526  18.568   0.963
34950W        W 3280   2.897   3.272   0.366
34951W        W 3281  41.365   3.753  11.978
34952W        W 3282  17.608  30.507   1.721
34953W        W 3283  28.084  42.961   1.794
34954W        W 3284   5.854  33.061   0.459
34955W        W 3285  22.513   1.411  11.857
34956W        W 3286  42.979  40.969  14.347
34957W        W 3287  26.580  35.432  13.959
34958W        W 3288  35.983   7.199  14.353
34959W        W 3289  41.865  10.872  10.992
34960W        W 3290  10.659  37.967  13.820
34961W        W 3291  34.902  27.615   1.404
34962W        W 3292   3.823  17.747  13.930
34963W        W 3293  35.552  43.890  11.118
34964W        W 3294  18.749  42.309  13.915
34965W        W 3295   6.878  13.329   4.128
34966W        W 3296  15.156  41.044  14.450
34967W        W 3297  10.864  20.061  13.448
34968W        W 3298  30.541  40.505  14.443
34969W        W 3299  22.612  18.757  13.839
34970W        W 3300  17.602  33.927   4.144
34971W        W 3301   4.398  37.372  12.836
34972W        W 3302  39.330  40.492   3.848
34973W        W 3303  32.581  14.739  12.402
34974W        W 3304  20.046  42.993   1.253
34975W        W 3305  14.600  26.624   5.274
34976W        W 3306  16.693  22.220  14.457
34977W        W 3307  40.906   6.187   4.145
34978W        W 3308   7.238   1.896   3.214
34979W        W 3309   2.414  30.088   3.810
34980W        W 3310  18.778  12.724   1.243
34981W        W 3311  18.604  22.058  11.882
34982W        W 3312  12.335   4.445   0.297
34983W        W 3313   0.384  17.595  10.428
34984W        W 3314   8.816  42.992   4.646
34985W        W 3315  32.013   2.383  11.127
34986W        W 3316  14.803  26.132   4.692
34987W        W 3317  29.585  40.035   1.272
34988W        W 3318  12.673  30.601   0.439
34989W        W 3319  27.638  19.748   0.759
34990W        W 3320  26.562   0.770   1.366
34991W        W 3321  40.869  26.191   1.920
34992W        W 3322  15.256  41.298  13.863
34993W        W 3323  16.158  30.162   3.773
34994W        W 3324  32.438  16.596   1.764
34995W        W 3325  44.815   2.785   3.709
34996W        W 3326   9.744  29.964   2.686
34997W        W 3327   7.185  42.862   2.414
34998W        W 3328   8.790  28.586  12.920
34999W        W 3329  33.055  10.375  13.350
35000W        W 3330  24.585  22.096   3.367
35001W        W 3331  10.820  23.569  10.575
35002W        W 3332  21.645  29.614   2.367
35003W        W 3333   5.251  31.427  14.005
35004W        W 3334  44.775  44.757  12.028
35005W        W 3335  40.978  38.456  11.968
35006W        W 3336  35.090  37.859  13.885
35007W        W 3337   3.725  35.481   2.762
35008W        W 3338  43.913   7.208   0.943
35009W        W 3339  28.487   5.853   4.794
35010W        W 3340  39.451  23.514   0.795
35011W        W 3341   5.309  15.615   3.857
35012W        W 3342   6.912  17.762  14.334
35013W        W 3343  25.635  29.476   0.829
35014W        W 3344  29.646  16.113   1.785
35015W        W 3345   2.851  20.153   2.294
35016W        W 3346  30.474   9.279   2.194
35017W        W 3347  36.865  21.611  12.824
35018W        W 3348  40.882  42.393   4.769
35019W        W 3349   1.475  38.466   1.250
35020W        W 3350   3.851   4.277  11.546
35021W        W 3351  18.134  29.485   4.656
35022W        W 3352  39.020  20.081  14.429
35023W        W 3353  25.628  15.713  14.838
35024W        W 3354  40.364   2.228  14.836
35025W        W 3355  21.633  20.079   5.154
35026W        W 3356  30.567  27.145  14.497
35027W        W 3357  36.856  37.499   0.897
35028W        W 3358   4.733  18.583  12.940
35029W        W 3359   4.319   7.337  12.888
35030W        W 3360  35.555  23.505   4.119
35031W        W 3361  30.945  25.184  11.482
35032W        W 3362  29.126  11.373  11.411
35033W        W 3363   0.333   0.414  12.903
35034W        W 3364  20.583  44.397  11.006
35035W        W 3365  17.791  40.865   3.869
35036W        W 3366   3.845   7.768  12.957
35037W        W 3367   1.386  27.124  13.858
35038W        W 3368   8.687  15.584   5.103
35039W        W 3369   8.167  33.122   4.165
35040W        W 3370   6.215  40.004  14.403
35041W        W 3371  43.418  25.632   1.772
35042W        W 3372   8.162  41.357   1.803
35043W        W 3373   0.381  40.484  12.879
35044W        W 3374   1.285  42.350   2.359
35045W        W 3375  26.201  29.470   3.206
35046W        W 3376   9.269   6.291  12.026
35047W        W 3377  20.606  18.162  13.001
35048W        W 3378  19.131  29.635   4.118
35049W        W 3379  11.854  27.079  14.322
35050W        W 3380  21.575   1.927  11.049
35051W        W 3381  19.633  23.536  14.885
35052W        W 3382  40.515   1.302   1.268
35053W        W 3383  17.217  42.320  11.904
35054W        W 3384  20.650  29.039  10.513
35055W        W 3385  20.668  14.154   0.263
35056W        W 3386  35.017  16.620   0.785
35057W        W 3387   0.387   9.827   1.293
35058W        W 3388  44.969  26.033  14.896
35059W        W 3389  38.942   3.728  10.921
35060W        W 3390  34.986  34.978   5.121
35061W        W 3391  17.194  36.903  12.889
35062W        W 3392   2.949   4.876   4.829
35063W        W 3393  17.179  32.010   1.745
35064W        W 3394   2.305   0.783  14.776
35065W        W 3395  40.849  20.650   3.841
35066W        W 3396  35.367   9.190   4.784
35067W        W 3397   7.875  35.414  14.762
35068W        W 3398  44.286   9.311  10.635
35069W        W 3399   3.415  38.058   1.249
35070W        W 3400   7.766  31.456   4.707
35071W        W 3401  29.950  17.062   2.752
35072W        W 3402  26.698  27.080  12.901
35073W        W 3403  40.508  25.018  13.838
35074W        W 3404  43.372  21.114   3.807
35075W        W 3405  18.622  20.571   4.826
35076W        W 3406  33.504   4.856  13.339
35077W        W 3407  39.815  37.885   4.711
35078W        W 3408  11.676  11.673  11.492
35079W        W 3409   7.865  11.162  12.869
35080W        W 3410  28.474  14.824  12.085
35081W        W 3411  10.728   4.306   3.149
35082W        W 3412  27.479  15.733   1.298
35083W        W 3413  15.725  34.431   0.760
35084W        W 3414   1.736   2.382   2.688
35085W        W 3415  43.473  37.527  10.580
35086W        W 3416  21.073  18.138   0.261
35087W        W 3417  27.617  26.606   4.282
35088W        W 3418  29.098   5.234   4.719
35089W        W 3419  13.673  33.032   3.279
35090W        W 3420  22.097  24.664   3.170
35091W        W 3421   7.745  10.649   4.314
35092W        W 3422  26.115  30.047   4.808
35093W        W 3423  16.283  44.962  14.464
35094W        W 3424  16.185   8.350  12.415
35095W        W 3425  35.957  23.666   1.876
35096W        W 3426   0.952  44.396  12.920
35097W        W 3427  34.609  27.466   3.360
35098W        W 3428   8.892   5.243  13.534
35099W        W 3429   7.356   1.880   2.878
35100W        W 3430  24.069  20.192  13.959
35101W        W 3431  26.960  30.615   5.296
35102W        W 3432   2.917  33.610   1.337
35103W        W 3433  14.203  38.887   1.411
35104W        W 3434   9.827  21.744   1.409
35105W        W 3435  27.475   0.284   0.370
35106W        W 3436  12.125  43.785  13.802
35107W        W 3437  26.531  27.146   4.792
35108W        W 3438   0.903  34.062  11.570
35109W        W 3439  31.427  21.064  14.333
35110W        W 3440  27.188  34.107   2.805
35111W        W 3441  25.988  30.000  13.467
35112W        W 3442  41.867  12.698   3.234
35113W        W 3443  19.622  15.110   2.198
35114W        W 3444   3.846  41.501  11.961
35115W        W 3445  44.423  34.477  14.494
35116W        W 3446   7.198  25.087   2.196
35117W        W 3447  13.221   8.793  10.504
35118W        W 3448  18.296  21.179  11.384
35119W        W 3449   5.832  18.196   1.781
35120W        W 3450  13.209   0.929   4.317
35121W        W 3451  42.319  13.273  14.508
35122W        W 3452   7.866  18.124  12.823
35123W        W 3453  21.696  22.650   9.947
35124W        W 3454  39.996   0.801  10.636
35125W        W 3455  29.568  33.471   5.626
35126W        W 3456  35.882  28.561  12.950
35127W        W 3457  35.564  34.480   4.754
35128W        W 3458  18.231  22.157  10.101
35129W        W 3459  42.015  39.002   2.217
35130W        W 3460  17.734  25.092  14.780
35131W        W 3461   4.871  32.404  13.394
35132W        W 3462   5.406  26.108  12.932
35133W        W 3463  16.781  16.797  13.473
35134W        W 3464  28.942   6.850   2.830
35135W        W 3465  43.479  39.992   2.226
35136W        W 3466  29.071  41.987   1.766
35137W        W 3467  41.893  30.913  13.429
35138W        W 3468   5.236  25.597   3.753
35139W        W 3469  30.558   6.701  14.876
35140W        W 3470  19.664  30.965   2.887
35141W        W 3471  12.668  14.305   1.909
35142W        W 3472  21.634  23.693  11.052
35143W        W 3473  19.617   4.329   2.819
35144W        W 3474  16.734  20.210   0.419
35145W        W 3475  28.151  36.991   1.268
35146W        W 3476   6.394  42.291  11.016
35147W        W 3477   7.832   6.702   1.283
35148W        W 3478   5.822  10.298  10.911
35149W        W 3479   8.701  12.720  12.855
35150W        W 3480   9.369  25.066  13.430
35151W        W 3481  17.575  26.196   3.317
35152W        W 3482  23.584   7.408  14.879
35153W        W 3483   9.720  44.878  14.949
35154W        W 3484  19.658  35.483  13.988
35155W        W 3485   9.722  23.144  11.984
35156W        W 3486   0.256  42.317  14.862
35157W        W 3487  28.546   0.387  13.050
35158W        W 3488  29.979   7.738  13.423
35159W        W 3489  42.411   1.483  13.310
35160W        W 3490  40.374   6.346  12.934
35161W        W 3491  41.375  22.087   0.879
35162W        W 3492  34.868  24.690  13.968
35163W        W 3493  40.844  21.634  13.973
35164W        W 3494   7.854  24.037  13.064
35165W        W 3495   7.250  12.191   1.284
35166W        W 3496  26.052  17.196   4.278
35167W        W 3497  16.255   1.469   2.259
35168W        W 3498   4.793  41.360   9.957
35169W        W 3499   2.315  40.347  11.429
35170W        W 3500  16.305   2.886  14.947
35171W        W 3501   3.807  35.544   9.457
35172W        W 3502  36.481   7.409  11.428
35173W        W 3503  17.075  43.777   1.439
35174W        W 3504  36.044  27.463   0.323
35175W        W 3505   1.871   0.378   4.700
35176W        W 3506   3.784   5.378  12.861
35177W        W 3507  40.874   7.223   2.260
35178W        W 3508   4.225  44.367  10.990
35179W        W 3509  35.935  31.918  14.389
35180W        W 3510  41.865   8.821   3.724
35181W        W 3511  41.862  33.435   2.763
35182W        W 3512   9.383  27.447   0.417
35183W        W 3513  23.999  40.449   0.813
35184W        W 3514  30.496  39.411  13.350
35185W        W 3515  23.151  17.607   0.935
35186W        W 3516   8.725  23.084  11.960
35187W        W 3517  23.538  23.649  14.023
35188W        W 3518  20.130  25.035  11.114
35189W        W 3519  23.489  16.775   0.820
35190W        W 3520  38.819  28.476   0.813
35191W        W 3521  21.152   4.740  13.384
35192W        W 3522  15.786  15.225  10.565
35193W        W 3523   8.873  25.119   3.868
35194W        W 3524  25.554  18.557   2.349
35195W        W 3525  39.891   8.210   3.705
35196W        W 3526   8.388   4.344   2.801
35197W        W 3527   8.688  10.698  13.056
35198W        W 3528   6.728  39.923  14.447
35199W        W 3529  43.823  19.562   0.421
35200W        W 3530  28.070  36.874   3.187
35201W        W 3531  35.358  29.061  12.451
35202W        W 3532  22.198  18.243   1.271
35203W        W 3533  42.818   6.182  11.537
35204W        W 3534  14.262   0.837   3.684
35205W        W 3535  13.339  41.838  14.966
35206W        W 3536  19.105  23.086   3.635
35207W        W 3537  25.534  38.047   4.721
35208W        W 3538  38.536  33.057  13.322
35209W        W 3539  30.116  34.929  10.500
35210W        W 3540   0.848  17.131   3.184
35211W        W 3541  21.124  17.114  13.012
35212W        W 3542   2.835  12.761   3.209
35213W        W 3543  15.326  39.919   3.815
35214W        W 3544  27.108  38.060  10.586
35215W        W 3545  37.900  28.557   0.926
35216W        W 3546  17.700  14.146  10.429
35217W        W 3547  24.037  10.361   0.456
35218W        W 3548  11.844  11.765   4.196
35219W        W 3549  38.959  43.802   3.766
35220W        W 3550  22.569  39.942   2.357
35221W        W 3551  21.597  31.471   0.838
35222W        W 3552  27.965  35.877   1.895
35223W        W 3553  28.612  38.011   0.316
35224W        W 3554  21.040  19.549  12.974
35225W        W 3555  37.905  43.951  11.521
35226W        W 3556  30.468   5.359   4.170
35227W        W 3557  15.640  27.499  11.522
35228W        W 3558  33.486   7.876  12.475
35229W        W 3559  20.718  17.298  12.007
35230W        W 3560  36.094  25.087  11.863
35231W        W 3561  18.604  38.557  11.508
35232W        W 3562  23.542  25.605  14.292
35233W        W 3563  11.324  21.234  11.551
35234W        W 3564  41.979  36.427  14.514
35235W        W 3565  22.225  37.461   2.713
35236W        W 3566  26.545   0.284  14.909
35237W        W 3567  38.985   7.808  14.995
35238W        W 3568  19.188  19.252   0.906
35239W        W 3569  43.819   6.715  13.946
35240W        W 3570  41.417   5.905   4.179
35241W        W 3571   3.271  13.802  11.373
35242W        W 3572   7.694  13.639  12.905
35243W        W 3573   6.834  31.496  13.426
35244W        W 3574   0.394   9.252   4.239
35245W        W 3575  27.186   0.973   2.843
35246W        W 3576   0.275   6.872  10.991
35247W        W 3577  40.968  12.624   2.207
35248W        W 3578  31.581   8.722  14.971
35249W        W 3579  29.452  34.519   0.292
35250W        W 3580  38.925  24.000   3.279
35251W        W 3581  43.869  37.454  14.962
35252W        W 3582   1.926  30.002  11.372
35253W        W 3583  21.212  27.523  11.896
35254W        W 3584  40.837  26.055   3.283
35255W        W 3585  12.346   4.869  12.545
35256W        W 3586   2.903  13.106   0.407
35257W        W 3587  40.027  38.916  13.373
35258W        W 3588  43.341  23.227  13.345
35259W        W 3589  15.818  29.439  13.365
35260W        W 3590  16.119  42.310   3.813
35261W        W 3591   8.301  19.199  10.605
35262W        W 3592  25.506  43.886  13.428
35263W        W 3593  24.716  29.120  14.884
35264W        W 3594  34.985  20.530   4.637
35265W        W 3595  17.279  14.726  12.096
35266W        W 3596  34.381  36.365   1.857
35267W        W 3597   0.901   7.686   1.375
35268W        W 3598   0.348  18.555   2.692
35269W        W 3599  19.764  39.385  14.352
35270W        W 3600  32.090  10.285   1.347
35271W        W 3601  39.045  14.603  12.417
35272W        W 3602  35.881   0.433  12.876
35273W        W 3603   3.825  33.939  10.553
35274W        W 3604  26.702   3.843  10.973
35275W        W 3605  42.815  32.917   3.856
35276W        W 3606  24.690  35.098   4.616
35277W        W 3607  16.684  33.900  10.565
35278W        W 3608   0.428  36.533  12.025
35279W        W 3609  11.668  12.276   1.892
35280W        W 3610  33.902   9.680  12.071
35281W        W 3611  34.066  11.234  14.916
35282W        W 3612   2.384  11.360  11.947
35283W        W 3613  34.577  29.110   1.928
35284W        W 3614  32.051  12.715   4.223
35285W        W 3615  41.293  20.144  10.467
35286W        W 3616  27.583  19.691  12.401
35287W        W 3617   5.418   4.411  13.457
35288W        W 3618  16.741  22.139   3.292
35289W        W 3619  18.065   1.910   2.187
35290W        W 3620  26.697  37.078  11.566
35291W        W 3621  26.656  27.181   0.948
35292W        W 3622  36.538  44.406  13.377
35293W        W 3623  24.607  14.715  13.000
35294W        W 3624   6.851   6.785  12.346
35295W        W 3625  13.655  27.658  14.912
35296W        W 3626  17.710   0.302  11.572
35297W        W 3627  21.696  39.986  13.314
35298W        W 3628  31.549  22.038  13.331
35299W        W 3629  32.471   6.426  14.981
35300W        W 3630  29.923  34.060   0.414
35301W        W 3631  11.372  19.656   2.233
35302W        W 3632  36.023  15.667   1.403
35303W        W 3633   4.822  34.561  14.870
35304W        W 3634   0.820   3.873  13.440
35305W        W 3635   8.840  25.194  10.618
35306W        W 3636  18.628  41.481  10.938
35307W        W 3637  21.546  11.236  13.935
35308W        W 3638   9.700   4.438  12.422
35309W        W 3639  14.321  19.127   0.860
35310W        W 3640  20.724  18.622  10.987
35311W        W 3641  37.506  12.692  11.493
35312W        W 3642  22.200  10.658  11.445
35313W        W 3643  13.146  19.178   4.837
35314W        W 3644   3.851  27.509   1.346
35315W        W 3645   9.358  40.536  13.815
35316W        W 3646  27.525  23.048  10.905
35317W        W 3647  14.225   9.659   0.733
35318W        W 3648  22.680  42.376  14.909
35319W        W 3649  28.052  41.944   3.149
35320W        W 3650   5.281  13.617  12.870
35321W        W 3651  12.328  40.844   1.919
35322W        W 3652  35.382  22.711   3.200
35323W        W 3653  43.924  43.394   1.894
35324W        W 3654  36.925  33.881   2.197
35325W        W 3655  28.440  12.687  10.134
35326W        W 3656  39.973  35.004  10.984
35327W        W 3657   0.825   0.803  12.485
35328W        W 3658  11.263  36.452   0.277
35329W        W 3659  38.979  14.156   3.317
35330W        W 3660  41.039  23.187   0.386
35331W        W 3661  40.351  38.875   2.337
35332W        W 3662  12.642  20.171  10.407
35333W        W 3663  38.046  37.338   3.230
35334W        W 3664  40.526  39.406   3.384
35335W        W 3665  15.625  40.916   1.762
35336W        W 3666  44.391   9.865  10.498
35337W        W 3667   1.918  44.326   4.738
35338W        W 3668  24.684   2.775   1.921
35339W        W 3669   6.764  43.480  13.329
35340W        W 3670  27.479  17.658  10.423
35341W        W 3671  44.901  35.945   4.253
35342W        W 3672  11.757  30.461   4.776
35343W        W 3673  19.602  35.386   2.249
35344W        W 3674   9.840  43.503  10.406
35345W        W 3675  39.931   6.818  10.517
35346W        W 3676   3.883   9.827  11.940
35347W        W 3677   6.765   2.780  10.464
35348W        W 3678  12.736  24.226  10.940
35349W        W 3679  27.186   3.444   4.779
35350W        W 3680   2.253   5.248   3.835
35351W        W 3681  19.764  13.279   1.776
35352W        W 3682   0.941  33.999   4.176
35353W        W 3683  31.102  15.231  12.422
35354W        W 3684   5.278   3.808  13.040
35355W        W 3685  29.565   3.308  10.406
35356W        W 3686  34.583   9.259   2.224
35357W        W 3687  21.676  37.904   4.311
35358W        W 3688  21.145  35.570  12.961
35359W        W 3689   9.268  25.019   0.806
35360W        W 3690  29.162  25.209  13.015
35361W        W 3691   9.220  25.109   4.246
35362W        W 3692  27.581  35.536   0.953
35363W        W 3693  38.502  29.435  12.997
35364W        W 3694   2.740  36.091   4.707
35365W        W 3695   7.674  15.644  12.564
35366W        W 3696  15.785  43.917  10.943
35367W        W 3697  43.900  40.498   4.618
35368W        W 3698  12.741  14.277   2.852
35369W        W 3699   6.350  14.736  12.941
35370W        W 3700   8.249  13.824  10.404
35371W        W 3701  32.531   4.272  11.481
35372W        W 3702   9.669  27.111   3.361
35373W        W 3703   5.810  26.547   3.287
35374W        W 3704  43.910   1.291  13.810
35375W        W 3705  19.266  41.313  12.007
35376W        W 3706   7.237  11.640  12.073
35377W        W 3707  17.562  28.492  10.439
35378W        W 3708  33.517  29.437   0.343
35379W        W 3709  31.632  25.129   2.257
35380W        W 3710   3.827  20.052   3.381
35381W        W 3711   0.433  32.955   2.351
35382W        W 3712  23.127  40.324   4.598
35383W        W 3713  41.324  42.998   1.381
35384W        W 3714  19.539  41.464   3.248
35385W        W 3715  20.627  30.982  13.886
35386W        W 3716  26.473  24.104  10.451
35387W        W 3717  36.555  14.647  14.799
35388W        W 3718  38.884  24.092   0.291
35389W        W 3719  18.055  22.180   4.640
35390W        W 3720  14.762  18.108  13.988
35391W        W 3721  37.880  43.465  13.436
35392W        W 3722  12.752  31.081  12.827
35393W        W 3723  23.083  30.037  14.783
35394W        W 3724  23.104  37.495  14.917
35395W        W 3725  13.792  44.431   3.846
35396W        W 3726  35.419  40.998  12.933
35397W        W 3727   0.355  44.407   3.644
35398W        W 3728  32.555  38.828  13.516
35399W        W 3729  19.135  14.600  13.871
35400W        W 3730  18.071  22.022   3.664
35401W        W 3731  24.482  28.546  14.934
35402W        W 3732  43.481   4.428   3.832
35403W        W 3733  38.912  26.208   3.870
35404W        W 3734   2.774  27.456   4.806
35405W        W 3735  37.558  42.468  13.993
35406W        W 3736   5.806  17.709   1.778
35407W        W 3737   7.266  12.303   1.727
35408W        W 3738   4.904  10.175   3.857
35409W        W 3739   3.264  17.096  12.559
35410W        W 3740  33.984  14.172  12.439
35411W        W 3741  44.482  21.651  10.029
35412W        W 3742  42.351  42.833   2.827
35413W        W 3743  14.185  37.373   0.740
35414W        W 3744  38.443  18.642  14.371
35415W        W 3745  39.520  25.621   2.842
35416W        W 3746  15.202  40.832  10.604
35417W        W 3747  24.609  22.731   3.759
35418W        W 3748  44.793  28.023   4.703
35419W        W 3749   0.783   3.411   3.300
35420W        W 3750  28.484  44.263  10.020
35421W        W 3751  43.971  16.098   1.817
35422W        W 3752   4.924  10.762  11.412
35423W        W 3753   3.823  36.522  10.428
35424W        W 3754   5.692  29.125  14.395
35425W        W 3755  24.589   0.781   3.864
35426W        W 3756   6.232  17.135   5.297
35427W        W 3757  29.556  12.333  14.515
35428W        W 3758  29.974  16.247  12.416
35429W        W 3759  41.444  10.859   1.345
35430W        W 3760  20.722  35.096   3.651
35431W        W 3761  17.138  16.722  11.985
35432W        W 3762  15.261  33.537  10.469
35433W        W 3763  27.049  13.648  13.806
35434W        W 3764  29.924  11.831   1.759
35435W        W 3765   9.304  42.281   2.269
35436W        W 3766  15.164  23.081   2.856
35437W        W 3767  38.567  41.008  13.792
35438W        W 3768   5.755  39.835   0.846
35439W        W 3769  29.128  40.445   4.676
35440W        W 3770   6.901  18.641  12.417
35441W        W 3771  19.132  14.095   1.326
35442W        W 3772  25.571  19.548  11.058
35443W        W 3773  27.692  38.487  12.844
35444W        W 3774  33.103  38.058  13.869
35445W        W 3775  17.580  39.012   1.405
35446W        W 3776  30.068   3.819   0.390
35447W        W 3777  34.865  38.919   1.927
35448W        W 3778  36.965  19.771  11.543
35449W        W 3779  42.030  22.668  13.022
35450W        W 3780  25.028  17.565  13.320
35451W        W 3781  35.591   5.756   3.647
35452W        W 3782  28.107   7.336   1.352
35453W        W 3783  10.234   4.759   4.285
35454W        W 3784  13.266  41.302  13.001
35455W        W 3785  12.168  11.135   1.784
35456W        W 3786  26.065  41.324   1.696
35457W        W 3787  34.458  33.053   2.767
35458W        W 3788  26.491   9.274   5.244
35459W        W 3789  35.557  15.821   3.797
35460W        W 3790  19.177  21.041  13.882
35461W        W 3791   9.292  25.625   1.818
35462W        W 3792  35.883   7.743  13.989
35463W        W 3793  17.761  10.745  13.450
35464W        W 3794   5.358   9.769   2.805
35465W        W 3795  41.980   7.783   0.738
35466W        W 3796  18.272   2.367   0.380
35467W        W 3797   2.460  30.527  11.561
35468W        W 3798  36.587  36.888   1.300
35469W        W 3799   0.304  41.304   3.651
35470W        W 3800   0.940  44.412   5.196
35471W        W 3801  17.076  15.817   1.725
35472W        W 3802  39.553  38.912   2.662
35473W        W 3803  22.033   9.367   5.147
35474W        W 3804  24.105  31.412   0.938
35475W        W 3805  43.956  38.006   2.389
35476W        W 3806  25.684  26.563  14.832
35477W        W 3807   8.764  37.946  12.019
35478W        W 3808   2.444   3.904  12.551
35479W        W 3809  33.501  11.740  10.641
35480W        W 3810   4.225   9.793   3.743
35481W        W 3811  18.651  18.760  12.397
35482W        W 3812  22.179  28.998   4.611
35483W        W 3813  19.149   4.741   1.341
35484W        W 3814  23.039  27.516   3.188
35485W        W 3815  26.974  18.593   0.958
35486W        W 3816  15.125  43.467  10.951
35487W        W 3817  41.310   4.917   4.291
35488W        W 3818   3.895  33.417   0.407
35489W        W 3819   3.354  10.675  13.364
35490W        W 3820  39.987  40.332  12.073
35491W        W 3821  22.580  30.483   1.426
35492W        W 3822  10.724  27.523   2.703
35493W        W 3823  28.617   9.207  13.418
35494W        W 3824   3.756  15.610  12.882
35495W        W 3825  18.611  41.463  14.965
35496W        W 3826  26.500  11.242   9.973
35497W        W 3827  37.915  33.885   1.711
35498W        W 3828  14.104  31.433  10.635
35499W        W 3829  34.571  26.523   0.811
35500W        W 3830  30.936  20.147   3.320
35501W        W 3831  11.687  34.889   4.177
35502W        W 3832  32.915  11.720  14.448
35503W        W 3833   3.321   8.254  13.818
35504W        W 3834  26.627   7.675   3.239
35505W        W 3835  13.298  12.143   0.363
35506W        W 3836  35.509  21.675   2.748
35507W        W 3837  17.689  20.274   4.632
35508W        W 3838  15.244  12.143  12.957
35509W        W 3839  41.877  40.865  14.931
35510W        W 3840   6.216  29.591  12.519
35511W        W 3841  23.600  14.160  14.305
35512W        W 3842  17.202  27.662  11.105
35513W        W 3843  21.255  21.183   0.902
35514W        W 3844  22.072  15.111   4.235
35515W        W 3845  18.133  12.819  12.955
35516W        W 3846  40.871  31.093   3.328
35517W        W 3847  32.468  20.209   0.734
35518W        W 3848  40.009   9.176  12.905
35519W        W 3849  12.236  31.957   2.265
35520W        W 3850   2.306  42.475  10.409
35521W        W 3851   0.322  30.940   0.285
35522W        W 3852   0.758  42.367  14.953
35523W        W 3853  13.198  24.526  11.386
35524W        W 3854  28.592  10.762   3.185
35525W        W 3855  39.917  33.560  14.888
35526W        W 3856  37.966   5.888  10.006
35527W        W 3857  28.613  28.617  14.286
35528W        W 3858  42.503  12.221  11.876
35529W        W 3859  28.466  33.488   4.654
35530W        W 3860  33.584  38.066  12.876
35531W        W 3861  35.429   5.337  14.881
35532W        W 3862  13.778   0.891   0.819
35533W        W 3863   0.436  38.377  12.035
35534W        W 3864  13.325  14.606   3.314
35535W        W 3865  29.518  35.399   1.409
35536W        W 3866  25.629   6.710   2.243
35537W        W 3867  28.995  40.542   3.333
35538W        W 3868   2.774  39.844   3.751
35539W        W 3869  24.533  40.523  11.046
35540W        W 3870  14.209   1.300  10.514
35541W        W 3871  42.888   5.924  13.962
35542W        W 3872  16.717  32.017  14.796
35543W        W 3873  43.299   9.877  11.522
35544W        W 3874  34.016  28.028  12.572
35545W        W 3875  13.253  21.043  12.348
35546W        W 3876  43.010   2.320  12.877
35547W        W 3877  22.174  17.087  10.423
35548W        W 3878   6.914  34.874   0.255
35549W        W 3879  11.708  39.401  12.369
35550W        W 3880  17.658  11.286  11.997
35551W        W 3881  40.849  19.093   3.762
35552W        W 3882  32.414  20.722  11.994
35553W        W 3883  21.070  28.039   9.516
35554W        W 3884  23.667  30.994  13.409
35555W        W 3885  27.559   9.705   0.448
35556W        W 3886  32.502  28.980  13.496
35557W        W 3887  31.498  13.615  11.599
35558W        W 3888  14.277  44.483   4.779
35559W        W 3889  43.297  27.092   2.240
35560W        W 3890  27.670  34.925   0.933
35561W        W 3891  10.273  24.549  11.579
35562W        W 3892   6.738   3.241  12.884
35563W        W 3893  14.594  40.847  13.466
35564W        W 3894  13.642  41.902   4.232
35565W        W 3895  36.421  32.587   3.633
35566W        W 3896  14.162   6.295   4.665
35567W        W 3897  34.484  29.593  14.979
35568W        W 3898   8.235   5.366   1.222
35569W        W 3899  26.038  26.478  13.424
35570W        W 3900  34.014   1.875   1.736
35571W        W 3901  26.208   0.462  14.969
35572W        W 3902  27.173  33.899   2.242
35573W        W 3903   6.776  20.642  11.058
35574W        W 3904  18.622   8.275   3.679
35575W        W 3905  41.436  23.642  12.865
35576W        W 3906  35.079  39.560  14.875
35577W        W 3907   9.851  29.918   4.789
35578W        W 3908   4.226  22.200  12.519
35579W        W 3909   2.797   8.700   2.701
35580W        W 3910  35.884  14.608   4.286
35581W        W 3911   0.766  35.962  12.966
35582W        W 3912   6.678  25.039   3.190
35583W        W 3913  30.004  11.700   0.818
35584W        W 3914   4.722  34.497  13.544
35585W        W 3915  22.530  37.524  12.465
35586W        W 3916  17.725  29.479   2.258
35587W        W 3917  13.206   4.237  11.037
35588W        W 3918   8.680   0.788   3.367
35589W        W 3919   6.916  15.632  11.944
35590W        W 3920   3.297  36.420  11.578
35591W        W 3921  12.769  29.609   3.222
35592W        W 3922  41.786  31.419   0.302
35593W        W 3923  42.459  41.338   1.386
35594W        W 3924  36.421  43.370  11.990
35595W        W 3925  25.697  34.928   3.185
35596W        W 3926  24.593  16.623  11.522
35597W        W 3927   6.390  36.380  14.024
35598W        W 3928  40.816  20.252  11.484
35599W        W 3929  39.894  19.738   1.787
35600W        W 3930   6.873  38.881  14.429
35601W        W 3931  27.572   1.940  14.383
35602W        W 3932  40.871  23.722   4.807
35603W        W 3933  22.610  12.681  12.409
35604W        W 3934  23.152  23.025  11.415
35605W        W 3935  31.153  15.752   2.814
35606W        W 3936  13.211   8.364   0.359
35607W        W 3937  21.151  31.643   2.363
35608W        W 3938   9.841  20.577   0.785
35609W        W 3939  42.300  24.022  13.348
35610W        W 3940   6.342  34.035  11.424
35611W        W 3941  36.035   3.246   1.317
35612W        W 3942  13.108   8.658   2.831
35613W        W 3943   9.339   8.336   4.316
35614W        W 3944  26.123   6.858   2.705
35615W        W 3945  41.420  24.684   0.822
35616W        W 3946  34.063  13.779  12.951
35617W        W 3947  21.577  38.009  13.817
35618W        W 3948   8.167  27.950   3.835
35619W        W 3949  12.157   2.246  13.794
35620W        W 3950  37.503  35.089   4.818
35621W        W 3951  15.820  28.669  14.805
35622W        W 3952  37.912  14.289   0.851
35623W        W 3953  21.198  25.078   0.307
35624W        W 3954  12.823  17.598   2.374
35625W        W 3955  14.598  32.470  13.530
35626W        W 3956  22.717   8.718   2.663
35627W        W 3957   2.790  41.304  10.533
35628W        W 3958  23.064  26.166   3.273
35629W        W 3959  13.129  30.112   4.663
35630W        W 3960   6.907   8.209  11.960
35631W        W 3961  29.948  17.291   0.386
35632W        W 3962  40.414  43.839   1.795
35633W        W 3963  34.403  39.844   3.656
35634W        W 3964  41.502  22.531   1.235
35635W        W 3965   3.886  14.333   4.271
35636W        W 3966  26.016   1.262   1.406
35637W        W 3967  24.635  17.772  11.964
35638W        W 3968  42.940  34.448  10.507
35639W        W 3969  16.777  24.187   4.214
35640W        W 3970   9.648  16.568   2.274
35641W        W 3971  33.947   9.218  13.936
35642W        W 3972  18.622  20.540  10.521
35643W        W 3973  41.308  15.316  11.501
35644W        W 3974  30.549   4.333  10.458
35645W        W 3975  17.778   3.221   5.099
35646W        W 3976  30.546  12.661  14.782
35647W        W 3977  13.758  12.290  12.917
35648W        W 3978  34.614  26.541   2.373
35649W        W 3979  18.759  24.106   2.366
35650W        W 3980  22.727  14.330   0.382
35651W        W 3981  32.907  24.071   4.146
35652W        W 3982  26.105  36.469  10.952
35653W        W 3983  40.466   8.381  11.012
35654W        W 3984  34.468  37.462   1.927
35655W        W 3985  15.638   8.674   4.195
35656W        W 3986  38.435  27.672   1.305
35657W        W 3987  35.407  34.602  13.923
35658W        W 3988  41.519  38.933   3.752
35659W        W 3989  35.523  18.628   3.721
35660W        W 3990   1.279  38.340  10.446
35661W        W 3991  10.694   4.841  14.915
35662W        W 3992  18.138   0.866  13.948
35663W        W 3993  12.853  39.903  10.412
35664W        W 3994  15.727  34.613  14.786
35665W        W 3995  35.476  12.819  13.343
35666W        W 3996  28.565  33.998  12.513
35667W        W 3997  11.752  39.831   3.793
35668W        W 3998  31.923   6.917   0.443
35669W        W 3999  16.648  35.025  11.471
35670W        W 4000  16.653  19.568  12.047
35671W        W 4001  41.393  19.571  10.937
35672W        W 4002  21.696  33.915  11.001
35673W        W 4003  21.094  39.966   2.755
35674W        W 4004  31.600  33.120   0.430
35675W        W 4005  16.784  40.432  10.937
35676W        W 4006   7.306  24.699  11.064
35677W        W 4007   4.721  13.133  14.339
35678W        W 4008  35.395  40.513  13.315
35679W        W 4009  34.551  22.186  10.455
35680W        W 4010  32.025   1.876  14.785
35681W        W 4011   9.871   8.177  12.537
35682W        W 4012  28.017  35.387  10.988
35683W        W 4013  44.461  22.128  14.879
35684W        W 4014  31.980  18.736   5.206
35685W        W 4015  14.168  17.610   4.606
35686W        W 4016   2.880   0.984   3.822
35687W        W 4017  38.889  36.889   0.317
35688W        W 4018  12.325  22.177  10.475
35689W        W 4019  38.472   1.970   0.437
35690W        W 4020  10.704  24.685   1.424
35691W        W 4021  38.534  17.697   3.268
35692W        W 4022  44.793  20.193  12.401
35693W        W 4023  40.895  25.078  10.425
35694W        W 4024  35.412  25.586   3.716
35695W        W 4025  19.061  18.168   3.678
35696W        W 4026   2.388   0.384   3.315
35697W        W 4027  41.382   3.868   4.207
35698W        W 4028  30.118  37.052  13.858
35699W        W 4029  31.095   0.922   0.361
35700W        W 4030  19.175  15.277  13.414
35701W        W 4031   6.732   3.235   4.284
35702W        W 4032   9.178  32.103  13.378
35703W        W 4033  20.613   2.302  11.568
35704W        W 4034  10.821  11.756   3.791
35705W        W 4035   1.261  14.700   4.204
35706W        W 4036  32.086   9.152   3.217
35707W        W 4037  27.134  40.022  10.483
35708W        W 4038  27.956   9.388   0.311
35709W        W 4039  17.719  37.832  13.989
35710W        W 4040  35.102   8.784   3.786
35711W        W 4041  10.288   7.888  12.884
35712W        W 4042   9.724   8.233   3.728
35713W        W 4043  34.977  18.142   0.895
35714W        W 4044   9.884  30.946  10.553
35715W        W 4045  42.496  10.207   4.686
35716W        W 4046  22.503  25.089  12.408
35717W        W 4047  19.656  28.555  12.083
35718W        W 4048  35.499  39.853   1.853
35719W        W 4049  10.755  42.381  14.007
35720W        W 4050  23.685  30.480   1.237
35721W        W 4051  44.453  20.181   2.725
35722W        W 4052  13.347  27.512   2.774
35723W        W 4053  30.423   9.391   1.700
35724W        W 4054   5.289   4.358  14.416
35725W        W 4055  20.185  31.053  11.518
35726W        W 4056  29.617   4.325  14.386
35727W        W 4057  26.968   7.729  12.558
35728W        W 4058  41.793  20.219   3.238
35729W        W 4059  27.159   8.271  11.016
35730W        W 4060  34.586  21.599   1.838
35731W        W 4061  29.967  38.387  13.862
35732W        W 4062  23.730  24.643  10.638
35733W        W 4063  21.074  13.126   5.222
35734W        W 4064  35.948  31.553  11.579
35735W        W 4065  33.459  32.016  13.404
35736W        W 4066  30.045  26.048   4.136
35737W        W 4067   3.344  21.108  11.501
35738W        W 4068  33.050  43.988   4.308
35739W        W 4069   5.415  21.727  12.418
35740W        W 4070  29.647  31.440   1.737
35741W        W 4071  23.174  23.672  14.819
35742W        W 4072   4.275  20.130  14.393
35743W        W 4073  28.140   7.265  11.084
35744W        W 4074  11.366  14.296   2.848
35745W        W 4075  15.644   0.320  11.606
35746W        W 4076  36.399  42.499  13.910
35747W        W 4077  39.900  42.919  10.467
35748W        W 4078  43.346  35.369   0.778
35749W        W 4079  24.217  24.494   3.200
35750W        W 4080   5.925  21.168   2.341
35751W        W 4081  26.561  14.124  14.853
35752W        W 4082  41.369   9.852  11.452
35753W        W 4083  44.435  37.460  14.965
35754W        W 4084  34.521  35.079  11.125
35755W        W 4085  26.133   8.821  10.629
35756W        W 4086   1.349  42.008   4.598
35757W        W 4087  23.097  16.648   2.683
35758W        W 4088  34.473  18.754   1.304
35759W        W 4089  40.419  15.324  12.080
35760W        W 4090   3.753   1.270   4.338
35761W        W 4091  27.019   4.355  13.815
35762W        W 4092  25.032  22.178   2.785
35763W        W 4093   1.377  39.457   0.840
35764W        W 4094  33.073  10.263  13.964
35765W        W 4095  27.480   5.226  11.419
35766W        W 4096  36.896   9.824   2.351
35767W        W 4097   6.304  29.120   3.373
35768W        W 4098  44.290  28.178  11.413
35769W        W 4099  28.653  19.105  14.786
35770W        W 4100  41.790  11.234  11.068
35771W        W 4101  19.230   5.240  13.910
35772W        W 4102  38.842  40.916  10.459
35773W        W 4103  35.404  42.855   4.320
35774W        W 4104  43.940   3.384  13.360
35775W        W 4105   1.832  38.472  10.098
35776W        W 4106   0.252  11.128   1.875
35777W        W 4107   5.889   9.786  13.323
35778W        W 4108  16.159  24.600  10.507
35779W        W 4109  32.130  38.954  10.990
35780W        W 4110   7.892  24.163   0.322
35781W        W 4111  29.172  29.456   3.239
35782W        W 4112  18.680  18.148  11.420
35783W        W 4113   6.346  21.707  11.474
35784W        W 4114  33.624  18.256   3.681
35785W        W 4115  44.825  42.306   2.783
35786W        W 4116  39.061  40.886   0.388
35787W        W 4117   6.683   9.322   0.879
35788W        W 4118   2.407   0.467   3.816
35789W        W 4119   9.779  40.946  13.012
35790W        W 4120  18.664  41.353  10.137
35791W        W 4121  44.879  20.541   4.713
35792W        W 4122  29.123  29.080  13.028
35793W        W 4123  41.875   3.283  14.425
35794W        W 4124  29.669  16.163  10.942
35795W        W 4125  43.340   4.342  12.844
35796W        W 4126   0.440   7.731   1.926
35797W        W 4127  28.152  33.466  11.409
35798W        W 4128  25.992  19.096   1.360
35799W        W 4129  19.624  17.682   0.914
35800W        W 4130  35.400  11.673  10.992
35801W        W 4131  14.235  21.203  12.925
35802W        W 4132  34.402  32.985   2.396
35803W        W 4133   4.702  36.998  11.046
35804W        W 4134  15.666   0.888   0.242
35805W        W 4135  34.404  23.525   3.835
35806W        W 4136  21.635  16.243  13.048
35807W        W 4137   8.201  11.179  12.421
35808W        W 4138  10.748  10.750  14.414
35809W        W 4139  34.038  25.638   3.284
35810W        W 4140  31.568  14.830   4.169
35811W        W 4141  29.538  32.547   5.261
35812W        W 4142   7.730   0.821  10.945
35813W        W 4143  17.213  22.598  10.003
35814W        W 4144  34.492  24.687  13.999
35815W        W 4145  17.196  10.184  11.049
35816W        W 4146  31.636  29.466   4.799
35817W        W 4147   2.431  17.633   3.178
35818W        W 4148  30.996  28.987  11.610
35819W        W 4149  34.405  27.522   2.299
35820W        W 4150  36.434  43.011   5.216
35821W        W 4151  40.507   9.687   4.712
35822W        W 4152  21.724  20.679   1.422
35823W        W 4153  25.120  43.844   0.386
35824W        W 4154   9.268  10.670  10.540
35825W        W 4155  11.846  15.790   1.927
35826W        W 4156  40.424  29.975   3.790
35827W        W 4157  14.697  33.463   4.262
35828W        W 4158  42.316   2.945   0.857
35829W        W 4159   0.743  30.923  13.907
35830W        W 4160   8.763   1.391   1.384
35831W        W 4161   9.723   6.264  11.407
35832W        W 4162  19.265   5.423   3.864
35833W        W 4163   3.305   3.787   1.336
35834W        W 4164   7.351  32.451   4.612
35835W        W 4165   2.791  26.184   1.217
35836W        W 4166  38.360  33.520  12.576
35837W        W 4167   3.442  31.462   0.817
35838W        W 4168  14.822   5.903  12.398
35839W        W 4169   8.243  38.391   0.287
35840W        W 4170  10.675  14.231  13.949
35841W        W 4171  18.643  13.643  12.094
35842W        W 4172  15.651  36.581   0.354
35843W        W 4173  43.993  41.443   3.661
35844W        W 4174  28.516  30.657   4.170
35845W        W 4175   8.681  39.829   3.801
35846W        W 4176  35.407  32.104  10.627
35847W        W 4177  21.173  22.514   0.899
35848W        W 4178  39.924  39.827  14.478
35849W        W 4179  29.574  18.747   2.341
35850W        W 4180  32.485   8.793   2.221
35851W        W 4181  14.769   4.776   1.755
35852W        W 4182  20.662  21.669  11.026
35853W        W 4183  33.976   2.909   0.404
35854W        W 4184  34.392   2.289  11.053
35855W        W 4185  42.395   1.434   1.907
35856W        W 4186   5.273   8.321   2.338
35857W        W 4187   6.715  25.045  11.934
35858W        W 4188   8.893  12.198   1.750
35859W        W 4189  15.630  29.081   5.261
35860W        W 4190  12.620   0.447  11.906
35861W        W 4191  12.339   7.358  10.941
35862W        W 4192  32.915  17.243  14.473
35863W        W 4193   3.438  21.628  13.903
35864W        W 4194  42.467  22.021   1.262
35865W        W 4195  13.316   9.203  11.092
35866W        W 4196  35.457  33.984  13.839
35867W        W 4197  33.106  27.665  12.398
35868W        W 4198  20.717  44.892  12.481
35869W        W 4199  22.108  39.862  13.960
35870W        W 4200  14.162  23.173   1.373
35871W        W 4201  17.256   2.910   3.827
35872W        W 4202  12.679  44.281   3.734
35873W        W 4203  28.645   6.284   2.366
35874W        W 4204  13.281  29.119   0.451
35875W        W 4205   0.804  25.988   2.790
35876W        W 4206   9.854  14.186  11.484
35877W        W 4207  15.105  24.183   2.706
35878W        W 4208   1.411  32.985   1.278
35879W        W 4209  34.061  40.474  14.833
35880W        W 4210   3.923  28.034  11.398
35881W        W 4211  25.040   6.814   4.647
35882W        W 4212  16.100  38.885   2.372
35883W        W 4213  40.307  25.173  11.094
35884W        W 4214   1.894  39.342  13.842
35885W        W 4215   2.797  17.085   0.302
35886W        W 4216  15.246  42.951   1.857
35887W        W 4217  19.726   4.292   0.738
35888W        W 4218  43.327  17.147   0.419
35889W        W 4219  17.650  43.980   3.363
35890W        W 4220  11.726  41.025  11.034
35891W        W 4221  24.142  23.148  12.411
35892W        W 4222  41.419  30.962   1.816
35893W        W 4223  27.625  26.123   3.312
35894W        W 4224  15.676   4.258  13.947
35895W        W 4225  15.246   2.329   3.228
35896W        W 4226  27.566  38.368  13.416
35897W        W 4227  39.498  35.020   2.854
35898W        W 4228  38.033  29.111  13.935
35899W        W 4229   9.825  37.391  12.863
35900W        W 4230  36.055  30.596  10.928
35901W        W 4231  34.586  12.200   4.756
35902W        W 4232   2.942  20.603  10.910
35903W        W 4233  42.818  24.489   1.868
35904W        W 4234   4.279  26.484   0.898
35905W        W 4235  37.910   5.330   0.870
35906W        W 4236  24.680   9.156   4.640
35907W        W 4237   6.803  18.200   0.755
35908W        W 4238  14.731  11.157  12.528
35909W        W 4239  39.376  43.274  13.831
35910W        W 4240  27.198  17.292  11.860
35911W        W 4241   5.912  38.952   1.710
35912W        W 4242  12.298  14.678   1.698
35913W        W 4243  22.693  11.272   1.745
35914W        W 4244  41.027   1.942  13.494
35915W        W 4245  36.391  26.165  11.377
35916W        W 4246  39.507  33.069   3.249
35917W        W 4247  24.024  17.061  14.924
35918W        W 4248  21.123  20.221  13.949
35919W        W 4249  20.156  42.992  12.941
35920W        W 4250  27.566  24.714   1.930
35921W        W 4251  36.471   7.257  12.016
35922W        W 4252  11.667  20.163  11.982
35923W        W 4253  42.512  22.685  14.788
35924W        W 4254  36.358   9.882  14.381
35925W        W 4255   7.712  41.322  11.882
35926W        W 4256  11.291  19.048  11.921
35927W        W 4257  40.857  15.102  11.457
35928W        W 4258   3.883  36.015   5.239
35929W        W 4259  17.748   4.386   4.334
35930W        W 4260  15.586  14.590  14.455
35931W        W 4261  14.753  41.521  10.552
35932W        W 4262  22.531  37.456   2.730
35933W        W 4263  26.552  13.745   2.809
35934W        W 4264  11.347  43.273   3.696
35935W        W 4265   7.888  37.355   0.434
35936W        W 4266  26.191  31.031  14.325
35937W        W 4267   0.766  30.639   1.253
35938W        W 4268  31.004   7.302  11.905
35939W        W 4269  36.903   4.212   3.310
35940W        W 4270  22.695   0.274  11.107
35941W        W 4271   5.723  25.492   4.719
35942W        W 4272  29.602   0.795   0.817
35943W        W 4273  36.929  15.279  14.400
35944W        W 4274  31.440  38.033   0.286
35945W        W 4275  16.599  44.006   4.128
35946W        W 4276  26.049   7.912   1.324
35947W        W 4277  44.953  11.156  11.106
35948W        W 4278  42.292  26.083   2.193
35949W        W 4279  25.474  12.816  12.064
35950W        W 4280  18.296  24.666  13.344
35951W        W 4281  41.293  21.150  13.985
35952W        W 4282  44.469  41.337   4.311
35953W        W 4283  24.173  24.707  12.079
35954W        W 4284   7.387  28.490   0.747
35955W        W 4285  20.532  33.118  13.866
35956W        W 4286  13.621  27.100  14.839
35957W        W 4287  34.368  33.965  10.934
35958W        W 4288   9.771  19.631   4.791
35959W        W 4289  17.648  21.592  12.381
35960W        W 4290  43.786  40.905   2.355
35961W        W 4291   9.826  20.090  11.421
35962W        W 4292  40.866  13.136   2.725
35963W        W 4293  10.263   7.336  13.348
35964W        W 4294   8.850   3.834  12.489
35965W        W 4295  11.691  16.304   2.833
35966W        W 4296  15.809   8.675  14.835
35967W        W 4297  27.124  10.652  14.394
35968W        W 4298  18.087  39.809  10.630
35969W        W 4299  33.955  13.303   4.215
35970W        W 4300   8.396  21.588  12.960
35971W        W 4301  27.997  22.220   4.776
35972W        W 4302  13.615   3.749  14.886
35973W        W 4303   6.916  28.446   2.706
35974W        W 4304  15.182   3.399   0.804
35975W        W 4305   1.920  35.570   0.310
35976W        W 4306  27.141  29.043   4.183
35977W        W 4307  11.764  24.225   1.309
35978W        W 4308   5.853  42.941  11.049
35979W        W 4309   4.269  30.015   4.663
35980W        W 4310  28.066  26.069   1.814
35981W        W 4311  23.083  39.455  14.817
35982W        W 4312  18.080  40.487  11.980
35983W        W 4313  39.977   5.299  11.570
35984W        W 4314  13.628  42.394  11.553
35985W        W 4315  12.636  26.695   0.952
35986W        W 4316  28.446  38.031  13.457
35987W        W 4317   3.305  18.581  13.495
35988W        W 4318   1.343  15.631  13.902
35989W        W 4319  10.359  17.074   2.325
35990W        W 4320  23.693   6.826   4.139
35991W        W 4321  22.013  39.987  13.385
35992W        W 4322  13.731  15.176   1.931
35993W        W 4323  10.700  44.466   3.741
35994W        W 4324   4.914  25.714   0.962
35995W        W 4325  11.257  41.004  14.453
35996W        W 4326  22.076   7.300  12.998
35997W        W 4327  30.027  17.100  11.910
35998W        W 4328   1.810  20.163  14.778
35999W        W 4329  43.821  13.297  12.395
36000W        W 4330  23.118  24.080  13.401
36001W        W 4331  24.213  19.191  13.872
36002W        W 4332  29.666   3.801   1.887
36003W        W 4333   8.305  21.630  10.415
36004W        W 4334  33.617  19.599  13.959
36005W        W 4335  15.800  22.550   3.659
36006W        W 4336  15.761  29.519  10.952
36007W        W 4337  25.498  38.839  10.931
36008W        W 4338   9.154  11.165  13.364
36009W        W 4339  30.042  38.360   0.880
36010W        W 4340  43.397  37.956  11.102
36011W        W 4341   4.857  21.083   1.450
36012W        W 4342  41.837   8.841  10.502
36013W        W 4343  27.024  24.032   0.769
36014W        W 4344  27.973  32.114  13.847
36015W        W 4345  13.267  21.654   4.322
36016W        W 4346   4.439  28.532  13.811
36017W        W 4347  42.839  17.665   0.776
36018W        W 4348  22.602  16.591   0.806
36019W        W 4349   0.257   2.872   4.837
36020W        W 4350   1.953  37.880   0.742
36021W        W 4351  37.876   7.765   0.812
36022W        W 4352   5.772   3.866  10.580
36023W        W 4353  14.781   2.832  14.854
36024W        W 4354  36.933  31.948  13.020
36025W        W 4355  42.883  34.881   0.299
36026W        W 4356   6.751  22.639  13.493
36027W        W 4357  41.389   7.721   0.949
36028W        W 4358  34.417   7.882   0.481
36029W        W 4359  18.267  34.020   3.335
36030W        W 4360  17.138  35.466   1.248
36031W        W 4361  18.610   8.673  12.930
36032W        W 4362  35.975   3.443   0.261
36033W        W 4363   3.284  10.668   2.191
36034W        W 4364  36.369  26.646  12.481
36035W        W 4365   1.844  42.460  14.276
36036W        W 4366  11.200  42.477   3.158
36037W        W 4367  30.625  11.827   3.207
36038W        W 4368  12.824  18.580   2.219
36039W        W 4369  24.011  15.238  12.062
36040W        W 4370   5.742  29.455  13.438
36041W        W 4371   4.878  12.817   0.777
36042W        W 4372   8.364  14.818  13.418
36043W        W 4373  41.821   2.750  12.080
36044W        W 4374  34.974  24.005   4.336
36045W        W 4375  39.051   4.740  13.471
36046W        W 4376  19.075  34.445   1.712
36047W        W 4377  44.000  20.581  14.809
36048W        W 4378  38.838  25.570   0.881
36049W        W 4379  33.944  19.734  14.401
36050W        W 4380  31.562  19.698   0.367
36051W        W 4381  41.798  14.236   2.373
36052W        W 4382  18.065  29.607   3.226
36053W        W 4383  44.330  41.858   0.787
36054W        W 4384  20.064  39.544   0.341
36055W        W 4385  12.186  35.071   0.763
36056W        W 4386  11.223  30.444   4.829
36057W        W 4387  13.616  39.860  13.333
36058W        W 4388  43.787  34.509  12.387
36059W        W 4389  27.105   8.662  11.463
36060W        W 4390   6.792  14.155   1.825
36061W        W 4391   4.870  41.294  14.510
36062W        W 4392  17.772  29.010   2.357
36063W        W 4393  32.417  35.470  12.917
36064W        W 4394  25.021  29.644   4.120
36065W        W 4395  38.421  43.771   0.345
36066W        W 4396  17.571   8.250  14.844
36067W        W 4397   6.756  42.843  14.942
36068W        W 4398  20.251  28.967   5.139
36069W        W 4399  33.910  33.983  13.931
36070W        W 4400   9.319  32.412   3.179
36071W        W 4401  31.994  38.981  14.007
36072W        W 4402  10.643  44.362   2.836
36073W        W 4403   0.894  17.089   4.140
36074W        W 4404  23.557  32.029   4.639
36075W        W 4405  38.053  21.135   1.402
36076W        W 4406  12.822   1.449  14.348
36077W        W 4407  41.843  39.535   0.437
36078W        W 4408  40.367  37.975   0.272
36079W        W 4409  40.929  37.023  13.029
36080W        W 4410  23.998  17.292   1.873
36081W        W 4411   4.914  23.039  10.525
36082W        W 4412  24.554   7.396   0.910
36083W        W 4413  24.012  39.322  12.943
36084W        W 4414   4.300  23.193   4.738
36085W        W 4415  21.705  24.608  14.349
36086W        W 4416   4.253   3.879  10.410
36087W        W 4417  39.353  18.208  12.573
36088W        W 4418  17.186   8.404   1.914
36089W        W 4419   2.363   1.404   0.857
36090W        W 4420  19.647  25.098  11.537
36091W        W 4421  26.536  16.670  10.105
36092W        W 4422   2.374  12.271  12.074
36093W        W 4423  15.239  33.581   2.293
36094W        W 4424  11.760  13.303   1.369
36095W        W 4425  37.447  43.345   0.882
36096W        W 4426  44.455  27.949   3.839
36097W        W 4427  23.153  29.661  12.445
36098W        W 4428  40.350  14.298   1.749
36099W        W 4429  24.056   9.373   1.836
36100W        W 4430  30.459  17.224  11.858
36101W        W 4431   9.649   8.772  10.414
36102W        W 4432  11.147  15.176   1.210
36103W        W 4433  15.187  43.795   3.667
36104W        W 4434  28.444  23.076   1.875
36105W        W 4435  39.885   1.883  10.532
36106W        W 4436  39.949   2.823  13.952
36107W        W 4437  18.294  25.467   4.720
36108W        W 4438  41.336   1.762   4.250
36109W        W 4439  25.494  22.048  10.895
36110W        W 4440  10.260  11.827   1.425
36111W        W 4441  29.172  34.865   2.294
36112W        W 4442  21.175  10.248  10.921
36113W        W 4443  17.723  37.923   3.808
36114W        W 4444  27.664  19.068  10.554
36115W        W 4445  34.059  10.146  13.981
36116W        W 4446  38.069  21.175  10.545
36117W        W 4447  28.573   4.762   1.426
36118W        W 4448  24.215  10.736  13.009
36119W        W 4449   5.752   0.971  11.393
36120W        W 4450   1.256   1.291  10.435
36121W        W 4451   2.290  20.576   2.806
36122W        W 4452  30.567   3.317  10.573
36123W        W 4453  10.759   9.865   4.234
36124W        W 4454  18.547  19.557   2.699
36125W        W 4455  16.584  24.132  10.574
36126W        W 4456  26.181  42.358  11.489
36127W        W 4457  27.140  30.123   0.814
36128W        W 4458  29.513   3.389   2.209
36129W        W 4459  42.347  31.603  13.470
36130W        W 4460  22.044   7.775  10.559
36131W        W 4461  13.321  43.791   1.436
36132W        W 4462  26.962  31.621   3.831
36133W        W 4463  22.052  34.864  10.594
36134W        W 4464   9.207  36.001   4.788
36135W        W 4465   8.400   3.254   0.479
36136W        W 4466  29.476  24.195   5.202
36137W        W 4467   4.243   2.457   2.251
36138W        W 4468  25.578  34.372   4.248
36139W        W 4469  30.628  41.521   2.875
36140W        W 4470  31.490  20.597  10.593
36141W        W 4471  17.098  32.101  14.303
36142W        W 4472  41.873  22.163   1.780
36143W        W 4473  35.901  33.400  11.066
36144W        W 4474  39.377  18.562   1.780
36145W        W 4475   6.915  21.109  10.423
36146W        W 4476  27.976   0.915   4.125
36147W        W 4477  23.096  24.016   1.442
36148W        W 4478  26.115   5.290  11.976
36149W        W 4479  19.133  27.999   0.889
36150W        W 4480   6.194  33.399  13.532
36151W        W 4481  38.062  35.436   0.438
36152W        W 4482  18.269   0.770   2.192
36153W        W 4483   1.406  28.475   4.181
36154W        W 4484  20.118  42.969  14.853
36155W        W 4485  20.757  38.973  14.295
36156W        W 4486   3.243  33.577   0.883
36157W        W 4487   1.346  35.557  11.916
36158W        W 4488  22.139  41.009   4.212
36159W        W 4489   2.823  24.682  14.276
36160W        W 4490  28.497  16.809  14.819
36161W        W 4491  13.222  32.113  11.962
36162W        W 4492  11.191  37.973  14.286
36163W        W 4493  39.474   5.892   4.715
36164W        W 4494  36.940  20.069   2.679
36165W        W 4495  15.607  15.728   0.848
36166W        W 4496  40.813   4.330  11.380
36167W        W 4497  20.153  29.479  10.550
36168W        W 4498   7.374   2.306   2.855
36169W        W 4499  35.442  10.316   4.328
36170W        W 4500  18.669  26.686  14.925
36171W        W 4501  34.546  29.133  14.422
36172W        W 4502   0.770  25.029   1.211
36173W        W 4503  16.617  12.816  12.878
36174W        W 4504  19.140  23.029  10.576
36175W        W 4505  42.783  42.349  10.948
36176W        W 4506   6.399   1.893  11.968
36177W        W 4507  43.487  42.446   1.888
36178W        W 4508  27.118   5.746  11.595
36179W        W 4509  31.897  17.654  11.542
36180W        W 4510  43.333  16.642   4.217
36181W        W 4511  37.371  20.576  11.986
36182W        W 4512   1.885   2.948  13.864
36183W        W 4513  20.197  37.954   3.385
36184W        W 4514  15.163  19.232   4.615
36185W        W 4515  27.661  25.569  12.897
36186W        W 4516  14.620  27.590  10.908
36187W        W 4517   4.410  44.772   1.707
36188W        W 4518  20.100   6.703  10.590
36189W        W 4519   9.274  27.020  14.377
36190W        W 4520  40.334   8.813  12.950
36191W        W 4521  39.963  25.701   2.756
36192W        W 4522  43.412  30.445  13.372
36193W        W 4523  25.107  31.519  13.060
36194W        W 4524  42.322   6.188  13.374
36195W        W 4525  16.224   5.423   4.789
36196W        W 4526  13.691  18.128   3.230
36197W        W 4527  12.827  42.478  14.020
36198W        W 4528  11.791  42.969  14.495
36199W        W 4529  10.782  31.989  13.994
36200W        W 4530  36.377  18.649  11.375
36201W        W 4531  34.401   1.382   3.783
36202W        W 4532  19.248  12.800   3.763
36203W        W 4533   6.788  17.172  11.377
36204W        W 4534  35.539   7.348   4.259
36205W        W 4535   1.851  37.062   3.663
36206W        W 4536  37.572   3.813  14.312
36207W        W 4537  18.271  37.043   0.768
36208W        W 4538  43.514  18.239  10.050
36209W        W 4539  32.141  24.478  13.018
36210W        W 4540  11.845   6.389  11.904
36211W        W 4541   5.416  22.603   3.804
36212W        W 4542   1.950  32.497  14.842
36213W        W 4543  34.369  31.957  14.478
36214W        W 4544   7.202  27.068  12.363
36215W        W 4545  19.217  36.879  13.496
36216W        W 4546  38.823  18.075   2.756
36217W        W 4547  16.217  17.610   3.201
36218W        W 4548   8.278  40.818   2.710
36219W        W 4549  19.561  28.507   4.253
36220W        W 4550  25.137  25.580  13.443
36221W        W 4551  20.617  11.866  13.847
36222W        W 4552  35.925   0.288   1.285
36223W        W 4553  42.501  31.548  14.513
36224W        W 4554  16.573  26.960   1.884
36225W        W 4555  25.170  44.391   3.254
36226W        W 4556  32.596  39.461  11.404
36227W        W 4557   3.360   6.762  11.983
36228W        W 4558  44.361   1.818  10.136
36229W        W 4559  41.493  38.454  14.851
36230W        W 4560  27.073  25.606  13.873
36231W        W 4561   4.207  43.783  11.455
36232W        W 4562   0.453  16.619   2.214
36233W        W 4563   4.931  26.130   2.847
36234W        W 4564  20.172  35.975  11.410
36235W        W 4565  14.131  19.080   4.233
36236W        W 4566  44.497  34.044   3.835
36237W        W 4567   2.868  31.056   0.334
36238W        W 4568  23.503  15.186   1.774
36239W        W 4569  23.221  40.891  11.970
36240W        W 4570   2.382  15.768   2.277
36241W        W 4571   7.243  16.134  12.514
36242W        W 4572  35.365  35.081  11.473
36243W        W 4573   1.281  14.723  11.379
36244W        W 4574  29.046  39.476   2.881
36245W        W 4575  17.177  14.812  11.503
36246W        W 4576  26.099  30.651  14.780
36247W        W 4577  21.165   3.227   2.888
36248W        W 4578   5.793  14.745   0.735
36249W        W 4579  40.322  18.280  11.580
36250W        W 4580   1.780   0.273   4.190
36251W        W 4581  24.631   5.749  14.001
36252W        W 4582  24.648  38.458   4.801
36253W        W 4583  16.073  24.976   0.868
36254W        W 4584  22.053   5.723   3.298
36255W        W 4585  12.199  38.474  11.058
36256W        W 4586  22.020  28.513   2.777
36257W        W 4587  28.630  35.400   2.764
36258W        W 4588  38.363  31.610  13.991
36259W        W 4589  14.302  38.828  11.997
36260W        W 4590  33.114  33.920  10.907
36261W        W 4591  14.210  11.249   3.349
36262W        W 4592   7.899  26.095   1.328
36263W        W 4593   8.285  26.512  13.866
36264W        W 4594  34.552  39.401  13.406
36265W        W 4595   2.241  11.134  10.505
36266W        W 4596  11.741  13.756   4.690
36267W        W 4597  40.007  16.145   3.805
36268W        W 4598  25.644  36.013  13.030
36269W        W 4599  30.505  34.078   0.360
36270W        W 4600  18.228  44.875   2.252
36271W        W 4601  12.679  21.533  14.301
36272W        W 4602  12.233  33.607  13.455
36273W        W 4603   1.246  17.756   1.882
36274W        W 4604  44.970  34.512  10.972
36275W        W 4605  43.946  28.089  14.478
36276W        W 4606  43.495   5.897  10.485
36277W        W 4607   5.209   7.409  11.948
36278W        W 4608  29.950  24.020  10.592
36279W        W 4609  28.092  11.278   2.292
36280W        W 4610  28.661  36.861   0.467
36281W        W 4611  30.568  43.504   2.256
36282W        W 4612  44.763  18.596   1.277
36283W        W 4613  20.263  25.174  10.612
36284W        W 4614   1.914  30.068  13.932
36285W        W 4615  34.929   0.257   4.714
36286W        W 4616  17.602  10.819   4.322
36287W        W 4617  30.924  16.670   0.780
36288W        W 4618  30.562   7.310   3.172
36289W        W 4619   5.877  36.977   2.206
36290W        W 4620  38.498   7.727  14.426
36291W        W 4621  10.714  22.157  14.477
36292W        W 4622  42.791  44.870   1.907
36293W        W 4623  31.055   3.232  10.620
36294W        W 4624  23.115   0.356   0.776
36295W        W 4625  34.547  19.706  14.298
36296W        W 4626   7.803  38.878  10.487
36297W        W 4627   1.775  29.999   3.780
36298W        W 4628   7.861   5.734  13.946
36299W        W 4629  43.355   9.839   2.740
36300W        W 4630  23.210  34.007  13.007
36301W        W 4631  37.369  28.607   2.689
36302W        W 4632  13.735  27.446  11.436
36303W        W 4633  43.290  22.590   1.842
36304W        W 4634  42.866   8.819   2.335
36305W        W 4635  10.797  39.393  11.104
36306W        W 4636  42.872  34.953   3.752
36307W        W 4637  16.745   6.733  11.399
36308W        W 4638  37.007  16.236   3.361
36309W        W 4639  19.151   4.936  11.407
36310W        W 4640  18.713   9.374  14.927
36311W        W 4641  34.488  41.828  10.599
36312W        W 4642  28.070  25.978   1.229
36313W        W 4643  27.982  27.608  10.997
36314W        W 4644  10.786  44.954  12.995
36315W        W 4645  30.153  27.129   2.353
36316W        W 4646   6.848  27.165   1.413
36317W        W 4647   7.304  22.150  10.463
36318W        W 4648  40.520  19.042   0.857
36319W        W 4649  15.083   7.826   1.848
36320W        W 4650  14.808  11.695  13.354
36321W        W 4651   3.807  25.159  14.976
36322W        W 4652  13.149   6.416   5.122
36323W        W 4653  34.396   8.286  13.531
36324W        W 4654  35.873  19.549  11.012
36325W        W 4655   3.286   9.658   2.727
36326W        W 4656  10.326  38.570  11.983
36327W        W 4657   7.203  21.256   2.864
36328W        W 4658   1.447  14.752  14.838
36329W        W 4659  33.408  28.602   4.267
36330W        W 4660  17.068  13.221   3.820
36331W        W 4661  29.481  18.706   2.859
36332W        W 4662   1.798  40.496  13.849
36333W        W 4663  13.809  40.528   2.238
36334W        W 4664  15.784  33.403  12.008
36335W        W 4665   6.745  35.382   2.392
36336W        W 4666  33.919  31.485   3.271
36337W        W 4667  14.162  37.000  14.909
36338W        W 4668  38.045  19.214  14.508
36339W        W 4669   0.439  31.499  12.976
36340W        W 4670   0.813  42.493  14.297
36341W        W 4671  39.323  29.974   3.745
36342W        W 4672  37.423  27.586  10.982
36343W        W 4673  36.480  27.532  14.484
36344W        W 4674  30.912  34.448  13.360
36345W        W 4675  22.009  34.103  11.031
36346W        W 4676  41.968  34.107   4.137
36347W        W 4677  18.763  33.089   2.386
36348W        W 4678  20.221   7.270  10.985
36349W        W 4679  42.420   6.852  14.765
36350W        W 4680  36.375  21.071   5.118
36351W        W 4681  10.324  18.123   0.956
36352W        W 4682  40.997  23.231  11.008
36353W        W 4683  42.027   9.231  12.847
36354W        W 4684  21.563   6.915  13.823
36355W        W 4685  26.670  13.250   2.379
36356W        W 4686  36.968  21.719   2.215
36357W        W 4687  17.069   0.452   0.407
36358W        W 4688   4.891  11.863  10.462
36359W        W 4689   0.832  38.949   3.347
36360W        W 4690  11.784  10.819  11.957
36361W        W 4691  11.232  37.067  14.956
36362W        W 4692  22.039  16.748  10.004
36363W        W 4693  23.163  21.115  12.007
36364W        W 4694   2.811  21.586   2.279
36365W        W 4695   1.751   4.775  13.009
36366W        W 4696   1.479  26.697   3.765
36367W        W 4697   9.171   8.707   4.344
36368W        W 4698  30.642  18.105  12.947
36369W        W 4699  35.081   4.267   2.315
36370W        W 4700  26.013  44.835   1.754
36371W        W 4701  15.152  15.114  14.371
36372W        W 4702   1.893   8.664   0.854
36373W        W 4703  30.934  40.928  11.499
36374W        W 4704  40.824  22.518   4.335
36375W        W 4705  10.378   8.761  13.020
36376W        W 4706   5.241  37.554  13.377
36377W        W 4707   2.326  41.492   4.325
36378W        W 4708   0.880  40.923   1.904
36379W        W 4709  24.627  42.835  10.591
36380W        W 4710  33.065  33.600  13.050
36381W        W 4711  21.194  33.964  13.333
36382W        W 4712   2.931  12.190  11.908
36383W        W 4713  14.165  34.923  12.549
36384W        W 4714  34.050  37.861   0.940
36385W        W 4715   7.185   9.248   1.374
36386W        W 4716   9.230  11.844   4.730
36387W        W 4717  35.554  43.514   4.277
36388W        W 4718  41.841  38.515   3.186
36389W        W 4719   7.880  32.415   2.888
36390W        W 4720  10.361   6.236  10.487
36391W        W 4721  36.071  19.641   2.869
36392W        W 4722  29.637  16.811   4.627
36393W        W 4723  37.582  16.232  13.316
36394W        W 4724  16.669   6.236  14.506
36395W        W 4725  43.477  41.400   0.861
36396W        W 4726  26.033  17.666   4.791
36397W        W 4727  15.213  38.947  11.026
36398W        W 4728   2.367   9.772  12.980
36399W        W 4729  27.643  16.748   3.151
36400W        W 4730   9.177  34.494   0.806
36401W        W 4731   1.862   6.922   4.749
36402W        W 4732  14.334  28.574   4.125
36403W        W 4733  18.180  43.799   2.278
36404W        W 4734  44.490   8.191  13.405
36405W        W 4735   3.287   7.858   3.308
36406W        W 4736  43.912  44.406  13.404
36407W        W 4737  27.095  33.896  14.343
36408W        W 4738   3.374  15.292  12.071
36409W        W 4739  21.127  29.501  12.906
36410W        W 4740  43.815  38.820  10.613
36411W        W 4741   6.839   2.779   2.725
36412W        W 4742  10.677  10.732  12.973
36413W        W 4743  21.081  18.256  11.070
36414W        W 4744  41.461  40.499   2.223
36415W        W 4745  18.677  38.430   2.385
36416W        W 4746  42.385  30.559   3.708
36417W        W 4747  21.542  17.284  10.923
36418W        W 4748  14.190  44.332   1.404
36419W        W 4749  32.037  11.712   3.317
36420W        W 4750  14.127  31.034  13.012
36421W        W 4751   2.959  10.321  14.330
36422W        W 4752  12.712   1.431   3.353
36423W        W 4753  24.070   8.708  11.404
36424W        W 4754  16.621  44.377   1.389
36425W        W 4755  12.807  37.077  12.081
36426W        W 4756  36.055   6.813  12.417
36427W        W 4757  40.402  33.567  14.818
36428W        W 4758  40.329  16.674   3.656
36429W        W 4759   6.293  36.915  11.073
36430W        W 4760  25.505  32.978   3.164
36431W        W 4761  37.989  29.555  14.018
36432W        W 4762  26.676   0.383   5.289
36433W        W 4763  18.790  37.849  11.547
36434W        W 4764  42.365  36.567   2.198
36435W        W 4765  25.003  16.084   0.764
36436W        W 4766   7.723  12.330  12.529
36437W        W 4767  21.542  39.349   0.947
36438W        W 4768  24.196  15.804   2.317
36439W        W 4769  18.244  13.840   4.322
36440W        W 4770  24.646  27.651  14.015
36441W        W 4771  43.388  16.783   3.292
36442W        W 4772  23.557  40.320   0.361
36443W        W 4773  11.679  39.042  14.773
36444W        W 4774  21.526  25.078  11.920
36445W        W 4775  33.017  37.023   4.154
36446W        W 4776  21.696  17.216   5.738
36447W        W 4777  36.391   1.965  10.115
36448W        W 4778   0.980  32.930  11.434
36449W        W 4779  43.772  39.844   0.823
36450W        W 4780  12.742  44.775   0.374
36451W        W 4781  32.051  27.122  12.020
36452W        W 4782  36.420  38.335   4.301
36453W        W 4783  14.709  12.190  10.576
36454W        W 4784   7.706  41.303   3.186
36455W        W 4785  19.710  21.093  12.829
36456W        W 4786  16.259  34.907   5.614
36457W        W 4787  36.869  44.401  12.984
36458W        W 4788  21.182   9.259   3.650
36459W        W 4789  24.715   5.368  12.949
36460W        W 4790  25.590   4.256   3.307
36461W        W 4791  25.080   0.832  11.605
36462W        W 4792  27.042  12.280  14.434
36463W        W 4793  12.273  16.756  13.801
36464W        W 4794  32.607  38.424  13.948
36465W        W 4795   3.349  35.389   4.796
36466W        W 4796   7.408  26.082  12.424
36467W        W 4797   8.218  12.843   0.959
36468W        W 4798  16.080  25.595   0.965
36469W        W 4799  12.683  10.683  12.439
36470W        W 4800  12.297  32.595  12.909
36471W        W 4801  11.330   1.933  13.915
36472W        W 4802  19.610  32.959   2.792
36473W        W 4803  13.185  40.913   4.661
36474W        W 4804  13.342   5.697   4.261
36475W        W 4805  33.093   8.831   4.189
36476W        W 4806  19.108   5.843   0.461
36477W        W 4807  20.700  38.985  13.534
36478W        W 4808   9.847  21.706  13.439
36479W        W 4809   2.432  35.496   3.225
36480W        W 4810  31.578   6.836   4.684
36481W        W 4811   6.332  11.198   0.255
36482W        W 4812  22.240  33.489  13.395
36483W        W 4813   8.248   3.716  13.514
36484W        W 4814  43.499  26.652  14.967
36485W        W 4815  11.324  12.191  13.478
36486W        W 4816  17.733  42.006   0.858
36487W        W 4817  25.644   7.186  14.783
36488W        W 4818  10.200  26.550   0.737
36489W        W 4819   7.788  16.276   3.268
36490W        W 4820  21.126  10.684  14.945
36491W        W 4821   1.868  18.062  13.373
36492W        W 4822  28.448  38.927   4.282
36493W        W 4823  33.403  34.448   0.324
36494W        W 4824  33.053  28.438  12.556
36495W        W 4825   7.416  22.508  14.817
36496W        W 4826  19.109  23.168   4.762
36497W        W 4827  25.164  44.473  13.987
36498W        W 4828  27.193  23.124   3.714
36499W        W 4829   5.743  40.979  11.592
36500W        W 4830  26.088  42.510   4.227
36501W        W 4831  36.494   1.458  11.494
36502W        W 4832   4.252  24.009  13.486
36503W        W 4833  19.221  21.536  13.928
36504W        W 4834  22.628   7.814  11.519
36505W        W 4835  21.528  27.513   1.805
36506W        W 4836  33.114  19.245   1.821
36507W        W 4837  23.145  38.404   1.302
36508W        W 4838  37.398  36.946  11.056
36509W        W 4839  39.824  37.354   2.388
36510W        W 4840  17.637  10.804  11.532
36511W        W 4841  41.372   1.754  11.876
36512W        W 4842  42.908  14.775  12.886
36513W        W 4843  26.966   8.207  14.505
36514W        W 4844  35.916  19.157  14.897
36515W        W 4845   4.315  38.359  14.808
36516W        W 4846  30.492  13.272   4.117
36517W        W 4847  17.307  22.098   9.954
36518W        W 4848  18.654  41.915   2.195
36519W        W 4849  35.424  23.670  13.429
36520W        W 4850  22.707  14.172  11.077
36521W        W 4851   0.908   1.893   3.314
36522W        W 4852  17.719  30.975   1.417
36523W        W 4853  40.528  20.753  14.941
36524W        W 4854  13.740   7.779  11.386
36525W        W 4855  30.101  43.275  11.890
36526W        W 4856  33.552   6.890   0.410
36527W        W 4857   9.875   3.320   0.252
36528W        W 4858  37.909   9.831   4.620
36529W        W 4859  33.907  42.328   1.297
36530W        W 4860   2.961  21.664  14.340
36531W        W 4861  30.578  23.035   3.783
36532W        W 4862   1.348   9.851  13.527
36533W        W 4863  20.077   4.805   4.194
36534W        W 4864  15.692  19.588  12.518
36535W        W 4865  12.734  21.046  12.068
36536W        W 4866  41.383  20.118  11.885
36537W        W 4867  26.071   4.918  12.900
36538W        W 4868   1.241  25.638   0.437
36539W        W 4869  23.206   1.459  12.907
36540W        W 4870  30.451  42.024   2.770
36541W        W 4871  34.898  23.694  12.402
36542W        W 4872  13.141  21.143  10.056
36543W        W 4873  41.030  10.366   1.913
36544W        W 4874  19.255  19.548   2.256
36545W        W 4875  34.540   2.856  14.441
36546W        W 4876  13.150  32.571  14.777
36547W        W 4877  16.653  37.079   0.411
36548W        W 4878  11.366  33.036  13.448
36549W        W 4879  17.567  12.677  13.994
36550W        W 4880  15.258  28.644   0.828
36551W        W 4881  14.743  35.989  14.777
36552W        W 4882  40.051  18.062   0.769
36553W        W 4883   7.279  21.725  11.452
36554W        W 4884  16.171  19.611   0.300
36555W        W 4885  14.741  14.289   0.823
36556W        W 4886  28.029  27.078   4.663
36557W        W 4887  19.706  21.619  12.360
36558W        W 4888  16.755  30.029   3.707
36559W        W 4889  19.684  21.583  13.936
36560W        W 4890   6.861  14.707   3.259
36561W        W 4891  12.810  31.505  13.313
36562W        W 4892  41.839  33.450  11.035
36563W        W 4893  34.438  31.903   2.279
36564W        W 4894   0.966  23.071   0.456
36565W        W 4895  26.159  25.029  10.897
36566W        W 4896  43.980  35.458  14.435
36567W        W 4897  17.559  22.097  11.605
36568W        W 4898  12.175  16.108  13.958
36569W        W 4899   4.316  11.234   2.386
36570W        W 4900  31.587  24.612  12.912
36571W        W 4901   0.836  17.659   3.385
36572W        W 4902  13.242  31.977   1.349
36573W        W 4903  19.573  19.167   2.272
36574W        W 4904  44.824  23.490   4.195
36575W        W 4905  30.565   5.363   0.774
36576W        W 4906  32.930   0.935  10.931
36577W        W 4907  43.277   3.778   1.879
36578W        W 4908  44.873  32.071  13.894
36579W        W 4909   1.400  29.526  13.482
36580W        W 4910   0.928  44.974  12.084
36581W        W 4911  19.768  11.672   0.245
36582W        W 4912  14.728  43.859   3.701
36583W        W 4913  29.499  14.606   0.917
36584W        W 4914  19.081  41.401   0.839
36585W        W 4915   4.255  43.414  14.806
36586W        W 4916  42.879  35.934  14.428
36587W        W 4917  19.627  17.246   0.812
36588W        W 4918   1.879  44.763   1.785
36589W        W 4919  43.983  26.662  12.354
36590W        W 4920  35.942  21.139   3.220
36591W        W 4921   9.227  11.327  12.353
36592W        W 4922  10.670  43.344   4.142
36593W        W 4923  27.186  41.996  13.939
36594W        W 4924   6.200   3.367   0.343
36595W        W 4925  14.217   7.239   4.349
36596W        W 4926  37.470  32.088   5.272
36597W        W 4927  16.216  28.445  11.976
36598W        W 4928  36.475  25.147  12.074
36599W        W 4929  34.964  22.239  14.841
36600W        W 4930  44.408  31.146  12.026
36601W        W 4931  12.330  32.093   1.330
36602W        W 4932   0.865  33.970   0.942
36603W        W 4933  35.919   7.359   0.328
36604W        W 4934  40.843  18.141  10.602
36605W        W 4935  15.325  40.542  13.801
36606W        W 4936  14.271   1.428   4.208
36607W        W 4937  43.946  34.973   1.302
36608W        W 4938  19.771   6.265  14.927
36609W        W 4939   7.236  37.560  11.069
36610W        W 4940  26.657  13.680  14.447
36611W        W 4941  11.823   4.440  14.827
36612W        W 4942  34.593  24.154  14.343
36613W        W 4943  25.125  11.214  10.118
36614W        W 4944   4.259  26.125  13.923
36615W        W 4945   2.741  30.991  11.921
36616W        W 4946  17.227  33.518   0.468
36617W        W 4947  41.501  44.844   0.375
36618W        W 4948  30.127  33.974  12.441
36619W        W 4949  14.803  26.145  11.889
36620W        W 4950  33.066   0.757   3.305
36621W        W 4951  19.051  30.654  13.059
36622W        W 4952  13.689  24.018   4.717
36623W        W 4953  22.175  30.121  11.979
36624W        W 4954   4.427  29.457   3.250
36625W        W 4955  30.496  13.657  14.923
36626W        W 4956  18.702  14.663   4.182
36627W        W 4957  18.631  14.290   4.611
36628W        W 4958  17.146  31.412   3.195
36629W        W 4959  19.778  27.095   0.368
36630W        W 4960   6.369  13.322  10.615
36631W        W 4961  24.077   3.293   0.449
36632W        W 4962  25.153  32.077  13.479
36633W        W 4963  39.907   9.311   2.668
36634W        W 4964  27.644  24.670  14.395
36635W        W 4965   2.731  24.509  14.792
36636W        W 4966   9.169  30.025  12.059
36637W        W 4967  22.688  30.149  10.919
36638W        W 4968  35.445  14.762   4.340
36639W        W 4969   3.812   7.262   1.217
36640W        W 4970  21.582  42.341   3.166
36641W        W 4971  27.639  22.157  11.413
36642W        W 4972  44.491  11.323  12.940
36643W        W 4973  36.915  43.864   4.336
36644W        W 4974  22.183  24.038   4.798
36645W        W 4975  11.272   7.317  14.368
36646W        W 4976  41.987  23.180   3.234
36647W        W 4977   5.844   3.422   1.904
36648W        W 4978  23.138  39.365  14.366
36649W        W 4979  44.314  14.674   0.937
36650W        W 4980  42.912  42.367   0.734
36651W        W 4981  12.253  39.555  12.516
36652W        W 4982  40.869  27.153   2.357
36653W        W 4983   0.442   9.182   2.699
36654W        W 4984  15.243   4.291  11.987
36655W        W 4985  27.652  14.807   1.362
36656W        W 4986   2.262  15.314   3.243
36657W        W 4987  16.221  18.709   3.256
36658W        W 4988  34.091  28.151  12.060
36659W        W 4989  32.566   0.839  11.907
36660W        W 4990  23.518  30.598  14.397
36661W        W 4991  41.011  21.719   0.429
36662W        W 4992   1.476  31.588  12.087
36663W        W 4993   7.869   4.764   3.281
36664W        W 4994   1.754   4.937  14.870
36665W        W 4995  10.834   1.810  13.880
36666W        W 4996   4.703  15.597  14.415
36667W        W 4997  26.568  30.516  14.379
36668W        W 4998  41.918   4.863   9.981
36669W        W 4999   7.727  44.832   4.643
36670W        W 5000  28.618  23.184   2.383
36671W        W 5001   4.921  38.519   5.609
36672W        W 5002  27.080  24.123   0.357
36673W        W 5003  35.914   7.738  12.896
36674W        W 5004  22.241  40.307   2.666
36675W        W 5005   5.284  25.655   4.673
36676W        W 5006  20.534   5.900   4.355
36677W        W 5007  32.461   0.315  13.833
36678W        W 5008   6.831   5.291  12.445
36679W        W 5009  31.977  20.687  14.502
36680W        W 5010  21.623  11.160   3.855
36681W        W 5011  38.514   0.924   3.871
36682W        W 5012  21.077  42.884  13.856
36683W        W 5013  35.445  17.586   2.308
36684W        W 5014  34.464  25.588   0.440
36685W        W 5015  25.579  22.145  13.380
36686W        W 5016   6.369   0.268  10.464
36687W        W 5017  11.855   4.247   1.296
36688W        W 5018  41.788  31.540   2.812
36689W        W 5019  43.913   1.942   0.368
36690W        W 5020   0.478  35.425   3.844
36691W        W 5021  29.972  25.651   2.225
36692W        W 5022  43.402   3.431   0.319
36693W        W 5023  26.621   4.905   2.351
36694W        W 5024  13.316  24.588   0.261
36695W        W 5025  41.957  40.915   4.248
36696W        W 5026   9.772  36.482  10.409
36697W        W 5027  20.679  23.515   2.666
36698W        W 5028  43.813  32.486  12.405
36699W        W 5029  41.449  36.385  12.959
36700W        W 5030  42.844  28.520  12.461
36701W        W 5031  40.502  24.572  11.564
36702W        W 5032  34.081   6.782  11.873
36703W        W 5033  20.163  42.444  12.073
36704W        W 5034  35.022   9.788   1.921
36705W        W 5035   8.896  44.789  13.317
36706W        W 5036  25.036  40.866   2.385
36707W        W 5037  13.347   8.337  10.921
36708W        W 5038  44.471  18.103  14.384
36709W        W 5039   8.888  24.166   5.217
36710W        W 5040  26.522  24.491   1.769
36711W        W 5041  27.517  35.095   1.695
36712W        W 5042   1.828  22.144   1.820
36713W        W 5043  43.311  39.029   1.708
36714W        W 5044   0.335  15.773   2.240
36715W        W 5045  26.638   0.325  10.969
36716W        W 5046   3.267  16.658   0.395
36717W        W 5047  29.462  18.080  13.058
36718W        W 5048  26.984  42.813  10.605
36719W        W 5049  35.600  40.945   4.830
36720W        W 5050  37.040   2.295  14.820
36721W        W 5051   4.715  13.607   3.677
36722W        W 5052  30.998   4.929  14.328
36723W        W 5053   3.299  40.895  11.042
36724W        W 5054   3.749  37.489  14.338
36725W        W 5055  13.118  19.647   0.313
36726W        W 5056  37.882  24.064   4.664
36727W        W 5057  41.343  14.171  14.412
36728W        W 5058  14.753  35.557  12.868
36729W        W 5059  18.667  42.478   3.336
36730W        W 5060  44.309  10.637  10.478
36731W        W 5061  39.009  15.664  13.508
36732W        W 5062  26.147  16.616  12.027
36733W        W 5063  44.819  31.942  11.872
36734W        W 5064   4.366   2.906  12.890
36735W        W 5065  44.858  21.727  12.879
36736W        W 5066  41.444  20.568  13.000
36737W        W 5067  24.635  10.212  10.481
36738W        W 5068   8.187  28.602  13.856
36739W        W 5069   4.752  13.313   5.194
36740W        W 5070  40.867  13.845   0.388
36741W        W 5071   7.403   2.954  12.549
36742W        W 5072  40.360  38.398  10.495
36743W        W 5073  12.795  22.118  10.985
36744W        W 5074   4.250  18.785  10.506
36745W        W 5075  11.686  26.130  11.887
36746W        W 5076  43.797   4.755   4.153
36747W        W 5077  11.352  42.793   1.406
36748W        W 5078  44.419  35.364   3.668
36749W        W 5079  35.986  16.275  12.826
36750W        W 5080  28.470   4.444   4.687
36751W        W 5081  44.938  34.950   2.404
36752W        W 5082   5.347  26.606   3.253
36753W        W 5083  39.829  38.936   0.854
36754W        W 5084  21.132  36.066  13.411
36755W        W 5085  33.421   6.195   0.307
36756W        W 5086   1.889  17.754  13.339
36757W        W 5087   0.820   9.179  12.045
36758W        W 5088  16.114  19.202  12.868
36759W        W 5089  16.203  23.633   4.223
36760W        W 5090  43.814  14.132  10.535
36761W        W 5091  43.283  35.971  13.858
36762W        W 5092  11.795  33.609  14.296
36763W        W 5093  13.131  33.973   4.791
36764W        W 5094  15.717  23.183   1.377
36765W        W 5095  30.538  34.395   2.188
36766W        W 5096  13.664  13.832   0.257
36767W        W 5097   1.302   7.378   2.296
36768W        W 5098  16.182  21.530  13.055
36769W        W 5099  25.124   2.797  13.856
36770W        W 5100  44.862  33.553  14.785
36771W        W 5101  10.167  42.412   2.681
36772W        W 5102  41.913  35.899  14.962
36773W        W 5103  24.033  15.645   3.145
36774W        W 5104  15.743  12.267   2.298
36775W        W 5105  37.959  23.120  11.539
36776W        W 5106  33.000  29.160  11.064
36777W        W 5107  12.356   7.304   3.765
36778W        W 5108  17.265  17.649  10.895
36779W        W 5109  41.793  25.627   0.369
36780W        W 5110   5.918  16.722  13.307
36781W        W 5111  26.038   0.377   1.247
36782W        W 5112  19.172  10.684   1.710
36783W        W 5113  10.290  27.595  14.480
36784W        W 5114   2.394  17.256  13.918
36785W        W 5115   9.283   1.422   3.667
36786W        W 5116  25.203  25.514   1.853
36787W        W 5117  42.437  31.491  10.977
36788W        W 5118  32.431   4.748  12.875
36789W        W 5119  28.638  22.647   2.240
36790W        W 5120  12.192   4.256  12.026
36791W        W 5121   3.915  24.670   0.345
36792W        W 5122   0.751  11.709   1.750
36793W        W 5123  23.237  39.440  10.617
36794W        W 5124   0.792  29.646  14.436
36795W        W 5125  26.188   4.223  11.574
36796W        W 5126  39.048  42.904   1.702
36797W        W 5127  43.941  34.588   1.831
36798W        W 5128  31.081  23.998  10.425
36799W        W 5129  35.874  33.392   2.398
36800W        W 5130   6.382  28.942  13.903
36801W        W 5131  38.372  42.428  11.115
36802W        W 5132  28.117   9.244   1.895
36803W        W 5133   3.886  39.553  10.522
36804W        W 5134  26.690  28.031   1.440
36805W        W 5135  28.602   4.388   0.259
36806W        W 5136   5.246  24.056   3.214
36807W        W 5137   9.238  31.961  11.499
36808W        W 5138  11.300  24.702  10.645
36809W        W 5139   2.435  36.464  10.479
36810W        W 5140  15.241  40.486   1.869
36811W        W 5141  23.532   0.305   1.927
36812W        W 5142   4.847  27.602  10.993
36813W        W 5143  30.414  18.164  12.391
36814W        W 5144  25.208   2.830  14.922
36815W        W 5145  39.361  32.965   2.349
36816W        W 5146  41.851  35.384  10.624
36817W        W 5147  38.568   5.199  13.064
36818W        W 5148  37.909  13.254  11.396
36819W        W 5149   7.839  26.985   1.386
36820W        W 5150  20.678   5.929   0.835
36821W        W 5151  22.142  10.377   3.821
36822W        W 5152  38.910   9.811  11.970
36823W        W 5153  11.163   3.460   2.695
36824W        W 5154  38.327  35.960   4.155
36825W        W 5155  11.246  40.931   1.935
36826W        W 5156  25.113  35.948  12.005
36827W        W 5157   5.336   2.406  13.928
36828W        W 5158  43.996  36.540   0.943
36829W        W 5159  19.117  18.644  12.492
36830W        W 5160  30.080  27.034   4.689
36831W        W 5161  33.472  22.074  10.912
36832W        W 5162  30.455  32.522  14.928
36833W        W 5163  34.405  31.090  11.123
36834W        W 5164  10.874   2.453   4.670
36835W        W 5165  26.501  35.900   3.297
36836W        W 5166  11.858  27.497  11.110
36837W        W 5167  42.290  36.432  14.388
36838W        W 5168  38.359   9.277  13.835
36839W        W 5169  39.811   3.224  14.412
36840W        W 5170  24.505  13.282   4.804
36841W        W 5171  41.427  34.931   0.925
36842W        W 5172  22.062  43.859   3.750
36843W        W 5173  41.396  39.890  12.507
36844W        W 5174  16.708  11.822  10.621
36845W        W 5175  28.604  24.101  14.888
36846W        W 5176  43.324  29.137  11.521
36847W        W 5177  15.109  11.136   3.251
36848W        W 5178  33.560  35.909  11.385
36849W        W 5179  28.551  25.012   0.480
36850W        W 5180   6.837  39.525  13.442
36851W        W 5181  42.857  36.039   0.900
36852W        W 5182  28.000  25.507   0.933
36853W        W 5183  39.023   7.899   0.812
36854W        W 5184  23.675  36.871  11.003
36855W        W 5185  17.306  28.052   4.752
36856W        W 5186  35.033   1.388  13.847
36857W        W 5187  14.262  11.725  12.526
36858W        W 5188  44.954  35.997  14.307
36859W        W 5189  13.271  37.407  12.499
36860W        W 5190  40.496  34.518  12.971
36861W        W 5191  36.439  14.319   3.700
36862W        W 5192  32.976  17.797   4.338
36863W        W 5193   3.241  30.979   4.280
36864W        W 5194   7.884   7.909   0.451
36865W        W 5195  26.101   6.791   2.211
36866W        W 5196  25.610   7.173  12.064
36867W        W 5197  20.701  44.865  14.415
36868W        W 5198  15.274  36.467   1.319
36869W        W 5199  17.245  39.816   2.312
36870W        W 5200  14.689  36.473   3.648
36871W        W 5201   5.285  23.684   1.300
36872W        W 5202  19.655   8.226   3.648
36873W        W 5203  19.706  11.328  13.367
36874W        W 5204  32.057  16.638   3.283
36875W        W 5205   9.299  30.106  10.890
36876W        W 5206  11.854   5.430  11.899
36877W        W 5207   4.754  18.256   1.874
36878W        W 5208  32.077  23.057  11.481
36879W        W 5209  10.317  29.924  12.505
36880W        W 5210  44.303  24.568  13.056
36881W        W 5211  13.327  21.749   0.851
36882W        W 5212  26.567  40.980  11.930
36883W        W 5213  35.897  22.743   0.941
36884W        W 5214   5.371   6.716  12.399
36885W        W 5215  18.632  26.141   3.196
36886W        W 5216  36.984   1.287   3.201
36887W        W 5217  14.792   6.374  10.562
36888W        W 5218  13.750  12.305  13.438
36889W        W 5219   8.372  12.797   3.248
36890W        W 5220   4.807  24.085   0.727
36891W        W 5221  41.470   5.269  11.040
36892W        W 5222   2.464  24.724  11.447
36893W        W 5223   8.772   8.849  13.993
36894W        W 5224   0.790  41.444  11.960
36895W        W 5225  23.541  37.987   1.389
36896W        W 5226  10.724   7.197  11.563
36897W        W 5227  32.541   0.393   2.273
36898W        W 5228   3.250  12.255  14.909
36899W        W 5229  40.815  11.146   0.471
36900W        W 5230  10.783  41.299   4.765
36901W        W 5231  43.841  11.723   4.234
36902W        W 5232  42.359  16.266  11.529
36903W        W 5233  25.059  25.025  11.950
36904W        W 5234   3.266  16.153  10.438
36905W        W 5235  13.141  27.475  13.955
36906W        W 5236  34.399  40.360  14.965
36907W        W 5237  14.329   5.320  11.583
36908W        W 5238  37.878   1.429  13.885
36909W        W 5239  28.166  43.459  13.476
36910W        W 5240   4.712  19.551   0.743
36911W        W 5241  36.381  19.550  11.561
36912W        W 5242  39.968   6.733   3.366
36913W        W 5243   5.296  19.541   4.254
36914W        W 5244  21.198  33.076  12.903
36915W        W 5245  40.468  27.567   1.760
36916W        W 5246  14.118  29.169  12.427
36917W        W 5247   7.209  18.243   2.863
36918W        W 5248  13.324  31.457  12.058
36919W        W 5249  24.195  28.169  13.493
36920W        W 5250   8.330  16.131  11.384
36921W        W 5251  41.449  43.970  13.050
36922W        W 5252  21.729  13.210  12.042
36923W        W 5253   0.318   7.323  11.511
36924W        W 5254  14.263  17.073   4.141
36925W        W 5255  13.291  20.677  14.475
36926W        W 5256   3.307   6.305   1.767
36927W        W 5257  31.150  18.224   2.715
36928W        W 5258  16.690  35.562   0.760
36929W        W 5259   9.723  17.156   0.770
36930W        W 5260  38.886  19.213  11.909
36931W        W 5261  40.386   4.807  12.898
36932W        W 5262  43.011   1.308   2.396
36933W        W 5263  39.963  17.065   4.319
36934W        W 5264   6.688  10.877   2.701
36935W        W 5265  33.596  34.937   3.821
36936W        W 5266   8.217  21.025   1.904
36937W        W 5267  18.075  14.697  10.470
36938W        W 5268  11.371   4.704   1.402
36939W        W 5269  12.248  31.925   1.754
36940W        W 5270  32.955  34.026  14.982
36941W        W 5271  15.588  10.836  12.920
36942W        W 5272  15.130  12.629   2.851
36943W        W 5273  42.885  38.450  13.415
36944W        W 5274   9.329  28.537  12.047
36945W        W 5275  27.012  26.512   5.122
36946W        W 5276  44.348  44.979  10.546
36947W        W 5277   0.809  29.440   0.423
36948W        W 5278  13.728   0.310  14.884
36949W        W 5279  40.383   6.748  12.029
36950W        W 5280  40.451  43.362  14.299
36951W        W 5281  35.864   5.910  14.904
36952W        W 5282   5.345   0.867   1.403
36953W        W 5283   1.362  38.887   1.445
36954W        W 5284  39.555  10.845  10.921
36955W        W 5285  21.218   2.737  13.863
36956W        W 5286  11.756  40.882  11.595
36957W        W 5287  27.486  26.087   0.736
36958W        W 5288  39.319  31.937   2.743
36959W        W 5289  10.250   0.775   1.385
36960W        W 5290   7.693  30.520  11.964
36961W        W 5291  27.654   9.711  11.028
36962W        W 5292  11.813   4.365  10.599
36963W        W 5293  14.334  34.511  14.483
36964W        W 5294  21.110  41.443   3.369
36965W        W 5295  31.059   4.766   3.327
36966W        W 5296  40.445  25.656   4.615
36967W        W 5297  19.668   2.807   3.283
36968W        W 5298  13.230  34.472  13.053
36969W        W 5299   2.959  19.756  10.535
36970W        W 5300   5.330  30.499   2.746
36971W        W 5301  13.114   0.458  12.494
36972W        W 5302  39.851  35.391  10.409
36973W        W 5303  16.595  24.561  11.462
36974W        W 5304  29.444  13.284  12.500
36975W        W 5305  20.217  30.017  13.864
36976W        W 5306  35.393   4.248  14.894
36977W        W 5307  14.158  16.583   4.217
36978W        W 5308  27.045   2.471   4.193
36979W        W 5309   8.309   2.834   2.865
36980W        W 5310  13.254  31.095   0.245
36981W        W 5311  12.281   5.392  13.502
36982W        W 5312  35.899  17.143  10.921
36983W        W 5313   1.905  11.768  11.902
36984W        W 5314  41.004  12.617   1.246
36985W        W 5315   3.359  42.908  10.972
36986W        W 5316  20.046  12.689  11.859
36987W        W 5317  23.635  43.910   4.813
36988W        W 5318  35.065  43.808   1.449
36989W        W 5319  20.060  34.081  12.875
36990W        W 5320   1.459   2.727  13.027
36991W        W 5321  37.413  21.707   2.818
36992W        W 5322  30.969  33.037  13.915
36993W        W 5323  23.535  28.542  13.458
36994W        W 5324  30.460  16.709  12.837
36995W        W 5325   5.864  28.541  14.835
36996W        W 5326   0.265   4.732   2.701
36997W        W 5327  31.518  31.963  14.304
36998W        W 5328  41.518  19.535   1.844
36999W        W 5329  38.403   5.772   5.305
37000W        W 5330  24.188  33.435  10.940
37001W        W 5331  11.757  14.652  13.970
37002W        W 5332  31.968  19.556  12.565
37003W        W 5333  44.962   5.292  13.350
37004W        W 5334  25.660  27.183   0.856
37005W        W 5335  35.020  19.745  10.610
37006W        W 5336  23.107  32.454   0.855
37007W        W 5337  13.694  30.023  14.022
37008W        W 5338  27.164  33.931   4.740
37009W        W 5339  28.979  15.682   2.899
37010W        W 5340  10.275  23.139   3.838
37011W        W 5341   1.904  39.471  13.471
37012W        W 5342  12.288   1.249  14.466
37013W        W 5343  22.541  21.698   4.242
37014W        W 5344  31.104  19.634  13.912
37015W        W 5345  26.567  43.857   0.345
37016W        W 5346  23.561   6.196   1.831
37017W        W 5347  15.301  36.012   1.287
37018W        W 5348  28.468  37.501   1.248
37019W        W 5349  10.851   1.273  14.864
37020W        W 5350  24.057  19.228  12.521
37021W        W 5351   8.285   3.279   3.653
37022W        W 5352   8.242  14.638   4.768
37023W        W 5353  24.574  11.361  12.522
37024W        W 5354  16.806  33.907   4.290
37025W        W 5355  13.222   8.330   3.661
37026W        W 5356  40.815  37.486  11.997
37027W        W 5357  13.657  33.076  12.983
37028W        W 5358   1.336  36.850   1.780
37029W        W 5359  40.041  28.573   1.840
37030W        W 5360   6.803   3.749  12.908
37031W        W 5361  34.934  15.644  10.052
37032W        W 5362  15.705  28.955  10.579
37033W        W 5363  18.275  42.431  11.571
37034W        W 5364  31.068  14.133   3.762
37035W        W 5365  20.110   6.909  14.358
37036W        W 5366   3.740   8.379   2.251
37037W        W 5367   4.825  41.822   1.711
37038W        W 5368  40.330  33.622   5.251
37039W        W 5369  36.975  34.547   2.277
37040W        W 5370  15.647  23.089   0.937
37041W        W 5371  25.093   5.238   4.818
37042W        W 5372  29.123   1.432  14.934
37043W        W 5373   9.254  26.587   2.889
37044W        W 5374  18.782   0.777  14.386
37045W        W 5375  27.580  30.030   2.710
37046W        W 5376  17.634  24.642  10.495
37047W        W 5377  13.218   6.857  12.005
37048W        W 5378  17.720  18.762   2.216
37049W        W 5379  20.163   2.260   0.901
37050W        W 5380  34.505   5.243  10.498
37051W        W 5381  11.202  40.935  12.531
37052W        W 5382  30.950  22.091   3.338
37053W        W 5383  23.021   4.853   1.900
37054W        W 5384  18.091   7.795   2.798
37055W        W 5385  38.473  20.540   2.883
37056W        W 5386   3.225  44.410   1.857
37057W        W 5387  31.443  22.142  12.412
37058W        W 5388  17.220  36.348   1.751
37059W        W 5389  43.792  26.042  12.056
37060W        W 5390  17.614  11.210   0.907
37061W        W 5391  21.240  44.296   2.291
37062W        W 5392  24.128  42.488   0.797
37063W        W 5393  33.119  38.893  11.039
37064W        W 5394  31.942  34.376  14.496
37065W        W 5395  23.531  28.545  11.375
37066W        W 5396  12.345   9.862   1.778
37067W        W 5397  10.349  34.457   3.792
37068W        W 5398  42.882  28.982  13.880
37069W        W 5399  39.965  42.307  14.963
37070W        W 5400  43.992  12.638   2.232
37071W        W 5401  43.806  18.217   1.223
37072W        W 5402  39.405  44.416   1.429
37073W        W 5403  22.204  39.871   2.197
37074W        W 5404   0.348  38.851   3.720
37075W        W 5405  23.559  31.024  11.479
37076W        W 5406  42.874  30.472   3.198
37077W        W 5407  29.494  23.684   4.223
37078W        W 5408  25.991  24.206  12.449
37079W        W 5409  12.270  44.970   4.836
37080W        W 5410  13.775  29.035   2.404
37081W        W 5411  16.649  16.800   4.137
37082W        W 5412  29.992  30.951  11.482
37083W        W 5413  26.514  27.680  12.954
37084W        W 5414  38.957  26.462  12.399
37085W        W 5415  25.597  11.726   5.263
37086W        W 5416  20.536  38.457   4.242
37087W        W 5417  17.636  28.030   0.312
37088W        W 5418   8.795  20.542   0.808
37089W        W 5419  18.708  15.317   3.185
37090W        W 5420  13.845   4.395   3.298
37091W        W 5421  43.280   5.238   2.714
37092W        W 5422  19.572   8.231   3.299
37093W        W 5423  14.291   0.786   2.834
37094W        W 5424   2.347   6.731  12.567
37095W        W 5425   6.381   8.254   4.607
37096W        W 5426  41.371  24.643  12.462
37097W        W 5427  37.411  38.460  11.380
37098W        W 5428  39.454  42.505  10.574
37099W        W 5429  14.702  36.349  14.903
37100W        W 5430  11.357  31.632   3.152
37101W        W 5431  10.326  25.670  11.461
37102W        W 5432  39.477  26.638  13.023
37103W        W 5433  29.999  32.545  11.571
37104W        W 5434   2.894  11.315   4.668
37105W        W 5435  22.729  26.023  11.532
37106W        W 5436  31.987  31.019  14.779
37107W        W 5437  18.179   9.666  14.285
37108W        W 5438  32.611   9.777  13.049
37109W        W 5439  28.647  22.514  12.858
37110W        W 5440  14.226  34.869  14.448
37111W        W 5441   3.710  39.367   5.196
37112W        W 5442  10.846  22.574   0.475
37113W        W 5443  36.028  24.216   0.800
37114W        W 5444  17.168  13.687   0.277
37115W        W 5445  31.447  29.430   1.786
37116W        W 5446   7.752   2.429  14.017
37117W        W 5447   5.199  31.435  12.882
37118W        W 5448  25.564  11.218  13.047
37119W        W 5449   4.345  25.713  14.343
37120W        W 5450  33.541  13.804  10.404
37121W        W 5451   1.461  32.980   2.203
37122W        W 5452  41.968  19.138  13.525
37123W        W 5453  36.998  14.140   3.156
37124W        W 5454  12.669  44.777   4.139
37125W        W 5455   8.794   3.343  13.318
37126W        W 5456  31.561  30.506  11.892
37127W        W 5457  14.123   2.958   4.824
37128W        W 5458  12.184  35.363  14.432
37129W        W 5459   8.164  22.643  10.618
37130W        W 5460  24.165  33.445   0.331
37131W        W 5461   4.777  36.540  11.967
37132W        W 5462   1.875  21.550   1.408
37133W        W 5463   4.865  11.307  14.903
37134W        W 5464  43.292   5.375   4.689
37135W        W 5465  27.556  11.218   0.325
37136W        W 5466   3.715  26.144  12.510
37137W        W 5467  21.060  11.297   4.778
37138W        W 5468  41.347   3.336   2.353
37139W        W 5469  34.090  16.716  11.876
37140W        W 5470  17.772  38.446  12.994
37141W        W 5471  20.714  34.087  13.394
37142W        W 5472  37.870   8.227   4.672
37143W        W 5473  14.605  33.105  12.865
37144W        W 5474  13.267  37.966   1.371
37145W        W 5475   2.958   4.833   4.117
37146W        W 5476  44.383  22.625   1.441
37147W        W 5477  37.015  36.381  12.543
37148W        W 5478  21.584  32.949  10.607
37149W        W 5479   1.772  28.009   0.298
37150W        W 5480   5.808  20.133   1.277
37151W        W 5481  15.706   4.371   2.706
37152W        W 5482   2.320  23.536   5.317
37153W        W 5483  32.622  19.040   1.428
37154W        W 5484  36.392   2.925   3.357
37155W        W 5485  14.273  33.480   2.361
37156W        W 5486   7.723   4.807   2.717
37157W        W 5487  34.383  24.012   3.268
37158W        W 5488  44.352  17.662   4.778
37159W        W 5489   2.952  43.829   0.927
37160W        W 5490  39.878  28.099  12.096
37161W        W 5491  23.018  27.085   2.806
37162W        W 5492  43.882  28.033   2.270
37163W        W 5493   5.774   2.858  12.827
37164W        W 5494  20.095  13.823   0.266
37165W        W 5495  27.558   9.771  13.496
37166W        W 5496  42.358  13.348   1.928
37167W        W 5497  26.561  17.138   3.284
37168W        W 5498  32.021  42.805  14.843
37169W        W 5499   0.412   2.965   0.938
37170W        W 5500  32.534  21.045   1.863
37171W        W 5501  38.012  18.581  11.597
37172W        W 5502  22.238  27.169   0.886
37173W        W 5503   3.381  28.077   1.797
37174W        W 5504  33.475  32.529   3.269
37175W        W 5505  35.507  35.876  14.369
37176W        W 5506  32.950  23.025   3.638
37177W        W 5507  31.563   6.722  13.828
37178W        W 5508   3.413  29.529   3.750
37179W        W 5509   2.257  10.305  11.945
37180W        W 5510  40.864  40.530   2.834
37181W        W 5511  35.933  31.472   4.168
37182W        W 5512  31.928   0.771  12.020
37183W        W 5513  36.588   4.819   3.810
37184W        W 5514  18.627  32.618  11.861
37185W        W 5515   9.377  20.556   4.739
37186W        W 5516  31.579  27.160  14.348
37187W        W 5517  20.761  42.906   3.358
37188W        W 5518  31.410   6.274  14.008
37189W        W 5519   0.842  31.922  14.006
37190W        W 5520  29.928  44.372  14.350
37191W        W 5521  17.146   1.252   4.678
37192W        W 5522  23.035  28.496   1.915
37193W        W 5523  22.604  16.599   0.376
37194W        W 5524  40.867  21.225   0.827
37195W        W 5525  25.061  34.588   3.231
37196W        W 5526  42.844  11.642   3.301
37197W        W 5527   9.699  12.614   1.294
37198W        W 5528  31.440  27.678  14.883
37199W        W 5529   4.423  29.596   0.308
37200W        W 5530  26.585  37.570  10.975
37201W        W 5531   3.259  20.075   5.285
37202W        W 5532   6.795  41.484   2.744
37203W        W 5533  28.975  18.126  13.370
37204W        W 5534   9.177  35.429   0.393
37205W        W 5535   2.254  35.901  11.972
37206W        W 5536  33.610  15.577  10.417
37207W        W 5537  21.564  14.243   0.938
37208W        W 5538  15.722  24.528   3.781
37209W        W 5539  24.021   2.725  14.030
37210W        W 5540   6.203   2.426  11.959
37211W        W 5541   3.316  29.986   2.799
37212W        W 5542  13.281  18.208   3.763
37213W        W 5543  38.983  34.404  14.851
37214W        W 5544  29.660  43.998  12.497
37215W        W 5545   1.370  28.944   3.382
37216W        W 5546  12.125  36.472  14.320
37217W        W 5547   4.841  37.476   2.889
37218W        W 5548   9.237  28.057  14.030
37219W        W 5549   9.886  12.638  14.903
37220W        W 5550   6.279   2.884   4.348
37221W        W 5551  12.805   6.422   4.318
37222W        W 5552   8.301  39.488  10.964
37223W        W 5553  28.109  22.695  11.471
37224W        W 5554  18.184  38.459  11.393
37225W        W 5555  28.154  42.896   3.193
37226W        W 5556  29.071   7.878  14.455
37227W        W 5557  16.707  32.083   4.296
37228W        W 5558   7.805  11.359   4.239
37229W        W 5559  30.528  17.288   3.763
37230W        W 5560   5.742  23.140  10.492
37231W        W 5561  34.420  23.680  14.928
37232W        W 5562  22.532  11.807  12.524
37233W        W 5563  44.933  39.821  13.803
37234W        W 5564  10.800  29.985   0.447
37235W        W 5565  17.618   2.413  10.585
37236W        W 5566  10.698  19.664   0.439
37237W        W 5567  10.195  31.481   0.471
37238W        W 5568  43.458  39.880  10.903
37239W        W 5569  32.063  17.192   0.812
37240W        W 5570  20.730   6.697   5.565
37241W        W 5571  22.104   5.261   0.422
37242W        W 5572  24.019  23.605  14.974
37243W        W 5573  44.945  11.630   3.787
37244W        W 5574   1.312  13.231  11.601
37245W        W 5575  17.748  42.495  11.580
37246W        W 5576   1.313  31.575  12.433
37247W        W 5577  24.026  23.013  14.412
37248W        W 5578  32.627  30.430  11.053
37249W        W 5579  16.692  30.434   0.310
37250W        W 5580  14.813  42.320  12.883
37251W        W 5581  30.065  13.602   2.699
37252W        W 5582  40.528  31.600   4.156
37253W        W 5583  20.092   5.838  13.491
37254W        W 5584  39.411  12.179   0.341
37255W        W 5585  43.854  11.183  12.348
37256W        W 5586  10.859  35.035   4.783
37257W        W 5587  21.139  17.270   0.452
37258W        W 5588  42.871  24.042   0.324
37259W        W 5589  20.132  11.788  13.401
37260W        W 5590  44.889  24.196   1.714
37261W        W 5591  28.057  15.593   3.330
37262W        W 5592  12.644  34.088   2.891
37263W        W 5593  30.019  33.907  12.013
37264W        W 5594  44.401  33.103  10.499
37265W        W 5595  15.092   8.885  13.934
37266W        W 5596  30.969  24.640   0.827
37267W        W 5597  14.725  29.471   1.759
37268W        W 5598  14.274  29.654  10.896
37269W        W 5599   3.460   5.802  14.988
37270W        W 5600  27.016  11.158  13.007
37271W        W 5601  20.045  36.406  13.022
37272W        W 5602  37.423   7.752  12.567
37273W        W 5603  23.999   4.420  12.825
37274W        W 5604   0.974  17.126   2.827
37275W        W 5605   0.290  39.865   4.808
37276W        W 5606  20.247   4.311  13.342
37277W        W 5607  18.136  43.431   1.424
37278W        W 5608  34.938  33.081  14.957
37279W        W 5609   3.230  28.453   4.838
37280W        W 5610  34.973  26.661  12.038
37281W        W 5611  41.441  21.715   4.759
37282W        W 5612  31.477   6.282  14.819
37283W        W 5613  42.480  20.161  12.868
37284W        W 5614  33.534  28.103   9.944
37285W        W 5615  25.474  27.054  13.843
37286W        W 5616  10.735  34.015  13.053
37287W        W 5617  22.013  34.088   3.811
37288W        W 5618   9.233  29.471   4.623
37289W        W 5619  32.105  27.469   2.882
37290W        W 5620  25.707  25.036  12.535
37291W        W 5621  41.321  10.345  13.013
37292W        W 5622  33.957  20.230   0.809
37293W        W 5623  17.684  35.391  11.862
37294W        W 5624  39.019  31.547  13.842
37295W        W 5625  11.847  14.160  11.002
37296W        W 5626  44.758   0.345  10.634
37297W        W 5627  41.420  40.355  11.558
37298W        W 5628  16.290  12.694  13.893
37299W        W 5629  39.937  35.460  12.948
37300W        W 5630  31.532   3.376   4.172
37301W        W 5631  36.052  17.746   4.269
37302W        W 5632  13.209   9.744  13.862
37303W        W 5633   4.259  16.266   0.842
37304W        W 5634  44.496  22.248  13.814
37305W        W 5635  32.510   4.850  14.891
37306W        W 5636  24.061  20.170   4.617
37307W        W 5637  17.571   2.725   1.354
37308W        W 5638  42.406  22.114   0.864
37309W        W 5639  12.748   2.459  10.972
37310W        W 5640  31.132  13.683   4.169
37311W        W 5641  21.735  40.000   3.148
37312W        W 5642   6.267  22.605   0.910
37313W        W 5643   8.789  36.593   3.219
37314W        W 5644  33.382   4.935  14.019
37315W        W 5645  39.957   5.230   0.942
37316W        W 5646  17.798  14.799   1.795
37317W        W 5647  33.019  18.176   1.331
37318W        W 5648   2.404  12.630  14.445
37319W        W 5649  28.031  43.955   0.334
37320W        W 5650  41.977  26.148  11.590
37321W        W 5651  29.462  19.727   3.293
37322W        W 5652  19.548  14.789   4.627
37323W        W 5653  18.268  31.922   2.288
37324W        W 5654  21.651  13.320  12.366
37325W        W 5655  20.575  17.235  11.587
37326W        W 5656   6.216  21.157   5.114
37327W        W 5657   7.407   5.823   0.771
37328W        W 5658   7.350  15.232  14.006
37329W        W 5659   1.819  14.833  11.090
37330W        W 5660  31.988  30.957  13.843
37331W        W 5661  28.135  15.623  13.525
37332W        W 5662  42.489   1.413  12.041
37333W        W 5663   0.360  19.080   0.431
37334W        W 5664  13.645  28.975   3.796
37335W        W 5665  11.304  18.146   2.230
37336W        W 5666  30.085  39.345   2.200
37337W        W 5667  32.925   7.324   1.794
37338W        W 5668   6.273  28.151   2.371
37339W        W 5669   8.313  10.144  11.909
37340W        W 5670  44.767   8.375  13.974
37341W        W 5671  33.094  26.007   0.288
37342W        W 5672  10.314  11.362  12.362
37343W        W 5673  15.806  30.961  13.322
37344W        W 5674  44.347  28.570  13.960
37345W        W 5675  36.002  28.563   2.834
37346W        W 5676  36.911   4.363  12.070
37347W        W 5677  30.416   4.741   2.374
37348W        W 5678  31.977  44.873  10.453
37349W        W 5679  16.802   0.811   4.123
37350W        W 5680  26.541  17.065   4.260
37351W        W 5681  20.754  25.061   2.193
37352W        W 5682  44.433  36.423  12.840
37353W        W 5683  17.120  23.059  11.047
37354W        W 5684  26.196  23.005   2.778
37355W        W 5685  41.001  23.619   0.932
37356W        W 5686  17.666  36.870  12.459
37357W        W 5687  42.992  30.940  11.471
37358W        W 5688   3.815  38.002  14.912
37359W        W 5689  40.886   2.360  14.014
37360W        W 5690  18.123  37.035   1.302
37361W        W 5691   8.208  34.578   0.770
37362W        W 5692   8.795  31.434   1.300
37363W        W 5693  31.514  25.116   5.171
37364W        W 5694  11.825  31.415   1.759
37365W        W 5695  38.349  36.349   1.364
37366W        W 5696  32.632  22.576   1.241
37367W        W 5697   9.308   8.840   1.731
37368W        W 5698  29.114  13.793  10.469
37369W        W 5699   2.270  35.865  14.932
37370W        W 5700  26.562   6.392   2.735
37371W        W 5701   1.466  39.526  14.032
37372W        W 5702   8.202  27.536  12.833
37373W        W 5703  27.006   7.812  10.926
37374W        W 5704  39.030  14.747  14.813
37375W        W 5705  14.319  37.574  11.566
37376W        W 5706  10.377   2.836   3.273
37377W        W 5707  28.087   3.450   1.223
37378W        W 5708  28.464   2.234   3.280
37379W        W 5709  25.473   7.839  13.958
37380W        W 5710  35.528  32.977  13.426
37381W        W 5711  17.085  25.087  11.527
37382W        W 5712  11.253  20.202  13.037
37383W        W 5713   7.854  10.750   1.414
37384W        W 5714  10.203   3.286  12.448
37385W        W 5715  30.543  12.220  13.039
37386W        W 5716  19.168  39.525   4.611
37387W        W 5717  25.009   7.300  14.506
37388W        W 5718   0.374  23.661  14.478
37389W        W 5719  19.725  18.708  13.944
37390W        W 5720  27.474  41.352   4.718
37391W        W 5721  38.420  41.331  12.507
37392W        W 5722   1.385  31.621   0.351
37393W        W 5723  11.660   1.888   2.241
37394W        W 5724  25.169   7.709   4.764
37395W        W 5725   0.405  26.137  13.547
37396W        W 5726  20.193  40.859  11.402
37397W        W 5727   0.264  41.891   1.377
37398W        W 5728  41.451  34.997   4.191
37399W        W 5729  24.679  40.549   4.163
37400W        W 5730  14.606   7.362  11.927
37401W        W 5731  13.653  43.828  10.618
37402W        W 5732  13.678  34.409  13.991
37403W        W 5733  41.871  10.170   4.304
37404W        W 5734  40.048  28.561  12.402
37405W        W 5735  14.326  34.562   3.186
37406W        W 5736  34.998   2.754  14.802
37407W        W 5737  11.738  28.011   0.436
37408W        W 5738  28.640  27.527  14.977
37409W        W 5739  13.754  24.540   3.799
37410W        W 5740  43.975  44.317  11.960
37411W        W 5741  42.940  10.193  14.790
37412W        W 5742  17.285  30.935   1.310
37413W        W 5743  41.883  19.771   2.342
37414W        W 5744   7.355  33.957   3.372
37415W        W 5745  12.191  43.861  14.375
37416W        W 5746  40.897  13.208  12.998
37417W        W 5747  22.501  17.634  10.640
37418W        W 5748  41.925   7.198  12.916
37419W        W 5749  10.176  13.842  12.059
37420W        W 5750  32.565   4.235  13.332
37421W        W 5751   6.895  12.672  13.380
37422W        W 5752  35.536  24.564  12.882
37423W        W 5753  41.349  39.851   2.250
37424W        W 5754  41.925  10.747  11.464
37425W        W 5755  23.586   2.774  12.537
37426W        W 5756  29.074  11.266  13.432
37427W        W 5757  32.521  39.332   2.761
37428W        W 5758  27.053  16.633  13.932
37429W        W 5759   3.381   9.787  14.970
37430W        W 5760  19.150  36.015   0.865
37431W        W 5761  21.021  32.074  10.149
37432W        W 5762  40.534  10.217   4.299
37433W        W 5763   8.218   8.877   3.209
37434W        W 5764  16.625  40.879  12.909
37435W        W 5765   9.886  36.933  14.938
37436W        W 5766  37.402  36.990  14.796
37437W        W 5767  22.664  42.448  12.856
37438W        W 5768  27.466  16.231  14.975
37439W        W 5769  14.813  40.936  11.042
37440W        W 5770  29.475   2.269  12.379
37441W        W 5771  41.812  23.135   3.745
37442W        W 5772  22.134  15.676   4.177
37443W        W 5773  41.472  30.463  11.607
37444W        W 5774   0.753  41.353  13.432
37445W        W 5775  44.307  44.366   4.153
37446W        W 5776  23.117  16.101   2.321
37447W        W 5777  10.773  15.186  11.036
37448W        W 5778  38.916  40.515   2.268
37449W        W 5779   7.744  31.052   4.812
37450W        W 5780  43.374  14.125   1.703
37451W        W 5781  12.617  29.623  12.056
37452W        W 5782  36.573  19.041   4.183
37453W        W 5783  36.024  37.869  14.894
37454W        W 5784  42.449  19.777   3.153
37455W        W 5785  14.277  38.569   1.441
37456W        W 5786  30.633  35.011  11.453
37457W        W 5787  40.374  18.209  10.050
37458W        W 5788   9.854   8.686  14.425
37459W        W 5789  32.572  41.949  10.594
37460W        W 5790  16.172  14.328  13.936
37461W        W 5791  36.493   0.425  10.443
37462W        W 5792   8.280  36.396   2.802
37463W        W 5793  34.872  22.160   3.717
37464W        W 5794  18.769  41.981   2.878
37465W        W 5795  15.267  12.718  10.971
37466W        W 5796  33.893  43.949   0.930
37467W        W 5797  19.163  39.461  11.516
37468W        W 5798   3.425  12.810  12.941
37469W        W 5799  32.619  27.662  12.558
37470W        W 5800  17.129  32.067  13.059
37471W        W 5801  19.158  41.791   2.409
37472W        W 5802  12.812  30.951  11.407
37473W        W 5803   9.817  20.239  12.508
37474W        W 5804  25.174   1.767  11.461
37475W        W 5805  36.083   6.247  11.894
37476W        W 5806  29.921  36.459   4.652
37477W        W 5807   7.844  38.526   4.748
37478W        W 5808  29.644  30.481  14.389
37479W        W 5809  32.110  36.347   1.399
37480W        W 5810  15.768  19.764   2.701
37481W        W 5811  24.661  18.731   2.783
37482W        W 5812  38.504  31.563  10.955
37483W        W 5813  44.416  43.385  12.530
37484W        W 5814  43.910  12.793   1.743
37485W        W 5815  40.323   9.700  10.598
37486W        W 5816  18.167  44.940  12.576
37487W        W 5817  31.519  40.922  11.497
37488W        W 5818  31.923  31.599  12.518
37489W        W 5819  16.181  33.408   1.388
37490W        W 5820  32.606  29.532  11.553
37491W        W 5821  10.226  16.148   4.836
37492W        W 5822  16.812  40.822   3.786
37493W        W 5823  21.071  21.642  11.024
37494W        W 5824  25.155  26.198   1.254
37495W        W 5825  33.505  38.067   0.370
37496W        W 5826  13.157  22.060  14.843
37497W        W 5827  39.402  21.601   3.657
37498W        W 5828  29.528  40.898  12.008
37499W        W 5829  42.839   1.455   3.729
37500W        W 5830  18.628  38.385  11.991
37501W        W 5831  30.645  14.136   4.615
37502W        W 5832  32.910   1.890  10.424
37503W        W 5833  11.707  40.548  11.375
37504W        W 5834   7.822  23.186   4.625
37505W        W 5835  22.132  36.553  10.466
37506W        W 5836  28.651   5.721   3.659
37507W        W 5837  41.537  34.010  12.504
37508W        W 5838  37.564  11.735   1.407
37509W        W 5839  15.154  17.163   0.406
37510W        W 5840   3.799  32.475  10.574
37511W        W 5841  17.173   0.485  10.455
37512W        W 5842  29.948  35.872  14.808
37513W        W 5843   3.910  36.861   0.790
37514W        W 5844  29.125  32.081   0.293
37515W        W 5845  25.523  21.221  10.480
37516W        W 5846  29.427  19.686   2.187
37517W        W 5847  19.607   0.883   1.266
37518W        W 5848  17.079  39.904   4.226
37519W        W 5849  36.399  39.811   4.288
37520W        W 5850  16.171  22.618   3.632
37521W        W 5851  33.905  23.719  10.644
37522W        W 5852  39.550  22.698   4.613
37523W        W 5853  41.929  21.233  14.024
37524W        W 5854  23.567  25.081   2.196
37525W        W 5855  42.820  36.559   4.815
37526W        W 5856  39.383   0.273   2.747
37527W        W 5857  15.182  18.216  14.291
37528W        W 5858  33.420  19.765   0.389
37529W        W 5859  18.203   5.736   1.399
37530W        W 5860  20.184  43.329  11.483
37531W        W 5861  42.017  15.698   0.431
37532W        W 5862  41.831  37.503   9.978
37533W        W 5863  11.818  36.897  11.483
37534W        W 5864   2.373  25.182   0.953
37535W        W 5865   5.711  44.964   3.174
37536W        W 5866  28.930  11.849   4.116
37537W        W 5867  40.365  22.539  11.500
37538W        W 5868  37.450  26.595  13.533
37539W        W 5869  33.615  35.990   5.150
37540W        W 5870  14.298   0.749  14.973
37541W        W 5871  27.975  31.596   0.408
37542W        W 5872  41.385  29.128   1.257
37543W        W 5873  41.895   9.152   2.817
37544W        W 5874  44.276  21.620   2.790
37545W        W 5875  15.245  22.022  12.455
37546W        W 5876  42.991   1.735   4.253
37547W        W 5877  40.961  33.905  14.452
37548W        W 5878  41.458  44.436   0.274
37549W        W 5879  40.410  36.537   1.806
37550W        W 5880  44.003   0.865  13.938
37551W        W 5881  23.133  20.160  14.346
37552W        W 5882  28.016  11.146   4.609
37553W        W 5883  23.086  14.816   4.706
37554W        W 5884  31.123  29.041  13.405
37555W        W 5885  44.504  18.637   2.869
37556W        W 5886  33.881  28.993   1.905
37557W        W 5887  17.609  16.763   2.806
37558W        W 5888   2.946  16.249   0.773
37559W        W 5889  23.121  26.077  12.547
37560W        W 5890  23.062   3.401  14.502
37561W        W 5891  10.662  28.137  14.972
37562W        W 5892   7.763  35.872  13.386
37563W        W 5893  37.399  33.433   0.285
37564W        W 5894  13.724  37.469  12.938
37565W        W 5895  29.526  10.702   0.729
37566W        W 5896  22.014   9.365  13.802
37567W        W 5897  32.988  13.721  12.894
37568W        W 5898  30.958  20.133  11.980
37569W        W 5899  26.094  30.427   0.742
37570W        W 5900  18.568   6.747  14.890
37571W        W 5901   1.438  17.674  14.976
37572W        W 5902   7.742  22.246  14.420
37573W        W 5903   2.901  33.515   0.269
37574W        W 5904  16.106  20.216   4.273
37575W        W 5905  37.953   0.893  11.441
37576W        W 5906   8.750   8.286   4.326
37577W        W 5907  20.539  28.096   9.543
37578W        W 5908  20.221   0.933  11.972
37579W        W 5909  22.537  29.504   1.896
37580W        W 5910   2.734  23.655   3.774
37581W        W 5911  26.702  39.412   0.346
37582W        W 5912  11.776   1.279   2.375
37583W        W 5913  30.612   2.325   1.245
37584W        W 5914  28.028  16.763  10.495
37585W        W 5915  43.450  32.944  10.891
37586W        W 5916  10.382   4.394  10.431
37587W        W 5917  31.941  40.841   4.203
37588W        W 5918  19.657  41.824   4.806
37589W        W 5919  10.241  24.069  13.330
37590W        W 5920  39.421  13.710   3.850
37591W        W 5921  15.146  35.101  14.880
37592W        W 5922  11.294  19.170   4.808
37593W        W 5923  44.872  25.530  10.627
37594W        W 5924  44.463  22.164   1.309
37595W        W 5925  16.746   6.350  14.940
37596W        W 5926  36.445  34.449  14.471
37597W        W 5927  32.109  36.960   1.392
37598W        W 5928  24.191  39.510   4.784
37599W        W 5929   2.821  28.066   3.783
37600W        W 5930   0.446  37.057  11.581
37601W        W 5931  22.101  16.813   4.175
37602W        W 5932  32.413   7.412  14.414
37603W        W 5933  13.182  23.589   3.297
37604W        W 5934  40.014  31.128   0.292
37605W        W 5935  39.365   5.401   3.634
37606W        W 5936  41.939  30.000   3.820
37607W        W 5937  14.643  39.828  10.601
37608W        W 5938   7.254  25.207  10.912
37609W        W 5939  11.316  17.563  13.426
37610W        W 5940  16.283  36.487  14.381
37611W        W 5941   4.449  32.086  12.561
37612W        W 5942  43.802   4.353   4.350
37613W        W 5943  27.610   0.377  14.970
37614W        W 5944  43.492   4.932  10.626
37615W        W 5945  19.077  36.426   3.352
37616W        W 5946  11.206  26.484   3.332
37617W        W 5947  21.660  40.436  12.879
37618W        W 5948  15.095   5.885  13.371
37619W        W 5949  34.482  31.433  13.916
37620W        W 5950  41.971  34.476   3.289
37621W        W 5951  18.685  36.374  11.401
37622W        W 5952  12.127  10.792  14.903
37623W        W 5953  41.843  30.043  13.026
37624W        W 5954   8.366  18.659   2.312
37625W        W 5955  25.074  15.202   1.295
37626W        W 5956  15.270  35.925  14.328
37627W        W 5957  19.548  38.507   0.337
37628W        W 5958  29.068  15.719   0.424
37629W        W 5959   1.803  29.437   4.174
37630W        W 5960   0.751  19.709   0.945
37631W        W 5961  15.616  21.083  14.404
37632W        W 5962  12.297  10.333   0.414
37633W        W 5963  29.618  26.113  14.836
37634W        W 5964   6.765  19.616   3.343
37635W        W 5965  18.189  40.503   4.251
37636W        W 5966   3.243  19.107  10.581
37637W        W 5967  42.860  23.092   3.811
37638W        W 5968   0.402  13.832  13.919
37639W        W 5969  36.958  20.192  10.954
37640W        W 5970   7.739  17.065   5.236
37641W        W 5971  16.788  39.828  11.883
37642W        W 5972   1.778  26.980   4.826
37643W        W 5973  39.321  15.627   2.180
37644W        W 5974  13.254   1.359  14.456
37645W        W 5975  32.946   5.900  13.421
37646W        W 5976  35.929  36.486  11.587
37647W        W 5977  43.990  26.596   4.689
37648W        W 5978   8.299  37.384   2.802
37649W        W 5979  25.990  28.654  12.550
37650W        W 5980  26.513  38.540  12.534
37651W        W 5981   4.316   6.191  14.809
37652W        W 5982  33.888  44.350  11.883
37653W        W 5983   5.925   6.321   2.878
37654W        W 5984   2.354   5.701   0.963
37655W        W 5985  31.949  18.143  13.933
37656W        W 5986   4.448  35.589   2.341
37657W        W 5987   3.223  42.357   0.419
37658W        W 5988  31.936  34.457   2.376
37659W        W 5989  38.402  18.201  14.900
37660W        W 5990  38.376  42.322   4.659
37661W        W 5991  37.841   9.252  10.958
37662W        W 5992  22.065  30.548  11.044
37663W        W 5993  13.113  10.828   3.159
37664W        W 5994  13.674  39.318  11.472
37665W        W 5995  23.166  29.657   4.276
37666W        W 5996   0.864   4.899   0.745
37667W        W 5997   5.262  10.235  11.470
37668W        W 5998  34.566  37.838  11.122
37669W        W 5999  28.929  25.203  10.602
37670W        W 6000  34.884  35.408  11.947
37671W        W 6001  14.625  10.303  10.026
37672W        W 6002   2.330   9.386   3.797
37673W        W 6003  28.965  24.605  11.506
37674W        W 6004   0.346  25.506   0.264
37675W        W 6005  11.829  18.771   1.817
37676W        W 6006  33.901  43.391   3.352
37677W        W 6007  26.500   3.444  10.091
37678W        W 6008  38.373  12.807   4.212
37679W        W 6009  24.705  11.657  11.896
37680W        W 6010  36.519  12.240  10.409
37681W        W 6011  37.435  33.050  11.396
37682W        W 6012  31.143  41.506   2.841
37683W        W 6013  30.941  40.394  10.481
37684W        W 6014  19.228  30.464  14.760
37685W        W 6015  36.914  39.459   3.331
37686W        W 6016  44.004   0.977   1.234
37687W        W 6017  34.113  18.107  14.483
37688W        W 6018  18.651  19.701  12.543
37689W        W 6019  37.914  30.145  10.986
37690W        W 6020  35.432  36.482  11.001
37691W        W 6021  19.710  37.062   2.773
37692W        W 6022  32.436   7.225   1.270
37693W        W 6023  12.335  20.121   4.259
37694W        W 6024   5.864  24.697  11.014
37695W        W 6025   5.363  37.573   5.290
37696W        W 6026  39.855   3.825  13.983
37697W        W 6027  37.545   6.355  11.387
37698W        W 6028  39.863   5.888   1.413
37699W        W 6029   6.910  14.106   2.838
37700W        W 6030  32.928  11.362   4.258
37701W        W 6031  16.686  23.666  11.106
37702W        W 6032  17.093  20.037  11.907
37703W        W 6033   8.277  39.909   0.756
37704W        W 6034  16.170  19.626   2.375
37705W        W 6035   5.744   5.883  10.518
37706W        W 6036  18.700  28.163   4.312
37707W        W 6037  42.493  37.552   3.151
37708W        W 6038  21.599  28.483  10.535
37709W        W 6039  22.674  25.710  11.933
37710W        W 6040  38.903  40.325   3.158
37711W        W 6041  43.454   6.314  12.043
37712W        W 6042  20.156  42.941   2.258
37713W        W 6043   0.297   8.797  13.960
37714W        W 6044   8.299  21.520   1.773
37715W        W 6045   6.755  28.642   0.743
37716W        W 6046  24.208  30.503   2.367
37717W        W 6047  35.374  29.111   2.869
37718W        W 6048  18.162   8.782   0.811
37719W        W 6049  35.406  22.229  11.969
37720W        W 6050  14.701  37.926   5.167
37721W        W 6051  41.355  19.239   4.681
37722W        W 6052   3.813  30.064   0.479
37723W        W 6053  40.866  42.404  12.075
37724W        W 6054  37.437   9.201   0.733
37725W        W 6055  20.552  42.486  14.373
37726W        W 6056  16.713   7.398  10.418
37727W        W 6057   2.949   1.777   3.831
37728W        W 6058  18.193   4.329   2.357
37729W        W 6059   6.347  35.046  10.988
37730W        W 6060  38.935  22.102  11.109
37731W        W 6061   5.279  41.401  14.375
37732W        W 6062   1.301  28.957   1.386
37733W        W 6063  43.765  31.607  10.414
37734W        W 6064   9.187  11.781   1.268
37735W        W 6065  20.671  27.966   5.591
37736W        W 6066  12.314  13.126  13.443
37737W        W 6067  40.841  30.468   2.869
37738W        W 6068  37.444   9.702  14.483
37739W        W 6069  30.051  15.241  14.792
37740W        W 6070   8.352  17.127  13.897
37741W        W 6071  24.104  20.094  14.413
37742W        W 6072  39.324  34.049  11.447
37743W        W 6073  17.615  33.898  14.404
37744W        W 6074  33.587  13.306  11.027
37745W        W 6075  17.236  10.764  11.488
37746W        W 6076   7.226  24.144   2.845
37747W        W 6077   4.744  31.621  12.518
37748W        W 6078   4.843  12.718  14.386
37749W        W 6079  26.174  11.163   3.245
37750W        W 6080  23.233   9.746   1.747
37751W        W 6081  35.428  35.068  12.015
37752W        W 6082  38.531  20.640   2.267
37753W        W 6083  14.711  42.969   5.111
37754W        W 6084  14.179  14.142   1.211
37755W        W 6085  43.952  44.969   3.265
37756W        W 6086  10.312   3.370   3.739
37757W        W 6087  23.638   0.352  14.801
37758W        W 6088  37.084  23.583  13.014
37759W        W 6089  12.304  27.042  11.555
37760W        W 6090  33.588  18.630   0.290
37761W        W 6091  36.927  43.314   1.333
37762W        W 6092  16.750  42.362  11.122
37763W        W 6093  27.548   9.659  12.497
37764W        W 6094  34.895  16.204  12.050
37765W        W 6095  40.929  27.517  11.447
37766W        W 6096  26.996  41.441  12.926
37767W        W 6097  21.089   0.832  12.511
37768W        W 6098  33.951   5.860   4.636
37769W        W 6099  33.035  38.846  10.501
37770W        W 6100  32.947  25.696  13.340
37771W        W 6101  17.726  17.172   2.369
37772W        W 6102  41.310  40.911  13.362
37773W        W 6103  32.613  39.875   4.218
37774W        W 6104  13.323  39.004   0.744
37775W        W 6105  20.663  35.512  14.789
37776W        W 6106  21.040  16.737   3.268
37777W        W 6107  39.904   9.265  10.107
37778W        W 6108  11.811  37.336  14.436
37779W        W 6109  39.487  23.714  14.904
37780W        W 6110  33.396   9.719  11.483
37781W        W 6111  30.057  18.271  13.334
37782W        W 6112  44.854  18.081   2.321
37783W        W 6113  19.265  39.977   3.321
37784W        W 6114  33.460  37.926   2.806
37785W        W 6115   3.409  41.473   2.357
37786W        W 6116  35.058   7.257  13.920
37787W        W 6117  26.982  35.108  11.941
37788W        W 6118  20.714  35.585   0.329
37789W        W 6119  22.744   2.750   2.179
37790W        W 6120   1.463  37.582  11.932
37791W        W 6121   7.747  41.410  12.990
37792W        W 6122  38.549  27.526  13.506
37793W        W 6123  32.633  44.918   4.259
37794W        W 6124  11.199  42.001   3.731
37795W        W 6125  21.529   4.749   1.399
37796W        W 6126  10.367  16.779   1.697
37797W        W 6127  11.217  39.847   3.312
37798W        W 6128  29.087   8.749  14.011
37799W        W 6129  31.923  35.913   3.769
37800W        W 6130  30.030   4.899  14.796
37801W        W 6131  40.483  14.651   2.887
37802W        W 6132  29.149  37.360   4.219
37803W        W 6133   6.237  25.621   1.717
37804W        W 6134   3.857  20.528   3.375
37805W        W 6135   8.794  43.002  10.563
37806W        W 6136   1.274  32.115  14.412
37807W        W 6137  10.717  40.429  11.933
37808W        W 6138  34.606   6.409   3.239
37809W        W 6139   9.289   0.322   2.409
37810W        W 6140   1.340  35.484   0.254
37811W        W 6141  27.503   4.851  10.596
37812W        W 6142  44.264  26.158  12.341
37813W        W 6143  34.563  16.130  14.761
37814W        W 6144  27.195  35.978   2.265
37815W        W 6145  33.000   7.273   4.627
37816W        W 6146  36.460  13.296  12.951
37817W        W 6147  16.707   1.252   3.266
37818W        W 6148   3.433  40.817  13.364
37819W        W 6149   5.426  24.676   0.934
37820W        W 6150  12.144  18.708  11.024
37821W        W 6151  20.731  36.509   3.809
37822W        W 6152  30.136  15.739   0.337
37823W        W 6153  37.471   3.748   5.206
37824W        W 6154  37.502  37.548  11.374
37825W        W 6155  17.609  12.361   4.230
37826W        W 6156  41.942  11.236   0.301
37827W        W 6157  31.125  20.190   1.879
37828W        W 6158  22.011  39.993  13.057
37829W        W 6159  10.804  43.395   3.639
37830W        W 6160  36.038  20.104  14.512
37831W        W 6161  15.215  33.057  12.516
37832W        W 6162  36.940  21.680  13.965
37833W        W 6163  16.155  41.348  11.921
37834W        W 6164  29.096  39.544  10.888
37835W        W 6165  13.203  43.302  14.992
37836W        W 6166   3.868  13.238   1.314
37837W        W 6167  30.655   2.406  13.382
37838W        W 6168  19.161  35.579   3.152
37839W        W 6169  15.691   4.204  10.553
37840W        W 6170  25.181  12.219  12.426
37841W        W 6171  24.106  11.366  11.935
37842W        W 6172   5.759  34.011   3.790
37843W        W 6173  39.323  38.389  10.943
37844W        W 6174   4.395   6.736  13.826
37845W        W 6175  28.083  37.414  11.916
37846W        W 6176  30.972  41.956  13.419
37847W        W 6177  44.826  34.098  12.071
37848W        W 6178  21.159  11.154  14.793
37849W        W 6179   1.968  37.911   4.294
37850W        W 6180  39.935   8.335   4.175
37851W        W 6181  16.275  31.128  14.843
37852W        W 6182  30.923  34.542   2.887
37853W        W 6183  38.562  17.716  14.889
37854W        W 6184  21.656  23.091  12.392
37855W        W 6185  32.109   4.807  11.879
37856W        W 6186  35.951  25.067   4.787
37857W        W 6187  14.259  26.017  13.391
37858W        W 6188  23.233  41.834   3.360
37859W        W 6189  42.844  32.612   1.724
37860W        W 6190  15.129  35.601   1.765
37861W        W 6191   8.198  25.705  12.867
37862W        W 6192  20.589  15.743   2.296
37863W        W 6193  31.896  33.011  13.911
37864W        W 6194  26.161  30.921  12.502
37865W        W 6195  34.047  39.020  12.875
37866W        W 6196  19.044  27.944  10.589
37867W        W 6197  36.013  31.109  13.883
37868W        W 6198   1.341  36.928  11.555
37869W        W 6199  38.369  11.831  12.021
37870W        W 6200  20.625  24.088  12.392
37871W        W 6201  18.267  40.326  12.926
37872W        W 6202  43.889  29.018   0.848
37873W        W 6203  24.711  25.041  12.853
37874W        W 6204  36.983  16.076  13.401
37875W        W 6205  13.645  36.019   1.264
37876W        W 6206  43.366  25.189  12.512
37877W        W 6207  38.989  22.694   3.288
37878W        W 6208  44.963   3.905   0.392
37879W        W 6209  44.965   7.768   4.640
37880W        W 6210  28.016  15.813  12.479
37881W        W 6211  13.312  38.976   4.185
37882W        W 6212  25.204  43.396   0.889
37883W        W 6213  30.048  21.046   3.849
37884W        W 6214   3.725  25.211   1.930
37885W        W 6215  17.225   7.204  14.846
37886W        W 6216   8.372  27.197  12.539
37887W        W 6217  27.056   5.870   3.222
37888W        W 6218   2.455  43.326   1.425
37889W        W 6219  32.517  13.801  11.125
37890W        W 6220  42.810  18.614  11.862
37891W        W 6221  36.531  31.452   4.276
37892W        W 6222   9.777  31.505  11.892
37893W        W 6223  11.639  29.052  12.450
37894W        W 6224  39.835  28.083   1.840
37895W        W 6225   2.955  29.158   1.854
37896W        W 6226  10.314  33.111   0.805
37897W        W 6227  11.852  38.335   0.300
37898W        W 6228  12.203  10.336   3.281
37899W        W 6229  36.048  28.552  11.906
37900W        W 6230  42.784  33.111  11.607
37901W        W 6231  40.035   7.798  12.093
37902W        W 6232  18.136  19.227  11.982
37903W        W 6233  44.898  35.418   1.855
37904W        W 6234  15.099  22.577  13.991
37905W        W 6235  44.929  40.869   3.649
37906W        W 6236   1.349   1.942  14.417
37907W        W 6237  13.151  29.940  13.980
37908W        W 6238  30.631  38.028   2.391
37909W        W 6239  22.655  12.850   1.800
37910W        W 6240  32.095   3.709  14.446
37911W        W 6241  43.312  10.211   3.732
37912W        W 6242  24.167  25.166   3.857
37913W        W 6243   9.353  16.117  12.950
37914W        W 6244  16.210   3.320  11.610
37915W        W 6245  33.958   6.823   1.268
37916W        W 6246   9.852  21.739  12.428
37917W        W 6247  15.110  41.043  13.411
37918W        W 6248   0.764  30.419   0.966
37919W        W 6249  16.639  32.134   2.868
37920W        W 6250  35.972  25.007  13.977
37921W        W 6251  28.474  32.142   3.750
37922W        W 6252  43.929  31.516  11.959
37923W        W 6253  40.399   2.931   4.743
37924W        W 6254  36.053  20.185   1.932
37925W        W 6255  41.910  39.895   2.220
37926W        W 6256  15.804  21.053  11.856
37927W        W 6257  14.257  38.820   2.316
37928W        W 6258  43.829  35.589   4.666
37929W        W 6259   0.781  10.749   3.164
37930W        W 6260  40.027  34.010   1.225
37931W        W 6261  30.510  43.459  11.866
37932W        W 6262  26.685  28.631  10.616
37933W        W 6263  32.886  14.216  11.973
37934W        W 6264  31.128  34.876  13.997
37935W        W 6265  30.083  43.805   2.663
37936W        W 6266  18.691  34.102   3.783
37937W        W 6267  43.965  31.134   2.183
37938W        W 6268  30.515  28.011   4.258
37939W        W 6269  20.669  12.623   4.649
37940W        W 6270  39.870  34.497   3.658
37941W        W 6271  15.169  17.781   3.725
37942W        W 6272  14.237  21.686   3.715
37943W        W 6273  28.101   5.422   3.252
37944W        W 6274  32.916   6.195  13.487
37945W        W 6275   5.376  16.309  14.454
37946W        W 6276  32.414   7.797  12.061
37947W        W 6277  30.423  32.495  13.878
37948W        W 6278   3.388  17.754   2.780
37949W        W 6279   6.908  20.675  13.979
37950W        W 6280  12.285  19.744   1.769
37951W        W 6281  44.811  12.843   2.704
37952W        W 6282  33.959  24.176  11.584
37953W        W 6283  15.791  13.277  13.817
37954W        W 6284  23.164  39.457  13.497
37955W        W 6285  22.186  39.360   4.690
37956W        W 6286  12.319  20.117  13.036
37957W        W 6287   8.246  39.414   4.206
37958W        W 6288  34.896   3.227  10.015
37959W        W 6289  33.497  15.114   1.327
37960W        W 6290  37.886  14.677  12.065
37961W        W 6291  14.228  30.022  14.304
37962W        W 6292  30.974   5.868  11.493
37963W        W 6293  42.366  43.490  11.429
37964W        W 6294   1.848  20.176   2.252
37965W        W 6295   4.745  14.265   2.856
37966W        W 6296  17.581  30.047  10.918
37967W        W 6297   7.705   1.971   3.149
37968W        W 6298  28.075  17.752   0.739
37969W        W 6299  32.568  11.835  11.527
37970W        W 6300   2.376   3.868  13.869
37971W        W 6301   9.839  12.765   0.296
37972W        W 6302  39.502  24.504  13.999
37973W        W 6303   9.162   5.847  13.982
37974W        W 6304  34.003  12.259  11.912
37975W        W 6305   9.651  35.953   4.786
37976W        W 6306  39.373   3.381  10.567
37977W        W 6307  38.462  22.718  14.460
37978W        W 6308   7.404  41.532  14.954
37979W        W 6309  41.806  22.057  11.940
37980W        W 6310  27.624  38.458  10.987
37981W        W 6311  31.499  32.573  12.876
37982W        W 6312  14.126  43.388   2.377
37983W        W 6313  13.337  32.103  11.504
37984W        W 6314  31.942  10.304  10.889
37985W        W 6315  39.471  11.355   0.746
37986W        W 6316  35.512  35.382  10.581
37987W        W 6317  41.405  23.194  13.309
37988W        W 6318  20.565  43.810   1.905
37989W        W 6319  40.020  26.144   1.717
37990W        W 6320  36.897   7.820  12.355
37991W        W 6321   4.836  21.602  13.968
37992W        W 6322  18.207  44.478   1.276
37993W        W 6323  43.972   3.787   2.222
37994W        W 6324  22.049  17.276   4.294
37995W        W 6325  23.726  41.815   3.198
37996W        W 6326  23.686   8.887   2.675
37997W        W 6327  21.655  39.862   4.686
37998W        W 6328  28.016   4.237  11.402
37999W        W 6329  25.662   4.765  12.555
38000W        W 6330   9.214  44.487  12.836
38001W        W 6331  28.518   2.285   1.414
38002W        W 6332  17.649   0.275  10.535
38003W        W 6333   2.358  25.560   2.735
38004W        W 6334  30.415  32.630   0.370
38005W        W 6335   9.220  37.085   3.158
38006W        W 6336  24.479  18.085   3.172
38007W        W 6337  42.312  13.686  13.890
38008W        W 6338  28.673  10.313  12.978
38009W        W 6339  23.058  26.969   3.824
38010W        W 6340  37.080  39.389   2.337
38011W        W 6341  38.875  32.981   3.784
38012W        W 6342   5.406  23.104   3.854
38013W        W 6343  27.108  27.554   2.833
38014W        W 6344   9.866   4.775  10.985
38015W        W 6345  20.180  40.444  14.949
38016W        W 6346   8.757  44.330  14.401
38017W        W 6347  18.697   9.327  11.023
38018W        W 6348  24.072  24.602  14.886
38019W        W 6349   3.804  18.241   0.271
38020W        W 6350  41.455  43.962  10.492
38021W        W 6351  44.933  29.974   2.757
38022W        W 6352  15.092  14.225   0.806
38023W        W 6353  21.690   8.774   1.897
38024W        W 6354  24.154  22.624  12.895
38025W        W 6355  29.452  29.062   0.948
38026W        W 6356  26.676  27.459   2.233
38027W        W 6357  23.711   8.241  12.968
38028W        W 6358  10.231  34.892  12.028
38029W        W 6359   7.250  21.647   2.829
38030W        W 6360  24.170   7.826  13.861
38031W        W 6361  39.434   9.339  13.019
38032W        W 6362   9.708  12.218  11.511
38033W        W 6363  39.531  10.252   4.115
38034W        W 6364  22.712   1.473  11.604
38035W        W 6365  23.040  35.879  14.334
38036W        W 6366  40.970  13.649  11.503
38037W        W 6367  33.559  35.448   2.888
38038W        W 6368  39.954  12.843  10.611
38039W        W 6369   7.764  15.270   1.224
38040W        W 6370  37.958  22.179  11.911
38041W        W 6371  39.517  22.742  10.943
38042W        W 6372  32.535  11.655  11.025
38043W        W 6373   2.233   0.475   1.373
38044W        W 6374  31.645   8.379  14.878
38045W        W 6375  32.636  23.730  10.450
38046W        W 6376  24.125  37.409   2.324
38047W        W 6377  23.597  18.627   2.351
38048W        W 6378  39.873  29.567   0.964
38049W        W 6379  33.039  37.050   2.797
38050W        W 6380  34.069  15.174  11.864
38051W        W 6381  29.492  28.005  10.544
38052W        W 6382   9.874   0.878  11.612
38053W        W 6383   0.896  42.444   4.341
38054W        W 6384  15.643   4.939  14.289
38055W        W 6385  19.734   0.459  14.973
38056W        W 6386  21.744  19.200  10.160
38057W        W 6387   4.885   1.881  11.592
38058W        W 6388  24.015  27.595   0.357
38059W        W 6389   6.244  31.979   0.777
38060W        W 6390  32.400  29.575  10.921
38061W        W 6391  33.553  28.664   2.379
38062W        W 6392  16.149  27.180  10.515
38063W        W 6393  35.013  24.580  11.093
38064W        W 6394  13.800  13.689   3.334
38065W        W 6395   6.717  30.641   2.410
38066W        W 6396  28.007  43.010   3.766
38067W        W 6397   6.312  39.481  11.449
38068W        W 6398   1.775  15.646   2.872
38069W        W 6399  24.178   7.388  13.839
38070W        W 6400  32.097   6.897  10.597
38071W        W 6401  37.366   3.785   3.701
38072W        W 6402  26.088  31.618  13.409
38073W        W 6403  35.599  26.482  12.075
38074W        W 6404  25.583   2.851   4.624
38075W        W 6405   2.957  29.982  12.388
38076W        W 6406  27.602  44.379   2.302
38077W        W 6407  20.131  31.610   3.265
38078W        W 6408  28.084  20.115  10.547
38079W        W 6409   8.711   5.898   1.210
38080W        W 6410  12.343  29.025  11.551
38081W        W 6411   5.300  23.165  11.437
38082W        W 6412  24.621   7.309  13.373
38083W        W 6413  32.503   9.808   1.763
38084W        W 6414   9.669  14.176  11.037
38085W        W 6415  19.159  39.976  14.323
38086W        W 6416  26.001   2.966   4.126
38087W        W 6417  15.224  13.193  14.762
38088W        W 6418  37.442  15.174   4.190
38089W        W 6419   4.752  32.925  13.971
38090W        W 6420  16.592  21.231  13.986
38091W        W 6421  25.486  21.095  10.977
38092W        W 6422   9.802   9.273   4.214
38093W        W 6423  15.621  22.693  12.552
38094W        W 6424  37.027  27.193   1.421
38095W        W 6425  28.657  12.675   3.846
38096W        W 6426   1.384  16.285  14.412
38097W        W 6427  39.424  26.986   4.133
38098W        W 6428   0.425  31.478  11.042
38099W        W 6429  25.623  35.532  10.536
38100W        W 6430  33.386  38.077   2.340
38101W        W 6431   7.791  31.039   2.269
38102W        W 6432  44.893  42.981  10.011
38103W        W 6433  24.599  19.568  14.794
38104W        W 6434  30.977  13.792   2.199
38105W        W 6435  22.097  34.453   3.226
38106W        W 6436  39.019  21.521  10.897
38107W        W 6437  37.431   7.263  11.489
38108W        W 6438  13.825   6.851  11.423
38109W        W 6439  23.120  41.009  10.502
38110W        W 6440  38.944  28.050   0.262
38111W        W 6441  30.117  13.347   1.755
38112W        W 6442  39.020  30.080   2.859
38113W        W 6443  27.589  11.131   3.336
38114W        W 6444  27.145   2.888   4.304
38115W        W 6445  25.656  29.488   1.279
38116W        W 6446   6.356  36.561  14.805
38117W        W 6447  37.890  40.994  11.087
38118W        W 6448  10.740   3.917  12.454
38119W        W 6449  26.068   7.845   4.130
38120W        W 6450   7.368   6.216  11.432
38121W        W 6451  17.737  16.240   2.749
38122W        W 6452  35.514  27.672  13.021
38123W        W 6453   3.908  10.141  10.983
38124W        W 6454  30.120  33.555  10.581
38125W        W 6455  39.007  14.185  13.485
38126W        W 6456   6.325   3.720   3.868
38127W        W 6457  37.992  33.985  11.030
38128W        W 6458   8.832   6.372   5.222
38129W        W 6459  15.099   8.664  11.433
38130W        W 6460  28.983  26.047   1.254
38131W        W 6461  13.134  25.595   2.722
38132W        W 6462  17.576  31.082   3.695
38133W        W 6463  10.650  14.174   2.882
38134W        W 6464  14.203  42.456   0.246
38135W        W 6465  34.103  40.048   2.866
38136W        W 6466  26.505  25.966  13.049
38137W        W 6467  31.088  25.043  12.487
38138W        W 6468  27.498  21.260  12.980
38139W        W 6469  22.236   7.770   2.207
38140W        W 6470  38.940  12.734   2.692
38141W        W 6471  11.668  23.550  13.317
38142W        W 6472  29.961  25.133  13.006
38143W        W 6473   8.887   3.377   1.698
38144W        W 6474  11.164  40.514   4.150
38145W        W 6475  14.253   7.250   2.784
38146W        W 6476  27.459   1.788   4.185
38147W        W 6477   8.169   6.260   1.777
38148W        W 6478  27.016  44.763   4.679
38149W        W 6479   7.404   4.371  13.414
38150W        W 6480   8.656  41.511  14.774
38151W        W 6481   7.359  18.788  11.991
38152W        W 6482  21.167  25.142   2.701
38153W        W 6483  31.454  30.543   3.298
38154W        W 6484  23.222  44.901   2.871
38155W        W 6485  16.670  12.631   1.274
38156W        W 6486  12.207   1.932   0.830
38157W        W 6487   3.808  18.233   2.305
38158W        W 6488  26.201  44.320   1.775
38159W        W 6489  39.949  13.702  12.557
38160W        W 6490  10.175  19.598   1.251
38161W        W 6491  22.031  35.109  12.012
38162W        W 6492   7.693  26.091  12.575
38163W        W 6493  12.359  31.622   1.773
38164W        W 6494  18.125  27.053  11.511
38165W        W 6495  39.537  43.449  11.983
38166W        W 6496  37.054  12.250   2.734
38167W        W 6497  26.031   2.900   3.371
38168W        W 6498  12.752  40.923  11.091
38169W        W 6499  18.646   2.317  10.438
38170W        W 6500  41.830  41.464   3.865
38171W        W 6501  29.939  14.825  14.824
38172W        W 6502  26.602  34.886   4.682
38173W        W 6503   2.940  10.194  12.037
38174W        W 6504  27.980  26.514  11.406
38175W        W 6505  35.022  43.000   4.817
38176W        W 6506  26.963  44.383   3.776
38177W        W 6507  28.033  42.947  13.977
38178W        W 6508  33.955  27.082  12.855
38179W        W 6509  38.908  34.049   1.381
38180W        W 6510   2.963  41.835   0.739
38181W        W 6511  22.626  18.152  14.385
38182W        W 6512  25.984  14.645  10.931
38183W        W 6513  34.081  29.438  12.450
38184W        W 6514  29.979   2.236  10.602
38185W        W 6515  16.102  15.223   1.852
38186W        W 6516   2.331  27.562  12.346
38187W        W 6517  43.862  22.091   2.339
38188W        W 6518   8.672  12.620   2.393
38189W        W 6519  29.011  14.752   3.648
38190W        W 6520  31.132  39.378  11.871
38191W        W 6521  42.817  41.993   1.445
38192W        W 6522  33.451  24.112   5.254
38193W        W 6523  34.371   8.350   1.318
38194W        W 6524  11.138  26.001   0.261
38195W        W 6525  22.168  27.039  14.815
38196W        W 6526  34.574  33.615   3.810
38197W        W 6527  10.310  20.612  10.553
38198W        W 6528  24.613  41.869  11.424
38199W        W 6529   8.237  31.570   3.257
38200W        W 6530  30.036  16.677  14.317
38201W        W 6531  24.146  25.603   1.370
38202W        W 6532  12.724  39.419  13.807
38203W        W 6533   9.882  10.867   2.380
38204W        W 6534   3.425  19.611  14.865
38205W        W 6535  12.763   7.270  13.336
38206W        W 6536  44.981  17.565   3.321
38207W        W 6537  11.160  36.531  14.949
38208W        W 6538  33.990  28.467  14.947
38209W        W 6539  27.156   7.301  10.544
38210W        W 6540  16.307  21.634  12.522
38211W        W 6541   8.901  42.953  11.447
38212W        W 6542  17.751  30.076  14.912
38213W        W 6543  33.380  13.765   1.443
38214W        W 6544   7.794  13.195   4.200
38215W        W 6545   4.348  10.796   4.208
38216W        W 6546   1.798  29.578   0.375
38217W        W 6547   0.933  21.620   4.336
38218W        W 6548  11.725  41.796  12.999
38219W        W 6549  37.419  25.141   3.237
38220W        W 6550  12.176  28.594  10.903
38221W        W 6551  33.100  41.843  13.526
38222W        W 6552   7.388  30.947   1.883
38223W        W 6553  25.124  18.618   0.954
38224W        W 6554   1.399  17.169   2.224
38225W        W 6555  32.964  26.544   2.894
38226W        W 6556  20.609  30.529  12.485
38227W        W 6557  28.478  33.900   2.835
38228W        W 6558  12.231  37.487   3.161
38229W        W 6559  42.301  17.639  13.977
38230W        W 6560  33.409  30.455   1.710
38231W        W 6561   3.781  10.372  12.360
38232W        W 6562  35.451  25.469  13.977
38233W        W 6563  43.285  19.682   0.748
38234W        W 6564  13.224  41.912  10.453
38235W        W 6565  39.903  34.470   4.269
38236W        W 6566  33.603  27.588  14.897
38237W        W 6567  22.715  43.836   4.117
38238W        W 6568  29.032  22.121   2.715
38239W        W 6569   2.350  23.059   0.768
38240W        W 6570  38.027  12.787  14.908
38241W        W 6571  21.741  24.536  14.979
38242W        W 6572  16.724   3.267  14.417
38243W        W 6573  25.188   1.919   0.918
38244W        W 6574  29.933  28.592  12.579
38245W        W 6575  36.972  32.065   2.786
38246W        W 6576   9.357   1.915   5.292
38247W        W 6577   1.898  35.372   4.646
38248W        W 6578  10.296  16.717  11.922
38249W        W 6579  20.258   5.238   4.166
38250W        W 6580  37.980   5.345  11.520
38251W        W 6581   0.953  32.518  13.385
38252W        W 6582  37.948  31.142  14.894
38253W        W 6583  17.615   0.311   4.216
38254W        W 6584   1.853  42.299   1.815
38255W        W 6585   3.854  23.628   0.927
38256W        W 6586   4.427  39.870  10.913
38257W        W 6587  31.068  44.966   1.908
38258W        W 6588   8.353   5.286  11.382
38259W        W 6589  24.042  21.520   1.354
38260W        W 6590   2.824  12.671   1.213
38261W        W 6591  27.951  17.289  13.922
38262W        W 6592  43.375  31.584   3.689
38263W        W 6593  11.225  22.684  13.942
38264W        W 6594  34.931  21.032  11.494
38265W        W 6595  38.875  18.623  10.937
38266W        W 6596   1.904  25.617   4.785
38267W        W 6597   2.892  31.933  12.830
38268W        W 6598  24.154  44.374   0.778
38269W        W 6599  18.767  21.030  11.609
38270W        W 6600   3.230  16.294   0.859
38271W        W 6601  14.273   7.370  14.495
38272W        W 6602  44.465  22.252   4.195
38273W        W 6603  28.622   5.351  13.353
38274W        W 6604   7.687  23.559  14.494
38275W        W 6605  25.206  34.054   3.640
38276W        W 6606  11.638  28.566   1.884
38277W        W 6607   0.392  43.311  12.532
38278W        W 6608   6.204  33.060  12.002
38279W        W 6609  24.122   2.748   3.197
38280W        W 6610  28.071   4.712   5.316
38281W        W 6611  22.118  44.838   1.402
38282W        W 6612  28.594  30.645   3.185
38283W        W 6613  42.948  18.771   0.315
38284W        W 6614  20.218  27.115   4.159
38285W        W 6615   5.856  18.165   2.865
38286W        W 6616  43.316   8.266   1.716
38287W        W 6617  27.010  17.093   2.848
38288W        W 6618   2.423  43.843  13.329
38289W        W 6619  29.929  22.029  10.116
38290W        W 6620  39.816  14.111   2.326
38291W        W 6621  23.203  25.612  11.981
38292W        W 6622  33.570  19.771  11.993
38293W        W 6623   6.827  21.188   4.793
38294W        W 6624  44.868  20.540  11.045
38295W        W 6625  28.036  17.270   3.751
38296W        W 6626   8.359   2.794  14.889
38297W        W 6627  40.940   6.205  10.033
38298W        W 6628  36.541  29.516   2.821
38299W        W 6629  23.643  21.640  12.374
38300W        W 6630  15.207   4.848  13.872
38301W        W 6631  18.059  16.153  10.452
38302W        W 6632  27.977   3.773   2.182
38303W        W 6633  33.993  30.051   1.935
38304W        W 6634   1.738  44.414   2.697
38305W        W 6635  34.557  18.168   2.839
38306W        W 6636   5.254  25.654  12.438
38307W        W 6637  13.773  12.180   4.297
38308W        W 6638  12.289  38.445   2.716
38309W        W 6639  37.954  15.806   1.852
38310W        W 6640  32.951  34.532   4.753
38311W        W 6641  30.548  30.555   3.719
38312W        W 6642  39.025  36.496  11.972
38313W        W 6643  24.508  27.471   3.150
38314W        W 6644  16.119  13.289  12.493
38315W        W 6645  23.087  33.071  11.472
38316W        W 6646  39.558   4.914   2.743
38317W        W 6647  38.411  38.419   3.718
38318W        W 6648  27.052  11.704  13.484
38319W        W 6649  34.551  16.208  10.528
38320W        W 6650   2.405  40.479  12.434
38321W        W 6651  41.326   0.944  13.829
38322W        W 6652  20.625   8.387  13.829
38323W        W 6653  29.945  27.951   4.653
38324W        W 6654  28.014   6.312  11.965
38325W        W 6655  16.747  32.535   3.153
38326W        W 6656  17.163  14.209  14.024
38327W        W 6657   1.439  29.980  14.294
38328W        W 6658  38.953  26.484  10.963
38329W        W 6659  10.236  37.406   3.863
38330W        W 6660  29.035   5.397   0.320
38331W        W 6661  20.118  24.121   9.944
38332W        W 6662  11.739  24.650   2.258
38333W        W 6663  30.624  36.534   5.096
38334W        W 6664  41.960  34.420   4.310
38335W        W 6665  23.176  20.080   1.770
38336W        W 6666  26.657  32.115   2.250
38337W        W 6667  44.849  35.487   2.188
38338W        W 6668  25.028   5.221   3.749
38339W        W 6669  30.917   4.703   1.382
38340W        W 6670   6.761  39.330  11.382
38341W        W 6671  37.427  21.548   0.445
38342W        W 6672  32.936  24.989  13.333
38343W        W 6673   9.680  40.891  11.510
38344W        W 6674  24.534  18.175   4.597
38345W        W 6675  30.079  37.530   2.209
38346W        W 6676   1.448  19.255   4.710
38347W        W 6677  18.207  23.578  14.335
38348W        W 6678   1.461   9.343   1.314
38349W        W 6679   4.437  27.155  13.863
38350W        W 6680   5.424   0.439   1.263
38351W        W 6681  22.656   7.382  12.528
38352W        W 6682  16.598  26.654  13.380
38353W        W 6683  20.263  12.753   2.309
38354W        W 6684   5.774  16.620  12.043
38355W        W 6685  10.269  31.606  14.394
38356W        W 6686  19.247  17.768  10.474
38357W        W 6687   6.772  33.889  12.514
38358W        W 6688  35.005  42.935   0.404
38359W        W 6689  33.124  30.942  13.926
38360W        W 6690   6.198  24.522  11.438
38361W        W 6691  27.460  13.243  11.439
38362W        W 6692  25.164   6.743  12.029
38363W        W 6693  16.314  36.024   0.874
38364W        W 6694  42.347  38.946  14.327
38365W        W 6695   6.329  34.957   4.727
38366W        W 6696   6.902   2.823   4.788
38367W        W 6697  41.899   4.381  12.959
38368W        W 6698  11.156   4.757  13.954
38369W        W 6699  43.952  17.654  11.602
38370W        W 6700  30.030  30.516   0.908
38371W        W 6701  32.526   5.699   1.449
38372W        W 6702  21.217  38.900  12.346
38373W        W 6703  31.636  17.699   2.901
38374W        W 6704  26.596   9.724   0.843
38375W        W 6705  24.168  38.346   1.253
38376W        W 6706   8.880  13.139   1.898
38377W        W 6707  36.846  44.417   1.813
38378W        W 6708  43.319  22.699   1.320
38379W        W 6709  32.932  15.643   3.693
38380W        W 6710  34.046  20.635   3.288
38381W        W 6711  29.486  34.468   3.809
38382W        W 6712  31.530   1.257   3.336
38383W        W 6713  35.972  14.124  13.942
38384W        W 6714  20.085  24.703  12.580
38385W        W 6715  31.455  12.841  13.807
38386W        W 6716  29.971  38.340   4.702
38387W        W 6717   2.415  29.071  11.951
38388W        W 6718  24.517  31.091   3.348
38389W        W 6719  42.293  34.499  12.412
38390W        W 6720  28.571  14.286   3.720
38391W        W 6721  43.938   6.802   0.275
38392W        W 6722  23.505  12.631  12.399
38393W        W 6723  22.038  12.220   3.275
38394W        W 6724  13.142  13.717  12.400
38395W        W 6725   3.743   3.773   2.685
38396W        W 6726  35.961   2.762  11.855
38397W        W 6727   3.222  35.383  12.483
38398W        W 6728  43.435  34.437  14.419
38399W        W 6729  17.234  42.874  14.797
38400W        W 6730   9.813  35.589   2.777
38401W        W 6731  14.158  37.362   2.182
38402W        W 6732  37.540  43.283   4.769
38403W        W 6733  28.658  24.564  12.947
38404W        W 6734  27.453   5.828  10.962
38405W        W 6735   0.933   4.825  12.834
38406W        W 6736  24.110   6.383  10.952
38407W        W 6737   7.413  30.999  10.610
38408W        W 6738  40.537  30.032  12.049
38409W        W 6739  25.067  31.522   4.625
38410W        W 6740  13.158   2.335  10.606
38411W        W 6741   2.344   7.862  14.394
38412W        W 6742   6.696  31.027  12.379
38413W        W 6743  13.185   1.417   3.160
38414W        W 6744  38.904  36.424   1.428
38415W        W 6745  33.022  37.053  11.055
38416W        W 6746   8.900  16.221   1.920
38417W        W 6747  28.102  11.274  10.430
38418W        W 6748  32.072   3.459   1.850
38419W        W 6749  24.158  17.571   4.679
38420W        W 6750  32.068  26.581   4.322
38421W        W 6751  18.781  41.846   3.869
38422W        W 6752  44.848  27.576  11.071
38423W        W 6753   7.753  42.870   0.420
38424W        W 6754  15.621  29.104  11.454
38425W        W 6755   5.330  38.391   0.958
38426W        W 6756  43.828   7.341  14.334
38427W        W 6757  42.837  21.539   2.222
38428W        W 6758   0.465  37.005  14.432
38429W        W 6759  16.611  11.765   1.713
38430W        W 6760  29.606  17.299  12.951
38431W        W 6761  19.101  13.310   1.319
38432W        W 6762   9.204  35.881   4.203
38433W        W 6763  14.157   4.818   4.739
38434W        W 6764  42.925  22.013  11.081
38435W        W 6765  30.471  25.997  14.447
38436W        W 6766   7.673  30.117  12.571
38437W        W 6767   6.679   0.929  14.832
38438W        W 6768  43.475  31.970   1.775
38439W        W 6769  10.872  20.039   1.707
38440W        W 6770  40.332  22.172   0.838
38441W        W 6771  21.625   0.773  10.964
38442W        W 6772  12.778  27.643  12.397
38443W        W 6773  15.241  14.241   2.851
38444W        W 6774  15.107   9.367  13.535
38445W        W 6775  31.102  11.741  13.808
38446W        W 6776   4.831  14.178   4.729
38447W        W 6777  19.558  38.476  11.522
38448W        W 6778  22.531   0.298   0.751
38449W        W 6779  14.807  18.282  13.530
38450W        W 6780  18.159  38.827   3.370
38451W        W 6781  17.071   6.809  11.008
38452W        W 6782  44.311  38.458  14.379
38453W        W 6783  23.723  39.496  10.457
38454W        W 6784  23.588  37.458  14.935
38455W        W 6785  11.846  25.095   5.242
38456W        W 6786   8.178  33.393  13.408
38457W        W 6787  36.516  22.719   5.252
38458W        W 6788  10.736  16.143   0.352
38459W        W 6789   4.411  33.990   3.781
38460W        W 6790  16.766  27.471  14.801
38461W        W 6791  31.420  26.172  12.986
38462W        W 6792  32.523   5.715  14.923
38463W        W 6793  32.568   5.266   3.725
38464W        W 6794  28.127   1.790  14.460
38465W        W 6795  43.869  42.514   2.711
38466W        W 6796   2.815   9.233   4.726
38467W        W 6797  24.063  35.926   0.792
38468W        W 6798   3.759   4.288   4.353
38469W        W 6799  22.158   0.439  10.644
38470W        W 6800  30.631  13.290  12.466
38471W        W 6801  39.375   6.267   5.222
38472W        W 6802  31.525  31.101   0.357
38473W        W 6803   1.846  40.035  10.959
38474W        W 6804  16.775   1.276   0.856
38475W        W 6805   3.280  27.461  13.421
38476W        W 6806  32.628   5.257   3.207
38477W        W 6807   9.867  12.121   3.150
38478W        W 6808  11.746  27.537   2.819
38479W        W 6809  34.095  27.650  14.403
38480W        W 6810  35.516  40.920  13.919
38481W        W 6811  23.213  21.758   4.736
38482W        W 6812  38.848  17.253  10.002
38483W        W 6813  19.615  20.625  13.809
38484W        W 6814  44.777  13.638  14.759
38485W        W 6815   0.978   7.772  12.366
38486W        W 6816  10.281  12.176   1.329
38487W        W 6817  22.150   9.347  11.919
38488W        W 6818  32.450  10.384  12.527
38489W        W 6819   5.401  22.111  14.767
38490W        W 6820  29.508  31.907   2.900
38491W        W 6821   2.883   3.218  11.118
38492W        W 6822  28.679  17.747  10.601
38493W        W 6823  34.978  16.280   4.226
38494W        W 6824  38.519  20.202   2.322
38495W        W 6825  21.237  19.645  14.319
38496W        W 6826  35.502  19.769   2.297
38497W        W 6827  14.835  27.532  14.806
38498W        W 6828  16.100  32.413  12.082
38499W        W 6829  34.609  43.872   4.263
38500W        W 6830  27.476  23.083  12.453
38501W        W 6831  21.631   9.785  13.467
38502W        W 6832  19.210  23.123  12.006
38503W        W 6833  42.471  12.749   1.280
38504W        W 6834  20.574  19.738  10.955
38505W        W 6835  42.428  17.151  12.960
38506W        W 6836  44.348  36.869   2.265
38507W        W 6837   4.401  37.537  10.504
38508W        W 6838  27.947   6.799  10.027
38509W        W 6839   5.864  26.130  10.461
38510W        W 6840  43.373  37.451  11.110
38511W        W 6841   8.366   2.468  10.645
38512W        W 6842  39.547  28.057   2.205
38513W        W 6843  30.604  18.713  14.378
38514W        W 6844  21.728  23.127   2.325
38515W        W 6845  23.228  40.949  12.970
38516W        W 6846   1.925  21.166   2.286
38517W        W 6847  13.140  19.582  10.052
38518W        W 6848  34.944  18.154   3.690
38519W        W 6849  41.415  35.955  11.567
38520W        W 6850  14.730  37.353   1.869
38521W        W 6851  26.171  15.581   3.733
38522W        W 6852  22.159   0.955   1.276
38523W        W 6853  25.153  16.750  10.634
38524W        W 6854   4.374  10.774   0.467
38525W        W 6855   2.403  29.631  11.414
38526W        W 6856  40.513   9.368  10.528
38527W        W 6857  22.740  20.684  12.057
38528W        W 6858  20.071  22.631   2.784
38529W        W 6859   6.248   1.920  10.087
38530W        W 6860  35.082  21.584   3.248
38531W        W 6861  25.681   9.783   5.733
38532W        W 6862   4.811   6.190  14.814
38533W        W 6863   8.166  22.583  12.534
38534W        W 6864   1.740  23.238  13.436
38535W        W 6865  20.086  37.922  12.011
38536W        W 6866  36.887  38.562  14.351
38537W        W 6867  40.879  24.709  11.611
38538W        W 6868  38.875  20.184   1.349
38539W        W 6869  39.552  31.615   0.731
38540W        W 6870  41.905  17.079   3.866
38541W        W 6871   8.174   2.274  11.019
38542W        W 6872  36.995   5.755  13.441
38543W        W 6873  32.544  25.499   2.811
38544W        W 6874  30.951  33.595   0.906
38545W        W 6875   7.896   1.922  13.914
38546W        W 6876  33.427  37.974  11.970
38547W        W 6877  15.750   2.380   0.909
38548W        W 6878  14.292  32.413   1.252
38549W        W 6879  35.390  43.453  12.873
38550W        W 6880   0.950  39.930   0.882
38551W        W 6881  44.311  37.907   0.361
38552W        W 6882  17.307  23.218   0.817
38553W        W 6883  28.953  30.519  14.925
38554W        W 6884  43.277  25.472  13.833
38555W        W 6885  41.960  13.177   2.774
38556W        W 6886  10.808  35.872   2.220
38557W        W 6887  16.072  25.993   1.305
38558W        W 6888  42.828  32.136   2.860
38559W        W 6889  34.439  36.405   0.951
38560W        W 6890  24.611   3.730   2.235
38561W        W 6891  11.177  13.308  11.385
38562W        W 6892  28.109  36.455   4.353
38563W        W 6893  18.255  14.725   1.798
38564W        W 6894  11.336  12.133   3.362
38565W        W 6895  20.750  17.061  11.039
38566W        W 6896  23.072   7.396   9.971
38567W        W 6897  26.206  33.980  13.349
38568W        W 6898  38.993  39.917   1.409
38569W        W 6899  26.558  41.982  13.431
38570W        W 6900  35.027   2.449   0.311
38571W        W 6901  13.162  21.522   1.859
38572W        W 6902  28.964  12.631  11.067
38573W        W 6903  26.671  41.990  12.369
38574W        W 6904  35.098  37.531   1.726
38575W        W 6905   3.871  11.633   3.747
38576W        W 6906   5.713  40.381  10.603
38577W        W 6907  27.058  29.514   1.816
38578W        W 6908  25.122   4.391  14.324
38579W        W 6909  19.601   5.917   3.748
38580W        W 6910   9.245  23.668   2.362
38581W        W 6911  39.033  35.575   4.272
38582W        W 6912  11.372   1.791   0.390
38583W        W 6913  18.095  36.977   0.459
38584W        W 6914   3.368  34.007   0.253
38585W        W 6915  40.520  42.514   3.222
38586W        W 6916  10.315  33.026   0.334
38587W        W 6917   8.843  30.137   1.897
38588W        W 6918  26.481  38.380  13.797
38589W        W 6919  44.442  13.331  10.580
38590W        W 6920  14.655  20.677   3.359
38591W        W 6921   4.428  44.364  13.910
38592W        W 6922  36.935  24.030   3.384
38593W        W 6923  14.711   3.749  11.062
38594W        W 6924   1.414  37.939  10.550
38595W        W 6925  44.355  31.473   3.683
38596W        W 6926  19.237  20.746  11.031
38597W        W 6927  17.784  24.486   0.246
38598W        W 6928  10.264   2.247  10.043
38599W        W 6929  35.408  30.150  13.531
38600W        W 6930  18.085  39.399   4.159
38601W        W 6931   9.277  17.688   2.267
38602W        W 6932  11.304  27.960   4.640
38603W        W 6933  36.485  41.354  10.525
38604W        W 6934  21.186  26.489  13.353
38605W        W 6935  22.055  21.094  13.924
38606W        W 6936  25.669  25.669   0.765
38607W        W 6937   8.358  18.110  12.411
38608W        W 6938  37.056  14.749  13.506
38609W        W 6939  24.523  24.191   3.644
38610W        W 6940  36.032   8.210  13.059
38611W        W 6941  41.940  41.927   3.654
38612W        W 6942  11.370   4.419   1.734
38613W        W 6943  10.813   2.850  14.912
38614W        W 6944   0.947  13.153   2.834
38615W        W 6945  29.577  12.318   3.853
38616W        W 6946  20.716  31.049   4.749
38617W        W 6947  36.087  12.668   1.231
38618W        W 6948  22.731   8.835  11.045
38619W        W 6949  24.225  33.106  14.975
38620W        W 6950  20.128   2.951   2.323
38621W        W 6951   2.958  31.050  14.455
38622W        W 6952  40.490  28.608  11.877
38623W        W 6953  31.429   2.819  12.576
38624W        W 6954  42.488  29.567  10.603
38625W        W 6955  27.587   1.370   3.651
38626W        W 6956   0.294  15.793   1.717
38627W        W 6957  13.171  20.082   0.332
38628W        W 6958  43.464  28.020   2.264
38629W        W 6959  39.879  36.955  13.415
38630W        W 6960   8.284  40.344   0.359
38631W        W 6961  11.848  37.863  12.369
38632W        W 6962  39.921  17.723  10.972
38633W        W 6963  19.570  22.117  14.345
38634W        W 6964  30.618  17.602   2.753
38635W        W 6965  23.029  14.155   0.288
38636W        W 6966  31.494   8.803   5.244
38637W        W 6967  37.405  12.679  13.925
38638W        W 6968   0.974  13.773   2.855
38639W        W 6969   4.246  30.570  12.871
38640W        W 6970  16.752   0.807   3.664
38641W        W 6971   5.220  36.349   4.684
38642W        W 6972  14.594  13.139  14.490
38643W        W 6973   8.314  23.700  14.848
38644W        W 6974  38.489  21.200  12.946
38645W        W 6975  42.394  29.946  12.551
38646W        W 6976  26.060  33.519  11.478
38647W        W 6977   0.783   9.683   2.665
38648W        W 6978  27.940  25.640  12.976
38649W        W 6979  43.994  20.127   3.203
38650W        W 6980   3.289  11.775  13.871
38651W        W 6981  34.916  21.049   3.704
38652W        W 6982  24.006  43.904  11.892
38653W        W 6983  39.378  39.954  13.990
38654W        W 6984  20.130  43.436  11.087
38655W        W 6985  36.037   4.733   2.338
38656W        W 6986   1.304   1.798  11.128
38657W        W 6987  43.411   8.781   4.729
38658W        W 6988  39.920  30.630   2.808
38659W        W 6989   0.768  10.191   4.657
38660W        W 6990  39.916  12.306   4.198
38661W        W 6991  11.217  14.270   3.239
38662W        W 6992  34.419  39.962   0.934
38663W        W 6993  27.993  27.537   0.301
38664W        W 6994  13.632  43.449   2.843
38665W        W 6995  24.117   6.315  12.355
38666W        W 6996  38.907  38.439   1.429
38667W        W 6997  35.552  32.995   1.231
38668W        W 6998   3.451  30.605   4.764
38669W        W 6999  22.106  26.495   3.272
38670W        W 7000  34.516   3.438   2.333
38671W        W 7001  25.008  25.028   3.666
38672W        W 7002  10.676   0.337   1.280
38673W        W 7003  11.198  25.073   4.314
38674W        W 7004  23.583  44.413  10.629
38675W        W 7005  35.374   8.790  11.982
38676W        W 7006   2.289   3.268  11.379
38677W        W 7007  24.165  15.727   0.757
38678W        W 7008  29.088  34.439   0.316
38679W        W 7009  16.618  18.734  12.992
38680W        W 7010  10.743  38.397   1.294
38681W        W 7011   7.177  33.976   4.672
38682W        W 7012  24.704  36.543   0.358
38683W        W 7013  43.358  18.740   0.424
38684W        W 7014  28.079  40.959  12.920
38685W        W 7015  19.071  33.386  11.492
38686W        W 7016  24.131  14.261   3.347
38687W        W 7017  21.121  43.812   4.348
38688W        W 7018  10.200   8.726   3.750
38689W        W 7019  14.690   3.391   4.704
38690W        W 7020  36.952  41.038  13.524
38691W        W 7021  19.114   7.697  14.952
38692W        W 7022   6.419  38.458   3.679
38693W        W 7023  25.075  20.170  14.336
38694W        W 7024  28.603  22.668  12.524
38695W        W 7025   3.846  29.525   0.868
38696W        W 7026  38.899  25.142   3.717
38697W        W 7027  26.609  34.382  11.590
38698W        W 7028  21.196  28.070  11.467
38699W        W 7029  24.699  40.975   4.760
38700W        W 7030  17.743  43.021  11.577
38701W        W 7031  40.981  18.705  13.512
38702W        W 7032  13.820   3.340   1.745
38703W        W 7033  39.855  42.300  14.483
38704W        W 7034   4.390   5.224   0.798
38705W        W 7035  13.194   1.290   0.410
38706W        W 7036  20.273   9.273  14.318
38707W        W 7037  27.489  43.487  12.922
38708W        W 7038  10.728  10.268  13.059
38709W        W 7039   2.293  44.847  12.423
38710W        W 7040  19.129   3.954   3.322
38711W        W 7041  15.822  28.499  10.445
38712W        W 7042  25.996   9.226   5.606
38713W        W 7043  30.491  23.126   1.435
38714W        W 7044  35.017   2.859   0.889
38715W        W 7045  29.511   2.755   4.782
38716W        W 7046  27.679  30.077   3.230
38717W        W 7047  32.910  20.089   3.331
38718W        W 7048  20.661  29.518   0.298
38719W        W 7049  16.638  29.104  14.909
38720W        W 7050  34.093   9.245   4.761
38721W        W 7051  37.004  35.034  14.887
38722W        W 7052  43.857   8.823   2.683
38723W        W 7053   9.234  17.205  10.019
38724W        W 7054  24.646  34.430   4.327
38725W        W 7055  38.457  10.772   0.734
38726W        W 7056   0.953  40.491   4.767
38727W        W 7057  24.103   0.295  11.076
38728W        W 7058  41.343  26.620   1.440
38729W        W 7059  25.154   8.898  11.383
38730W        W 7060   2.725  21.143   4.121
38731W        W 7061  14.635  14.650   0.344
38732W        W 7062   1.248   8.754  10.593
38733W        W 7063   2.380   5.257  14.879
38734W        W 7064  43.790  13.122   0.817
38735W        W 7065  24.551   5.424   1.724
38736W        W 7066  31.484   7.799  14.851
38737W        W 7067   6.423  28.550  12.472
38738W        W 7068  38.856  21.025  10.126
38739W        W 7069  27.121  20.762   1.370
38740W        W 7070  25.147  15.725  12.084
38741W        W 7071  40.521  29.951   0.468
38742W        W 7072  12.703  21.264  12.918
38743W        W 7073  26.588  13.713  14.969
38744W        W 7074  18.617   4.896   3.233
38745W        W 7075  18.062  29.097   3.364
38746W        W 7076  30.950  26.545  14.415
38747W        W 7077   9.391  26.188  13.461
38748W        W 7078   0.379  11.704   4.691
38749W        W 7079   1.968  15.804   3.313
38750W        W 7080  19.619   5.326   4.238
38751W        W 7081  19.646  24.636  14.922
38752W        W 7082  11.229  25.689   1.348
38753W        W 7083  10.205  33.923   3.189
38754W        W 7084  35.375  21.079   4.792
38755W        W 7085  34.972  24.514  11.463
38756W        W 7086  42.889   4.802   2.303
38757W        W 7087  18.607   5.898  10.019
38758W        W 7088   9.844   5.438   2.878
38759W        W 7089   7.367   1.427  14.480
38760W        W 7090  26.011   6.814  11.895
38761W        W 7091  13.289  19.112  14.839
38762W        W 7092   3.899  13.235   2.897
38763W        W 7093  22.724   7.898   5.785
38764W        W 7094  44.958  23.575   2.189
38765W        W 7095  26.068  10.197  12.041
38766W        W 7096  40.905  43.860   0.906
38767W        W 7097  12.626  15.113   2.222
38768W        W 7098   8.168  43.800  13.879
38769W        W 7099   2.373   0.748   4.202
38770W        W 7100  38.369  21.702   3.208
38771W        W 7101  23.084  33.513  14.503
38772W        W 7102   4.387  20.719   3.758
38773W        W 7103  35.407  16.590   1.805
38774W        W 7104  14.656  22.618   0.275
38775W        W 7105  40.480  22.076   2.853
38776W        W 7106  28.978  39.472   1.909
38777W        W 7107  30.055  10.250   3.704
38778W        W 7108   3.755  28.632  11.474
38779W        W 7109  28.131  27.081  14.944
38780W        W 7110   0.964  19.692   1.234
38781W        W 7111  12.614  26.957  13.361
38782W        W 7112  43.297  11.781   3.286
38783W        W 7113   8.338  30.970   3.832
38784W        W 7114  33.881   8.226   0.747
38785W        W 7115  39.531  41.410   1.255
38786W        W 7116   4.238  10.653   3.827
38787W        W 7117  34.556   1.959  14.333
38788W        W 7118  11.789  22.065  10.936
38789W        W 7119  40.438  42.391   1.856
38790W        W 7120  41.499  40.324   1.366
38791W        W 7121  28.642  10.294  14.932
38792W        W 7122  43.312  23.656  11.125
38793W        W 7123   3.379  16.582   1.363
38794W        W 7124  18.122   9.361  12.999
38795W        W 7125  39.974   4.260  12.900
38796W        W 7126  29.165  26.026   3.638
38797W        W 7127  31.623  32.530   1.299
38798W        W 7128  18.151  41.527  12.530
38799W        W 7129  20.599   6.278   4.746
38800W        W 7130   5.706  23.501  13.952
38801W        W 7131   6.307  36.507   4.636
38802W        W 7132  33.962  29.021  11.902
38803W        W 7133  15.671  18.176   1.885
38804W        W 7134  10.280  43.513   0.307
38805W        W 7135  20.575  13.345  14.813
38806W        W 7136  42.488  15.134   3.230
38807W        W 7137  25.089  25.528  14.945
38808W        W 7138  43.429  26.597  11.443
38809W        W 7139   0.449  39.451   1.915
38810W        W 7140  34.981  11.859  13.320
38811W        W 7141  15.747   0.339  14.024
38812W        W 7142  21.097   9.759   5.720
38813W        W 7143  40.542   3.938  12.351
38814W        W 7144  19.702  37.510   3.267
38815W        W 7145  18.686  44.318  14.364
38816W        W 7146  44.918  17.695   0.829
38817W        W 7147   7.679  27.139   0.417
38818W        W 7148   0.282  17.777  11.934
38819W        W 7149  39.534   1.476   3.827
38820W        W 7150   0.812  43.804   4.803
38821W        W 7151  41.943  44.866  11.607
38822W        W 7152  34.098   3.820   0.904
38823W        W 7153   7.895   3.348   0.796
38824W        W 7154  32.058  43.010  13.440
38825W        W 7155  21.196  31.102   0.815
38826W        W 7156  10.829  18.121  13.852
38827W        W 7157  31.131   7.220   0.870
38828W        W 7158   1.256   8.708   1.443
38829W        W 7159  17.683  35.499  10.638
38830W        W 7160  17.226  42.405   0.768
38831W        W 7161  18.073  22.206   3.153
38832W        W 7162  26.054  26.510  11.550
38833W        W 7163  31.475  37.505  10.542
38834W        W 7164  21.676  37.469  13.980
38835W        W 7165  32.536   6.844   4.237
38836W        W 7166  19.720  18.664   4.693
38837W        W 7167  40.452  33.076   2.355
38838W        W 7168   0.484  10.862  13.354
38839W        W 7169  26.491  11.753   1.326
38840W        W 7170   2.239  36.963  11.553
38841W        W 7171  21.191   1.287  13.920
38842W        W 7172  14.266   2.849   0.857
38843W        W 7173  29.481   3.266  13.009
38844W        W 7174  24.109   8.160   0.455
38845W        W 7175  34.569  43.980   1.874
38846W        W 7176  37.893   2.786  11.446
38847W        W 7177  16.138  42.412   1.351
38848W        W 7178  15.248  24.682   3.261
38849W        W 7179  29.125   6.868  11.902
38850W        W 7180  15.690  35.597  10.613
38851W        W 7181   2.337  43.860   2.338
38852W        W 7182  20.649  36.519   2.365
38853W        W 7183   9.233   6.421  10.160
38854W        W 7184  30.591  33.559  11.465
38855W        W 7185  42.443   3.901   2.699
38856W        W 7186  41.520  31.430   0.759
38857W        W 7187   4.358  14.620  13.498
38858W        W 7188  39.998   0.351   2.692
38859W        W 7189  36.852  39.539  14.965
38860W        W 7190  31.949  41.789  10.460
38861W        W 7191  16.752  42.963   3.239
38862W        W 7192  15.110  39.497  13.815
38863W        W 7193  16.569  31.089   1.703
38864W        W 7194  15.277   7.252   1.345
38865W        W 7195   0.753   2.252  11.419
38866W        W 7196  35.433   1.816   1.383
38867W        W 7197  31.016   9.879  14.947
38868W        W 7198  33.403  31.039   2.744
38869W        W 7199  20.192  40.966   1.412
38870W        W 7200  22.021  20.123   0.443
38871W        W 7201  24.513  34.085   0.276
38872W        W 7202  13.653  17.599   1.864
38873W        W 7203  28.447  35.981  13.498
38874W        W 7204   7.754  17.635  13.531
38875W        W 7205  26.145  11.654  10.091
38876W        W 7206  14.742  14.226   1.273
38877W        W 7207   4.345  23.644  13.521
38878W        W 7208  12.840  19.566  11.374
38879W        W 7209   1.322   0.423  11.088
38880W        W 7210  17.685   0.952  12.905
38881W        W 7211  38.917   3.895  12.985
38882W        W 7212  12.669  39.314  11.081
38883W        W 7213   0.406  18.636   3.644
38884W        W 7214  37.063  36.461  13.835
38885W        W 7215   2.916  28.575  13.966
38886W        W 7216  44.351   5.381  11.554
38887W        W 7217   1.870  31.436   0.313
38888W        W 7218  25.187   2.850  11.876
38889W        W 7219  40.422  34.020  10.512
38890W        W 7220   6.701   1.867   2.215
38891W        W 7221  29.080  26.622  13.337
38892W        W 7222  25.654  34.524   1.357
38893W        W 7223  31.560  22.636   2.857
38894W        W 7224  42.909  14.698  12.544
38895W        W 7225   3.376  25.709  11.518
38896W        W 7226  14.789   5.357  11.904
38897W        W 7227  36.001  17.613   3.282
38898W        W 7228  17.247  19.122  11.599
38899W        W 7229  24.632  31.551  13.997
38900W        W 7230  13.683  30.076  13.524
38901W        W 7231  16.204   2.815  12.998
38902W        W 7232  14.670  31.492   4.182
38903W        W 7233  17.236  24.542  13.449
38904W        W 7234  16.768   8.851   3.303
38905W        W 7235  35.449   3.453   0.904
38906W        W 7236   0.857   7.716  12.964
38907W        W 7237  28.628  18.064   4.654
38908W        W 7238  41.518  39.372  14.434
38909W        W 7239  37.475  39.416   4.333
38910W        W 7240  23.083  35.911   4.198
38911W        W 7241  28.660  12.288  13.480
38912W        W 7242   4.704   4.358  10.415
38913W        W 7243  35.404   8.368  14.499
38914W        W 7244  42.331  23.665  11.542
38915W        W 7245  21.164  42.304  13.056
38916W        W 7246   4.764  44.432   9.996
38917W        W 7247   9.162  25.029  12.371
38918W        W 7248   3.333  41.463   3.170
38919W        W 7249  35.862  22.156  12.377
38920W        W 7250  27.471  29.519  10.636
38921W        W 7251  22.023   1.904  10.610
38922W        W 7252  18.664  23.707  12.094
38923W        W 7253  34.029   5.724   3.205
38924W        W 7254   2.246   0.786  13.992
38925W        W 7255  30.086  13.117   3.826
38926W        W 7256  29.423  23.656   0.245
38927W        W 7257   0.467  38.039  10.505
38928W        W 7258  10.694   9.154   2.689
38929W        W 7259  28.010   6.349   3.224
38930W        W 7260  43.786   3.334   4.749
38931W        W 7261  33.091  39.413   0.377
38932W        W 7262  18.237  13.125  12.372
38933W        W 7263  24.137  24.180   1.837
38934W        W 7264  39.994  42.922   2.676
38935W        W 7265  36.881   2.354  13.475
38936W        W 7266  23.644  30.577  14.814
38937W        W 7267  42.360   0.766  14.781
38938W        W 7268  17.241  21.216   5.161
38939W        W 7269  34.966  35.441  12.353
38940W        W 7270  43.848   6.704  13.382
38941W        W 7271   1.902  12.854  12.574
38942W        W 7272  40.882  40.930   2.323
38943W        W 7273  36.380  28.106  12.432
38944W        W 7274   1.773   4.785   0.416
38945W        W 7275  20.686   9.278  10.965
38946W        W 7276  44.402  19.249   4.312
38947W        W 7277  41.349  24.626  13.048
38948W        W 7278  24.672   0.323   1.745
38949W        W 7279  36.393  25.123   1.348
38950W        W 7280  19.274  22.601  10.412
38951W        W 7281  14.118  32.473   3.255
38952W        W 7282  21.203  29.925   0.947
38953W        W 7283   6.383  34.469   2.875
38954W        W 7284  34.001   2.904   1.360
38955W        W 7285  38.552  18.073  13.446
38956W        W 7286  25.595   5.313  13.986
38957W        W 7287  41.505  41.383  12.448
38958W        W 7288  38.569  10.759   4.349
38959W        W 7289  30.609  43.398  10.961
38960W        W 7290  23.171  29.991  13.502
38961W        W 7291  22.030  38.856  12.456
38962W        W 7292  43.318  43.939  12.907
38963W        W 7293   4.325  12.183   1.923
38964W        W 7294  25.637  40.946   0.889
38965W        W 7295  13.630  34.430  14.371
38966W        W 7296  33.612   5.760  13.018
38967W        W 7297  34.078  22.711  11.528
38968W        W 7298  42.308  42.012  11.477
38969W        W 7299   8.206   3.900  14.401
38970W        W 7300  39.860  19.744   4.173
38971W        W 7301  17.800  13.765   4.337
38972W        W 7302  32.445  11.711   3.179
38973W        W 7303   1.358  25.148   4.678
38974W        W 7304  19.172  17.599  11.068
38975W        W 7305  27.652  27.150   2.187
38976W        W 7306  30.931  12.763  13.437
38977W        W 7307  23.546   5.418  14.484
38978W        W 7308  38.014  30.162   4.257
38979W        W 7309   1.246  36.421  11.934
38980W        W 7310  12.344  32.073   4.778
38981W        W 7311  34.541  18.626   4.730
38982W        W 7312  43.904  27.498   2.888
38983W        W 7313  16.572  42.803   1.315
38984W        W 7314  44.931  17.068  14.943
38985W        W 7315  44.343   9.849  13.818
38986W        W 7316  10.837   5.356  14.327
38987W        W 7317  22.706  12.756  14.771
38988W        W 7318   2.283   6.743   0.251
38989W        W 7319  13.112  12.358  12.934
38990W        W 7320  43.345  36.858   0.466
38991W        W 7321  39.483  30.091   2.206
38992W        W 7322  42.450  36.588  14.980
38993W        W 7323   7.844  13.736   4.687
38994W        W 7324  15.768  36.575   5.121
38995W        W 7325  18.710  33.049  11.083
38996W        W 7326  31.063  41.529   3.257
38997W        W 7327  27.020  12.233   1.852
38998W        W 7328  44.767  43.840  12.554
38999W        W 7329  35.942  11.355  12.025
39000W        W 7330  43.270  33.558   0.929
39001W        W 7331   5.391  21.674  14.333
39002W        W 7332   2.749   0.817   4.130
39003W        W 7333   9.231  37.572   1.348
39004W        W 7334   1.445  13.836   2.840
39005W        W 7335  24.483  25.593   4.197
39006W        W 7336  16.292  25.628   3.370
39007W        W 7337   1.744  12.217   2.861
39008W        W 7338  25.510   2.314  10.501
39009W        W 7339  34.018  16.172  12.931
39010W        W 7340   3.909   9.664  13.808
39011W        W 7341  36.484   4.769   2.279
39012W        W 7342  40.917  40.867   0.351
39013W        W 7343  17.797   8.299   0.851
39014W        W 7344   3.410  35.085   0.955
39015W        W 7345  17.753   3.335  10.473
39016W        W 7346  21.715   7.343   5.192
39017W        W 7347  39.814  30.096   1.255
39018W        W 7348  30.613  14.790  11.490
39019W        W 7349  44.871  18.574  11.463
39020W        W 7350   8.765   6.256  14.835
39021W        W 7351   5.289   2.911  11.077
39022W        W 7352  39.554  17.762   4.138
39023W        W 7353  24.111  39.325  10.931
39024W        W 7354  10.282  41.505  11.081
39025W        W 7355  10.838  17.791  14.512
39026W        W 7356  23.046   7.802   1.450
39027W        W 7357  42.331   8.713  13.497
39028W        W 7358  18.676   4.300   2.226
39029W        W 7359  10.787   7.818  11.933
39030W        W 7360  10.786  32.904  12.985
39031W        W 7361  21.695   7.194  12.879
39032W        W 7362   4.305  42.385   2.797
39033W        W 7363  42.369  25.165  10.907
39034W        W 7364  36.416  33.039   2.727
39035W        W 7365  29.499  26.052  12.910
39036W        W 7366  31.038  35.948   3.871
39037W        W 7367  12.332  19.210  11.549
39038W        W 7368   1.307   8.225  14.511
39039W        W 7369  37.477   0.434  10.080
39040W        W 7370  11.260   3.224   0.438
39041W        W 7371  10.262  24.191  12.026
39042W        W 7372  11.645  41.437   3.193
39043W        W 7373  14.315  37.454   1.735
39044W        W 7374  41.432  43.450  11.424
39045W        W 7375   3.253  36.562   0.848
39046W        W 7376  40.999  31.898  10.584
39047W        W 7377   0.369   1.912   3.320
39048W        W 7378  17.678  26.606  10.943
39049W        W 7379  18.583  38.041   1.728
39050W        W 7380  28.529  15.293   3.771
39051W        W 7381  23.175  36.501   1.333
39052W        W 7382   9.380  29.135   1.849
39053W        W 7383  19.207   4.898  10.418
39054W        W 7384  27.466  10.340   3.244
39055W        W 7385  34.897  27.575   3.203
39056W        W 7386  24.534  26.565   0.358
39057W        W 7387  34.450  35.007   0.470
39058W        W 7388  26.951  26.017   0.877
39059W        W 7389  20.618   2.307   1.362
39060W        W 7390  24.606   0.896   1.783
39061W        W 7391  29.172   0.374  11.466
39062W        W 7392   1.884  40.389   0.267
39063W        W 7393   1.419   1.339  11.402
39064W        W 7394   4.934  18.607  11.607
39065W        W 7395   3.712   6.299   4.121
39066W        W 7396   5.797  19.140   0.462
39067W        W 7397  39.504  29.067  10.471
39068W        W 7398  16.709  42.385  11.582
39069W        W 7399  39.435  36.553   4.745
39070W        W 7400  36.995   1.876   2.262
39071W        W 7401  17.280  25.640  10.611
39072W        W 7402  25.102  27.997  14.774
39073W        W 7403   3.864  42.373  10.551
39074W        W 7404  31.963  28.473  13.335
39075W        W 7405  33.093   2.964  14.458
39076W        W 7406  35.529  43.963  14.775
39077W        W 7407  30.427  37.027   2.901
39078W        W 7408  18.054  36.847   3.159
39079W        W 7409   5.203  13.606  11.439
39080W        W 7410  21.544  22.115  12.987
39081W        W 7411  25.188  21.091  13.412
39082W        W 7412  10.783  35.530   3.269
39083W        W 7413  20.740   8.400  12.050
39084W        W 7414  16.570  38.998  11.579
39085W        W 7415  37.076  20.625   4.649
39086W        W 7416  40.441  32.552   4.627
39087W        W 7417  41.025   0.350  12.420
39088W        W 7418  15.118  28.027  13.415
39089W        W 7419   1.856  21.115   3.244
39090W        W 7420  38.037  30.587  10.630
39091W        W 7421   6.686  11.272  14.010
39092W        W 7422  37.480   9.803  11.553
39093W        W 7423  21.196  17.629   2.739
39094W        W 7424  12.317   3.264   2.806
39095W        W 7425  29.552  13.654  10.918
39096W        W 7426   8.335   0.404   0.866
39097W        W 7427  20.100  17.257  11.461
39098W        W 7428  37.428   2.808   4.269
39099W        W 7429   7.240  30.152   2.769
39100W        W 7430   4.923  36.875  10.579
39101W        W 7431  15.653  40.475   1.283
39102W        W 7432   1.458  15.734   2.333
39103W        W 7433  16.242   3.427   5.194
39104W        W 7434  11.325  41.377   0.287
39105W        W 7435  32.968  31.586   4.776
39106W        W 7436  10.850  23.148  12.004
39107W        W 7437  20.653  17.237   5.104
39108W        W 7438   2.896  29.067  14.333
39109W        W 7439  30.079  24.527  10.582
39110W        W 7440  16.722  44.362   2.367
39111W        W 7441  44.868   0.847   4.707
39112W        W 7442  31.459  39.851   1.444
39113W        W 7443  31.146  16.268   2.662
39114W        W 7444   8.218  35.950   1.307
39115W        W 7445  40.882  29.450  14.780
39116W        W 7446  22.048  31.027   2.373
39117W        W 7447  15.781  14.711   2.869
39118W        W 7448  27.070   7.775   1.317
39119W        W 7449  23.518  29.002   1.881
39120W        W 7450  27.024   3.295  13.039
39121W        W 7451  20.557  40.508  12.851
39122W        W 7452   7.776  28.666  13.058
39123W        W 7453  27.046  21.074   2.733
39124W        W 7454   8.877  15.150  11.043
39125W        W 7455  31.068  30.563   0.802
39126W        W 7456  12.794   2.918   2.899
39127W        W 7457   6.840  37.898   4.178
39128W        W 7458  19.625  16.667   0.256
39129W        W 7459  37.398  37.368   1.771
39130W        W 7460  32.127   6.268  14.365
39131W        W 7461  36.477  35.552  10.456
39132W        W 7462   3.941  19.200  12.934
39133W        W 7463  34.949  25.650  10.597
39134W        W 7464  22.547  30.138   2.841
39135W        W 7465  28.119  22.556  14.332
39136W        W 7466  36.051  10.742   1.785
39137W        W 7467   1.919   6.286  14.449
39138W        W 7468  38.548  22.569  14.839
39139W        W 7469  20.655  28.577  13.352
39140W        W 7470  10.264  25.665  13.974
39141W        W 7471  23.596  36.860   2.358
39142W        W 7472  18.143  26.667   4.685
39143W        W 7473  40.860  43.851   2.852
39144W        W 7474  31.939  10.861   0.276
39145W        W 7475  19.654   8.261   5.191
39146W        W 7476  32.511  17.706   3.169
39147W        W 7477  43.295  44.849   1.341
39148W        W 7478  14.320  31.134   0.889
39149W        W 7479  34.543  24.043  14.894
39150W        W 7480  26.646   8.391  12.094
39151W        W 7481   2.435   5.840   2.273
39152W        W 7482   0.252  35.530  13.467
39153W        W 7483  27.958   4.400   3.845
39154W        W 7484  26.660  41.505   3.724
39155W        W 7485  16.665  41.951  13.944
39156W        W 7486  40.862  43.014  13.523
39157W        W 7487  38.349  15.126   1.223
39158W        W 7488  40.452  25.993   2.326
39159W        W 7489  29.080  14.288   4.784
39160W        W 7490  39.959   7.265  11.537
39161W        W 7491  17.788  10.175  12.919
39162W        W 7492  40.875  38.022   4.218
39163W        W 7493  22.182  23.033   2.808
39164W        W 7494  24.633  34.608  12.546
39165W        W 7495  33.878  12.659  13.814
39166W        W 7496  38.482  21.159   4.731
39167W        W 7497  42.294  40.424  11.064
39168W        W 7498  24.186   8.692  13.015
39169W        W 7499  42.372  26.637  13.947
39170W        W 7500  20.616  38.513  14.025
39171W        W 7501  17.565   6.408   1.877
39172W        W 7502  18.706  37.019   0.410
39173W        W 7503  30.594  25.688  12.576
39174W        W 7504  42.362  23.115  13.892
39175W        W 7505   6.374  20.100  14.839
39176W        W 7506  35.380  10.203   2.203
39177W        W 7507   6.369   2.862  14.831
39178W        W 7508   1.371  29.582   0.942
39179W        W 7509  33.993  33.054  14.886
39180W        W 7510   9.169  16.726  11.507
39181W        W 7511   4.745  39.975  11.087
39182W        W 7512  11.310  25.112  11.125
39183W        W 7513  42.883  13.149   2.834
39184W        W 7514   8.877  14.608  10.988
39185W        W 7515  11.808   1.307  10.998
39186W        W 7516  18.208   7.780  14.334
39187W        W 7517  44.495   9.277   4.774
39188W        W 7518   0.926  15.098  14.483
39189W        W 7519  17.702  10.862  14.369
39190W        W 7520  27.683  24.623   1.443
39191W        W 7521   3.318  44.341   0.839
39192W        W 7522  24.986  28.957  10.587
39193W        W 7523  28.022  32.600   1.871
39194W        W 7524   1.411  19.092   3.195
39195W        W 7525  42.436  22.211   2.773
39196W        W 7526  17.128  11.769  11.070
39197W        W 7527   2.445  31.911   5.156
39198W        W 7528  12.161  33.432   4.162
39199W        W 7529  38.515  19.039   2.871
39200W        W 7530   3.899   0.479   4.344
39201W        W 7531  27.112   9.663   4.229
39202W        W 7532  27.022  22.532  13.838
39203W        W 7533  38.920  29.109  11.116
39204W        W 7534  14.662  24.076  14.812
39205W        W 7535   5.878  14.828   0.337
39206W        W 7536  39.852  28.185  10.468
39207W        W 7537  25.605  27.474   4.707
39208W        W 7538  32.058  30.548  14.029
39209W        W 7539  25.542   4.734  11.117
39210W        W 7540  16.232  25.574   5.123
39211W        W 7541  42.976  41.475   4.282
39212W        W 7542  27.451  36.083  14.870
39213W        W 7543  22.515  27.081  13.464
39214W        W 7544  36.425  11.641  14.455
39215W        W 7545   1.958  38.834  11.922
39216W        W 7546   2.760  35.382   1.347
39217W        W 7547  30.485  37.995   4.348
39218W        W 7548   4.357  31.945   0.851
39219W        W 7549   5.392   8.362   1.358
39220W        W 7550  20.573  21.730   3.771
39221W        W 7551  43.373  36.842   4.672
39222W        W 7552  12.135   9.242  12.463
39223W        W 7553  19.187   9.701   2.772
39224W        W 7554  21.606  21.633  11.076
39225W        W 7555   7.385  27.161   2.677
39226W        W 7556  30.122  15.225   0.470
39227W        W 7557   3.261  35.488  12.914
39228W        W 7558   5.880  15.694   3.234
39229W        W 7559   1.818   4.304  13.361
39230W        W 7560  25.159   0.839  12.422
39231W        W 7561  27.626  28.124  12.911
39232W        W 7562  30.656  44.315  10.559
39233W        W 7563   3.456  36.387  10.909
39234W        W 7564  28.050  38.859   0.780
39235W        W 7565  16.105  42.335  14.426
39236W        W 7566   9.745  38.842  12.914
39237W        W 7567  11.187  15.221  11.964
39238W        W 7568  17.766   2.912   0.817
39239W        W 7569  31.925  41.486   4.202
39240W        W 7570  27.562  30.447  11.558
39241W        W 7571  18.128  13.349   4.661
39242W        W 7572  35.392  27.180  13.061
39243W        W 7573   4.250   6.272  12.485
39244W        W 7574  31.916  33.411  12.573
39245W        W 7575  16.658  35.556  11.968
39246W        W 7576  31.481  38.911  14.920
39247W        W 7577  12.279  36.066  11.100
39248W        W 7578  21.539   6.759  10.609
39249W        W 7579  34.111  12.192   4.705
39250W        W 7580  15.618   5.727   1.902
39251W        W 7581  11.671  32.929  12.579
39252W        W 7582  22.144   5.770   1.914
39253W        W 7583  31.137   4.268  10.903
39254W        W 7584   3.907   1.354   0.817
39255W        W 7585  32.118  28.092   3.157
39256W        W 7586  30.525   5.839  14.950
39257W        W 7587   4.215   7.767   0.847
39258W        W 7588  24.718   5.279  11.513
39259W        W 7589  18.052  20.115   1.302
39260W        W 7590  11.756   9.278  13.947
39261W        W 7591  22.666  20.254  12.933
39262W        W 7592  33.419   0.899   4.318
39263W        W 7593  21.197   7.728   0.739
39264W        W 7594  33.969  21.074   3.808
39265W        W 7595  21.598  13.348   4.789
39266W        W 7596  34.571   4.220   2.383
39267W        W 7597  35.491  16.611  12.944
39268W        W 7598  15.597  27.100   2.754
39269W        W 7599  15.790  33.455   3.382
39270W        W 7600  19.147  22.607   3.756
39271W        W 7601  17.680  29.939   0.877
39272W        W 7602  40.808  39.513   3.759
39273W        W 7603  31.605   3.447   5.137
39274W        W 7604  27.573   7.314   1.304
39275W        W 7605   0.802   0.793   0.392
39276W        W 7606   4.264  29.103   0.475
39277W        W 7607  23.619  20.755  14.306
39278W        W 7608  23.101  14.170  12.896
39279W        W 7609   5.307  30.449  12.854
39280W        W 7610  42.917  21.115  12.515
39281W        W 7611  44.820  43.896   3.697
39282W        W 7612  25.065   4.890  11.059
39283W        W 7613   3.921  13.613  13.009
39284W        W 7614   7.272  12.640  10.513
39285W        W 7615  40.517   9.760  12.575
39286W        W 7616  36.460  40.393   3.167
39287W        W 7617  31.619  17.658   1.265
39288W        W 7618  24.671  10.779   5.193
39289W        W 7619   4.807  30.943  14.803
39290W        W 7620  27.560  43.928  12.088
39291W        W 7621  35.092   2.455  12.869
39292W        W 7622  44.479  32.082  10.553
39293W        W 7623  41.401  44.971  11.398
39294W        W 7624  42.492  41.950  13.319
39295W        W 7625  31.976  26.599  10.020
39296W        W 7626  38.364  22.114   2.270
39297W        W 7627  44.384  13.669  12.888
39298W        W 7628  28.663  29.462  11.585
39299W        W 7629  34.605  24.531   3.665
39300W        W 7630  23.699  16.775   2.756
39301W        W 7631  33.556   1.777  11.993
39302W        W 7632  44.300  20.687   1.357
39303W        W 7633  32.896  10.796   3.225
39304W        W 7634  36.868   0.315  10.458
39305W        W 7635  41.894  24.033  12.401
39306W        W 7636  15.737  18.661   4.333
39307W        W 7637  39.527  17.147   3.826
39308W        W 7638   4.712  41.517   3.359
39309W        W 7639  18.241  21.540  11.455
39310W        W 7640  37.545   6.263  14.443
39311W        W 7641  39.031   7.324   1.355
39312W        W 7642   6.692  19.593  11.082
39313W        W 7643  19.257  15.196  11.935
39314W        W 7644   7.876   0.851   1.908
39315W        W 7645   2.743  32.950   0.788
39316W        W 7646  26.046  35.419   1.877
39317W        W 7647  19.545  14.338   3.225
39318W        W 7648   1.363  35.979  13.503
39319W        W 7649  29.952   4.377   2.744
39320W        W 7650  11.651   6.913   3.785
39321W        W 7651  44.860   7.762   1.903
39322W        W 7652  10.227  11.195   4.310
39323W        W 7653  30.495  28.987  13.846
39324W        W 7654  10.383  24.188   3.701
39325W        W 7655  32.890  31.491  11.597
39326W        W 7656  17.672  38.838  12.401
39327W        W 7657  34.440  13.174   3.362
39328W        W 7658  16.149  20.737  12.008
39329W        W 7659  15.641  16.604  11.425
39330W        W 7660   2.723   6.237   0.830
39331W        W 7661  30.466   6.286  13.012
39332W        W 7662  32.493   9.274  13.815
39333W        W 7663   7.351  44.901   2.848
39334W        W 7664  44.860  10.785   3.210
39335W        W 7665  42.896   2.948  13.037
39336W        W 7666  23.146   9.176   3.693
39337W        W 7667  32.083  44.270  13.000
39338W        W 7668  16.793  10.313  13.344
39339W        W 7669  10.293  26.658   0.465
39340W        W 7670  38.965  10.809  10.488
39341W        W 7671  16.249  28.136  13.963
39342W        W 7672  38.452  23.720   2.819
39343W        W 7673  39.822  38.952   2.329
39344W        W 7674  15.598   4.374   1.227
39345W        W 7675  19.177  39.428  12.863
39346W        W 7676  31.433  24.106  11.017
39347W        W 7677  12.787   4.309   3.161
39348W        W 7678  23.195  33.571  12.996
39349W        W 7679  24.074  32.560  14.911
39350W        W 7680  36.580  37.481  10.060
39351W        W 7681  37.833  19.685  12.931
39352W        W 7682   4.324  36.467   4.288
39353W        W 7683  28.062  27.054  11.958
39354W        W 7684   9.197  12.150   2.815
39355W        W 7685  12.734   7.907   3.699
39356W        W 7686  13.795  35.866  14.798
39357W        W 7687  21.645  10.663   1.399
39358W        W 7688  23.113   9.776   3.662
39359W        W 7689  26.072   4.388  14.355
39360W        W 7690  39.335   3.389  14.412
39361W        W 7691  30.031  16.137   3.298
39362W        W 7692  14.237   3.419   1.822
39363W        W 7693  40.527  38.366   0.313
39364W        W 7694   4.294  26.964   3.330
39365W        W 7695  11.154   2.809  12.393
39366W        W 7696  13.656  26.569  14.300
39367W        W 7697   7.782  21.581   4.199
39368W        W 7698  40.384  14.620  11.929
39369W        W 7699  17.791  39.394   2.280
39370W        W 7700  44.987  18.074  13.048
39371W        W 7701  35.862  41.910  12.427
39372W        W 7702  41.937  27.040  14.851
39373W        W 7703   4.872   5.382   4.175
39374W        W 7704   4.750   0.768  10.565
39375W        W 7705  44.947  24.492  14.916
39376W        W 7706  17.557  16.800  13.523
39377W        W 7707  19.695  27.485  13.467
39378W        W 7708  38.839  16.773   2.807
39379W        W 7709  35.070   6.254  10.949
39380W        W 7710  26.538  28.579  11.596
39381W        W 7711  44.867  38.062   2.871
39382W        W 7712  31.410  39.961   3.204
39383W        W 7713  31.139  23.197  12.081
39384W        W 7714  30.535  11.228   2.224
39385W        W 7715   8.732  32.526  11.527
39386W        W 7716  16.714  42.427  13.376
39387W        W 7717  11.718  35.869  12.045
39388W        W 7718   9.835  20.526  14.433
39389W        W 7719  29.460  19.587  14.308
39390W        W 7720  12.703  27.473   2.794
39391W        W 7721  29.583   6.252  11.873
39392W        W 7722   4.750   6.891   5.228
39393W        W 7723  27.092   6.710   3.638
39394W        W 7724  26.960  30.910  10.553
39395W        W 7725  12.689  19.615  14.973
39396W        W 7726  11.659  36.946   2.284
39397W        W 7727   4.879  25.990  11.922
39398W        W 7728  10.211   0.488  12.882
39399W        W 7729  44.266  29.042   4.134
39400W        W 7730  33.039  39.326  10.608
39401W        W 7731  33.016   0.330  13.501
39402W        W 7732  28.438   5.332   2.892
39403W        W 7733   6.684  36.370  11.468
39404W        W 7734  17.136  27.095  13.804
39405W        W 7735  15.294  12.651   1.373
39406W        W 7736  35.973   6.757   3.640
39407W        W 7737  38.961   5.229  13.428
39408W        W 7738  16.738  37.510   1.306
39409W        W 7739  35.493  44.868  14.966
39410W        W 7740  21.517  39.334   1.279
39411W        W 7741   3.257  13.660   0.344
39412W        W 7742  38.063  35.109   0.959
39413W        W 7743  35.436  20.690  11.410
39414W        W 7744  15.113   1.449   2.206
39415W        W 7745  13.296  26.478  11.977
39416W        W 7746  39.433  30.468   4.822
39417W        W 7747   3.804   2.421   3.683
39418W        W 7748  35.373   4.268  12.006
39419W        W 7749  39.897   0.882   0.393
39420W        W 7750  24.070  40.450   1.448
39421W        W 7751  21.684  27.649  10.003
39422W        W 7752  43.356  33.550  10.604
39423W        W 7753   5.356  13.179  10.595
39424W        W 7754  12.779  27.663   1.295
39425W        W 7755  11.779  12.852   3.171
39426W        W 7756  26.591  37.936  10.462
39427W        W 7757  15.679  10.329  11.425
39428W        W 7758  36.072  44.267   2.311
39429W        W 7759  40.443  42.802   3.720
39430W        W 7760  36.352  32.015   1.416
39431W        W 7761   1.418   3.939   4.737
39432W        W 7762  41.365  28.084  12.909
39433W        W 7763  26.579   4.857  13.466
39434W        W 7764  23.533  34.039   2.855
39435W        W 7765  43.361  13.266   4.275
39436W        W 7766  11.816  25.965   2.307
39437W        W 7767  15.651   2.782   0.866
39438W        W 7768  33.552  28.447   1.895
39439W        W 7769  35.370   3.767  12.853
39440W        W 7770  14.678  37.526  11.514
39441W        W 7771  29.973  16.578   0.442
39442W        W 7772   0.319  37.901  14.832
39443W        W 7773  14.310   2.768  14.372
39444W        W 7774  39.893  41.957  11.909
39445W        W 7775  21.227  10.657   0.807
39446W        W 7776   0.911   7.250   0.307
39447W        W 7777  29.123  40.003   1.212
39448W        W 7778  15.095  21.261  13.398
39449W        W 7779  23.530   8.352   0.310
39450W        W 7780  13.178  34.979  14.892
39451W        W 7781  25.521   2.239  11.577
39452W        W 7782  16.235   0.772   3.362
39453W        W 7783  32.902  22.243  13.868
39454W        W 7784  38.012  10.295  11.880
39455W        W 7785  40.857  31.502  11.608
39456W        W 7786  12.741  30.594   3.152
39457W        W 7787  26.088  15.183   0.857
39458W        W 7788  38.431  28.522  14.281
39459W        W 7789   4.227   3.865   3.202
39460W        W 7790   6.798   8.281  14.011
39461W        W 7791  16.779  14.108  10.609
39462W        W 7792  19.626  23.657  11.496
39463W        W 7793   1.281  11.624   3.765
39464W        W 7794  44.395  38.462  11.530
39465W        W 7795  30.515  44.339   1.343
39466W        W 7796  10.671  40.331  11.119
39467W        W 7797   9.884  44.465   0.480
39468W        W 7798  43.914  13.840  11.895
39469W        W 7799  12.360  41.393   3.357
39470W        W 7800   1.366   0.982   0.357
39471W        W 7801  37.446  15.133  13.866
39472W        W 7802   6.262  41.467   3.192
39473W        W 7803  21.586  23.493  13.994
39474W        W 7804  31.092  26.005   3.372
39475W        W 7805  31.603  11.361  13.534
39476W        W 7806   4.906  21.737  10.635
39477W        W 7807   2.248   9.204   3.152
39478W        W 7808  40.901  37.869   4.762
39479W        W 7809  41.347  23.525   4.792
39480W        W 7810  13.113  34.378   1.763
39481W        W 7811  21.745  39.471   3.345
39482W        W 7812  17.709  23.630   4.135
39483W        W 7813  18.203  10.215   2.696
39484W        W 7814  13.619  17.719  14.347
39485W        W 7815  15.298   0.742  11.888
39486W        W 7816  18.562  25.521  13.916
39487W        W 7817   7.910  24.084   4.288
39488W        W 7818  41.367  37.542   5.296
39489W        W 7819   1.974  17.753  10.503
39490W        W 7820  15.603  20.524  10.451
39491W        W 7821  37.367  15.734   2.183
39492W        W 7822  19.571  33.915  11.990
39493W        W 7823  13.745  43.021  14.805
39494W        W 7824  10.739   2.730  13.921
39495W        W 7825  25.198   3.216  10.639
39496W        W 7826  26.005  42.882  14.030
39497W        W 7827  19.132  10.374   2.399
39498W        W 7828  19.629   8.331  11.481
39499W        W 7829  43.870  16.621   1.277
39500W        W 7830  41.948  25.168   4.216
39501W        W 7831  21.221  12.302   3.148
39502W        W 7832  40.531  31.069   1.344
39503W        W 7833  14.801  30.522   1.322
39504W        W 7834  35.365  12.265   2.365
39505W        W 7835  27.068  37.945   0.277
39506W        W 7836  17.671  29.958   1.695
39507W        W 7837  23.661  34.886   4.670
39508W        W 7838  30.086  19.171   1.794
39509W        W 7839  44.400  29.042   1.745
39510W        W 7840  12.848  11.665   5.281
39511W        W 7841  12.336  24.504   2.728
39512W        W 7842  30.974  30.125   3.769
39513W        W 7843  41.412  31.553   4.267
39514W        W 7844  33.465  28.029   3.284
39515W        W 7845  24.062  35.060   4.705
39516W        W 7846   6.209  38.563  12.046
39517W        W 7847  36.985   5.217   1.370
39518W        W 7848  25.994  32.966   2.723
39519W        W 7849  42.808   5.414   3.220
39520W        W 7850   7.211  35.102   4.790
39521W        W 7851  15.735   2.946  14.943
39522W        W 7852  41.513  11.303   1.291
39523W        W 7853  44.949  17.197  13.405
39524W        W 7854  28.568   4.419   3.639
39525W        W 7855  23.188   9.243   3.210
39526W        W 7856  36.363  24.061  14.868
39527W        W 7857  20.744  20.567   0.780
39528W        W 7858  42.289  41.485  11.921
39529W        W 7859  12.181  35.909  12.562
39530W        W 7860   0.293  33.416  13.525
39531W        W 7861  40.426   7.840   4.783
39532W        W 7862  41.786  25.019  13.044
39533W        W 7863  27.961   1.811   2.794
39534W        W 7864  11.847  27.564   4.245
39535W        W 7865   9.811  17.698  14.888
39536W        W 7866  33.438  14.144  10.586
39537W        W 7867  42.312  37.956  11.609
39538W        W 7868   4.728  20.751  11.066
39539W        W 7869  10.208  35.516  14.414
39540W        W 7870   8.693  25.521   3.348
39541W        W 7871  41.903  20.221  13.510
39542W        W 7872  40.803   9.295   2.701
39543W        W 7873   7.364  34.868  14.910
39544W        W 7874   9.248  18.761   4.141
39545W        W 7875   3.390   5.881   0.915
39546W        W 7876  22.188  42.324   1.880
39547W        W 7877   5.217  38.547   5.172
39548W        W 7878  23.698  32.581  11.457
39549W        W 7879  41.517   5.700  11.939
39550W        W 7880  25.528  18.621  12.483
39551W        W 7881  36.455  17.656  11.455
39552W        W 7882  27.188  20.095   1.830
39553W        W 7883  22.643  30.064   0.907
39554W        W 7884  37.567  22.110   2.885
39555W        W 7885  41.525  37.462   4.786
39556W        W 7886  10.820  44.818   1.852
39557W        W 7887   4.292   4.869  13.428
39558W        W 7888  34.879  18.554  11.404
39559W        W 7889  21.056  15.617  10.520
39560W        W 7890  27.010  18.663  14.984
39561W        W 7891  14.331  24.183  11.902
39562W        W 7892   5.820  30.622   3.229
39563W        W 7893  12.713  17.218   0.925
39564W        W 7894  28.571  41.455   3.291
39565W        W 7895  23.518  27.614   2.667
39566W        W 7896  36.913  12.164  12.920
39567W        W 7897  19.138  34.892  11.936
39568W        W 7898  40.916  21.717  10.566
39569W        W 7899   3.790   2.942  13.037
39570W        W 7900  33.895  26.538   0.918
39571W        W 7901  41.962   4.269   2.380
39572W        W 7902  28.482  23.511   4.199
39573W        W 7903  29.112  31.911  12.431
39574W        W 7904  11.141  33.124  11.528
39575W        W 7905   5.383  15.642  12.892
39576W        W 7906  43.836  14.147  14.411
39577W        W 7907   9.880   4.763  12.988
39578W        W 7908  14.591  42.392  11.066
39579W        W 7909  22.216  31.021  10.893
39580W        W 7910  43.491  38.362   2.266
39581W        W 7911  34.938  43.883   4.219
39582W        W 7912  34.912  40.374   5.089
39583W        W 7913  18.564  20.165   0.297
39584W        W 7914  32.529  23.051  10.934
39585W        W 7915  11.242  39.418   1.744
39586W        W 7916  36.066  31.448  14.504
39587W        W 7917  14.734  38.068   2.405
39588W        W 7918  11.156  20.739   2.813
39589W        W 7919  40.993  16.249   1.738
39590W        W 7920  42.913  41.829  12.835
39591W        W 7921  38.359  12.647  12.506
39592W        W 7922   1.364  41.444  13.357
39593W        W 7923  10.287  26.131   2.838
39594W        W 7924  20.069  22.530  13.824
39595W        W 7925  24.103  15.246   3.806
39596W        W 7926  17.613  12.837  13.403
39597W        W 7927   7.800   8.742   3.759
39598W        W 7928  36.399   0.319   1.833
39599W        W 7929  14.255  41.970   1.238
39600W        W 7930  23.008   8.794  14.799
39601W        W 7931  33.534  34.116  13.464
39602W        W 7932  28.979  17.164   2.251
39603W        W 7933  29.657  44.761  13.326
39604W        W 7934  36.879  16.242   0.288
39605W        W 7935  22.678  42.002   2.398
39606W        W 7936  16.681  35.864  14.773
39607W        W 7937  42.925   0.800   3.664
39608W        W 7938  31.620  18.759   3.353
39609W        W 7939  12.653  16.117   3.379
39610W        W 7940  10.829  22.148  12.501
39611W        W 7941  39.545  27.105  12.068
39612W        W 7942   8.710  10.275   0.777
39613W        W 7943  30.043  29.058  10.577
39614W        W 7944  29.653   7.346   2.696
39615W        W 7945  33.105  22.515  10.611
39616W        W 7946  37.043  24.516   1.841
39617W        W 7947  19.591  27.943   2.902
39618W        W 7948   4.251  20.694   0.350
39619W        W 7949  28.527   4.348  14.813
39620W        W 7950   6.423  36.494  11.458
39621W        W 7951  21.559  23.574   5.162
39622W        W 7952   1.326  10.879  13.413
39623W        W 7953  32.486  10.694   4.648
39624W        W 7954   4.228  19.543  10.980
39625W        W 7955  23.193  27.997   2.895
39626W        W 7956  38.056  16.081  11.056
39627W        W 7957  36.978  21.147  11.001
39628W        W 7958   4.427  36.870  12.974
39629W        W 7959  31.119  17.091  12.345
39630W        W 7960  43.335  22.611  11.410
39631W        W 7961  35.956   3.397   2.238
39632W        W 7962  15.102   0.369   2.773
39633W        W 7963   9.274  28.086   5.185
39634W        W 7964  44.302  39.449   3.755
39635W        W 7965  25.691  24.624  12.543
39636W        W 7966  25.679   0.799   4.259
39637W        W 7967  34.461  33.425   3.373
39638W        W 7968  42.468  24.574  11.947
39639W        W 7969  12.741  28.980  14.010
39640W        W 7970  26.149  16.806   0.940
39641W        W 7971   4.296  15.252  11.011
39642W        W 7972   8.335  32.083  13.531
39643W        W 7973  27.012  19.205   3.176
39644W        W 7974   3.220  19.068  12.879
39645W        W 7975  29.020  22.162   4.243
39646W        W 7976  43.397  10.174  14.357
39647W        W 7977  23.595   5.339   3.679
39648W        W 7978   3.229  34.930  13.323
39649W        W 7979  28.996  34.974   4.625
39650W        W 7980   5.415  17.159   0.436
39651W        W 7981  16.211  10.267   2.702
39652W        W 7982   4.268  35.862   0.482
39653W        W 7983  14.232  21.671   1.833
39654W        W 7984  25.074  31.648   4.332
39655W        W 7985  41.521  38.902   1.386
39656W        W 7986  15.101  36.976  13.024
39657W        W 7987  43.273  41.404  10.452
39658W        W 7988  36.079   0.333   2.812
39659W        W 7989  13.612  40.407  14.433
39660W        W 7990  41.491  36.558   0.298
39661W        W 7991  29.140   0.271  13.379
39662W        W 7992  30.481  37.426  10.431
39663W        W 7993   8.868  18.231  10.974
39664W        W 7994  20.587   5.907  14.476
39665W        W 7995  43.460  28.080  13.024
39666W        W 7996  35.959  27.671   3.151
39667W        W 7997  18.186  27.970  10.489
39668W        W 7998   8.229  39.047   3.633
39669W        W 7999  41.810   1.919   4.661
39670W        W 8000   3.859  21.671  14.809
39671W        W 8001  37.060  18.069   1.844
39672W        W 8002  19.254  43.446   4.162
39673W        W 8003  38.903   7.868  10.644
39674W        W 8004  38.890  13.220  13.855
39675W        W 8005  10.747  32.116   4.144
39676W        W 8006  36.080  30.645  13.929
39677W        W 8007  16.710  15.139  11.560
39678W        W 8008   7.274   9.809   2.180
39679W        W 8009  39.459  27.542   3.702
39680W        W 8010   2.914  30.148  14.949
39681W        W 8011  42.371  11.854   4.352
39682W        W 8012  35.431  33.508   3.275
39683W        W 8013  27.001  30.933  10.960
39684W        W 8014  20.752  10.199  10.527
39685W        W 8015  24.099  43.016  12.854
39686W        W 8016   7.227  21.677  12.831
39687W        W 8017  44.330  34.453   0.785
39688W        W 8018  18.130   3.401  13.934
39689W        W 8019  12.219  10.644   2.217
39690W        W 8020  14.145   2.262   0.831
39691W        W 8021  43.364  19.602  13.863
39692W        W 8022  41.405  34.493  12.367
39693W        W 8023  39.910   1.927   1.359
39694W        W 8024   5.351  15.324  10.511
39695W        W 8025  43.303   2.816   0.249
39696W        W 8026  43.343  35.584   0.333
39697W        W 8027  43.891  40.349   3.224
39698W        W 8028   9.358   1.896   0.903
39699W        W 8029   0.848  25.201  12.999
39700W        W 8030  44.923  23.536   3.641
39701W        W 8031  13.236  14.665   2.390
39702W        W 8032   4.414  12.274   0.360
39703W        W 8033  29.604   9.872  12.986
39704W        W 8034  19.632  18.212   4.781
39705W        W 8035  25.661  27.547   2.330
39706W        W 8036  28.163  16.159  10.936
39707W        W 8037  33.023  14.270   5.303
39708W        W 8038  36.583  29.133  11.913
39709W        W 8039  21.056  30.143  12.369
39710W        W 8040  32.974  22.161  10.920
39711W        W 8041  13.341  15.785   4.662
39712W        W 8042  36.581  17.068  12.089
39713W        W 8043   9.300  16.720   4.134
39714W        W 8044   7.369  36.997   0.345
39715W        W 8045  20.642  19.596   5.759
39716W        W 8046  20.653  10.218   2.819
39717W        W 8047  24.580  28.657  11.450
39718W        W 8048  27.972  23.114   0.749
39719W        W 8049   2.260  23.188   4.353
39720W        W 8050  41.034  11.169  13.511
39721W        W 8051   0.791  23.641   9.944
39722W        W 8052  19.539  43.374  13.376
39723W        W 8053  24.078  19.609   2.368
39724W        W 8054  36.565   0.921   2.697
39725W        W 8055  28.648  15.664   0.899
39726W        W 8056  16.233  18.697  14.944
39727W        W 8057  42.413  37.085  14.919
39728W        W 8058   6.907  30.127   0.757
39729W        W 8059  29.587   0.380  13.445
39730W        W 8060  37.937   2.326  11.471
39731W        W 8061  44.408  12.229   2.205
39732W        W 8062   5.709  23.069  13.906
39733W        W 8063  31.448   1.739  12.394
39734W        W 8064   3.325   1.425  13.354
39735W        W 8065  40.825  33.975  10.964
39736W        W 8066  42.029  33.558  14.834
39737W        W 8067  35.103  30.950  14.440
39738W        W 8068   7.398   0.776  13.458
39739W        W 8069   1.394  26.475   4.143
39740W        W 8070  40.534  11.749   4.301
39741W        W 8071   5.706  23.160   0.280
39742W        W 8072  41.927  18.696  11.463
39743W        W 8073  31.575  12.662   2.251
39744W        W 8074  35.418  26.478   1.924
39745W        W 8075  44.367  37.481   0.898
39746W        W 8076  36.425  25.651  11.916
39747W        W 8077  25.541   4.851   4.261
39748W        W 8078  13.670   3.811   4.193
39749W        W 8079  13.697  18.579  10.412
39750W        W 8080  32.602  19.557  12.985
39751W        W 8081  18.056   7.783  12.964
39752W        W 8082  14.762   2.245   0.349
39753W        W 8083  28.635  28.001   3.841
39754W        W 8084  43.929   9.655   0.443
39755W        W 8085   0.956  32.432   4.302
39756W        W 8086   7.229  25.638   1.397
39757W        W 8087  35.455   8.199   0.823
39758W        W 8088  24.075  21.168  13.348
39759W        W 8089  36.850  15.649   4.781
39760W        W 8090  42.023  39.958   4.691
39761W        W 8091  32.940   3.235   3.633
39762W        W 8092  13.823  22.107   2.760
39763W        W 8093  37.041  26.982  12.423
39764W        W 8094  24.593  17.158   2.358
39765W        W 8095  15.306  33.383   1.727
39766W        W 8096   6.692  29.640   3.830
39767W        W 8097  24.054   3.360  14.494
39768W        W 8098  37.983  39.984   3.749
39769W        W 8099  17.228  42.308   4.704
39770W        W 8100  15.806   2.377   0.389
39771W        W 8101  43.006  29.076  10.015
39772W        W 8102  28.509  29.458  10.585
39773W        W 8103  19.216  17.558   5.747
39774W        W 8104   2.258  44.814  14.477
39775W        W 8105  38.416   2.952   1.879
39776W        W 8106   2.829   3.428   3.206
39777W        W 8107   1.824  40.413   3.343
39778W        W 8108  31.464  42.952   3.182
39779W        W 8109  26.061   9.728  14.296
39780W        W 8110  19.728  12.818   4.152
39781W        W 8111  10.362  34.439  14.449
39782W        W 8112   5.429  43.925   3.756
39783W        W 8113  43.960  40.360  12.353
39784W        W 8114  30.155  17.112  13.346
39785W        W 8115  26.997  30.516  12.367
39786W        W 8116   7.347  17.689  13.809
39787W        W 8117  31.619   9.347   0.854
39788W        W 8118  31.467  22.679  11.876
39789W        W 8119  20.083  43.340   0.432
39790W        W 8120  41.419  38.458   4.218
39791W        W 8121  37.451  14.597  10.634
39792W        W 8122  29.046  21.022   3.764
39793W        W 8123   4.226  14.327  11.965
39794W        W 8124  18.758  35.479   4.633
39795W        W 8125  13.624  13.296   0.779
39796W        W 8126   0.272  26.168  12.452
39797W        W 8127  27.024  15.678  14.389
39798W        W 8128  22.084   2.868  10.891
39799W        W 8129  30.488   0.277   0.431
39800W        W 8130  31.564  10.794  12.572
39801W        W 8131  18.627   8.878  12.017
39802W        W 8132  27.455  20.614  13.468
39803W        W 8133  13.348  38.405  11.864
39804W        W 8134  25.607  22.510  12.964
39805W        W 8135   4.857  44.329   2.285
39806W        W 8136  12.622  15.629  13.794
39807W        W 8137  38.838   0.896   0.463
39808W        W 8138  16.679   9.785   3.839
39809W        W 8139  38.053  29.983   0.409
39810W        W 8140  24.978   1.390   0.760
39811W        W 8141  23.027   7.367   2.196
39812W        W 8142  15.816  28.519  10.999
39813W        W 8143  20.270  22.113  11.567
39814W        W 8144  35.579   9.366   0.279
39815W        W 8145  30.652  41.906  12.417
39816W        W 8146   5.873  33.952  10.981
39817W        W 8147  42.999  24.067   4.176
39818W        W 8148  23.580  14.328   3.745
39819W        W 8149  26.482  12.229   1.278
39820W        W 8150  41.397  19.622   1.428
39821W        W 8151  18.730  42.444  11.495
39822W        W 8152  37.927   1.765   4.826
39823W        W 8153  44.878  35.020   4.255
39824W        W 8154   8.314   1.795   4.754
39825W        W 8155  28.680  30.030   4.713
39826W        W 8156  21.628  11.365   4.197
39827W        W 8157  33.064  31.046   2.841
39828W        W 8158  21.596  22.506   2.879
39829W        W 8159  38.903   4.284  12.923
39830W        W 8160  41.522  37.463  11.559
39831W        W 8161  13.649  22.076   3.684
39832W        W 8162  15.325  11.314   2.699
39833W        W 8163  17.226   2.759  13.021
39834W        W 8164  41.846  36.036  11.558
39835W        W 8165   3.235  18.702  11.576
39836W        W 8166   8.308  37.482   2.234
39837W        W 8167  12.656  14.771  13.809
39838W        W 8168  19.702   0.983   3.691
39839W        W 8169  14.804  26.111  14.314
39840W        W 8170   6.298  26.092  13.981
39841W        W 8171  38.994  17.087   1.907
39842W        W 8172  23.193   0.313  13.982
39843W        W 8173  30.971  24.556  12.035
39844W        W 8174  31.477   5.852  10.903
39845W        W 8175  41.992  12.137  10.473
39846W        W 8176  41.905  37.360   0.763
39847W        W 8177  42.849  20.689  14.428
39848W        W 8178  10.659  44.480  12.093
39849W        W 8179  33.570  28.483  13.312
39850W        W 8180  37.918  29.125  13.445
39851W        W 8181  39.867   9.171   0.807
39852W        W 8182  38.422  27.666  11.858
39853W        W 8183  11.260   1.387   0.372
39854W        W 8184  26.181   7.773   3.867
39855W        W 8185  22.586  15.784  12.556
39856W        W 8186  15.693  19.244  13.500
39857W        W 8187  36.529  36.442   2.391
39858W        W 8188   6.854   4.233   1.766
39859W        W 8189  29.017  13.601  13.506
39860W        W 8190   9.197   2.229  11.493
39861W        W 8191  24.055  40.451  13.871
39862W        W 8192  42.022   5.408  14.880
39863W        W 8193  36.064   4.705  12.340
39864W        W 8194  34.457  20.200  12.434
39865W        W 8195  44.779  39.492  14.790
39866W        W 8196   7.379   9.173  13.956
39867W        W 8197  18.209  43.399  12.085
39868W        W 8198  44.846   7.320   4.684
39869W        W 8199  25.124  42.300   3.359
39870W        W 8200  14.627  21.668   1.268
39871W        W 8201  18.727  39.384   0.273
39872W        W 8202   5.240  44.401  12.549
39873W        W 8203  18.600  40.956  12.823
39874W        W 8204  26.549  39.909  12.484
39875W        W 8205  27.625  32.964  10.538
39876W        W 8206  10.269  27.993  10.914
39877W        W 8207  16.629  20.579   3.181
39878W        W 8208  21.252  42.781  10.637
39879W        W 8209  27.126   4.378   4.345
39880W        W 8210   3.282  21.715  11.464
39881W        W 8211  39.825  29.140   1.792
39882W        W 8212  24.098  16.247  10.927
39883W        W 8213  41.854  20.615  10.977
39884W        W 8214  26.173  10.271   1.912
39885W        W 8215  34.445  29.940   3.766
39886W        W 8216  34.010  11.729   2.837
39887W        W 8217  35.865  20.747  14.381
39888W        W 8218   1.358   1.471   1.830
39889W        W 8219  16.240  26.984   1.363
39890W        W 8220  43.288  37.513   2.401
39891W        W 8221  26.534   4.879   4.127
39892W        W 8222  26.151  19.118  10.504
39893W        W 8223   8.160  21.741   4.602
39894W        W 8224  10.780   1.281  13.879
39895W        W 8225  42.451  28.593   4.298
39896W        W 8226   4.406   4.708   1.374
39897W        W 8227  25.514  43.015  10.413
39898W        W 8228  26.054  14.224  14.339
39899W        W 8229  11.790  30.998  12.915
39900W        W 8230  37.563  26.703  10.991
39901W        W 8231  41.915   1.917  10.989
39902W        W 8232  41.800  18.077   0.470
39903W        W 8233  17.245  11.855  14.343
39904W        W 8234   9.644  22.736  12.877
39905W        W 8235  12.245  35.443   0.259
39906W        W 8236   1.967   9.668  14.892
39907W        W 8237  20.208   6.189  12.848
39908W        W 8238  34.503  14.741   2.352
39909W        W 8239  14.613   6.221  11.600
39910W        W 8240  31.971  26.566   0.337
39911W        W 8241  40.369  29.944  11.426
39912W        W 8242   8.762  15.243  11.992
39913W        W 8243  37.549   9.385  12.414
39914W        W 8244  41.793  32.892   2.866
39915W        W 8245  13.121  25.499   3.708
39916W        W 8246  18.217  34.506   2.678
39917W        W 8247  12.194  41.965  13.447
39918W        W 8248   1.836  14.762  14.962
39919W        W 8249  14.785  20.687  14.395
39920W        W 8250  24.123   7.763  12.520
39921W        W 8251  18.172  14.822   4.338
39922W        W 8252  21.528   4.740   4.601
39923W        W 8253  40.009  26.466   1.865
39924W        W 8254  35.429  32.041  11.088
39925W        W 8255  35.082   5.703  14.476
39926W        W 8256  40.966   6.888   2.250
39927W        W 8257  19.092  20.159  12.017
39928W        W 8258  24.074   2.450   1.866
39929W        W 8259  33.900  31.502   1.698
39930W        W 8260  33.123   8.822   1.723
39931W        W 8261  37.845   6.214   4.329
39932W        W 8262  20.210  33.511   2.744
39933W        W 8263  22.517  11.795   0.807
39934W        W 8264  39.552  42.395  12.023
39935W        W 8265   3.439  43.349  10.558
39936W        W 8266   8.837  42.864   4.278
39937W        W 8267  19.706  26.700  11.087
39938W        W 8268  21.171  43.850  13.408
39939W        W 8269   0.772  35.441  11.007
39940W        W 8270   1.323  28.958  10.962
39941W        W 8271  22.169  27.981   4.615
39942W        W 8272  26.559  24.666  12.953
39943W        W 8273  18.162   1.333   2.390
39944W        W 8274  21.211  25.520   3.219
39945W        W 8275  22.007   9.291   3.683
39946W        W 8276  11.788  36.912  11.038
39947W        W 8277   6.275  21.581  12.086
39948W        W 8278  12.746   9.778  10.575
39949W        W 8279  25.025   4.943   3.359
39950W        W 8280  43.764  23.529  12.560
39951W        W 8281  40.472  32.059  14.495
39952W        W 8282  30.617   1.360   0.840
39953W        W 8283  18.123  33.445  10.520
39954W        W 8284  38.370  27.680  12.960
39955W        W 8285  30.485   5.751  10.989
39956W        W 8286  29.174  39.822  14.459
39957W        W 8287  14.324  34.614  11.866
39958W        W 8288  20.554   5.420  13.328
39959W        W 8289  26.671  28.513   2.276
39960W        W 8290  41.300   1.470   1.857
39961W        W 8291  31.967  25.642  10.634
39962W        W 8292  31.605   3.233   0.437
39963W        W 8293  24.705  29.454  13.392
39964W        W 8294  18.063   9.731  13.528
39965W        W 8295  23.717  34.090   1.924
39966W        W 8296  14.629  19.712  12.988
39967W        W 8297   8.370   8.187  14.881
39968W        W 8298  28.441  22.111   0.934
39969W        W 8299   3.768  27.519  14.831
39970W        W 8300  27.533  35.102   2.376
39971W        W 8301  13.811  31.007  12.526
39972W        W 8302  14.725  39.370   4.609
39973W        W 8303  42.306  26.955   4.635
39974W        W 8304  36.936   8.753   5.306
39975W        W 8305  28.469  25.471  12.017
39976W        W 8306  33.458  35.894  11.985
39977W        W 8307  28.583   3.815   3.788
39978W        W 8308  26.187  10.362  12.944
39979W        W 8309   9.647   2.934  10.550
39980W        W 8310  15.797  42.953   0.732
39981W        W 8311  30.569  38.011  10.642
39982W        W 8312  14.760   6.293   2.885
39983W        W 8313  12.234  43.810   3.239
39984W        W 8314  15.227  38.871   4.627
39985W        W 8315   6.190  39.897  14.870
39986W        W 8316  17.159  13.243   0.735
39987W        W 8317  15.256  19.666  13.343
39988W        W 8318   2.764  35.946   3.652
39989W        W 8319   2.454  29.638  13.464
39990W        W 8320   9.672  14.826   4.611
39991W        W 8321  15.279  44.398   2.760
39992W        W 8322  34.032  29.600   1.422
39993W        W 8323  38.343  42.805   0.854
39994W        W 8324   2.845  32.954   3.778
39995W        W 8325  14.663  25.203   1.717
39996W        W 8326  10.766   0.791   0.304
39997W        W 8327   5.205  41.303  12.981
39998W        W 8328  35.365   8.170   2.873
39999W        W 8329  14.777  36.489  13.901
40000W        W 8330  42.513  16.791  10.407
40001W        W 8331  10.652  21.175  11.979
40002W        W 8332  17.795  12.707   3.253
40003W        W 8333  43.272   4.321   0.250
40004W        W 8334  34.473  26.662   2.770
40005W        W 8335   9.846   2.935   2.802
40006W        W 8336  14.713   4.735   4.284
40007W        W 8337  41.337  28.633  13.889
40008W        W 8338   0.412  16.307  11.580
40009W        W 8339  41.922   6.315  11.075
40010W        W 8340  42.831  39.054   0.888
40011W        W 8341  35.956  23.024   1.377
40012W        W 8342   8.200  14.252  13.919
40013W        W 8343  23.066  30.658   3.381
40014W        W 8344  32.098  11.848  10.985
40015W        W 8345   3.269  19.271  11.083
40016W        W 8346  44.355  42.523  12.951
40017W        W 8347  43.854  37.844  11.935
40018W        W 8348  42.462   1.784   0.340
40019W        W 8349  14.768  16.233   4.737
40020W        W 8350  34.966  26.546   2.324
40021W        W 8351  21.525  19.049   0.759
40022W        W 8352  43.847  14.157   2.687
40023W        W 8353  21.540   0.851  12.555
40024W        W 8354  26.028   3.815   4.747
40025W        W 8355  43.923   3.762  13.440
40026W        W 8356  43.328   2.442   1.290
40027W        W 8357  37.866   3.431   2.836
40028W        W 8358  12.253  28.467   3.663
40029W        W 8359  37.998  26.550  10.901
40030W        W 8360   0.866   6.272  12.408
40031W        W 8361   2.411  28.048   4.744
40032W        W 8362  18.596  43.309  14.480
40033W        W 8363  20.602  10.287   1.761
40034W        W 8364  16.137  32.549   3.243
40035W        W 8365  12.629  38.868   0.865
40036W        W 8366  38.474  33.979  13.369
40037W        W 8367  26.651  31.968  11.453
40038W        W 8368   7.755  43.361   3.267
40039W        W 8369  28.097  20.578   2.293
40040W        W 8370  37.453  30.559   1.730
40041W        W 8371  44.481   6.329  10.103
40042W        W 8372   9.217  42.410  14.466
40043W        W 8373  11.742  17.209  14.874
40044W        W 8374   2.298  34.587   3.832
40045W        W 8375  43.436  23.160  13.014
40046W        W 8376  10.765  41.877  14.411
40047W        W 8377  21.618   2.808   0.280
40048W        W 8378  43.499  39.924   3.282
40049W        W 8379  26.549  10.248   5.678
40050W        W 8380  43.342  27.483   2.688
40051W        W 8381  11.780  20.651   2.377
40052W        W 8382  27.021  40.989  13.813
40053W        W 8383  31.455  14.781  13.937
40054W        W 8384  23.585  19.077   1.321
40055W        W 8385  31.912  31.440   3.734
40056W        W 8386   2.360  22.006  13.419
40057W        W 8387  15.784  36.463  14.972
40058W        W 8388  26.009  28.171   3.653
40059W        W 8389  21.690  22.114   4.260
40060W        W 8390  10.849  36.587  12.409
40061W        W 8391  38.422  36.582   2.833
40062W        W 8392   9.710   3.251   2.190
40063W        W 8393  10.654  13.212   1.239
40064W        W 8394  39.881  23.661  12.966
40065W        W 8395  29.496   7.285  14.487
40066W        W 8396  27.487  40.982  12.093
40067W        W 8397  34.951  39.933   3.713
40068W        W 8398  16.317  34.103  14.846
40069W        W 8399  19.577  34.867  13.998
40070W        W 8400  24.640  41.490   4.179
40071W        W 8401  38.464   5.715   5.799
40072W        W 8402  25.208  13.252   2.698
40073W        W 8403  11.176  31.026  11.908
40074W        W 8404  11.744   7.898  14.424
40075W        W 8405  16.813  32.491   4.772
40076W        W 8406  35.371   5.831  11.581
40077W        W 8407   1.751  20.548  12.386
40078W        W 8408   0.794  26.610   3.202
40079W        W 8409  39.433  27.009   1.719
40080W        W 8410  30.563  19.144   0.400
40081W        W 8411  21.740  34.926  12.979
40082W        W 8412   4.894  25.084   3.270
40083W        W 8413  33.433  35.000  13.923
40084W        W 8414  38.550  27.677   2.360
40085W        W 8415   5.408  35.866  12.855
40086W        W 8416   8.745  19.657   0.733
40087W        W 8417  37.889  41.448  14.012
40088W        W 8418  27.630  40.457   1.217
40089W        W 8419  41.873   1.936   1.280
40090W        W 8420  28.087  39.860  11.119
40091W        W 8421  34.870  34.034  10.623
40092W        W 8422  32.616  42.871  10.437
40093W        W 8423  42.392  41.850   3.786
40094W        W 8424   4.344  39.983   1.748
40095W        W 8425  33.913  39.533   0.727
40096W        W 8426  26.521   4.344   2.380
40097W        W 8427  20.571  34.098   0.728
40098W        W 8428   1.971  10.183  12.354
40099W        W 8429  38.386  38.419   0.242
40100W        W 8430  18.634  38.532  14.891
40101W        W 8431  35.925   0.486  13.942
40102W        W 8432  43.799  33.440   1.330
40103W        W 8433  15.319  31.006  14.787
40104W        W 8434  40.958  41.931  12.054
40105W        W 8435   9.746  26.197   3.821
40106W        W 8436  22.586  36.899  12.385
40107W        W 8437   7.201  20.168   1.758
40108W        W 8438  11.858  19.169  11.479
40109W        W 8439  24.664  15.656  14.899
40110W        W 8440  19.765   1.961   4.670
40111W        W 8441  33.512   2.296  13.902
40112W        W 8442  35.006   5.694   4.703
40113W        W 8443   6.257  27.139   4.252
40114W        W 8444   9.659   6.854   2.325
40115W        W 8445  42.383  35.491  13.376
40116W        W 8446   0.886  20.631   1.917
40117W        W 8447  11.203  43.777   0.427
40118W        W 8448   1.916  41.032  10.888
40119W        W 8449  44.936  23.021   3.718
40120W        W 8450  37.884  32.085  10.604
40121W        W 8451  28.463   1.374   3.747
40122W        W 8452   7.743  12.249  13.801
40123W        W 8453  36.018  23.695   3.845
40124W        W 8454  32.617  22.627  11.907
40125W        W 8455  13.308   0.788  13.432
40126W        W 8456  21.524   5.351   2.740
40127W        W 8457   9.301  10.859   0.756
40128W        W 8458  31.446  36.427   3.652
40129W        W 8459  43.776  29.152  14.401
40130W        W 8460  37.889  16.102   1.348
40131W        W 8461   0.470  13.771  10.600
40132W        W 8462   5.809  26.513   0.350
40133W        W 8463  19.060  18.763   5.240
40134W        W 8464   6.375  28.140  13.487
40135W        W 8465  29.554  40.857  12.459
40136W        W 8466  14.698  14.666   2.360
40137W        W 8467  41.422  19.082   4.303
40138W        W 8468  16.793  39.416  14.487
40139W        W 8469  34.962  15.213  10.973
40140W        W 8470  34.463  38.405  11.116
40141W        W 8471   8.172  19.658   2.665
40142W        W 8472  14.185   9.659   1.391
40143W        W 8473  17.789  43.348   0.266
40144W        W 8474  17.708  39.369  12.936
40145W        W 8475  27.687  16.613  11.933
40146W        W 8476  34.995  35.049  14.974
40147W        W 8477  13.782  24.977   4.266
40148W        W 8478  27.617   7.899  13.519
40149W        W 8479  29.653  34.898   3.794
40150W        W 8480  33.014  36.555   2.887
40151W        W 8481  21.722  15.097  11.387
40152W        W 8482  24.630  43.778  14.766
40153W        W 8483   8.295   2.409   4.196
40154W        W 8484  42.358   3.440  13.987
40155W        W 8485   2.801  18.580  13.981
40156W        W 8486  21.585  33.552   2.852
40157W        W 8487   9.330  27.016  10.923
40158W        W 8488   9.699  43.016   1.927
40159W        W 8489  32.937  15.148   1.229
40160W        W 8490  12.804   1.950   2.755
40161W        W 8491  39.052   7.276  13.404
40162W        W 8492  12.688   5.306  14.996
40163W        W 8493  39.909   7.693   1.914
40164W        W 8494  25.488  40.395  13.800
40165W        W 8495   7.356  31.561  11.939
40166W        W 8496  27.142  21.257  10.063
40167W        W 8497  36.347  26.991   3.377
40168W        W 8498   4.326  39.922  14.878
40169W        W 8499  10.834  10.868   0.267
40170W        W 8500  23.534  14.755   1.712
40171W        W 8501  31.418  14.613   1.240
40172W        W 8502   7.876  19.561   3.315
40173W        W 8503  22.014  31.512  12.450
40174W        W 8504  18.112  39.941   2.902
40175W        W 8505  34.037  17.617   0.762
40176W        W 8506   1.331   7.717   3.854
40177W        W 8507  21.197   0.771   4.140
40178W        W 8508  29.512  31.580   3.741
40179W        W 8509  29.485  42.814   2.371
40180W        W 8510   2.782  38.392   5.153
40181W        W 8511  30.076   6.747  14.806
40182W        W 8512  20.693  37.945  11.082
40183W        W 8513   7.278   5.330   2.820
40184W        W 8514  28.496  25.161  12.452
40185W        W 8515  23.610  43.917   0.382
40186W        W 8516  21.133  36.072   1.242
40187W        W 8517   5.810  40.019  13.339
40188W        W 8518  41.303  15.245   0.279
40189W        W 8519  21.701  10.836   3.204
40190W        W 8520   4.796   3.899  13.393
40191W        W 8521  17.303  17.262   1.395
40192W        W 8522  16.248   5.879  14.400
40193W        W 8523  34.003  21.710  13.844
40194W        W 8524  29.959  34.888   0.901
40195W        W 8525  24.583  19.090   3.865
40196W        W 8526  10.169  11.782  14.901
40197W        W 8527  39.834   3.793  12.357
40198W        W 8528   3.395   9.703   0.908
40199W        W 8529  29.537   1.352  11.523
40200W        W 8530  23.112  39.903   2.349
40201W        W 8531  33.496  40.334   1.835
40202W        W 8532  40.379  18.587   4.652
40203W        W 8533  15.712  37.906   0.856
40204W        W 8534  14.119  23.697  10.564
40205W        W 8535  42.415   4.358   1.366
40206W        W 8536  17.245  15.767   2.281
40207W        W 8537  26.964  26.023   4.797
40208W        W 8538  21.227   1.457  12.000
40209W        W 8539  33.541  16.179   2.354
40210W        W 8540  43.286  30.133   0.848
40211W        W 8541  39.488  27.545  10.499
40212W        W 8542  29.520  17.563  10.968
40213W        W 8543   4.873  14.814  14.944
40214W        W 8544   4.793  17.792   4.784
40215W        W 8545  15.643  10.663   0.444
40216W        W 8546  37.441  17.646   4.753
40217W        W 8547  19.538  22.608  13.511
40218W        W 8548  19.265  30.415   3.167
40219W        W 8549  35.442  13.292  14.496
40220W        W 8550  14.111  23.666   3.236
40221W        W 8551   8.794  29.433  12.426
40222W        W 8552  38.823   8.272  11.564
40223W        W 8553   6.709  43.805   3.280
40224W        W 8554   7.667  36.035   2.766
40225W        W 8555   3.363   8.820   2.305
40226W        W 8556  27.171  13.831   2.397
40227W        W 8557  33.455  44.816  12.486
40228W        W 8558  31.568  42.336  13.872
40229W        W 8559  12.284  34.037   4.659
40230W        W 8560   9.349  25.170   1.268
40231W        W 8561  35.429  40.503   3.199
40232W        W 8562  36.440  30.938  12.992
40233W        W 8563  11.744  11.845  13.407
40234W        W 8564  18.054   6.693  13.462
40235W        W 8565  29.024  37.359   3.356
40236W        W 8566  31.957  36.363  10.953
40237W        W 8567  41.988  28.994   4.238
40238W        W 8568  19.051  14.801   1.353
40239W        W 8569   8.330   3.758  12.827
40240W        W 8570  17.780   3.887  11.385
40241W        W 8571  10.679  12.294   0.859
40242W        W 8572   7.817  31.451   2.400
40243W        W 8573   3.845   6.422   1.398
40244W        W 8574  33.578  33.557  10.639
40245W        W 8575  42.874   0.424   4.726
40246W        W 8576   6.337  10.659  10.922
40247W        W 8577  14.249  34.424  10.523
40248W        W 8578  18.558   1.415  10.527
40249W        W 8579  33.473  30.571  13.467
40250W        W 8580  36.360  23.996   2.863
40251W        W 8581  36.348  35.941   0.882
40252W        W 8582  34.911  20.707  11.489
40253W        W 8583  28.636   7.178  14.882
40254W        W 8584  40.363  28.524   2.196
40255W        W 8585  21.087  41.927  14.932
40256W        W 8586  12.227  18.249  10.958
40257W        W 8587  41.022  23.714  14.961
40258W        W 8588  13.301  36.855   4.665
40259W        W 8589  40.438  17.574   0.418
40260W        W 8590   7.893  32.621   0.286
40261W        W 8591   6.691  25.086  13.422
40262W        W 8592   7.370  39.026   1.720
40263W        W 8593  13.744  32.508  13.057
40264W        W 8594  13.721  40.389   2.725
40265W        W 8595  36.920  25.015   0.807
40266W        W 8596  22.528  27.673  12.937
40267W        W 8597  32.412  23.641   2.408
40268W        W 8598  36.919   8.230   2.691
40269W        W 8599  15.203   9.821   0.431
40270W        W 8600  33.097  19.777  10.966
40271W        W 8601  41.390  10.728   2.874
40272W        W 8602  27.141  37.972  14.812
40273W        W 8603  29.951  22.546   1.801
40274W        W 8604  28.960  11.368   3.318
40275W        W 8605  42.431  23.011  14.801
40276W        W 8606  43.418  39.528  10.519
40277W        W 8607  19.231   0.321   1.294
40278W        W 8608  36.387   4.875   3.310
40279W        W 8609  36.592  27.026   2.900
40280W        W 8610  20.140  18.726   1.903
40281W        W 8611  39.407  30.427  11.899
40282W        W 8612  43.854  30.539   3.709
40283W        W 8613  26.682  38.863  10.439
40284W        W 8614  14.763  34.397   2.807
40285W        W 8615  19.547  36.011   1.722
40286W        W 8616  25.477  26.559  12.042
40287W        W 8617  39.443  21.243   3.181
40288W        W 8618  39.455  20.261  12.949
40289W        W 8619   7.884  34.612  13.052
40290W        W 8620  19.716  28.995   0.818
40291W        W 8621  25.038  41.961   5.187
40292W        W 8622  33.982  26.058  10.620
40293W        W 8623  30.997  31.502   2.682
40294W        W 8624  24.635  33.008  12.419
40295W        W 8625  12.213  23.044   0.772
40296W        W 8626  40.306  27.112   0.809
40297W        W 8627  25.506  11.814   0.361
40298W        W 8628  20.652  37.876   1.751
40299W        W 8629  27.187  19.105  13.820
40300W        W 8630  34.527  33.507  11.013
40301W        W 8631  40.395  11.723  10.477
40302W        W 8632  14.727   5.362  12.428
40303W        W 8633  32.939  35.024  11.567
40304W        W 8634  26.982  18.776  10.558
40305W        W 8635  13.672  37.560  13.926
40306W        W 8636  20.120  21.060  14.025
40307W        W 8637  12.203  31.145   2.302
40308W        W 8638  31.526  41.462  12.537
40309W        W 8639  11.636   1.974  13.058
40310W        W 8640  12.335  30.443   3.704
40311W        W 8641  10.273  40.955  12.566
40312W        W 8642  42.829  35.037   1.392
40313W        W 8643  15.291  15.620  13.838
40314W        W 8644   6.353  12.195   4.178
40315W        W 8645  27.621  16.776  13.837
40316W        W 8646   2.734  41.315   1.866
40317W        W 8647  20.701  26.534   3.816
40318W        W 8648  19.668  10.822  12.455
40319W        W 8649  36.851  34.481  11.070
40320W        W 8650  11.214  37.067  10.942
40321W        W 8651   1.269  24.058   4.804
40322W        W 8652  15.186  18.146   0.388
40323W        W 8653  28.102   2.860   0.302
40324W        W 8654  44.269  14.277  11.006
40325W        W 8655  44.411  19.039   2.414
40326W        W 8656  29.151  10.379   3.308
40327W        W 8657  33.061   2.833   4.326
40328W        W 8658  42.471  38.453   0.361
40329W        W 8659  20.544  18.589  11.461
40330W        W 8660  34.560   3.281  11.604
40331W        W 8661  39.916   3.718   3.355
40332W        W 8662  23.193  32.459   3.836
40333W        W 8663  24.714   8.406   1.309
40334W        W 8664   4.309  15.598   1.830
40335W        W 8665  42.457  31.430   1.268
40336W        W 8666  25.099  16.693  11.936
40337W        W 8667   6.377  20.550   0.847
40338W        W 8668  10.879  21.076   0.433
40339W        W 8669  28.171  36.392  11.599
40340W        W 8670  10.840  15.745  10.529
40341W        W 8671  44.007   4.347  12.372
40342W        W 8672  23.999  12.618   4.237
40343W        W 8673  43.865  15.144   3.640
40344W        W 8674  25.021  37.836  13.538
40345W        W 8675  21.702   1.457   1.713
40346W        W 8676  38.961  29.632  14.348
40347W        W 8677  39.527  24.064   4.217
40348W        W 8678  14.740   8.671   4.654
40349W        W 8679  37.476  21.562  11.899
40350W        W 8680  39.351  14.193  13.511
40351W        W 8681  13.661  29.540   2.418
40352W        W 8682  12.641  11.294  13.344
40353W        W 8683  10.859  16.222   2.386
40354W        W 8684  12.628  22.058   3.208
40355W        W 8685  22.169  37.449   5.083
40356W        W 8686  24.617  30.633   3.325
40357W        W 8687   2.781  20.214   3.759
40358W        W 8688   5.834  34.079  14.965
40359W        W 8689  13.603   2.340   2.815
40360W        W 8690   6.794   7.736   4.626
40361W        W 8691   5.931   4.386  14.921
40362W        W 8692  42.823  35.023  13.493
40363W        W 8693  21.113  44.328   3.805
40364W        W 8694   3.342  33.132  11.107
40365W        W 8695  26.594   7.814   3.846
40366W        W 8696  42.013  43.895   3.246
40367W        W 8697  41.878  33.380   5.190
40368W        W 8698  11.853  22.240  12.444
40369W        W 8699  41.806   8.329  14.379
40370W        W 8700  41.001  33.595   3.832
40371W        W 8701  35.591  21.170   0.463
40372W        W 8702  13.654   0.479  13.496
40373W        W 8703   0.819   7.715   3.366
40374W        W 8704  40.857   9.311  12.948
40375W        W 8705  36.464  19.281  11.510
40376W        W 8706  39.982   4.859  12.360
40377W        W 8707   8.768  31.593  10.925
40378W        W 8708  12.243  28.666  10.448
40379W        W 8709  23.214  40.379   3.760
40380W        W 8710  12.211  16.171   4.211
40381W        W 8711   5.893  42.480   3.359
40382W        W 8712   6.412  21.727   3.754
40383W        W 8713  26.459  34.912   0.834
40384W        W 8714  34.480   6.217  11.009
40385W        W 8715  15.255   2.839  14.909
40386W        W 8716  24.481  25.692  11.502
40387W        W 8717   5.282  10.199   0.310
40388W        W 8718  23.611  14.208   0.474
40389W        W 8719  28.185  30.513  13.369
40390W        W 8720  31.480   1.822  13.026
40391W        W 8721   3.772  43.882  13.348
40392W        W 8722  43.491   0.743   2.226
40393W        W 8723  43.975   6.908   1.734
40394W        W 8724  41.945   5.889  14.321
40395W        W 8725  18.558   1.875   1.802
40396W        W 8726  30.565  19.073   3.289
40397W        W 8727  21.065  31.503  10.489
40398W        W 8728   1.276  21.616  14.950
40399W        W 8729  12.769  13.708  13.951
40400W        W 8730  23.993  29.448  13.341
40401W        W 8731  20.096   9.335   4.147
40402W        W 8732  37.349  25.128  13.055
40403W        W 8733  14.630  29.938   3.685
40404W        W 8734  29.173  19.631   4.837
40405W        W 8735  14.608  28.638   4.746
40406W        W 8736  39.013  12.710   0.274
40407W        W 8737  26.132  40.045  12.508
40408W        W 8738  21.596   9.271  10.952
40409W        W 8739  44.419   7.324  13.954
40410W        W 8740  44.803  38.849   4.776
40411W        W 8741  10.273  31.591   4.607
40412W        W 8742  20.553  23.689  13.318
40413W        W 8743  12.300  15.206   3.862
40414W        W 8744   2.276  28.668  11.953
40415W        W 8745   3.311   4.715   0.863
40416W        W 8746  23.187  43.484  13.450
40417W        W 8747   8.766  15.187  14.775
40418W        W 8748  27.469  33.397   0.366
40419W        W 8749   2.246  19.046   0.836
40420W        W 8750  42.344   2.268  11.413
40421W        W 8751  42.904  31.573  10.556
40422W        W 8752  21.730   3.892  13.806
40423W        W 8753  16.759  12.617  11.481
40424W        W 8754  37.413  43.885  13.046
40425W        W 8755  23.085   3.303  11.997
40426W        W 8756   0.316   2.864  11.022
40427W        W 8757   5.823   4.871   0.330
40428W        W 8758  33.622  38.881   2.812
40429W        W 8759  32.463  26.655  10.971
40430W        W 8760  32.500  13.791   4.330
40431W        W 8761  25.202   6.753  10.440
40432W        W 8762  26.111  26.982   2.283
40433W        W 8763   9.771   5.889  13.443
40434W        W 8764   9.745  35.466   3.336
40435W        W 8765   9.699   1.332   3.255
40436W        W 8766  26.539  30.978  12.968
40437W        W 8767  32.460   5.230  13.836
40438W        W 8768  40.038  18.127   2.195
40439W        W 8769  13.604  21.193   0.748
40440W        W 8770  23.173  14.198   2.785
40441W        W 8771  15.627   7.723  11.535
40442W        W 8772  38.330  16.718  11.893
40443W        W 8773   0.353   5.342  11.902
40444W        W 8774  26.649  25.081   4.253
40445W        W 8775   0.837  23.239   0.964
40446W        W 8776  38.404  31.905  12.857
40447W        W 8777  18.622  15.108  13.848
40448W        W 8778  35.035   4.324  12.037
40449W        W 8779  26.511   6.754  13.003
40450W        W 8780   1.263  33.102  13.309
40451W        W 8781  35.907  24.037   3.697
40452W        W 8782   6.854  19.591  13.445
40453W        W 8783   0.361  19.553   4.699
40454W        W 8784  14.688  13.116   0.897
40455W        W 8785  29.989   5.708   1.798
40456W        W 8786  25.581  30.569  12.532
40457W        W 8787   4.759   1.855   5.184
40458W        W 8788  24.120  35.509  14.314
40459W        W 8789   1.382  28.668  14.469
40460W        W 8790  41.405  34.950   3.820
40461W        W 8791  18.117  29.645  13.841
40462W        W 8792  16.109  34.100   9.616
40463W        W 8793  36.848  29.153   4.182
40464W        W 8794  19.553  27.050   1.727
40465W        W 8795  36.967  14.285  12.941
40466W        W 8796  25.643  14.596  11.600
40467W        W 8797  31.071  21.086   1.218
40468W        W 8798  36.484  19.719   2.296
40469W        W 8799   7.399   8.798   0.897
40470W        W 8800  19.182   4.437  11.943
40471W        W 8801  30.453  37.066   1.726
40472W        W 8802  26.537  10.247   1.333
40473W        W 8803  15.264  27.994   2.895
40474W        W 8804  28.121  24.696  12.037
40475W        W 8805  18.677  13.829   3.270
40476W        W 8806  44.439  34.959  12.341
40477W        W 8807  25.192   5.321  10.497
40478W        W 8808  32.526  30.946  12.370
40479W        W 8809  10.661  19.121   4.801
40480W        W 8810  38.007  19.551   3.785
40481W        W 8811  25.147  11.807   3.315
40482W        W 8812  22.672   3.382  10.916
40483W        W 8813  37.998   1.962  10.948
40484W        W 8814  34.015   0.944  14.409
40485W        W 8815  20.522  31.635   5.688
40486W        W 8816  31.945  42.991   0.289
40487W        W 8817   7.176  12.842  13.804
40488W        W 8818  33.925  14.690   3.290
40489W        W 8819  36.026  33.423  14.419
40490W        W 8820   4.375   4.426  12.938
40491W        W 8821   6.905   9.349   3.792
40492W        W 8822  43.497  31.405  11.535
40493W        W 8823  23.039   6.327  11.408
40494W        W 8824  28.540  30.644   1.917
40495W        W 8825  29.991  26.672  12.488
40496W        W 8826   3.266  38.876  11.958
40497W        W 8827  40.370  39.557   1.844
40498W        W 8828   3.409   5.892   2.787
40499W        W 8829   2.304  21.757  11.506
40500W        W 8830  27.072  39.832   0.392
40501W        W 8831   8.240  38.341  13.546
40502W        W 8832  26.010  12.218   0.743
40503W        W 8833  43.984  25.099   2.780
40504W        W 8834  30.571   8.382  14.009
40505W        W 8835  13.207  25.681   0.894
40506W        W 8836   6.224  40.861   0.841
40507W        W 8837  41.513  24.629  13.412
40508W        W 8838   7.191  40.403   0.921
40509W        W 8839  16.599  23.233   3.723
40510W        W 8840  20.201  22.050  12.862
40511W        W 8841   7.722  27.654   3.719
40512W        W 8842  37.928  30.018   3.760
40513W        W 8843   0.829   8.852   0.756
40514W        W 8844  15.305   3.800   1.703
40515W        W 8845  42.505  19.544  14.789
40516W        W 8846   5.357   8.756  13.437
40517W        W 8847  17.121  15.197  14.493
40518W        W 8848  14.631   2.255   3.313
40519W        W 8849  10.717   9.678  14.462
40520W        W 8850  11.318  33.603  11.404
40521W        W 8851  16.777  41.317  12.447
40522W        W 8852  16.233   1.472  11.478
40523W        W 8853   2.449   6.714  14.897
40524W        W 8854  22.582  17.259   0.881
40525W        W 8855  27.124  34.872   3.714
40526W        W 8856  29.633   3.233  13.517
40527W        W 8857   6.244  19.177   2.808
40528W        W 8858  42.852  25.538  14.403
40529W        W 8859   1.381  20.547  10.934
40530W        W 8860   2.909  39.524   3.855
40531W        W 8861   1.344  32.463   3.824
40532W        W 8862  41.874  10.746   3.688
40533W        W 8863  13.717  43.985  14.017
40534W        W 8864   4.341  18.248  14.795
40535W        W 8865  19.683  33.875   1.318
40536W        W 8866  39.512  35.569   1.266
40537W        W 8867  40.907  14.677   2.896
40538W        W 8868   1.922   7.702  14.975
40539W        W 8869  11.148  35.411  13.440
40540W        W 8870  21.171   0.263  13.494
40541W        W 8871   7.775  32.890   2.825
40542W        W 8872  21.662  30.076   4.819
40543W        W 8873  31.916  24.078  11.908
40544W        W 8874  16.792  24.055  12.859
40545W        W 8875  15.586   4.291  14.960
40546W        W 8876  27.453   3.868   4.719
40547W        W 8877  33.039   8.656   0.339
40548W        W 8878   8.807  34.977   4.633
40549W        W 8879   1.911  18.548  10.467
40550W        W 8880  22.581   2.232  13.965
40551W        W 8881   1.881   9.251  12.904
40552W        W 8882  33.545  17.800  14.509
40553W        W 8883   1.461  30.955  12.955
40554W        W 8884  23.993  14.725   0.941
40555W        W 8885  34.459  17.650  14.029
40556W        W 8886  37.485  33.988   0.329
40557W        W 8887   0.941   2.379   1.694
40558W        W 8888  13.294  22.652   1.776
40559W        W 8889  39.431   3.260  13.941
40560W        W 8890   0.905  26.502   3.851
40561W        W 8891  22.171  37.966   4.320
40562W        W 8892  23.584  20.187  11.544
40563W        W 8893  12.150   4.370   4.349
40564W        W 8894   8.793  23.552  14.315
40565W        W 8895  36.036  31.647  11.959
40566W        W 8896  30.495   4.823  13.874
40567W        W 8897  22.636  29.437   0.831
40568W        W 8898  25.641  36.015  10.610
40569W        W 8899  15.142  39.835  13.342
40570W        W 8900  20.050  42.439  13.330
40571W        W 8901  42.027  25.001   1.743
40572W        W 8902   3.829  19.226  13.838
40573W        W 8903  41.832  36.957   1.897
40574W        W 8904   4.443  32.458  12.860
40575W        W 8905   9.882  25.641   2.762
40576W        W 8906  23.009  32.039  14.319
40577W        W 8907  16.142  25.503  12.951
40578W        W 8908  40.406  44.276  11.559
40579W        W 8909  11.676  13.709  12.454
40580W        W 8910  44.340  17.714  14.828
40581W        W 8911   1.886  30.640   1.811
40582W        W 8912   9.876  31.462   1.310
40583W        W 8913  40.523  40.349  13.048
40584W        W 8914  26.195  20.554   3.719
40585W        W 8915   9.839  22.609  12.521
40586W        W 8916  37.950  31.110   1.288
40587W        W 8917   7.367   5.431  13.437
40588W        W 8918  12.272  28.084  14.347
40589W        W 8919  36.927  16.106  12.429
40590W        W 8920   7.771  13.231  10.405
40591W        W 8921  38.562   6.680  14.425
40592W        W 8922  38.404  23.106   2.797
40593W        W 8923  36.959  31.531   0.939
40594W        W 8924   2.727  10.335  14.977
40595W        W 8925  44.359  17.168   4.275
40596W        W 8926  20.148  22.208  11.040
40597W        W 8927  44.838  41.412   1.326
40598W        W 8928  16.757  37.426   2.831
40599W        W 8929  29.014   3.790  11.578
40600W        W 8930  24.554  25.585   0.913
40601W        W 8931   8.304  33.945  14.863
40602W        W 8932  37.970  27.011   0.940
40603W        W 8933   9.811  35.544   4.834
40604W        W 8934   2.470  10.792   0.742
40605W        W 8935   8.669  11.138  11.861
40606W        W 8936  14.189  32.890  12.969
40607W        W 8937   7.788  38.520  10.611
40608W        W 8938  11.155  24.668   3.193
40609W        W 8939  40.909  32.469  14.993
40610W        W 8940  12.139  17.588  11.399
40611W        W 8941   9.820  42.332  10.578
40612W        W 8942  10.682  19.718   2.357
40613W        W 8943  37.860  13.806   1.896
40614W        W 8944  15.656  23.665   0.895
40615W        W 8945  30.059   2.854   4.273
40616W        W 8946   6.844  16.207   1.721
40617W        W 8947  19.648  31.046   0.435
40618W        W 8948  37.876  23.083  14.990
40619W        W 8949  26.994  22.628   1.296
40620W        W 8950  43.978   5.433  10.526
40621W        W 8951  10.243  34.037   2.686
40622W        W 8952  17.712  23.632   3.798
40623W        W 8953  20.039  37.013  11.593
40624W        W 8954  23.572  36.904   3.287
40625W        W 8955   7.748  11.819   0.757
40626W        W 8956   0.847   9.815  11.922
40627W        W 8957  34.573  22.037   4.650
40628W        W 8958   6.778   4.227   0.730
40629W        W 8959  33.437  13.836   3.868
40630W        W 8960  30.598  18.202   3.826
40631W        W 8961  19.778  25.127   0.746
40632W        W 8962   2.812  11.727   3.220
40633W        W 8963  44.799   6.922  12.891
40634W        W 8964  20.696  42.339   0.955
40635W        W 8965  23.086  41.379  14.025
40636W        W 8966   8.343  29.093  13.886
40637W        W 8967   5.211  25.569  14.412
40638W        W 8968  44.419  17.162  12.365
40639W        W 8969  20.726  19.240   4.283
40640W        W 8970  15.278   7.804  13.982
40641W        W 8971  40.494  37.555  12.980
40642W        W 8972   8.290  23.019   3.777
40643W        W 8973  23.036  39.048  12.507
40644W        W 8974  19.707   3.262   3.272
40645W        W 8975  15.579  10.371   4.760
40646W        W 8976  33.074  10.190  11.001
40647W        W 8977  23.658   1.935   1.430
40648W        W 8978  19.670   7.676  13.976
40649W        W 8979   1.347   2.725   0.949
40650W        W 8980  13.168  27.547   1.261
40651W        W 8981  40.387   6.823  14.878
40652W        W 8982   3.925  33.015  13.822
40653W        W 8983  41.410  28.055   2.706
40654W        W 8984   6.243   5.372  14.933
40655W        W 8985   5.889  31.015   0.412
40656W        W 8986   0.948  37.448   1.814
40657W        W 8987  35.902  10.202   4.826
40658W        W 8988  33.886  11.358   3.170
40659W        W 8989  20.767  41.880  11.892
40660W        W 8990  22.212  32.511  14.019
40661W        W 8991  41.350   7.672  11.105
40662W        W 8992  23.648  25.658   1.310
40663W        W 8993  29.987   1.804   1.346
40664W        W 8994  17.073  39.372   1.914
40665W        W 8995   8.843  17.289  10.631
40666W        W 8996  18.670  24.524   1.256
40667W        W 8997   1.418  20.651   3.822
40668W        W 8998  16.241  24.574   0.245
40669W        W 8999  16.315  44.853   1.414
40670W        W 9000   8.874  29.579   5.314
40671W        W 9001  43.381  21.053   0.368
40672W        W 9002  17.098  24.663  13.979
40673W        W 9003  25.087  15.598   4.148
40674W        W 9004  25.050  29.140  13.980
40675W        W 9005  16.108  37.392   1.296
40676W        W 9006  21.612   3.921  12.458
40677W        W 9007   2.408   6.315   1.910
40678W        W 9008  35.889  38.048  14.439
40679W        W 9009  27.178  14.295   3.345
40680W        W 9010  33.390  15.114  10.544
40681W        W 9011  33.006   9.849  11.939
40682W        W 9012  27.514  25.186  11.108
40683W        W 9013  40.015  15.153  12.859
40684W        W 9014  15.628  17.573  13.529
40685W        W 9015   6.887  39.912  13.064
40686W        W 9016  29.636   5.894   2.396
40687W        W 9017  24.096  29.471  14.768
40688W        W 9018   8.839  13.222  13.479
40689W        W 9019   7.820  41.938   4.725
40690W        W 9020  22.593  22.623  13.470
40691W        W 9021  42.921  13.305  13.867
40692W        W 9022  19.723  18.755   5.291
40693W        W 9023  33.975  40.838  10.483
40694W        W 9024   0.451   3.312  10.450
40695W        W 9025   0.409  31.437  12.466
40696W        W 9026  21.182   2.244  13.849
40697W        W 9027  37.008  18.711   0.375
40698W        W 9028  37.008  30.581   0.854
40699W        W 9029   7.233  38.980  12.553
40700W        W 9030  16.314  16.619  11.022
40701W        W 9031  37.563  42.316  13.035
40702W        W 9032  31.556  40.410  12.553
40703W        W 9033  26.618  35.931  12.068
40704W        W 9034  30.972  18.731  13.828
40705W        W 9035  33.036  35.915  13.344
40706W        W 9036  16.220  16.121   1.883
40707W        W 9037  31.468   3.288   2.262
40708W        W 9038  38.521   2.357   2.182
40709W        W 9039  34.600  33.992   4.697
40710W        W 9040   6.326  14.191  10.000
40711W        W 9041   1.402  38.872   0.283
40712W        W 9042  42.866   2.798  12.348
40713W        W 9043  38.498  14.688   3.677
40714W        W 9044  27.943   1.296  14.978
40715W        W 9045  27.456  17.261  11.897
40716W        W 9046  11.797   8.184  12.063
40717W        W 9047  43.283  42.784   4.628
40718W        W 9048  13.831  14.318  12.881
40719W        W 9049   0.385  34.596  11.080
40720W        W 9050  10.805  34.874   4.161
40721W        W 9051   4.729  18.194   4.252
40722W        W 9052   5.916  43.873   4.132
40723W        W 9053  23.693  32.535   4.145
40724W        W 9054  39.858  19.764   1.346
40725W        W 9055  39.505  18.770  10.964
40726W        W 9056  19.692  30.972  11.504
40727W        W 9057  44.906  14.624  14.330
40728W        W 9058   2.394  31.550   4.796
40729W        W 9059   4.252  21.196   0.384
40730W        W 9060  26.616   7.780  12.368
40731W        W 9061   4.771  12.637  11.884
40732W        W 9062  20.028  41.435   1.421
40733W        W 9063  15.725  36.014   0.260
40734W        W 9064  38.884  12.763  14.306
40735W        W 9065  11.637  43.014  12.955
40736W        W 9066  13.330  13.244   4.245
40737W        W 9067   0.289   1.821  13.923
40738W        W 9068   7.863   0.854   4.839
40739W        W 9069  16.080  37.860  14.846
40740W        W 9070   9.735  17.793   2.686
40741W        W 9071  29.431  11.343   4.632
40742W        W 9072  34.086  42.522  11.876
40743W        W 9073  19.149  21.572  12.022
40744W        W 9074   0.335  35.566   0.958
40745W        W 9075  24.662  41.479   0.758
40746W        W 9076  29.000  34.509   9.591
40747W        W 9077  41.976  44.809   1.404
40748W        W 9078  11.828   1.398   1.770
40749W        W 9079  25.157  20.112   1.886
40750W        W 9080   6.207  30.482  11.488
40751W        W 9081  18.610   6.765  12.867
40752W        W 9082  35.410  39.348  13.316
40753W        W 9083   1.799  40.892   0.919
40754W        W 9084  18.660   5.205   0.896
40755W        W 9085  29.659   1.875  10.900
40756W        W 9086  35.587  11.245  11.075
40757W        W 9087  44.772  16.811  12.955
40758W        W 9088  27.054  26.495   3.689
40759W        W 9089  35.910  10.672  11.104
40760W        W 9090   8.786  29.981  10.475
40761W        W 9091   7.900   3.318  13.392
40762W        W 9092  25.015  29.154   3.759
40763W        W 9093  32.140   3.866  10.459
40764W        W 9094  42.828  24.129  14.465
40765W        W 9095   2.337   1.259   2.817
40766W        W 9096  26.041  42.285  14.816
40767W        W 9097   1.907  37.035   4.710
40768W        W 9098  21.197  34.577  13.440
40769W        W 9099  19.658  23.541   2.320
40770W        W 9100  11.690  30.990  10.950
40771W        W 9101  23.136  17.114   2.418
40772W        W 9102  15.749   9.767  12.869
40773W        W 9103   2.755  37.508   0.319
40774W        W 9104  36.900   6.887   0.318
40775W        W 9105   4.324  24.560  14.312
40776W        W 9106  29.540   7.846   0.404
40777W        W 9107   2.844  33.923  11.896
40778W        W 9108  24.219  38.896   2.667
40779W        W 9109   0.852  38.068  13.363
40780W        W 9110  19.774  37.054  14.421
40781W        W 9111  26.957  42.496   0.477
40782W        W 9112   8.776  15.239  10.616
40783W        W 9113  40.821  30.950   2.702
40784W        W 9114  36.489  27.102   0.307
40785W        W 9115  10.229   1.241   1.371
40786W        W 9116  19.204  26.698   2.236
40787W        W 9117  41.036   6.197   2.307
40788W        W 9118   5.893  44.264  12.955
40789W        W 9119  42.024  18.774   1.844
40790W        W 9120   4.250  16.793   3.298
40791W        W 9121   5.920  32.421   4.801
40792W        W 9122  41.455  27.529   4.839
40793W        W 9123  41.476  35.366   2.299
40794W        W 9124  21.552  20.128  13.469
40795W        W 9125   2.381  25.074   4.780
40796W        W 9126  10.784   0.760  13.805
40797W        W 9127  12.304   3.834   2.884
40798W        W 9128  12.638  11.322   3.326
40799W        W 9129  12.645  29.495   4.293
40800W        W 9130   8.345  31.061   0.941
40801W        W 9131  41.320   1.248   2.196
40802W        W 9132  12.640   4.857  10.920
40803W        W 9133   5.380  11.277   3.852
40804W        W 9134  30.577  41.942  12.914
40805W        W 9135  24.184  16.715  12.055
40806W        W 9136  25.628  27.997   2.215
40807W        W 9137  20.575  38.051  13.893
40808W        W 9138  14.702  23.085   0.470
40809W        W 9139  34.871  39.023   5.089
40810W        W 9140  28.159   3.866  13.047
40811W        W 9141  28.668  33.618   1.327
40812W        W 9142  32.564   4.907  12.511
40813W        W 9143  15.638   2.335   4.181
40814W        W 9144   9.333  39.058  10.567
40815W        W 9145  34.403   3.221  13.852
40816W        W 9146  43.279  27.538   1.276
40817W        W 9147   5.205  20.757  10.483
40818W        W 9148  36.470  20.130  13.399
40819W        W 9149   8.732  28.536  14.932
40820W        W 9150  36.475  17.756   0.882
40821W        W 9151  27.191  30.029   3.287
40822W        W 9152   9.808  24.140  11.458
40823W        W 9153   3.867  40.032  11.074
40824W        W 9154  15.612  38.426  11.519
40825W        W 9155  34.004  15.129   1.211
40826W        W 9156  27.999  44.783  11.483
40827W        W 9157  33.450  28.158  13.349
40828W        W 9158   8.693  31.502  13.409
40829W        W 9159  40.986  14.117  14.030
40830W        W 9160  34.929  32.433   3.240
40831W        W 9161   3.832  19.119   4.706
40832W        W 9162  27.476   1.804   2.890
40833W        W 9163   3.747  31.532   3.672
40834W        W 9164  28.646  11.856  13.306
40835W        W 9165   8.289  38.908   2.388
40836W        W 9166  41.029  27.950   0.830
40837W        W 9167  19.149   7.911  13.873
40838W        W 9168  13.768  41.027  11.464
40839W        W 9169   5.723  13.836   4.150
40840W        W 9170  14.187  21.105   1.837
40841W        W 9171  11.629  32.915  12.975
40842W        W 9172  37.554  20.097  12.492
40843W        W 9173  13.159  12.281   1.330
40844W        W 9174  33.452  42.031   0.899
40845W        W 9175  32.518  37.861  13.797
40846W        W 9176   4.385  26.569   2.899
40847W        W 9177  38.537  22.240  12.914
40848W        W 9178  11.354  29.543   2.235
40849W        W 9179  24.136  34.482  10.453
40850W        W 9180  32.547  21.627  12.044
40851W        W 9181  32.402  12.852   3.294
40852W        W 9182  24.095  41.357   0.455
40853W        W 9183  33.510  23.611  11.104
40854W        W 9184  13.642  27.044  11.437
40855W        W 9185  25.576  12.654   1.402
40856W        W 9186  43.893   1.355   4.184
40857W        W 9187   0.957  10.657  10.557
40858W        W 9188  12.776  20.614  13.471
40859W        W 9189   6.416  44.489  14.424
40860W        W 9190  23.702  21.752   0.440
40861W        W 9191  19.216   6.413  14.920
40862W        W 9192  15.178   1.802   0.436
40863W        W 9193  21.547  18.195   0.341
40864W        W 9194  43.460   6.184   3.268
40865W        W 9195  28.972  10.324   4.277
40866W        W 9196  24.622  40.545   1.790
40867W        W 9197  21.252  43.398   3.178
40868W        W 9198  37.547   6.779  12.528
40869W        W 9199  13.105  12.693  10.054
40870W        W 9200   1.815   0.267  13.812
40871W        W 9201  43.432  25.136   0.481
40872W        W 9202   8.203   7.909  10.925
40873W        W 9203   0.960   1.279  13.499
40874W        W 9204  30.050  18.205   4.799
40875W        W 9205  16.243  20.738  14.005
40876W        W 9206  31.087  42.441  13.025
40877W        W 9207  37.527  17.641  11.097
40878W        W 9208  33.618   8.669   4.613
40879W        W 9209  33.548  33.495  11.952
40880W        W 9210  10.293  38.063  12.928
40881W        W 9211   9.347  20.124  12.454
40882W        W 9212  40.479  34.504  10.046
40883W        W 9213   0.289  30.153   2.387
40884W        W 9214   0.470   0.771  12.865
40885W        W 9215   5.774  30.534  13.928
40886W        W 9216  43.882   0.486  11.482
40887W        W 9217  21.705  34.431  10.617
40888W        W 9218  13.110  22.525  14.762
40889W        W 9219  22.149  11.764   3.145
40890W        W 9220  26.978  37.991  11.417
40891W        W 9221   5.845  28.064   1.357
40892W        W 9222  39.894  43.794   0.796
40893W        W 9223  20.557  21.675  12.018
40894W        W 9224  26.517  36.457   0.796
40895W        W 9225  24.161  10.652   0.302
40896W        W 9226  26.640  23.634  14.869
40897W        W 9227  28.115  17.215   2.393
40898W        W 9228   6.371   7.902   0.342
40899W        W 9229  21.573  19.703   4.789
40900W        W 9230  27.558  11.361   2.350
40901W        W 9231   0.761  16.274   4.721
40902W        W 9232  12.243  10.242   2.800
40903W        W 9233  22.144  33.916   0.842
40904W        W 9234   7.275  26.114  14.488
40905W        W 9235  43.884  44.306   0.935
40906W        W 9236  14.629  38.363  12.046
40907W        W 9237   8.660   7.685   4.781
40908W        W 9238  37.440  10.274  14.772
40909W        W 9239  13.308   2.339  12.899
40910W        W 9240   1.447  25.650   4.695
40911W        W 9241  19.573  11.845  10.433
40912W        W 9242  21.254  13.333   0.894
40913W        W 9243  17.136  28.562   3.648
40914W        W 9244  37.569   1.770   2.809
40915W        W 9245   5.362   5.212   1.247
40916W        W 9246  19.130  36.919  13.024
40917W        W 9247   2.767   6.268   2.876
40918W        W 9248  41.839   2.399   2.360
40919W        W 9249  23.221  12.622  11.951
40920W        W 9250   4.438   6.287   0.928
40921W        W 9251  27.617  36.978  11.089
40922W        W 9252  40.339  10.315  10.438
40923W        W 9253  43.932   7.190   2.864
40924W        W 9254   1.967  21.607  10.566
40925W        W 9255  29.100   7.175  14.975
40926W        W 9256  15.672  16.246  11.939
40927W        W 9257  16.685  38.935   2.307
40928W        W 9258   2.391  42.307   1.792
40929W        W 9259  27.998   3.893   4.197
40930W        W 9260  39.047   2.786   3.656
40931W        W 9261  14.835  25.706   3.688
40932W        W 9262  26.974   5.299  14.892
40933W        W 9263  17.062  27.490   0.854
40934W        W 9264  42.867  28.524   1.402
40935W        W 9265  16.257  38.418   3.710
40936W        W 9266  10.235  31.481  14.862
40937W        W 9267  15.661  27.616  12.468
40938W        W 9268   6.711  44.352  11.525
40939W        W 9269  42.525   5.415   4.741
40940W        W 9270  42.855  40.520   3.695
40941W        W 9271  34.118  25.976   1.361
40942W        W 9272   8.739   8.377   3.156
40943W        W 9273  25.468  20.596   3.672
40944W        W 9274  31.512  17.580  13.445
40945W        W 9275  32.557  26.496  12.546
40946W        W 9276  44.450  34.585  12.438
40947W        W 9277  27.169  14.138  12.487
40948W        W 9278   0.943   0.340   4.316
40949W        W 9279   6.250   9.853  11.921
40950W        W 9280  16.772  11.708   4.321
40951W        W 9281  19.647  44.924   1.796
40952W        W 9282  25.992  33.465   2.711
40953W        W 9283   9.719  44.402  10.962
40954W        W 9284  41.901  33.551   4.178
40955W        W 9285   0.372  26.570   3.861
40956W        W 9286   1.242  28.524   1.345
40957W        W 9287  18.580  21.226  13.045
40958W        W 9288  34.960  33.403   4.710
40959W        W 9289  10.711  25.049   3.643
40960W        W 9290  35.405   0.474   3.725
40961W        W 9291  20.274  26.675  13.900
40962W        W 9292  26.007  37.941   3.863
40963W        W 9293  44.868  36.923   2.311
40964W        W 9294  10.242   0.473   4.137
40965W        W 9295   6.906   7.309  13.506
40966W        W 9296   4.725  36.059   2.232
40967W        W 9297   2.912  13.289   4.802
40968W        W 9298  32.959  18.155  12.060
40969W        W 9299  31.402  23.192   0.775
40970W        W 9300  18.102  14.299   0.730
40971W        W 9301  33.933  25.132   2.387
40972W        W 9302   1.365  16.744  10.557
40973W        W 9303  29.430  26.573   1.785
40974W        W 9304  43.956  25.189   4.648
40975W        W 9305   4.940   7.211  13.022
40976W        W 9306  15.162  39.396   2.347
40977W        W 9307   8.837  35.528  12.521
40978W        W 9308  13.659   1.328   4.230
40979W        W 9309  29.090  31.570   0.475
40980W        W 9310  36.446  18.561  12.060
40981W        W 9311   8.689  23.651   3.699
40982W        W 9312   4.388  10.745   2.747
40983W        W 9313  44.005  36.918   1.242
40984W        W 9314  13.711   7.372  11.526
40985W        W 9315   8.659  40.872   1.239
40986W        W 9316  37.989  17.080  14.358
40987W        W 9317  20.101  44.924   1.829
40988W        W 9318   9.740  36.932  12.429
40989W        W 9319  13.304  31.624   4.672
40990W        W 9320  19.285  24.027   5.267
40991W        W 9321   4.824  38.474   0.957
40992W        W 9322  32.140   4.224  11.543
40993W        W 9323  35.561  12.335  13.046
40994W        W 9324  29.137  38.892   2.203
40995W        W 9325  29.453  12.833   1.701
40996W        W 9326   3.945  15.608  12.356
40997W        W 9327  27.522   4.942   0.254
40998W        W 9328  29.612  31.609  10.609
40999W        W 9329  20.557  17.740  11.988
41000W        W 9330  33.996   1.933  12.062
41001W        W 9331  31.001  10.237  14.830
41002W        W 9332  20.273  36.072  10.406
41003W        W 9333  11.250   2.242   4.770
41004W        W 9334  26.457  28.170   2.817
41005W        W 9335  33.403  18.604   2.369
41006W        W 9336  44.848  42.783   3.709
41007W        W 9337  42.461  23.039   2.826
41008W        W 9338  13.784  18.213   2.381
41009W        W 9339  19.647  18.584  10.461
41010W        W 9340   5.883  27.659  13.024
41011W        W 9341  25.151   8.345  11.010
41012W        W 9342  42.898  14.264  11.866
41013W        W 9343   4.819   8.266   3.661
41014W        W 9344  11.263  12.306   2.369
41015W        W 9345  11.855  40.881   3.245
41016W        W 9346  17.613  27.106   1.369
41017W        W 9347  38.567  34.910   3.776
41018W        W 9348  20.142  32.577  14.931
41019W        W 9349  32.399  37.414   2.205
41020W        W 9350  22.234  19.759   5.669
41021W        W 9351  31.097   0.985   3.636
41022W        W 9352  39.941   6.267   1.782
41023W        W 9353  21.529   8.722   0.741
41024W        W 9354  22.026  44.373   0.287
41025W        W 9355   1.907  33.061   1.417
41026W        W 9356  39.892   9.644   3.156
41027W        W 9357  15.298   9.168   2.399
41028W        W 9358  22.595  22.675   4.705
41029W        W 9359  14.748  16.584   3.344
41030W        W 9360  27.142  41.790   0.916
41031W        W 9361  28.556  24.221  12.844
41032W        W 9362  14.338   6.403  10.566
41033W        W 9363  22.623  27.086  10.406
41034W        W 9364  19.151   4.940   3.815
41035W        W 9365  24.656  43.835  13.873
41036W        W 9366   1.390  32.105   1.300
41037W        W 9367  37.422  12.148   3.824
41038W        W 9368   1.368   6.907   1.309
41039W        W 9369  27.969  38.380   1.914
41040W        W 9370  24.524  20.737  13.042
41041W        W 9371  41.992  22.051  12.952
41042W        W 9372  19.771  34.056   0.387
41043W        W 9373   3.327  30.060   4.208
41044W        W 9374  42.316  23.237   4.311
41045W        W 9375  25.477  25.166   4.635
41046W        W 9376  23.725  37.939   1.782
41047W        W 9377  12.136  30.150  13.048
41048W        W 9378  23.522  31.438  12.020
41049W        W 9379   1.827  42.410  10.411
41050W        W 9380  16.124   1.877   2.298
41051W        W 9381  19.721  37.472  11.387
41052W        W 9382  31.996  41.513  12.024
41053W        W 9383  15.793  32.026  12.984
41054W        W 9384  22.059  32.987   0.762
41055W        W 9385  44.421  27.171   2.734
41056W        W 9386   7.413  24.545   2.340
41057W        W 9387   3.822  24.143   2.790
41058W        W 9388  37.549  14.182   3.191
41059W        W 9389  37.958  30.963   1.814
41060W        W 9390  39.395  18.129   0.258
41061W        W 9391  15.159  19.135  12.455
41062W        W 9392  29.650  17.064  11.403
41063W        W 9393  27.535  21.621   1.880
41064W        W 9394  29.005  32.497  13.323
41065W        W 9395  15.783  36.054  12.991
41066W        W 9396  10.150  26.154   1.777
41067W        W 9397  19.118  10.735   2.226
41068W        W 9398  38.913  17.149   0.413
41069W        W 9399  39.515  43.335   3.228
41070W        W 9400  26.475  25.008   1.315
41071W        W 9401   2.726  37.913  10.600
41072W        W 9402   6.838  36.006  14.333
41073W        W 9403  26.165  26.643   0.853
41074W        W 9404  12.355   9.821  14.337
41075W        W 9405  11.801   9.826   3.755
41076W        W 9406  24.723  14.107   2.401
41077W        W 9407   8.240  19.235   3.284
41078W        W 9408  43.769  31.407  13.392
41079W        W 9409  15.695  38.336   3.172
41080W        W 9410   0.327  11.317  12.346
41081W        W 9411   9.652  33.019  12.052
41082W        W 9412  17.597  43.938  11.919
41083W        W 9413  28.597  15.119   2.311
41084W        W 9414  42.335  12.689  12.360
41085W        W 9415  26.623  24.120  14.360
41086W        W 9416  17.145   3.859   1.432
41087W        W 9417  15.677  16.589   5.133
41088W        W 9418  12.182  32.136   2.827
41089W        W 9419   1.354  19.552   4.182
41090W        W 9420  12.856  24.662   2.397
41091W        W 9421  38.059  10.715  11.540
41092W        W 9422  23.209  31.628   1.709
41093W        W 9423  10.173  14.238  14.841
41094W        W 9424  41.446  14.327  11.418
41095W        W 9425  22.155  26.986   2.808
41096W        W 9426  20.673  39.399  10.419
41097W        W 9427  43.765  37.061   0.339
41098W        W 9428  15.742  14.731   5.111
41099W        W 9429  12.270  44.873   0.898
41100W        W 9430  38.832   7.887   9.473
41101W        W 9431  21.168  30.455   1.296
41102W        W 9432  23.690  42.405   4.750
41103W        W 9433   7.825  21.576   0.778
41104W        W 9434   2.403  15.161   2.216
41105W        W 9435  36.574  22.020  14.779
41106W        W 9436   3.709   5.807   3.756
41107W        W 9437  12.135  24.095  12.035
41108W        W 9438   3.822   6.394  12.940
41109W        W 9439  12.666  26.651  14.359
41110W        W 9440  42.400  34.997   4.124
41111W        W 9441   1.931   2.771  11.451
41112W        W 9442   2.317  31.536  13.970
41113W        W 9443  32.521   9.882   2.347
41114W        W 9444  20.064  15.671   9.967
41115W        W 9445  30.538  29.649   0.285
41116W        W 9446   6.262  20.196  13.361
41117W        W 9447   8.274  39.480  12.945
41118W        W 9448  42.526  10.223   3.679
41119W        W 9449  35.032  17.606   3.339
41120W        W 9450  12.762   8.737  14.031
41121W        W 9451  14.159  35.380  10.946
41122W        W 9452  22.085   9.188  14.981
41123W        W 9453  29.057  24.177  10.453
41124W        W 9454   4.860  35.022   1.416
41125W        W 9455  41.806  10.185   3.853
41126W        W 9456  10.810  19.076  10.546
41127W        W 9457  11.834  41.448   1.440
41128W        W 9458  24.121  37.835  14.858
41129W        W 9459  33.499   4.342   1.385
41130W        W 9460   6.311  27.656  14.760
41131W        W 9461  13.619  10.185   3.307
41132W        W 9462  35.484  23.574  11.609
41133W        W 9463  38.968   4.232  13.821
41134W        W 9464  33.436  21.673   2.682
41135W        W 9465  16.718   7.342  14.841
41136W        W 9466  34.439  37.851  14.515
41137W        W 9467   6.819   2.242  14.886
41138W        W 9468   8.668  38.563  12.032
41139W        W 9469  19.108  25.101  12.568
41140W        W 9470  14.687  37.845   4.771
41141W        W 9471  19.763  44.835  11.009
41142W        W 9472   7.665  14.159  12.344
41143W        W 9473  21.029  20.099   4.205
41144W        W 9474  32.063  44.843   0.401
41145W        W 9475  39.015   4.444  11.103
41146W        W 9476  40.011  19.225  11.072
41147W        W 9477  14.153  40.543   0.936
41148W        W 9478  23.489  39.543   3.775
41149W        W 9479  43.965   1.346   1.703
41150W        W 9480  13.612  18.182   1.731
41151W        W 9481  33.911  36.036   3.791
41152W        W 9482  34.101  10.780  13.029
41153W        W 9483  11.864  40.953  12.015
41154W        W 9484   7.294  42.929  14.416
41155W        W 9485  33.620  33.566  11.435
41156W        W 9486  43.295  35.897   2.771
41157W        W 9487   5.861  35.949  10.987
41158W        W 9488   1.356   4.338   4.304
41159W        W 9489  24.612  25.977  11.040
41160W        W 9490  37.928  23.570  11.465
41161W        W 9491  43.504  25.070  11.897
41162W        W 9492  33.466   1.463  14.873
41163W        W 9493  18.089  25.702  10.591
41164W        W 9494  21.564  20.602   4.803
41165W        W 9495  36.093  43.503   4.624
41166W        W 9496  12.278  32.947  12.000
41167W        W 9497  44.005  23.589  14.365
41168W        W 9498  32.463  23.630  12.537
41169W        W 9499  31.444  38.948   1.716
41170W        W 9500  19.137  13.142  12.497
41171W        W 9501  20.077  41.447  10.645
41172W        W 9502  37.979   2.421   1.338
41173W        W 9503   6.366  12.704  10.898
41174W        W 9504   5.835  42.861   5.173
41175W        W 9505  34.067  11.829  13.919
41176W        W 9506  24.114  28.492  13.356
41177W        W 9507  16.762  35.455   3.801
41178W        W 9508  16.078  31.498   2.847
41179W        W 9509  23.152  43.304   3.842
41180W        W 9510  12.844   2.305  13.869
41181W        W 9511  26.167  39.032  14.372
41182W        W 9512  17.629  34.569  14.805
41183W        W 9513  18.254  39.507   1.215
41184W        W 9514  22.064  25.073  10.939
41185W        W 9515  23.072  18.623   4.759
41186W        W 9516  41.486  36.520   3.765
41187W        W 9517  32.553  16.142   1.400
41188W        W 9518  24.091  32.560  12.010
41189W        W 9519  41.394  42.964   4.247
41190W        W 9520  38.949  19.749  13.826
41191W        W 9521  22.544  32.594  13.426
41192W        W 9522  18.629   2.858  14.281
41193W        W 9523  17.104   2.863   3.211
41194W        W 9524   7.750  24.624  11.091
41195W        W 9525  16.286  36.454   2.809
41196W        W 9526  25.598   1.272   3.819
41197W        W 9527   8.675  25.059  13.336
41198W        W 9528  43.269  23.587   0.955
41199W        W 9529  44.396  40.894  12.069
41200W        W 9530  16.780  42.905  10.436
41201W        W 9531  30.544  21.099  12.096
41202W        W 9532   5.905  27.511   3.264
41203W        W 9533  17.208  41.371  10.564
41204W        W 9534  25.072  40.369  11.054
41205W        W 9535  32.983  16.168   4.215
41206W        W 9536  36.031   6.718  13.808
41207W        W 9537  21.723  17.715  12.395
41208W        W 9538  23.635  26.559  11.067
41209W        W 9539  25.013  18.702  13.899
41210W        W 9540  10.331  21.581   0.259
41211W        W 9541  24.694  43.952  14.275
41212W        W 9542  27.612  24.133  10.940
41213W        W 9543   3.770  33.001  13.437
41214W        W 9544  32.101  20.244  13.350
41215W        W 9545  26.140  26.187  13.437
41216W        W 9546   2.965  25.198   0.336
41217W        W 9547  32.600  29.425  10.641
41218W        W 9548  41.488  20.046  12.459
41219W        W 9549  21.628  32.961  11.983
41220W        W 9550   4.344  42.993  13.969
41221W        W 9551  38.326   6.249   5.091
41222W        W 9552   1.737  32.033  10.997
41223W        W 9553  28.032  21.032   5.180
41224W        W 9554   4.243   1.436   2.804
41225W        W 9555   5.406  10.638  10.427
41226W        W 9556   6.229   6.294  13.908
41227W        W 9557   9.173  41.041  13.964
41228W        W 9558  35.468  43.810   0.856
41229W        W 9559  24.654  37.407  13.390
41230W        W 9560  40.905  32.559   2.819
41231W        W 9561  29.653  21.668  13.019
41232W        W 9562  41.508   4.386  14.763
41233W        W 9563  13.794   9.768  11.402
41234W        W 9564  18.671   4.931   0.824
41235W        W 9565  26.537  31.043  11.469
41236W        W 9566  31.405  43.778   2.370
41237W        W 9567  14.227  37.833   3.860
41238W        W 9568  39.360  25.018  10.962
41239W        W 9569   2.791   2.384  12.966
41240W        W 9570  35.856  11.714   1.417
41241W        W 9571   1.973  43.347   4.692
41242W        W 9572  21.571  29.617   3.270
41243W        W 9573  38.874  35.566   2.415
41244W        W 9574   1.883  25.538  11.022
41245W        W 9575   8.162  37.867   4.320
41246W        W 9576  27.975   9.688  12.954
41247W        W 9577  39.894  22.671   2.802
41248W        W 9578  12.802  27.042   0.425
41249W        W 9579  27.563  31.622  12.080
41250W        W 9580  20.680   1.902  13.059
41251W        W 9581  42.510   6.726  12.994
41252W        W 9582   3.908  33.419   9.928
41253W        W 9583  34.991  35.578  10.622
41254W        W 9584   7.781  29.595  10.150
41255W        W 9585  27.624  29.132  12.415
41256W        W 9586  40.925   7.395   2.667
41257W        W 9587   3.349  14.597   4.694
41258W        W 9588   3.821  34.121  14.798
41259W        W 9589   4.887   2.785  13.355
41260W        W 9590  30.124  36.919  12.953
41261W        W 9591  17.162  13.200  11.432
41262W        W 9592  44.888  37.429  13.504
41263W        W 9593  28.116  11.713  10.159
41264W        W 9594  30.637  36.445   4.175
41265W        W 9595  23.532  20.754   4.283
41266W        W 9596  39.340  39.931   2.182
41267W        W 9597  38.895  21.084   3.215
41268W        W 9598  37.879   8.734   4.828
41269W        W 9599   7.877  24.096  13.464
41270W        W 9600  38.849  27.119   4.723
41271W        W 9601  19.127   4.233  12.874
41272W        W 9602  28.602  29.129   4.817
41273W        W 9603  19.579   2.880   1.425
41274W        W 9604  24.668  40.810  12.413
41275W        W 9605  36.471  25.983  10.589
41276W        W 9606  38.542   3.217  12.485
41277W        W 9607   2.284   4.785   1.915
41278W        W 9608  14.664  23.720   1.379
41279W        W 9609  23.005  28.485   2.224
41280W        W 9610  19.701  14.812   4.272
41281W        W 9611  41.804  23.038  12.853
41282W        W 9612  15.734  10.206   3.171
41283W        W 9613   5.855  15.238   0.295
41284W        W 9614  23.621  39.330  13.429
41285W        W 9615  44.964  13.318  11.564
41286W        W 9616  34.950  22.643  10.062
41287W        W 9617   8.236  32.464   2.676
41288W        W 9618  36.847  16.678  11.999
41289W        W 9619  26.203  15.742   1.275
41290W        W 9620   0.787  28.501  14.300
41291W        W 9621  31.520  25.547  14.292
41292W        W 9622  40.826  10.242  11.409
41293W        W 9623   7.223  11.844   3.847
41294W        W 9624  17.677  42.838  12.037
41295W        W 9625  14.696  32.526  12.029
41296W        W 9626   2.741  28.935  11.413
41297W        W 9627  37.393   0.828  12.841
41298W        W 9628   9.187  16.637  10.522
41299W        W 9629  18.100   9.387  14.404
41300W        W 9630   3.427  24.569   0.819
41301W        W 9631  41.334  19.730   4.119
41302W        W 9632  33.514  21.237  11.554
41303W        W 9633  18.275   8.235   4.655
41304W        W 9634  25.043  14.267   3.382
41305W        W 9635   8.304  34.113   3.846
41306W        W 9636  43.291  42.356   0.419
41307W        W 9637  31.592  22.167  14.929
41308W        W 9638  34.499  14.175   0.922
41309W        W 9639  16.183  37.843  11.990
41310W        W 9640  20.190  10.202  13.056
41311W        W 9641  17.073  33.599   0.924
41312W        W 9642  25.668  28.148  14.851
41313W        W 9643  28.092  37.426   3.642
41314W        W 9644  35.910   2.227  13.379
41315W        W 9645  25.979  13.678  14.782
41316W        W 9646  32.902  26.166  11.456
41317W        W 9647  27.555  42.996  12.014
41318W        W 9648  28.130  17.282   0.289
41319W        W 9649   4.929   6.702   2.309
41320W        W 9650  38.435  28.589  12.522
41321W        W 9651  25.057   2.309  13.853
41322W        W 9652  41.814   8.405  14.909
41323W        W 9653  36.049   6.362   2.397
41324W        W 9654  20.076  19.654   3.156
41325W        W 9655  18.608  42.396   0.328
41326W        W 9656  43.285   0.326   2.664
41327W        W 9657   5.407  32.064   4.750
41328W        W 9658  13.821  17.230  14.827
41329W        W 9659   5.878  10.658  13.468
41330W        W 9660  11.832  13.159   0.752
41331W        W 9661  30.428  34.534  10.575
41332W        W 9662  27.061  39.045   1.334
41333W        W 9663  35.900  29.532  11.541
41334W        W 9664  19.160   9.206   1.890
41335W        W 9665   8.275  10.792   3.830
41336W        W 9666  26.646   1.420   0.446
41337W        W 9667  17.795  23.544   5.283
41338W        W 9668  22.172  31.623   4.712
41339W        W 9669   4.728   5.852   4.243
41340W        W 9670  22.127  44.981  13.887
41341W        W 9671   3.365  19.694   2.324
41342W        W 9672   1.747  14.216   1.404
41343W        W 9673  13.638  12.735  14.292
41344W        W 9674  26.470  28.623   1.750
41345W        W 9675   1.431  32.049   4.704
41346W        W 9676   7.218  31.927  12.960
41347W        W 9677  29.035  18.248  14.276
41348W        W 9678  20.611  13.777   2.380
41349W        W 9679  31.975  31.035  13.324
41350W        W 9680  14.105  44.290  12.425
41351W        W 9681  11.648  12.220  14.464
41352W        W 9682   2.367   4.786  11.560
41353W        W 9683  24.702  33.056   0.247
41354W        W 9684   6.259   6.685   3.675
41355W        W 9685  14.725  42.911  12.923
41356W        W 9686   2.268  22.527  10.574
41357W        W 9687  17.755  44.804   2.760
41358W        W 9688  28.473  44.892   4.732
41359W        W 9689  25.698  28.962  12.031
41360W        W 9690  30.438  43.893  14.343
41361W        W 9691  28.186  36.022  11.028
41362W        W 9692  27.967  12.756   4.704
41363W        W 9693   5.710  34.942   3.160
41364W        W 9694   1.928  42.845  12.464
41365W        W 9695  36.391  39.513  12.006
41366W        W 9696  39.401  13.305  13.888
41367W        W 9697  37.051  29.108  14.935
41368W        W 9698  14.178   6.321  13.437
41369W        W 9699  25.608  19.106  14.514
41370W        W 9700   5.277  38.453  11.383
41371W        W 9701  14.201  43.988   0.757
41372W        W 9702  42.864   1.966  11.908
41373W        W 9703  14.735  34.493  14.855
41374W        W 9704  43.975  37.021   3.753
41375W        W 9705  36.937  39.926  11.530
41376W        W 9706  18.062   7.310   4.229
41377W        W 9707  44.447  21.128  10.921
41378W        W 9708  14.215  13.755   3.341
41379W        W 9709  21.118  23.041  13.796
41380W        W 9710  30.450  13.170  14.478
41381W        W 9711  32.922   9.672   1.872
41382W        W 9712  43.463  31.017  13.373
41383W        W 9713   2.390  14.698   1.821
41384W        W 9714  36.904  44.772  12.454
41385W        W 9715  34.589  25.591  12.495
41386W        W 9716  30.927  36.364  14.295
41387W        W 9717  16.226  39.827   5.207
41388W        W 9718  32.615  15.279   2.312
41389W        W 9719  36.972  20.537   2.885
41390W        W 9720   3.874  41.379   1.812
41391W        W 9721   2.416  42.797   4.703
41392W        W 9722  38.474  43.455  13.374
41393W        W 9723   6.412  39.907   0.355
41394W        W 9724  43.326   8.307   2.191
41395W        W 9725  26.100  35.067   1.351
41396W        W 9726   8.855  17.704   4.295
41397W        W 9727  31.548  38.434   0.757
41398W        W 9728   2.888   2.929   0.427
41399W        W 9729  12.840  33.614   2.762
41400W        W 9730   5.228   3.895  11.041
41401W        W 9731  34.417  17.275  12.059
41402W        W 9732  31.973  21.579  14.946
41403W        W 9733  13.171   3.334  13.389
41404W        W 9734  30.531  18.631  13.979
41405W        W 9735   1.440  34.394  14.004
41406W        W 9736   9.868  10.353  12.356
41407W        W 9737   3.723   1.751   2.772
41408W        W 9738  21.718   8.348   2.231
41409W        W 9739   4.306  13.336   2.178
41410W        W 9740  10.869   0.416   3.827
41411W        W 9741  41.312   6.908   3.679
41412W        W 9742  10.238   9.796   2.275
41413W        W 9743  26.597  10.827  14.838
41414W        W 9744  32.459  39.351  14.282
41415W        W 9745  11.742  44.337   2.281
41416W        W 9746  29.135  37.479  11.051
41417W        W 9747   1.278  25.094  13.367
41418W        W 9748  15.797  28.182  11.069
41419W        W 9749  33.521   0.344  10.420
41420W        W 9750  23.125  39.941   2.739
41421W        W 9751  42.938  24.661   0.252
41422W        W 9752  17.752  25.995   2.202
41423W        W 9753  15.257  32.056  13.386
41424W        W 9754  32.096  35.409   0.359
41425W        W 9755  13.151  41.459   0.748
41426W        W 9756  25.590  25.057  12.956
41427W        W 9757  31.629  43.011  11.528
41428W        W 9758  17.212  21.614  12.411
41429W        W 9759  37.933  42.905   4.296
41430W        W 9760  23.001  29.057  11.962
41431W        W 9761  19.591  29.572   4.786
41432W        W 9762  17.792   9.235  12.899
41433W        W 9763  40.336   6.257   0.892
41434W        W 9764  41.041  15.223   2.671
41435W        W 9765  12.200  34.431   3.245
41436W        W 9766  36.942   9.692  12.891
41437W        W 9767  14.752  43.312  11.907
41438W        W 9768  17.708  18.060  13.052
41439W        W 9769   1.799  34.443  14.412
41440W        W 9770  41.032  34.008   0.805
41441W        W 9771   9.212   2.937  13.507
41442W        W 9772   3.915  18.145  12.954
41443W        W 9773  18.167  42.316  14.836
41444W        W 9774   4.804   0.348  11.498
41445W        W 9775  10.713   6.857   2.716
41446W        W 9776  27.040  33.530   1.450
41447W        W 9777  16.747   7.214   0.469
41448W        W 9778  16.247  22.064   3.172
41449W        W 9779  33.518   9.342  14.413
41450W        W 9780  21.187   3.322  11.860
41451W        W 9781  18.106   1.240   4.321
41452W        W 9782  41.825   5.278  10.513
41453W        W 9783  22.115  38.373  10.442
41454W        W 9784  38.913  42.470   4.282
41455W        W 9785  24.098  32.074   3.666
41456W        W 9786  31.897  19.128  10.643
41457W        W 9787  30.640  40.052   3.775
41458W        W 9788  19.213  21.022  12.474
41459W        W 9789   5.884  44.851  10.579
41460W        W 9790  35.491  31.625  14.327
41461W        W 9791  15.193  37.387   0.868
41462W        W 9792  40.368  24.627  14.782
41463W        W 9793  14.273  12.166   3.374
41464W        W 9794  33.946   9.885  13.443
41465W        W 9795  26.668  12.296  13.544
41466W        W 9796  23.701   7.821  10.457
41467W        W 9797  39.368  43.849   2.864
41468W        W 9798  10.871   6.282  13.893
41469W        W 9799  17.077   6.685   0.850
41470W        W 9800  32.897  34.901   4.182
41471W        W 9801  32.065   2.257  13.868
41472W        W 9802  24.560  26.530   3.313
41473W        W 9803  43.334  42.922   1.872
41474W        W 9804   3.318   6.833   3.252
41475W        W 9805  43.357  17.100   3.796
41476W        W 9806  36.921  28.162  12.892
41477W        W 9807  41.960  39.886  11.513
41478W        W 9808   0.946  33.394   1.902
41479W        W 9809   7.255   3.719  11.484
41480W        W 9810  30.511   2.813  13.405
41481W        W 9811   4.795  29.140   3.725
41482W        W 9812  19.072   2.851   0.343
41483W        W 9813  44.825  13.765  11.395
41484W        W 9814  38.841   0.989  11.919
41485W        W 9815  32.984  20.035   2.299
41486W        W 9816  24.181  28.640  14.415
41487W        W 9817  24.080  17.159   4.158
41488W        W 9818  40.541   8.191  14.014
41489W        W 9819  41.359   2.273   0.748
41490W        W 9820  18.710  24.152   4.240
41491W        W 9821  29.441   9.284  12.542
41492W        W 9822  12.669  36.965  10.604
41493W        W 9823  26.076  27.638   1.249
41494W        W 9824   1.278  10.861   4.253
41495W        W 9825  32.630   3.381   1.776
41496W        W 9826  27.062  29.609   1.270
41497W        W 9827  23.157  43.940  12.979
41498W        W 9828  13.703  40.323  11.872
41499W        W 9829   3.269  43.295   1.420
41500W        W 9830  32.053   7.241   4.172
41501W        W 9831  11.639  10.765   1.345
41502W        W 9832  43.915  27.669  14.029
41503W        W 9833  44.268  14.271  12.558
41504W        W 9834  40.044  14.817  12.087
41505W        W 9835  37.086  32.904   4.169
41506W        W 9836   8.682  33.879   3.635
41507W        W 9837  17.601  34.380  10.555
41508W        W 9838  21.051  14.830   0.404
41509W        W 9839  17.676  22.075  10.049
41510W        W 9840  41.312  44.468   3.731
41511W        W 9841   7.319  32.481  12.391
41512W        W 9842  20.629  33.948  10.951
41513W        W 9843   0.815   8.682   1.733
41514W        W 9844  43.971   2.310   4.641
41515W        W 9845   9.747  28.556  13.416
41516W        W 9846  40.479  12.355   1.390
41517W        W 9847  38.341   2.907  13.484
41518W        W 9848   1.913  36.902  14.859
41519W        W 9849  24.478  40.986  14.897
41520W        W 9850   2.435  22.216   1.339
41521W        W 9851  29.644  34.453   0.796
41522W        W 9852   5.706  38.561   1.717
41523W        W 9853  27.997  31.589   9.540
41524W        W 9854   9.868   9.316   0.428
41525W        W 9855   6.741   9.650  10.556
41526W        W 9856  34.019  33.998   1.815
41527W        W 9857  39.984   8.397  11.439
41528W        W 9858  37.550  17.191   4.643
41529W        W 9859   2.447  24.646  13.939
41530W        W 9860  27.544  10.781  13.875
41531W        W 9861  17.747  18.764  12.935
41532W        W 9862  35.884  25.129   2.245
41533W        W 9863  21.193  38.333  11.015
41534W        W 9864  28.057  33.416   3.360
41535W        W 9865  24.593  16.811   0.399
41536W        W 9866   8.852  11.759  11.007
41537W        W 9867  39.314  41.793  13.842
41538W        W 9868   8.287  34.098   2.213
41539W        W 9869  25.081   6.270   4.154
41540W        W 9870  16.691  23.066   9.628
41541W        W 9871  36.034  42.469  11.951
41542W        W 9872  17.198   1.951   4.155
41543W        W 9873  11.831  19.068  12.898
41544W        W 9874  17.154  34.008  12.560
41545W        W 9875  33.529  39.038  11.587
41546W        W 9876  11.791  12.791   1.749
41547W        W 9877   4.710  22.199   3.845
41548W        W 9878  18.215  44.813  13.882
41549W        W 9879  18.246  23.551   4.222
41550W        W 9880  41.491  17.622   1.883
41551W        W 9881  22.166  26.992   3.694
41552W        W 9882  17.744  37.367  11.115
41553W        W 9883  17.170   9.365   0.937
41554W        W 9884  17.708  35.082   4.285
41555W        W 9885   3.755  41.909  14.494
41556W        W 9886  17.184  36.554  10.938
41557W        W 9887  37.338  20.728   3.195
41558W        W 9888  16.295  32.524  13.390
41559W        W 9889   6.272  38.000  10.511
41560W        W 9890   6.208  40.330   0.744
41561W        W 9891  34.036  44.767  12.068
41562W        W 9892   3.279   9.354  14.389
41563W        W 9893  35.516  33.479   4.734
41564W        W 9894  34.534   7.843   3.173
41565W        W 9895   9.747  35.591   4.240
41566W        W 9896  29.920  19.099   0.800
41567W        W 9897  36.011   1.962  12.362
41568W        W 9898  37.876  20.151  14.787
41569W        W 9899  38.528  41.346  12.049
41570W        W 9900   0.354  35.901  11.984
41571W        W 9901  15.117  42.414   3.288
41572W        W 9902  14.147   7.256  10.928
41573W        W 9903  35.539  21.235   4.240
41574W        W 9904  28.178   3.808   0.373
41575W        W 9905  27.028  11.152  12.397
41576W        W 9906  19.206   0.744  12.443
41577W        W 9907  22.148  14.814   2.811
41578W        W 9908   4.887   2.861   2.682
41579W        W 9909  40.307  19.098   3.284
41580W        W 9910  41.484  25.703   1.365
41581W        W 9911  16.765  35.018  14.509
41582W        W 9912  38.432  20.711   1.239
41583W        W 9913   6.212  25.014   3.665
41584W        W 9914   9.849  18.191   4.605
41585W        W 9915  43.434  35.917  11.445
41586W        W 9916  14.664  27.143   1.247
41587W        W 9917  28.043  17.681  14.774
41588W        W 9918  34.883  42.983  11.530
41589W        W 9919   8.389   3.862   0.469
41590W        W 9920   1.453  33.064  12.465
41591W        W 9921  38.465  40.943   3.351
41592W        W 9922  21.212  11.669   3.679
41593W        W 9923   5.396   8.813  14.982
41594W        W 9924  43.481  44.905  11.078
41595W        W 9925  33.982   9.740   0.860
41596W        W 9926  26.026  42.353   3.774
41597W        W 9927  23.179  15.094   0.435
41598W        W 9928  34.045  20.252  11.892
41599W        W 9929   5.809  26.190   1.761
41600W        W 9930  32.981  40.817   3.798
41601W        W 9931  41.527   4.922   0.837
41602W        W 9932   4.787  33.085  11.020
41603W        W 9933  23.607  12.147  14.023
41604W        W 9934  32.099  15.609   5.168
41605W        W 9935  12.356  17.762   0.810
41606W        W 9936   3.907  27.538  12.450
41607W        W 9937  24.559   4.361  13.036
41608W        W 9938  24.117  23.659  10.035
41609W        W 9939  19.097  12.646  14.885
41610W        W 9940  39.347  25.000   4.832
41611W        W 9941  26.197  10.746   2.856
41612W        W 9942   9.255  38.861   1.744
41613W        W 9943  21.516   7.751   4.656
41614W        W 9944  35.526  33.577  14.768
41615W        W 9945  42.288  26.016  14.966
41616W        W 9946  16.617  22.669  11.929
41617W        W 9947  28.066  20.152  12.521
41618W        W 9948  20.129  29.138  13.803
41619W        W 9949  44.792  13.641   2.814
41620W        W 9950  27.633   8.660  14.385
41621W        W 9951  11.350  29.585  12.923
41622W        W 9952  36.931  31.642   0.408
41623W        W 9953  32.606  23.689   9.958
41624W        W 9954  35.421   3.288  14.430
41625W        W 9955  14.683  12.716  11.493
41626W        W 9956  21.132  39.911  12.365
41627W        W 9957  33.036  31.123  12.055
41628W        W 9958  30.584   0.979  13.439
41629W        W 9959  18.213  27.582  14.469
41630W        W 9960  35.091  44.342   2.204
41631W        W 9961  30.525  37.004  11.582
41632W        W 9962  23.704  43.962  10.557
41633W        W 9963   2.249  36.385  13.360
41634W        W 9964  11.265  27.020   1.747
41635W        W 9965   5.852  41.921   0.404
41636W        W 9966  43.395  13.119   0.921
41637W        W 9967   8.718  21.247   2.204
41638W        W 9968  35.448   3.911   0.955
41639W        W 9969  41.011  11.257   4.822
41640W        W 9970   5.277  10.796  13.459
41641W        W 9971  41.806  14.774  10.554
41642W        W 9972  12.836   4.796  14.333
41643W        W 9973  34.003  27.119   2.800
41644W        W 9974  16.684  41.917  11.524
41645W        W 9975  11.282  14.612   4.230
41646W        W 9976  28.989  35.045  10.955
41647W        W 9977   5.429  24.061   0.810
41648W        W 9978   9.240   1.297  14.988
41649W        W 9979  42.795  24.104   3.801
41650W        W 9980  12.784  15.201  12.461
41651W        W 9981   1.456  28.587   3.166
41652W        W 9982   3.221  41.411  11.424
41653W        W 9983  20.714  18.687   3.749
41654W        W 9984  40.958  21.647   1.698
41655W        W 9985  36.085   6.923   2.379
41656W        W 9986  31.118  35.927   2.706
41657W        W 9987  32.049   1.375   4.736
41658W        W 9988  27.062  29.470  10.403
41659W        W 9989  14.802   4.413  14.971
41660W        W 9990  38.511  22.096   0.775
41661W        W 9991   7.678  19.258   1.331
41662W        W 9992  38.923  43.900   4.130
41663W        W 9993  13.227   5.909  14.479
41664W        W 9994   0.988  12.258   2.765
41665W        W 9995   9.713  18.736  13.002
41666W        W 9996  22.504  41.797   3.309
41667W        W 9997  11.851  18.062  12.572
41668W        W 9998   8.320  13.811  13.025
41669W        W 9999  13.241  16.114   3.356
41670W        W10000  27.174  34.569  11.063
41671W        W10001  40.827  37.867   0.271
41672W        W10002  39.501  36.972  10.531
41673W        W10003  24.498   5.908   1.284
41674W        W10004  41.413  21.175  10.414
41675W        W10005  30.922   3.423   0.730
41676W        W10006  12.687  17.120  11.052
41677W        W10007  29.448  24.594  10.489
41678W        W10008  40.818  22.063  14.950
41679W        W10009  20.149  33.948  14.385
41680W        W10010  34.942   4.701  13.033
41681W        W10011  38.564  15.229   2.787
41682W        W10012  24.121  31.412   4.598
41683W        W10013  36.576  25.467   4.752
41684W        W10014  40.939   2.392  11.430
41685W        W10015  20.749  17.687  13.882
41686W        W10016  43.794  18.231  13.935
41687W        W10017  18.652  38.867   9.977
41688W        W10018  29.462   2.896   3.250
41689W        W10019  27.176  42.391   2.798
41690W        W10020  23.571  17.282   4.152
41691W        W10021   9.223  30.465  11.107
41692W        W10022  24.089  42.469  10.512
41693W        W10023  24.589  12.321   3.852
41694W        W10024  24.658  36.372   3.855
41695W        W10025   5.752  30.911   4.737
41696W        W10026  28.604   0.791   2.722
41697W        W10027   9.332   9.762   2.276
41698W        W10028  28.011  25.688  13.310
41699W        W10029  21.225  21.665  12.036
41700W        W10030  16.104  20.117  14.446
41701W        W10031  44.272   3.381  13.326
41702W        W10032  33.878  31.923  11.474
41703W        W10033  22.223  24.231   2.288
41704W        W10034  15.793  33.549  13.943
41705W        W10035  11.805  17.754   3.152
41706W        W10036   7.229  38.545   3.658
41707W        W10037  38.440   1.401   3.768
41708W        W10038   0.324   1.800  12.065
41709W        W10039  13.808  35.387   4.190
41710W        W10040  41.851  44.396   2.820
41711W        W10041  34.012   8.251   2.751
41712W        W10042   9.792   0.250   0.842
41713W        W10043  42.504   0.402  13.456
41714W        W10044  31.048  12.162   3.182
41715W        W10045  23.651  39.900   0.804
41716W        W10046  42.479  37.464  14.436
41717W        W10047  11.725  34.413  13.956
41718W        W10048   8.841  12.179  10.623
41719W        W10049  42.775  15.094   2.246
41720W        W10050  32.396   6.763  10.980
41721W        W10051  10.288  17.794   4.331
41722W        W10052  36.482  25.545  14.018
41723W        W10053   8.825  13.170  12.852
41724W        W10054   7.744  17.118   4.708
41725W        W10055  42.957  35.441  12.026
41726W        W10056  17.142  34.976   1.387
41727W        W10057  29.964  16.110   4.698
41728W        W10058  41.367  20.230  14.306
41729W        W10059   2.345  33.912   2.295
41730W        W10060  35.461   4.819   4.631
41731W        W10061  34.030  39.047  13.381
41732W        W10062  17.593  17.198   4.343
41733W        W10063  18.184  25.592   9.991
41734W        W10064   4.423  44.293   0.396
41735W        W10065  28.559  37.516  12.838
41736W        W10066  13.723  18.173  12.474
41737W        W10067  28.609  36.908  11.058
41738W        W10068  34.988  21.076   2.205
41739W        W10069  26.570  17.654   2.307
41740W        W10070  24.143  35.925  11.899
41741W        W10071  13.786   4.391   3.646
41742W        W10072  34.940   5.830   1.296
41743W        W10073  17.297  24.664  10.004
41744W        W10074   1.792  36.013   3.639
41745W        W10075  18.555   1.404  12.966
41746W        W10076  33.118  44.890  12.939
41747W        W10077  25.003  27.599   2.262
41748W        W10078  28.666  14.716  10.534
41749W        W10079  36.910   1.280  13.444
41750W        W10080  38.330  39.032  10.047
41751W        W10081  31.586  11.725   0.362
41752W        W10082  37.058  33.385  10.898
41753W        W10083  24.993  17.132   1.808
41754W        W10084  23.018  35.955   2.391
41755W        W10085  13.773  20.745   2.782
41756W        W10086  39.055  20.223   0.291
41757W        W10087  40.429  34.115  11.082
41758W        W10088  35.001  19.248  14.310
41759W        W10089  20.755  27.473  13.007
41760W        W10090  10.247  23.241   4.741
41761W        W10091  41.027  28.158   4.321
41762W        W10092  43.944  34.393  11.971
41763W        W10093  16.722  32.589   3.750
41764W        W10094  32.948   4.237  11.943
41765W        W10095  27.004  10.788   0.433
41766W        W10096  31.012  44.980   4.757
41767W        W10097  42.489  11.773  11.375
41768W        W10098   9.673   5.254   0.766
41769W        W10099  39.363   5.725   5.194
41770W        W10100  21.066  29.017   0.877
41771W        W10101  22.718   1.851   2.698
41772W        W10102  16.172  31.541  14.351
41773W        W10103  34.969  10.717  11.974
41774W        W10104  44.278  40.041  14.384
41775W        W10105  22.679  37.047  10.551
41776W        W10106  40.010  32.552  14.907
41777W        W10107  17.170  12.764   2.749
41778W        W10108  34.588   3.923  13.879
41779W        W10109  42.998  20.556  10.977
41780W        W10110   2.731  13.312  12.387
41781W        W10111  22.024   4.359  12.502
41782W        W10112  18.189  32.918   2.365
41783W        W10113   4.815  31.919   5.261
41784W        W10114   1.781   0.952   3.844
41785W        W10115  36.531  22.251   0.398
41786W        W10116  29.532  19.713   1.920
41787W        W10117   8.867  33.610  14.420
41788W        W10118  27.559  19.184   2.185
41789W        W10119  17.092  28.459  12.455
41790W        W10120   9.279  26.663  12.559
41791W        W10121  13.732   1.289   0.280
41792W        W10122  20.092   6.343   0.276
41793W        W10123   4.803  42.800  10.577
41794W        W10124   9.255  11.663  11.521
41795W        W10125  36.582   4.870  13.353
41796W        W10126  30.639   3.342   2.805
41797W        W10127  20.080  44.428   2.860
41798W        W10128   5.288  40.398   4.633
41799W        W10129  23.096  18.286   3.725
41800W        W10130  23.216   6.367   2.400
41801W        W10131  44.968  32.501   3.655
41802W        W10132   4.311   0.281  10.902
41803W        W10133   2.329  31.150   2.409
41804W        W10134  38.852  37.918  10.004
41805W        W10135  24.628   1.240   4.312
41806W        W10136  30.943  41.437   1.211
41807W        W10137  36.057  14.276   1.809
41808W        W10138  24.051  24.531   1.925
41809W        W10139  44.285  29.444  12.478
41810W        W10140  25.692  41.338   3.835
41811W        W10141   2.296  41.948   1.313
41812W        W10142  14.327  20.585   4.722
41813W        W10143  31.414  33.587  14.960
41814W        W10144  33.537  40.324  11.426
41815W        W10145   7.729  40.484   1.815
41816W        W10146  27.947  11.643   1.389
41817W        W10147  14.288  33.502  12.413
41818W        W10148  26.672  29.564   5.300
41819W        W10149  16.648  20.200  15.000
41820W        W10150  29.539   9.812  11.418
41821W        W10151  38.368  13.648   4.621
41822W        W10152   4.741   1.827  13.967
41823W        W10153   2.825  36.448   5.175
41824W        W10154  44.945  42.899   2.738
41825W        W10155  26.157  41.909  12.954
41826W        W10156  36.538  20.538   1.272
41827W        W10157  27.001   3.328   5.150
41828W        W10158  17.250  24.984   5.130
41829W        W10159  41.878  24.176   1.872
41830W        W10160  31.056  39.027   9.926
41831W        W10161  26.126  26.647   4.794
41832W        W10162   4.897  34.374   2.310
41833W        W10163  27.495  29.477   3.241
41834W        W10164  13.116  26.684   5.124
41835W        W10165  21.633  43.388   0.402
41836W        W10166  24.106  26.070  13.930
41837W        W10167  12.692  30.007   0.381
41838W        W10168  12.235   9.727   1.279
41839W        W10169  23.148  21.698  12.041
41840W        W10170   5.827  18.546  11.547
41841W        W10171  39.362   3.271  14.760
41842W        W10172  39.543  25.586  14.405
41843W        W10173  10.359  42.461  11.882
41844W        W10174   9.762  27.544  11.400
41845W        W10175  23.522   2.305   3.635
41846W        W10176  37.488  13.161  10.465
41847W        W10177   0.369  44.823  14.954
41848W        W10178  10.288  15.772  14.449
41849W        W10179  16.610  23.987   3.671
41850W        W10180   2.787   2.423  11.079
41851W        W10181  11.134  41.332  14.842
41852W        W10182  24.668  31.006  14.436
41853W        W10183  23.692   0.483  14.466
41854W        W10184  36.071  34.399  12.995
41855W        W10185  17.628  43.348  13.390
41856W        W10186  13.658  18.206  11.538
41857W        W10187  27.987  22.643   2.315
41858W        W10188   4.286  10.851  10.966
41859W        W10189  33.584  19.125   3.202
41860W        W10190  11.363  15.199  10.980
41861W        W10191  41.019  33.065  13.307
41862W        W10192  31.896  13.313  11.915
41863W        W10193  10.339  35.981  14.435
41864W        W10194  44.352  31.407  12.530
41865W        W10195  39.433  15.249  13.461
41866W        W10196  27.519  43.764   2.875
41867W        W10197  42.286  10.144  11.921
41868W        W10198   5.805  23.717  12.501
41869W        W10199  28.929  20.124  11.543
41870W        W10200  27.656   2.964  13.034
41871W        W10201  38.853  33.958  12.502
41872W        W10202  34.537  33.960   2.272
41873W        W10203   3.955   6.380  13.447
41874W        W10204  30.098  27.191   4.318
41875W        W10205   7.303  18.691   2.284
41876W        W10206  15.256   5.794   0.397
41877W        W10207  38.041  21.204  14.850
41878W        W10208  28.006  19.602  12.007
41879W        W10209  24.207   3.424   2.865
41880W        W10210   9.264   3.216   1.701
41881W        W10211  21.526  32.066  10.642
41882W        W10212  18.690  22.535  11.039
41883W        W10213  17.603  19.765  14.030
41884W        W10214  29.988   9.811  14.878
41885W        W10215  22.719  23.054  14.773
41886W        W10216   7.206  42.290   3.233
41887W        W10217  19.765   0.331   9.924
41888W        W10218  11.144  32.063   1.747
41889W        W10219   1.338  18.155   4.824
41890W        W10220  29.496  21.217  11.455
41891W        W10221  15.183   8.863  14.323
41892W        W10222  13.702   8.291   3.858
41893W        W10223  32.058  18.171  10.463
41894W        W10224  35.895  13.619   2.808
41895W        W10225  33.480  24.171  11.002
41896W        W10226   7.721   8.345  11.564
41897W        W10227   8.385  15.598  10.562
41898W        W10228  25.676   2.725  12.531
41899W        W10229  43.782  25.177   0.880
41900W        W10230  42.405  38.014   4.332
41901W        W10231  18.574  10.335  11.107
41902W        W10232  37.389  31.007   5.295
41903W        W10233  43.016  31.962   0.423
41904W        W10234   9.276  41.419   4.783
41905W        W10235  17.223  23.644  12.563
41906W        W10236  32.102  11.209   4.687
41907W        W10237  21.231  26.480  10.011
41908W        W10238  17.248   6.335   1.913
41909W        W10239  41.827   2.808  12.897
41910W        W10240  22.524  20.229  10.571
41911W        W10241  22.016  33.924   1.443
41912W        W10242   3.887  11.718   4.193
41913W        W10243  27.497  32.960   2.390
41914W        W10244  36.419  17.774  13.848
41915W        W10245  36.439  38.386  11.438
41916W        W10246  16.284  22.628   1.446
41917W        W10247   5.806  44.755   4.781
41918W        W10248  10.737   6.359  10.948
41919W        W10249   8.253  33.902   4.163
41920W        W10250  26.990  14.168  14.007
41921W        W10251  34.025  36.084  12.515
41922W        W10252  21.186  29.632  10.099
41923W        W10253  40.010  31.612   2.820
41924W        W10254  13.780  12.661   2.315
41925W        W10255  40.542  20.524  11.076
41926W        W10256  28.066  28.444   0.880
41927W        W10257  13.635  15.653   4.821
41928W        W10258  39.383  42.856   4.294
41929W        W10259  22.607  23.685   3.750
41930W        W10260   2.772  35.388   4.796
41931W        W10261  19.154  30.094   0.795
41932W        W10262  10.677  31.967   3.864
41933W        W10263   8.855   8.669  14.846
41934W        W10264  39.461  39.362   1.838
41935W        W10265   9.877  35.416   3.675
41936W        W10266  44.909  11.673   1.785
41937W        W10267  15.585  28.091   1.806
41938W        W10268  15.755  25.526   3.724
41939W        W10269  19.643   4.893   4.246
41940W        W10270  34.533  23.227   2.263
41941W        W10271  33.929  20.217  12.407
41942W        W10272  32.948   5.855  14.874
41943W        W10273  37.942   0.355   1.329
41944W        W10274  14.305  34.550   4.653
41945W        W10275  15.265  29.113  11.059
41946W        W10276  24.612   0.322   1.249
41947W        W10277  44.421  37.896   3.321
41948W        W10278  37.907   4.867  12.525
41949W        W10279  12.132  17.097   1.224
41950W        W10280  30.010  41.965   1.834
41951W        W10281  22.999  20.757  13.812
41952W        W10282  31.097   6.325   3.361
41953W        W10283  28.474  24.060  10.531
41954W        W10284  12.193  23.074  13.383
41955W        W10285  40.938  29.444  10.964
41956W        W10286  32.905  21.146  13.968
41957W        W10287  36.522  28.560   4.169
41958W        W10288  23.696   3.770   4.191
41959W        W10289  32.957  10.771  11.513
41960W        W10290  37.509   5.372   4.816
41961W        W10291  10.309  16.293  14.488
41962W        W10292  19.605   7.318  14.857
41963W        W10293   5.326  40.912  13.997
41964W        W10294  33.485  27.521   3.284
41965W        W10295  35.890  10.336   2.884
41966W        W10296  18.156  20.177  14.926
41967W        W10297  42.524  22.585   4.795
41968W        W10298  42.287   4.289   0.301
41969W        W10299  38.915   9.888   4.764
41970W        W10300  20.729  18.247   2.214
41971W        W10301  36.887  24.587   0.879
41972W        W10302   9.729  31.910  12.036
41973W        W10303  16.275  10.146  11.963
41974W        W10304  16.201   1.815   5.284
41975W        W10305  43.284  16.128   3.728
41976W        W10306  11.739  30.477   2.263
41977W        W10307  12.206  43.448   0.404
41978W        W10308  44.812  10.634  10.431
41979W        W10309   8.673  16.184  12.348
41980W        W10310   5.251  26.100   4.300
41981W        W10311  40.431  12.215  13.855
41982W        W10312  37.467  43.783   0.924
41983W        W10313  12.771  28.049   2.223
41984W        W10314  44.266  35.461  13.839
41985W        W10315  31.480  43.292   2.228
41986W        W10316  38.387  42.990   1.433
41987W        W10317  20.069  14.657  12.951
41988W        W10318  31.154   1.832  12.870
41989W        W10319   1.756  38.413  13.547
41990W        W10320  26.078  15.688   0.349
41991W        W10321   1.863  28.503  13.365
41992W        W10322  18.658  35.474  11.456
41993W        W10323  40.419  25.518  10.920
41994W        W10324  19.636  32.560   1.790
41995W        W10325  15.238  30.055   3.262
41996W        W10326  40.418  30.553  10.461
41997W        W10327  42.928  19.610   0.782
41998W        W10328   9.793  31.050   0.784
41999W        W10329  25.145  29.037   1.309
42000W        W10330  42.465  33.490  13.804
42001W        W10331  43.484   5.767   1.346
42002W        W10332  38.397  39.491  12.074
42003W        W10333  30.523  19.558  12.045
42004W        W10334   7.173  38.039   2.809
42005W        W10335  33.421   7.717   4.606
42006W        W10336  33.444  20.724   1.351
42007W        W10337  23.155  33.597   0.288
42008W        W10338  30.435  33.131   1.279
42009W        W10339  33.477  13.181  12.557
42010W        W10340  36.030  40.846  13.338
42011W        W10341  23.177  15.722   2.264
42012W        W10342  24.160   0.866   9.954
42013W        W10343   5.412  30.070  10.491
42014W        W10344  41.007   5.861  14.470
42015W        W10345  23.700  12.128  14.762
42016W        W10346   9.730  12.120   4.324
42017W        W10347   3.260  36.586  10.500
42018W        W10348  30.536  33.040   3.765
42019W        W10349   8.317  10.165  14.350
42020W        W10350  21.547   1.911  10.629
42021W        W10351   2.336  11.226   1.842
42022W        W10352   3.727   8.304  12.962
42023W        W10353  28.939  15.582  10.078
42024W        W10354  39.854  42.508  10.404
42025W        W10355  17.290  38.900   0.731
42026W        W10356   8.796  37.562   3.842
42027W        W10357   8.374   6.850   3.708
42028W        W10358  22.210   2.371  14.374
42029W        W10359  32.459  33.516   1.294
42030W        W10360  30.542  26.627   3.293
42031W        W10361  25.021  29.499  10.448
42032W        W10362  35.906  44.298  13.828
42033W        W10363   5.419  25.129   2.673
42034W        W10364  11.345  43.495  10.471
42035W        W10365  17.802   0.406   0.824
42036W        W10366  33.988   5.243   0.845
42037W        W10367  25.206  31.071   3.263
42038W        W10368  16.608  40.047   0.946
42039W        W10369  24.583  30.953  12.549
42040W        W10370  18.581  19.060   1.416
42041W        W10371  11.159  38.378   0.381
42042W        W10372  29.440   5.822  14.983
42043W        W10373   2.427  16.190  14.403
42044W        W10374  23.048  41.900  13.008
42045W        W10375  31.478  38.414   3.209
42046W        W10376  44.438   5.385  12.534
42047W        W10377  42.975  10.210   3.186
42048W        W10378  26.513  30.980  12.502
42049W        W10379  29.167  20.709  13.444
42050W        W10380  23.524   3.940   1.221
42051W        W10381  20.260  31.406   0.799
42052W        W10382  10.233  26.192   2.419
42053W        W10383  40.987  19.273   4.284
42054W        W10384   4.875  23.561   0.449
42055W        W10385  22.232  13.193  11.067
42056W        W10386  10.151  14.302  10.930
42057W        W10387  12.138  29.116   3.198
42058W        W10388  40.843  15.804  13.835
42059W        W10389  33.560  19.601   4.334
42060W        W10390  21.133   4.435  10.944
42061W        W10391  42.976  23.103   0.944
42062W        W10392  44.323  28.055  12.083
42063W        W10393   7.341   6.371  14.018
42064W        W10394  18.700  15.138   0.778
42065W        W10395  24.153  14.656   3.302
42066W        W10396  10.363   7.804   1.213
42067W        W10397  16.606  11.359   1.811
42068W        W10398   2.929  15.636  14.972
42069W        W10399  11.276  31.512  10.539
42070W        W10400  13.245  16.618   2.356
42071W        W10401  34.938  10.722   2.344
42072W        W10402  31.602  11.284  11.402
42073W        W10403  27.677   9.754  11.429
42074W        W10404  23.215  22.651   1.908
42075W        W10405  37.491  36.584   3.360
42076W        W10406   8.276   8.191   2.839
42077W        W10407  44.364  22.213   2.270
42078W        W10408  36.864  10.301  10.972
42079W        W10409  17.147   9.819   0.411
42080W        W10410   4.265   8.762   4.637
42081W        W10411  32.596   3.875   2.269
42082W        W10412   0.967  26.059  12.475
42083W        W10413   4.871  34.886   3.263
42084W        W10414  37.360  35.382   0.339
42085W        W10415  20.607  29.944  13.018
42086W        W10416   0.964  23.216   1.923
42087W        W10417  13.698  37.419   1.388
42088W        W10418   7.678  36.579  10.947
42089W        W10419  16.809  18.077  14.373
42090W        W10420  13.112  28.026  14.307
42091W        W10421  28.052  14.667   4.209
42092W        W10422   3.218  36.874  12.025
42093W        W10423  10.275  23.625  11.092
42094W        W10424   0.252   2.449  13.046
42095W        W10425  27.075  33.546  11.503
42096W        W10426  17.686  39.428  11.050
42097W        W10427  10.234  38.992   4.727
42098W        W10428  43.373   1.339   1.382
42099W        W10429  22.518  30.571   9.979
42100W        W10430  12.163  26.480   4.152
42101W        W10431  38.542   8.827   4.622
42102W        W10432   3.812  24.228  11.563
42103W        W10433  12.744  35.367   4.757
42104W        W10434  18.051  34.978  13.530
42105W        W10435  25.588  37.500  11.484
42106W        W10436  10.275   3.239   1.895
42107W        W10437   3.287  29.557   1.766
42108W        W10438  35.945  12.710   2.284
42109W        W10439   0.261  24.589  12.831
42110W        W10440   2.241   8.742   9.938
42111W        W10441  35.880  12.770  11.473
42112W        W10442  22.147  38.423   2.383
42113W        W10443  38.502   4.716   4.274
42114W        W10444  13.224  18.166   1.839
42115W        W10445   6.235  17.223  13.911
42116W        W10446   0.887  15.644  10.040
42117W        W10447   4.211  24.146  12.012
42118W        W10448  11.844   3.243   1.275
42119W        W10449   1.462  18.266   3.224
42120W        W10450  32.949  27.127  12.533
42121W        W10451  17.705   4.890   3.310
42122W        W10452  30.918  38.548   2.696
42123W        W10453  25.565  10.673   4.820
42124W        W10454  10.199   9.367   0.864
42125W        W10455  40.451  34.505   1.247
42126W        W10456  35.422  18.261  14.355
42127W        W10457  31.499  27.057   1.252
42128W        W10458  35.565   5.716  12.358
42129W        W10459   3.790  34.883   4.329
42130W        W10460   7.876  16.276   1.210
42131W        W10461  19.184  31.570  13.388
42132W        W10462  32.450  12.658  13.505
42133W        W10463  36.353  44.480   2.213
42134W        W10464  20.135   9.801   5.164
42135W        W10465   4.860   9.837   4.297
42136W        W10466  10.714  17.190  13.012
42137W        W10467  44.502  41.952   2.201
42138W        W10468  22.687  12.712  11.101
42139W        W10469  37.490  14.595  12.454
42140W        W10470   2.915  28.116   3.228
42141W        W10471  39.857  18.684  11.501
42142W        W10472  36.865  36.070  13.950
42143W        W10473  19.082  38.366   2.189
42144W        W10474   1.248  10.815   2.280
42145W        W10475  19.704  19.277  11.965
42146W        W10476  18.638  17.697   3.832
42147W        W10477  34.946  34.371   0.357
42148W        W10478  21.564   9.735  14.928
42149W        W10479  34.426  30.556  13.469
42150W        W10480  20.089  41.885   4.717
42151W        W10481   3.407  41.844  11.919
42152W        W10482  27.127  44.493   4.123
42153W        W10483  40.027  44.289   2.207
42154W        W10484  36.073  25.962   1.760
42155W        W10485  38.541  16.732  12.562
42156W        W10486   1.437  40.507   0.819
42157W        W10487   0.938  15.114  10.428
42158W        W10488  44.330  20.556   4.144
42159W        W10489  11.730  29.594  12.037
42160W        W10490  35.600   2.784  10.482
42161W        W10491  15.113  21.185   0.925
42162W        W10492  19.072  18.177  10.425
42163W        W10493  17.290  43.490  14.364
42164W        W10494  39.336   4.842  13.382
42165W        W10495  40.479   9.215   2.195
42166W        W10496  23.192  22.107  12.547
42167W        W10497  12.767  34.043  13.508
42168W        W10498  28.013  24.694   2.803
42169W        W10499   4.439  15.672   0.296
42170W        W10500  33.587  25.033   3.648
42171W        W10501   6.728  12.259  11.559
42172W        W10502  32.959  44.820   1.410
42173W        W10503  26.011  35.856   3.216
42174W        W10504  21.563  29.064   2.754
42175W        W10505  20.577   0.852   2.669
42176W        W10506  14.253  13.128   1.694
42177W        W10507  28.106  11.838   1.776
42178W        W10508   0.778   2.819  13.432
42179W        W10509  36.876  31.608  12.992
42180W        W10510  39.829  27.527   0.365
42181W        W10511  37.438  32.032   0.393
42182W        W10512  40.467   7.407   4.159
42183W        W10513  17.682  16.802  13.027
42184W        W10514  42.419  11.860   1.285
42185W        W10515   9.859  12.128   0.375
42186W        W10516  41.936  11.280  13.327
42187W        W10517  31.483  21.138   0.836
42188W        W10518  33.895  37.353   0.345
42189W        W10519   6.677  36.414  12.985
42190W        W10520  13.132   2.732  12.961
42191W        W10521  15.756  17.205  10.545
42192W        W10522  26.668  29.990   2.843
42193W        W10523  39.449   8.898   0.382
42194W        W10524  22.701  27.143   3.696
42195W        W10525   7.349  10.154  10.429
42196W        W10526  16.177  11.346  11.013
42197W        W10527  23.536  43.403   3.332
42198W        W10528  11.701  43.423  13.510
42199W        W10529   2.931  35.574  13.400
42200W        W10530  19.135  13.280  13.389
42201W        W10531  11.144  38.855   4.318
42202W        W10532  21.258  25.600   3.659
42203W        W10533  41.942  38.002  11.064
42204W        W10534  19.275  35.932   0.254
42205W        W10535   0.458  10.236  14.321
42206W        W10536   2.233  31.554   1.329
42207W        W10537  39.468  31.023   4.173
42208W        W10538  43.857  34.490   3.251
42209W        W10539   0.315  10.363  10.581
42210W        W10540  39.438   7.672  11.931
42211W        W10541  16.808  37.831  11.594
42212W        W10542  36.872  31.553  14.283
42213W        W10543   0.292   6.215   3.866
42214W        W10544  38.345   5.254   5.237
42215W        W10545  21.583  30.939  12.899
42216W        W10546  21.524  23.225   4.159
42217W        W10547  34.867  24.556   2.343
42218W        W10548  10.773   6.890  13.418
42219W        W10549  43.408  27.193  14.297
42220W        W10550  16.158  44.272   1.373
42221W        W10551  10.226  33.091  13.458
42222W        W10552  28.024   9.866  11.095
42223W        W10553  19.748  36.458  14.481
42224W        W10554  21.661  43.893  11.074
42225W        W10555  21.527  21.665   1.753
42226W        W10556  38.917  13.307   0.294
42227W        W10557  23.184   5.930   4.303
42228W        W10558  31.630  22.588   1.220
42229W        W10559  31.062  36.910  11.422
42230W        W10560  20.259   8.899  13.841
42231W        W10561  13.261   2.954  11.554
42232W        W10562  28.511  34.572   9.607
42233W        W10563   6.245  34.575   3.365
42234W        W10564  21.614  28.437   0.317
42235W        W10565  37.580   6.329   4.697
42236W        W10566   1.750  14.126  13.860
42237W        W10567  31.497   1.432  10.932
42238W        W10568  33.576  29.458   3.309
42239W        W10569  43.844  18.225  11.098
42240W        W10570   4.769  15.804   3.231
42241W        W10571  21.206   1.238  11.593
42242W        W10572  33.109  36.394   4.603
42243W        W10573  34.438  18.729  11.872
42244W        W10574   1.868   1.894  13.963
42245W        W10575  10.793  32.540   4.765
42246W        W10576  26.575   0.282  11.524
42247W        W10577  30.518  41.441  14.891
42248W        W10578  38.869  42.941  11.952
42249W        W10579  37.990  37.039   2.218
42250W        W10580  33.496  12.123   4.331
42251W        W10581  17.064  30.020   0.453
42252W        W10582  42.455  16.691  12.558
42253W        W10583  36.952  38.062   3.319
42254W        W10584  24.115  39.964  14.459
42255W        W10585  37.458   2.760   4.717
42256W        W10586  26.126  44.861  14.495
42257W        W10587  16.312  40.547   4.245
42258W        W10588  33.067   0.338  14.461
42259W        W10589  43.358  14.252  10.979
42260W        W10590   0.399  35.032  12.040
42261W        W10591   4.756  18.781   2.252
42262W        W10592  33.427  38.500  12.366
42263W        W10593   5.911   7.824   0.352
42264W        W10594  17.582  42.408   3.254
42265W        W10595  33.925  34.412   4.644
42266W        W10596  38.372  12.288  11.587
42267W        W10597  20.205   9.759   4.272
42268W        W10598  40.533  29.158   3.294
42269W        W10599  31.941   1.770  11.097
42270W        W10600  35.907  18.571   4.637
42271W        W10601  29.434  22.504  13.403
42272W        W10602  23.139  16.158  11.908
42273W        W10603  40.049  33.458  13.528
42274W        W10604  33.462  13.690  11.982
42275W        W10605  38.371  23.652   2.339
42276W        W10606  40.836  33.078   1.800
42277W        W10607  17.767   6.895   3.212
42278W        W10608  35.092  32.399   1.404
42279W        W10609   7.411  41.440  12.873
42280W        W10610  17.800   0.444  11.901
42281W        W10611  34.412  15.202  13.400
42282W        W10612  19.684  29.619  14.328
42283W        W10613   1.353  27.578  12.393
42284W        W10614  28.667   3.278  14.780
42285W        W10615  24.144  36.521   2.673
42286W        W10616   9.210   5.404  10.522
42287W        W10617  18.259  30.609  10.626
42288W        W10618  18.260  44.444  14.022
42289W        W10619   6.424  34.387  13.967
42290W        W10620  28.059   4.443  10.530
42291W        W10621  28.986  19.602  13.843
42292W        W10622   9.362  22.604   1.311
42293W        W10623   8.702  37.831   2.231
42294W        W10624  33.063  27.068  13.327
42295W        W10625   3.881  35.933  14.289
42296W        W10626  34.493  43.881  14.349
42297W        W10627  41.531   2.280   2.851
42298W        W10628   1.852  30.055   2.370
42299W        W10629  23.994  14.120  10.065
42300W        W10630  33.103   3.882  14.313
42301W        W10631   8.689  21.573   4.833
42302W        W10632  19.548  19.179   3.668
42303W        W10633  14.597   5.725   3.327
42304W        W10634  20.633   1.352   1.336
42305W        W10635   1.938  14.714   2.858
42306W        W10636  24.011  34.926   1.881
42307W        W10637  25.104  26.606  12.073
42308W        W10638  25.019  11.746  12.488
42309W        W10639  35.368  23.162   2.366
42310W        W10640  32.585  20.608  14.452
42311W        W10641  30.118  13.118  14.844
42312W        W10642  15.625  37.020   0.337
42313W        W10643  21.755  40.464  10.473
42314W        W10644  14.746  29.004   1.393
42315W        W10645   2.399  20.612  13.908
42316W        W10646  23.047  43.957   0.879
42317W        W10647  19.573  12.767   1.281
42318W        W10648   5.841  20.751  14.389
42319W        W10649   4.804  35.410   4.605
42320W        W10650  20.207  25.024  12.499
42321W        W10651  11.365  26.073   3.286
42322W        W10652  32.629   7.801  12.443
42323W        W10653  31.513   5.931  14.416
42324W        W10654  37.878  20.755  13.545
42325W        W10655  37.037  37.985  13.464
42326W        W10656  43.849  16.568  12.573
42327W        W10657  31.476  33.045  13.020
42328W        W10658  23.609  34.947  10.638
42329W        W10659  11.835  10.638  11.103
42330W        W10660   1.977  44.468   3.290
42331W        W10661  39.470  12.210  13.426
42332W        W10662  29.140  15.755   0.917
42333W        W10663  14.798  21.171   1.231
42334W        W10664  10.265   3.774   3.277
42335W        W10665  20.190  43.836  11.485
42336W        W10666  39.320  41.854  12.977
42337W        W10667   6.735   7.813  11.519
42338W        W10668  31.483  20.263   4.747
42339W        W10669  18.064   2.272   3.295
42340W        W10670   6.823  31.984  11.379
42341W        W10671  44.298  41.304  14.512
42342W        W10672  15.296  12.244  11.122
42343W        W10673  32.628  40.019  10.939
42344W        W10674   4.431  14.321  13.062
42345W        W10675  14.179   5.340   2.738
42346W        W10676  30.549   2.873   1.906
42347W        W10677  35.893  26.681  14.912
42348W        W10678  31.413  40.835   3.370
42349W        W10679  39.481   7.676   0.789
42350W        W10680  29.633   5.795  12.400
42351W        W10681  35.493   7.756   1.738
42352W        W10682   2.808  14.768   4.744
42353W        W10683  38.906  21.042  14.897
42354W        W10684  22.539  36.906  13.390
42355W        W10685  20.215  32.956   2.881
42356W        W10686  16.235  27.488  14.344
42357W        W10687  14.730  18.785  11.402
42358W        W10688  12.201  33.890   1.399
42359W        W10689  41.323  37.995  12.478
42360W        W10690  24.682  28.086   2.667
42361W        W10691   2.307   7.781   2.756
42362W        W10692  25.085  14.642   0.927
42363W        W10693  21.145  31.458   3.295
42364W        W10694  44.755   3.227  10.622
42365W        W10695  44.352  23.512   3.252
42366W        W10696  40.347  14.273   2.815
42367W        W10697  15.158  24.592  10.485
42368W        W10698   6.712  27.942  12.453
42369W        W10699  14.288  35.385   4.687
42370W        W10700  40.337   8.859   0.965
42371W        W10701  15.609  19.708  11.375
42372W        W10702  15.250   8.807   4.715
42373W        W10703  40.329  32.071   5.129
42374W        W10704  22.705  26.013  10.933
42375W        W10705   0.281   2.270   1.932
42376W        W10706  37.005  17.171   4.618
42377W        W10707  28.163  12.304  12.527
42378W        W10708  36.884  25.183  12.957
42379W        W10709  19.674  28.160  13.822
42380W        W10710  27.611  13.756   3.169
42381W        W10711  32.088  39.485   2.877
42382W        W10712   7.230  40.012  14.297
42383W        W10713  20.256   0.820  11.095
42384W        W10714  12.128   5.360   4.346
42385W        W10715  11.846   5.727   0.863
42386W        W10716  25.609   1.933  11.610
42387W        W10717  27.469  18.676   4.665
42388W        W10718  28.134  12.128   0.463
42389W        W10719   6.288  15.187   0.437
42390W        W10720  31.581   5.723  11.505
42391W        W10721   0.905  18.687  10.908
42392W        W10722  40.415  19.632   3.772
42393W        W10723  19.159   5.860   4.163
42394W        W10724  25.029  24.214  10.566
42395W        W10725  35.558  18.780  12.036
42396W        W10726  43.895  23.694   1.365
42397W        W10727  39.880  21.069   2.869
42398W        W10728  22.164   4.825  13.916
42399W        W10729  10.639  27.639  12.340
42400W        W10730  32.562  27.193  13.815
42401W        W10731   5.230  17.775   0.266
42402W        W10732   5.416  35.047  11.523
42403W        W10733   4.742  24.155  11.372
42404W        W10734  22.093  15.580   2.672
42405W        W10735  23.029   7.874   1.752
42406W        W10736  17.252  38.393   3.860
42407W        W10737  44.942   1.941  13.973
42408W        W10738  18.127  26.193  10.427
42409W        W10739  36.486  28.586  11.040
42410W        W10740  10.250  21.716  11.875
42411W        W10741  42.510  40.547  12.973
42412W        W10742   4.843  33.584  13.841
42413W        W10743  25.106  36.022  14.973
42414W        W10744  31.121   9.373  11.483
42415W        W10745  27.014   0.796  14.421
42416W        W10746  29.173  23.030   3.202
42417W        W10747  33.077   4.380   4.642
42418W        W10748  18.206  44.399   2.812
42419W        W10749  18.156  21.141   1.786
42420W        W10750  39.916  16.594  12.346
42421W        W10751  24.574   9.786   0.823
42422W        W10752  34.910  29.952   1.720
42423W        W10753  27.129   6.214  12.394
42424W        W10754  36.990  14.791  13.915
42425W        W10755  35.104   7.866   0.879
42426W        W10756   9.310  33.408  14.786
42427W        W10757  25.627  18.551  12.050
42428W        W10758  24.711  36.517   1.395
42429W        W10759   5.422  18.228  14.018
42430W        W10760   1.810  26.032  14.940
42431W        W10761   8.898  35.002  12.376
42432W        W10762  13.787   8.738   4.194
42433W        W10763   9.827   8.192  14.469
42434W        W10764   4.729  44.333  13.869
42435W        W10765  40.028  34.602  13.515
42436W        W10766   3.394  21.182   5.167
42437W        W10767  20.710  37.401   2.739
42438W        W10768   2.800   5.722  14.762
42439W        W10769  34.559  21.530   0.314
42440W        W10770   0.827  39.386  10.555
42441W        W10771   0.286   2.811  10.582
42442W        W10772   3.216  11.187   2.677
42443W        W10773  37.433  23.022   4.778
42444W        W10774   3.798  40.504  12.990
42445W        W10775  32.504  28.170  10.114
42446W        W10776  27.073  23.505  14.762
42447W        W10777  16.153   3.950   2.748
42448W        W10778  22.548  32.503  11.452
42449W        W10779  14.291  44.862  12.891
42450W        W10780  23.145  28.459  13.447
42451W        W10781  40.448  11.828   2.183
42452W        W10782  40.053  16.646  14.936
42453W        W10783   7.190  43.505  12.371
42454W        W10784   5.895  42.298  12.886
42455W        W10785  33.001  30.034   4.796
42456W        W10786  26.580  20.719   0.812
42457W        W10787  20.082  31.615   4.672
42458W        W10788  31.095   6.202   2.662
42459W        W10789   8.838  41.967  12.363
42460W        W10790  17.711  16.160   3.216
42461W        W10791  11.190  13.206   2.302
42462W        W10792  31.471  26.484  11.470
42463W        W10793   7.735  16.627   0.279
42464W        W10794  39.982  37.084   3.777
42465W        W10795  23.022  25.111  10.624
42466W        W10796  23.221  41.817  11.941
42467W        W10797  14.766  38.367  14.795
42468W        W10798  32.470  21.112  10.095
42469W        W10799  30.471  31.951   2.793
42470W        W10800  34.118   6.199  10.419
42471W        W10801  14.679  14.180  13.504
42472W        W10802  20.544  43.276   4.682
42473W        W10803  29.975  24.044  12.920
42474W        W10804  36.449  41.367   3.182
42475W        W10805  24.650  25.084  11.968
42476W        W10806  38.959  18.150   5.218
42477W        W10807   9.288  17.637  14.774
42478W        W10808   4.844  20.610   1.251
42479W        W10809   9.239  21.755   0.782
42480W        W10810  19.144  27.090   4.178
42481W        W10811  38.442  31.093  10.555
42482W        W10812  21.109  40.954  14.442
42483W        W10813   2.440   2.228  14.454
42484W        W10814  27.451   5.211  12.423
42485W        W10815   8.800   4.242   3.820
42486W        W10816  40.953  23.661   3.835
42487W        W10817  17.273  13.639   2.823
42488W        W10818  14.690   5.700  14.362
42489W        W10819  21.581  33.121   2.690
42490W        W10820   4.232  21.715   4.201
42491W        W10821  23.053  23.666  10.585
42492W        W10822  41.988  38.030  13.348
42493W        W10823   5.265  33.543   2.206
42494W        W10824  37.983  43.800   0.751
42495W        W10825  13.270  27.164  13.336
42496W        W10826  20.555  14.264  10.622
42497W        W10827  28.085  18.604  14.415
42498W        W10828  16.684  10.299   0.736
42499W        W10829   9.193  22.550  13.491
42500W        W10830  22.506   8.828  11.394
42501W        W10831  33.427  35.966  14.032
42502W        W10832  33.426   9.355  10.632
42503W        W10833  28.495   4.421  13.795
42504W        W10834  42.353   7.216   4.778
42505W        W10835  27.541  36.466   4.349
42506W        W10836  26.093  35.484  11.095
42507W        W10837  28.530  27.111   4.735
42508W        W10838  25.476  27.572  13.012
42509W        W10839  40.411  22.646  12.980
42510W        W10840  33.011  15.166  10.409
42511W        W10841  18.177  17.628  13.382
42512W        W10842  41.331  11.741   4.280
42513W        W10843  23.161   8.172   3.713
42514W        W10844  42.433   8.358   3.850
42515W        W10845  44.424  34.433   5.282
42516W        W10846  19.212  31.111   3.718
42517W        W10847  30.563  19.043   2.741
42518W        W10848  17.204  27.599   1.833
42519W        W10849   4.425  32.910   1.362
42520W        W10850  20.709  13.340  10.453
42521W        W10851  18.621  19.597  11.379
42522W        W10852  35.408   7.242  12.421
42523W        W10853  27.572  39.428   2.763
42524W        W10854  40.959  25.577   2.233
42525W        W10855  26.156   8.286   2.815
42526W        W10856  35.999  19.202  13.308
42527W        W10857  10.670  42.972  12.016
42528W        W10858  32.000  11.796  13.938
42529W        W10859  15.746  26.018  14.491
42530W        W10860  26.086  28.606  11.973
42531W        W10861   4.337  14.155   1.232
42532W        W10862  34.945  15.188   4.314
42533W        W10863   8.266  41.788  13.988
42534W        W10864  21.132  28.529   1.246
42535W        W10865  40.412   4.317   1.446
42536W        W10866   1.882   5.912  13.348
42537W        W10867  24.499   2.308   3.294
42538W        W10868  36.556  10.143   1.324
42539W        W10869   1.310  37.068   4.341
42540W        W10870  27.539  12.763   0.951
42541W        W10871  28.052  28.579   4.745
42542W        W10872  24.003   4.860  13.835
42543W        W10873  30.457   0.977   4.237
42544W        W10874  24.615   9.668  14.308
42545W        W10875  31.941  37.385  14.782
42546W        W10876  28.512  21.085   2.418
42547W        W10877  23.724  39.932   0.269
42548W        W10878  20.164  41.455  11.533
42549W        W10879  18.210   5.790  13.341
42550W        W10880  24.651   6.340   1.873
42551W        W10881  10.224   5.376  13.328
42552W        W10882  28.008  15.651  14.440
42553W        W10883   9.365  21.025  14.408
42554W        W10884  20.231  24.094  14.937
42555W        W10885  13.265  14.822  14.815
42556W        W10886  19.540  27.032   3.834
42557W        W10887  21.756  40.821   0.881
42558W        W10888  27.946  33.069  11.527
42559W        W10889  11.245   5.803  11.484
42560W        W10890  28.100  43.506  10.483
42561W        W10891  38.548  28.017  12.421
42562W        W10892  22.195  19.690  10.421
42563W        W10893   2.899  22.143  12.518
42564W        W10894   8.737   7.841  11.928
42565W        W10895  24.064  31.042   2.367
42566W        W10896  28.071   1.280   3.803
42567W        W10897  24.042   7.314  14.846
42568W        W10898  44.890   3.326   1.785
42569W        W10899  13.351  40.512  10.602
42570W        W10900  19.136  43.473   1.312
42571W        W10901  33.098  22.150   2.210
42572W        W10902   3.876   0.896  10.078
42573W        W10903   0.420  29.145  10.565
42574W        W10904  30.965  34.554  13.858
42575W        W10905   7.417  27.683  12.490
42576W        W10906  27.141  41.789  10.622
42577W        W10907  43.411  42.330   2.679
42578W        W10908  19.076  19.087   2.178
42579W        W10909  31.151   5.853   2.331
42580W        W10910  12.230  26.649   0.734
42581W        W10911  33.529  39.953  14.931
42582W        W10912  31.556  36.543  11.076
42583W        W10913   1.916  35.907   2.679
42584W        W10914   7.212  19.097  11.433
42585W        W10915  27.113  15.751  13.043
42586W        W10916  22.524  36.509   0.787
42587W        W10917  21.024  26.630   0.357
42588W        W10918   8.765  41.974   1.342
42589W        W10919  25.642  36.059   0.256
42590W        W10920  32.488   1.314  11.936
42591W        W10921  12.756  16.772  13.375
42592W        W10922  10.780  39.557  12.885
42593W        W10923  20.618   0.460  12.029
42594W        W10924  21.228  44.438   2.711
42595W        W10925   3.378  36.942  14.805
42596W        W10926  35.493  41.470   0.323
42597W        W10927  15.782  21.224   4.772
42598W        W10928  29.987   1.333   0.422
42599W        W10929  24.714  26.607   4.655
42600W        W10930  32.092  38.450   5.270
42601W        W10931   2.438  16.147   0.425
42602W        W10932  18.764  21.709  10.548
42603W        W10933  43.848  30.414   1.252
42604W        W10934  21.166  41.000   0.420
42605W        W10935  22.166  35.073   2.360
42606W        W10936   7.174  13.277   0.883
42607W        W10937  19.132  18.106   9.666
42608W        W10938  11.741  42.805  12.532
42609W        W10939  28.157   9.851   1.885
42610W        W10940   6.904  22.565  11.425
42611W        W10941  36.445   7.356  13.416
42612W        W10942   8.703  39.373  13.979
42613W        W10943  32.891  36.592   0.393
42614W        W10944  26.669  29.005   2.714
42615W        W10945   0.293  20.082   2.851
42616W        W10946  32.605  43.923   1.905
42617W        W10947   8.660   2.949  14.311
42618W        W10948  11.752  40.368   0.915
42619W        W10949  12.210   0.437  13.369
42620W        W10950  15.799  27.509  10.975
42621W        W10951  15.681  25.633  12.560
42622W        W10952  16.569   5.326  11.484
42623W        W10953  22.569  36.368  14.412
42624W        W10954  40.020   5.798   2.236
42625W        W10955   2.387  25.084   2.699
42626W        W10956   7.296  37.928   3.689
42627W        W10957  16.122  33.526   4.623
42628W        W10958  11.353  38.503   2.417
42629W        W10959   1.952  38.512   3.311
42630W        W10960  22.531  20.209   2.372
42631W        W10961  34.067  39.376  13.411
42632W        W10962  13.321   5.272  12.928
42633W        W10963  23.179   0.291  12.417
42634W        W10964   8.659  13.199   0.894
42635W        W10965   6.385  38.933   0.905
42636W        W10966  43.465   1.281  13.506
42637W        W10967  19.719  44.428  11.443
42638W        W10968  20.104   8.779   2.738
42639W        W10969  43.463  39.945  13.052
42640W        W10970  39.405  23.119   1.726
42641W        W10971  42.923  20.134  11.098
42642W        W10972  21.070   7.206   2.870
42643W        W10973  41.038  10.258  10.895
42644W        W10974  13.224  26.569  12.829
42645W        W10975  12.756  10.269  10.420
42646W        W10976  21.128  14.104  14.311
42647W        W10977   0.446   9.195   1.866
42648W        W10978  17.577   9.366   4.651
42649W        W10979   7.353  21.075  11.431
42650W        W10980  35.046  23.062   3.167
42651W        W10981   1.468   1.441   0.768
42652W        W10982  28.657   8.770  11.552
42653W        W10983  41.298  13.764  10.468
42654W        W10984  21.613  33.531  14.317
42655W        W10985  41.378  35.107   2.874
42656W        W10986   1.302  17.761   4.283
42657W        W10987  12.688   3.878   3.195
42658W        W10988  13.291  33.405   3.856
42659W        W10989  28.489  32.626   0.452
42660W        W10990  35.490  25.998   3.758
42661W        W10991  13.809  27.561  12.008
42662W        W10992   0.478  26.669   0.456
42663W        W10993  14.734  11.314   4.194
42664W        W10994   0.488  31.541  11.955
42665W        W10995   7.739  32.571   1.325
42666W        W10996  18.054  23.523   1.819
42667W        W10997   2.278  43.443  11.585
42668W        W10998  31.153  43.411   4.348
42669W        W10999  36.972   6.702   2.390
42670W        W11000  12.733  32.970   0.846
42671W        W11001   0.395  14.202   2.406
42672W        W11002   9.740  30.597  14.009
42673W        W11003  43.469  26.099  13.975
42674W        W11004  36.540  33.972   2.341
42675W        W11005   8.715  22.555   0.911
42676W        W11006  10.288  15.235   4.620
42677W        W11007  22.153   3.236  10.484
42678W        W11008  21.534   8.710   0.359
42679W        W11009   7.197  12.358  10.602
42680W        W11010  29.067  29.061  13.539
42681W        W11011  43.467   9.798   2.404
42682W        W11012  27.097   4.847  12.428
42683W        W11013  28.054  23.186   0.345
42684W        W11014  37.833  22.150   0.848
42685W        W11015  41.884   1.890   3.185
42686W        W11016  41.868  39.853   2.763
42687W        W11017  38.449  21.081   3.305
42688W        W11018  27.631  20.136   4.307
42689W        W11019  13.836  39.380   0.817
42690W        W11020  36.371  44.469   3.834
42691W        W11021  38.933  31.067   4.259
42692W        W11022   3.369   2.937   1.398
42693W        W11023  41.514  29.511   1.722
42694W        W11024  31.533  11.298  12.559
42695W        W11025  21.562  19.245   3.808
42696W        W11026   4.437  30.025   0.320
42697W        W11027   4.251  25.625   2.805
42698W        W11028  33.032   0.488   1.913
42699W        W11029  20.132  28.939  12.876
42700W        W11030  30.486  32.051  11.064
42701W        W11031  18.634  43.420  13.517
42702W        W11032  36.455   8.659  10.428
42703W        W11033   2.911  41.343  13.830
42704W        W11034  25.671   5.841   1.316
42705W        W11035   6.810  35.087   2.298
42706W        W11036  15.739  31.045   1.916
42707W        W11037  23.551  40.369  10.934
42708W        W11038   6.395  21.185   2.862
42709W        W11039  35.565   0.258  12.058
42710W        W11040  25.079   9.879   4.123
42711W        W11041  39.360  43.926   0.803
42712W        W11042  33.603  37.881   1.923
42713W        W11043  32.609  30.932  14.882
42714W        W11044  30.960  23.156   4.656
42715W        W11045   3.440  41.374  12.988
42716W        W11046  29.463  32.107   2.362
42717W        W11047  16.294  20.138   0.924
42718W        W11048  16.087   0.314  13.444
42719W        W11049  25.160  22.502   3.661
42720W        W11050  37.859  25.661   0.438
42721W        W11051  17.273   2.902  10.097
42722W        W11052  28.502   3.396  14.339
42723W        W11053   0.754  22.131   1.715
42724W        W11054   5.384  17.097  11.086
42725W        W11055  28.998  10.178  13.474
42726W        W11056  20.589  40.833  12.831
42727W        W11057  35.867  29.469  12.898
42728W        W11058  15.767  21.099  12.433
42729W        W11059  23.647   0.306  12.064
42730W        W11060  44.824   1.950   0.806
42731W        W11061   1.247  24.997  11.008
42732W        W11062  27.085  20.707  13.438
42733W        W11063   3.386   9.682   0.407
42734W        W11064  28.089  17.746  14.030
42735W        W11065  33.112  23.566  11.585
42736W        W11066  22.157  10.146   1.871
42737W        W11067  32.432  37.374   3.840
42738W        W11068  42.882  43.497   1.694
42739W        W11069  26.954   8.342   0.445
42740W        W11070  11.240  19.152   1.372
42741W        W11071  20.637  29.471   1.807
42742W        W11072  23.681  25.213  14.351
42743W        W11073  28.074  33.575   0.733
42744W        W11074  32.621  32.945   1.879
42745W        W11075  19.109  17.183  14.019
42746W        W11076  39.962  26.156   0.376
42747W        W11077  42.017  31.478  12.412
42748W        W11078  41.416  25.606   3.254
42749W        W11079  14.639  12.734   3.857
42750W        W11080  24.575  13.315   3.185
42751W        W11081  39.396   3.930   0.368
42752W        W11082  24.583  12.688  13.005
42753W        W11083  31.458  43.876  14.955
42754W        W11084  11.274  41.312   4.825
42755W        W11085  27.073   8.771  14.283
42756W        W11086  35.458   0.342   2.849
42757W        W11087  35.059  22.729   2.695
42758W        W11088  15.693  43.477   1.446
42759W        W11089  30.085   7.317   1.862
42760W        W11090  35.570  32.052  11.599
42761W        W11091  41.979  19.630   1.747
42762W        W11092  21.039  38.845   5.138
42763W        W11093   4.430  21.157  12.974
42764W        W11094  23.059  15.794  13.478
42765W        W11095  14.301  33.495   1.235
42766W        W11096  29.118   3.230   5.083
42767W        W11097  16.165  33.531   0.914
42768W        W11098  25.193  44.451  10.920
42769W        W11099  10.289  36.468  10.961
42770W        W11100   0.329  31.934  13.515
42771W        W11101   3.365  25.107   1.364
42772W        W11102   9.383  44.974   4.317
42773W        W11103  38.503  33.955   0.251
42774W        W11104  42.465  20.704  11.519
42775W        W11105  33.503  36.032   3.630
42776W        W11106  25.208  19.129   0.423
42777W        W11107   3.255  42.836  13.963
42778W        W11108  27.504   1.273  13.838
42779W        W11109  40.850  12.831  11.379
42780W        W11110  29.100  30.599  13.330
42781W        W11111  29.618  22.641   5.100
42782W        W11112  20.256   8.896  14.491
42783W        W11113  10.253  42.852  12.477
42784W        W11114  37.959  37.963  14.493
42785W        W11115  23.706  39.367  14.956
42786W        W11116  37.036  31.636  10.599
42787W        W11117   1.302  16.274   3.337
42788W        W11118   1.352  37.073   2.675
42789W        W11119  19.641  11.706  11.937
42790W        W11120  43.299  35.405  11.485
42791W        W11121  15.682  39.353  13.329
42792W        W11122  13.337  13.828  13.953
42793W        W11123  28.666  40.017   4.328
42794W        W11124  23.065  17.632   4.662
42795W        W11125  19.721  35.464  13.322
42796W        W11126  32.521   4.698   2.901
42797W        W11127  36.392  20.237  12.010
42798W        W11128  17.097   3.272   1.762
42799W        W11129  29.054  31.532  11.462
42800W        W11130  17.094  35.507   5.772
42801W        W11131  29.117   0.943   4.734
42802W        W11132  23.096  13.835   2.785
42803W        W11133  43.356  19.754   1.889
42804W        W11134  23.624  35.906   1.446
42805W        W11135   2.415  32.085  12.852
42806W        W11136  10.139  37.397   4.349
42807W        W11137  29.626  36.975  11.966
42808W        W11138   8.847  37.910   4.817
42809W        W11139  36.017  33.448  13.374
42810W        W11140  37.547  19.617  14.463
42811W        W11141  32.487  22.243   3.712
42812W        W11142  43.285  28.067  14.961
42813W        W11143  26.564  11.154  12.442
42814W        W11144  15.637  24.494  12.096
42815W        W11145   8.699  32.039  12.504
42816W        W11146   8.239  13.771   4.307
42817W        W11147  22.725  39.867   0.330
42818W        W11148   5.286  35.028  12.353
42819W        W11149  34.006  11.715   3.824
42820W        W11150  25.218   2.460  11.122
42821W        W11151  15.732  29.424  12.931
42822W        W11152  21.699  36.072   4.199
42823W        W11153   1.382   7.291  14.794
42824W        W11154   8.405  23.706   3.671
42825W        W11155  16.636  38.042   2.183
42826W        W11156  37.560   0.355   2.877
42827W        W11157  36.371  13.804  13.976
42828W        W11158  23.175   3.294  10.580
42829W        W11159   3.816  24.088   3.346
42830W        W11160  19.562  36.582   4.722
42831W        W11161  22.038  23.591   1.423
42832W        W11162  12.629  42.525   0.428
42833W        W11163  13.271   7.238  10.962
42834W        W11164  25.562   3.360   2.853
42835W        W11165  43.456  40.511   3.176
42836W        W11166  12.240  33.489  11.883
42837W        W11167  32.100  14.664   1.834
42838W        W11168  28.079  32.918  13.025
42839W        W11169  23.596  26.554   4.222
42840W        W11170   0.830  21.692  11.926
42841W        W11171  21.555  19.193  11.414
42842W        W11172  20.759  20.260   0.735
42843W        W11173  29.110  10.688  10.999
42844W        W11174  33.953  18.711  13.062
42845W        W11175  27.986  28.107  11.517
42846W        W11176  25.569  17.793   3.766
42847W        W11177  11.688  41.521  12.041
42848W        W11178  44.986   5.205   1.306
42849W        W11179   0.775  19.055   3.302
42850W        W11180  23.102  41.967   4.210
42851W        W11181   7.341  11.719   0.858
42852W        W11182  27.638  33.477   4.751
42853W        W11183  37.024  36.077   2.796
42854W        W11184  26.101   5.910  12.519
42855W        W11185   1.425  14.251   2.223
42856W        W11186  33.997  15.686   4.741
42857W        W11187  36.467  16.126  14.388
42858W        W11188  30.471   3.217   1.919
42859W        W11189   8.878  35.462   1.236
42860W        W11190  18.713  32.503  13.389
42861W        W11191  22.566  28.559   2.332
42862W        W11192   1.851  15.151   4.152
42863W        W11193   0.361   5.730   1.326
42864W        W11194  33.607  43.877   3.374
42865W        W11195  37.004  30.545   5.201
42866W        W11196  11.717  31.455   2.753
42867W        W11197   4.851  29.640   2.852
42868W        W11198  33.545  31.496   4.667
42869W        W11199  43.860   6.197  11.457
42870W        W11200  33.392  10.202   2.361
42871W        W11201  13.179  14.262   3.847
42872W        W11202  17.577  10.143   3.709
42873W        W11203  40.314  13.789  13.374
42874W        W11204  34.911  10.719  14.764
42875W        W11205   8.370  23.628  14.023
42876W        W11206   0.952  41.511  10.556
42877W        W11207  41.005  41.897   0.416
42878W        W11208  24.194  36.372   0.873
42879W        W11209  28.461  21.577  14.976
42880W        W11210  16.717   6.272   3.240
42881W        W11211  20.675  39.886  11.545
42882W        W11212  10.726  38.472  12.002
42883W        W11213  31.510   3.754  11.998
42884W        W11214   2.949  39.051  13.922
42885W        W11215  21.681   9.662   0.737
42886W        W11216  25.570  28.131   9.962
42887W        W11217  30.480  27.573  12.525
42888W        W11218  10.371  24.204   2.827
42889W        W11219  26.134  44.412  13.307
42890W        W11220  35.099  36.022  13.424
42891W        W11221  17.641  25.473   9.559
42892W        W11222   2.333  36.482   4.265
42893W        W11223  37.893  39.986   0.306
42894W        W11224  10.329  41.939  11.501
42895W        W11225  29.153   7.180  14.427
42896W        W11226  21.219  35.498   3.224
42897W        W11227  21.600   2.759  14.342
42898W        W11228  40.800   4.896   4.772
42899W        W11229  41.870  13.105  10.476
42900W        W11230  24.118  18.192  13.383
42901W        W11231  30.458  15.105  10.967
42902W        W11232  32.109   9.188   4.649
42903W        W11233   7.271  20.610  11.997
42904W        W11234   0.405  22.656   3.664
42905W        W11235  16.224  41.902  14.277
42906W        W11236  25.644  33.954   0.771
42907W        W11237  29.971  31.506  14.950
42908W        W11238  35.519  13.799   1.329
42909W        W11239  19.648  42.883   2.840
42910W        W11240  43.856  27.495   1.783
42911W        W11241  28.654  12.823   4.281
42912W        W11242  43.399   0.299   5.240
42913W        W11243  38.874  44.393  13.059
42914W        W11244  27.602   6.289   3.846
42915W        W11245  13.700  14.204  14.786
42916W        W11246  28.102   4.378  14.328
42917W        W11247   8.877  35.591  14.858
42918W        W11248  10.699  34.476  12.002
42919W        W11249   7.805  31.114  12.832
42920W        W11250  39.820  16.754  11.111
42921W        W11251  42.879   6.266  14.864
42922W        W11252  21.658   7.396   1.432
42923W        W11253  39.062  40.865  11.061
42924W        W11254  44.926  33.382   4.157
42925W        W11255  31.512   9.724  13.874
42926W        W11256  11.282   8.176  14.431
42927W        W11257  18.118  13.664  12.885
42928W        W11258  41.031   1.290   3.210
42929W        W11259  27.643  44.763   0.479
42930W        W11260  32.139  30.020   2.380
42931W        W11261   4.754  17.636   1.827
42932W        W11262  19.665  16.720   3.809
42933W        W11263   8.708  44.800  11.596
42934W        W11264  29.974   4.736   0.878
42935W        W11265  12.312  44.850  14.513
42936W        W11266  36.088  36.095  12.930
42937W        W11267   9.853  42.904  10.643
42938W        W11268  43.387  10.288   4.754
42939W        W11269  39.045  32.556   4.812
42940W        W11270   5.775  40.813  11.060
42941W        W11271  22.538  35.058  11.864
42942W        W11272  24.213  32.550  13.817
42943W        W11273   9.347  27.646  11.539
42944W        W11274   2.352  18.180  11.114
42945W        W11275  41.492  22.102  13.815
42946W        W11276  19.117  20.644   0.457
42947W        W11277  33.911  37.576  11.444
42948W        W11278  38.434  30.949   4.696
42949W        W11279  35.040  15.243   4.689
42950W        W11280   6.767  12.292   4.679
42951W        W11281  25.147   8.286  12.981
42952W        W11282  18.208  12.346  10.941
42953W        W11283  28.476  34.466   3.260
42954W        W11284  15.797  29.428   4.631
42955W        W11285  32.569  14.671  13.411
42956W        W11286   1.265  31.117  10.627
42957W        W11287  22.151  10.728   9.468
42958W        W11288  37.410  38.485  14.490
42959W        W11289   3.368  13.701  12.397
42960W        W11290  15.796  32.451  12.085
42961W        W11291  25.163   0.745   2.284
42962W        W11292  13.820  11.779   3.723
42963W        W11293   7.356  34.550   1.741
42964W        W11294  11.180   7.770  11.893
42965W        W11295  30.633  21.636   4.716
42966W        W11296  11.131  26.490  13.349
42967W        W11297  34.434  44.444   0.785
42968W        W11298  40.985  37.043  12.575
42969W        W11299  28.018  30.976   5.621
42970W        W11300  32.405  36.909   1.737
42971W        W11301  44.405  11.740   1.408
42972W        W11302  34.864  29.635   3.290
42973W        W11303  28.636  42.025   0.947
42974W        W11304  36.902   0.969   0.327
42975W        W11305  35.991  15.111   3.639
42976W        W11306  25.530  30.427  11.392
42977W        W11307  44.414   4.784  12.511
42978W        W11308  33.581  44.837   2.768
42979W        W11309  25.009  10.188   2.769
42980W        W11310  17.749  31.898   1.292
42981W        W11311  26.578  38.951   1.252
42982W        W11312  37.577  11.795   4.313
42983W        W11313  13.160  19.754  10.522
42984W        W11314  22.218   7.872   5.318
42985W        W11315  12.320  14.624   0.859
42986W        W11316  15.212  27.616  13.852
42987W        W11317  34.904  41.893  13.434
42988W        W11318  12.268  20.613  11.552
42989W        W11319  20.759  34.477   1.262
42990W        W11320  20.739  21.746  13.047
42991W        W11321  42.013   3.948  13.367
42992W        W11322  10.647  24.017   2.867
42993W        W11323  17.125  34.379  12.351
42994W        W11324  32.036  12.200   1.276
42995W        W11325  16.248   6.293  11.076
42996W        W11326   1.282  38.844  12.517
42997W        W11327  23.701   2.851  13.996
42998W        W11328   1.856  33.925   4.352
42999W        W11329  44.387  29.558   4.607
43000W        W11330  12.130  17.264  12.868
43001W        W11331  14.106  38.327  11.599
43002W        W11332   9.726  44.311   4.626
43003W        W11333  17.735  44.848   3.849
43004W        W11334  44.788   5.241   0.885
43005W        W11335   5.392  28.941  13.876
43006W        W11336   8.760  30.601  13.439
43007W        W11337  34.992  22.193   0.257
43008W        W11338   0.887  32.534   4.745
43009W        W11339  42.803  15.775  13.845
43010W        W11340   3.407  27.073   1.349
43011W        W11341  21.515  44.472  13.838
43012W        W11342  19.612   3.776   1.851
43013W        W11343  39.393   5.259  13.986
43014W        W11344  22.720   6.326  14.968
43015W        W11345  23.628  29.072   2.861
43016W        W11346   0.948   8.243   3.179
43017W        W11347  38.548  19.535  12.530
43018W        W11348  32.105  37.523   0.415
43019W        W11349  28.981  37.491   1.318
43020W        W11350  34.026  35.601  11.422
43021W        W11351  31.515  42.988  12.846
43022W        W11352  12.850   0.306  14.898
43023W        W11353  32.429  28.601  11.025
43024W        W11354  26.553  40.391   3.686
43025W        W11355  24.225   1.824  14.001
43026W        W11356  21.591  17.162   5.286
43027W        W11357   5.791  32.921  11.113
43028W        W11358  26.077  18.579  14.331
43029W        W11359  22.095  26.975  13.027
43030W        W11360  18.106  23.575  11.097
43031W        W11361   3.363   1.814   1.786
43032W        W11362  30.101   7.354   2.720
43033W        W11363  22.612  10.317  12.529
43034W        W11364  44.375  10.827  14.876
43035W        W11365  38.482  40.829   2.330
43036W        W11366  38.340  31.990   0.895
43037W        W11367  15.777   1.871  12.465
43038W        W11368   0.424   1.756   1.835
43039W        W11369   9.356  23.727  11.878
43040W        W11370  39.384  37.440   3.663
43041W        W11371   2.228  26.582   4.716
43042W        W11372  36.035   9.812   3.359
43043W        W11373   1.466   3.329   2.728
43044W        W11374  31.556  32.587   4.118
43045W        W11375  16.772  40.371   3.778
43046W        W11376   8.289   8.242  12.552
43047W        W11377  19.662  29.135  11.911
43048W        W11378  34.554  16.195   4.816
43049W        W11379  16.089  36.942   5.320
43050W        W11380   5.301  43.925  12.036
43051W        W11381  24.134  31.926   4.271
43052W        W11382  25.167  11.731  13.044
43053W        W11383  14.151  19.043   2.287
43054W        W11384  36.046  19.185   1.231
43055W        W11385  10.657  14.216  11.027
43056W        W11386  40.446  19.062   0.403
43057W        W11387  16.115  12.793  10.465
43058W        W11388  25.989  21.586   2.348
43059W        W11389  32.546  38.516  13.495
43060W        W11390  36.361  44.493  14.964
43061W        W11391  37.848  27.032   4.274
43062W        W11392  28.502  11.803  11.433
43063W        W11393   2.803  28.530   3.249
43064W        W11394  37.082   1.334   1.354
43065W        W11395  23.020  34.446  12.047
43066W        W11396   1.806  39.028  14.393
43067W        W11397  27.115  13.156  10.452
43068W        W11398  43.342  23.719  11.892
43069W        W11399  18.666  44.871   0.896
43070W        W11400  24.219   6.919   0.347
43071W        W11401  11.716  30.968   4.668
43072W        W11402  23.084  22.661   1.444
43073W        W11403  43.855   4.885  11.914
43074W        W11404   7.413   5.915  13.043
43075W        W11405  40.388  12.656  12.458
43076W        W11406  22.711   5.374   0.375
43077W        W11407  22.557  13.672   2.674
43078W        W11408  21.689   7.892   2.254
43079W        W11409  20.107  13.793   0.755
43080W        W11410  18.762  33.565  12.057
43081W        W11411  21.206  11.778  10.997
43082W        W11412  23.718  14.199  13.797
43083W        W11413  34.599   6.425  14.786
43084W        W11414  10.774  24.548   0.320
43085W        W11415  14.205  31.108  11.033
43086W        W11416  13.236   2.936  14.021
43087W        W11417  38.027   1.281   1.300
43088W        W11418  25.200  28.025  11.965
43089W        W11419  20.240  14.110  11.892
43090W        W11420  16.584   1.904  12.020
43091W        W11421  40.350   7.384   0.923
43092W        W11422  36.402  44.478   1.704
43093W        W11423  32.044  36.073  12.490
43094W        W11424  32.918  12.348  13.058
43095W        W11425  35.441  31.982  12.900
43096W        W11426   1.249  44.002  12.356
43097W        W11427  23.050  21.028   3.854
43098W        W11428   3.819   0.772   4.631
43099W        W11429  31.122  38.489  10.490
43100W        W11430  44.437   6.821   4.205
43101W        W11431  18.695  34.959  13.058
43102W        W11432  11.158  12.803  12.394
43103W        W11433  44.006  40.811   0.394
43104W        W11434  28.076  14.138   5.228
43105W        W11435  29.151  18.213   4.658
43106W        W11436  20.724   9.322   1.877
43107W        W11437  20.044  25.191  11.895
43108W        W11438  16.295  36.541   4.619
43109W        W11439  43.508  20.618   1.397
43110W        W11440  36.882  23.122  11.466
43111W        W11441   6.701  13.730   3.151
43112W        W11442  20.203  21.054  11.554
43113W        W11443  37.872  25.628   0.740
43114W        W11444  17.083   6.333   0.319
43115W        W11445  26.034   4.384   3.194
43116W        W11446   8.897   1.242  13.484
43117W        W11447  32.983  10.728   2.258
43118W        W11448  32.072  42.406  10.491
43119W        W11449  20.076  24.226   3.306
43120W        W11450  12.216  27.056   1.271
43121W        W11451  23.718  36.866  12.434
43122W        W11452   6.398  44.812   2.782
43123W        W11453  26.019  16.093   0.793
43124W        W11454   5.414  37.385   1.313
43125W        W11455   0.911  34.467   4.279
43126W        W11456  37.451  42.499   0.812
43127W        W11457  33.990   6.740   2.785
43128W        W11458  17.119  39.930   3.630
43129W        W11459  13.164   0.858   4.714
43130W        W11460   1.449  21.162   3.757
43131W        W11461   3.329  22.613  10.548
43132W        W11462  38.903  35.360   0.475
43133W        W11463  16.657  39.998  10.995
43134W        W11464  39.046  40.342  13.027
43135W        W11465   2.457  10.673   0.314
43136W        W11466  17.194  29.987   4.166
43137W        W11467  29.056  22.176  13.469
43138W        W11468  40.329  17.582   0.870
43139W        W11469  19.579  31.546  14.002
43140W        W11470  33.527  21.705   3.708
43141W        W11471  32.909  12.693   4.306
43142W        W11472  30.968  38.826   2.823
43143W        W11473  29.554  40.843   4.237
43144W        W11474  29.944   5.206   0.446
43145W        W11475  38.076  23.147   0.752
43146W        W11476  19.047  21.202   4.629
43147W        W11477  17.128   9.843   2.212
43148W        W11478  20.710  14.605  12.516
43149W        W11479   9.653  21.056  10.937
43150W        W11480  15.260  10.199   2.738
43151W        W11481  34.521   4.230  14.920
43152W        W11482  19.154  32.915   4.325
43153W        W11483  44.868  19.722  14.787
43154W        W11484  35.950   8.319   1.841
43155W        W11485  29.496  33.569  11.030
43156W        W11486   5.384   6.677  14.875
43157W        W11487  14.316  21.755   1.349
43158W        W11488  30.421  37.578  13.326
43159W        W11489  43.867  19.265  14.322
43160W        W11490  17.624  39.883   2.285
43161W        W11491  19.117   5.748  14.451
43162W        W11492  11.231  43.496   2.825
43163W        W11493   3.827  33.122  14.764
43164W        W11494   1.898  27.583  14.366
43165W        W11495  43.515  43.285   4.354
43166W        W11496   3.300  43.995  14.789
43167W        W11497   3.318  32.891  13.872
43168W        W11498   0.300  32.546   2.834
43169W        W11499  15.310   8.215  13.500
43170W        W11500   5.794  23.233  11.493
43171W        W11501  38.448  12.749   1.829
43172W        W11502  39.041  12.722  12.864
43173W        W11503   4.945   8.214   0.861
43174W        W11504  31.624  39.539  13.050
43175W        W11505  36.591  36.868  14.769
43176W        W11506  11.725   5.392   2.204
43177W        W11507   4.912  39.065   1.221
43178W        W11508   9.725  23.711  13.845
43179W        W11509   4.449  14.121  11.458
43180W        W11510  19.626  33.889   2.730
43181W        W11511   1.871   9.883  11.024
43182W        W11512   0.759   7.178   2.383
43183W        W11513  10.256  27.113  10.512
43184W        W11514  17.193   8.890  10.042
43185W        W11515   8.736   4.320  11.409
43186W        W11516   7.301  29.172   4.269
43187W        W11517  24.114  24.189   0.478
43188W        W11518   1.462  27.982  14.951
43189W        W11519  31.099   6.833   3.176
43190W        W11520  40.973  19.744   3.260
43191W        W11521  19.183  33.577  11.084
43192W        W11522   5.326   9.787  13.500
43193W        W11523  31.440   8.346   0.838
43194W        W11524  11.657  12.763   2.230
43195W        W11525  32.523  43.804  10.990
43196W        W11526  35.042  10.213  11.102
43197W        W11527  34.548  19.099   0.757
43198W        W11528  17.735  36.427  12.524
43199W        W11529  29.466   5.372   1.758
43200W        W11530  15.146   7.299  13.809
43201W        W11531   1.409  21.531   1.213
43202W        W11532   9.645  38.458   0.406
43203W        W11533  22.563  34.493  14.368
43204W        W11534  32.527  14.134  14.865
43205W        W11535  32.579  20.612  11.413
43206W        W11536  12.264  42.352  13.437
43207W        W11537   7.838  35.892  14.315
43208W        W11538  17.718  33.400  12.356
43209W        W11539  25.172  24.569  14.300
43210W        W11540   0.865  27.660  11.478
43211W        W11541   9.762   6.368  12.853
43212W        W11542  23.138  11.637   2.741
43213W        W11543   2.396   2.844   1.241
43214W        W11544  28.493  43.803   0.866
43215W        W11545  41.450  17.699  13.944
43216W        W11546  18.194  38.326  12.831
43217W        W11547  16.137  30.517  14.497
43218W        W11548   3.435   3.728   5.228
43219W        W11549  35.497  44.356  13.804
43220W        W11550  26.555  18.286   1.316
43221W        W11551  22.564  15.143  10.934
43222W        W11552  29.475  19.254  13.961
43223W        W11553   2.872  20.234   0.847
43224W        W11554   2.446  25.017  10.994
43225W        W11555  38.440  33.434   4.250
43226W        W11556  44.370  14.254   0.409
43227W        W11557  34.935  18.569  14.032
43228W        W11558  39.341  22.736  14.878
43229W        W11559  21.148  24.697   0.333
43230W        W11560  39.964  39.346   3.379
43231W        W11561  19.163  13.843  13.883
43232W        W11562  11.332  18.709   0.281
43233W        W11563   3.736  30.528   2.374
43234W        W11564  36.566  41.890   0.785
43235W        W11565  19.145  10.267   3.796
43236W        W11566  20.218   8.169  13.321
43237W        W11567  29.142  43.327  13.022
43238W        W11568  44.926  24.188   2.311
43239W        W11569  41.365  10.377   3.200
43240W        W11570  33.611   7.808  10.536
43241W        W11571  36.572  30.908  11.408
43242W        W11572  14.164  14.209   0.902
43243W        W11573  23.047  37.353  11.943
43244W        W11574  41.801  35.468  13.336
43245W        W11575  42.013  20.707   1.828
43246W        W11576  29.453   7.849  13.985
43247W        W11577  31.141   4.241   4.745
43248W        W11578  28.508  42.995  14.494
43249W        W11579  27.559  28.435   0.311
43250W        W11580  25.512  13.234   1.776
43251W        W11581  41.897  25.963   0.840
43252W        W11582  31.919   7.188  13.902
43253W        W11583  28.623  29.028   2.708
43254W        W11584   8.852  19.114  10.633
43255W        W11585  42.525  13.311  13.463
43256W        W11586  14.822  23.499  13.021
43257W        W11587   9.213  15.719  13.795
43258W        W11588  40.962  11.308  10.428
43259W        W11589  15.217   4.227  13.990
43260W        W11590  34.884  31.453   1.792
43261W        W11591  12.328  19.170   1.374
43262W        W11592  26.983  18.147   3.304
43263W        W11593  27.642   6.387   3.303
43264W        W11594   5.336  20.742  10.984
43265W        W11595  27.152  24.648   2.212
43266W        W11596  33.018  33.488  14.851
43267W        W11597  36.529  35.463   4.598
43268W        W11598  10.639  37.849   1.323
43269W        W11599  13.804  32.048   4.703
43270W        W11600  39.901   4.760   2.316
43271W        W11601  21.529  27.177  12.001
43272W        W11602  34.580  16.106  12.933
43273W        W11603  15.257  36.488   4.837
43274W        W11604  16.216  44.385  11.441
43275W        W11605  28.168  31.408  12.000
43276W        W11606   9.295  19.574  12.906
43277W        W11607   4.760  42.280  11.608
43278W        W11608  34.408  23.131  11.864
43279W        W11609   2.795  25.188   3.830
43280W        W11610   0.907  35.456   3.684
43281W        W11611  41.454   0.907  11.480
43282W        W11612   5.316  18.645  12.941
43283W        W11613  30.937  37.029  14.432
43284W        W11614  23.057   8.349  12.916
43285W        W11615  31.941  26.553   3.688
43286W        W11616  20.589  25.505  11.055
43287W        W11617  32.543  27.160   4.729
43288W        W11618  19.176   0.416   3.646
43289W        W11619   0.979  41.343  14.388
43290W        W11620   5.335  31.140   2.206
43291W        W11621   9.663  22.201  13.965
43292W        W11622  38.378  36.078   3.165
43293W        W11623   9.191   9.328   4.824
43294W        W11624  31.959  14.282   4.695
43295W        W11625   2.365  41.383   1.251
43296W        W11626   1.912  18.122   4.598
43297W        W11627  21.191  40.008   2.261
43298W        W11628  18.107  30.146   1.725
43299W        W11629  18.135  10.157  13.513
43300W        W11630  25.474  14.692   1.758
43301W        W11631  36.577  43.445  14.846
43302W        W11632  10.338  44.325  12.471
43303W        W11633  16.804   3.260   1.326
43304W        W11634  43.328  11.839  13.999
43305W        W11635  43.887  13.296   2.683
43306W        W11636  27.173  31.588   4.175
43307W        W11637  22.218  27.488   1.935
43308W        W11638  37.087   7.189   2.778
43309W        W11639  44.896  39.978   3.868
43310W        W11640   4.879  19.057  13.398
43311W        W11641  19.690  44.462   3.299
43312W        W11642   8.880  42.446   1.741
43313W        W11643  25.185  31.017   1.894
43314W        W11644  23.643   4.240   3.760
43315W        W11645  33.988   7.285  12.487
43316W        W11646  18.087  27.065  13.791
43317W        W11647  39.537  17.710   2.226
43318W        W11648  36.991  10.303  10.085
43319W        W11649  39.007  17.272  14.762
43320W        W11650  15.328  25.039   4.246
43321W        W11651  35.925  24.090   2.885
43322W        W11652   0.940  10.649   2.745
43323W        W11653  30.130   2.803  11.459
43324W        W11654  41.903  37.862   1.400
43325W        W11655  33.550  42.434  13.949
43326W        W11656  23.012  21.027  10.121
43327W        W11657  30.653  29.532  12.414
43328W        W11658  42.318   5.270   2.694
43329W        W11659  43.850   5.332  14.012
43330W        W11660   7.247  43.274   2.852
43331W        W11661  38.447  41.482  13.387
43332W        W11662  44.287   0.820  12.093
43333W        W11663  15.140  34.478  13.037
43334W        W11664  27.947   7.822  14.461
43335W        W11665  30.602  31.503  12.425
43336W        W11666  26.063  20.118   1.304
43337W        W11667  21.705  38.416  10.548
43338W        W11668  27.151  38.884   3.378
43339W        W11669  10.846  12.179   3.168
43340W        W11670   6.851  43.322   1.422
43341W        W11671  40.883  28.445  14.387
43342W        W11672   4.246  37.488   1.400
43343W        W11673  23.182  17.611  10.457
43344W        W11674  25.664   0.482  12.037
43345W        W11675   0.849  18.786   1.344
43346W        W11676  28.514   8.358   2.684
43347W        W11677  27.566  40.829   1.811
43348W        W11678  17.286  21.028  10.053
43349W        W11679  14.262  14.155   2.799
43350W        W11680  17.709   3.829   0.384
43351W        W11681  26.133   9.345   9.584
43352W        W11682   2.863   8.719   0.919
43353W        W11683  13.133  20.200   1.831
43354W        W11684  22.544   2.832   3.806
43355W        W11685  41.328  18.610   4.691
43356W        W11686  15.793  22.555   0.301
43357W        W11687  25.174  31.568  14.422
43358W        W11688  29.046   7.317  13.032
43359W        W11689  17.112  27.157   3.265
43360W        W11690   9.721  37.064  11.601
43361W        W11691   4.342   0.766   4.815
43362W        W11692  35.546  18.287   3.197
43363W        W11693   7.745  34.613  13.881
43364W        W11694  23.544  10.636  12.482
43365W        W11695  44.899  28.142   2.401
43366W        W11696   7.294  39.810  13.936
43367W        W11697   2.838  32.948  10.446
43368W        W11698  29.498  24.098   1.255
43369W        W11699   0.970  36.490   1.320
43370W        W11700   4.768  30.544  13.321
43371W        W11701   8.384  18.147   2.262
43372W        W11702  16.078  43.920   0.392
43373W        W11703  32.592  19.725   0.961
43374W        W11704  35.541   0.405  14.468
43375W        W11705   0.983  20.599  12.423
43376W        W11706  37.422  35.482  14.277
43377W        W11707  41.315   0.919   2.360
43378W        W11708  39.516  21.018   3.835
43379W        W11709  31.027   8.368   4.788
43380W        W11710   9.709  15.107   3.165
43381W        W11711  43.352  40.907   4.158
43382W        W11712  15.220  33.422  11.112
43383W        W11713  25.499  22.576  14.852
43384W        W11714  32.614  20.735   0.873
43385W        W11715  32.426  16.627  10.637
43386W        W11716  35.920  37.364   3.260
43387W        W11717  39.836  17.254   4.780
43388W        W11718   7.330  19.079   3.247
43389W        W11719  32.560  38.828  12.534
43390W        W11720  33.554   3.258   0.405
43391W        W11721  42.476  18.759   4.802
43392W        W11722   0.771   2.928  10.467
43393W        W11723  39.372  24.005  14.283
43394W        W11724  31.643   5.303   2.210
43395W        W11725  28.177   3.418   5.248
43396W        W11726  27.026   0.822   4.776
43397W        W11727  35.506  35.437  13.914
43398W        W11728   6.816  15.265   3.357
43399W        W11729  13.288  24.545   0.731
43400W        W11730  25.085  22.071   2.298
43401W        W11731  39.323  23.139   0.771
43402W        W11732  11.316  40.425  14.032
43403W        W11733  13.289  21.534   2.853
43404W        W11734  31.043  23.550  11.487
43405W        W11735  20.032  36.492   0.848
43406W        W11736  28.992  40.937  14.311
43407W        W11737  30.588  15.724   3.244
43408W        W11738  16.582  26.679   4.775
43409W        W11739   6.750   7.798  13.841
43410W        W11740  22.227   0.805   0.320
43411W        W11741   5.250   0.770  12.974
43412W        W11742   8.323  30.581  11.985
43413W        W11743  14.827  27.588   1.767
43414W        W11744  26.594  22.216   2.783
43415W        W11745  39.407  29.926  12.361
43416W        W11746  39.847  11.287  13.544
43417W        W11747  34.442  19.073  14.433
43418W        W11748  15.323   1.957  12.894
43419W        W11749  22.199  11.782   4.170
43420W        W11750   4.366  33.953  13.395
43421W        W11751  21.567  19.742   1.237
43422W        W11752  36.937   8.857  14.464
43423W        W11753  16.637  41.431  13.875
43424W        W11754  32.527  12.210   2.343
43425W        W11755  42.858  14.606   0.737
43426W        W11756  43.390  21.518  14.761
43427W        W11757  38.473  40.368   0.460
43428W        W11758   0.937  36.996  13.967
43429W        W11759  37.445  20.068   1.383
43430W        W11760  38.829  39.489   3.384
43431W        W11761   0.892  23.576   3.781
43432W        W11762  40.939  35.040  14.351
43433W        W11763  16.295  23.701  13.057
43434W        W11764  36.474  26.190  12.916
43435W        W11765   4.938   1.956  14.863
43436W        W11766  13.334  12.143   2.857
43437W        W11767  44.812  33.017   1.813
43438W        W11768   3.737  37.465   1.341
43439W        W11769  34.537  33.624  11.425
43440W        W11770  31.075   9.645  12.827
43441W        W11771  43.998   8.873  10.903
43442W        W11772  36.045   8.727   0.875
43443W        W11773  37.965   0.748   1.420
43444W        W11774  21.185  10.310   1.390
43445W        W11775  16.230   8.353  10.404
43446W        W11776  27.574  37.898   1.868
43447W        W11777  39.992  42.789   0.909
43448W        W11778  24.707   7.882   4.668
43449W        W11779  19.198  33.922  14.361
43450W        W11780  10.355   9.353   3.723
43451W        W11781   3.301  44.818  10.551
43452W        W11782   9.887  38.929   4.705
43453W        W11783  35.892  20.238  13.357
43454W        W11784  29.603   2.857   1.778
43455W        W11785  14.660  29.452  13.445
43456W        W11786  30.425  27.972  11.009
43457W        W11787  20.077   8.792   1.769
43458W        W11788   3.884  15.646   2.417
43459W        W11789   3.711  41.298  13.923
43460W        W11790  22.166  14.152   3.217
43461W        W11791  26.535  26.486  13.886
43462W        W11792  10.244   1.322  14.963
43463W        W11793  15.675  34.053  13.490
43464W        W11794  35.373   3.710   2.718
43465W        W11795  36.926  23.062   4.281
43466W        W11796  11.203  43.430  14.779
43467W        W11797  11.173  44.964   0.829
43468W        W11798  31.133   0.773  14.924
43469W        W11799   7.268   0.467  11.993
43470W        W11800  42.920  17.206   1.809
43471W        W11801  10.176  41.435  12.051
43472W        W11802  13.783   5.403  10.638
43473W        W11803  27.468  20.579  11.425
43474W        W11804  38.482  39.465   3.791
43475W        W11805  43.792  23.493  13.476
43476W        W11806  33.583   8.225   4.736
43477W        W11807  13.195  16.315  11.106
43478W        W11808  44.392  24.109  10.502
43479W        W11809  32.975  19.265   1.343
43480W        W11810  28.584  40.528  14.456
43481W        W11811  15.806  14.097  12.403
43482W        W11812   4.813  14.786   3.296
43483W        W11813  43.368  34.591  14.838
43484W        W11814  18.702  28.594   4.789
43485W        W11815   6.347   7.261   1.754
43486W        W11816  20.718  30.456   0.759
43487W        W11817   9.351  17.788  13.379
43488W        W11818  19.580   9.799  14.494
43489W        W11819  44.803  11.246   4.751
43490W        W11820   7.322  28.134   4.824
43491W        W11821   0.365  40.879  12.367
43492W        W11822  33.883  38.945   0.298
43493W        W11823   8.687   9.325   4.214
43494W        W11824  32.974  38.823  12.487
43495W        W11825  17.757  29.971   2.694
43496W        W11826  32.621   9.777  10.634
43497W        W11827  34.921   6.892  14.819
43498W        W11828  32.961  11.676  11.124
43499W        W11829  41.959  28.585  13.805
43500W        W11830  12.735  30.567   1.793
43501W        W11831  16.304  21.695  10.476
43502W        W11832  18.188  32.985  11.410
43503W        W11833   3.830  10.168  13.365
43504W        W11834   4.843  14.773  12.932
43505W        W11835   9.759   6.879  13.348
43506W        W11836  21.209  24.585   4.690
43507W        W11837  23.139   2.924   3.224
43508W        W11838  43.298  21.084  13.353
43509W        W11839  11.838  39.358   4.119
43510W        W11840  36.071  27.041   1.349
43511W        W11841  19.675  38.515  13.330
43512W        W11842  31.605  44.952   1.284
43513W        W11843  15.242   0.398  12.957
43514W        W11844  35.405  32.077   0.815
43515W        W11845  12.848  14.196  10.476
43516W        W11846  14.615  36.874  13.468
43517W        W11847  35.559   8.402   3.253
43518W        W11848   6.426  21.200   3.158
43519W        W11849  15.242  13.822  14.915
43520W        W11850  38.440  15.650   1.408
43521W        W11851  24.579  14.792   0.429
43522W        W11852  35.506  27.671  14.001
43523W        W11853  44.449  34.942   3.224
43524W        W11854  13.274  33.452   4.794
43525W        W11855  16.195  25.031  11.957
43526W        W11856  13.217  29.601   1.376
43527W        W11857  37.491  15.226   4.612
43528W        W11858   2.236  42.349   3.370
43529W        W11859  39.343  44.359  13.370
43530W        W11860  27.628   9.820  10.077
43531W        W11861   8.843  23.629  11.934
43532W        W11862  24.025  30.134  14.488
43533W        W11863  11.629   4.830   3.384
43534W        W11864  28.615   7.833   2.218
43535W        W11865  12.124  12.770   3.238
43536W        W11866   5.708  22.623  10.640
43537W        W11867  37.439  41.001  10.465
43538W        W11868   3.850   1.858   3.269
43539W        W11869  42.006  29.019   2.867
43540W        W11870  18.689  39.532  11.910
43541W        W11871   4.751  11.834   1.918
43542W        W11872  12.177   2.351   2.735
43543W        W11873   7.790  15.109   4.260
43544W        W11874  23.627   7.710  11.982
43545W        W11875  38.902  35.982  13.963
43546W        W11876  31.120  13.163  13.439
43547W        W11877  10.693   7.309  12.511
43548W        W11878  18.737  42.517  14.839
43549W        W11879  30.535  28.161   0.762
43550W        W11880   6.753  32.983  11.915
43551W        W11881  24.556  26.984  14.509
43552W        W11882   4.246  24.038  14.345
43553W        W11883  36.489  30.032  14.970
43554W        W11884  22.224  13.162  14.835
43555W        W11885  19.079  23.736   3.167
43556W        W11886  17.176  28.085  11.885
43557W        W11887   1.744   8.801  12.907
43558W        W11888  31.038   5.306  13.962
43559W        W11889  32.920  16.650   0.255
43560W        W11890  26.483   0.767  14.392
43561W        W11891  31.627  14.130   3.148
43562W        W11892   3.861  11.338  14.310
43563W        W11893  15.115  34.427   2.818
43564W        W11894  30.494  31.494   2.821
43565W        W11895  19.239  10.663   2.723
43566W        W11896  13.254   7.390   9.985
43567W        W11897  38.408  29.030  11.421
43568W        W11898  37.503  16.687  11.460
43569W        W11899  26.641  38.398   0.834
43570W        W11900  42.377  40.465   2.710
43571W        W11901  34.492  27.649   0.263
43572W        W11902  15.714  11.134  13.834
43573W        W11903  21.550  19.780  12.855
43574W        W11904   9.364   8.805  13.480
43575W        W11905  43.935  16.743  12.006
43576W        W11906  21.614   1.277  11.535
43577W        W11907   8.873  30.924  11.544
43578W        W11908  10.141  33.445   4.291
43579W        W11909   3.888  33.401  13.945
43580W        W11910   7.686  26.971   3.311
43581W        W11911  42.405  32.132  12.532
43582W        W11912   0.788  13.139  12.344
43583W        W11913  40.030   4.312  13.543
43584W        W11914  29.522   9.855  13.324
43585W        W11915   7.382   7.832   0.841
43586W        W11916  42.988  44.483  12.343
43587W        W11917  33.991   4.867   3.826
43588W        W11918  32.018  34.027  14.003
43589W        W11919  43.939  44.952  12.051
43590W        W11920  22.088  44.326   3.787
43591W        W11921  26.004  18.655   4.249
43592W        W11922   3.792  12.677   2.728
43593W        W11923  13.158  23.035  12.400
43594W        W11924  35.954   2.938   2.261
43595W        W11925  14.096  33.495  11.040
43596W        W11926  27.030   3.945  14.389
43597W        W11927  43.993  17.091   0.842
43598W        W11928  17.700  20.663   0.862
43599W        W11929  44.286  12.643  14.032
43600W        W11930  13.176  34.517  13.537
43601W        W11931  34.974   4.318   1.925
43602W        W11932  15.609   5.232  10.486
43603W        W11933  38.350  41.965   3.358
43604W        W11934  20.656   5.214  10.895
43605W        W11935  34.098  20.764   4.209
43606W        W11936   7.189  39.546   3.783
43607W        W11937  13.620  21.733  10.958
43608W        W11938  18.678  32.434  13.017
43609W        W11939   9.679   7.849  10.639
43610W        W11940  42.484  21.678  12.015
43611W        W11941  21.247  17.295   4.833
43612W        W11942  31.057  43.827  12.064
43613W        W11943  33.484  39.940  12.926
43614W        W11944  33.023  24.222  13.895
43615W        W11945   9.151   3.376  10.122
43616W        W11946   5.223  10.797   3.312
43617W        W11947   4.719   5.275   2.371
43618W        W11948   0.936   5.375   4.329
43619W        W11949  41.391  26.103  14.413
43620W        W11950  30.940  26.616   3.856
43621W        W11951  11.310  18.077  12.514
43622W        W11952  25.687  34.413  13.002
43623W        W11953  32.139  31.950   4.831
43624W        W11954  14.608   4.411   2.850
43625W        W11955   5.249  19.256  12.563
43626W        W11956  22.135   4.896  13.399
43627W        W11957  29.430  31.468   9.962
43628W        W11958  37.389   9.310   0.441
43629W        W11959  14.802  34.964  11.952
43630W        W11960  37.066   6.868   1.726
43631W        W11961   2.722  30.077  11.959
43632W        W11962  17.688   0.317  13.893
43633W        W11963  21.160  29.046   0.356
43634W        W11964   3.457  25.506   2.351
43635W        W11965  26.957  30.066  12.901
43636W        W11966  32.002  14.275   1.240
43637W        W11967  44.278  42.301   0.353
43638W        W11968  11.243  27.613  14.760
43639W        W11969  11.195  15.667  13.942
43640W        W11970   4.336  36.092  13.914
43641W        W11971  10.317  15.177   1.867
43642W        W11972  44.393  28.533   1.886
43643W        W11973  13.636   9.310  12.020
43644W        W11974  40.392  11.224  11.037
43645W        W11975   4.851  28.061   1.864
43646W        W11976   3.374  20.580   1.347
43647W        W11977   3.744  33.394  10.992
43648W        W11978  19.099  16.770  10.486
43649W        W11979  31.027   5.739  11.110
43650W        W11980  12.635  34.490  10.997
43651W        W11981  27.153   5.692   3.695
43652W        W11982  35.084  22.726   1.392
43653W        W11983  30.657  32.475  10.517
43654W        W11984  28.568  43.989  12.905
43655W        W11985  33.890  43.862   1.897
43656W        W11986   3.301  12.625  12.395
43657W        W11987   6.266  22.708   2.223
43658W        W11988   0.388  24.090   0.850
43659W        W11989  15.662   8.820   0.767
43660W        W11990  27.494   8.715   1.252
43661W        W11991  37.956   5.911  11.580
43662W        W11992  34.982  33.395  11.478
43663W        W11993   0.364   0.362  11.950
43664W        W11994  23.711  20.692  12.003
43665W        W11995  11.776  24.568  11.898
43666W        W11996  27.532  11.196  10.467
43667W        W11997  41.015  13.602   2.183
43668W        W11998  42.853  36.452  13.474
43669W        W11999  42.951  33.626   3.643
43670W        W12000  41.429  38.325   1.355
43671W        W12001  42.378  11.363  12.027
43672W        W12002  12.756   9.248  14.421
43673W        W12003  10.857   3.757   1.264
43674W        W12004  25.666   1.864   0.736
43675W        W12005  33.491  12.328   0.829
43676W        W12006  31.115   5.806  12.440
43677W        W12007  42.376  11.204   1.712
43678W        W12008  43.354   7.290  14.770
43679W        W12009  28.516  42.829  11.105
43680W        W12010  43.351  28.661   0.773
43681W        W12011   1.768   3.801   4.836
43682W        W12012  16.129  33.987  13.929
43683W        W12013   9.780  14.114   2.392
43684W        W12014   7.815  43.811   1.790
43685W        W12015  29.100  11.674  12.076
43686W        W12016  23.506  21.617   4.638
43687W        W12017   5.786  33.944   4.135
43688W        W12018  11.252  13.635  13.469
43689W        W12019  22.542  37.468   2.178
43690W        W12020   9.876  14.801  11.470
43691W        W12021  19.703   6.809   4.280
43692W        W12022  20.701  14.728   4.223
43693W        W12023   2.354   3.784  12.904
43694W        W12024   1.943  40.016   2.895
43695W        W12025  41.322   7.349   2.244
43696W        W12026   4.897  22.155  10.636
43697W        W12027   4.905  10.731   9.991
43698W        W12028   7.260  36.539   3.815
43699W        W12029  34.100  11.218  12.561
43700W        W12030  12.128  38.837  13.353
43701W        W12031  28.673  36.997  13.439
43702W        W12032  22.574  23.004   4.344
43703W        W12033   9.837  31.409  12.577
43704W        W12034  23.531  40.355  12.543
43705W        W12035  26.202   7.742  14.447
43706W        W12036  18.258  29.954   0.880
43707W        W12037  42.422  27.005  14.943
43708W        W12038   1.335  35.110  11.549
43709W        W12039  33.926  27.047  10.605
43710W        W12040  21.702  29.498  10.928
43711W        W12041  28.067  11.264   4.339
43712W        W12042   8.832  11.726   4.705
43713W        W12043  32.104  38.075  11.036
43714W        W12044  30.057   3.243   0.471
43715W        W12045  31.125  24.208   5.270
43716W        W12046   7.286  27.692  14.931
43717W        W12047  41.422   3.852   1.869
43718W        W12048  44.956  32.063  13.495
43719W        W12049   8.767  37.448  12.048
43720W        W12050  25.133  12.821  11.487
43721W        W12051   9.839  26.515   1.932
43722W        W12052  34.579   8.669  10.605
43723W        W12053  21.211  21.197   3.183
43724W        W12054  16.580   1.963  13.453
43725W        W12055  42.820  44.987   3.634
43726W        W12056  23.014  11.364  14.382
43727W        W12057  40.853   8.399  10.510
43728W        W12058  38.392  41.369  14.790
43729W        W12059   9.258  41.896   0.442
43730W        W12060  12.676   5.362  10.462
43731W        W12061  34.112   4.277   0.252
43732W        W12062  37.956  19.708   0.439
43733W        W12063  32.024  21.704   4.119
43734W        W12064  19.163  30.430   1.716
43735W        W12065  30.024   8.775   1.865
43736W        W12066  28.585  27.607   3.207
43737W        W12067  13.734  35.476  12.020
43738W        W12068  11.798   7.815  12.890
43739W        W12069  16.228  14.688   2.679
43740W        W12070  36.874  41.948   1.257
43741W        W12071  35.901  22.191   2.395
43742W        W12072  31.631  37.944  11.098
43743W        W12073  41.495  43.874   1.223
43744W        W12074  13.208   6.203  10.539
43745W        W12075  43.921  20.199   2.783
43746W        W12076  30.643  32.592  10.942
43747W        W12077  17.155  19.732   2.312
43748W        W12078  15.249   5.725   2.258
43749W        W12079  44.413  26.004   1.932
43750W        W12080  26.534  32.945  13.043
43751W        W12081  13.266  44.467   3.264
43752W        W12082  20.562  29.997   4.238
43753W        W12083  18.230  28.611  11.489
43754W        W12084  40.503  14.746   0.837
43755W        W12085  32.398   4.335  12.003
43756W        W12086  13.846  42.815  13.481
43757W        W12087  18.286  25.675  14.820
43758W        W12088  15.765  37.021   5.577
43759W        W12089  42.903  35.478  12.998
43760W        W12090  20.654   2.748  10.636
43761W        W12091  11.635   1.743   2.690
43762W        W12092  16.279  42.498  13.020
43763W        W12093  38.072  34.602   0.951
43764W        W12094  14.629  23.188  13.481
43765W        W12095  31.596   9.804   3.688
43766W        W12096  29.956  20.523  14.341
43767W        W12097  37.005  16.292  10.913
43768W        W12098  20.625  42.391  14.935
43769W        W12099  26.189  10.799   1.758
43770W        W12100  28.152   3.448   3.749
43771W        W12101  44.320  26.001  12.834
43772W        W12102  18.260   6.318  14.026
43773W        W12103   8.330  29.515   4.185
43774W        W12104   3.343  44.944   3.192
43775W        W12105  32.494  17.200   1.311
43776W        W12106  27.542  33.966   1.229
43777W        W12107  28.060  22.697   5.262
43778W        W12108  16.599  18.634   1.300
43779W        W12109   1.829  44.991  12.020
43780W        W12110  37.012   4.740  13.486
43781W        W12111   6.698  30.105   1.706
43782W        W12112  23.090   0.793   2.385
43783W        W12113  27.455  41.812  14.911
43784W        W12114  26.601  35.103   4.263
43785W        W12115   9.266  28.178   1.340
43786W        W12116  40.921   7.293  14.294
43787W        W12117  34.992  13.836   0.360
43788W        W12118  10.293   6.850   0.359
43789W        W12119   8.736  15.280   4.609
43790W        W12120  23.523  31.503  14.976
43791W        W12121  16.647  15.695  13.361
43792W        W12122  28.008  30.472   0.740
43793W        W12123  40.797  10.151  14.940
43794W        W12124  17.082  27.024  13.317
43795W        W12125   0.344   7.291  10.957
43796W        W12126  15.607  26.065   0.403
43797W        W12127  22.614   1.449  12.442
43798W        W12128   4.917   8.796   3.221
43799W        W12129  16.574  25.057  13.438
43800W        W12130  34.943  16.793  12.431
43801W        W12131   7.243  14.698  11.059
43802W        W12132  23.631  44.950   4.270
43803W        W12133   1.381  20.615  14.371
43804W        W12134  44.770  10.700  12.377
43805W        W12135  14.149  21.511   0.726
43806W        W12136  16.205  20.054   2.371
43807W        W12137  38.885  10.157   1.815
43808W        W12138  34.057  42.812  11.504
43809W        W12139   6.900  25.022   2.807
43810W        W12140  29.013  36.408  12.848
43811W        W12141   5.293  33.066   0.942
43812W        W12142  14.760   8.307   0.336
43813W        W12143  19.227  44.907  13.929
43814W        W12144  30.999  21.566   4.663
43815W        W12145  39.438   3.416   2.900
43816W        W12146   5.885  26.572   1.332
43817W        W12147  32.461  30.650  12.895
43818W        W12148  33.089   5.427   3.252
43819W        W12149  26.994  36.416  11.944
43820W        W12150  20.652  29.043   4.683
43821W        W12151  21.728  16.760  11.520
43822W        W12152  32.404  17.308   0.940
43823W        W12153   3.343  33.892   4.760
43824W        W12154  11.746  32.113   1.379
43825W        W12155  34.081   2.945  13.442
43826W        W12156  15.701   4.864   5.299
43827W        W12157  40.019  18.751   4.704
43828W        W12158  31.031  37.414   0.318
43829W        W12159  33.919  14.298  13.394
43830W        W12160  29.940  33.458  13.806
43831W        W12161  29.438   3.348   0.810
43832W        W12162  23.666  22.675   1.793
43833W        W12163  40.007  31.567  10.459
43834W        W12164   7.315  18.557   4.310
43835W        W12165  22.711  37.981  13.984
43836W        W12166  32.440   3.287   2.310
43837W        W12167  13.846   9.329  14.922
43838W        W12168  30.089   6.332  14.469
43839W        W12169  25.027  21.176   5.213
43840W        W12170  28.984  20.528   1.706
43841W        W12171   0.767  22.618   0.834
43842W        W12172  15.616  26.073  14.016
43843W        W12173  25.173  22.201   3.632
43844W        W12174   7.368  21.153   3.213
43845W        W12175  29.035  42.405   4.716
43846W        W12176  12.124  42.317   0.920
43847W        W12177  31.474  32.597  11.474
43848W        W12178  19.584  43.491  14.425
43849W        W12179  18.606  32.509  12.422
43850W        W12180  42.980  41.809   5.251
43851W        W12181  26.545   2.254  12.538
43852W        W12182  12.844   3.900   0.876
43853W        W12183  27.995  38.423  12.855
43854W        W12184  23.195   8.282   2.840
43855W        W12185  27.189   9.374   3.247
43856W        W12186  44.987  34.529   1.340
43857W        W12187  43.850   0.467  11.046
43858W        W12188   5.901   2.915   2.408
43859W        W12189  26.129  23.091  13.489
43860W        W12190  34.501  17.715   0.249
43861W        W12191   2.754  36.076   5.084
43862W        W12192  29.440   2.269  10.569
43863W        W12193  30.657   3.903   1.912
43864W        W12194  37.852  42.850   2.391
43865W        W12195   8.242  33.381  12.426
43866W        W12196  35.505  22.224  14.291
43867W        W12197  34.930  21.658   2.369
43868W        W12198  33.611  14.141  12.532
43869W        W12199  32.398  15.116  14.385
43870W        W12200  42.285  25.625  11.407
43871W        W12201  42.031   3.328   4.700
43872W        W12202   3.864  12.759  10.911
43873W        W12203  42.835  40.308  13.984
43874W        W12204  44.464   5.264   4.801
43875W        W12205  43.368  10.296   4.187
43876W        W12206  41.860  13.754  14.016
43877W        W12207  33.050   6.850   2.727
43878W        W12208  16.139  13.345  10.976
43879W        W12209  22.186  21.757  11.919
43880W        W12210  43.991  18.717   0.775
43881W        W12211  13.297  43.945  10.908
43882W        W12212  26.467  24.091  10.941
43883W        W12213   3.397  28.150   2.787
43884W        W12214  19.219   6.840  14.958
43885W        W12215  32.580   1.774   3.640
43886W        W12216   0.897   4.335  12.487
43887W        W12217  33.381  36.426   1.933
43888W        W12218  31.998  19.281   4.154
43889W        W12219  32.131  38.389   4.146
43890W        W12220  10.228  12.843   5.115
43891W        W12221  32.137  30.922   5.158
43892W        W12222   9.273  43.274   2.406
43893W        W12223   5.319  21.107  12.508
43894W        W12224   8.859   2.367  11.406
43895W        W12225  18.591  20.624   1.375
43896W        W12226  14.168   5.404   0.767
43897W        W12227   0.816  30.137   0.780
43898W        W12228  20.527  20.127   3.662
43899W        W12229  27.010  40.428  14.849
43900W        W12230  11.337  32.095   3.356
43901W        W12231   1.384  29.609  12.403
43902W        W12232   7.911  17.066  11.585
43903W        W12233  24.090  32.901  13.375
43904W        W12234   0.972  26.516  13.357
43905W        W12235  43.880  31.944  11.927
43906W        W12236  27.493  16.572   2.293
43907W        W12237  10.192   7.705  11.391
43908W        W12238  19.175  42.481   4.827
43909W        W12239  42.024  18.085   3.246
43910W        W12240  39.965   5.364   4.124
43911W        W12241   7.728  37.400   2.344
43912W        W12242  25.475  34.509  13.541
43913W        W12243  25.117  10.860   1.822
43914W        W12244  27.520   1.848   1.253
43915W        W12245  15.284  13.675  10.952
43916W        W12246  31.126  40.984   4.684
43917W        W12247  22.135   9.692   2.748
43918W        W12248  12.765  21.160  14.464
43919W        W12249   0.405  19.059   4.206
43920W        W12250  38.073   0.782  11.943
43921W        W12251  41.029  36.023  10.638
43922W        W12252  39.048  11.756  13.900
43923W        W12253  44.868  13.279  13.932
43924W        W12254   5.354  18.101   4.652
43925W        W12255   1.936  25.712  14.945
43926W        W12256  27.136  30.542  10.538
43927W        W12257  29.468  21.514   4.833
43928W        W12258  17.141  29.042   0.314
43929W        W12259   5.883  20.187   2.682
43930W        W12260  22.515  34.988   4.728
43931W        W12261  10.857  26.977  14.385
43932W        W12262  43.333   3.431  12.969
43933W        W12263  13.681  13.704  13.834
43934W        W12264   4.208  14.749   4.800
43935W        W12265  14.316  23.013   4.141
43936W        W12266  40.036  19.159  13.488
43937W        W12267  15.144   1.930  14.924
43938W        W12268   0.443  22.537  13.027
43939W        W12269  17.729  14.221  14.468
43940W        W12270  18.786  20.583  14.296
43941W        W12271   4.739  24.545   4.599
43942W        W12272  34.958  15.650  12.403
43943W        W12273  37.513  10.151  13.795
43944W        W12274  33.112  22.250  10.556
43945W        W12275  25.146  31.526  12.486
43946W        W12276   2.722  25.127   4.173
43947W        W12277  42.787   0.350   1.857
43948W        W12278  36.510   2.255  12.418
43949W        W12279  17.102  36.908  12.540
43950W        W12280  17.692  19.549   3.804
43951W        W12281  16.250  31.464  11.033
43952W        W12282  32.451  21.546   3.345
43953W        W12283  10.855   9.849  13.365
43954W        W12284  19.746  16.662   3.300
43955W        W12285  16.259  39.010  13.916
43956W        W12286   3.746  36.893   1.843
43957W        W12287  31.484  19.613   5.622
43958W        W12288  37.470  38.461   4.649
43959W        W12289  20.271   8.818   4.155
43960W        W12290  24.024  10.800   1.267
43961W        W12291  14.731  34.593   0.302
43962W        W12292  11.743  26.113   4.138
43963W        W12293  23.514   5.860  14.840
43964W        W12294  10.761  30.005   2.300
43965W        W12295   4.813  31.947   3.792
43966W        W12296  37.038  25.156  10.969
43967W        W12297  17.242  16.179  12.383
43968W        W12298   5.852  36.524   1.815
43969W        W12299  29.434  30.050  12.097
43970W        W12300  10.864  40.831  14.004
43971W        W12301   4.288  22.723   4.652
43972W        W12302  27.633  13.725  11.013
43973W        W12303  44.866  30.059   4.287
43974W        W12304  21.177  13.697  11.093
43975W        W12305  43.865  10.734   2.282
43976W        W12306  40.885  29.538  10.454
43977W        W12307  17.197  37.053  11.459
43978W        W12308   5.289  17.179  12.086
43979W        W12309   1.834  18.107  11.536
43980W        W12310  14.270  28.971  14.937
43981W        W12311  12.673  40.818  13.377
43982W        W12312  26.126   7.395  11.862
43983W        W12313  21.144  28.089  12.959
43984W        W12314   7.322  29.945  11.609
43985W        W12315   2.337  37.491   5.322
43986W        W12316  42.311  21.553   0.915
43987W        W12317  42.853   4.708   0.323
43988W        W12318  34.465  41.301  14.807
43989W        W12319  28.665  20.045  10.915
43990W        W12320   3.919  41.794  12.387
43991W        W12321  13.218  23.548   4.218
43992W        W12322  38.982  24.679  11.530
43993W        W12323  39.326  27.968   4.124
43994W        W12324   4.399  28.487   3.309
43995W        W12325  13.279  27.571  11.431
43996W        W12326  18.296   6.721   4.654
43997W        W12327  11.822  39.046  14.284
43998W        W12328  36.578  44.436  10.895
43999W        W12329  15.240  38.356  11.123
44000W        W12330  22.567   5.221  14.370
44001W        W12331  11.270   1.422  12.982
44002W        W12332  34.563  13.292  14.471
44003W        W12333   5.829   2.911   3.805
44004W        W12334  34.489  16.306  13.911
44005W        W12335  37.437  29.082  13.948
44006W        W12336  29.060  24.985   3.694
44007W        W12337  40.039  24.521   2.875
44008W        W12338   7.779  42.377   2.392
44009W        W12339  41.892  37.987   2.257
44010W        W12340   3.912   8.255   1.806
44011W        W12341  30.508  21.588  11.398
44012W        W12342  18.610  36.347  13.348
44013W        W12343  26.204   9.382   5.168
44014W        W12344  28.646  24.584   0.787
44015W        W12345  43.278   8.235  10.530
44016W        W12346  42.442  41.527  10.406
44017W        W12347  22.617  33.971   3.691
44018W        W12348  30.627  32.485  12.919
44019W        W12349  41.513  23.998  11.438
44020W        W12350  33.593  23.711  10.055
44021W        W12351  34.023  15.668  12.560
44022W        W12352  34.099  17.114   2.726
44023W        W12353   4.262  17.646  14.286
44024W        W12354  22.617  20.663   0.949
44025W        W12355  44.759  26.644  14.512
44026W        W12356  31.968   4.340   2.375
44027W        W12357  33.072   5.331  10.578
44028W        W12358   3.345   6.399   5.196
44029W        W12359  16.288  26.574  11.596
44030W        W12360  13.226  18.648  14.968
44031W        W12361  17.630  21.064  14.002
44032W        W12362  10.671   7.679   1.348
44033W        W12363  27.690  20.274   2.394
44034W        W12364  11.319  41.009  14.976
44035W        W12365  34.368  33.561   4.765
44036W        W12366  22.135  10.279  14.445
44037W        W12367  43.801  12.746   3.152
44038W        W12368  20.662  15.649  11.390
44039W        W12369  18.052  44.297  11.124
44040W        W12370  33.015  19.584   2.726
44041W        W12371  15.245  41.042  10.937
44042W        W12372  18.648  34.508   4.613
44043W        W12373  23.724  10.724   3.225
44044W        W12374  31.613  33.516   2.721
44045W        W12375  34.408  11.280   2.670
44046W        W12376  32.419  31.570  14.941
44047W        W12377  21.090  23.506   3.283
44048W        W12378  35.375   5.360  10.439
44049W        W12379  11.685   4.830   3.650
44050W        W12380  34.873  38.389   1.400
44051W        W12381  11.259  28.636   0.313
44052W        W12382   6.271  36.354  10.414
44053W        W12383  30.982   3.863  12.992
44054W        W12384  43.435  10.223  11.081
44055W        W12385   4.920   7.398   0.416
44056W        W12386   2.898   3.765   2.287
44057W        W12387  11.202  21.186   2.199
44058W        W12388  11.824   1.838   4.614
44059W        W12389  43.513  17.679  14.845
44060W        W12390   4.272   1.899  10.443
44061W        W12391  24.998   2.964   1.825
44062W        W12392  12.225  36.003  10.437
44063W        W12393   9.286  17.601  11.610
44064W        W12394  38.992  25.016   4.703
44065W        W12395  42.032   8.276  12.060
44066W        W12396  18.757  31.432  13.336
44067W        W12397  12.176  19.098  12.005
44068W        W12398  38.980   0.281   3.764
44069W        W12399  29.583  38.851   4.820
44070W        W12400  41.996  28.085   2.674
44071W        W12401  20.197   8.239  10.479
44072W        W12402  25.480  16.191  10.956
44073W        W12403  26.178  28.546   1.706
44074W        W12404  21.257   8.853   4.626
44075W        W12405   9.376  14.142   4.819
44076W        W12406  35.565  23.006   0.349
44077W        W12407  44.975  37.450  14.439
44078W        W12408  13.736   6.195   4.221
44079W        W12409  24.714   7.180  13.051
44080W        W12410  41.861  43.407   2.295
44081W        W12411  23.985  19.189   1.424
44082W        W12412   5.734  12.799   2.891
44083W        W12413  15.614   8.659   1.422
44084W        W12414  23.515  29.979   1.871
44085W        W12415   2.294  28.594   4.689
44086W        W12416  19.696  41.297  12.945
44087W        W12417   4.225  43.845  11.949
44088W        W12418  32.623   5.261   0.746
44089W        W12419   8.765  36.366   4.742
44090W        W12420  32.956  12.661  13.892
44091W        W12421  20.119  18.783  12.908
44092W        W12422  32.978  34.501   4.171
44093W        W12423   4.899  25.149   3.732
44094W        W12424  42.506  14.132   2.310
44095W        W12425   4.723  10.686  10.932
44096W        W12426  28.548  27.193   0.871
44097W        W12427  41.322  24.984   1.790
44098W        W12428   2.252  23.578  12.339
44099W        W12429  33.607  29.476   0.799
44100W        W12430  21.648  28.960   3.343
44101W        W12431   0.950  25.508  14.022
44102W        W12432   8.358  22.146  12.375
44103W        W12433  16.677  39.884  11.528
44104W        W12434  38.412  43.306  14.453
44105W        W12435  38.564  41.931  14.887
44106W        W12436  12.232  16.186   4.828
44107W        W12437  29.117  42.874   0.957
44108W        W12438   5.237  41.788  14.813
44109W        W12439  11.642  37.506  11.932
44110W        W12440  31.099  18.636  10.640
44111W        W12441  32.602  41.462   0.478
44112W        W12442  15.634  43.996   1.421
44113W        W12443  16.794  16.607  11.931
44114W        W12444  32.479   0.386  14.998
44115W        W12445  31.993  20.722   2.261
44116W        W12446  28.560  29.512  11.909
44117W        W12447  11.658  25.698   2.181
44118W        W12448   8.739   4.760   2.303
44119W        W12449  14.707   1.762  11.460
44120W        W12450   9.229  28.452  13.825
44121W        W12451  16.211  32.118  11.067
44122W        W12452  19.739  24.647   2.308
44123W        W12453  21.681   5.296   0.755
44124W        W12454   9.856   9.261  10.561
44125W        W12455  22.605  26.567  12.063
44126W        W12456  22.619  10.762   5.158
44127W        W12457  37.344  32.478   4.760
44128W        W12458  18.264   7.680  10.448
44129W        W12459  13.210  31.419  14.483
44130W        W12460   7.726  28.532   0.924
44131W        W12461  14.636   9.826  13.920
44132W        W12462  37.370   7.828   1.430
44133W        W12463   0.856   5.699  12.361
44134W        W12464   4.735   2.440  11.463
44135W        W12465  23.024   7.694   2.344
44136W        W12466  20.732  31.584   3.869
44137W        W12467  12.817  17.630  12.553
44138W        W12468  34.967  27.012  11.551
44139W        W12469  19.058  11.867   4.810
44140W        W12470  16.726  11.655  13.497
44141W        W12471  33.969   9.684   0.256
44142W        W12472  24.544  28.451  13.474
44143W        W12473  34.880  28.030  13.409
44144W        W12474  13.276  21.690  12.878
44145W        W12475  17.197  20.159   4.700
44146W        W12476  14.767  44.422   1.900
44147W        W12477  27.129   0.354   2.699
44148W        W12478  12.783  44.469  14.997
44149W        W12479  17.097   6.312   2.801
44150W        W12480  25.568  35.880   1.867
44151W        W12481  26.205  32.104   4.789
44152W        W12482  30.537  42.473  14.846
44153W        W12483  25.203  25.059   0.727
44154W        W12484  32.933  40.497  13.883
44155W        W12485  13.322  12.791   2.192
44156W        W12486  35.560  28.972   4.226
44157W        W12487  15.243  28.070   2.366
44158W        W12488  35.601  13.176  11.043
44159W        W12489  44.271   1.311  14.382
44160W        W12490  34.565  12.655  12.543
44161W        W12491  29.008  19.587  14.304
44162W        W12492  14.142  30.440   4.651
44163W        W12493   9.268   6.205   2.881
44164W        W12494  15.159   9.209  12.987
44165W        W12495  35.376   9.792  13.450
44166W        W12496  19.042  32.577  11.374
44167W        W12497  22.670  14.791   0.289
44168W        W12498  16.571  21.140  12.002
44169W        W12499   7.813  12.347   4.323
44170W        W12500  41.431   5.329  13.323
44171W        W12501  13.245  42.445   3.327
44172W        W12502   8.746  33.986   3.222
44173W        W12503   4.862  41.922  13.543
44174W        W12504  44.371   7.303   0.274
44175W        W12505  28.444  37.943   2.870
44176W        W12506   5.366  37.851   3.842
44177W        W12507  26.123  22.176  12.919
44178W        W12508  22.652  20.207  11.943
44179W        W12509  39.505  12.220   3.335
44180W        W12510  31.907   3.792   3.718
44181W        W12511  19.776  17.712   2.894
44182W        W12512   2.745   9.197   3.742
44183W        W12513  31.138  32.456   1.326
44184W        W12514   8.278  11.373  14.852
44185W        W12515   7.343  16.592  12.437
44186W        W12516  42.298  17.115  11.402
44187W        W12517  31.625  33.966   1.761
44188W        W12518  13.781  39.850   3.842
44189W        W12519  28.183   6.377   3.667
44190W        W12520   6.852  10.838  14.847
44191W        W12521  22.708   3.795   2.279
44192W        W12522  44.358  22.745  13.060
44193W        W12523  33.397  35.406  14.308
44194W        W12524  44.789  11.314  10.469
44195W        W12525   5.739  31.522   4.346
44196W        W12526  38.446  31.507  11.879
44197W        W12527  29.552  37.059   3.663
44198W        W12528  19.777  24.642   3.635
44199W        W12529   5.270   4.382  12.935
44200W        W12530  22.023  35.377  13.439
44201W        W12531  16.789  13.140   4.223
44202W        W12532  14.662  38.062   1.749
44203W        W12533  12.779  28.938  14.391
44204W        W12534   6.182  39.002   3.657
44205W        W12535  20.525  34.993   0.858
44206W        W12536  35.376  43.322  13.367
44207W        W12537   8.214   5.710   4.829
44208W        W12538  21.197  32.572  12.365
44209W        W12539  34.020  25.138   1.432
44210W        W12540  18.285  26.568   4.149
44211W        W12541   6.913  22.008   3.706
44212W        W12542   7.867  29.568  12.472
44213W        W12543  41.977  19.631   3.864
44214W        W12544  24.556  33.954   1.378
44215W        W12545   0.295  19.569   2.198
44216W        W12546  27.518   8.371   2.301
44217W        W12547  24.091  25.186  14.760
44218W        W12548  22.221   5.229  13.490
44219W        W12549  31.902   4.345   3.296
44220W        W12550  11.808   3.783  10.916
44221W        W12551   8.298  26.207  14.320
44222W        W12552  24.520  33.970  14.807
44223W        W12553  14.323  18.679   4.213
44224W        W12554   3.789  31.026   0.891
44225W        W12555  20.081  41.023   3.825
44226W        W12556   5.294  30.056   2.666
44227W        W12557  33.512  23.053   4.712
44228W        W12558  14.274  31.447  12.461
44229W        W12559  41.460   8.793   2.289
44230W        W12560  16.314   0.276   0.797
44231W        W12561  12.688   6.362  14.432
44232W        W12562  39.432   9.163   0.833
44233W        W12563  39.336  32.495  13.814
44234W        W12564  22.234  19.642  10.888
44235W        W12565  34.017  17.136  12.410
44236W        W12566  39.866   1.296  12.538
44237W        W12567   8.358  24.089   4.329
44238W        W12568   1.793  38.526   0.248
44239W        W12569   6.409  28.580   3.663
44240W        W12570  27.648  44.762  11.069
44241W        W12571   8.749  30.512   4.801
44242W        W12572   1.942  20.718  11.434
44243W        W12573  43.404  28.593  10.625
44244W        W12574  43.891  33.047   0.959
44245W        W12575  23.014  36.952  12.936
44246W        W12576   5.367   9.303  14.955
44247W        W12577  43.904  42.999  14.028
44248W        W12578  36.905  41.373  11.085
44249W        W12579  37.417  17.071  10.448
44250W        W12580  22.664   6.250   0.354
44251W        W12581  32.411  10.810   2.282
44252W        W12582  12.620  40.051  13.417
44253W        W12583  39.988  13.336   1.719
44254W        W12584  27.102  32.622   1.735
44255W        W12585   0.387  33.962  10.525
44256W        W12586  27.968  15.164  13.869
44257W        W12587  23.607   0.448  12.488
44258W        W12588   1.371  21.117   2.189
44259W        W12589   3.338   3.365  14.959
44260W        W12590  42.012   4.856   2.825
44261W        W12591  16.152  36.383  12.011
44262W        W12592  25.188  21.087  12.462
44263W        W12593   6.905   7.318   0.730
44264W        W12594  23.165  10.324   1.397
44265W        W12595  39.334  27.174  11.466
44266W        W12596  29.023   0.325  11.982
44267W        W12597  11.171  38.035   1.877
44268W        W12598   1.881  36.022  12.915
44269W        W12599  32.100  11.285   1.371
44270W        W12600  11.649  20.756  11.052
44271W        W12601  23.525  15.822   3.689
44272W        W12602  27.575   9.744  10.474
44273W        W12603  17.708  38.924  11.413
44274W        W12604  38.065   6.405   0.244
44275W        W12605  40.540  15.629   0.247
44276W        W12606   3.912   3.776   0.395
44277W        W12607   6.684  11.212   0.256
44278W        W12608   3.407  13.181   5.118
44279W        W12609  28.929   4.287  12.540
44280W        W12610  30.926   0.397   4.298
44281W        W12611  35.887  11.330   4.614
44282W        W12612  25.998  38.859  13.033
44283W        W12613  19.686  13.700   0.261
44284W        W12614  13.834  21.051  11.520
44285W        W12615  10.701  20.269  14.773
44286W        W12616  44.300  10.246  14.917
44287W        W12617  26.597  10.361  11.882
44288W        W12618  27.648  32.006  13.800
44289W        W12619  20.084   7.251  14.405
44290W        W12620   4.430  44.415   0.849
44291W        W12621  13.241  21.252  13.060
44292W        W12622  32.914  17.706   1.315
44293W        W12623  33.531  17.155  12.933
44294W        W12624   5.301  23.510   4.776
44295W        W12625  12.846  24.149  13.453
44296W        W12626  17.164   1.787  12.580
44297W        W12627  23.124  40.411   4.355
44298W        W12628  11.226  44.925  11.985
44299W        W12629  13.617  36.569  13.993
44300W        W12630  18.061  17.732  12.899
44301W        W12631  38.849  37.978  11.509
44302W        W12632  14.158  32.566  12.978
44303W        W12633  24.062  41.902   1.923
44304W        W12634   9.151  27.078  13.916
44305W        W12635   7.890  14.278  14.306
44306W        W12636  11.705   3.821   4.612
44307W        W12637  21.160  18.240  12.066
44308W        W12638  17.262   0.392  13.402
44309W        W12639  27.000  20.043  11.923
44310W        W12640   0.372  25.623   3.635
44311W        W12641  24.991  34.487  10.538
44312W        W12642  13.345  43.513  13.423
44313W        W12643   9.340  42.785   3.755
44314W        W12644  16.237  11.145   0.446
44315W        W12645  29.645   0.484  14.884
44316W        W12646  22.143  30.974   5.596
44317W        W12647  22.145  24.202  13.319
44318W        W12648  22.646  41.530  10.596
44319W        W12649   5.797  36.962  13.923
44320W        W12650  12.148  25.978  14.307
44321W        W12651  36.363   0.297  12.428
44322W        W12652  22.507  39.014   1.311
44323W        W12653  11.798  43.383   4.208
44324W        W12654  14.752  40.957   4.654
44325W        W12655  18.113  25.062   4.343
44326W        W12656  19.713  39.842   1.389
44327W        W12657   6.747  28.002   0.295
44328W        W12658  44.882   6.820  11.098
44329W        W12659  34.063  41.387  12.039
44330W        W12660  42.441  24.670   1.432
44331W        W12661  43.840  34.037  11.494
44332W        W12662  34.083  41.360   4.760
44333W        W12663  35.361  29.918   1.822
44334W        W12664  44.292  25.479   2.854
44335W        W12665  12.290  30.530  12.030
44336W        W12666  41.389  20.028   4.290
44337W        W12667  28.979  14.113  14.997
44338W        W12668  34.066   1.859  10.920
44339W        W12669   9.229  38.354   0.301
44340W        W12670  29.995  30.630  14.374
44341W        W12671  23.151  22.719  11.467
44342W        W12672  34.600   1.867  12.463
44343W        W12673  24.032  32.034  13.998
44344W        W12674  10.361   4.321  13.964
44345W        W12675  14.131  40.327   2.891
44346W        W12676  43.820  42.816   2.350
44347W        W12677  11.295  24.715   0.245
44348W        W12678  43.396   9.866  11.048
44349W        W12679  32.082  14.835   1.449
44350W        W12680  19.700  41.839  11.867
44351W        W12681  19.769  30.623  10.157
44352W        W12682  27.468   1.351   4.135
44353W        W12683  20.673  32.551   2.762
44354W        W12684  12.669  33.531   1.344
44355W        W12685  14.098  20.528  10.608
44356W        W12686  13.686  42.481  12.410
44357W        W12687  27.172  13.122   4.166
44358W        W12688  33.586  36.466  10.542
44359W        W12689  43.456  32.036  13.938
44360W        W12690  39.885  29.473   4.799
44361W        W12691  23.634   9.644  12.023
44362W        W12692  17.107   4.711   4.653
44363W        W12693  19.096  38.056  14.462
44364W        W12694  28.021  19.676   3.243
44365W        W12695   6.805  36.075   1.705
44366W        W12696   3.847   5.923  12.542
44367W        W12697  26.072  10.342  14.410
44368W        W12698   1.799  14.183   2.661
44369W        W12699  34.499  20.258  13.472
44370W        W12700   3.354  20.142  11.465
44371W        W12701  36.988  26.631   1.427
44372W        W12702  42.846  44.387  14.336
44373W        W12703  40.489   5.256  13.382
44374W        W12704  33.491   6.904  14.895
44375W        W12705  36.997  27.168  12.036
44376W        W12706  12.315  27.148   3.761
44377W        W12707  14.714  33.094   4.660
44378W        W12708  44.938  35.454   0.824
44379W        W12709  32.110   4.722   5.173
44380W        W12710  23.990   2.907   4.287
44381W        W12711  44.340  31.039   1.927
44382W        W12712   7.764  21.064   3.274
44383W        W12713  36.398  44.772   4.188
44384W        W12714  16.673   8.709  13.001
44385W        W12715  12.670   0.752  13.041
44386W        W12716  19.276  25.008   4.615
44387W        W12717   8.890  18.230   1.719
44388W        W12718  29.072  25.548  11.897
44389W        W12719  10.781  39.315   1.375
44390W        W12720  35.417  36.891   0.962
44391W        W12721   5.794   3.267   0.856
44392W        W12722  25.045  19.763  14.018
44393W        W12723  22.124   9.213   0.436
44394W        W12724  44.304  35.887  11.608
44395W        W12725   0.975  12.827   4.346
44396W        W12726  21.257  16.581  13.813
44397W        W12727  39.558  25.708  13.976
44398W        W12728  17.736  28.435   0.364
44399W        W12729  33.921  18.189  12.524
44400W        W12730  36.007  32.605  12.832
44401W        W12731  25.070   3.444  12.434
44402W        W12732  26.036  15.816   4.805
44403W        W12733  20.112  23.116  11.500
44404W        W12734  10.355   9.222  14.329
44405W        W12735   9.175  23.151   3.662
44406W        W12736  16.804  10.755  11.419
44407W        W12737  22.219  27.078  10.602
44408W        W12738  33.504   4.827   5.117
44409W        W12739  31.016   5.717  13.014
44410W        W12740  40.962  32.093  11.894
44411W        W12741  27.975  27.594  12.940
44412W        W12742   9.844   6.412  12.511
44413W        W12743  27.528   0.352   3.757
44414W        W12744  33.393   7.791  11.576
44415W        W12745  16.308   0.870  13.816
44416W        W12746   5.317  36.036  14.818
44417W        W12747  22.171  33.028  13.412
44418W        W12748  28.971  25.554  14.456
44419W        W12749  43.944  19.630   0.787
44420W        W12750  43.983  17.776   1.700
44421W        W12751   7.838  20.202  12.528
44422W        W12752  10.270  32.438  10.528
44423W        W12753  11.745  15.327   1.786
44424W        W12754  12.651   0.259  11.552
44425W        W12755   0.837  14.116   2.276
44426W        W12756   2.262  13.191  13.312
44427W        W12757  16.083  35.868   1.904
44428W        W12758  42.868  37.022  10.426
44429W        W12759   0.759  41.448  14.962
44430W        W12760  16.591  23.164  12.062
44431W        W12761  36.948  40.899  11.986
44432W        W12762   2.243  37.005   1.242
44433W        W12763  34.499  18.641  14.912
44434W        W12764  11.230  34.542   3.333
44435W        W12765  14.274  40.851  11.575
44436W        W12766   5.747  27.047   2.184
44437W        W12767  22.585  15.189  12.420
44438W        W12768  35.975   5.194  12.512
44439W        W12769  33.458  39.064  12.360
44440W        W12770  19.049  28.553   1.804
44441W        W12771  23.630  35.591  12.393
44442W        W12772  25.150   1.927  13.890
44443W        W12773  29.575   7.297  10.948
44444W        W12774  39.978  11.675   0.871
44445W        W12775  30.999  34.903  14.291
44446W        W12776  24.634  32.978  11.034
44447W        W12777  37.544   3.949  13.803
44448W        W12778  42.791  38.036  12.536
44449W        W12779  10.729  39.870  12.545
44450W        W12780  34.511  28.495   3.358
44451W        W12781  43.454  10.685   4.606
44452W        W12782   6.824  18.599  14.027
44453W        W12783   5.268  29.644  13.410
44454W        W12784  32.526  27.624   0.257
44455W        W12785  36.991  39.032  14.860
44456W        W12786  44.974   4.265   3.812
44457W        W12787  15.731  35.950   0.754
44458W        W12788  22.207  17.268   2.676
44459W        W12789  43.966  24.218   1.886
44460W        W12790  26.021   6.697  12.431
44461W        W12791  28.461  12.182   1.760
44462W        W12792  39.382   0.953  11.995
44463W        W12793  26.684  30.415   4.227
44464W        W12794  35.426   7.757   0.732
44465W        W12795   0.332  32.082   3.692
44466W        W12796  23.534  24.687   1.755
44467W        W12797  34.102   0.389   0.347
44468W        W12798  11.276  27.106   2.803
44469W        W12799  12.265   7.364  12.859
44470W        W12800  39.976  19.092   2.270
44471W        W12801  39.935   0.864   3.179
44472W        W12802  19.168  16.793  13.432
44473W        W12803  31.924  38.962  14.780
44474W        W12804  11.649  18.787  14.825
44475W        W12805  20.676  11.248   2.839
44476W        W12806  17.272   2.912  11.090
44477W        W12807   4.907  39.961   3.664
44478W        W12808  29.440  38.869  12.031
44479W        W12809  36.490  33.900  11.439
44480W        W12810  30.154  34.052  13.913
44481W        W12811  36.097   7.370   1.925
44482W        W12812  25.968   8.403  13.024
44483W        W12813  43.993  33.922   4.807
44484W        W12814  25.979   8.698  12.351
44485W        W12815   2.734  37.837  11.873
44486W        W12816   5.437  35.452  14.400
44487W        W12817  21.578  44.935   3.238
44488W        W12818   3.236  12.844  13.895
44489W        W12819   7.867  10.808  14.995
44490W        W12820  14.812  31.931  12.013
44491W        W12821  10.634  33.408  10.027
44492W        W12822  17.276  42.348  13.026
44493W        W12823   3.306  24.204   2.720
44494W        W12824  13.816  12.625   1.704
44495W        W12825   7.739  18.083   1.369
44496W        W12826   6.800  27.129  10.956
44497W        W12827   7.174  39.355   2.331
44498W        W12828  18.105  31.570  12.028
44499W        W12829   9.856  39.447   1.900
44500W        W12830  23.634  21.254   4.633
44501W        W12831  37.445  20.124   0.875
44502W        W12832   5.355   7.339   3.864
44503W        W12833   5.345  13.287   0.427
44504W        W12834  18.745  15.268  11.898
44505W        W12835  41.428  22.622  12.921
44506W        W12836  31.443  30.657  12.937
44507W        W12837   3.782   0.898   1.408
44508W        W12838  19.137  34.494   0.448
44509W        W12839  34.905  11.350   2.676
44510W        W12840  14.203  21.595  12.897
44511W        W12841  21.658  40.930  10.405
44512W        W12842  10.802  28.513  12.460
44513W        W12843  43.944   3.856  14.875
44514W        W12844   6.890   3.414  13.467
44515W        W12845  28.493  17.105   2.802
44516W        W12846  36.966  25.683  14.887
44517W        W12847  30.649  17.764  14.866
44518W        W12848  34.895   8.890   4.286
44519W        W12849  18.696   0.755  14.020
44520W        W12850  32.104  19.202   0.795
44521W        W12851  27.624  14.708  12.540
44522W        W12852  44.376  31.488   1.829
44523W        W12853  19.054  19.578  11.541
44524W        W12854  31.437  26.096   3.850
44525W        W12855  44.273  13.234   2.350
44526W        W12856  38.344   6.304   4.820
44527W        W12857  23.546   0.962   2.208
44528W        W12858  38.043  14.628  10.461
44529W        W12859  11.702  10.330   2.756
44530W        W12860   1.822  27.679   4.819
44531W        W12861   7.211  20.128  13.859
44532W        W12862  15.594   4.432  12.019
44533W        W12863  16.274   4.929  11.557
44534W        W12864  25.962  16.076  11.922
44535W        W12865  19.760  36.018   0.881
44536W        W12866  17.596   4.751  11.085
44537W        W12867  14.164  11.850   4.245
44538W        W12868  39.898   0.853  13.950
44539W        W12869  33.557  19.776   3.759
44540W        W12870  13.759  20.562   3.752
44541W        W12871   0.474  31.464   3.673
44542W        W12872  16.100  35.082   2.339
44543W        W12873  13.132  44.394  12.382
44544W        W12874  11.360  22.243  11.962
44545W        W12875  33.126  13.610  13.974
44546W        W12876  26.983  17.078  14.499
44547W        W12877  21.593   1.361  13.451
44548W        W12878   6.293   0.361   2.270
44549W        W12879  30.019  40.838  14.496
44550W        W12880  39.000  25.172   2.291
44551W        W12881  32.977  21.551   9.497
44552W        W12882  31.503   1.950  11.945
44553W        W12883  24.707   8.772  12.394
44554W        W12884  38.466  28.972  14.368
44555W        W12885  21.751  27.561  13.444
44556W        W12886   3.336  14.187   2.394
44557W        W12887  11.149   1.791  12.381
44558W        W12888  41.904  12.282   0.353
44559W        W12889  22.746  13.815  14.775
44560W        W12890  38.983  38.531  12.901
44561W        W12891  13.699   5.409   1.784
44562W        W12892  30.913  18.699   3.793
44563W        W12893  16.316   7.747  12.980
44564W        W12894  36.485  19.113  11.999
44565W        W12895  27.458  22.618  11.073
44566W        W12896   8.171  38.900   4.331
44567W        W12897   8.866  43.327  14.488
44568W        W12898   8.293  31.434   2.719
44569W        W12899  30.593  41.883   3.247
44570W        W12900  13.609   1.364  10.531
44571W        W12901  23.153  40.306  11.497
44572W        W12902  18.555   7.344  13.794
44573W        W12903  33.105  30.969   4.838
44574W        W12904  22.578  40.402   1.872
44575W        W12905   2.471  20.146  13.370
44576W        W12906   5.862  13.780   0.421
44577W        W12907  10.250   2.885  10.427
44578W        W12908   1.295  10.854   0.762
44579W        W12909  39.403  11.627  11.544
44580W        W12910   0.871   0.279   1.791
44581W        W12911  16.735  19.201   2.258
44582W        W12912  39.010  33.386  13.329
44583W        W12913   6.375  23.563  12.858
44584W        W12914  21.553  42.781  13.015
44585W        W12915  38.980  33.563   2.668
44586W        W12916  27.198  39.397   1.806
44587W        W12917  14.320  44.386  10.060
44588W        W12918  19.054   0.775  14.322
44589W        W12919  32.084  42.426   3.798
44590W        W12920  14.753  18.054   3.650
44591W        W12921   4.218   0.768   0.905
44592W        W12922  24.057  22.227  12.404
44593W        W12923  35.523  40.852  11.409
44594W        W12924  22.635   7.295   1.287
44595W        W12925   0.435  16.641   4.650
44596W        W12926  27.464  21.543  11.557
44597W        W12927  40.362  31.445  12.573
44598W        W12928  41.964  44.889   3.360
44599W        W12929  16.240  37.853   0.249
44600W        W12930   2.752  19.200   2.283
44601W        W12931  26.021  33.013   0.921
44602W        W12932  29.493  40.025   0.354
44603W        W12933  10.844   5.776  14.897
44604W        W12934   9.316   9.335   2.298
44605W        W12935  14.136   8.806  12.850
44606W        W12936  28.930  33.952  14.408
44607W        W12937  35.501   3.877   0.280
44608W        W12938  11.830  40.969   0.873
44609W        W12939  22.224  39.362   0.349
44610W        W12940  15.171  12.734   4.192
44611W        W12941  30.135   6.749   1.435
44612W        W12942  39.477  19.209  12.956
44613W        W12943  24.154  26.649  13.050
44614W        W12944  18.155  17.161   0.912
44615W        W12945  32.427   3.826   4.692
44616W        W12946  22.016  26.107  10.986
44617W        W12947  32.605  28.992  10.467
44618W        W12948  42.477  17.768  12.977
44619W        W12949  13.288   9.832  14.800
44620W        W12950  38.450   6.726  10.122
44621W        W12951  17.687   8.376  12.072
44622W        W12952  21.022  34.031  10.455
44623W        W12953  17.114  31.612   4.121
44624W        W12954  10.649  12.682   0.817
44625W        W12955  29.449  35.045  10.114
44626W        W12956  38.918   7.395  14.305
44627W        W12957  10.645   8.295  13.455
44628W        W12958  13.283  37.353   1.278
44629W        W12959  25.652  34.466  13.967
44630W        W12960  36.067  14.157   3.199
44631W        W12961  35.599  11.704   2.744
44632W        W12962   5.808  44.935  14.281
44633W        W12963  20.754  15.615   3.197
44634W        W12964  43.351  25.624  13.035
44635W        W12965  20.115  28.003   2.728
44636W        W12966   6.914  11.648  12.525
44637W        W12967   6.236  12.709   1.391
44638W        W12968  17.801  37.340   2.700
44639W        W12969  32.888  25.684  11.944
44640W        W12970  36.538  41.878   2.828
44641W        W12971  42.479  29.523  14.896
44642W        W12972  15.697   6.287   2.184
44643W        W12973  31.078   7.270   3.312
44644W        W12974  36.019  28.118   0.925
44645W        W12975  33.409  43.788  14.288
44646W        W12976   5.771  30.102  14.844
44647W        W12977  42.794  21.092   4.696
44648W        W12978   5.689  34.992   1.446
44649W        W12979   5.199  14.751   0.418
44650W        W12980  42.974   9.179  10.545
44651W        W12981  19.042  18.232   1.851
44652W        W12982  11.160  37.027  13.381
44653W        W12983  27.542  39.846   2.803
44654W        W12984  37.989   1.464  14.790
44655W        W12985  13.732  23.233   0.387
44656W        W12986   8.175   3.769   3.180
44657W        W12987  33.025  20.729  14.434
44658W        W12988  39.019  30.526  11.129
44659W        W12989   2.470  10.317   5.166
44660W        W12990   2.239  38.024   5.199
44661W        W12991   8.771   8.726   0.792
44662W        W12992  12.768  39.810   0.303
44663W        W12993   3.235  32.621  11.610
44664W        W12994  17.759  20.553   0.376
44665W        W12995  25.551   4.230  14.446
44666W        W12996  26.483   1.813  11.593
44667W        W12997  42.923  25.534  10.578
44668W        W12998   2.393  16.129   2.294
44669W        W12999  10.762  19.254  14.906
44670W        W13000  27.570  13.339  13.466
44671W        W13001   1.787  35.093  10.986
44672W        W13002  13.168  39.317  11.570
44673W        W13003   7.687  39.015  11.866
44674W        W13004  20.156  15.674  12.395
44675W        W13005   8.391  34.027  13.037
44676W        W13006  18.651  35.988   4.815
44677W        W13007  42.855  19.560  13.043
44678W        W13008  40.515  41.846  12.491
44679W        W13009  37.008  32.582   4.636
44680W        W13010   0.885  15.132  14.861
44681W        W13011  12.762  27.567  14.950
44682W        W13012  43.793   2.257  14.475
44683W        W13013  22.018  12.292   2.233
44684W        W13014  24.495  24.482  13.539
44685W        W13015  30.113   6.399   3.188
44686W        W13016  33.111  27.016  11.569
44687W        W13017  14.608  22.128  13.912
44688W        W13018  32.969  15.802   1.440
44689W        W13019  27.512  36.972   1.416
44690W        W13020  27.588  24.606  13.859
44691W        W13021  29.953  26.983  10.907
44692W        W13022  30.113  10.683  12.441
44693W        W13023  11.821  40.399   2.180
44694W        W13024  13.300  38.549   0.402
44695W        W13025   3.245  22.687   3.748
44696W        W13026  12.755  36.046  14.435
44697W        W13027  13.631  27.584  12.431
44698W        W13028   9.663  26.985  13.496
44699W        W13029  18.670  21.619  12.936
44700W        W13030  10.183   9.238   4.143
44701W        W13031  13.664   4.359  14.890
44702W        W13032   7.300  40.053   3.644
44703W        W13033  17.112   1.751  14.840
44704W        W13034  28.052  37.967  11.898
44705W        W13035  38.380   1.951  14.400
44706W        W13036  35.484  43.822  12.092
44707W        W13037  33.460  41.317  11.987
44708W        W13038  20.182   7.258  10.625
44709W        W13039  28.158  34.049   4.284
44710W        W13040   3.755   5.885   4.662
44711W        W13041  28.152  43.891  11.899
44712W        W13042  11.827   4.719  10.050
44713W        W13043   0.759  13.694  12.835
44714W        W13044  28.461  26.656  12.547
44715W        W13045  44.946   7.890   0.937
44716W        W13046  21.665  36.847   0.378
44717W        W13047  34.989  30.635   2.303
44718W        W13048  40.855  15.629   3.220
44719W        W13049   1.833  24.052  10.426
44720W        W13050   8.402   6.837  10.420
44721W        W13051  17.575   8.867   3.205
44722W        W13052  11.820  11.169  10.071
44723W        W13053  23.719   3.727  14.334
44724W        W13054   0.957  10.354   4.194
44725W        W13055  26.692  15.690  14.349
44726W        W13056   4.444  12.650  11.502
44727W        W13057   2.463  14.307  10.015
44728W        W13058  13.665   9.694   2.684
44729W        W13059  27.563   0.468  12.366
44730W        W13060  30.072  13.243  10.493
44731W        W13061  42.939  11.270   3.852
44732W        W13062  29.597  19.109  11.521
44733W        W13063  28.437  30.542  12.001
44734W        W13064  29.044  26.204   4.337
44735W        W13065  16.092   2.450   4.190
44736W        W13066  12.247  19.171  12.423
44737W        W13067  36.972  36.579   0.726
44738W        W13068  23.058   1.408  11.487
44739W        W13069  29.050  21.230   1.836
44740W        W13070   2.237   9.352   1.364
44741W        W13071  29.087  21.596   9.977
44742W        W13072  19.759  10.833   4.702
44743W        W13073  37.389   2.330   0.767
44744W        W13074  18.696  17.682  11.489
44745W        W13075  44.852  16.705   3.350
44746W        W13076  16.277   9.292  14.799
44747W        W13077   8.244  14.097  14.976
44748W        W13078  13.129  34.571  12.495
44749W        W13079   7.237   8.357  12.999
44750W        W13080   1.240  25.991   1.909
44751W        W13081  30.473  26.632   4.621
44752W        W13082   2.328   0.323  11.504
44753W        W13083  15.666   7.369   4.180
44754W        W13084   1.243  27.634   0.894
44755W        W13085  25.644  13.604  13.861
44756W        W13086  30.984  32.129   3.813
44757W        W13087  21.212  20.739   1.884
44758W        W13088   5.787  10.319  12.977
44759W        W13089   4.811  15.204  11.938
44760W        W13090  25.126  38.531  12.081
44761W        W13091  28.144   6.257  11.406
44762W        W13092  33.054  16.669  10.952
44763W        W13093   0.971  18.163   3.690
44764W        W13094  30.081   8.226  14.919
44765W        W13095  29.961  19.128  13.514
44766W        W13096  14.321  17.187  14.417
44767W        W13097  29.000   7.832  14.988
44768W        W13098  25.199  41.527  13.983
44769W        W13099  22.202   0.475   1.816
44770W        W13100   3.867  20.579   1.923
44771W        W13101   9.661  17.768  11.883
44772W        W13102  13.298  39.030   1.854
44773W        W13103  43.985  18.550  13.905
44774W        W13104  13.257  39.493   4.749
44775W        W13105   8.812  27.535  11.044
44776W        W13106  12.837  30.642   4.135
44777W        W13107  10.217  41.487  13.524
44778W        W13108  16.702   2.834   1.826
44779W        W13109   0.883  14.833  14.952
44780W        W13110  18.270  13.140  14.513
44781W        W13111  30.550  16.124  12.395
44782W        W13112  33.929  34.403   0.309
44783W        W13113  31.613  25.648   2.685
44784W        W13114  10.338  34.430  10.593
44785W        W13115  31.947  24.198  12.555
44786W        W13116  21.674  24.130  13.465
44787W        W13117  36.987  31.046   4.706
44788W        W13118   6.678  40.490  10.521
44789W        W13119  44.299  29.125   0.759
44790W        W13120  41.444  24.489  11.398
44791W        W13121  29.143  33.962  10.599
44792W        W13122  44.889  42.485   2.219
44793W        W13123  10.207   1.362   2.275
44794W        W13124  35.110   4.726  12.355
44795W        W13125  38.023   4.226   2.243
44796W        W13126  31.512  19.561   9.958
44797W        W13127  16.647  18.227  13.460
44798W        W13128  18.283  35.966  11.462
44799W        W13129  29.955  29.089  13.021
44800W        W13130  33.613  35.963   4.179
44801W        W13131  16.568  36.519  14.482
44802W        W13132  10.851  29.577   2.411
44803W        W13133  42.517   3.335   4.809
44804W        W13134  32.926   7.192   3.162
44805W        W13135  17.099  24.158  10.027
44806W        W13136  41.795   9.863   3.662
44807W        W13137  15.244  25.057   0.274
44808W        W13138   5.253  35.883  10.575
44809W        W13139   6.302   7.674  10.490
44810W        W13140  30.099  15.310   1.320
44811W        W13141  44.388  37.484   2.798
44812W        W13142  18.059   9.181   4.203
44813W        W13143   7.890  42.979  13.809
44814W        W13144  43.379   7.732  13.005
44815W        W13145   9.325   0.856   2.390
44816W        W13146  24.173   1.353   0.874
44817W        W13147  39.967   9.236  12.531
44818W        W13148  29.174   7.690   2.397
44819W        W13149  35.411  32.944   2.257
44820W        W13150  23.579  22.064   0.314
44821W        W13151  22.137  11.356   4.235
44822W        W13152  29.999  25.623  12.526
44823W        W13153  16.103  31.444   0.459
44824W        W13154  32.429  33.475   9.969
44825W        W13155  30.923  44.295  10.132
44826W        W13156  29.152  40.884  12.935
44827W        W13157  19.242   0.419   4.196
44828W        W13158   3.853  11.301   1.451
44829W        W13159  34.469  44.884  11.999
44830W        W13160  20.543   7.234   5.592
44831W        W13161  38.362  42.020  11.080
44832W        W13162  13.219  37.981   4.781
44833W        W13163  36.881  21.575  14.887
44834W        W13164   8.313  29.153  11.425
44835W        W13165  23.716   1.387   2.889
44836W        W13166   8.262   6.304  13.970
44837W        W13167  44.776  41.368  13.976
44838W        W13168   1.780  14.163   3.664
44839W        W13169  21.058  32.971   1.817
44840W        W13170  30.066  39.948   0.414
44841W        W13171   7.379  40.404  13.867
44842W        W13172  14.650   7.755   3.745
44843W        W13173   8.708  28.595  10.425
44844W        W13174  43.460  17.236   1.328
44845W        W13175   9.863   6.418  10.535
44846W        W13176   6.867  27.096   2.806
44847W        W13177  19.221  16.665  13.964
44848W        W13178  25.503  36.988   2.783
44849W        W13179  12.209  40.862   2.336
44850W        W13180  42.462  44.394  13.929
44851W        W13181  43.457  40.957   1.837
44852W        W13182   9.751  15.229   2.871
44853W        W13183  12.260  21.128  14.318
44854W        W13184   8.826  20.668  10.614
44855W        W13185   5.802  35.506   4.266
44856W        W13186  31.468  36.925   0.359
44857W        W13187  17.282  39.338   0.940
44858W        W13188  19.615  40.900   1.878
44859W        W13189  34.610  11.736  13.925
44860W        W13190  30.996   2.468  14.462
44861W        W13191  22.038   1.312   2.663
44862W        W13192   2.939  44.960  10.617
44863W        W13193  13.756  20.079  11.556
44864W        W13194  27.487  19.147   3.351
44865W        W13195  35.457  39.971   0.752
44866W        W13196  23.676  16.081  11.559
44867W        W13197   9.843   7.807   3.155
44868W        W13198  41.011   3.800  13.328
44869W        W13199  22.137   6.839  12.048
44870W        W13200  33.086  41.829  14.502
44871W        W13201  22.525  41.302  11.381
44872W        W13202  41.944  26.165   3.173
44873W        W13203   3.813  22.080   2.327
44874W        W13204   6.811  26.951   4.806
44875W        W13205   9.877  26.536   2.310
44876W        W13206  31.148  22.249  14.942
44877W        W13207  25.558  33.121  10.531
44878W        W13208  16.091   9.683  11.082
44879W        W13209  39.410   8.375   1.817
44880W        W13210  22.175  36.448  14.509
44881W        W13211  22.502  41.538  14.368
44882W        W13212  40.501   1.781  13.420
44883W        W13213  27.026   7.359   2.832
44884W        W13214  11.173  44.449  11.019
44885W        W13215  25.108  36.081   3.760
44886W        W13216  11.304  26.201   4.301
44887W        W13217  32.963  11.295   0.413
44888W        W13218  40.992  20.621   4.608
44889W        W13219   4.883  43.890  11.917
44890W        W13220  27.965  44.306  13.516
44891W        W13221  39.406  42.345   2.415
44892W        W13222  37.516  24.190  13.360
44893W        W13223  13.217  26.004  11.006
44894W        W13224  19.241   9.650  13.406
44895W        W13225  37.374  44.971   2.671
44896W        W13226   0.430  20.657   0.786
44897W        W13227   3.327  26.630  11.863
44898W        W13228  16.100   0.410   3.861
44899W        W13229  39.464  30.589   3.286
44900W        W13230   6.291   6.885  14.990
44901W        W13231  13.742  10.210  13.849
44902W        W13232  19.756   8.282  12.525
44903W        W13233  44.455  10.339  11.562
44904W        W13234  41.030   1.299  14.371
44905W        W13235  41.374  25.623  13.460
44906W        W13236  38.929  14.663  11.011
44907W        W13237  29.919   4.344   2.384
44908W        W13238  28.077   1.769  10.969
44909W        W13239  27.660  36.478  14.505
44910W        W13240   0.895  26.058  14.492
44911W        W13241   2.270  13.173  10.490
44912W        W13242   6.394   3.747  12.909
44913W        W13243  17.160  12.784  11.448
44914W        W13244  18.286  28.531  12.370
44915W        W13245  11.831  14.814  14.825
44916W        W13246   5.195   7.356   3.223
44917W        W13247  10.138  32.973  10.469
44918W        W13248  34.989   8.309  11.467
44919W        W13249  17.628  27.602   2.790
44920W        W13250   6.216  18.550   0.390
44921W        W13251  11.196   5.355   1.416
44922W        W13252   3.742  41.916  13.882
44923W        W13253  11.206  44.959   3.380
44924W        W13254  40.825  23.158  13.384
44925W        W13255  42.795  17.788  14.277
44926W        W13256   3.393  16.680  13.376
44927W        W13257   2.306  42.302  12.962
44928W        W13258  30.948  37.461  10.452
44929W        W13259  37.959  15.135   4.708
44930W        W13260   1.947  15.100  11.037
44931W        W13261   9.250   4.809   9.971
44932W        W13262  26.100   5.896   0.464
44933W        W13263  15.106  39.065  12.922
44934W        W13264   2.300  35.038   3.816
44935W        W13265  10.762   1.826  12.946
44936W        W13266  43.357  27.998  14.447
44937W        W13267  14.153  26.992  13.798
44938W        W13268  28.664  28.020  11.466
44939W        W13269  42.971  25.016   4.780
44940W        W13270  17.115   8.292   3.728
44941W        W13271  41.872  27.979  14.375
44942W        W13272   4.732  18.663   2.725
44943W        W13273  21.065  36.527   3.866
44944W        W13274  42.836  34.113   0.942
44945W        W13275  15.755   1.424  14.294
44946W        W13276  12.310  23.563   0.738
44947W        W13277  33.078  42.998  14.019
44948W        W13278   9.263  28.557   0.958
44949W        W13279   9.225  18.221   0.355
44950W        W13280  36.061  36.888  14.407
44951W        W13281  39.349  10.281   0.761
44952W        W13282  40.360  39.065   0.945
44953W        W13283  14.187   2.227  14.903
44954W        W13284  30.530  27.532  14.786
44955W        W13285  29.634  22.593   0.924
44956W        W13286  42.516  43.459   1.907
44957W        W13287  11.243   3.791  13.497
44958W        W13288  11.355   5.375   4.612
44959W        W13289  22.125  20.114   5.162
44960W        W13290  35.438   4.448  10.953
44961W        W13291   9.646  37.446   0.784
44962W        W13292  17.263  22.747   4.330
44963W        W13293   5.892  33.568   4.690
44964W        W13294  19.737  17.570   1.334
44965W        W13295  26.052   2.244   3.810
44966W        W13296  24.229  27.158   3.631
44967W        W13297  21.718  36.388   4.823
44968W        W13298  19.724  10.173   4.207
44969W        W13299  38.014  14.835  12.823
44970W        W13300  43.793  39.855   4.666
44971W        W13301  43.475  18.101  13.540
44972W        W13302  20.560  15.650  11.959
44973W        W13303  28.175  32.063  10.561
44974W        W13304  22.211   2.817   2.833
44975W        W13305  40.035   0.336   3.722
44976W        W13306  25.578  44.758   1.833
44977W        W13307  29.078   8.786  14.826
44978W        W13308  28.677  44.304   4.328
44979W        W13309  27.114   2.377   3.301
44980W        W13310   8.742   8.276  14.918
44981W        W13311   3.385  20.566  14.849
44982W        W13312  14.110  30.607   1.224
44983W        W13313   4.222  41.944   3.732
44984W        W13314  31.983  27.688   3.866
44985W        W13315  24.197  38.830   3.193
44986W        W13316  26.113   9.814  11.457
44987W        W13317   4.350  14.773  14.415
44988W        W13318  18.184  18.235   0.371
44989W        W13319  35.071  16.726   2.868
44990W        W13320   2.378  19.065   0.377
44991W        W13321  39.952   1.457  14.414
44992W        W13322  33.021   7.743   4.775
44993W        W13323   8.866  37.878  13.329
44994W        W13324   3.393  38.463   3.302
44995W        W13325  10.699  25.671  13.027
44996W        W13326  41.880  24.683   0.918
44997W        W13327  25.648  35.095  13.034
44998W        W13328   1.358  16.120   3.718
44999W        W13329  11.243  35.402   4.180
45000W        W13330  27.008  37.846   1.833
45001W        W13331   6.425  41.842  11.872
45002W        W13332  22.655  13.185   0.260
45003W        W13333  24.207  32.933   2.322
45004W        W13334   4.773  34.615  11.104
45005W        W13335   9.376  13.149  12.474
45006W        W13336  24.164  34.385  13.465
45007W        W13337  12.240  40.982  13.864
45008W        W13338   4.285  12.215   3.637
45009W        W13339  29.503  36.400   3.191
45010W        W13340  42.385  36.459   4.609
45011W        W13341  38.986  41.420   0.401
45012W        W13342  31.541  32.428   3.630
45013W        W13343  37.902  30.070  11.446
45014W        W13344   3.271  14.325   3.766
45015W        W13345  10.780  35.886  10.442
45016W        W13346   7.836  24.604  14.405
45017W        W13347   0.308  21.147  13.969
45018W        W13348   4.394  28.527  10.910
45019W        W13349  34.868  19.124   2.801
45020W        W13350  13.637  23.111   4.679
45021W        W13351   2.305  16.589   0.796
45022W        W13352  14.786  19.216   0.775
45023W        W13353  41.866  14.298  13.902
45024W        W13354   8.785  16.620  11.462
45025W        W13355  23.603  12.796   4.632
45026W        W13356  38.990  28.050  13.401
45027W        W13357  25.537   0.360   0.917
45028W        W13358  30.138  33.567   4.285
45029W        W13359  25.063  17.206  13.531
45030W        W13360  14.832  37.448  11.075
45031W        W13361  34.884   9.680  13.039
45032W        W13362  19.108  15.309  11.410
45033W        W13363   1.845  40.809   0.392
45034W        W13364  40.309   4.728   3.232
45035W        W13365  21.623  44.895  14.815
45036W        W13366  44.338   2.241   3.766
45037W        W13367  38.034  27.069  13.016
45038W        W13368  20.070   2.931  14.366
45039W        W13369  43.482  43.982  14.816
45040W        W13370  23.562  25.071   3.211
45041W        W13371  39.993  17.800  12.993
45042W        W13372  37.967  11.750  12.392
45043W        W13373  11.635  15.313   4.174
45044W        W13374  36.889   8.190   0.458
45045W        W13375   4.890  32.127  12.425
45046W        W13376  12.650  35.546   1.366
45047W        W13377   2.966  10.752  13.847
45048W        W13378  24.163  39.452   1.824
45049W        W13379  22.206  24.707   3.812
45050W        W13380  13.194   3.769   4.312
45051W        W13381  43.375   5.829   4.675
45052W        W13382  12.278  14.267  14.002
45053W        W13383   2.947   9.794   1.211
45054W        W13384  18.234  30.076   2.230
45055W        W13385  40.916  42.996   2.702
45056W        W13386  10.751   9.851   1.738
45057W        W13387   2.270  23.644   3.713
45058W        W13388   9.692  19.283  14.905
45059W        W13389   9.747  10.840  13.916
45060W        W13390  20.137  26.109   2.180
45061W        W13391  18.666  24.712  10.948
45062W        W13392  41.340  22.115  10.493
45063W        W13393  12.743  14.094  12.911
45064W        W13394  22.171  44.992   3.318
45065W        W13395  26.026  25.604   1.926
45066W        W13396   3.388  30.987  12.062
45067W        W13397  37.056  28.106   2.247
45068W        W13398  28.497  40.877   1.794
45069W        W13399   9.830  37.519  11.862
45070W        W13400  28.594  36.533   4.178
45071W        W13401  30.985  25.700   0.453
45072W        W13402  35.054   8.712   3.221
45073W        W13403  37.421  27.176  11.598
45074W        W13404  27.605   0.317   2.900
45075W        W13405  39.995  43.475  11.919
45076W        W13406  15.789  34.025   1.888
45077W        W13407  29.517  13.265   1.252
45078W        W13408   2.812   8.232   1.812
45079W        W13409   1.377   4.327  11.502
45080W        W13410   9.196  38.459  13.488
45081W        W13411  22.039  39.379  12.009
45082W        W13412  23.597  44.769  10.966
45083W        W13413   6.382  40.345   2.280
45084W        W13414  42.810  19.740  10.923
45085W        W13415   2.934  36.422   4.146
45086W        W13416  31.582   7.183  13.025
45087W        W13417  18.587   0.941  10.558
45088W        W13418  25.164  29.985  14.508
45089W        W13419  13.644   3.729  12.055
45090W        W13420  31.014  35.973  14.329
45091W        W13421  18.118   4.908   3.681
45092W        W13422  35.869  34.004   1.930
45093W        W13423  36.858  34.868   2.785
45094W        W13424  39.482  26.139  12.035
45095W        W13425  33.927  31.593  14.396
45096W        W13426  16.294  32.627   0.478
45097W        W13427   1.868  29.445  11.546
45098W        W13428  34.870  33.062   1.932
45099W        W13429   3.359   7.674  12.865
45100W        W13430  17.089  35.487  12.895
45101W        W13431  37.539   0.421  14.764
45102W        W13432   0.343  36.938   3.363
45103W        W13433  36.442   4.898   0.375
45104W        W13434  26.114   2.964  13.823
45105W        W13435  15.789  19.640   4.272
45106W        W13436  10.279  12.146  12.837
45107W        W13437  26.479  38.382   2.728
45108W        W13438  19.112  25.113   2.894
45109W        W13439   4.438   1.827  13.003
45110W        W13440   1.865  22.997  12.491
45111W        W13441   2.307  36.942   2.717
45112W        W13442  25.616  26.488   1.891
45113W        W13443  42.911  28.529   2.886
45114W        W13444  21.614  20.691  11.377
45115W        W13445  27.609  37.006   4.194
45116W        W13446  43.309  19.110   1.908
45117W        W13447  33.111  15.797  12.354
45118W        W13448  21.586   0.908   1.336
45119W        W13449   0.784  24.712   3.747
45120W        W13450  34.557   8.166  10.635
45121W        W13451  36.988   9.375   1.923
45122W        W13452  13.667  40.823   2.675
45123W        W13453  36.978   3.258   4.207
45124W        W13454  14.175  22.142  12.989
45125W        W13455  14.588  25.615   4.743
45126W        W13456  30.926  29.459   3.702
45127W        W13457  37.520  17.073  12.081
45128W        W13458  39.949  23.582   2.665
45129W        W13459   4.751  31.008  12.530
45130W        W13460  13.665  32.511  11.061
45131W        W13461  16.693  16.087  13.404
45132W        W13462   5.238  31.135   1.839
45133W        W13463   0.900  43.875  11.126
45134W        W13464  18.280  23.024  10.629
45135W        W13465   3.226  42.411   2.210
45136W        W13466  39.375  28.159  14.892
45137W        W13467  39.962  11.684  12.580
45138W        W13468  26.609  36.589   2.288
45139W        W13469  16.586  34.609   1.789
45140W        W13470  17.253   2.231   3.869
45141W        W13471  44.801  21.699   4.349
45142W        W13472   2.336   4.237  11.566
45143W        W13473  35.509   6.241   2.709
45144W        W13474  12.316  35.460  13.937
45145W        W13475  12.185  41.347  14.340
45146W        W13476  42.306   2.791   2.777
45147W        W13477   1.346   1.297  13.047
45148W        W13478   6.809  16.306  10.939
45149W        W13479  16.096  44.845  11.471
45150W        W13480  17.221  15.105  13.317
45151W        W13481  29.574  19.257   3.806
45152W        W13482  30.136  34.562   3.639
45153W        W13483  39.871  30.627  10.511
45154W        W13484  27.034  34.385   1.787
45155W        W13485  16.671  11.710   0.902
45156W        W13486  14.669   0.248   0.872
45157W        W13487   9.314  40.433  11.867
45158W        W13488   5.760   9.221  14.810
45159W        W13489  26.958   1.911   1.354
45160W        W13490  27.948  23.228   3.868
45161W        W13491  25.185  19.688   3.852
45162W        W13492  24.515  37.419   4.275
45163W        W13493  34.615  25.472  11.477
45164W        W13494  30.095  17.700   2.784
45165W        W13495   9.151  13.193   1.339
45166W        W13496   6.210  26.457   4.734
45167W        W13497  18.214  10.853   3.332
45168W        W13498  39.517  27.167   2.344
45169W        W13499  26.645  34.429   0.340
45170W        W13500  13.715  28.662   0.783
45171W        W13501   3.832  25.020  13.839
45172W        W13502   4.256  24.195  14.923
45173W        W13503  30.002  17.794   4.134
45174W        W13504   4.355  14.647  10.982
45175W        W13505  26.166  34.396   2.901
45176W        W13506   4.305  25.977  14.958
45177W        W13507  44.487   0.793   5.140
45178W        W13508  32.922  11.180  14.031
45179W        W13509  20.721  42.831   0.890
45180W        W13510  37.396  26.125  10.038
45181W        W13511  29.655   4.916   2.809
45182W        W13512  32.137   2.265   3.841
45183W        W13513   6.791  36.582   0.252
45184W        W13514  12.634  18.110  11.590
45185W        W13515  25.559   2.351  13.365
45186W        W13516   7.260  36.899  11.126
45187W        W13517  13.276   3.802   0.297
45188W        W13518  43.421  22.242  14.345
45189W        W13519  17.225  32.886   4.647
45190W        W13520   5.332  29.512  13.794
45191W        W13521  37.518  28.604   0.770
45192W        W13522  44.945  42.904   0.917
45193W        W13523  36.945  29.173   3.689
45194W        W13524  12.667  31.489   4.185
45195W        W13525  42.526   9.877  11.489
45196W        W13526  44.807  11.683   0.849
45197W        W13527  13.653  10.670  11.455
45198W        W13528  28.562   1.340  14.455
45199W        W13529  23.624   2.342   2.669
45200W        W13530  29.454  16.149   2.390
45201W        W13531  11.646   5.835  12.537
45202W        W13532  42.805  31.493  12.995
45203W        W13533  43.350  27.119  13.509
45204W        W13534  41.976   0.810  10.060
45205W        W13535  21.542   9.149   0.271
45206W        W13536   1.317  23.055  10.586
45207W        W13537   7.336  21.151   0.795
45208W        W13538  38.476  32.413  10.477
45209W        W13539   3.253   1.374   1.450
45210W        W13540  41.830  32.554   4.132
45211W        W13541  29.498   6.314   1.824
45212W        W13542  43.509   4.318  14.411
45213W        W13543   3.442  32.454  13.910
45214W        W13544  20.056  23.184   5.099
45215W        W13545  25.133  28.520   1.922
45216W        W13546  17.132  33.407   4.303
45217W        W13547   2.801  28.057  13.317
45218W        W13548  24.612  35.585  12.508
45219W        W13549  30.530  32.408   1.283
45220W        W13550  41.842  20.638  10.521
45221W        W13551  22.039  28.075   1.299
45222W        W13552  43.013   0.490   0.355
45223W        W13553  23.122  32.137   0.378
45224W        W13554  30.459  12.772   3.218
45225W        W13555  10.298  40.388  13.934
45226W        W13556  23.113   7.391   0.480
45227W        W13557  37.450   8.771  13.366
45228W        W13558  21.756  37.541  11.895
45229W        W13559   9.840  30.156  14.912
45230W        W13560  14.113  27.170  10.518
45231W        W13561   4.224   6.268  10.905
45232W        W13562  38.039   3.254  12.389
45233W        W13563  38.922  33.064  13.422
45234W        W13564  35.461  30.083   0.441
45235W        W13565   6.198  32.899   1.695
45236W        W13566   5.353  32.633  11.120
45237W        W13567  32.625  41.825   1.361
45238W        W13568  31.622   0.401  12.030
45239W        W13569  36.413  33.063   4.767
45240W        W13570  18.729  24.620   3.322
45241W        W13571  11.212   1.824   1.723
45242W        W13572  22.160   5.395  12.363
45243W        W13573  36.908  22.571   4.294
45244W        W13574  23.692  38.953   1.862
45245W        W13575  41.017  33.579  13.832
45246W        W13576  30.491  16.100   3.722
45247W        W13577   9.199  10.790  11.395
45248W        W13578   9.294  25.966   3.178
45249W        W13579  10.373  28.102   1.421
45250W        W13580  35.104  28.014   2.787
45251W        W13581  23.519  20.126  10.429
45252W        W13582   3.767   0.753  13.449
45253W        W13583  12.287   5.873   3.710
45254W        W13584   2.901   4.792   0.815
45255W        W13585  27.001  18.281  13.861
45256W        W13586  13.674  43.890   1.898
45257W        W13587  18.276  33.957   1.372
45258W        W13588   8.782   8.375   2.774
45259W        W13589  23.697  27.102  10.454
45260W        W13590  39.933  42.490   0.775
45261W        W13591  34.509  28.003  11.910
45262W        W13592   8.793   5.913  14.834
45263W        W13593  23.650   7.313   4.244
45264W        W13594   1.356   5.382   2.893
45265W        W13595  13.747  38.989  13.794
45266W        W13596  33.495   9.315  13.399
45267W        W13597  20.688  43.414   0.398
45268W        W13598  11.218  24.171   0.900
45269W        W13599  37.511   5.907  10.437
45270W        W13600   4.700   2.397   2.257
45271W        W13601  31.116  42.033   1.934
45272W        W13602  32.602  22.013  11.899
45273W        W13603  21.654  43.913   4.811
45274W        W13604  20.031   6.190   3.261
45275W        W13605  17.178  10.337   2.193
45276W        W13606   3.256  16.739   1.695
45277W        W13607  23.548  38.867   4.730
45278W        W13608   5.839  23.514   3.640
45279W        W13609  35.905  41.526  10.447
45280W        W13610  31.141  35.960   0.252
45281W        W13611   4.720  39.812   2.383
45282W        W13612  38.497  23.544  14.828
45283W        W13613  39.984  44.497  10.436
45284W        W13614   0.952   3.750   1.758
45285W        W13615   6.377  18.183  11.925
45286W        W13616  20.662   8.381   0.868
45287W        W13617  37.840   9.330   2.805
45288W        W13618  24.137  12.343  14.774
45289W        W13619  27.555  40.321   1.718
45290W        W13620   0.869  23.612  13.469
45291W        W13621  24.506   2.767   3.843
45292W        W13622   7.908  34.967  11.415
45293W        W13623  38.999   9.272  11.509
45294W        W13624  32.453  44.399   0.408
45295W        W13625   9.772   1.772  14.950
45296W        W13626  40.351  37.053   3.316
45297W        W13627  12.732   0.926  13.479
45298W        W13628  35.510  26.569  12.547
45299W        W13629  30.593   5.739   0.765
45300W        W13630  28.133  34.549  14.788
45301W        W13631  30.600  36.971   1.407
45302W        W13632  19.622  44.409   5.250
45303W        W13633  19.067  13.272  14.817
45304W        W13634  22.567  39.886  13.523
45305W        W13635  18.703  13.648   2.388
45306W        W13636  12.124  22.082  11.964
45307W        W13637  18.250   8.847   3.340
45308W        W13638  33.613  25.219  10.018
45309W        W13639   5.233  26.572  11.036
45310W        W13640  10.176  13.669   3.374
45311W        W13641  41.816  44.305  12.860
45312W        W13642  42.351  35.451  13.917
45313W        W13643   9.199  21.106  12.030
45314W        W13644  41.790  44.277  13.893
45315W        W13645   6.764  28.547   1.813
45316W        W13646  44.780  26.591   3.824
45317W        W13647  13.269   9.873  11.529
45318W        W13648  44.280  19.228  14.827
45319W        W13649  31.489  34.898   2.318
45320W        W13650  21.099  23.601   4.309
45321W        W13651   7.328   7.345  14.444
45322W        W13652  41.463  16.275  11.607
45323W        W13653  28.010   8.844   2.356
45324W        W13654  31.899   5.785   4.644
45325W        W13655  34.109   7.399  13.453
45326W        W13656  23.029   3.281   2.830
45327W        W13657  24.613  15.307   2.819
45328W        W13658   8.885  41.027  11.446
45329W        W13659  31.418  25.987  14.327
45330W        W13660   8.176  32.094   1.745
45331W        W13661  25.712  33.076  13.469
45332W        W13662   9.759  43.901  13.545
45333W        W13663  16.781  21.108  10.961
45334W        W13664  29.138   9.686  13.444
45335W        W13665  39.558  39.913   1.254
45336W        W13666  10.287  22.728  10.449
45337W        W13667  29.111  15.179   1.867
45338W        W13668   6.759  39.406  14.931
45339W        W13669   2.753  23.520   2.714
45340W        W13670   2.368   2.239  10.975
45341W        W13671  24.128  14.210   0.912
45342W        W13672   3.427  23.521   4.718
45343W        W13673  19.721   8.394   0.878
45344W        W13674  26.079  32.616  11.610
45345W        W13675  33.571   2.727  11.935
45346W        W13676  42.012  32.930  13.956
45347W        W13677  44.774  27.539   1.419
45348W        W13678  43.765   9.721  10.495
45349W        W13679   1.325  16.179   2.902
45350W        W13680  17.787  35.057  10.977
45351W        W13681   1.375  44.302   4.787
45352W        W13682  21.641   2.735   1.242
45353W        W13683  18.264  24.166  11.096
45354W        W13684  17.560   8.819  14.983
45355W        W13685  42.804  19.270   3.858
45356W        W13686  32.063  40.443  12.490
45357W        W13687   7.886  25.577   4.609
45358W        W13688  37.538   0.751   4.338
45359W        W13689   8.197  10.794  11.426
45360W        W13690  33.912  10.187  11.997
45361W        W13691  42.899   7.367  11.982
45362W        W13692   6.902  39.517   4.159
45363W        W13693   8.790  36.444  14.948
45364W        W13694  17.200  13.715   3.721
45365W        W13695  34.410  20.647   4.327
45366W        W13696  35.884  13.168  11.088
45367W        W13697  29.113  35.883  12.955
45368W        W13698  38.500   0.417   4.797
45369W        W13699  22.688  34.102  10.496
45370W        W13700  22.568  31.404  13.811
45371W        W13701  35.076  32.572   2.393
45372W        W13702  38.532  10.678   2.292
45373W        W13703  26.179  12.132   1.310
45374W        W13704  26.531  30.053  12.908
45375W        W13705  17.648  32.936   2.365
45376W        W13706   8.723  37.852  11.539
45377W        W13707  10.633   2.411   0.385
45378W        W13708   2.720  12.699   0.855
45379W        W13709  11.148   0.281  14.809
45380W        W13710  42.942  15.150   1.356
45381W        W13711  42.462  34.053   1.226
45382W        W13712  40.920  26.988  14.956
45383W        W13713  25.611  35.090   0.956
45384W        W13714  44.314  31.511   4.622
45385W        W13715  15.203  37.428   4.129
45386W        W13716  11.825   2.757   2.224
45387W        W13717  18.153  40.810  12.888
45388W        W13718  20.625  30.013  13.496
45389W        W13719  30.480   0.480  14.487
45390W        W13720  31.016  19.628   0.385
45391W        W13721   8.853   8.788  12.360
45392W        W13722  18.202  25.094  13.325
45393W        W13723   6.390  13.763  10.975
45394W        W13724  26.577  12.727  10.129
45395W        W13725  41.806   6.419   3.288
45396W        W13726  44.494   4.359  14.840
45397W        W13727  29.645  38.371   4.682
45398W        W13728   8.812  10.189   1.349
45399W        W13729  30.642  23.549   4.700
45400W        W13730  43.338   2.288   0.364
45401W        W13731  32.104   4.919   3.287
45402W        W13732  15.588  24.652   5.088
45403W        W13733  27.982   7.191   2.359
45404W        W13734  32.548  34.036  12.884
45405W        W13735  29.103  11.815  14.027
45406W        W13736  21.118  39.431  14.375
45407W        W13737  33.066  18.547   0.280
45408W        W13738  34.900  10.717   3.193
45409W        W13739   0.374  37.087   0.757
45410W        W13740  28.538  41.001   4.792
45411W        W13741  20.637  32.580   1.790
45412W        W13742   8.756  26.998   0.260
45413W        W13743  16.741  32.440   0.796
45414W        W13744  13.197  41.846  12.844
45415W        W13745  16.796  32.100  12.477
45416W        W13746  22.606  32.625  10.597
45417W        W13747  26.088  20.075  12.443
45418W        W13748   9.774  19.652   3.191
45419W        W13749  33.602   4.755   3.660
45420W        W13750  35.927  10.807   0.835
45421W        W13751  19.640   2.802  12.858
45422W        W13752  38.907  37.371  12.526
45423W        W13753   5.833   5.862   0.252
45424W        W13754  34.081   9.282   3.235
45425W        W13755  17.757  22.189  13.857
45426W        W13756  36.368  43.966   1.855
45427W        W13757  24.609  18.121   2.739
45428W        W13758   7.812   3.862   2.358
45429W        W13759  30.120  42.019  14.774
45430W        W13760  16.163   8.852   0.472
45431W        W13761  35.498  37.570  13.861
45432W        W13762   4.903  23.688   5.218
45433W        W13763   2.864  39.928  14.391
45434W        W13764  13.640   2.774   1.889
45435W        W13765  36.455  12.834   9.981
45436W        W13766  29.035  44.981  13.876
45437W        W13767  23.200  12.297   1.728
45438W        W13768   3.711  22.124   4.835
45439W        W13769  14.185   0.459   1.917
45440W        W13770  40.928  29.997  14.279
45441W        W13771   7.832   0.859  11.489
45442W        W13772   2.825  37.571  12.415
45443W        W13773  26.622   9.833   9.572
45444W        W13774  42.342  33.430  13.387
45445W        W13775   9.357   2.909   0.475
45446W        W13776  13.303  33.516   3.248
45447W        W13777  19.158  22.018  12.941
45448W        W13778  31.918  30.914   2.664
45449W        W13779   2.461  11.189   4.735
45450W        W13780  13.768  28.932  11.419
45451W        W13781  22.175  17.797  13.431
45452W        W13782  38.482  15.647  12.957
45453W        W13783  22.591  41.313   3.354
45454W        W13784   8.196  42.489   4.772
45455W        W13785  12.117  18.283  12.949
45456W        W13786  29.474  36.861  10.435
45457W        W13787  24.672  19.138  13.322
45458W        W13788  38.053  14.211  14.916
45459W        W13789  19.148  41.326  11.542
45460W        W13790   2.444  12.714  10.510
45461W        W13791  40.969  36.482  11.100
45462W        W13792  43.952  19.610   1.698
45463W        W13793  30.649   7.177  12.864
45464W        W13794  21.021  41.404  13.944
45465W        W13795  37.449  25.050   0.362
45466W        W13796  41.796   1.365  13.494
45467W        W13797   6.770  38.821   2.726
45468W        W13798  13.776  18.623  11.905
45469W        W13799  13.781  26.683   3.689
45470W        W13800  31.010  25.118   1.336
45471W        W13801  33.116  18.282   2.235
45472W        W13802  26.964  43.893   4.271
45473W        W13803   9.353  12.157   0.257
45474W        W13804  22.177  41.405   2.900
45475W        W13805   8.164  18.112   1.823
45476W        W13806  41.431  38.385   2.744
45477W        W13807  25.629  29.108   3.817
45478W        W13808   7.719  32.462  13.917
45479W        W13809  12.216  22.236   3.178
45480W        W13810  15.660  32.088  10.976
45481W        W13811  44.762  38.539  13.486
45482W        W13812  44.280  15.273  14.811
45483W        W13813   6.815  30.969   1.389
45484W        W13814  33.493   3.783   4.694
45485W        W13815  27.644  37.401  12.877
45486W        W13816  18.671   3.237   4.290
45487W        W13817   0.926  11.254  13.403
45488W        W13818  29.456   8.771   2.220
45489W        W13819   3.368   6.368  12.495
45490W        W13820  29.144  19.084   3.683
45491W        W13821  30.494  13.211   0.402
45492W        W13822  24.026  38.515   2.672
45493W        W13823  21.044  18.775   1.344
45494W        W13824  10.697  25.082   1.799
45495W        W13825  29.138  34.082   5.751
45496W        W13826  38.385  37.048  14.979
45497W        W13827  24.487  25.640  13.513
45498W        W13828  13.697  12.853  14.931
45499W        W13829   2.422  44.296  14.382
45500W        W13830  11.749  21.559   2.764
45501W        W13831  23.080  40.903  11.420
45502W        W13832  19.744  39.459   2.857
45503W        W13833  36.418  30.531  10.494
45504W        W13834   1.861  41.404   4.245
45505W        W13835  38.334  14.663  12.370
45506W        W13836  38.480  30.048   0.810
45507W        W13837  41.331   5.873  14.834
45508W        W13838  44.844  27.941  11.942
45509W        W13839   3.289  38.377   5.716
45510W        W13840   1.892  13.213   4.254
45511W        W13841   9.298  20.703  10.892
45512W        W13842  42.452  39.001  13.932
45513W        W13843  25.564  17.080  11.425
45514W        W13844  13.744  43.791  13.054
45515W        W13845  44.306  24.206  14.877
45516W        W13846  13.620  17.171  13.958
45517W        W13847   4.858  41.301   3.809
45518W        W13848  20.044   7.308   1.769
45519W        W13849  34.949  37.493   5.203
45520W        W13850  31.112  30.418  11.098
45521W        W13851  10.255  31.003  13.978
45522W        W13852  24.498  35.943   2.808
45523W        W13853   2.956  44.304   1.751
45524W        W13854  29.543  34.090  10.086
45525W        W13855  14.736  38.405  13.879
45526W        W13856  32.077  33.394   2.255
45527W        W13857   0.933  12.775   0.419
45528W        W13858  13.721   7.687  14.980
45529W        W13859  26.168  38.076  13.368
45530W        W13860  40.866  29.563   0.766
45531W        W13861   2.256  25.687  12.377
45532W        W13862  32.975  19.565  14.507
45533W        W13863  24.601   9.764  13.841
45534W        W13864  32.118  44.305   1.291
45535W        W13865   4.868  19.679  13.483
45536W        W13866  22.688  18.680  10.104
45537W        W13867  38.413  32.998  11.870
45538W        W13868  40.972  14.118  13.040
45539W        W13869   0.388  20.678   4.337
45540W        W13870  21.232   3.319  12.542
45541W        W13871  36.063  42.855  14.952
45542W        W13872  23.546  44.999   0.475
45543W        W13873  44.960  13.248   0.955
45544W        W13874   6.830  21.110  14.441
45545W        W13875  14.169   0.857  12.012
45546W        W13876  25.138  38.074  14.482
45547W        W13877  23.510  18.631  10.555
45548W        W13878   4.264   2.323  14.479
45549W        W13879  41.899  44.461   2.339
45550W        W13880  15.676  14.699  11.416
45551W        W13881  29.585   2.829  13.478
45552W        W13882  13.119   5.311  10.911
45553W        W13883  11.352  11.129  14.911
45554W        W13884  36.422  20.762  13.900
45555W        W13885  31.452  13.138  14.019
45556W        W13886   8.748  27.607  14.787
45557W        W13887  37.362  37.939  13.828
45558W        W13888  17.791  30.553  12.387
45559W        W13889  11.346  25.570  12.957
45560W        W13890   5.302   3.400   2.800
45561W        W13891  27.034  10.320   1.788
45562W        W13892   4.715  30.434   0.366
45563W        W13893  33.617   6.734  11.872
45564W        W13894  36.536  34.524   4.671
45565W        W13895  11.854  10.635  12.914
45566W        W13896  37.883  20.237  10.892
45567W        W13897   4.702  31.436   0.783
45568W        W13898  41.025  11.688  12.438
45569W        W13899  24.042  19.249  14.966
45570W        W13900  37.018  18.678   3.844
45571W        W13901  31.994  18.157   3.331
45572W        W13902  31.420  30.471   3.780
45573W        W13903  43.280  36.439   3.225
45574W        W13904  37.548   9.242   4.781
45575W        W13905  14.321  42.419   1.372
45576W        W13906  31.938   9.238  13.313
45577W        W13907  25.148   4.868  12.349
45578W        W13908  22.517  41.794  12.430
45579W        W13909   8.835  18.149  13.034
45580W        W13910  13.349   2.934  10.538
45581W        W13911  22.522  31.491   4.754
45582W        W13912  37.545  32.086   1.301
45583W        W13913   3.448   1.914   2.207
45584W        W13914   4.230   3.895  11.447
45585W        W13915  14.802  33.440   4.821
45586W        W13916  10.762   3.298   3.668
45587W        W13917   1.460  39.054  10.005
45588W        W13918  26.591  26.043  14.962
45589W        W13919  42.882   9.670  11.021
45590W        W13920  21.058  38.957   9.997
45591W        W13921  14.201  33.509  10.586
45592W        W13922  32.944  14.146  14.859
45593W        W13923  28.631   4.807   2.189
45594W        W13924   7.815   0.844   1.408
45595W        W13925   9.686  14.129  14.317
45596W        W13926   1.362   5.726   2.391
45597W        W13927  18.195  41.988  12.825
45598W        W13928  22.122  19.752  12.547
45599W        W13929  30.516  27.946  13.984
45600W        W13930  33.004   6.834  11.096
45601W        W13931  22.519   9.649   4.634
45602W        W13932  29.445   1.829  12.574
45603W        W13933  35.411  32.404  11.408
45604W        W13934  37.084  38.450  10.980
45605W        W13935  14.758   8.783   1.388
45606W        W13936  34.914  20.122   3.719
45607W        W13937  41.462  13.136   1.790
45608W        W13938   5.386  23.060  12.522
45609W        W13939  30.963  26.555   1.341
45610W        W13940   5.775  19.204  11.502
45611W        W13941  12.200  10.207   1.246
45612W        W13942  22.651  10.832   1.269
45613W        W13943  30.929  33.079  14.769
45614W        W13944   8.863  34.521  13.916
45615W        W13945  19.625  21.117  13.484
45616W        W13946  21.221  41.489  10.916
45617W        W13947   6.428  16.184  12.355
45618W        W13948  35.076   6.401   1.322
45619W        W13949  15.320  11.682  14.937
45620W        W13950  15.658   7.227   4.780
45621W        W13951  19.121  37.852   1.263
45622W        W13952  25.138  17.239  14.006
45623W        W13953  31.911  31.599  13.548
45624W        W13954  33.937  40.510   0.380
45625W        W13955   5.434  43.355   2.765
45626W        W13956  29.074  21.213   2.301
45627W        W13957  16.300  37.863   0.862
45628W        W13958  40.542  40.950   4.835
45629W        W13959  42.462   3.243   3.653
45630W        W13960  33.927   3.337   4.693
45631W        W13961  30.631  25.526   2.758
45632W        W13962  35.524  42.525  11.402
45633W        W13963  33.493   4.836  11.460
45634W        W13964  25.106  15.150  13.948
45635W        W13965  29.638  10.233  10.143
45636W        W13966  20.606   9.215   0.250
45637W        W13967  38.862  18.068   4.637
45638W        W13968   4.314  23.564   0.840
45639W        W13969  44.831  28.120  10.121
45640W        W13970  42.357  14.104   1.431
45641W        W13971  41.887  23.609   2.269
45642W        W13972  12.140  43.413   1.259
45643W        W13973  14.797  11.655  11.397
45644W        W13974   2.305  40.387  11.110
45645W        W13975  42.002   4.748  13.844
45646W        W13976  12.178  40.302   0.386
45647W        W13977  26.027  21.708   2.678
45648W        W13978  27.597  16.076   2.882
45649W        W13979   6.851   7.351  13.063
45650W        W13980  40.848  36.491  13.851
45651W        W13981  32.516  40.503   4.666
45652W        W13982  31.404  35.883   3.301
45653W        W13983  12.183  12.681  13.794
45654W        W13984  15.190  42.823   5.297
45655W        W13985  37.492  41.383   1.246
45656W        W13986  38.877  32.046   9.985
45657W        W13987  37.860   3.809  13.054
45658W        W13988  29.435  26.471  14.781
45659W        W13989  10.862  13.312  12.088
45660W        W13990  36.859   1.857  12.492
45661W        W13991  38.448  25.659  12.572
45662W        W13992  19.271  13.225  10.987
45663W        W13993   5.765   5.396  13.830
45664W        W13994  14.824  17.696   4.768
45665W        W13995  20.074  40.459  10.934
45666W        W13996  16.679  40.380  13.831
45667W        W13997  44.002   1.245  11.386
45668W        W13998  16.615  38.951   0.898
45669W        W13999  38.351  20.698   4.194
45670W        W14000  28.054  17.238  13.059
45671W        W14001  42.404   1.956  10.903
45672W        W14002  14.330  34.001   0.446
45673W        W14003  42.818   9.855   4.629
45674W        W14004   7.256  29.424  10.461
45675W        W14005   3.907  27.635   3.168
45676W        W14006  40.023  42.495  10.904
45677W        W14007   0.919  33.093   0.903
45678W        W14008   8.160  24.543   4.729
45679W        W14009  19.616  24.157  13.039
45680W        W14010  27.653  28.119   2.317
45681W        W14011   4.780  30.979   1.698
45682W        W14012  36.015  39.911   2.803
45683W        W14013  18.072  22.233  14.333
45684W        W14014  43.272  13.266  13.938
45685W        W14015  17.717  31.968  11.102
45686W        W14016   4.849   9.788   3.856
45687W        W14017  15.612  11.792   1.793
45688W        W14018  34.873   6.366   2.879
45689W        W14019  17.144   8.869   0.475
45690W        W14020  21.051  36.924   1.738
45691W        W14021  23.200  15.103  12.010
45692W        W14022   7.318  23.108   1.807
45693W        W14023  29.971  27.096  11.597
45694W        W14024  32.899  23.659  13.960
45695W        W14025  21.529  29.096  12.399
45696W        W14026  41.995  30.542   3.330
45697W        W14027  34.898  18.573  12.397
45698W        W14028   8.876  30.659  11.900
45699W        W14029   8.759   1.791  14.975
45700W        W14030  42.777  33.534   3.180
45701W        W14031  44.344   5.898  14.025
45702W        W14032  30.516  12.694   3.807
45703W        W14033  34.395   2.352  14.774
45704W        W14034   5.203  37.444   9.448
45705W        W14035  37.061   5.778   4.662
45706W        W14036  24.712  37.014  13.818
45707W        W14037  20.583   1.760  13.881
45708W        W14038  23.647  20.127  10.950
45709W        W14039  35.415  33.025  11.404
45710W        W14040  32.532  18.163   1.898
45711W        W14041  20.180   8.278  14.809
45712W        W14042  18.110  10.381   4.666
45713W        W14043   0.788  36.068   4.204
45714W        W14044   1.854  23.192   2.382
45715W        W14045  42.872  14.269   0.457
45716W        W14046  11.836  33.607   2.721
45717W        W14047   5.817  15.652   4.727
45718W        W14048  26.654   8.761   2.868
45719W        W14049  38.400  40.522  10.942
45720W        W14050  20.716   8.295   1.269
45721W        W14051  12.159  24.658  13.889
45722W        W14052  26.456  44.404  10.972
45723W        W14053   5.382  11.723   3.764
45724W        W14054  16.732  13.263   0.315
45725W        W14055  28.619   7.285   0.863
45726W        W14056   1.263  36.863  10.133
45727W        W14057  20.185  23.169  11.100
45728W        W14058  28.067  37.467   1.821
45729W        W14059   2.744  42.866  14.449
45730W        W14060   1.237  14.678   1.382
45731W        W14061  40.047  13.261   4.635
45732W        W14062  24.502  20.051   0.424
45733W        W14063  25.149  25.713  11.094
45734W        W14064  21.574  31.551  13.009
45735W        W14065  21.542  33.126   3.767
45736W        W14066   1.793  29.022  10.408
45737W        W14067   1.970  15.690   1.311
45738W        W14068  26.700  19.047  14.471
45739W        W14069   1.917  36.546   0.450
45740W        W14070  42.008  28.129   2.262
45741W        W14071  11.824   9.179   3.305
45742W        W14072  34.525  41.465  11.059
45743W        W14073  14.313  44.955  13.392
45744W        W14074  14.723   0.889  11.549
45745W        W14075  43.350  13.729  11.571
45746W        W14076  13.671   0.846   4.272
45747W        W14077  25.606   3.953   3.644
45748W        W14078  16.140  26.666   3.190
45749W        W14079  22.151  25.094  12.009
45750W        W14080   4.943  28.033   5.196
45751W        W14081  30.424  21.606  13.058
45752W        W14082  32.440  33.985  13.317
45753W        W14083  36.973   9.382   3.295
45754W        W14084   0.398   6.214  11.117
45755W        W14085  44.374  36.528   0.795
45756W        W14086  13.830  12.852  12.529
45757W        W14087  11.170  36.537  11.082
45758W        W14088  25.551  17.612  13.997
45759W        W14089  15.609   4.442   0.320
45760W        W14090  27.952  24.096   1.410
45761W        W14091  19.227  26.068   4.338
45762W        W14092  37.364  17.633  10.429
45763W        W14093  19.597  36.492  14.913
45764W        W14094  20.688  29.960   0.403
45765W        W14095   7.235  12.116  11.113
45766W        W14096  24.194   0.460   4.263
45767W        W14097  21.169  27.492  13.488
45768W        W14098  38.888  25.568  13.970
45769W        W14099  12.263  16.298  10.587
45770W        W14100  14.290  44.459  10.555
45771W        W14101   4.782   4.360  12.521
45772W        W14102  10.640  29.051  10.642
45773W        W14103  28.941  40.499   2.853
45774W        W14104  28.161  36.476  11.907
45775W        W14105  26.530  26.457   1.282
45776W        W14106  36.030  16.240   0.816
45777W        W14107  35.101   4.206   3.726
45778W        W14108  18.549  30.514   3.274
45779W        W14109  26.187  14.619   2.680
45780W        W14110   7.840  22.622  11.000
45781W        W14111  23.024  37.898   1.368
45782W        W14112   9.370  28.039  13.468
45783W        W14113  31.075  24.229  13.907
45784W        W14114   3.746  11.834  11.081
45785W        W14115  41.879   5.286   4.789
45786W        W14116   0.955   1.969   5.175
45787W        W14117   3.460  37.037  11.481
45788W        W14118  42.463   0.842   1.893
45789W        W14119  26.467  34.409   3.871
45790W        W14120  39.497  41.905   2.186
45791W        W14121  36.434  13.154  14.856
45792W        W14122  44.910  16.263   4.737
45793W        W14123  17.672  22.090   4.700
45794W        W14124  33.385   6.310  12.972
45795W        W14125  13.790   2.919  11.057
45796W        W14126  28.120  21.229   0.749
45797W        W14127  38.515  24.080  13.921
45798W        W14128  23.189   5.862   0.925
45799W        W14129  25.990  13.168   2.185
45800W        W14130  31.423  44.870  11.607
45801W        W14131  26.092  38.459   3.360
45802W        W14132  20.197  37.454  11.985
45803W        W14133  23.184  25.561  13.454
45804W        W14134  39.880   3.714  14.456
45805W        W14135  30.987  18.687   4.792
45806W        W14136  37.991  18.711   1.249
45807W        W14137  32.621  15.144  13.307
45808W        W14138  28.167  14.263   4.598
45809W        W14139  28.546  40.875  14.874
45810W        W14140  18.745  16.758   1.431
45811W        W14141   7.814   1.384  12.945
45812W        W14142  26.014   3.894  13.028
45813W        W14143  24.653   8.804   2.205
45814W        W14144  22.692  12.296   2.283
45815W        W14145  14.142  39.418   1.345
45816W        W14146   9.261   7.365  14.491
45817W        W14147  20.669  25.046   2.667
45818W        W14148   0.780   1.956   1.774
45819W        W14149  42.898  28.679  12.859
45820W        W14150  34.503  20.667   0.287
45821W        W14151  16.644  14.166  13.833
45822W        W14152  41.915  41.936   3.356
45823W        W14153   9.297  17.643  13.044
45824W        W14154  10.856  24.071  12.086
45825W        W14155  36.542   5.906  11.428
45826W        W14156  31.120  18.749   0.392
45827W        W14157  13.658  19.210   4.708
45828W        W14158  22.520  28.031   4.287
45829W        W14159  29.082  19.093  13.477
45830W        W14160  39.346  41.031   3.630
45831W        W14161  18.114  39.436  10.994
45832W        W14162  10.295  24.682  12.476
45833W        W14163  34.472  10.795   4.762
45834W        W14164  23.023  26.499   1.233
45835W        W14165   4.354  40.976  14.498
45836W        W14166  20.153  27.542   0.411
45837W        W14167  25.120  24.185   4.734
45838W        W14168   4.843  24.002   4.673
45839W        W14169  41.405  16.608   4.618
45840W        W14170  39.851   8.321   5.631
45841W        W14171  19.160   5.277  12.999
45842W        W14172  43.466  24.542  11.419
45843W        W14173  22.230  15.120   0.967
45844W        W14174  29.996  40.452   0.943
45845W        W14175  37.869  21.587   2.185
45846W        W14176  27.576  25.157   0.445
45847W        W14177   1.473   9.297   4.617
45848W        W14178  30.598  31.471   3.202
45849W        W14179  33.491  23.601   4.305
45850W        W14180   8.718   3.749   4.322
45851W        W14181  29.496  28.144   3.248
45852W        W14182  33.936   9.361  14.508
45853W        W14183  23.667   5.875   3.687
45854W        W14184   5.306  18.172  12.037
45855W        W14185  24.116  15.113  12.945
45856W        W14186  27.535  28.677   4.735
45857W        W14187  44.895  44.963   3.761
45858W        W14188  12.337  13.152  14.512
45859W        W14189  39.976  16.655  13.378
45860W        W14190   9.226  34.017   2.179
45861W        W14191  15.778  10.155   0.362
45862W        W14192  22.543   1.466  13.807
45863W        W14193  42.290   9.210  11.094
45864W        W14194  40.966  10.318   3.256
45865W        W14195  44.348   0.474   1.748
45866W        W14196  37.061  11.823   3.377
45867W        W14197  39.404   8.661   1.359
45868W        W14198  16.256  36.580  12.984
45869W        W14199   1.268  22.509   0.324
45870W        W14200  31.009  21.049  11.387
45871W        W14201  10.244  35.958  10.116
45872W        W14202   3.292  29.607  13.538
45873W        W14203  12.817   9.151  12.009
45874W        W14204  35.555   1.384  10.496
45875W        W14205  14.677  23.539   3.267
45876W        W14206  39.002   5.911   0.296
45877W        W14207  15.156   0.794  13.362
45878W        W14208  41.914  11.795  10.499
45879W        W14209  12.676  18.622  14.431
45880W        W14210  37.024   5.285   1.798
45881W        W14211  40.394   4.706  12.008
45882W        W14212  34.000  41.927  13.419
45883W        W14213  44.311  44.468  14.370
45884W        W14214  11.672  24.501  10.924
45885W        W14215  10.217  14.313   1.301
45886W        W14216  24.056  29.049   4.256
45887W        W14217  30.082  24.183   2.369
45888W        W14218  16.619  43.376  14.797
45889W        W14219  38.420  40.853  14.400
45890W        W14220  18.689   8.744   3.174
45891W        W14221  13.671  43.831   0.765
45892W        W14222  11.779  40.425   5.249
45893W        W14223  10.722   5.707   3.750
45894W        W14224  11.348  40.470   2.876
45895W        W14225  45.000   1.933   1.737
45896W        W14226  38.917   8.246  13.794
45897W        W14227  26.591  39.823   0.452
45898W        W14228  31.506  37.388  11.603
45899W        W14229  18.707  15.601  11.112
45900W        W14230  37.920   4.707   2.290
45901W        W14231  35.088  24.061   1.728
45902W        W14232  12.271  18.200  12.012
45903W        W14233   0.835  38.904   2.900
45904W        W14234   9.167  35.364  11.066
45905W        W14235  25.017  32.590   1.431
45906W        W14236  33.483  11.350   0.965
45907W        W14237  42.417  30.481  11.448
45908W        W14238  41.951  10.763  10.457
45909W        W14239  29.152   0.928   1.736
45910W        W14240  16.574  24.148   2.239
45911W        W14241   4.393  31.101   0.745
45912W        W14242   0.444  32.947   2.745
45913W        W14243  35.982  24.112   3.346
45914W        W14244  26.138  33.548  12.029
45915W        W14245  40.970  25.616   1.412
45916W        W14246  19.709  15.701  12.494
45917W        W14247   3.450   4.382  13.060
45918W        W14248  44.845   0.945  12.512
45919W        W14249   5.855  39.417  14.972
45920W        W14250   6.729  10.722  12.462
45921W        W14251   9.393  26.630   4.673
45922W        W14252   8.686   7.207  14.859
45923W        W14253   7.411  22.697  10.534
45924W        W14254  37.500  36.410  10.500
45925W        W14255  31.454  40.305   2.687
45926W        W14256  27.463  13.169  13.933
45927W        W14257   1.842  40.326   0.946
45928W        W14258  27.667   7.850   4.716
45929W        W14259   4.310  32.474  11.999
45930W        W14260  39.994  22.140  13.858
45931W        W14261  21.704  38.459   4.770
45932W        W14262  37.529   1.863  11.059
45933W        W14263  32.126  42.330   3.211
45934W        W14264  18.136  35.900   0.801
45935W        W14265   1.784   6.861   0.773
45936W        W14266  10.724   8.869   1.919
45937W        W14267   5.267  34.545  12.478
45938W        W14268  43.356   2.753   3.198
45939W        W14269  44.804  17.304  10.501
45940W        W14270  12.308  32.991  12.453
45941W        W14271  17.154   1.340  11.487
45942W        W14272  40.835  40.410   4.633
45943W        W14273  44.991  40.944   4.685
45944W        W14274  10.640  44.797  10.464
45945W        W14275  35.412  25.532   4.708
45946W        W14276  30.419  20.091   1.758
45947W        W14277  15.231  15.683  14.766
45948W        W14278  34.547  38.552   1.708
45949W        W14279  35.934  11.712  14.930
45950W        W14280  30.648   9.269   4.796
45951W        W14281   5.359  42.831   4.347
45952W        W14282  29.961  15.769   1.837
45953W        W14283  43.370  17.070  11.459
45954W        W14284  44.418   2.923  11.869
45955W        W14285  18.588  22.128  10.941
45956W        W14286  27.155  31.642  10.094
45957W        W14287  32.030  35.517   1.220
45958W        W14288  38.522   2.287  14.483
45959W        W14289  37.879  44.928  14.959
45960W        W14290  11.250   9.856   2.253
45961W        W14291  21.603  13.309  13.045
45962W        W14292  41.393  34.468   2.297
45963W        W14293   0.381  23.044  12.903
45964W        W14294   1.388  21.110   2.711
45965W        W14295  11.622  16.310   1.803
45966W        W14296  29.091  40.409   4.153
45967W        W14297  36.874  42.513   3.357
45968W        W14298   3.236   3.226   2.811
45969W        W14299  16.135  18.730  11.477
45970W        W14300   2.337   8.700   2.823
45971W        W14301  41.832  30.979   1.817
45972W        W14302  13.827   3.258  11.890
45973W        W14303   7.173  12.131   3.824
45974W        W14304  10.788  27.456   1.776
45975W        W14305  41.431  12.813   2.364
45976W        W14306  20.704  23.678   2.182
45977W        W14307   6.298  35.545   1.704
45978W        W14308  20.061  28.491  11.371
45979W        W14309  26.202   9.791  13.009
45980W        W14310   9.669  13.277   2.362
45981W        W14311  31.947  29.002  12.397
45982W        W14312  21.206  43.830   1.718
45983W        W14313  25.588  12.629   2.404
45984W        W14314  14.765  13.299  11.111
45985W        W14315  39.939   1.908   3.237
45986W        W14316  30.509  14.214   0.443
45987W        W14317  42.487  19.768  10.931
45988W        W14318   1.854  13.287  11.436
45989W        W14319   1.358  15.811  14.875
45990W        W14320  36.500   3.865  12.370
45991W        W14321  39.038  10.168   3.680
45992W        W14322  43.819  12.287   2.236
45993W        W14323   4.937  11.646  14.349
45994W        W14324  24.503  26.653  11.468
45995W        W14325  12.642  17.685  11.979
45996W        W14326  24.663  21.572  14.427
45997W        W14327  44.309  25.168   0.864
45998W        W14328  27.619  39.504   0.919
45999W        W14329  17.640  28.621   4.679
46000W        W14330  30.575   8.279  11.396
46001W        W14331  32.898  32.576   3.227
46002W        W14332  29.040  35.511  12.041
46003W        W14333  19.708  13.301  11.594
46004W        W14334  11.719  22.725  14.884
46005W        W14335  39.429   7.224  13.920
46006W        W14336  41.368  44.268   2.339
46007W        W14337  33.912  24.515   3.221
46008W        W14338  12.769   0.250   4.621
46009W        W14339  29.935  13.125   1.216
46010W        W14340  21.553   7.710  14.928
46011W        W14341  16.746  44.264  14.960
46012W        W14342   3.426  36.434   4.323
46013W        W14343   3.784  11.133   2.398
46014W        W14344   2.801  25.109  10.996
46015W        W14345  42.008  29.544  10.618
46016W        W14346  22.145  42.297   2.365
46017W        W14347   4.889   3.752   4.343
46018W        W14348  25.474  16.569   4.830
46019W        W14349  13.162   4.293  14.882
46020W        W14350  38.438  21.722  10.540
46021W        W14351  40.341  28.069   3.777
46022W        W14352  29.540  27.948   2.371
46023W        W14353   7.235  39.520   3.272
46024W        W14354  40.052  29.118  13.323
46025W        W14355  24.176  16.118   0.457
46026W        W14356  20.061   3.305  14.326
46027W        W14357  44.863  18.103  10.470
46028W        W14358  29.636  17.215   2.265
46029W        W14359  22.032  37.351  14.847
46030W        W14360  38.520  19.168   4.647
46031W        W14361  20.540  28.658   1.822
46032W        W14362  16.258  33.893   1.263
46033W        W14363   3.801  27.017   1.366
46034W        W14364   1.794  31.581   2.348
46035W        W14365  31.971  26.477  11.473
46036W        W14366  33.007   0.370   4.221
46037W        W14367   5.211  34.596   2.348
46038W        W14368   5.915  26.053  11.542
46039W        W14369  29.501  18.136   9.979
46040W        W14370  18.635  23.220  13.814
46041W        W14371  23.664   2.363  11.040
46042W        W14372  33.970  23.221   0.860
46043W        W14373   9.208  28.568   1.816
46044W        W14374   6.695  22.534  13.810
46045W        W14375  22.613  29.591   1.302
46046W        W14376  30.469  38.003   1.763
46047W        W14377  44.385  11.174  10.629
46048W        W14378  31.439   1.758   2.400
46049W        W14379   6.811  30.655  13.313
46050W        W14380  28.990   9.287  14.417
46051W        W14381  44.361   0.905   2.796
46052W        W14382  14.333   8.355  10.507
46053W        W14383  29.557  26.995   2.238
46054W        W14384  39.968  24.699   2.321
46055W        W14385  14.121   1.843   3.733
46056W        W14386  43.835   0.406  13.399
46057W        W14387   1.876  17.597   3.630
46058W        W14388  32.570  44.455  10.978
46059W        W14389  33.540  25.562  13.942
46060W        W14390  27.174  17.279   1.282
46061W        W14391  15.655  38.539  13.331
46062W        W14392  15.703  13.761   0.919
46063W        W14393  36.978  20.177   3.289
46064W        W14394  32.593   7.204  12.578
46065W        W14395  42.332  41.874  11.929
46066W        W14396  37.057   1.909   4.219
46067W        W14397  13.755  14.734  14.938
46068W        W14398  16.745  23.677   2.344
46069W        W14399   2.751  26.182  14.936
46070W        W14400   8.828  44.803   4.803
46071W        W14401   2.282  27.196  12.990
46072W        W14402   5.735   0.927   4.770
46073W        W14403  16.765  26.160  12.946
46074W        W14404  16.802  37.936   9.974
46075W        W14405   0.924  38.372   4.300
46076W        W14406  31.905  22.121  14.282
46077W        W14407  20.173  23.709   5.123
46078W        W14408  43.307  41.957   1.852
46079W        W14409   7.276  28.659   2.272
46080W        W14410  30.044  31.420  14.407
46081W        W14411  27.041  11.175   4.131
46082W        W14412   1.930  13.671  14.820
46083W        W14413  17.241   5.757  13.508
46084W        W14414  28.071   4.242   0.306
46085W        W14415  24.022   2.915   2.705
46086W        W14416  39.808  35.918   3.382
46087W        W14417  15.798  13.803  11.528
46088W        W14418  23.121  32.918   1.832
46089W        W14419  24.001   3.788   3.801
46090W        W14420  27.501  34.009  13.790
46091W        W14421   8.807  27.966   4.316
46092W        W14422  34.089  28.071   2.872
46093W        W14423  36.589  17.290   2.773
46094W        W14424  33.985  32.910   1.744
46095W        W14425  44.426  38.397   0.742
46096W        W14426  22.674   8.351   4.655
46097W        W14427  17.590  27.195  12.076
46098W        W14428   7.838  19.639   4.192
46099W        W14429  43.413   8.747   0.823
46100W        W14430  32.515   2.864  14.758
46101W        W14431   7.404  27.987   2.693
46102W        W14432  33.549  36.001  14.930
46103W        W14433  40.401  10.643   2.700
46104W        W14434   7.187  16.088  13.475
46105W        W14435  13.155  35.858   9.952
46106W        W14436  17.187   6.284   3.749
46107W        W14437  14.315  20.239   3.830
46108W        W14438   0.484  19.043  14.315
46109W        W14439  39.372  25.571   0.295
46110W        W14440  36.844  25.649  11.601
46111W        W14441   1.764  13.330  13.419
46112W        W14442  11.324  10.637  11.399
46113W        W14443  22.098  14.686  12.088
46114W        W14444  35.423  29.953   0.931
46115W        W14445  11.171   9.751  11.018
46116W        W14446  24.168  22.532   3.221
46117W        W14447  34.521  32.017   1.393
46118W        W14448   7.840  13.175   1.850
46119W        W14449  10.782  14.702   2.270
46120W        W14450  39.508   3.300   0.748
46121W        W14451  36.491  16.658  11.551
46122W        W14452  44.923  41.331  12.461
46123W        W14453   7.853   5.751  11.479
46124W        W14454  29.015  22.510   0.365
46125W        W14455   3.360  13.724  10.930
46126W        W14456  44.353   4.306   1.762
46127W        W14457  19.241   2.370  13.418
46128W        W14458  28.022  24.557   1.389
46129W        W14459  32.000  29.087   4.629
46130W        W14460  17.764  23.574  10.605
46131W        W14461  12.745  10.827  14.489
46132W        W14462   2.443  15.578   4.831
46133W        W14463  27.652  12.295  10.596
46134W        W14464   8.347  22.087   1.378
46135W        W14465  10.878   9.746   4.700
46136W        W14466  15.137  38.925  10.449
46137W        W14467  20.171  33.907  11.589
46138W        W14468  42.441   6.737  10.977
46139W        W14469  20.173   1.248   1.379
46140W        W14470  10.769  16.622  11.086
46141W        W14471  29.549  11.325   3.274
46142W        W14472  11.271  16.126   2.242
46143W        W14473  29.016   4.307   3.829
46144W        W14474  27.689  37.976   0.749
46145W        W14475  32.486   5.337  12.078
46146W        W14476   4.271  36.043   2.874
46147W        W14477   4.735  23.122   0.316
46148W        W14478  23.677  15.294  10.952
46149W        W14479  28.503   8.347   4.136
46150W        W14480   6.203   1.774   3.657
46151W        W14481  21.133  44.487   0.913
46152W        W14482  43.916   9.795  11.891
46153W        W14483   0.475  35.070  12.830
46154W        W14484   0.463  21.657   2.239
46155W        W14485  25.985   9.746  13.493
46156W        W14486  34.969  36.884   3.224
46157W        W14487  17.177   8.278   4.711
46158W        W14488  37.547  41.910  10.893
46159W        W14489   4.336  32.589   3.660
46160W        W14490  22.611  29.608   4.740
46161W        W14491  37.397  19.088  10.641
46162W        W14492  25.702  30.094  11.020
46163W        W14493  44.353  28.672  12.422
46164W        W14494  14.690  27.651  12.077
46165W        W14495  13.113   7.737   1.719
46166W        W14496  32.620  26.593   1.325
46167W        W14497  12.690  33.073   1.340
46168W        W14498  28.519  34.104   0.413
46169W        W14499  22.509   9.844   2.880
46170W        W14500  12.238  15.655  11.905
46171W        W14501  36.089   0.341  14.328
46172W        W14502  23.649  20.557  13.824
46173W        W14503  26.519  42.848   3.774
46174W        W14504  35.529  26.101   3.210
46175W        W14505  28.136  43.873   4.238
46176W        W14506  28.957  20.040   3.305
46177W        W14507  26.033  26.018  13.916
46178W        W14508  28.108  18.122   4.659
46179W        W14509  35.082  20.244  14.435
46180W        W14510  11.753   1.952   4.176
46181W        W14511   8.756  27.050  14.290
46182W        W14512  35.456  17.590   1.384
46183W        W14513  21.694  34.917  10.939
46184W        W14514  19.605   3.260  11.523
46185W        W14515  41.385   1.970   2.214
46186W        W14516  17.696  10.794  12.004
46187W        W14517  12.148  32.574  11.421
46188W        W14518  38.568  20.566   1.852
46189W        W14519   7.820  35.365   3.195
46190W        W14520   4.425  38.903   5.109
46191W        W14521  20.156  33.569   0.302
46192W        W14522  35.540  25.995  13.319
46193W        W14523  17.590  34.928  13.478
46194W        W14524  31.094   9.648  12.055
46195W        W14525  26.154  15.627   0.967
46196W        W14526  12.778  25.002   4.177
46197W        W14527  19.126  24.115   4.702
46198W        W14528  43.391   0.914   2.848
46199W        W14529   9.775  34.061   0.806
46200W        W14530  20.562   7.711  10.426
46201W        W14531  25.591   2.407  14.287
46202W        W14532  13.619  32.536   4.690
46203W        W14533  20.733   6.905  14.934
46204W        W14534  21.092  43.393  13.389
46205W        W14535  20.714  17.205  12.904
46206W        W14536  30.427  21.077   4.608
46207W        W14537   6.270  31.927  10.914
46208W        W14538  21.638  20.200  14.900
46209W        W14539  15.668   2.726  13.531
46210W        W14540   8.380  32.093  10.993
46211W        W14541   7.783  25.598   3.825
46212W        W14542  40.952  28.039  12.095
46213W        W14543  36.547  12.785   0.303
46214W        W14544  19.111  31.613  14.895
46215W        W14545  20.116  35.032  14.460
46216W        W14546  11.277  32.412   2.696
46217W        W14547  18.236   4.428   3.306
46218W        W14548  29.484  39.027   1.258
46219W        W14549  17.185  24.102  11.057
46220W        W14550   0.864   9.199   1.274
46221W        W14551  14.645  28.671  13.330
46222W        W14552  32.470  40.911   2.782
46223W        W14553  40.363  44.843   0.262
46224W        W14554  30.413  28.964   4.670
46225W        W14555   4.240  18.217   4.183
46226W        W14556  33.385   3.936   4.271
46227W        W14557  23.543  31.147   2.691
46228W        W14558   7.236  21.017   0.456
46229W        W14559   8.876  27.941   3.802
46230W        W14560  14.299  18.606   0.727
46231W        W14561  33.031  42.298  12.925
46232W        W14562  27.147  32.410  12.409
46233W        W14563  19.629   2.321  13.981
46234W        W14564   5.353  32.396  12.904
46235W        W14565  34.417  41.375   4.695
46236W        W14566  37.494  21.136   0.872
46237W        W14567   5.929  23.582   4.328
46238W        W14568   2.777   6.861  14.792
46239W        W14569  15.790  22.212   3.204
46240W        W14570  23.236  33.109   1.438
46241W        W14571  37.071   5.379  12.007
46242W        W14572   7.684  32.936   1.278
46243W        W14573  12.825  42.885  11.511
46244W        W14574  42.338   8.871   4.236
46245W        W14575  32.060  42.308  14.281
46246W        W14576  36.842  32.118   4.766
46247W        W14577   9.159  20.660  10.546
46248W        W14578   5.386   9.319   3.644
46249W        W14579  36.987  18.653  14.795
46250W        W14580   8.403  31.483  12.868
46251W        W14581  27.623   9.672   4.669
46252W        W14582   6.827   3.930   1.375
46253W        W14583   8.209  25.598  11.113
46254W        W14584  23.668  33.055   1.736
46255W        W14585   9.856   7.280   4.180
46256W        W14586  18.286   6.870  12.976
46257W        W14587  29.169   7.305   3.634
46258W        W14588  29.988  37.959   3.693
46259W        W14589  42.788  44.356   0.336
46260W        W14590   4.858  40.431   2.761
46261W        W14591  42.481  22.509   4.127
46262W        W14592  14.333  33.618  14.330
46263W        W14593  11.747   0.971  11.124
46264W        W14594  12.345  39.054   3.161
46265W        W14595  21.123  26.573   5.118
46266W        W14596  23.632   5.866  11.036
46267W        W14597  36.479   7.238  14.295
46268W        W14598  39.008  23.023   0.899
46269W        W14599   8.819  18.662  12.073
46270W        W14600  21.715  27.105  13.842
46271W        W14601  34.973  44.830  11.453
46272W        W14602  34.465  14.185  12.372
46273W        W14603  27.070  28.009   2.278
46274W        W14604  24.071  41.816  11.055
46275W        W14605  24.543  14.645   4.132
46276W        W14606  15.261   1.283  12.046
46277W        W14607   8.301  21.086  14.332
46278W        W14608  44.809  20.674  11.951
46279W        W14609  41.382  37.432   3.812
46280W        W14610  30.523  11.220  10.945
46281W        W14611   8.400   1.831   0.839
46282W        W14612   6.367  42.408   4.131
46283W        W14613  32.969   4.276  14.885
46284W        W14614  17.241   8.755   4.218
46285W        W14615   3.923   9.794   4.711
46286W        W14616  12.683  36.939  14.026
46287W        W14617  39.856  10.304  10.613
46288W        W14618   6.923  44.281   3.806
46289W        W14619  23.635  44.428  14.781
46290W        W14620  38.049  24.992   3.684
46291W        W14621  20.238  10.781  14.030
46292W        W14622  23.583  14.111  12.454
46293W        W14623  19.098   3.840  11.094
46294W        W14624  28.968  34.390  10.160
46295W        W14625  24.202   4.840  12.067
46296W        W14626  24.181  38.331   4.213
46297W        W14627   0.258  14.647  14.387
46298W        W14628   2.879  17.693   0.920
46299W        W14629  29.483  22.999  12.883
46300W        W14630   4.274   9.770   2.844
46301W        W14631  33.577   1.869   0.296
46302W        W14632  37.414  26.172  11.602
46303W        W14633  39.397   6.309   9.951
46304W        W14634  40.879   1.775  10.422
46305W        W14635   5.771   3.751   2.750
46306W        W14636   5.724  30.085   3.207
46307W        W14637  39.012   4.839  11.032
46308W        W14638   8.779   6.873  13.530
46309W        W14639  31.518   6.341  11.092
46310W        W14640  31.990  16.243  10.500
46311W        W14641  20.731  22.128  14.985
46312W        W14642  16.638  19.116  12.390
46313W        W14643  29.960  37.045  13.408
46314W        W14644  21.121  10.701  10.978
46315W        W14645   6.358  37.084   1.396
46316W        W14646   4.240  25.605   4.828
46317W        W14647   2.350  38.456   9.932
46318W        W14648  30.433  15.324  10.443
46319W        W14649  35.917   6.767   2.900
46320W        W14650  14.597   2.453  14.888
46321W        W14651  37.966  38.383  11.380
46322W        W14652   2.227   1.802  13.312
46323W        W14653   1.939  22.705   3.864
46324W        W14654   0.890  31.897  14.515
46325W        W14655  17.208  31.559  12.838
46326W        W14656  10.303  43.451  12.485
46327W        W14657  21.213  37.514   5.301
46328W        W14658  24.189  32.139  14.487
46329W        W14659  41.035  22.223  11.454
46330W        W14660  37.486  36.567  11.561
46331W        W14661  28.483   2.927  14.350
46332W        W14662   4.844  43.290   4.804
46333W        W14663  10.248  29.063  11.103
46334W        W14664  27.686  37.871   2.781
46335W        W14665  18.620   7.857  12.910
46336W        W14666  27.993  42.858  11.115
46337W        W14667  24.672  23.181   1.884
46338W        W14668  25.063  22.558  12.044
46339W        W14669  37.057  34.878  12.995
46340W        W14670  15.616  29.564   0.435
46341W        W14671   5.694  31.004  14.822
46342W        W14672   4.212  30.644   4.717
46343W        W14673   5.226  30.591  10.475
46344W        W14674  29.094  15.180  14.986
46345W        W14675  13.609   4.401   1.224
46346W        W14676  44.843  37.860  11.394
46347W        W14677  41.023  38.885   1.332
46348W        W14678  18.120  37.502   4.795
46349W        W14679  17.631  44.472   4.812
46350W        W14680  31.438  29.096   0.899
46351W        W14681  28.945  17.705  14.887
46352W        W14682  42.464  35.890  13.930
46353W        W14683  31.588  44.975   0.835
46354W        W14684  44.410  30.056  11.589
46355W        W14685  14.320  15.708   3.297
46356W        W14686  15.812   5.213   3.734
46357W        W14687   4.427  44.482  12.915
46358W        W14688  11.357  21.232  12.866
46359W        W14689  29.098  35.039   1.239
46360W        W14690  20.057  14.648  13.949
46361W        W14691  19.746  25.014   4.200
46362W        W14692  42.028  18.233   3.642
46363W        W14693   7.403  11.768  14.335
46364W        W14694  34.057   7.887  13.848
46365W        W14695  28.461  44.456   3.378
46366W        W14696  33.620  38.511   2.310
46367W        W14697  18.614  23.120   3.741
46368W        W14698   6.681   8.660   1.874
46369W        W14699  44.959  36.364   2.820
46370W        W14700  10.660   1.363  11.457
46371W        W14701  32.519  33.492   4.618
46372W        W14702   1.744  30.600  13.512
46373W        W14703  39.389  42.921  10.967
46374W        W14704  19.554  30.018   3.853
46375W        W14705  42.433   4.739  14.909
46376W        W14706  42.924  30.625  14.437
46377W        W14707  41.988   5.221   1.880
46378W        W14708  37.076  11.328  14.944
46379W        W14709  43.338  30.989   4.308
46380W        W14710  31.993   3.843   0.962
46381W        W14711   4.750  37.364  13.523
46382W        W14712   3.356  38.849   0.305
46383W        W14713  25.468   2.339   0.262
46384W        W14714   7.321   3.395  10.139
46385W        W14715  32.056  21.536   3.781
46386W        W14716   7.711  23.504  12.981
46387W        W14717   8.837   1.371   1.926
46388W        W14718  34.985  28.051  10.521
46389W        W14719  44.797  25.684   4.237
46390W        W14720   1.759   1.329  13.537
46391W        W14721  17.560   7.269  11.575
46392W        W14722  31.937  10.798   4.740
46393W        W14723  39.925  24.175  11.518
46394W        W14724  33.984  36.482  14.873
46395W        W14725  26.129   7.878  14.987
46396W        W14726   5.786  42.997   1.811
46397W        W14727  34.035   0.292  11.120
46398W        W14728  33.453  17.140   9.978
46399W        W14729   9.156  12.264   3.280
46400W        W14730   7.678   1.267  11.064
46401W        W14731  29.973   8.862   2.716
46402W        W14732  39.842   8.240  10.909
46403W        W14733  31.909  25.511   3.727
46404W        W14734  13.746  38.874  13.351
46405W        W14735  28.442  10.726   5.790
46406W        W14736  19.649   3.737  14.809
46407W        W14737  23.059  25.541  12.919
46408W        W14738  26.090  39.044  13.448
46409W        W14739  13.672  21.637  10.613
46410W        W14740  18.545   5.396  11.096
46411W        W14741  13.705  36.037   3.633
46412W        W14742  34.612  16.074   0.412
46413W        W14743  31.098  31.584   1.711
46414W        W14744   7.737   5.797  10.959
46415W        W14745  17.584  16.579   0.420
46416W        W14746   8.796  20.219  14.963
46417W        W14747   1.474  20.574   2.236
46418W        W14748  35.380  32.457  12.941
46419W        W14749  38.981  19.570   1.358
46420W        W14750   8.300   3.949   0.866
46421W        W14751  28.157  10.677  14.453
46422W        W14752  22.725  21.216   2.878
46423W        W14753  15.250  34.986  10.603
46424W        W14754  24.127   8.794   9.928
46425W        W14755  24.483   8.657   1.308
46426W        W14756   6.922  33.544  14.375
46427W        W14757  37.388  15.325   1.231
46428W        W14758  37.512   5.930  11.125
46429W        W14759  19.114  35.451   3.710
46430W        W14760   7.756  38.948   4.251
46431W        W14761  20.713  16.702   4.198
46432W        W14762  16.291   2.804   4.352
46433W        W14763  17.623  18.195  12.531
46434W        W14764  31.952  10.757  14.902
46435W        W14765  33.481   6.270   1.715
46436W        W14766   3.336  13.194   0.420
46437W        W14767   5.807   0.886   2.236
46438W        W14768   9.697  39.045   3.379
46439W        W14769  11.335  25.129   1.738
46440W        W14770  22.149  33.050   1.781
46441W        W14771  38.462   2.363  14.960
46442W        W14772  21.037  17.151   1.924
46443W        W14773  41.310  34.472   4.243
46444W        W14774   7.696  37.055   0.831
46445W        W14775  21.681  28.941   0.955
46446W        W14776   3.839   8.206  12.570
46447W        W14777  20.241  15.127   4.797
46448W        W14778  12.361  29.629   1.838
46449W        W14779  27.566  42.350   3.155
46450W        W14780   9.712   0.420   4.280
46451W        W14781  12.667  40.844   3.220
46452W        W14782   6.237  42.314   0.885
46453W        W14783  20.692  14.103   1.836
46454W        W14784  33.431   7.256   3.778
46455W        W14785  40.423  11.665  13.979
46456W        W14786  34.601  35.389  14.440
46457W        W14787  13.171  25.090   5.275
46458W        W14788   7.735  15.317   4.616
46459W        W14789  23.623  35.486  14.879
46460W        W14790  36.542  40.406  12.989
46461W        W14791  19.092  12.317  12.551
46462W        W14792  38.392  12.130   1.299
46463W        W14793  26.160   6.417  13.311
46464W        W14794  42.000  19.602  13.020
46465W        W14795  22.662  17.785  14.836
46466W        W14796   2.309  26.562   5.273
46467W        W14797   3.869  11.655  12.944
46468W        W14798  10.272   7.804  11.984
46469W        W14799  41.944  10.671   0.818
46470W        W14800  29.073  16.685  10.561
46471W        W14801  17.143  15.655   9.920
46472W        W14802  10.333  11.320   4.714
46473W        W14803  28.169  14.829  12.957
46474W        W14804  27.109  39.396   0.418
46475W        W14805  14.691   3.429  13.917
46476W        W14806  15.646  38.374   0.435
46477W        W14807  36.434  32.563  11.539
46478W        W14808  23.999   7.687   4.662
46479W        W14809  20.196  42.015  14.482
46480W        W14810  41.885  21.129   0.782
46481W        W14811  25.177  26.588   0.270
46482W        W14812  42.282  33.504   3.673
46483W        W14813   5.878  31.538   2.381
46484W        W14814   9.698  29.160   3.332
46485W        W14815  12.141  16.264   1.786
46486W        W14816  21.163  42.883   3.378
46487W        W14817  24.499   8.309   4.182
46488W        W14818   8.782   2.243  12.344
46489W        W14819  22.538  23.142   4.761
46490W        W14820  43.306  33.415   4.737
46491W        W14821  39.823  16.106   1.258
46492W        W14822  25.033  32.921  11.119
46493W        W14823  16.109  19.228  13.882
46494W        W14824  42.835  43.328  14.381
46495W        W14825  27.641  40.383   4.201
46496W        W14826  30.422  19.707  12.429
46497W        W14827  34.880  15.765  14.796
46498W        W14828  34.479  41.318  14.438
46499W        W14829   9.362   1.873   0.405
46500W        W14830  23.604  17.106  10.601
46501W        W14831  39.552  36.348   1.731
46502W        W14832  20.544  41.410   4.164
46503W        W14833  33.072  37.574  10.559
46504W        W14834  31.454  40.527   1.784
46505W        W14835  16.697  11.371   3.287
46506W        W14836  34.544  32.450  14.447
46507W        W14837  12.802  37.377   3.675
46508W        W14838  37.974  23.732   2.397
46509W        W14839   6.738  15.710  10.633
46510W        W14840  22.514  14.806   1.307
46511W        W14841  38.883  43.366   4.116
46512W        W14842  19.766  23.698   0.454
46513W        W14843  27.062  38.368  13.813
46514W        W14844   4.752  31.637  10.527
46515W        W14845  12.774   9.687   3.183
46516W        W14846  33.941  32.067   4.236
46517W        W14847  14.179  22.591  10.409
46518W        W14848   2.841   3.937  14.419
46519W        W14849  42.309  25.637  12.556
46520W        W14850  13.771  22.250  11.088
46521W        W14851   1.478  27.052   0.909
46522W        W14852  11.261  31.067   3.785
46523W        W14853  30.963  29.035  10.508
46524W        W14854  42.522  13.774  11.972
46525W        W14855  20.580  26.013   2.699
46526W        W14856   1.741  38.419  14.294
46527W        W14857   5.435  29.154   1.310
46528W        W14858  35.583  21.112  13.796
46529W        W14859  39.443  14.215  11.885
46530W        W14860  31.096   3.448  14.305
46531W        W14861  11.355  33.927  10.956
46532W        W14862  38.468  43.993   3.642
46533W        W14863  18.739  39.046  12.916
46534W        W14864   7.284  40.493   2.304
46535W        W14865  30.989  40.388   1.237
46536W        W14866  26.627  33.014   2.232
46537W        W14867  40.799  21.127  11.597
46538W        W14868  20.682  31.909   5.183
46539W        W14869  16.809  32.491  10.933
46540W        W14870  38.347  11.689  12.900
46541W        W14871   4.308   8.834  14.322
46542W        W14872  24.165  43.879  12.570
46543W        W14873  15.624  18.268   3.271
46544W        W14874  43.768  32.574   0.347
46545W        W14875  41.038  12.357   4.761
46546W        W14876  26.094  29.572  11.594
46547W        W14877  31.556  40.537   3.342
46548W        W14878  25.540   1.791   4.743
46549W        W14879  24.592  27.583  10.593
46550W        W14880  11.682  26.099  11.018
46551W        W14881  20.035   7.232   3.861
46552W        W14882  17.174   1.950   4.706
46553W        W14883  28.969   7.387  13.817
46554W        W14884  27.478  44.328  10.407
46555W        W14885  30.054  35.507   1.844
46556W        W14886  13.261  41.030  14.899
46557W        W14887  34.977   0.443  13.318
46558W        W14888  44.833  44.302  13.791
46559W        W14889  19.596  23.112  10.643
46560W        W14890  32.061   9.797   4.345
46561W        W14891  32.452  21.262   1.359
46562W        W14892  24.086  17.148  13.409
46563W        W14893  26.490  14.591   1.805
46564W        W14894  29.617  13.114   3.733
46565W        W14895  29.937  30.486   1.922
46566W        W14896  19.072  35.967   4.291
46567W        W14897  21.160  42.982  13.363
46568W        W14898  29.487  18.167  12.357
46569W        W14899  13.343  32.107  13.978
46570W        W14900  36.042  40.409  14.385
46571W        W14901  33.402  11.209  12.506
46572W        W14902  34.113  32.950   4.259
46573W        W14903  33.559  42.334   0.301
46574W        W14904  39.916   2.462  10.548
46575W        W14905   1.307  34.603  10.529
46576W        W14906  41.962  33.960   0.888
46577W        W14907   1.919  32.973  11.856
46578W        W14908  15.216  39.016  11.450
46579W        W14909  32.422  30.948  11.932
46580W        W14910  23.651  26.204  11.093
46581W        W14911  34.898  42.848  10.934
46582W        W14912   1.350  13.155  10.412
46583W        W14913  11.799  16.119  12.497
46584W        W14914  20.640  44.777   2.400
46585W        W14915  25.620   4.233  11.876
46586W        W14916   9.860  41.400  11.900
46587W        W14917  16.700  13.818   1.364
46588W        W14918   1.256   5.202  10.513
46589W        W14919  33.529  26.585  12.022
46590W        W14920  17.665  35.581   0.257
46591W        W14921   7.319   0.398   0.956
46592W        W14922  36.890  15.110  13.351
46593W        W14923  28.156  23.517  14.413
46594W        W14924   8.202   8.708  14.378
46595W        W14925   8.218  14.618   3.768
46596W        W14926  17.129  26.505   0.797
46597W        W14927  27.637  41.502   4.247
46598W        W14928  26.057   2.738   2.361
46599W        W14929  14.752  18.250  14.436
46600W        W14930  25.962  30.496  11.468
46601W        W14931  39.417  33.582  14.977
46602W        W14932  20.211  14.297  13.834
46603W        W14933  34.453   2.845  11.902
46604W        W14934   4.791  28.112  11.469
46605W        W14935  11.238   2.760  13.541
46606W        W14936  24.117  37.933   4.179
46607W        W14937  34.507   4.305  11.436
46608W        W14938  35.001  18.623  13.416
46609W        W14939  29.951  28.652  13.507
46610W        W14940  22.674  40.485   3.277
46611W        W14941   9.793   2.238  14.975
46612W        W14942  22.031  29.525   2.837
46613W        W14943  15.147  40.849   1.380
46614W        W14944   6.411  23.611   0.387
46615W        W14945  44.930  18.056   4.295
46616W        W14946  32.072   9.300  11.465
46617W        W14947   4.740  12.165   4.332
46618W        W14948  25.695  18.750  13.915
46619W        W14949   8.801  27.503  13.391
46620W        W14950   5.326   9.721   4.270
46621W        W14951  36.002  14.748   3.754
46622W        W14952  28.186  28.543  14.412
46623W        W14953  37.417  34.535   1.403
46624W        W14954  40.383  44.404   1.270
46625W        W14955  30.141  20.756  13.527
46626W        W14956   4.404  33.093   4.147
46627W        W14957   9.335  33.109  11.869
46628W        W14958  19.044  38.950  10.417
46629W        W14959  19.776   1.842  11.978
46630W        W14960  10.740  10.635  12.049
46631W        W14961   9.308  18.296  13.994
46632W        W14962  35.514  21.755  11.038
46633W        W14963   7.885  37.973  12.441
46634W        W14964  16.725  23.104   1.931
46635W        W14965  17.563  23.672   0.471
46636W        W14966  27.555  40.038  14.284
46637W        W14967  16.125  10.202  12.832
46638W        W14968  27.598  24.227   1.220
46639W        W14969  21.164  29.468   3.642
46640W        W14970  41.893  26.599   4.132
46641W        W14971  39.526  28.624  14.008
46642W        W14972   0.922  17.073  12.079
46643W        W14973  27.519  34.504   2.712
46644W        W14974  38.530  40.537   4.251
46645W        W14975  24.567  14.178   0.249
46646W        W14976  37.347  31.519  12.016
46647W        W14977  41.416  24.976  11.912
46648W        W14978  17.796  34.444   1.922
46649W        W14979  19.085  20.729   3.267
46650W        W14980  41.436   7.198   0.851
46651W        W14981  36.407  29.664  11.050
46652W        W14982  42.503  24.576   0.408
46653W        W14983   5.776  16.773   0.461
46654W        W14984  30.912  15.160   0.815
46655W        W14985  40.353  17.609  13.041
46656W        W14986  15.806   7.269  11.121
46657W        W14987   2.322   2.862  14.296
46658W        W14988  11.711  42.388  13.816
46659W        W14989  12.748   8.333   2.808
46660W        W14990  36.903  12.313   2.240
46661W        W14991  19.193  30.509  10.531
46662W        W14992  11.170  18.137   4.693
46663W        W14993   4.824  31.425   2.889
46664W        W14994  40.506  15.820  11.475
46665W        W14995  44.299   4.785   3.747
46666W        W14996  25.009  13.618   0.290
46667W        W14997  37.018  20.168  13.355
46668W        W14998  40.421  30.972   0.401
46669W        W14999   6.719   7.326  13.933
46670W        W15000   0.961  11.640  13.446
46671W        W15001  21.027   5.389  14.853
46672W        W15002  30.585  14.824   4.174
46673W        W15003   8.268   6.738   1.816
46674W        W15004  10.871   3.260  13.791
46675W        W15005   9.378  15.691  10.517
46676W        W15006  19.605   4.416   4.150
46677W        W15007   1.942  36.892   9.568
46678W        W15008   4.331  40.859   1.785
46679W        W15009  11.153   7.384  12.547
46680W        W15010  20.663  36.915   4.742
46681W        W15011  40.852   8.165  14.387
46682W        W15012  21.713  22.633   0.341
46683W        W15013  40.044   4.279   3.239
46684W        W15014  19.200  33.014  13.458
46685W        W15015  23.988  13.123  13.901
46686W        W15016  40.885  34.038   1.794
46687W        W15017  39.920   4.439  13.836
46688W        W15018  44.961  33.979   1.716
46689W        W15019   7.395  33.963  10.531
46690W        W15020  35.545  37.561  14.431
46691W        W15021  12.163   8.659   3.698
46692W        W15022  40.506   2.905   1.349
46693W        W15023  29.480  28.617  13.336
46694W        W15024  11.857  43.895  11.923
46695W        W15025   2.895  30.960   3.806
46696W        W15026  29.585   0.766   0.382
46697W        W15027   0.928  18.217   5.106
46698W        W15028  10.371  38.014   1.295
46699W        W15029  40.491  44.375  13.013
46700W        W15030   1.280  23.085   3.367
46701W        W15031  31.919  36.982  13.497
46702W        W15032  33.016   5.262   2.809
46703W        W15033   1.757  31.025   0.859
46704W        W15034  25.155  12.140   2.357
46705W        W15035  41.992   8.160   2.663
46706W        W15036  34.043  23.196  13.534
46707W        W15037   9.301   2.847   3.154
46708W        W15038  43.426  14.274  14.838
46709W        W15039   4.735   8.260  12.062
46710W        W15040  11.195  40.490   2.366
46711W        W15041   8.729   0.489  14.348
46712W        W15042  28.992  29.670   3.863
46713W        W15043   0.324  36.012   4.721
46714W        W15044  41.833  20.081  11.863
46715W        W15045  16.273  21.567  14.321
46716W        W15046  42.306  32.908   2.278
46717W        W15047  19.208   8.657   2.728
46718W        W15048  20.524  28.964   0.346
46719W        W15049  33.064  16.261  13.866
46720W        W15050  35.886   3.219  11.861
46721W        W15051  36.068  13.668  14.873
46722W        W15052  29.468   2.966   1.355
46723W        W15053  17.090  31.431  12.483
46724W        W15054   7.396  39.928   1.295
46725W        W15055  41.377  18.289  13.902
46726W        W15056  43.427  41.414   0.349
46727W        W15057   2.747   0.884  12.546
46728W        W15058  41.433  33.076   0.347
46729W        W15059  18.288  35.361   1.813
46730W        W15060   3.825   8.785  13.510
46731W        W15061  40.992  28.613  12.059
46732W        W15062  44.976  28.472   2.294
46733W        W15063  34.473  44.433  12.522
46734W        W15064  25.581  33.504  10.505
46735W        W15065  24.106  28.618   2.851
46736W        W15066  34.592  31.978  12.479
46737W        W15067  26.146   6.203   3.339
46738W        W15068   3.343  35.408   4.346
46739W        W15069  31.547  32.942   3.727
46740W        W15070  44.805   8.786   1.244
46741W        W15071  43.492   1.867  14.998
46742W        W15072   9.889  39.341   3.171
46743W        W15073  15.599  37.086  13.468
46744W        W15074  31.039  41.328  10.156
46745W        W15075  25.119  23.111   2.237
46746W        W15076  39.404  21.711   2.842
46747W        W15077   6.908  17.635   3.775
46748W        W15078  12.138  31.137  10.621
46749W        W15079  29.966  42.422   0.856
46750W        W15080  11.654  44.264   0.467
46751W        W15081  21.535  32.104  13.507
46752W        W15082  37.922  32.469  13.353
46753W        W15083   7.796  19.740   0.372
46754W        W15084  14.633   4.857  10.586
46755W        W15085   3.740  39.345   2.232
46756W        W15086  29.998   9.705  10.460
46757W        W15087  26.968  13.804  11.114
46758W        W15088  42.805  34.397   2.682
46759W        W15089  26.586  15.578   0.811
46760W        W15090   8.175  22.213  14.990
46761W        W15091   6.350  38.832  12.966
46762W        W15092  10.722  19.206  11.414
46763W        W15093  23.514  27.657  12.868
46764W        W15094  22.229  17.694   4.279
46765W        W15095   6.356   3.762  11.382
46766W        W15096   4.833  15.768   1.299
46767W        W15097   8.746  42.468  12.959
46768W        W15098  11.213  17.087   2.708
46769W        W15099  22.543  25.186   2.393
46770W        W15100  33.017  14.260  13.866
46771W        W15101  19.655  14.310  12.856
46772W        W15102  41.004  17.302   2.274
46773W        W15103   6.881   9.881  14.297
46774W        W15104  41.406  25.000  13.344
46775W        W15105  35.584  34.918   2.373
46776W        W15106  24.012   4.699   1.883
46777W        W15107  21.742  22.237  14.288
46778W        W15108  38.876  13.331   1.376
46779W        W15109  25.994  12.739  13.805
46780W        W15110  31.443  30.957   1.728
46781W        W15111   2.369  11.764  11.057
46782W        W15112  15.294  32.409   0.846
46783W        W15113  27.945  34.017   5.601
46784W        W15114  39.055  44.372   3.343
46785W        W15115  18.760   4.291  12.431
46786W        W15116  42.403   4.919   4.613
46787W        W15117  34.973  18.268  11.481
46788W        W15118  27.544  11.187  12.914
46789W        W15119  36.042   5.372  14.389
46790W        W15120   6.233  39.951   4.786
46791W        W15121  42.333   8.231   1.698
46792W        W15122  16.194   9.850  12.475
46793W        W15123  27.523  39.505  13.856
46794W        W15124  17.184  12.272  14.301
46795W        W15125  28.062  17.758  10.465
46796W        W15126  40.431   3.414   4.137
46797W        W15127  41.436  24.227  13.996
46798W        W15128  23.048   1.367  14.943
46799W        W15129   8.169  20.256  14.457
46800W        W15130  19.554  13.138  14.865
46801W        W15131  13.127  20.048   1.287
46802W        W15132  44.399   6.421  12.405
46803W        W15133  33.503   2.400   3.237
46804W        W15134   0.398  32.141   1.881
46805W        W15135   2.465  21.552   3.162
46806W        W15136  39.532  20.686  10.610
46807W        W15137  31.137   8.283   0.756
46808W        W15138   5.253  20.575   4.199
46809W        W15139  13.719  16.189   0.824
46810W        W15140  33.604   5.216   0.904
46811W        W15141  13.779   2.773   3.785
46812W        W15142  23.562   8.314  11.412
46813W        W15143   5.227  26.515   2.716
46814W        W15144  43.966   6.207  13.860
46815W        W15145  15.096  24.119  14.823
46816W        W15146  27.021   5.899   1.817
46817W        W15147  40.998  11.129  12.577
46818W        W15148  13.285   9.781   4.653
46819W        W15149   2.429  34.603  11.118
46820W        W15150   6.281  42.427  13.424
46821W        W15151  37.355  37.374   0.745
46822W        W15152  35.921   5.742  13.847
46823W        W15153  23.038   6.775  14.017
46824W        W15154   3.740  23.077  14.028
46825W        W15155  26.996  35.969  14.978
46826W        W15156  29.976  40.818  13.937
46827W        W15157   1.803  36.501  10.623
46828W        W15158  18.179  29.933   4.718
46829W        W15159  33.884  25.611  12.444
46830W        W15160  14.167  32.957   1.376
46831W        W15161  22.672  19.543   1.336
46832W        W15162  37.362   7.275   3.748
46833W        W15163   9.173  20.215  14.029
46834W        W15164   9.154  29.147   2.893
46835W        W15165  30.427  11.147  12.957
46836W        W15166  11.188  27.583  11.097
46837W        W15167  14.654  44.488  14.281
46838W        W15168  31.968  32.942   4.113
46839W        W15169  35.403   5.430   3.680
46840W        W15170  43.006  15.326  10.523
46841W        W15171  33.984  12.269   0.729
46842W        W15172  20.043  39.900   3.648
46843W        W15173  34.934  15.734  11.088
46844W        W15174  28.183  15.771   4.250
46845W        W15175  10.664  27.556   2.187
46846W        W15176  31.903  39.488   4.336
46847W        W15177  39.402  10.761  13.822
46848W        W15178  38.423  19.199  14.337
46849W        W15179  29.534  12.806  10.006
46850W        W15180  31.908   2.389  13.513
46851W        W15181  16.792   6.304   2.776
46852W        W15182  33.563  21.217   4.234
46853W        W15183   9.830  18.245   0.365
46854W        W15184   0.317  21.620   4.348
46855W        W15185  42.312  18.154   0.449
46856W        W15186  11.712  17.136  13.841
46857W        W15187  35.964  11.678  11.527
46858W        W15188  39.895  30.133  14.386
46859W        W15189  20.089  20.714   3.283
46860W        W15190   2.764  22.619   2.416
46861W        W15191  12.355  10.307   1.830
46862W        W15192  13.251  21.519   3.317
46863W        W15193   4.253  20.083   1.247
46864W        W15194  29.990  10.357   3.302
46865W        W15195  17.661  12.201  14.975
46866W        W15196  34.475   9.161   0.359
46867W        W15197  42.466  21.049  11.465
46868W        W15198  28.949  40.514   2.270
46869W        W15199  31.532  39.013  12.460
46870W        W15200   6.383  26.997   4.731
46871W        W15201  31.491  41.347  14.317
46872W        W15202  40.319  19.078   1.865
46873W        W15203  37.926  14.245  11.013
46874W        W15204  13.267  41.900  11.532
46875W        W15205  43.986  27.538   0.459
46876W        W15206   0.899  41.927  12.065
46877W        W15207  40.537   8.723  10.433
46878W        W15208  42.907  24.221  14.941
46879W        W15209  38.347  30.596  14.811
46880W        W15210  24.627  36.511   0.802
46881W        W15211   4.434  13.244  11.915
46882W        W15212  20.239  44.363   1.805
46883W        W15213  35.379  37.507   2.366
46884W        W15214  11.678   4.283   4.604
46885W        W15215  41.887  25.058  10.521
46886W        W15216  16.627  14.284   0.785
46887W        W15217  33.050  10.271   4.173
46888W        W15218   2.375  14.279  10.934
46889W        W15219  27.547  15.169  13.333
46890W        W15220  23.686  37.495   0.755
46891W        W15221  35.426  14.316  11.423
46892W        W15222  31.499  18.150   4.618
46893W        W15223   1.965  29.669   2.721
46894W        W15224  28.995  12.671  14.499
46895W        W15225  19.241  29.156   0.763
46896W        W15226   5.845  41.429   2.185
46897W        W15227   2.860   3.354  13.795
46898W        W15228  34.072  15.102   2.248
46899W        W15229   6.318   0.830   4.145
46900W        W15230   9.292  22.045   4.231
46901W        W15231  34.931  21.051  12.060
46902W        W15232  26.205  28.550  14.464
46903W        W15233  36.543  18.181   2.898
46904W        W15234  40.338  23.194  11.055
46905W        W15235  44.454  39.396   0.312
46906W        W15236  27.990  28.083  12.514
46907W        W15237  37.490  13.807   0.866
46908W        W15238   3.750   9.253   1.798
46909W        W15239  31.097   7.762   1.370
46910W        W15240  19.758  34.000   4.668
46911W        W15241  39.540  16.671  10.458
46912W        W15242  13.642  32.408  12.484
46913W        W15243   4.758  33.893  14.780
46914W        W15244   3.295  38.470   4.142
46915W        W15245  10.212  24.525  13.515
46916W        W15246   9.820  16.706  10.932
46917W        W15247   0.921   2.376  14.971
46918W        W15248  33.886   5.274  13.861
46919W        W15249  20.581   3.950  13.811
46920W        W15250   9.780  37.081   4.714
46921W        W15251  29.929   6.420  11.863
46922W        W15252  33.618  22.133  10.037
46923W        W15253  35.400  35.012   4.209
46924W        W15254   8.803  33.984  14.285
46925W        W15255   6.833  12.199   2.889
46926W        W15256  38.058  12.770   3.685
46927W        W15257  19.579  17.162  10.633
46928W        W15258  22.534  17.082   4.613
46929W        W15259  18.228  23.238  12.084
46930W        W15260  17.300  21.579   2.722
46931W        W15261  39.054  27.490  11.385
46932W        W15262  19.146  28.186  10.983
46933W        W15263  12.359  36.846   4.768
46934W        W15264  38.921  40.002  13.946
46935W        W15265   9.738  39.541  14.972
46936W        W15266  40.435  34.867  14.945
46937W        W15267  14.116   2.883   1.776
46938W        W15268  19.708  37.047   0.243
46939W        W15269  37.040  16.576  14.439
46940W        W15270  16.677  35.435  12.845
46941W        W15271  44.775  15.649   3.665
46942W        W15272  14.290  42.852   3.675
46943W        W15273  26.072  35.973   1.727
46944W        W15274   8.192  43.804  10.548
46945W        W15275   2.843  30.140   4.706
46946W        W15276  25.516  10.642   3.633
46947W        W15277  29.101  16.768   3.284
46948W        W15278   8.315  18.134  11.588
46949W        W15279  25.613  29.484   1.719
46950W        W15280  32.513   8.324   2.781
46951W        W15281  33.556  33.068  11.085
46952W        W15282  28.993  30.136  14.334
46953W        W15283  28.171  35.026   0.923
46954W        W15284  23.013  39.976  11.126
46955W        W15285  27.533  38.422   4.163
46956W        W15286   8.837  21.600  10.997
46957W        W15287  36.933  24.720  14.953
46958W        W15288   9.163  28.466  13.544
46959W        W15289  27.447  35.399   1.337
46960W        W15290  44.375  37.915   4.151
46961W        W15291  27.054  12.126   2.248
46962W        W15292  10.698  39.389  14.028
46963W        W15293   2.289  36.047   1.869
46964W        W15294  22.726  37.852   4.617
46965W        W15295  18.070  23.185   9.494
46966W        W15296  13.766  14.188   4.198
46967W        W15297   0.783  12.645  13.836
46968W        W15298  34.905  34.423  12.840
46969W        W15299  30.024  14.162  13.856
46970W        W15300  37.369  19.613  10.454
46971W        W15301  13.257   7.738   1.273
46972W        W15302  36.001   2.933   2.902
46973W        W15303  34.550  43.355   0.309
46974W        W15304  29.428  43.911   0.786
46975W        W15305  11.154  15.764  11.380
46976W        W15306  26.062  23.049  11.886
46977W        W15307  34.449  12.157   2.892
46978W        W15308   8.340   6.819   2.322
46979W        W15309  44.412  16.700  12.076
46980W        W15310   3.262   3.377   4.742
46981W        W15311   2.799  11.668   2.242
46982W        W15312  28.533  36.469  11.407
46983W        W15313   7.348  16.127  14.998
46984W        W15314   5.213  16.720   2.881
46985W        W15315  42.288  14.816   3.771
46986W        W15316   2.226  37.373  10.511
46987W        W15317  33.468   8.758  10.473
46988W        W15318  38.387  16.619  13.424
46989W        W15319  44.780  17.061   3.357
46990W        W15320  10.171  27.543  10.575
46991W        W15321  33.523   0.262   4.257
46992W        W15322  21.635  29.023   1.731
46993W        W15323   7.754   1.911  11.593
46994W        W15324  10.220  43.879  10.895
46995W        W15325  15.241  14.646   2.817
46996W        W15326  34.993  13.246   2.313
46997W        W15327  10.653  42.292  11.453
46998W        W15328  16.576  22.577  14.445
46999W        W15329   2.371  42.831   0.328
47000W        W15330  19.685   8.672   4.323
47001W        W15331  36.479  12.748  13.877
47002W        W15332  42.775  40.921  14.830
47003W        W15333  19.098  35.517   0.318
47004W        W15334  18.641   8.891  10.001
47005W        W15335   2.723   7.403  10.529
47006W        W15336   2.322  24.557   4.201
47007W        W15337   0.379   3.279  12.963
47008W        W15338  12.664  37.464  14.340
47009W        W15339  11.299  20.598  13.063
47010W        W15340  29.094  25.045  13.801
47011W        W15341  13.298   5.902   1.697
47012W        W15342   8.724   4.429  12.553
47013W        W15343   1.832  27.048  12.561
47014W        W15344  38.363  39.495   3.284
47015W        W15345   0.780  39.454   3.188
47016W        W15346  39.350  35.572  13.048
47017W        W15347   0.475   6.804  11.516
47018W        W15348   5.315  34.878   1.240
47019W        W15349  35.938  27.988   0.449
47020W        W15350  12.150  17.713  12.039
47021W        W15351  25.197  33.505   4.221
47022W        W15352  21.088  24.145   3.716
47023W        W15353  31.610   7.216  13.948
47024W        W15354  28.576  37.861  13.048
47025W        W15355  16.674   0.447   3.715
47026W        W15356  30.119  34.991  14.914
47027W        W15357  23.105  38.073  13.509
47028W        W15358  21.589  12.220  13.523
47029W        W15359  17.688  11.321  13.891
47030W        W15360  25.090  37.501   1.870
47031W        W15361  40.888  37.905  12.844
47032W        W15362  12.238  41.963   1.330
47033W        W15363  16.100  26.135  13.366
47034W        W15364  31.645  11.196   1.412
47035W        W15365  10.875  37.403   2.670
47036W        W15366   3.416  44.287   4.616
47037W        W15367  34.580  21.061  13.971
47038W        W15368  37.473  20.747  14.471
47039W        W15369  25.483  26.543  13.466
47040W        W15370  22.744   8.282  12.410
47041W        W15371  17.063   4.264   1.337
47042W        W15372  21.232   7.791   1.819
47043W        W15373  43.289  15.089  11.060
47044W        W15374   4.810  11.330   0.413
47045W        W15375  40.489   0.812  13.832
47046W        W15376  30.154  43.375  13.481
47047W        W15377  28.100  14.141  12.097
47048W        W15378  13.339   6.192  14.765
47049W        W15379  13.738  19.070   3.816
47050W        W15380  28.441  16.201   4.256
47051W        W15381  33.996   5.710   2.402
47052W        W15382  24.672  43.776  11.890
47053W        W15383  22.525  26.006   2.861
47054W        W15384  14.680   8.377   3.700
47055W        W15385   1.772  12.329   3.647
47056W        W15386  42.869  10.237   3.697
47057W        W15387  17.600  11.786  14.372
47058W        W15388  19.563  23.613   2.728
47059W        W15389   1.813  22.111  11.387
47060W        W15390  10.823  15.254  12.823
47061W        W15391  37.944   6.708  11.393
47062W        W15392  37.861  18.117  13.514
47063W        W15393  12.333  36.484   1.727
47064W        W15394  41.300  33.419  11.451
47065W        W15395  21.512  39.368   3.813
47066W        W15396   6.231  38.829   0.280
47067W        W15397  33.020   0.865   3.812
47068W        W15398  44.993  26.200   4.267
47069W        W15399  28.002   2.961  11.379
47070W        W15400   3.252  20.763   0.273
47071W        W15401  26.985  27.948   0.267
47072W        W15402  33.579  27.143  10.141
47073W        W15403   3.222  32.621   0.888
47074W        W15404  27.962   3.717  11.893
47075W        W15405  34.893   1.329  12.545
47076W        W15406  41.788  16.670  10.532
47077W        W15407   0.743  42.404   1.806
47078W        W15408  31.109  16.599  13.903
47079W        W15409  33.892   9.297  13.529
47080W        W15410   7.313   3.919   1.700
47081W        W15411  22.582  39.035  10.514
47082W        W15412  38.458  26.679  10.405
47083W        W15413  27.156  25.052  11.969
47084W        W15414   1.441  20.724   4.162
47085W        W15415   1.262   3.893   1.734
47086W        W15416  27.186  10.178  11.436
47087W        W15417  10.805  16.154  13.433
47088W        W15418  15.821  28.036  14.831
47089W        W15419   9.152  26.667   3.227
47090W        W15420   8.773   8.673   4.205
47091W        W15421  32.009  20.594  13.467
47092W        W15422  43.427   6.346   4.765
47093W        W15423  37.431  29.542  12.860
47094W        W15424  31.616  23.718  13.986
47095W        W15425  40.900   6.812  12.826
47096W        W15426  12.308   5.868  14.462
47097W        W15427  10.785  40.022   0.850
47098W        W15428   7.912   7.711  10.428
47099W        W15429   8.239   0.850   4.313
47100W        W15430  31.075  10.300   0.738
47101W        W15431  16.657  29.117  11.032
47102W        W15432  21.673  26.671   1.219
47103W        W15433  34.416  43.333  11.941
47104W        W15434  19.212  37.448   5.297
47105W        W15435   7.675  10.198   1.245
47106W        W15436  35.467  17.186   3.155
47107W        W15437   7.672  26.687  13.459
47108W        W15438  35.951  26.473   0.307
47109W        W15439  26.952  28.668   1.724
47110W        W15440   2.812  41.922  13.987
47111W        W15441   8.698  26.489   3.359
47112W        W15442  43.996   4.289  11.464
47113W        W15443  29.566  25.564  11.466
47114W        W15444   5.255  24.045  10.540
47115W        W15445  34.480  33.994   3.630
47116W        W15446  11.304  35.539  10.940
47117W        W15447  29.428  40.049  14.489
47118W        W15448   0.979  19.767   2.320
47119W        W15449  15.669   2.383  12.053
47120W        W15450  13.781  29.481   1.768
47121W        W15451   6.367  36.079   0.924
47122W        W15452  34.989  22.074   3.338
47123W        W15453  43.778  30.049   4.772
47124W        W15454   1.369   3.915  11.107
47125W        W15455  40.521  37.078   0.967
47126W        W15456   2.357  34.435   2.808
47127W        W15457  24.535  35.057  13.903
47128W        W15458   8.249  33.578   4.209
47129W        W15459  43.471  16.774  11.410
47130W        W15460   8.365   5.736   2.745
47131W        W15461  16.591  34.376   2.288
47132W        W15462  11.730  44.431   0.766
47133W        W15463   8.186  37.059  11.476
47134W        W15464  31.582  41.830   4.279
47135W        W15465  30.025   0.838  12.403
47136W        W15466   6.363  19.218   1.796
47137W        W15467   3.456   2.772   0.834
47138W        W15468   4.413  38.477  10.889
47139W        W15469  34.019  40.940   4.686
47140W        W15470  39.960  39.845   1.410
47141W        W15471  17.101  22.586  12.866
47142W        W15472  27.056  41.508   1.765
47143W        W15473  43.916   3.887  11.955
47144W        W15474  26.158  23.734   3.861
47145W        W15475  37.888   8.701   5.206
47146W        W15476   0.354  39.963   3.772
47147W        W15477   7.232   1.832   1.248
47148W        W15478   4.369   5.200  11.489
47149W        W15479  44.794  34.509  13.348
47150W        W15480  12.165  11.352  13.327
47151W        W15481   7.768  19.101  13.387
47152W        W15482   3.748   7.671   4.773
47153W        W15483  15.151  16.762  11.888
47154W        W15484  34.947   5.416  11.431
47155W        W15485  31.921  30.649  11.589
47156W        W15486  19.546   7.668  14.985
47157W        W15487   9.196   6.843  11.983
47158W        W15488  35.479  29.652   0.791
47159W        W15489   8.855  30.128   3.301
47160W        W15490  34.990   7.359   3.760
47161W        W15491  19.709  15.153   3.220
47162W        W15492  38.008  41.011   2.861
47163W        W15493   2.848  12.816  14.871
47164W        W15494  15.124   1.743  11.979
47165W        W15495   6.339  44.901   2.202
47166W        W15496  12.171  33.437  11.426
47167W        W15497   1.407  44.330  12.835
47168W        W15498  23.638  24.024  11.101
47169W        W15499  18.083  34.953  13.796
47170W        W15500  43.938  40.830   1.283
47171W        W15501  13.730  33.416  11.856
47172W        W15502  25.100  17.676  10.481
47173W        W15503   1.253  29.482   4.338
47174W        W15504   1.801  20.036   4.255
47175W        W15505  16.628  41.415  13.451
47176W        W15506  44.302  41.386  11.389
47177W        W15507  42.969  28.116   2.795
47178W        W15508  20.249  32.126  13.379
47179W        W15509  27.077   6.296   2.815
47180W        W15510  13.243  42.928   0.455
47181W        W15511  20.120  24.126   3.825
47182W        W15512   7.846  10.654  14.474
47183W        W15513   4.224  19.266   0.851
47184W        W15514  23.614  14.144   4.233
47185W        W15515  27.521   3.305   0.890
47186W        W15516   4.396  30.015  10.631
47187W        W15517   0.369  23.649   4.655
47188W        W15518  15.098  36.858   2.345
47189W        W15519  33.583  28.102   1.746
47190W        W15520  16.163   5.878   4.756
47191W        W15521   2.459  30.624   1.850
47192W        W15522   7.337  26.609  14.009
47193W        W15523   1.433  41.905  12.381
47194W        W15524  35.392  19.721  12.347
47195W        W15525  32.009  35.496  12.003
47196W        W15526   6.238  41.505   9.949
47197W        W15527  24.043  26.996   4.354
47198W        W15528   6.410  34.000   3.218
47199W        W15529  19.628  30.452  10.970
47200W        W15530  30.102  30.924  13.320
47201W        W15531  26.093  21.031   0.287
47202W        W15532  32.906   6.704  14.441
47203W        W15533  33.605  40.378   4.323
47204W        W15534   6.681  26.199  13.885
47205W        W15535  30.065  10.361   4.242
47206W        W15536  42.030  37.430  14.799
47207W        W15537   4.268  25.146   5.217
47208W        W15538  37.862   2.387   0.456
47209W        W15539  17.182  22.665   1.769
47210W        W15540  28.174  19.662   2.810
47211W        W15541   6.902  10.154  14.879
47212W        W15542  35.021  36.560   3.285
47213W        W15543  38.965   7.326   2.292
47214W        W15544  33.582  21.627  10.960
47215W        W15545   1.478   7.723  13.327
47216W        W15546   8.206  13.812  11.988
47217W        W15547  31.131  42.318  13.527
47218W        W15548  29.557   3.725  14.306
47219W        W15549  25.054   7.702   2.242
47220W        W15550  18.592  22.565   4.809
47221W        W15551  20.696  25.538   1.811
47222W        W15552  18.129  36.961  13.457
47223W        W15553  13.614  22.141  13.792
47224W        W15554  20.034  43.360   4.249
47225W        W15555  13.751   4.759  11.578
47226W        W15556  13.806  21.573   0.767
47227W        W15557  29.548   2.782   3.829
47228W        W15558  42.015  40.344  12.839
47229W        W15559   1.850  38.478   1.239
47230W        W15560  14.711  35.400   2.291
47231W        W15561  14.258   3.413   0.736
47232W        W15562  33.550  28.154  13.897
47233W        W15563  38.995  29.136  10.404
47234W        W15564  20.271  43.785   1.714
47235W        W15565  18.065  39.878   4.821
47236W        W15566   1.750  14.742   3.733
47237W        W15567   9.178   1.454   0.928
47238W        W15568  36.415  17.741   2.419
47239W        W15569  24.618   1.258  14.335
47240W        W15570  14.631   7.831  12.930
47241W        W15571   9.804  19.543   3.849
47242W        W15572  10.287  29.521   4.774
47243W        W15573  17.755   1.818  12.964
47244W        W15574   7.752   4.735   3.694
47245W        W15575  15.319   8.160   0.387
47246W        W15576   9.217  10.659  13.797
47247W        W15577  42.382  44.307   4.190
47248W        W15578  36.411   3.425   9.941
47249W        W15579  23.682  20.264   2.292
47250W        W15580   5.197  24.157  10.924
47251W        W15581  15.103  10.209  13.381
47252W        W15582   6.850  23.658  10.597
47253W        W15583  37.925   3.741  13.372
47254W        W15584  27.476  36.949  13.487
47255W        W15585  18.111  29.452  13.520
47256W        W15586   4.710  11.867   0.314
47257W        W15587  44.766  40.382   2.699
47258W        W15588   9.387   4.725  11.503
47259W        W15589  18.754  27.006  11.062
47260W        W15590  15.819  44.987  14.029
47261W        W15591  10.172  13.697  10.948
47262W        W15592  43.476  26.567  11.990
47263W        W15593  26.981  43.842  14.019
47264W        W15594  40.450  37.529  12.071
47265W        W15595  17.779  11.749   0.960
47266W        W15596  26.151   2.290  14.850
47267W        W15597  38.558  10.744  11.045
47268W        W15598  11.373  30.520  10.986
47269W        W15599  37.995  31.910  14.963
47270W        W15600   3.337  37.397   1.391
47271W        W15601  39.857  34.576   2.283
47272W        W15602   4.283  21.564  10.971
47273W        W15603   7.668  42.921   2.284
47274W        W15604  39.828  15.805  14.466
47275W        W15605  25.012   1.467  14.834
47276W        W15606  42.793   3.418  14.420
47277W        W15607  16.591  44.888  13.471
47278W        W15608  37.969  15.775  12.827
47279W        W15609   5.742  42.804  10.411
47280W        W15610   8.721  27.596  13.975
47281W        W15611  13.769  41.394  14.395
47282W        W15612  11.276  16.279  11.513
47283W        W15613  26.112  13.157   0.745
47284W        W15614   3.366  41.536   0.791
47285W        W15615  10.245  28.075   0.460
47286W        W15616  26.053  14.223  11.420
47287W        W15617  32.619   2.798   1.817
47288W        W15618  22.553  14.765  13.964
47289W        W15619   8.339  30.487  13.341
47290W        W15620   9.367  36.897   0.731
47291W        W15621  32.416  37.470  13.376
47292W        W15622  36.402  13.192  12.376
47293W        W15623  26.592   4.418   4.169
47294W        W15624   4.894  21.674  14.907
47295W        W15625  20.042  10.856   1.799
47296W        W15626  15.665  23.154  14.466
47297W        W15627  33.013  41.867   0.930
47298W        W15628  23.988   2.960  12.948
47299W        W15629  31.495  28.132   3.674
47300W        W15630  34.416   7.226  11.932
47301W        W15631  33.972   3.251   2.254
47302W        W15632  37.058  28.568   4.805
47303W        W15633  42.787   3.216  11.576
47304W        W15634  41.407  32.456  10.642
47305W        W15635  42.949   9.643   3.732
47306W        W15636  11.161  40.324  11.603
47307W        W15637  10.835  12.778   0.326
47308W        W15638   7.807  38.883   1.272
47309W        W15639  30.151  20.603   3.815
47310W        W15640  25.496  44.351  10.074
47311W        W15641  28.028   5.872   1.354
47312W        W15642   9.294  24.487   4.242
47313W        W15643  31.026   8.812  14.333
47314W        W15644   3.323  32.052   3.855
47315W        W15645  31.058  33.561   3.691
47316W        W15646  20.138  17.175  10.989
47317W        W15647  25.575  15.236  13.044
47318W        W15648   2.290  14.733   2.329
47319W        W15649   6.205  39.412  13.533
47320W        W15650   8.687  25.479  11.866
47321W        W15651  15.268   1.265   4.796
47322W        W15652  27.161  17.798   3.764
47323W        W15653   5.917  39.317  14.435
47324W        W15654   8.744   5.195   2.901
47325W        W15655   8.743  10.651   1.224
47326W        W15656  15.748  38.978   2.738
47327W        W15657  32.912  23.153  11.418
47328W        W15658  34.112  17.259  14.508
47329W        W15659  20.529  14.722   2.411
47330W        W15660   8.824  10.195   3.362
47331W        W15661   4.706  37.393  12.940
47332W        W15662  23.004   2.876   1.734
47333W        W15663  44.946  14.248   1.390
47334W        W15664  29.635  28.024  12.556
47335W        W15665  26.549  12.715  12.920
47336W        W15666  25.065   5.801  14.858
47337W        W15667  30.912  26.492  11.869
47338W        W15668  41.035  12.280   1.862
47339W        W15669  42.886  36.047   1.802
47340W        W15670  18.209  33.938   4.723
47341W        W15671   6.894  38.415  11.535
47342W        W15672  41.791  44.386  10.915
47343W        W15673  12.758  10.714   3.302
47344W        W15674  15.198  43.871   1.437
47345W        W15675  13.107  29.466  11.452
47346W        W15676   0.882  16.314  12.942
47347W        W15677  35.874  16.633   1.399
47348W        W15678   3.760  34.034  13.907
47349W        W15679  34.104  43.399   4.781
47350W        W15680  11.836  38.353  14.889
47351W        W15681  19.780  19.074   0.759
47352W        W15682  33.022  13.206   1.850
47353W        W15683  37.380   2.393   4.608
47354W        W15684   6.680  12.313  12.999
47355W        W15685  28.661  26.574   0.818
47356W        W15686  36.466  26.571  12.935
47357W        W15687  16.135   7.814   2.725
47358W        W15688  29.946  14.598  13.352
47359W        W15689  39.491  23.082  13.824
47360W        W15690  44.446  16.682   1.710
47361W        W15691  12.787  28.965   2.683
47362W        W15692  22.580  19.600  10.601
47363W        W15693  16.800  27.486  14.476
47364W        W15694  25.092  29.132  12.869
47365W        W15695  21.689  41.401  10.959
47366W        W15696  39.460  16.265   4.835
47367W        W15697   7.220  22.195  11.373
47368W        W15698   8.860  43.008   1.824
47369W        W15699  17.608  43.909   1.828
47370W        W15700  41.371  37.857   1.784
47371W        W15701  11.794  10.700   4.325
47372W        W15702  34.117  41.461   3.870
47373W        W15703  19.123  21.583   2.861
47374W        W15704   3.849  22.165  14.827
47375W        W15705  41.973  30.120  11.925
47376W        W15706  15.608  37.031  14.959
47377W        W15707  21.712  38.426  10.928
47378W        W15708  41.876  33.517   3.159
47379W        W15709  37.940  42.024  13.811
47380W        W15710   5.902  19.223   1.427
47381W        W15711  23.719   8.292   0.756
47382W        W15712   3.324  24.999   0.246
47383W        W15713   0.448  32.947  11.094
47384W        W15714  33.472  31.455  14.368
47385W        W15715  24.045   8.171  14.420
47386W        W15716  17.221  28.610  10.944
47387W        W15717  10.321   7.672  13.371
47388W        W15718  21.077  17.780  14.026
47389W        W15719  18.580  44.498  10.491
47390W        W15720   4.415  19.121   1.844
47391W        W15721  14.602  25.701   2.319
47392W        W15722  14.798  38.462   2.203
47393W        W15723  30.031   4.288   4.725
47394W        W15724  20.677   6.250   0.784
47395W        W15725  12.691  25.999  12.042
47396W        W15726  44.850  31.901  12.346
47397W        W15727  11.366  40.324   0.366
47398W        W15728  11.670  44.339   3.871
47399W        W15729  12.676  16.704  12.026
47400W        W15730  17.116  29.496  10.540
47401W        W15731  43.841  13.625   2.713
47402W        W15732  25.059  34.058   4.652
47403W        W15733  26.541  36.971  13.908
47404W        W15734  15.596   4.703  11.388
47405W        W15735  18.256  14.785  13.458
47406W        W15736  39.453  11.246   4.799
47407W        W15737  43.843  36.977  12.885
47408W        W15738  39.024   0.425  14.999
47409W        W15739  35.522  14.314   1.425
47410W        W15740  16.186   0.822  14.496
47411W        W15741  10.338   0.443   1.247
47412W        W15742  38.872  11.299  10.417
47413W        W15743  21.160  36.551  13.013
47414W        W15744  31.491  23.089  14.275
47415W        W15745  25.161  28.673  10.493
47416W        W15746   7.346   7.396   4.641
47417W        W15747  17.206  38.995   2.242
47418W        W15748  14.268  18.050   0.471
47419W        W15749  36.844  33.116  10.448
47420W        W15750  16.232  23.174   1.382
47421W        W15751   8.329  23.138  13.921
47422W        W15752   9.224  42.967  11.535
47423W        W15753  44.493  42.463   1.442
47424W        W15754  12.805   6.325  12.903
47425W        W15755   8.378  24.221   0.948
47426W        W15756  15.132  18.147   4.226
47427W        W15757  12.199  34.577  14.821
47428W        W15758  35.365  37.886   2.803
47429W        W15759  27.003  42.775  13.880
47430W        W15760   2.285  24.583   1.791
47431W        W15761  28.979   9.658   1.364
47432W        W15762   0.366  39.828  14.437
47433W        W15763   5.387  26.587  10.639
47434W        W15764  43.488   4.923  14.902
47435W        W15765  22.611  14.625   3.633
47436W        W15766  12.126   0.298   4.729
47437W        W15767  17.675  11.789   4.307
47438W        W15768  18.285   3.414   3.313
47439W        W15769  19.283  41.901   1.764
47440W        W15770   9.164  11.814  10.130
47441W        W15771  36.511   3.723  14.952
47442W        W15772  13.810  32.101   4.185
47443W        W15773   9.841  17.679  13.451
47444W        W15774  13.277  40.489   0.821
47445W        W15775   2.273  40.316   2.677
47446W        W15776  35.604  23.518  12.983
47447W        W15777  36.435  13.774  10.513
47448W        W15778  36.353  26.179   3.724
47449W        W15779  10.230  18.255  11.949
47450W        W15780  38.445  26.033  13.380
47451W        W15781  17.624  26.090  13.010
47452W        W15782  26.976  17.155   0.401
47453W        W15783  44.417  32.017   2.411
47454W        W15784  24.177   0.480   0.438
47455W        W15785   1.765  29.650  14.971
47456W        W15786  43.862  40.458  12.891
47457W        W15787  18.692  22.523  14.282
47458W        W15788  32.052  22.204  14.984
47459W        W15789  35.029  26.036   3.649
47460W        W15790  36.852  44.261  13.815
47461W        W15791  35.901  41.866   0.313
47462W        W15792   0.265  32.137  14.423
47463W        W15793  39.387  11.767   0.757
47464W        W15794  20.574   8.900   1.217
47465W        W15795  39.504  42.837   1.384
47466W        W15796  15.247  17.199   0.831
47467W        W15797  32.547  33.951  10.585
47468W        W15798  13.839  11.683  13.822
47469W        W15799  27.968  20.140   4.184
47470W        W15800  12.720   6.413  12.006
47471W        W15801   8.234   5.738  12.947
47472W        W15802   9.323  15.302  12.518
47473W        W15803  41.041  33.966   1.415
47474W        W15804  15.309   6.188  12.559
47475W        W15805  10.741  15.615   1.317
47476W        W15806  44.888  12.231   1.696
47477W        W15807  21.715  23.207   0.476
47478W        W15808   5.904   6.910  14.308
47479W        W15809  38.076  26.074  11.576
47480W        W15810   6.677  31.123  12.824
47481W        W15811  26.477  25.692   3.335
47482W        W15812  12.361  44.977  11.031
47483W        W15813  36.940  19.601  13.916
47484W        W15814  30.022  41.989  11.591
47485W        W15815  20.155   8.813  14.972
47486W        W15816  21.537  40.549   4.754
47487W        W15817  23.096  10.686   3.169
47488W        W15818  11.183  34.440  10.466
47489W        W15819  32.513  14.235  13.338
47490W        W15820  29.998  36.588   0.243
47491W        W15821  27.167  32.127   3.200
47492W        W15822  20.624  11.776  12.929
47493W        W15823   7.323   8.250  11.121
47494W        W15824  40.002  16.809   4.303
47495W        W15825   8.894  20.537  14.383
47496W        W15826   3.380   8.872  10.098
47497W        W15827  23.520  16.166  10.517
47498W        W15828  37.882  42.980   0.274
47499W        W15829   5.769  32.455   4.228
47500W        W15830  17.672  29.466   0.814
47501W        W15831  37.506  33.597  11.547
47502W        W15832   0.785  40.986  11.997
47503W        W15833  22.022  40.546   1.914
47504W        W15834   6.857   3.358  11.994
47505W        W15835  38.937   9.890  11.520
47506W        W15836  16.183  15.248   4.796
47507W        W15837   5.418   1.894  14.436
47508W        W15838  16.197  27.564  12.081
47509W        W15839  24.125  26.607  14.851
47510W        W15840  14.773  13.765  10.986
47511W        W15841  20.756  11.294   4.329
47512W        W15842   7.380  12.119  12.960
47513W        W15843  24.021  39.540   2.788
47514W        W15844  14.098  36.451  10.028
47515W        W15845  35.536  25.039  11.473
47516W        W15846  33.098  13.689  11.003
47517W        W15847  26.552   8.699  10.605
47518W        W15848  18.548  23.186  14.469
47519W        W15849  13.272  42.356  14.460
47520W        W15850   7.832  41.835   1.306
47521W        W15851   6.335  17.166  11.019
47522W        W15852   6.777  20.615  11.567
47523W        W15853  41.826  13.687   4.759
47524W        W15854  41.886  22.089  11.371
47525W        W15855  33.602   0.364   3.667
47526W        W15856  44.924  37.905  10.480
47527W        W15857  12.129  27.598  12.383
47528W        W15858  34.454  21.612   1.390
47529W        W15859   4.927  13.160   4.796
47530W        W15860   9.848  39.065  14.885
47531W        W15861  13.688  28.565  14.897
47532W        W15862  26.050  11.733   2.408
47533W        W15863  21.129   1.858  13.439
47534W        W15864  39.557  13.683   0.247
47535W        W15865   2.724  36.994  12.435
47536W        W15866   8.773  17.740   0.771
47537W        W15867  15.218  44.865   1.391
47538W        W15868  37.537  15.099   1.930
47539W        W15869  10.342  27.013   0.423
47540W        W15870  36.963  41.824  11.955
47541W        W15871   3.759  29.102  13.988
47542W        W15872  18.720   0.272  14.315
47543W        W15873  44.974  18.135   0.780
47544W        W15874  13.654  16.108   0.286
47545W        W15875  10.662  26.635   4.716
47546W        W15876   4.933   9.771  12.845
47547W        W15877  30.039  36.995  10.929
47548W        W15878   7.887  33.052  12.035
47549W        W15879   0.248   2.393  11.502
47550W        W15880  30.503  12.297   1.727
47551W        W15881  21.556  10.826   9.513
47552W        W15882  22.539   4.302  12.855
47553W        W15883   2.402  12.758   3.300
47554W        W15884  41.410  10.704   4.810
47555W        W15885  12.134   1.800   3.763
47556W        W15886   6.198   0.878  11.909
47557W        W15887   3.447  21.200  14.993
47558W        W15888  22.509  11.304  13.372
47559W        W15889   3.928  24.696   4.271
47560W        W15890  20.592  17.246   5.661
47561W        W15891  36.867  42.347  11.587
47562W        W15892  17.783  31.539  14.355
47563W        W15893  41.787  14.214  10.544
47564W        W15894   2.847  10.815  11.862
47565W        W15895  44.440  21.142   2.792
47566W        W15896  34.061   8.858  12.987
47567W        W15897  22.149   1.918   0.887
47568W        W15898  23.716  22.520   3.151
47569W        W15899  36.051  17.213   2.367
47570W        W15900  42.829  29.495  10.985
47571W        W15901  14.605  32.958  13.849
47572W        W15902  43.322  40.049   1.324
47573W        W15903   5.293  24.720  12.471
47574W        W15904  16.736  36.575   0.869
47575W        W15905  16.778  42.852   9.935
47576W        W15906  36.358  34.089  14.381
47577W        W15907  15.649  31.588  11.439
47578W        W15908  15.102  14.104   4.193
47579W        W15909  36.382  24.590  13.367
47580W        W15910   7.871   3.925   4.825
47581W        W15911  35.481   4.916   1.431
47582W        W15912  37.469  34.094  12.487
47583W        W15913  34.895  24.208   4.831
47584W        W15914   7.801  35.458  10.477
47585W        W15915  30.953  36.495   4.280
47586W        W15916  39.904  20.527  13.878
47587W        W15917  36.011  38.911   3.257
47588W        W15918  38.492  31.143   3.783
47589W        W15919   9.814  28.135  14.825
47590W        W15920  23.716  39.914   1.308
47591W        W15921  22.668  36.502   4.598
47592W        W15922  22.684  23.051   2.276
47593W        W15923  26.467  37.428   1.932
47594W        W15924  26.484   2.335  13.325
47595W        W15925  26.493  38.976  13.969
47596W        W15926   2.426  13.638  14.024
47597W        W15927   0.304  27.481   0.266
47598W        W15928  28.136  20.242  11.557
47599W        W15929  38.860   3.932  10.495
47600W        W15930  23.017   6.312  13.460
47601W        W15931  29.628  30.158   2.799
47602W        W15932  14.211  12.686  11.406
47603W        W15933  16.291   5.214   0.769
47604W        W15934  15.090  39.550   4.747
47605W        W15935  25.676   8.760  13.948
47606W        W15936  23.585  21.695  13.817
47607W        W15937  13.311  41.971  11.942
47608W        W15938   2.325  22.014  13.844
47609W        W15939  30.154   3.805  11.565
47610W        W15940  17.755  43.778   3.823
47611W        W15941  23.733  17.137  10.949
47612W        W15942  13.636  14.142   1.424
47613W        W15943   5.694  26.963  14.848
47614W        W15944  14.274   7.726  11.914
47615W        W15945  39.901  35.933   4.145
47616W        W15946  42.831  29.543  12.833
47617W        W15947  14.691  41.346   3.218
47618W        W15948   7.680  19.774  13.915
47619W        W15949  23.530   3.335  12.061
47620W        W15950  44.908  31.035  12.570
47621W        W15951   5.278  43.329   0.939
47622W        W15952  14.672   2.276   2.674
47623W        W15953  19.156  26.658   0.956
47624W        W15954  41.842  28.054   3.190
47625W        W15955  21.258   1.778  14.874
47626W        W15956  42.892   2.285   4.648
47627W        W15957  30.030  42.011  10.458
47628W        W15958  27.069  13.698  13.308
47629W        W15959  44.355   0.854   3.864
47630W        W15960   5.816  19.601  14.933
47631W        W15961  25.108  37.957  10.638
47632W        W15962  43.944  20.224   4.319
47633W        W15963   5.262  40.051   1.828
47634W        W15964  32.031   6.782  14.512
47635W        W15965  23.636  16.182   2.196
47636W        W15966  43.437   6.324   2.701
47637W        W15967  38.417  25.114   4.637
47638W        W15968  29.647  44.876   2.383
47639W        W15969  18.240  30.545  13.909
47640W        W15970   0.974   6.835  12.990
47641W        W15971  15.611  18.161  13.992
47642W        W15972  23.113  33.382   2.743
47643W        W15973   3.275  22.647  12.374
47644W        W15974  22.077  26.129  14.494
47645W        W15975  28.131   6.774  11.857
47646W        W15976   3.367  36.081  14.854
47647W        W15977  34.029  40.924  12.428
47648W        W15978  34.391  19.068  12.406
47649W        W15979   0.399  38.391  10.889
47650W        W15980   1.943  11.282   3.748
47651W        W15981   7.174  21.582  12.508
47652W        W15982  32.889   6.412  12.465
47653W        W15983  32.088  21.047  12.559
47654W        W15984  37.351  31.942   3.788
47655W        W15985   5.877   2.805  11.919
47656W        W15986  37.392  40.382   5.278
47657W        W15987  26.115  36.075   4.661
47658W        W15988  27.194  23.123   1.778
47659W        W15989  42.345  23.035  12.892
47660W        W15990  16.268   3.813   1.870
47661W        W15991  44.986  37.392  11.423
47662W        W15992  12.120  22.070   3.663
47663W        W15993   2.952  31.119   4.137
47664W        W15994   1.336  38.542   5.703
47665W        W15995  39.955  39.404   1.712
47666W        W15996   4.406  38.910  12.867
47667W        W15997  36.041  36.047   0.734
47668W        W15998  23.039  33.526   4.665
47669W        W15999  39.989  18.659   0.759
47670W        W16000   6.273  29.561   0.442
47671W        W16001   1.313  41.342   1.761
47672W        W16002   5.899  41.388   4.229
47673W        W16003  30.944  37.486  10.037
47674W        W16004  22.126  10.863  10.639
47675W        W16005  32.135  30.617  12.979
47676W        W16006   0.348  14.711   1.829
47677W        W16007   2.234  44.386   0.348
47678W        W16008  10.306  31.904   0.790
47679W        W16009  21.639  16.123  11.966
47680W        W16010  23.527  37.934   3.810
47681W        W16011  35.428  10.170   3.277
47682W        W16012  25.561  20.039   2.808
47683W        W16013  25.020  27.547  13.436
47684W        W16014   6.273  27.996   4.262
47685W        W16015  27.131   9.174  14.434
47686W        W16016  44.299  17.146   9.984
47687W        W16017  31.084  37.938  13.349
47688W        W16018   4.791   6.225  10.957
47689W        W16019   0.445  32.605   1.848
47690W        W16020  34.498   6.185   1.324
47691W        W16021   6.353  29.950  13.412
47692W        W16022  30.153  19.628   5.124
47693W        W16023  31.079   8.214  14.954
47694W        W16024  12.172  16.610  14.483
47695W        W16025  34.464  15.087  12.399
47696W        W16026  15.217  44.993  13.374
47697W        W16027   1.823  23.506   2.285
47698W        W16028  16.314  42.872   2.364
47699W        W16029   0.802   9.181  11.467
47700W        W16030  33.058  29.131  11.579
47701W        W16031  22.665  10.292  12.028
47702W        W16032  41.914  30.053  10.544
47703W        W16033   0.290  29.594   2.719
47704W        W16034  39.518  11.232   1.441
47705W        W16035   3.768   8.369   4.125
47706W        W16036  37.398  24.009   1.441
47707W        W16037  18.093  28.015   2.307
47708W        W16038  17.709  23.140   5.318
47709W        W16039  36.033  42.326   2.222
47710W        W16040   6.846   5.933   0.401
47711W        W16041  30.967  33.577   2.702
47712W        W16042  28.009   2.767   4.209
47713W        W16043   8.889  21.665   1.322
47714W        W16044   2.734  25.194  14.394
47715W        W16045  15.791  20.643   2.318
47716W        W16046   7.904  17.115   0.252
47717W        W16047  24.682   7.839  14.011
47718W        W16048  26.036  17.239  10.989
47719W        W16049   3.438   7.275   4.830
47720W        W16050  11.295  23.984  14.832
47721W        W16051   0.900  14.320   0.726
47722W        W16052  36.375  15.748   4.703
47723W        W16053   7.226  39.316  10.505
47724W        W16054  17.741  24.481  11.964
47725W        W16055  27.194  23.671   2.371
47726W        W16056  41.331   8.223  14.340
47727W        W16057   7.808   7.840  14.495
47728W        W16058   3.449  34.385   0.899
47729W        W16059  22.058  13.231  12.466
47730W        W16060   4.296  13.234   0.336
47731W        W16061  32.562  22.725   0.398
47732W        W16062  32.604   6.687   1.287
47733W        W16063  13.241  44.989   4.218
47734W        W16064  37.850   1.793  14.915
47735W        W16065  24.604   9.233   0.900
47736W        W16066  24.661  17.746   3.866
47737W        W16067  43.439  28.138   1.931
47738W        W16068  30.561  27.548  11.986
47739W        W16069  19.252  20.187  12.983
47740W        W16070  14.291   2.414  11.119
47741W        W16071   9.730  19.620   0.315
47742W        W16072  10.223  15.294   2.820
47743W        W16073  30.565   8.332   4.229
47744W        W16074   2.910  12.356  11.510
47745W        W16075  23.227  24.149  14.839
47746W        W16076  26.508   4.319   0.821
47747W        W16077   5.367   7.745  10.971
47748W        W16078  29.030  18.717  10.556
47749W        W16079  26.206   5.747  10.903
47750W        W16080  10.690  42.306   1.248
47751W        W16081  10.258  39.925   0.356
47752W        W16082  42.328  17.640  10.508
47753W        W16083   4.737   6.829   2.849
47754W        W16084  22.679  36.082  12.384
47755W        W16085  40.542  10.379   0.261
47756W        W16086  20.567  39.463   3.163
47757W        W16087  27.012   1.242   0.339
47758W        W16088  34.983  41.985   4.179
47759W        W16089   8.696  25.709  12.930
47760W        W16090  39.861  24.561  12.060
47761W        W16091  24.205   7.890  14.803
47762W        W16092  44.960  25.498   2.229
47763W        W16093  31.122   9.345  13.379
47764W        W16094  36.887  18.146  14.451
47765W        W16095   1.919  37.060   0.395
47766W        W16096  21.118  17.655  14.461
47767W        W16097  26.582  26.006   9.923
47768W        W16098  18.163  29.943   2.678
47769W        W16099   4.401  36.520  10.116
47770W        W16100  34.874  26.545   1.309
47771W        W16101  15.117  40.951   4.653
47772W        W16102  18.196  24.130   1.341
47773W        W16103  20.220  10.752   3.293
47774W        W16104  36.447  13.640  11.461
47775W        W16105  15.152  26.996  11.603
47776W        W16106  21.207  39.928   1.338
47777W        W16107  35.029  22.608  11.934
47778W        W16108  44.289  11.183  10.134
47779W        W16109   7.238  23.065  12.895
47780W        W16110  23.985  24.134  11.545
47781W        W16111  21.639   5.330  12.076
47782W        W16112  38.489   5.842   2.824
47783W        W16113  34.008  44.901   3.786
47784W        W16114   7.202  31.617   1.385
47785W        W16115  43.440  25.507  14.920
47786W        W16116  40.521  21.055  14.371
47787W        W16117  21.625   9.207  13.487
47788W        W16118  15.815  33.397   0.794
47789W        W16119   6.421  11.792   2.900
47790W        W16120  38.949  29.073  10.055
47791W        W16121   0.436   1.402  12.047
47792W        W16122  44.969  43.513   4.799
47793W        W16123  40.405  14.156   0.730
47794W        W16124  17.103   1.774  11.881
47795W        W16125  44.974   1.961  13.314
47796W        W16126  41.434  33.387   4.651
47797W        W16127  23.561  20.559  14.856
47798W        W16128  19.129  39.972  11.129
47799W        W16129  21.669  31.908   1.257
47800W        W16130  36.846  13.133   4.161
47801W        W16131   4.327   9.679   3.317
47802W        W16132  29.084  12.215  12.363
47803W        W16133   9.840  37.971  11.432
47804W        W16134   7.341  29.577  13.850
47805W        W16135  23.087  16.786  13.994
47806W        W16136  19.062  12.812   0.779
47807W        W16137  33.406  28.678  10.033
47808W        W16138  35.970   8.164   2.402
47809W        W16139  11.138  39.499  12.965
47810W        W16140  17.791  35.025  13.885
47811W        W16141  37.454   9.658  11.991
47812W        W16142  29.554  31.622   4.265
47813W        W16143   1.340  18.771   3.655
47814W        W16144   3.328  41.913  10.942
47815W        W16145  30.600  42.520   0.383
47816W        W16146   9.850  11.211  11.058
47817W        W16147  32.888  29.551   3.158
47818W        W16148  42.316  20.546   4.135
47819W        W16149  42.486  36.420   1.924
47820W        W16150  26.038  37.056  13.860
47821W        W16151   1.291   9.158   4.302
47822W        W16152  29.506  18.272   1.827
47823W        W16153  38.373  26.479   2.767
47824W        W16154  44.420  27.945  12.357
47825W        W16155   0.950   6.296   3.774
47826W        W16156  25.154   7.790   0.424
47827W        W16157   1.468  20.760  13.871
47828W        W16158   5.290  33.014  12.354
47829W        W16159  29.098  34.568   1.711
47830W        W16160  20.031  33.105  11.006
47831W        W16161  21.658  10.699   5.722
47832W        W16162   8.745  22.156   2.305
47833W        W16163  33.103   3.326   1.912
47834W        W16164  39.465  14.779  13.971
47835W        W16165  15.644  23.103  11.530
47836W        W16166   4.839  11.753  12.447
47837W        W16167  13.695  16.687   3.234
47838W        W16168   1.811  28.068   1.738
47839W        W16169  31.531  36.096   3.678
47840W        W16170  31.964   8.873   1.336
47841W        W16171  19.633   0.399  13.356
47842W        W16172  42.410  31.620   0.363
47843W        W16173  42.330  34.887  12.517
47844W        W16174   8.809  38.336  10.586
47845W        W16175  27.459  10.687   2.721
47846W        W16176  27.637  24.481  10.431
47847W        W16177  12.293  40.395  13.896
47848W        W16178   2.393  11.157   4.223
47849W        W16179   6.697   9.270   0.331
47850W        W16180  29.035  12.284  13.527
47851W        W16181  44.786  27.470   2.744
47852W        W16182  44.845  12.795   2.202
47853W        W16183   2.797  21.716   3.758
47854W        W16184  28.550   3.752   1.413
47855W        W16185  28.021  10.366   4.624
47856W        W16186  41.012  30.442  12.459
47857W        W16187  13.738   8.706   4.706
47858W        W16188  33.380   1.935  11.466
47859W        W16189  29.082  28.505  14.327
47860W        W16190  19.595  40.353   5.174
47861W        W16191  36.860  38.511   1.237
47862W        W16192  37.482  35.100   1.256
47863W        W16193  20.696   4.906   1.324
47864W        W16194  36.386  20.570  13.056
47865W        W16195  42.400  32.439  12.072
47866W        W16196  16.766   0.431   2.389
47867W        W16197  23.555  16.183   2.781
47868W        W16198  40.002   4.793   1.810
47869W        W16199   5.881   2.266   0.757
47870W        W16200  21.180  18.700   0.430
47871W        W16201  34.979  27.572  10.483
47872W        W16202  24.631   8.872   4.126
47873W        W16203  24.663  25.491  10.470
47874W        W16204  40.884   1.829   3.301
47875W        W16205  19.633  37.412  13.940
47876W        W16206  15.217  36.570  11.478
47877W        W16207  33.623  14.276  14.783
47878W        W16208  39.030   5.895   4.627
47879W        W16209  43.010   1.856  12.562
47880W        W16210  13.156  28.043   1.330
47881W        W16211  28.159   1.746  12.978
47882W        W16212   1.379   5.433  12.400
47883W        W16213  30.592  41.902  12.095
47884W        W16214  36.409  31.088   0.282
47885W        W16215  27.479  29.653  13.332
47886W        W16216  17.183   5.892   1.238
47887W        W16217  34.598  15.302   4.784
47888W        W16218  14.666   0.965   2.666
47889W        W16219  30.543   0.249   2.848
47890W        W16220  14.164  25.077   4.120
47891W        W16221  10.372  36.588   5.242
47892W        W16222  28.991  15.760  10.960
47893W        W16223  32.553  28.597  13.944
47894W        W16224   4.211   9.182   2.408
47895W        W16225  44.971  23.147  13.811
47896W        W16226  33.092  36.534   3.234
47897W        W16227  15.670  35.096  11.937
47898W        W16228   6.724   1.821   1.235
47899W        W16229  19.540  31.645  13.361
47900W        W16230   5.396   4.223   3.848
47901W        W16231  37.903  14.616  14.364
47902W        W16232  25.219  42.814  14.365
47903W        W16233   6.241   2.371   4.305
47904W        W16234  40.422   0.944   0.254
47905W        W16235  10.843   2.437  10.921
47906W        W16236   7.763  10.714   2.178
47907W        W16237  28.479  10.351   0.876
47908W        W16238  39.938  13.269  14.296
47909W        W16239   7.790  37.348  12.097
47910W        W16240   9.876  24.498   1.769
47911W        W16241   6.681   2.873   3.731
47912W        W16242  17.594  31.583   1.425
47913W        W16243  37.937  40.940   1.916
47914W        W16244  35.885   5.280   3.204
47915W        W16245   5.793  35.437   0.420
47916W        W16246  17.788   2.295  12.919
47917W        W16247  35.552  10.362  12.846
47918W        W16248   5.887  41.952  11.605
47919W        W16249  36.997  26.543  14.322
47920W        W16250  21.753   9.735   2.196
47921W        W16251  31.969  32.032   3.740
47922W        W16252  17.268  35.047   5.215
47923W        W16253   1.470   9.752   4.290
47924W        W16254  22.638  18.715  14.812
47925W        W16255  33.884  28.151  14.797
47926W        W16256  39.357  34.882   3.752
47927W        W16257  23.129  19.738  14.955
47928W        W16258  18.689  40.387   3.169
47929W        W16259   1.874  23.036   1.918
47930W        W16260  11.354   5.822   0.954
47931W        W16261  44.824  25.120   3.778
47932W        W16262  32.117  39.451  14.334
47933W        W16263  32.938  19.763   3.655
47934W        W16264   9.766  44.996  13.482
47935W        W16265  28.187  44.958  14.898
47936W        W16266  23.636  43.470   2.769
47937W        W16267  25.163   0.481   2.896
47938W        W16268   7.843  30.456  14.465
47939W        W16269  10.382   5.366   1.737
47940W        W16270   9.863  21.244   4.261
47941W        W16271  18.219   3.810   3.166
47942W        W16272  28.450   7.281  12.988
47943W        W16273   9.288  42.289   1.720
47944W        W16274  31.947  26.090   4.661
47945W        W16275  37.487  18.679  14.287
47946W        W16276  27.527  20.089   0.941
47947W        W16277  17.715  39.559  14.965
47948W        W16278  29.662  44.372   4.668
47949W        W16279  41.476   4.312  14.456
47950W        W16280  17.738  29.605   1.905
47951W        W16281  25.980   8.273  12.438
47952W        W16282  19.753  32.124  12.891
47953W        W16283  44.340  40.987   3.211
47954W        W16284  41.873  14.603  11.003
47955W        W16285  30.160  18.253  10.574
47956W        W16286  12.123   6.206  14.327
47957W        W16287  11.765  25.085  10.986
47958W        W16288  18.268   9.233   4.664
47959W        W16289  19.753   6.830   4.720
47960W        W16290   4.363  27.987   0.907
47961W        W16291  29.037  41.931   0.769
47962W        W16292   9.734  44.323   2.410
47963W        W16293  30.916  20.572  14.850
47964W        W16294   3.953  24.005  11.945
47965W        W16295  29.497  38.443  11.945
47966W        W16296  39.474  29.058   4.182
47967W        W16297   6.242  26.597  14.469
47968W        W16298  41.319  41.295  11.541
47969W        W16299  30.473   5.714  11.964
47970W        W16300  34.042  21.130   1.711
47971W        W16301  20.206   7.836   5.276
47972W        W16302  15.712   6.783  10.572
47973W        W16303  30.421  23.092  14.925
47974W        W16304  11.292  18.676  11.399
47975W        W16305  21.736  24.708   4.757
47976W        W16306  20.711  10.225   0.855
47977W        W16307   7.403   3.441   5.217
47978W        W16308  30.011  21.611  10.473
47979W        W16309  10.847   8.746  12.996
47980W        W16310   2.230  12.628   1.340
47981W        W16311  26.034  35.908  13.479
47982W        W16312  15.270   7.668  12.872
47983W        W16313   2.310  42.027  13.935
47984W        W16314  29.940  26.146   2.792
47985W        W16315   6.379  39.900   2.257
47986W        W16316  43.426   3.884   0.939
47987W        W16317  27.997  37.843  11.034
47988W        W16318  10.316   9.661  13.867
47989W        W16319  24.596   0.447  14.840
47990W        W16320  40.824  19.199  11.517
47991W        W16321  16.791  36.874  10.494
47992W        W16322  32.565   5.250  14.408
47993W        W16323  26.055  18.546   1.781
47994W        W16324   8.289  32.110  14.433
47995W        W16325   5.692  17.191  13.476
47996W        W16326  31.535  15.702  12.872
47997W        W16327  25.552  34.420   2.298
47998W        W16328  33.559  14.809  11.949
47999W        W16329  12.710   2.409  14.316
48000W        W16330  35.389   4.836   2.257
48001W        W16331   2.394  14.730   3.207
48002W        W16332  34.948   4.943  11.599
48003W        W16333   7.239  38.985   3.742
48004W        W16334  22.703  34.965  14.786
48005W        W16335  32.453  29.541   3.779
48006W        W16336   4.339   1.450  12.038
48007W        W16337  28.174  32.996   0.737
48008W        W16338  22.705   8.756  10.558
48009W        W16339  41.341  25.647   0.445
48010W        W16340  22.181  20.545  10.537
48011W        W16341  34.032   4.327  12.051
48012W        W16342   9.675   9.811   1.221
48013W        W16343  26.193  39.452  12.088
48014W        W16344  39.324  19.763  14.922
48015W        W16345   7.211   7.307   2.332
48016W        W16346  27.124  21.041   1.851
48017W        W16347  17.118   8.272  12.404
48018W        W16348   7.193   2.251  14.462
48019W        W16349  28.445  26.062  12.413
48020W        W16350  16.748   3.947   3.293
48021W        W16351  41.486   9.200   4.138
48022W        W16352  10.153  13.296  10.446
48023W        W16353  36.439  12.129  12.524
48024W        W16354  27.501   7.804  13.029
48025W        W16355   7.269  10.800  12.010
48026W        W16356  44.923  28.165   3.634
48027W        W16357  38.829   1.885  11.469
48028W        W16358  22.718  29.918  11.391
48029W        W16359  37.988   4.906   2.693
48030W        W16360   9.718  34.384   3.209
48031W        W16361  14.195  18.081   3.631
48032W        W16362  40.337  20.740   3.240
48033W        W16363   7.816   8.772  10.412
48034W        W16364  22.698  42.309  12.378
48035W        W16365  15.282   8.845   4.253
48036W        W16366  40.519  31.582   0.405
48037W        W16367  34.981  29.604  11.379
48038W        W16368   8.205   0.282   4.324
48039W        W16369  28.451   5.853  10.944
48040W        W16370  40.953  35.603   2.695
48041W        W16371  31.518  19.260   5.780
48042W        W16372  19.569  13.826   4.628
48043W        W16373  28.056   7.406  13.332
48044W        W16374  13.750  11.641   1.381
48045W        W16375  33.436  31.105  12.856
48046W        W16376  32.106  10.382   5.322
48047W        W16377  13.821  44.868   0.402
48048W        W16378  12.312  40.342  14.996
48049W        W16379   1.839  43.014  14.472
48050W        W16380  38.848   0.326  12.407
48051W        W16381  34.448  14.635   4.723
48052W        W16382   9.218  22.211  13.891
48053W        W16383  14.658  17.593  11.129
48054W        W16384  42.504  29.617  12.402
48055W        W16385  33.481  41.323   4.156
48056W        W16386  41.976  41.396   2.845
48057W        W16387   5.266  31.466   1.293
48058W        W16388  31.118  11.268   0.848
48059W        W16389  42.994  43.508  14.941
48060W        W16390  25.005  15.711   2.668
48061W        W16391  10.365  38.894  12.965
48062W        W16392   0.963   6.868   1.393
48063W        W16393  20.749  15.584   3.828
48064W        W16394  12.268  12.140   4.709
48065W        W16395  25.085  21.071   4.243
48066W        W16396  20.662  41.423   3.744
48067W        W16397   7.222  10.359   3.871
48068W        W16398  41.477   7.331   4.763
48069W        W16399  17.568   8.198   2.308
48070W        W16400   1.382  35.473  12.440
48071W        W16401  23.059   4.927   2.757
48072W        W16402  22.512   3.369  11.906
48073W        W16403  41.428  39.831   0.924
48074W        W16404  21.536  11.263  10.513
48075W        W16405   6.427  28.137   5.286
48076W        W16406  18.772   7.301  13.413
48077W        W16407  29.157  20.269   0.879
48078W        W16408  17.712   0.323  12.400
48079W        W16409  34.061  34.587  13.841
48080W        W16410   8.702   4.715  13.452
48081W        W16411  28.672  33.098   4.317
48082W        W16412  11.205  29.046  14.016
48083W        W16413  13.750   9.756   0.966
48084W        W16414  22.680  33.489  12.009
48085W        W16415   0.257   1.804   0.835
48086W        W16416  25.203  31.514   3.277
48087W        W16417  29.610  29.622  12.375
48088W        W16418   5.198  14.630  10.644
48089W        W16419  42.957  28.654  11.962
48090W        W16420  11.778  42.890   2.322
48091W        W16421  23.723  37.852  12.890
48092W        W16422  41.422  21.668   1.824
48093W        W16423  17.760  26.629   2.808
48094W        W16424  33.624  13.754  11.027
48095W        W16425  35.567   8.377   2.331
48096W        W16426  31.065  40.931  11.062
48097W        W16427  14.649  22.161  13.526
48098W        W16428  18.623  37.496   2.744
48099W        W16429  18.279   6.409  11.565
48100W        W16430  13.600   0.474  13.997
48101W        W16431  23.617  29.533  14.782
48102W        W16432   2.314  26.953  14.395
48103W        W16433  33.619   7.257   4.778
48104W        W16434   9.863  30.908   2.379
48105W        W16435   0.981   3.388  13.881
48106W        W16436  38.007  20.609   2.278
48107W        W16437  23.697  42.974   1.319
48108W        W16438  17.652   6.727  10.512
48109W        W16439  23.002   5.905  10.406
48110W        W16440   8.700  12.198   4.281
48111W        W16441  13.318  19.602   1.438
48112W        W16442  20.030  11.258   1.896
48113W        W16443  14.651  22.745   4.614
48114W        W16444  20.191  42.356  14.942
48115W        W16445  29.608   8.890   5.084
48116W        W16446  19.609   5.813  12.924
48117W        W16447  33.509  35.064  13.327
48118W        W16448  41.521  19.092   3.173
48119W        W16449  25.554  38.021   1.434
48120W        W16450  36.556  11.714   3.695
48121W        W16451  19.637  40.458  14.302
48122W        W16452  43.461   3.355   4.714
48123W        W16453  37.907  38.842   1.337
48124W        W16454  20.078  29.576   1.754
48125W        W16455   8.846   0.331  10.040
48126W        W16456  42.848  17.744   4.799
48127W        W16457  31.410   1.338   4.649
48128W        W16458  10.358  24.672   1.818
48129W        W16459  15.305  24.018  12.028
48130W        W16460  18.081  35.397  12.484
48131W        W16461  22.738  33.096  14.360
48132W        W16462  16.150  22.697  12.996
48133W        W16463  13.614   1.283   0.838
48134W        W16464  34.424   8.791   2.754
48135W        W16465  11.839  25.193  11.509
48136W        W16466  39.998  24.533  14.881
48137W        W16467  36.876   6.918   0.766
48138W        W16468  42.854  30.631   1.798
48139W        W16469  26.563   9.193   2.215
48140W        W16470  35.457  27.503   3.800
48141W        W16471  28.563   3.843  12.096
48142W        W16472  20.729  18.152  11.023
48143W        W16473  28.502  10.745   4.276
48144W        W16474  16.709   2.433   2.209
48145W        W16475  23.044   5.875   1.414
48146W        W16476  42.785  34.610  12.531
48147W        W16477  37.536  12.165   4.239
48148W        W16478  31.095  25.052  10.593
48149W        W16479  11.249  32.549  11.856
48150W        W16480  29.929  28.514  14.988
48151W        W16481  10.174   9.241  12.366
48152W        W16482   7.843   2.389   0.816
48153W        W16483  36.534   8.359  13.025
48154W        W16484   9.871  13.342  10.465
48155W        W16485  37.558  33.392   5.290
48156W        W16486   3.291  12.347   4.821
48157W        W16487  20.108  33.564  12.837
48158W        W16488  22.596  24.502   4.657
48159W        W16489  31.956  44.418  11.429
48160W        W16490   9.889  20.243   0.284
48161W        W16491  27.089   5.774   4.782
48162W        W16492  14.664  34.975   1.355
48163W        W16493  11.761  42.834  11.871
48164W        W16494   2.915  15.328  10.540
48165W        W16495   9.246  19.540  12.364
48166W        W16496  21.625  31.522  12.421
48167W        W16497  19.665  34.928  13.469
48168W        W16498  38.512  32.506   0.940
48169W        W16499  35.082  17.653  11.062
48170W        W16500  38.871   2.807   0.806
48171W        W16501  11.849  11.678   0.938
48172W        W16502   9.266  23.720  13.486
48173W        W16503  16.142  30.657   2.307
48174W        W16504  39.397   1.331   0.309
48175W        W16505   2.281  29.627  14.861
48176W        W16506  42.322  42.486   4.210
48177W        W16507  34.964  12.324   2.279
48178W        W16508  10.324  18.051   5.154
48179W        W16509  12.745   5.866  14.863
48180W        W16510   6.765  33.521  12.482
48181W        W16511  11.759  39.987  13.896
48182W        W16512   1.806  41.901   4.798
48183W        W16513  41.371  23.034   0.458
48184W        W16514  24.515  40.873  13.972
48185W        W16515  38.970   8.297   3.811
48186W        W16516  42.391  21.715  11.484
48187W        W16517   7.368  39.921  12.460
48188W        W16518  33.537  42.836   3.798
48189W        W16519  34.068  11.153  13.324
48190W        W16520  30.122  27.545  10.969
48191W        W16521  42.895   7.773   4.239
48192W        W16522  41.018  44.884   0.842
48193W        W16523  32.066  20.757  14.859
48194W        W16524  43.485  13.672   3.229
48195W        W16525   1.851  39.527   3.662
48196W        W16526  23.643  10.688   3.644
48197W        W16527  41.906  15.242  14.288
48198W        W16528  41.521  17.112  13.485
48199W        W16529  16.148  27.548   3.641
48200W        W16530  43.282  22.202   3.195
48201W        W16531  26.647  34.994  12.932
48202W        W16532   3.284  22.238  13.350
48203W        W16533  20.621  21.037  10.069
48204W        W16534  29.053  14.152   1.728
48205W        W16535  13.675  18.702  11.524
48206W        W16536  43.276  22.621  11.904
48207W        W16537  20.619  36.516   4.184
48208W        W16538  28.112  16.586   4.321
48209W        W16539  41.886  39.553   1.784
48210W        W16540  35.590  20.640  13.307
48211W        W16541  20.703   9.195  14.454
48212W        W16542  41.819   2.277  11.927
48213W        W16543  18.758  32.065  13.510
48214W        W16544  24.145  42.971   3.253
48215W        W16545  38.404  15.328   0.774
48216W        W16546  31.594  16.287  13.925
48217W        W16547  24.125  39.835   0.793
48218W        W16548   4.798  17.746  10.586
48219W        W16549  33.879  10.723   0.385
48220W        W16550  18.758  14.739  10.462
48221W        W16551   6.335  32.949   2.864
48222W        W16552   3.449   6.678   2.253
48223W        W16553   3.803  42.846  11.935
48224W        W16554   7.768  28.585   2.794
48225W        W16555   0.769  44.767   1.242
48226W        W16556  40.031  13.327   3.284
48227W        W16557  23.154  44.330  12.990
48228W        W16558  19.082  25.669  14.930
48229W        W16559   0.947  28.077  12.423
48230W        W16560   6.371  18.641  10.965
48231W        W16561   5.734  22.577  14.791
48232W        W16562  13.288   1.280  11.444
48233W        W16563  23.723  29.579   0.258
48234W        W16564  22.130  25.547   3.260
48235W        W16565  17.153  13.284  12.964
48236W        W16566  18.273  43.438  11.378
48237W        W16567   0.855  36.520  10.962
48238W        W16568  41.359  33.948   1.395
48239W        W16569  18.100  40.816  10.431
48240W        W16570  10.647  15.709   2.832
48241W        W16571   3.807  16.135  14.303
48242W        W16572  39.944  33.084   1.283
48243W        W16573  32.096  24.541  11.479
48244W        W16574  40.807  35.097  10.431
48245W        W16575  33.984  27.977   4.333
48246W        W16576  39.389  30.466  14.972
48247W        W16577   3.352   0.846   2.215
48248W        W16578  42.788  27.612  14.945
48249W        W16579  16.121  41.008   1.371
48250W        W16580  23.584  23.030   0.416
48251W        W16581  15.645  32.989   4.779
48252W        W16582  17.746  42.923  14.407
48253W        W16583   7.866   3.840   1.935
48254W        W16584  28.070  40.030  13.946
48255W        W16585  35.368  34.091  11.040
48256W        W16586  14.142  28.006   0.365
48257W        W16587  21.199   2.412   0.907
48258W        W16588  25.510  12.258  10.966
48259W        W16589  44.779  31.458   3.725
48260W        W16590  18.248  35.397   3.765
48261W        W16591  16.243  31.484  11.610
48262W        W16592  12.252   2.899   3.728
48263W        W16593  36.985  18.659   4.809
48264W        W16594  27.660   9.870   0.781
48265W        W16595   8.235   3.715   2.234
48266W        W16596  18.190  18.272   3.673
48267W        W16597  34.381  10.858  14.976
48268W        W16598  20.080  32.082   5.222
48269W        W16599  43.351  10.287  14.941
48270W        W16600  39.941   5.320   9.957
48271W        W16601   7.702  41.037   3.312
48272W        W16602  29.650  11.167  13.866
48273W        W16603  19.697   0.279  13.026
48274W        W16604  15.768   7.751   0.895
48275W        W16605  33.444  29.929  10.043
48276W        W16606  12.202  39.500  10.999
48277W        W16607  27.477  35.591   1.863
48278W        W16608  17.189  11.709  13.000
48279W        W16609   3.248   8.851  11.419
48280W        W16610  11.154  26.639   4.631
48281W        W16611  11.221  14.828   3.250
48282W        W16612  41.369  11.145  12.924
48283W        W16613  41.530  21.183   2.761
48284W        W16614  27.951  38.478   2.192
48285W        W16615  28.139   6.410   1.242
48286W        W16616  29.044  25.051   4.335
48287W        W16617  12.152  25.146   0.844
48288W        W16618  21.021  21.664  13.045
48289W        W16619  31.946   4.742  10.417
48290W        W16620  13.170  20.172   2.255
48291W        W16621  43.933   1.816  12.072
48292W        W16622  15.591  40.357  12.967
48293W        W16623  39.923  14.628   1.707
48294W        W16624  23.095  17.297   1.869
48295W        W16625  36.371  39.369   2.838
48296W        W16626  44.906   8.293   1.261
48297W        W16627  36.887  17.181   3.862
48298W        W16628  24.612  11.627  13.423
48299W        W16629  18.174  28.126   4.333
48300W        W16630  21.717  29.130  13.991
48301W        W16631  44.997  40.356   0.834
48302W        W16632   6.339  32.916   2.194
48303W        W16633   0.817  38.951   5.205
48304W        W16634   3.714   5.304   0.479
48305W        W16635  18.610   2.872   3.192
48306W        W16636  12.636  44.455  11.895
48307W        W16637   9.167   6.779  11.585
48308W        W16638  13.305  28.436  11.924
48309W        W16639  29.130   3.898   4.597
48310W        W16640  13.238  43.900  14.506
48311W        W16641  31.601  16.673   4.779
48312W        W16642  24.028   6.402   2.669
48313W        W16643  14.094  30.976   4.821
48314W        W16644  34.048   3.852   2.881
48315W        W16645   5.920  27.520   0.480
48316W        W16646  36.903  27.684  12.522
48317W        W16647  14.247   1.266  11.035
48318W        W16648  19.284  15.120   1.840
48319W        W16649  18.051   0.928   3.328
48320W        W16650  43.850  13.624   1.249
48321W        W16651  12.279  44.830  10.524
48322W        W16652   4.443  25.131  12.952
48323W        W16653  25.690  11.647   3.316
48324W        W16654  43.848  42.869  11.423
48325W        W16655  18.616  33.532   0.418
48326W        W16656  17.143  40.304   2.342
48327W        W16657  30.510  35.958   4.153
48328W        W16658   9.742  37.949   3.329
48329W        W16659  44.903  38.849   0.897
48330W        W16660  23.045  11.786   0.423
48331W        W16661  18.660  19.167   4.290
48332W        W16662  31.564  24.120  12.396
48333W        W16663  13.315  36.067  12.376
48334W        W16664  43.784  17.292  10.563
48335W        W16665   2.882  42.835   2.686
48336W        W16666  38.540   9.820   0.296
48337W        W16667  31.969  24.623   4.673
48338W        W16668  28.470  15.658  11.541
48339W        W16669   5.735  42.522  11.393
48340W        W16670  27.539  19.644  10.541
48341W        W16671   5.724  24.087   1.808
48342W        W16672  33.534   4.302  11.608
48343W        W16673  39.331   1.757   0.792
48344W        W16674  32.954  37.455   1.863
48345W        W16675  29.667   5.375  11.430
48346W        W16676  23.551  25.505  14.795
48347W        W16677  16.258   5.426   1.848
48348W        W16678  26.040  42.953   0.413
48349W        W16679  40.871  16.279   0.879
48350W        W16680  43.861   0.801   3.797
48351W        W16681  13.828  26.018   1.337
48352W        W16682  41.035   1.421   4.623
48353W        W16683  40.549  30.589  11.425
48354W        W16684   9.700  23.567  14.431
48355W        W16685  17.662  33.545  14.429
48356W        W16686  42.398   2.455   4.266
48357W        W16687  42.292  16.800   0.960
48358W        W16688  27.121   7.726   1.699
48359W        W16689  29.093  28.067   2.216
48360W        W16690   8.305   8.296  13.943
48361W        W16691   0.459  37.078   2.804
48362W        W16692  26.517  23.521   1.732
48363W        W16693  38.460  29.011   0.247
48364W        W16694  19.664  24.713  11.898
48365W        W16695  40.405  20.094  12.553
48366W        W16696  30.501  28.176  11.450
48367W        W16697   2.253  21.158  11.374
48368W        W16698   0.293  25.218  10.962
48369W        W16699   7.894   9.655  12.418
48370W        W16700   7.226  42.924   0.938
48371W        W16701  28.051  12.300   3.728
48372W        W16702  24.207  41.807   2.755
48373W        W16703  25.029  29.019  13.346
48374W        W16704  20.256   5.878   2.323
48375W        W16705  32.108  11.266   2.197
48376W        W16706  31.098  38.074  10.541
48377W        W16707  40.371   5.388  10.613
48378W        W16708  41.451   6.778  11.446
48379W        W16709   7.253  39.431   4.126
48380W        W16710   0.468  43.403  11.507
48381W        W16711  23.063  31.634  10.887
48382W        W16712  31.600  30.094  14.785
48383W        W16713   5.424  27.631   1.248
48384W        W16714   7.845  39.814   3.297
48385W        W16715   6.238  13.744   0.816
48386W        W16716  14.628  33.073  13.410
48387W        W16717  37.033  44.302   2.688
48388W        W16718  38.035  33.511  10.536
48389W        W16719  32.106  37.462   2.729
48390W        W16720  10.353  14.732   1.803
48391W        W16721  36.932  25.980   0.877
48392W        W16722  17.677  33.479   2.756
48393W        W16723  39.538  42.959  12.396
48394W        W16724   0.869  27.160   4.663
48395W        W16725  13.606  28.029  12.368
48396W        W16726  18.631  21.561   4.661
48397W        W16727  44.371   6.425  13.440
48398W        W16728  21.150  15.712  14.991
48399W        W16729  13.780   8.306   4.346
48400W        W16730  34.042  28.037   2.212
48401W        W16731  25.093  44.774   3.652
48402W        W16732  39.427   8.393   5.121
48403W        W16733   4.375  26.166  11.077
48404W        W16734  36.020  19.651  12.830
48405W        W16735  22.747  38.946   2.871
48406W        W16736   9.163  39.911   1.331
48407W        W16737  44.945  34.920  11.396
48408W        W16738  26.538  42.972   0.893
48409W        W16739   8.170   5.748   1.805
48410W        W16740   5.869  38.355  10.608
48411W        W16741  28.513  24.633   4.703
48412W        W16742   0.973  27.592  12.057
48413W        W16743  29.157  41.370   3.322
48414W        W16744  40.011  20.650  12.371
48415W        W16745  22.118  38.885   4.251
48416W        W16746  16.196  17.262  14.392
48417W        W16747  11.689  39.862  10.419
48418W        W16748  18.686   3.889  10.538
48419W        W16749  35.557  11.685  13.476
48420W        W16750  22.733  20.077  11.010
48421W        W16751   8.264  34.072  13.313
48422W        W16752   8.753   7.410   2.375
48423W        W16753  20.733  24.076  13.434
48424W        W16754  37.482   5.851   1.803
48425W        W16755  24.626  12.854  11.943
48426W        W16756  22.997  12.627   1.773
48427W        W16757  36.078  30.575   3.697
48428W        W16758   1.821  15.197  10.567
48429W        W16759   0.765  40.004  13.990
48430W        W16760  21.089  11.322   2.784
48431W        W16761  23.658  34.091   2.331
48432W        W16762  14.602  26.147  12.438
48433W        W16763   0.815  31.560   0.764
48434W        W16764  16.754   4.887   2.666
48435W        W16765   9.693  12.774  12.477
48436W        W16766  23.072  40.423   2.407
48437W        W16767   8.874  30.591  14.984
48438W        W16768  15.125  14.771  12.991
48439W        W16769   3.345  32.567   2.245
48440W        W16770  35.099   3.753  11.518
48441W        W16771  37.498  14.680  13.341
48442W        W16772  43.915  14.288  13.389
48443W        W16773   2.751   9.668  12.458
48444W        W16774   9.832  18.722  14.883
48445W        W16775  12.189  20.149  13.892
48446W        W16776  26.460  21.693   1.727
48447W        W16777  26.688  23.147   3.694
48448W        W16778  29.955  39.977   3.766
48449W        W16779  30.928   8.708  10.934
48450W        W16780  13.728   5.724   1.780
48451W        W16781  27.963  16.089   1.370
48452W        W16782  42.910  39.878   3.648
48453W        W16783   9.240  14.133   1.368
48454W        W16784   7.199  29.994  14.401
48455W        W16785  29.599  38.945  10.460
48456W        W16786   9.863  11.842   1.788
48457W        W16787  18.698   5.280   2.889
48458W        W16788  12.144   5.880   3.283
48459W        W16789   8.658  33.461   3.764
48460W        W16790   9.751  23.232   4.600
48461W        W16791  41.791  35.939   4.718
48462W        W16792  22.074  15.775   0.284
48463W        W16793   4.917  30.962   2.332
48464W        W16794  23.111  22.209  13.516
48465W        W16795  18.184   9.723  11.889
48466W        W16796  19.186   8.179  11.876
48467W        W16797   9.371   4.860  13.875
48468W        W16798  37.861  44.772  11.927
48469W        W16799  23.517  40.828  12.577
48470W        W16800  22.200  29.588   2.258
48471W        W16801  27.003  17.703  13.439
48472W        W16802  43.977  37.065  13.954
48473W        W16803  37.068  41.523  11.390
48474W        W16804  12.155   1.473   1.896
48475W        W16805  28.620  24.690   2.232
48476W        W16806  31.054  14.285   5.315
48477W        W16807  13.174  24.097   5.295
48478W        W16808  35.874  15.776   5.243
48479W        W16809   3.320  43.290   0.383
48480W        W16810  32.023  11.751   1.834
48481W        W16811   1.935   2.751   3.245
48482W        W16812  43.901  25.986   1.814
48483W        W16813  44.313  20.080  14.005
48484W        W16814  13.274  40.381   4.704
48485W        W16815  21.153  16.226  13.840
48486W        W16816   3.260  37.015   0.422
48487W        W16817  37.457  42.861   5.314
48488W        W16818  34.488  38.473   4.268
48489W        W16819  30.156  15.310  10.927
48490W        W16820  12.772  26.055  13.470
48491W        W16821  10.654   6.882  10.576
48492W        W16822   1.848  17.200   3.868
48493W        W16823   7.798  40.907   4.620
48494W        W16824   7.187  22.039   4.144
48495W        W16825  28.651  15.311  14.421
48496W        W16826  26.555   6.330  12.891
48497W        W16827  29.509   0.490  11.428
48498W        W16828  38.823  44.847   0.770
48499W        W16829  24.041  35.502   2.806
48500W        W16830   3.455   1.766  13.886
48501W        W16831   5.389  26.103  14.421
48502W        W16832  38.376   0.383   0.803
48503W        W16833  41.369  29.173   3.764
48504W        W16834  24.666  18.081  10.544
48505W        W16835  40.863  44.502   0.355
48506W        W16836  33.486  37.909  12.352
48507W        W16837  43.503   7.244   0.923
48508W        W16838  43.908  14.748  12.572
48509W        W16839  44.433  29.658   3.724
48510W        W16840   3.878  26.642   4.601
48511W        W16841  10.656  42.898   2.319
48512W        W16842  42.891  30.436  11.964
48513W        W16843  17.243   3.953  11.011
48514W        W16844   8.304  19.066  12.876
48515W        W16845  14.137  16.626   3.633
48516W        W16846   8.817  21.119  14.788
48517W        W16847  34.006  34.595  10.613
48518W        W16848  40.809  31.457   3.703
48519W        W16849  36.986  32.948  11.099
48520W        W16850  26.992   3.852   3.663
48521W        W16851   4.357  41.946  12.975
48522W        W16852  31.628  27.579  11.932
48523W        W16853  28.073  11.711  14.498
48524W        W16854  42.008  10.317   9.926
48525W        W16855  12.341  37.045  13.002
48526W        W16856  30.651   4.844   0.288
48527W        W16857  42.321  26.501  11.931
48528W        W16858  41.466  19.133  13.836
48529W        W16859  42.947  11.269   0.460
48530W        W16860  33.415  39.460   2.769
48531W        W16861   9.272  36.588  14.875
48532W        W16862  43.511   0.911  11.865
48533W        W16863  21.754   7.206   2.419
48534W        W16864  15.177  15.578   0.859
48535W        W16865   9.198  32.952  12.570
48536W        W16866   4.700  22.661  14.818
48537W        W16867  30.127  14.619   2.224
48538W        W16868  44.405  24.678   4.832
48539W        W16869  42.505  44.970  11.382
48540W        W16870  39.963  21.186  13.952
48541W        W16871  22.552  42.983  14.377
48542W        W16872  36.374  44.367   0.857
48543W        W16873   5.308  11.199  12.919
48544W        W16874  33.088  22.158   3.195
48545W        W16875  43.386  14.755  14.430
48546W        W16876  29.429  14.192  10.936
48547W        W16877  26.064  23.630  10.977
48548W        W16878  20.027  27.509  12.057
48549W        W16879  15.263  30.542  13.371
48550W        W16880  37.495  15.627   5.135
48551W        W16881   2.261  38.528  14.983
48552W        W16882  36.969  16.312  12.059
48553W        W16883  27.168   4.244  11.530
48554W        W16884  43.772   9.223  13.417
48555W        W16885  44.781  14.827  14.856
48556W        W16886  37.471   0.429   3.369
48557W        W16887  37.503  22.541   3.304
48558W        W16888  28.064  11.859   0.362
48559W        W16889  12.699  35.509  13.373
48560W        W16890  33.020  37.979   3.848
48561W        W16891  12.807  18.667   0.907
48562W        W16892  12.210  39.865   0.838
48563W        W16893  30.049  18.141  14.351
48564W        W16894   3.267  15.776  10.419
48565W        W16895  39.935  26.991  10.946
48566W        W16896  13.846  29.170  14.759
48567W        W16897  28.660  36.428  12.853
48568W        W16898  25.186  15.109   4.315
48569W        W16899  44.261  12.814   2.786
48570W        W16900  11.658  30.122  13.907
48571W        W16901   0.367  14.803  11.941
48572W        W16902   9.384  24.524   0.753
48573W        W16903  13.762   7.894   1.374
48574W        W16904  35.091   3.926  13.878
48575W        W16905  31.005  10.321  11.389
48576W        W16906  44.298  26.208   4.738
48577W        W16907  10.276   8.862   1.274
48578W        W16908  39.937  37.481  11.572
48579W        W16909  16.073  21.236  14.791
48580W        W16910  17.101  16.109   4.668
48581W        W16911  24.685  15.736   1.369
48582W        W16912  41.377  36.584   2.252
48583W        W16913  27.036  35.962   3.331
48584W        W16914   5.857   7.666  10.492
48585W        W16915   4.942   0.870   2.783
48586W        W16916  21.676  19.652   5.214
48587W        W16917  40.417  30.555   4.787
48588W        W16918   2.859  35.422  14.018
48589W        W16919  33.026  24.586  10.500
48590W        W16920  14.241   9.835   3.663
48591W        W16921   6.779  12.125   1.807
48592W        W16922   4.241  19.061   2.222
48593W        W16923  38.440  31.908  11.990
48594W        W16924  43.480  38.059   4.326
48595W        W16925  20.263  44.296  13.309
48596W        W16926  11.336  44.380  11.590
48597W        W16927   4.916  33.019  10.475
48598W        W16928  11.713  27.503   0.284
48599W        W16929  33.428  10.332  10.909
48600W        W16930  38.961  44.930  14.478
48601W        W16931  39.362   0.841  14.470
48602W        W16932  19.065   8.831   2.235
48603W        W16933  37.847   4.205  14.300
48604W        W16934  27.136  25.077   0.315
48605W        W16935  32.938  17.105  14.025
48606W        W16936  16.699  25.487   4.747
48607W        W16937  40.359   6.746   3.300
48608W        W16938  12.337  20.767   4.677
48609W        W16939  11.148  25.199  13.888
48610W        W16940  18.612  22.685   1.362
48611W        W16941  35.867  25.161  12.566
48612W        W16942  32.052  39.951  10.073
48613W        W16943  34.894  40.817   3.672
48614W        W16944   2.913   9.167  10.423
48615W        W16945  42.392  21.737  14.032
48616W        W16946   9.817  43.390   0.878
48617W        W16947  10.793  15.609  11.484
48618W        W16948  11.332  12.677  13.357
48619W        W16949  11.823   5.382  12.963
48620W        W16950  30.479   8.735   0.472
48621W        W16951  44.462  31.412  12.933
48622W        W16952   3.906  26.476  11.867
48623W        W16953  19.078  10.642  12.024
48624W        W16954  40.918  16.178  14.297
48625W        W16955  32.900   3.884   0.285
48626W        W16956   8.305  19.676  14.295
48627W        W16957  32.436   7.378  10.957
48628W        W16958  26.171  21.220  13.309
48629W        W16959   1.364   4.705   2.219
48630W        W16960  21.624  43.843   2.852
48631W        W16961   0.811  26.473   4.739
48632W        W16962  40.897  36.369   3.685
48633W        W16963  28.139  23.677  10.565
48634W        W16964  29.659   5.731  10.949
48635W        W16965  14.689  44.950   0.245
48636W        W16966  19.694  11.741   4.227
48637W        W16967  28.544  22.140   2.253
48638W        W16968   8.263  37.441   1.433
48639W        W16969  44.802  36.578   4.286
48640W        W16970  23.640  38.485  12.958
48641W        W16971  36.850   5.411  14.863
48642W        W16972   9.335   3.817   2.809
48643W        W16973  29.068  14.270   1.403
48644W        W16974  43.285   3.261   3.788
48645W        W16975  10.365  39.851  11.968
48646W        W16976  16.206   2.444  13.414
48647W        W16977   2.302   5.854   4.278
48648W        W16978   2.327  28.171   1.701
48649W        W16979  11.851  37.427  11.522
48650W        W16980  14.616  16.150  11.041
48651W        W16981  14.599  28.612   2.248
48652W        W16982  26.012  31.909  14.276
48653W        W16983  29.512  13.292   3.374
48654W        W16984  15.783  33.018   2.734
48655W        W16985  42.480  36.891  11.128
48656W        W16986   7.178  13.661  13.450
48657W        W16987  11.248   8.167   2.245
48658W        W16988   3.846  29.942   1.914
48659W        W16989  27.643  26.470  13.958
48660W        W16990  18.640  18.124  11.992
48661W        W16991  40.428  13.342   1.728
48662W        W16992  14.633  37.960   1.221
48663W        W16993   0.359  20.554  14.303
48664W        W16994   1.830   9.152  13.481
48665W        W16995  39.510  39.891   3.203
48666W        W16996   6.875  16.299   1.371
48667W        W16997  28.569   9.874  13.039
48668W        W16998  42.316   0.376   3.148
48669W        W16999  27.950  37.520   0.435
48670W        W17000   4.728  39.950  11.435
48671W        W17001  34.374  30.513  12.978
48672W        W17002  41.446  24.539  14.511
48673W        W17003  33.474  43.009  11.925
48674W        W17004   4.271  15.824  14.348
48675W        W17005   0.781   4.723   3.793
48676W        W17006  29.616   9.357  10.429
48677W        W17007  33.108  36.486   2.247
48678W        W17008  15.728  25.660   4.343
48679W        W17009  40.003   4.386   2.810
48680W        W17010  32.484  13.201   1.398
48681W        W17011   4.411   4.775   2.417
48682W        W17012   7.770   2.857   3.361
48683W        W17013  30.959  42.008   4.664
48684W        W17014   2.409  17.287  13.493
48685W        W17015  22.553   3.802  13.976
48686W        W17016  31.024  14.737   2.855
48687W        W17017  17.130  38.476  14.347
48688W        W17018  30.083  28.642   4.276
48689W        W17019  41.829  27.686   1.403
48690W        W17020  17.216  38.845  13.532
48691W        W17021   2.385  22.674  13.925
48692W        W17022   7.762  20.628   3.253
48693W        W17023  10.292  12.168  10.930
48694W        W17024  33.598  12.164  13.405
48695W        W17025   6.896  31.487  14.937
48696W        W17026   2.229  21.552   1.428
48697W        W17027  31.618  16.285   1.844
48698W        W17028  29.539  39.925  12.401
48699W        W17029  22.594  27.617   1.247
48700W        W17030  15.226  10.235   3.706
48701W        W17031  13.157  26.114   1.272
48702W        W17032  21.096  28.006  14.448
48703W        W17033  28.531  22.545  10.587
48704W        W17034  12.651  11.133   1.320
48705W        W17035  16.236   9.727   3.261
48706W        W17036  37.934  21.148   4.328
48707W        W17037  27.176  21.235  11.893
48708W        W17038  42.387  39.033   0.380
48709W        W17039  18.603  35.869  12.548
48710W        W17040  10.354  27.139  10.943
48711W        W17041  20.561  35.553   3.658
48712W        W17042  15.177  36.439  12.910
48713W        W17043  38.532   7.172  10.955
48714W        W17044  30.533  39.900  12.873
48715W        W17045  38.457   1.438  10.454
48716W        W17046  18.066   3.809  11.907
48717W        W17047  27.010  18.768   2.764
48718W        W17048  29.951  44.303   4.651
48719W        W17049  28.093  29.020  14.007
48720W        W17050  41.907  32.122   0.339
48721W        W17051   4.339  16.596   0.473
48722W        W17052  23.142  24.021   3.808
48723W        W17053  19.279  44.771   2.390
48724W        W17054  20.765   7.198  10.607
48725W        W17055  43.467  24.115   3.768
48726W        W17056  11.637  17.656  12.936
48727W        W17057  29.589   6.428   3.680
48728W        W17058  13.792  34.463  12.037
48729W        W17059  24.573   6.224   0.735
48730W        W17060  34.500  28.540  12.372
48731W        W17061   2.296  30.147  12.948
48732W        W17062  38.059   9.239   3.201
48733W        W17063  17.786  36.055   3.762
48734W        W17064  24.724  37.513  11.908
48735W        W17065   0.421  29.431   1.731
48736W        W17066  29.489  25.204  12.060
48737W        W17067   0.250   6.893   4.625
48738W        W17068  15.812  34.023   2.243
48739W        W17069  29.977   1.477  14.969
48740W        W17070   4.914  37.837   5.577
48741W        W17071   6.306  23.140   0.771
48742W        W17072  44.297  18.224  12.456
48743W        W17073  29.639  18.566   3.792
48744W        W17074  23.076   4.376   4.641
48745W        W17075  21.237   7.811  14.314
48746W        W17076  26.671  16.773  11.564
48747W        W17077  21.751  43.514  14.412
48748W        W17078   6.726  29.532   0.388
48749W        W17079  11.237  20.742   3.816
48750W        W17080  13.771  13.194  12.875
48751W        W17081   0.365  26.160   3.387
48752W        W17082  32.000   3.851  13.358
48753W        W17083   4.427  18.709   0.881
48754W        W17084  21.544   8.707  14.016
48755W        W17085  18.171   3.731   0.936
48756W        W17086  41.875   1.948   3.714
48757W        W17087  10.635  24.219  11.581
48758W        W17088   5.903  41.337   3.682
48759W        W17089  14.325   0.891   0.385
48760W        W17090  11.779  10.851  13.966
48761W        W17091   3.769  25.969  14.382
48762W        W17092   4.343  41.988  12.578
48763W        W17093  41.294   9.663  12.997
48764W        W17094  25.091  41.793  14.951
48765W        W17095  44.297  32.931  14.288
48766W        W17096  39.864  17.607  12.368
48767W        W17097  44.808  21.132  12.484
48768W        W17098   6.813  23.721  12.938
48769W        W17099  35.551   5.198  11.872
48770W        W17100  28.669  24.042   0.877
48771W        W17101  30.909  32.526   2.205
48772W        W17102   0.927  13.142  12.854
48773W        W17103  41.017  11.354   4.296
48774W        W17104  39.316  23.113   3.708
48775W        W17105  29.957  13.677   1.238
48776W        W17106   2.839  12.195  14.966
48777W        W17107  14.200  29.960   4.215
48778W        W17108  36.364  22.225  13.883
48779W        W17109  22.703  40.975  13.003
48780W        W17110   1.841  16.277  14.845
48781W        W17111   3.877  41.467  13.027
48782W        W17112  11.282  19.059  14.807
48783W        W17113  10.841  44.955  12.083
48784W        W17114   4.739  42.916   3.665
48785W        W17115  39.507   1.915  14.812
48786W        W17116  32.979  34.074  13.485
48787W        W17117  21.136   9.374  12.570
48788W        W17118   1.837  18.694   2.357
48789W        W17119  24.540  23.998   3.260
48790W        W17120  25.701  21.595   4.815
48791W        W17121   8.845  34.944  12.849
48792W        W17122  11.214  17.789  13.828
48793W        W17123  27.097  42.371   2.269
48794W        W17124  39.862   9.391   9.551
48795W        W17125  10.633  27.557   4.629
48796W        W17126  42.958  13.780   1.851
48797W        W17127   5.255  20.046   2.821
48798W        W17128  43.996  18.224  10.556
48799W        W17129  16.290  32.030   1.778
48800W        W17130  43.504  25.492   2.220
48801W        W17131   5.785  26.058  14.894
48802W        W17132   0.396  12.654  13.956
48803W        W17133   1.256  10.726  10.911
48804W        W17134  26.521  11.693   3.199
48805W        W17135  24.517  35.583  12.075
48806W        W17136  22.088  41.431   1.831
48807W        W17137   8.164  43.800   1.264
48808W        W17138  38.828   1.967   2.754
48809W        W17139  20.100  26.017   0.344
48810W        W17140  39.396  33.899  11.966
48811W        W17141  29.029  37.561   2.390
48812W        W17142  26.071  26.109  11.460
48813W        W17143  26.503   4.878   4.763
48814W        W17144  42.021  19.543   0.432
48815W        W17145  35.499  41.931  11.515
48816W        W17146  14.195  22.060  10.444
48817W        W17147  17.584  21.256   3.693
48818W        W17148  21.164   6.255   0.436
48819W        W17149  40.012  31.120   2.202
48820W        W17150  25.195   6.344   2.859
48821W        W17151  41.863  11.140  13.970
48822W        W17152  26.166  22.245  11.067
48823W        W17153   3.781  12.856  12.963
48824W        W17154   0.351  20.146  13.453
48825W        W17155  16.081  17.772  12.857
48826W        W17156   2.724   9.650  14.505
48827W        W17157  30.645  14.736  10.509
48828W        W17158   8.782  11.365   1.715
48829W        W17159  14.223  37.430  11.919
48830W        W17160  15.194  22.714   2.831
48831W        W17161  30.651  20.061  12.994
48832W        W17162  27.126  35.599  12.971
48833W        W17163  27.566  30.422  12.385
48834W        W17164   1.739   1.396  14.338
48835W        W17165   5.228  33.382  10.906
48836W        W17166  26.038   0.877  12.051
48837W        W17167  25.623  21.244  14.417
48838W        W17168   6.786   9.316  11.553
48839W        W17169   4.241  16.672   3.677
48840W        W17170  25.589  36.875  13.897
48841W        W17171  29.931   9.232   0.778
48842W        W17172  20.211  16.249  13.384
48843W        W17173  37.489  28.620  11.472
48844W        W17174  30.017  27.167  14.028
48845W        W17175  38.526  22.524  10.499
48846W        W17176   7.822  43.833  13.382
48847W        W17177  28.068  22.590   4.139
48848W        W17178  24.525  42.466   0.963
48849W        W17179  34.415  29.510  11.403
48850W        W17180  29.480   4.773   1.283
48851W        W17181  30.486  17.663   4.688
48852W        W17182   6.731   0.261   2.212
48853W        W17183  44.773  16.582   4.195
48854W        W17184   7.675  38.074   2.394
48855W        W17185  19.722  12.780  13.370
48856W        W17186  41.011  35.406  14.777
48857W        W17187   2.442  19.541  13.318
48858W        W17188  44.906  29.003   3.840
48859W        W17189   6.273  19.760   4.321
48860W        W17190  33.598  32.086  13.973
48861W        W17191  21.225  39.333   0.422
48862W        W17192  11.156   9.154  14.478
48863W        W17193  36.007  10.228  11.554
48864W        W17194  12.662  33.968   4.194
48865W        W17195  27.004   6.206  10.030
48866W        W17196   0.457   5.201   0.909
48867W        W17197  36.904  15.628   1.212
48868W        W17198   9.246  19.274  14.802
48869W        W17199  15.747  42.508  14.807
48870W        W17200  33.930  31.643   4.259
48871W        W17201   5.388  13.801   1.428
48872W        W17202  30.130  12.173   1.765
48873W        W17203   0.449  41.302  12.501
48874W        W17204   9.815   7.175   0.377
48875W        W17205  22.646   6.382  13.856
48876W        W17206   6.265  13.204  13.504
48877W        W17207   7.782  25.968   1.852
48878W        W17208  25.688   0.268  14.995
48879W        W17209  38.360  34.399   0.460
48880W        W17210  17.294  15.816  10.516
48881W        W17211   6.692  29.448  11.885
48882W        W17212  22.167   9.689  12.482
48883W        W17213  13.841  42.327  14.958
48884W        W17214  43.486  16.787   2.242
48885W        W17215  22.621   9.252   1.280
48886W        W17216  14.758  35.105  10.899
48887W        W17217  13.687  24.479  11.987
48888W        W17218  26.649  32.579   9.964
48889W        W17219  21.189  26.135   4.727
48890W        W17220  11.210   8.834   3.330
48891W        W17221  43.420   2.941  13.476
48892W        W17222   5.226  10.203   2.901
48893W        W17223  38.034  35.900   1.354
48894W        W17224  32.913  44.431   3.790
48895W        W17225   9.662   8.802   4.614
48896W        W17226  22.246  20.760  12.932
48897W        W17227  42.329   2.823  13.891
48898W        W17228  25.687  15.745   4.806
48899W        W17229  10.796   1.801   0.451
48900W        W17230  36.479  24.999  10.978
48901W        W17231  35.854   4.913   2.825
48902W        W17232   1.917   3.443   0.352
48903W        W17233   9.372  39.440   1.924
48904W        W17234  42.294  12.238  11.092
48905W        W17235  42.326  11.745  14.457
48906W        W17236  32.482   3.937   4.279
48907W        W17237  43.285  20.637   1.848
48908W        W17238  18.171  44.838   1.428
48909W        W17239  44.787  25.680   1.236
48910W        W17240  44.331   6.856  14.002
48911W        W17241  34.042  23.208   4.237
48912W        W17242  25.676  15.643  11.944
48913W        W17243  39.918  41.985  10.984
48914W        W17244   9.317  17.226  13.942
48915W        W17245  32.891  31.045   3.791
48916W        W17246  39.939  31.108  12.352
48917W        W17247  20.223  33.963  13.318
48918W        W17248   4.348  35.858  10.629
48919W        W17249  22.645  23.610  11.453
48920W        W17250  28.474   3.859  11.442
48921W        W17251  44.296  31.448  12.042
48922W        W17252   0.917  33.610   0.862
48923W        W17253  42.011   2.466   3.637
48924W        W17254  16.301  34.088  10.923
48925W        W17255   6.921  37.005  12.553
48926W        W17256  11.840  20.072   3.373
48927W        W17257  24.601  33.576  14.308
48928W        W17258   8.200  39.471   1.718
48929W        W17259  13.233  29.529  12.571
48930W        W17260  39.404  36.882  14.768
48931W        W17261  38.539  17.148   1.846
48932W        W17262   4.897  10.191  14.448
48933W        W17263  40.847  21.644   0.757
48934W        W17264  34.557   3.276  12.447
48935W        W17265  44.331   4.325  11.507
48936W        W17266  23.549  20.039   0.346
48937W        W17267  19.084  38.827   4.126
48938W        W17268  44.915  24.985   1.755
48939W        W17269  34.499  22.686  12.997
48940W        W17270   9.815  31.070   4.154
48941W        W17271  12.156   9.173   1.347
48942W        W17272   0.754  16.680  10.434
48943W        W17273   6.303   9.842  12.556
48944W        W17274   6.338   2.336   3.811
48945W        W17275   4.701  30.650  10.454
48946W        W17276  35.403  31.624   2.194
48947W        W17277  15.109  18.783   3.236
48948W        W17278  11.238  19.774   0.887
48949W        W17279  37.003  20.155  12.533
48950W        W17280  23.066   4.216   1.917
48951W        W17281   7.710  36.349   3.698
48952W        W17282  39.912  25.972   4.261
48953W        W17283   4.309  13.282  12.343
48954W        W17284  31.451  34.986  14.498
48955W        W17285  15.154  11.304   1.829
48956W        W17286  12.348   9.379  14.363
48957W        W17287  11.291  20.576  12.562
48958W        W17288  12.757  38.999   1.310
48959W        W17289  26.065   7.234  13.451
48960W        W17290  10.274   9.705   0.738
48961W        W17291  17.651  32.906  13.325
48962W        W17292  42.395  22.226   2.358
48963W        W17293  15.131  20.162   1.434
48964W        W17294  38.973  14.157   0.337
48965W        W17295  22.054  28.624  14.909
48966W        W17296  43.448  41.806   2.880
48967W        W17297  37.904  30.566  11.391
48968W        W17298  44.434  31.052  12.905
48969W        W17299  15.669   5.696  14.358
48970W        W17300  34.064  41.932  11.609
48971W        W17301  17.171  27.989   0.406
48972W        W17302  20.069  40.548  12.980
48973W        W17303  14.665  38.977   2.731
48974W        W17304   6.348  12.713   3.722
48975W        W17305  31.452  44.869   4.266
48976W        W17306  30.052  18.691   0.777
48977W        W17307   6.257  29.010  10.462
48978W        W17308  36.947   6.240  11.882
48979W        W17309  11.210  16.609   2.823
48980W        W17310  12.129  23.189  12.514
48981W        W17311  16.090  17.619  12.432
48982W        W17312   0.439  35.079  11.612
48983W        W17313  15.821  34.556  13.853
48984W        W17314   4.273   5.271  12.501
48985W        W17315   5.364  28.628  14.902
48986W        W17316  12.269  10.181  13.469
48987W        W17317  24.182  21.632   4.639
48988W        W17318   2.458  30.024   1.292
48989W        W17319  17.779   1.740  10.569
48990W        W17320  16.678  38.845  12.948
48991W        W17321  26.690  16.241   1.380
48992W        W17322   8.794  40.402   0.355
48993W        W17323  25.502   0.264   2.786
48994W        W17324  36.412  33.026   0.333
48995W        W17325   2.854   9.312   2.859
48996W        W17326   4.854   4.333  14.970
48997W        W17327   2.345  38.011   4.126
48998W        W17328  33.398  38.885  11.963
48999W        W17329  32.621   3.768  12.063
49000W        W17330  13.231  39.985   0.813
49001W        W17331  31.086  44.260  12.914
49002W        W17332  29.658  22.123   3.698
49003W        W17333   1.873  32.057  10.614
49004W        W17334   4.299  27.454  10.432
49005W        W17335  23.506  33.971  12.900
49006W        W17336  39.495  31.930  13.900
49007W        W17337  43.513   4.389   1.268
49008W        W17338  29.512  44.395  12.402
49009W        W17339  43.286  34.005  12.509
49010W        W17340  24.490  26.542   3.810
49011W        W17341  14.797   1.910  14.377
49012W        W17342  18.129  42.875  14.883
49013W        W17343  21.634  39.046  11.118
49014W        W17344  13.189   4.814   1.299
49015W        W17345  30.116  29.997   0.453
49016W        W17346   3.947  43.408   2.820
49017W        W17347  28.562  25.569  14.515
49018W        W17348   9.371  37.425  13.896
49019W        W17349   7.909  26.133  13.023
49020W        W17350  28.065   6.244  10.443
49021W        W17351  21.075  29.520   3.184
49022W        W17352  12.677  35.548  12.955
49023W        W17353  28.671  12.751  11.015
49024W        W17354  32.557   3.815  11.566
49025W        W17355   2.335  28.977  12.578
49026W        W17356  42.506  26.599  11.105
49027W        W17357   7.172  33.492  14.890
49028W        W17358  12.654  32.121  10.428
49029W        W17359  11.368  36.012   4.664
49030W        W17360  44.393  16.169  14.468
49031W        W17361  15.260  24.155  13.545
49032W        W17362   0.332   3.955   2.701
49033W        W17363  26.504  18.059   3.641
49034W        W17364  28.078   2.238   0.262
49035W        W17365  14.683   7.250   1.780
49036W        W17366  21.654  18.609   4.231
49037W        W17367  33.437   2.446  11.994
49038W        W17368  22.541  31.607  10.413
49039W        W17369  38.332  15.718  11.596
49040W        W17370  29.600  32.969   2.851
49041W        W17371   2.371   3.404   0.751
49042W        W17372  14.200  12.339   3.760
49043W        W17373  44.282  14.147   2.716
49044W        W17374   9.683  37.039   0.433
49045W        W17375  12.770  40.406   3.263
49046W        W17376  10.814  31.101   2.290
49047W        W17377  43.429  15.780   3.678
49048W        W17378   4.791  19.193   0.289
49049W        W17379  33.567  40.544  14.784
49050W        W17380   7.884  32.138  13.898
49051W        W17381   6.306  40.547   1.872
49052W        W17382  32.092  13.778  11.052
49053W        W17383  26.589  30.909   3.320
49054W        W17384  38.526  37.482  10.451
49055W        W17385   5.694   7.868   3.295
49056W        W17386  16.754   8.355  10.632
49057W        W17387  37.977  18.123  11.932
49058W        W17388  32.119  12.280  11.465
49059W        W17389  29.480  13.820  12.046
49060W        W17390  43.454  26.991  11.526
49061W        W17391  27.178  29.082  13.410
49062W        W17392   7.332  37.515  10.116
49063W        W17393  10.150   6.352  14.835
49064W        W17394  42.333  29.473  13.879
49065W        W17395  44.775  18.189   3.856
49066W        W17396  35.927  17.073   3.772
49067W        W17397   8.811  15.681   1.279
49068W        W17398  42.930  17.777  11.987
49069W        W17399  39.894  35.414   0.360
49070W        W17400   2.903   6.422   0.423
49071W        W17401  33.549  35.109   1.804
49072W        W17402  38.834  32.091  11.421
49073W        W17403  31.474  43.871  12.878
49074W        W17404  38.987  25.610   2.737
49075W        W17405  40.860  24.512   1.845
49076W        W17406  38.552  39.960  14.475
49077W        W17407   1.936  15.665  10.612
49078W        W17408  30.574  30.525   2.896
49079W        W17409  42.487  23.558  13.905
49080W        W17410  43.965   9.302   4.215
49081W        W17411  11.720  41.385  10.597
49082W        W17412   3.399  39.942   2.670
49083W        W17413   7.223  24.526  13.386
49084W        W17414  27.994   0.830  11.438
49085W        W17415  20.082  41.425   0.842
49086W        W17416  42.858   0.785  12.490
49087W        W17417   6.757  31.530  13.058
49088W        W17418  16.666  25.059   2.411
49089W        W17419  33.975   3.289  11.983
49090W        W17420  41.998  34.450  12.020
49091W        W17421  20.761  10.336  11.108
49092W        W17422  10.189  11.734   0.773
49093W        W17423  17.774  27.570  11.007
49094W        W17424  41.001  34.516  14.802
49095W        W17425  43.456  44.294  13.971
49096W        W17426  40.948  27.958  13.532
49097W        W17427   0.949  38.515   3.804
49098W        W17428  25.994  39.325   3.311
49099W        W17429  14.805  25.060  14.958
49100W        W17430   6.410  44.454   0.951
49101W        W17431   2.811  20.038  13.521
49102W        W17432  38.059  10.154  13.064
49103W        W17433  42.901  10.839  13.012
49104W        W17434  35.516  24.588  13.329
49105W        W17435   6.898  23.139   4.146
49106W        W17436  24.043  34.110  13.348
49107W        W17437  21.738  25.096  11.012
49108W        W17438  44.800  32.101  14.314
49109W        W17439  33.411  16.798   0.912
49110W        W17440  11.237   8.366  12.990
49111W        W17441  22.639   8.733  11.928
49112W        W17442  20.680  38.383  11.547
49113W        W17443  30.633  12.181  13.428
49114W        W17444   5.201  13.214  11.515
49115W        W17445  10.714   3.936  11.432
49116W        W17446  20.750  43.325   2.182
49117W        W17447  22.179  17.266  12.951
49118W        W17448  14.731  28.487  10.924
49119W        W17449  15.712  23.231  11.882
49120W        W17450   0.769  13.205  10.521
49121W        W17451  32.065   7.263  12.500
49122W        W17452  25.647  24.671   3.296
49123W        W17453   4.926  35.952  13.501
49124W        W17454   6.786  30.649   3.326
49125W        W17455  43.834  23.511   4.625
49126W        W17456  44.967  36.060  12.364
49127W        W17457  26.079  12.254  11.463
49128W        W17458  34.043  16.606  10.545
49129W        W17459   4.771   0.928  13.401
49130W        W17460  30.545  16.585   3.832
49131W        W17461  29.496  23.663  12.963
49132W        W17462  12.145  22.624  10.435
49133W        W17463  11.216  37.493   2.750
49134W        W17464  22.644  33.476   2.799
49135W        W17465  13.657  21.611   4.806
49136W        W17466  12.242   2.916   0.744
49137W        W17467  15.725  35.062  10.932
49138W        W17468   0.492  14.266  14.852
49139W        W17469  43.360  44.311   1.796
49140W        W17470  38.037  30.459   0.336
49141W        W17471  28.081  29.175   4.837
49142W        W17472  29.109  41.921   4.670
49143W        W17473  31.426  13.207  14.938
49144W        W17474  33.592   6.812  12.531
49145W        W17475  32.417  33.049   3.204
49146W        W17476  31.950  10.702   1.243
49147W        W17477   8.776  11.312   3.337
49148W        W17478  22.197  29.991  10.534
49149W        W17479   0.448  18.188   4.605
49150W        W17480  28.624   8.289   3.200
49151W        W17481  44.872   9.290  11.530
49152W        W17482  15.298  23.069   1.260
49153W        W17483  13.350  27.956   2.190
49154W        W17484  25.082  41.989  13.316
49155W        W17485  12.238  17.161   3.186
49156W        W17486  28.664  43.281  11.971
49157W        W17487  34.055  24.583   4.157
49158W        W17488  38.885  42.361   3.733
49159W        W17489   1.796   6.778   2.893
49160W        W17490  10.792  37.009  14.476
49161W        W17491  44.003  20.264   4.806
49162W        W17492   9.837  35.894  14.278
49163W        W17493  26.999  31.975  10.131
49164W        W17494   6.853  33.559   1.323
49165W        W17495  42.902  14.164  12.876
49166W        W17496  36.395  30.481  10.909
49167W        W17497  16.603  25.971  13.527
49168W        W17498  31.962   5.387  13.016
49169W        W17499  36.059  44.930  12.903
49170W        W17500  24.527  30.142   1.894
49171W        W17501   8.896  40.034   0.786
49172W        W17502  12.648  39.457  14.335
49173W        W17503  35.469  20.639  13.796
49174W        W17504  29.920   0.277   1.275
49175W        W17505   6.714  22.686   4.825
49176W        W17506   4.397  20.742   2.216
49177W        W17507   4.354  42.853   5.149
49178W        W17508   4.889   2.411   0.932
49179W        W17509  20.040  36.390   3.789
49180W        W17510  42.497  39.992  12.381
49181W        W17511  23.127  38.025  12.060
49182W        W17512  17.667   8.254  13.307
49183W        W17513   8.681  21.685  11.547
49184W        W17514  42.998  33.976   1.772
49185W        W17515  11.866  35.436  14.761
49186W        W17516  21.168  38.451  14.279
49187W        W17517  15.308  17.665   0.426
49188W        W17518  17.772  36.971   5.274
49189W        W17519   0.779  17.077   2.406
49190W        W17520  32.415  28.629   0.422
49191W        W17521  19.114  24.673  14.973
49192W        W17522  13.154  27.549   2.364
49193W        W17523  40.941   3.216  13.827
49194W        W17524  16.092   1.937  13.983
49195W        W17525  16.307   8.383   4.316
49196W        W17526  33.576  36.092  10.482
49197W        W17527  37.578  41.786   0.964
49198W        W17528  31.145  43.308  14.490
49199W        W17529  42.422   3.917  11.962
49200W        W17530  37.460  24.605   0.260
49201W        W17531  30.102  34.074   9.934
49202W        W17532  31.088  12.788   2.355
49203W        W17533   7.286  15.151   2.369
49204W        W17534  35.981  12.150   0.291
49205W        W17535  44.500  14.104   5.173
49206W        W17536   1.421  19.062  13.547
49207W        W17537  25.498  41.823  14.942
49208W        W17538  44.870   5.309  12.421
49209W        W17539  20.066  20.119  11.933
49210W        W17540  36.070  43.453  12.088
49211W        W17541   3.866   8.756  11.101
49212W        W17542  15.757  38.932   1.261
49213W        W17543  43.942  12.645   0.845
49214W        W17544  32.980  15.155   0.252
49215W        W17545  41.506   4.945   1.347
49216W        W17546  31.509  17.783  14.985
49217W        W17547  34.938  37.486  10.488
49218W        W17548  15.775  40.037   4.348
49219W        W17549  44.791   0.308   1.337
49220W        W17550  42.312  13.232  13.046
49221W        W17551   1.343  16.200   4.708
49222W        W17552   3.262   3.828  14.473
49223W        W17553   7.353  36.352   4.267
49224W        W17554  11.736  34.944  14.938
49225W        W17555  44.892  11.319   3.743
49226W        W17556   6.318  44.375  13.351
49227W        W17557  42.988  25.113   4.339
49228W        W17558  39.398  11.173  13.940
49229W        W17559  13.254  32.051  14.880
49230W        W17560  13.132  21.024   3.654
49231W        W17561  30.923  25.995  13.311
49232W        W17562  38.986  40.862   1.778
49233W        W17563   6.206  30.648   5.141
49234W        W17564   1.912  13.148  12.872
49235W        W17565  16.113  14.094   1.801
49236W        W17566  19.669  37.988  14.383
49237W        W17567  25.107  26.019   4.199
49238W        W17568  17.719  42.781   0.403
49239W        W17569  36.434   4.884  12.011
49240W        W17570   6.746  14.748   3.656
49241W        W17571   4.867  37.894   3.731
49242W        W17572  29.120   3.910  11.076
49243W        W17573  25.097  43.495  10.423
49244W        W17574  34.085  40.526   4.242
49245W        W17575   7.320   3.827   2.845
49246W        W17576  36.520  23.204  11.599
49247W        W17577  29.136   7.407   1.841
49248W        W17578  20.073  32.110  12.352
49249W        W17579  12.670  30.949   1.774
49250W        W17580  31.087  24.211   4.690
49251W        W17581  27.983  37.405  13.865
49252W        W17582  28.598  30.082  10.623
49253W        W17583  18.550  28.114   0.962
49254W        W17584  37.079  10.158  12.826
49255W        W17585  20.214  31.945   1.395
49256W        W17586   2.791  31.614  13.886
49257W        W17587  21.114  15.620   4.816
49258W        W17588  16.168  35.001   3.680
49259W        W17589   2.816   9.234  14.435
49260W        W17590  25.141  43.505   1.828
49261W        W17591  30.417  11.688   2.790
49262W        W17592  40.416  27.505   0.812
49263W        W17593  40.492   0.823   0.809
49264W        W17594  32.929   1.825  12.895
49265W        W17595  29.948  16.625   3.243
49266W        W17596   3.362  44.385   5.181
49267W        W17597  27.571   8.327   3.727
49268W        W17598  16.700  15.094   3.328
49269W        W17599  27.588  21.166  12.415
49270W        W17600   4.769  31.105   3.267
49271W        W17601  17.761  29.059  13.836
49272W        W17602  17.109   5.928   3.823
49273W        W17603  36.869   4.710  14.961
49274W        W17604  25.568  32.042   0.952
49275W        W17605  41.460  39.415  11.445
49276W        W17606  11.803  14.312   2.188
49277W        W17607  16.155   3.839  13.524
49278W        W17608  20.060  39.049   4.177
49279W        W17609   0.347  12.280  12.015
49280W        W17610  39.511  41.042   0.406
49281W        W17611  40.911  22.652   4.709
49282W        W17612  37.992  12.749  11.869
49283W        W17613   9.305  40.030  14.405
49284W        W17614  27.105  42.439   4.757
49285W        W17615   4.702  36.479   1.794
49286W        W17616  23.986  44.362  13.020
49287W        W17617  15.092  17.676  11.399
49288W        W17618  17.215  10.370  10.133
49289W        W17619  25.512  37.410   4.143
49290W        W17620   4.830   1.843   4.603
49291W        W17621  30.534   3.794  12.999
49292W        W17622   9.160  23.705   1.735
49293W        W17623  19.768  30.136  13.338
49294W        W17624  12.848   9.378   1.705
49295W        W17625  39.860  44.909  13.018
49296W        W17626  31.098  44.431   5.102
49297W        W17627   2.801  20.757   4.341
49298W        W17628  25.079  12.250   1.339
49299W        W17629   9.794  20.759  11.482
49300W        W17630  39.341   5.236  12.547
49301W        W17631   8.708  24.140   0.470
49302W        W17632  10.351   6.295   4.682
49303W        W17633  26.182  26.119  10.573
49304W        W17634   6.760  19.670   4.696
49305W        W17635  31.581  11.169   0.838
49306W        W17636  15.618   4.426   3.703
49307W        W17637  34.566   7.199  12.355
49308W        W17638  17.694  31.101   2.721
49309W        W17639  26.061  11.647   4.799
49310W        W17640  25.080   9.856  10.613
49311W        W17641   6.389  18.174  14.766
49312W        W17642  32.492  15.312   0.345
49313W        W17643   2.847  30.569  12.442
49314W        W17644  41.001  32.594   1.352
49315W        W17645  19.610   4.432   2.187
49316W        W17646  15.289  29.663  13.953
49317W        W17647  14.640  38.033  13.952
49318W        W17648  29.639   6.319   4.735
49319W        W17649  37.460  11.783   5.264
49320W        W17650  26.642  23.034  10.968
49321W        W17651  14.777  12.294   2.375
49322W        W17652  21.091  39.039  14.806
49323W        W17653  22.531  20.148  14.304
49324W        W17654  30.981   9.811  11.009
49325W        W17655  22.171  43.288   2.743
49326W        W17656  14.647  29.070   3.273
49327W        W17657  43.789   5.794   2.721
49328W        W17658  32.399   7.847  14.371
49329W        W17659  16.645  31.457  13.826
49330W        W17660  13.727  31.928  13.327
49331W        W17661  29.526  18.259   4.777
49332W        W17662   6.287  42.451   3.802
49333W        W17663  13.317   0.457   1.296
49334W        W17664   2.772   5.881   0.947
49335W        W17665   2.771  35.595   1.909
49336W        W17666   6.848  11.696  10.637
49337W        W17667  36.019   9.732   0.424
49338W        W17668  26.539  29.549  12.844
49339W        W17669  17.101  27.131  14.853
49340W        W17670  33.041  10.731   3.649
49341W        W17671  31.916  14.828   3.740
49342W        W17672  14.310  17.183  13.942
49343W        W17673  12.207  37.343   0.758
49344W        W17674  42.025  42.942   3.227
49345W        W17675  44.964  16.148   1.840
49346W        W17676   0.893  28.484  14.862
49347W        W17677  22.507   0.440   3.230
49348W        W17678  36.548  23.636  11.099
49349W        W17679  16.582  19.711   2.808
49350W        W17680  22.147  33.428   1.862
49351W        W17681  41.019   7.325  14.835
49352W        W17682  34.107  40.027   3.297
49353W        W17683  30.088  42.427   4.258
49354W        W17684  21.245  33.097   1.264
49355W        W17685  31.123  26.135   0.890
49356W        W17686  35.410   2.437  11.002
49357W        W17687  42.998  22.646  13.851
49358W        W17688  33.123  38.351  11.546
49359W        W17689   9.352  29.120   1.341
49360W        W17690  42.880  44.979  12.567
49361W        W17691  37.486  19.083  13.546
49362W        W17692   1.366  21.184  13.309
49363W        W17693  21.164   3.300   3.674
49364W        W17694   6.210   4.714   5.321
49365W        W17695  17.721  20.197   1.313
49366W        W17696  38.064  35.536  12.993
49367W        W17697  20.145   8.886  12.885
49368W        W17698   8.824   3.346  11.472
49369W        W17699   2.905   7.912  14.988
49370W        W17700  44.263   3.955   4.229
49371W        W17701   1.253   3.737   0.903
49372W        W17702   2.736   8.400   0.867
49373W        W17703   6.859  32.487   1.752
49374W        W17704  43.914  18.587   1.850
49375W        W17705  34.473  10.850   1.770
49376W        W17706   6.764  10.708  10.549
49377W        W17707  27.006  40.024   2.799
49378W        W17708  38.996  42.848   3.213
49379W        W17709  34.030  31.549  12.042
49380W        W17710  17.288  17.108   2.407
49381W        W17711  43.450  11.159  11.857
49382W        W17712  39.007  16.595  10.022
49383W        W17713  23.037  20.141  13.490
49384W        W17714   2.742   0.443   3.255
49385W        W17715  13.625  25.176   1.273
49386W        W17716   2.798  20.697   1.899
49387W        W17717   3.953  44.763   4.130
49388W        W17718  18.689   6.419  12.360
49389W        W17719  17.265   2.891   2.275
49390W        W17720  18.684  19.748   3.166
49391W        W17721  31.633   9.222   4.609
49392W        W17722  43.438  28.618   4.733
49393W        W17723   5.732  10.143   4.748
49394W        W17724  17.158  23.716   1.270
49395W        W17725  12.635  43.826   4.338
49396W        W17726  31.125  31.982  11.108
49397W        W17727  33.420  37.531  10.407
49398W        W17728  22.208  43.017  13.058
49399W        W17729  16.204  26.602   4.816
49400W        W17730  31.415   3.221  10.524
49401W        W17731  17.196  19.142  14.386
49402W        W17732   6.852  34.520   1.391
49403W        W17733  20.234  44.972   4.629
49404W        W17734  33.896   7.682  11.530
49405W        W17735  12.753  40.831  11.548
49406W        W17736  34.472  12.739  14.989
49407W        W17737  23.603  28.596  10.982
49408W        W17738  41.292  14.174  12.013
49409W        W17739  17.138  17.790  12.996
49410W        W17740  30.000   3.746  13.849
49411W        W17741  42.393  30.090  13.374
49412W        W17742  37.412  41.003   2.259
49413W        W17743  32.968  15.166  13.857
49414W        W17744  39.401   4.447  14.448
49415W        W17745   8.242  19.609  13.040
49416W        W17746   0.394  39.343  10.911
49417W        W17747  30.478  41.362   0.780
49418W        W17748  28.548  34.045  14.006
49419W        W17749   9.159  38.035   1.904
49420W        W17750  35.458  12.615   2.194
49421W        W17751  12.778  24.682   4.701
49422W        W17752  26.652  42.451  14.461
49423W        W17753  10.207   4.707   0.764
49424W        W17754  41.333  10.224   2.837
49425W        W17755  19.142  23.178  14.897
49426W        W17756   3.744  30.459   4.308
49427W        W17757   1.760   6.711   1.750
49428W        W17758  43.780  41.037  11.562
49429W        W17759  31.988  42.976  11.108
49430W        W17760   8.684  42.996   0.802
49431W        W17761   0.263  20.704  12.836
49432W        W17762  13.654  25.680  13.994
49433W        W17763  15.651  24.118  11.069
49434W        W17764  17.642  17.585  13.058
49435W        W17765  24.177   6.288  14.798
49436W        W17766   0.786  14.269  10.105
49437W        W17767  19.570   4.843   4.794
49438W        W17768   0.881  39.882  10.941
49439W        W17769  37.456  22.184   2.219
49440W        W17770  17.171  12.617   0.860
49441W        W17771   8.723  42.506  13.496
49442W        W17772  26.081  21.743  13.902
49443W        W17773  44.797  11.657   4.623
49444W        W17774  17.233  28.636   1.810
49445W        W17775  14.710   6.680   4.154
49446W        W17776  33.437  11.720   0.808
49447W        W17777   7.411   8.279  13.463
49448W        W17778  44.355  18.224  13.372
49449W        W17779  21.733  19.163  10.619
49450W        W17780  41.384  41.811  14.471
49451W        W17781  20.051  24.631   1.704
49452W        W17782  35.478  37.038  14.365
49453W        W17783  14.831   0.919   4.296
49454W        W17784  16.161   0.892   2.411
49455W        W17785  13.711   6.836   0.898
49456W        W17786   4.430  10.821  13.487
49457W        W17787  13.730  23.605   3.870
49458W        W17788  22.663  12.764  10.463
49459W        W17789  43.437  43.941   3.812
49460W        W17790   5.426  16.597   1.823
49461W        W17791   5.881  25.517   0.832
49462W        W17792  21.662  24.980  14.461
49463W        W17793  29.454  33.413   0.847
49464W        W17794  29.175  10.802  13.388
49465W        W17795   2.404   3.349   1.429
49466W        W17796   3.858  41.451   5.228
49467W        W17797  41.395  36.435   1.731
49468W        W17798   5.274  16.080   1.331
49469W        W17799  37.457   2.892  10.634
49470W        W17800  40.829   6.305   3.284
49471W        W17801  12.201  41.459   2.803
49472W        W17802  43.313  14.821   4.280
49473W        W17803  22.074  20.597  10.976
49474W        W17804   9.348  10.742   3.676
49475W        W17805  27.522  42.962  13.993
49476W        W17806  34.432   0.379   2.886
49477W        W17807   1.903  22.700   3.193
49478W        W17808  17.650   0.252   1.269
49479W        W17809  13.802  41.828  14.899
49480W        W17810  30.069  35.440  11.991
49481W        W17811  31.481  21.189  13.821
49482W        W17812   9.743   1.238  10.949
49483W        W17813  43.903   2.747  13.844
49484W        W17814  30.593  33.593   3.238
49485W        W17815  34.991  30.619   4.216
49486W        W17816  17.239  12.322  11.869
49487W        W17817  23.699  21.572  11.035
49488W        W17818  39.430  16.724  14.486
49489W        W17819  11.245   1.256   4.275
49490W        W17820  33.021  13.126  13.430
49491W        W17821  28.160  35.362   2.193
49492W        W17822  33.924   1.356  14.436
49493W        W17823  41.033  17.683   4.824
49494W        W17824   2.291  20.676  10.995
49495W        W17825  22.062  14.126  10.999
49496W        W17826  29.056  24.695  11.898
49497W        W17827  12.618   3.313  13.936
49498W        W17828  30.970  38.851  10.528
49499W        W17829   4.743   4.232   1.777
49500W        W17830  34.594   4.281  11.986
49501W        W17831  37.914   7.831   9.979
49502W        W17832  17.082  36.033   3.642
49503W        W17833  12.331  38.360   4.248
49504W        W17834   7.729  34.578   2.178
49505W        W17835  22.143  44.981   0.845
49506W        W17836  37.966  25.978   1.312
49507W        W17837   4.774  11.268  12.350
49508W        W17838  33.009  29.479  13.912
49509W        W17839  43.995  36.413   2.739
49510W        W17840  14.116  16.255  12.952
49511W        W17841  41.830   3.827  11.531
49512W        W17842  40.871  37.381  14.374
49513W        W17843   9.232  41.812  11.518
49514W        W17844  19.661  12.252  13.456
49515W        W17845  20.215  17.684  13.925
49516W        W17846  16.086   2.241   3.302
49517W        W17847  41.479  13.245   2.361
49518W        W17848  36.023  18.245  10.591
49519W        W17849   8.253  18.193  11.922
49520W        W17850  43.898  35.545  12.094
49521W        W17851  41.904  19.717  14.385
49522W        W17852  30.547  42.442  12.974
49523W        W17853   9.662  27.644   1.916
49524W        W17854  36.450  34.890   2.775
49525W        W17855  22.612  34.930   1.265
49526W        W17856  28.566   5.384  14.498
49527W        W17857  14.780  26.555   4.819
49528W        W17858  43.868  22.649  12.344
49529W        W17859  38.874  25.476   0.257
49530W        W17860  40.846  41.918   2.775
49531W        W17861  32.995  40.413   2.317
49532W        W17862  39.034   1.477  10.958
49533W        W17863  26.133  29.099  14.996
49534W        W17864  25.154   7.898  11.897
49535W        W17865  24.544   2.889  13.824
49536W        W17866   7.668  26.023  13.795
49537W        W17867  20.266   4.866   3.655
49538W        W17868  15.653  23.169   4.715
49539W        W17869   5.803  18.182  14.483
49540W        W17870   1.333  11.771  10.603
49541W        W17871   2.378   4.714   0.788
49542W        W17872  13.189   9.285  13.514
49543W        W17873  38.954  14.161  11.481
49544W        W17874   9.691   0.748   0.846
49545W        W17875  26.638  29.964   4.140
49546W        W17876  21.254  36.539  10.448
49547W        W17877  14.604  14.208   3.742
49548W        W17878  44.363   8.759   2.864
49549W        W17879  21.235  24.610   0.768
49550W        W17880  29.659   2.726  12.374
49551W        W17881  24.606   0.743  14.387
49552W        W17882  12.778  43.365   2.178
49553W        W17883  24.119   5.729  13.332
49554W        W17884  37.501  25.530  14.927
49555W        W17885  39.321  11.692   2.741
49556W        W17886   3.950  12.763   3.822
49557W        W17887   8.713  23.529   2.225
49558W        W17888  27.957  34.051  10.984
49559W        W17889  39.364  44.971  10.579
49560W        W17890  25.600  14.666   1.301
49561W        W17891  11.751  18.636   1.331
49562W        W17892  12.170   2.797   2.711
49563W        W17893  12.634  40.982  12.000
49564W        W17894   6.263  12.361  13.352
49565W        W17895  26.647  39.338   2.877
49566W        W17896  36.407  18.680   4.630
49567W        W17897  10.354  27.507  11.961
49568W        W17898  14.832   0.400  13.898
49569W        W17899  42.828  18.118   1.893
49570W        W17900   4.853  28.992   2.415
49571W        W17901  16.259   5.778   4.312
49572W        W17902   2.445  40.839   1.749
49573W        W17903   4.291  10.375  14.014
49574W        W17904   6.343   8.688  11.603
49575W        W17905  12.754  16.756   2.181
49576W        W17906  39.537  13.738   1.701
49577W        W17907  39.959  32.890   3.240
49578W        W17908  43.015  13.254  10.574
49579W        W17909   5.835  43.427   1.741
49580W        W17910  31.937   4.867   4.667
49581W        W17911  32.899  19.584  13.854
49582W        W17912  41.923  43.948  14.773
49583W        W17913  38.930  20.692   4.191
49584W        W17914   5.818   7.698   3.723
49585W        W17915  35.476   4.707  14.933
49586W        W17916  36.475  19.233  14.413
49587W        W17917  44.770  39.318  11.889
49588W        W17918  22.530  15.185   1.373
49589W        W17919  41.846  36.349   3.764
49590W        W17920   0.819  21.517   3.146
49591W        W17921   1.336  15.617   0.898
49592W        W17922   9.343  40.529   3.224
49593W        W17923   6.773   5.740  10.916
49594W        W17924  24.538   0.444   3.797
49595W        W17925  42.028  11.854   2.230
49596W        W17926  23.186  42.397   1.393
49597W        W17927   6.322  18.087   0.451
49598W        W17928   4.254  31.006  13.462
49599W        W17929   2.798  19.211  10.936
49600W        W17930  29.494   3.408   9.937
49601W        W17931   7.682  35.376  10.915
49602W        W17932  11.180  15.231  12.580
49603W        W17933  11.263  36.958   2.687
49604W        W17934  43.767  30.122   2.836
49605W        W17935  40.437  40.362   1.696
49606W        W17936  21.143  24.003   3.200
49607W        W17937  24.021  29.116   1.438
49608W        W17938  32.945  42.479  14.459
49609W        W17939  27.128  30.579   4.228
49610W        W17940  33.975  44.292   3.738
49611W        W17941  35.853  20.218   2.788
49612W        W17942  34.071  18.272  14.031
49613W        W17943  43.275  36.369   2.277
49614W        W17944  24.646  28.442   1.871
49615W        W17945  30.936  19.181   0.829
49616W        W17946  27.996  43.906   1.336
49617W        W17947  11.690   8.660  10.122
49618W        W17948  25.066  32.586  13.024
49619W        W17949   2.920   2.813   3.682
49620W        W17950   9.185  37.997  13.843
49621W        W17951  40.832  25.526   3.700
49622W        W17952  23.691   9.257   2.322
49623W        W17953  17.140  12.205   1.774
49624W        W17954  44.979  38.455  12.954
49625W        W17955  40.454  20.092   4.120
49626W        W17956   3.321  37.397   2.295
49627W        W17957  17.613  33.913  13.492
49628W        W17958  43.876  12.293  14.970
49629W        W17959   5.871   5.364   2.891
49630W        W17960  22.689  32.061   1.416
49631W        W17961  25.088  42.318   0.420
49632W        W17962  19.691  12.612   3.804
49633W        W17963   9.846  27.656  12.346
49634W        W17964  36.369   9.244  12.376
49635W        W17965  16.247  18.150   1.736
49636W        W17966   4.327  16.277   1.425
49637W        W17967  11.786  41.987   0.857
49638W        W17968   0.765  44.753   4.722
49639W        W17969  30.082   4.395   4.239
49640W        W17970  13.135   5.330  14.933
49641W        W17971   4.400  21.689   2.393
49642W        W17972  39.408   4.717   0.859
49643W        W17973   7.315   3.374  14.031
49644W        W17974  13.835  15.682   1.308
49645W        W17975  27.650  33.945  11.121
49646W        W17976  19.063  27.120  14.983
49647W        W17977  11.849  10.855   2.761
49648W        W17978  18.747  21.551   1.216
49649W        W17979  25.154   4.751   9.978
49650W        W17980  26.669  12.721   0.888
49651W        W17981   6.858  21.161   1.749
49652W        W17982   4.772  11.185  10.894
49653W        W17983  28.948  44.849  14.860
49654W        W17984   6.387  13.784   2.400
49655W        W17985  21.634  39.381  12.019
49656W        W17986  28.582  11.731  14.958
49657W        W17987  44.432  33.009  12.928
49658W        W17988   2.874  24.025  13.937
49659W        W17989   9.863  13.606  13.894
49660W        W17990   7.902   6.805  13.385
49661W        W17991   5.898  25.163  10.640
49662W        W17992  40.504  18.129   4.157
49663W        W17993  37.883  23.521   0.412
49664W        W17994  10.189  23.212  14.949
49665W        W17995  12.640  39.004   1.777
49666W        W17996  30.474  36.904   0.794
49667W        W17997  22.631   0.874  13.316
49668W        W17998   6.794  43.489   4.245
49669W        W17999  35.918   8.871   2.262
49670W        W18000   3.300  35.595   1.396
49671W        W18001  32.391  26.669   0.741
49672W        W18002  25.063  19.144  10.443
49673W        W18003  22.733  13.806   1.904
49674W        W18004   3.924  40.921  10.618
49675W        W18005  39.556   5.787  12.932
49676W        W18006  39.540  25.681   0.887
49677W        W18007  43.373  26.072  13.546
49678W        W18008  12.838  18.703  11.092
49679W        W18009  33.055   3.394  11.456
49680W        W18010  17.676  17.136   0.422
49681W        W18011  25.118   6.915  12.935
49682W        W18012  24.080  40.309   4.287
49683W        W18013   1.976   0.889   4.794
49684W        W18014  28.505  19.756  14.780
49685W        W18015  13.707  20.544  13.854
49686W        W18016  30.996  26.040  13.058
49687W        W18017  33.951  10.834   1.919
49688W        W18018  34.603   8.343   2.840
49689W        W18019  40.314  27.074  11.429
49690W        W18020  33.537  15.202  14.336
49691W        W18021   8.693  34.921   2.233
49692W        W18022  19.623  16.310   2.839
49693W        W18023  12.816  33.560  14.008
49694W        W18024  24.005  32.095   4.829
49695W        W18025   3.448   2.441   3.703
49696W        W18026   7.238  21.719  13.394
49697W        W18027   8.236  33.062  12.962
49698W        W18028  19.218  29.989  13.868
49699W        W18029  34.988   6.877  14.493
49700W        W18030   1.335  12.130   1.266
49701W        W18031  20.603   9.698  11.939
49702W        W18032  38.510  41.019  11.420
49703W        W18033  37.920  35.062   3.308
49704W        W18034   1.977   0.941  13.469
49705W        W18035  12.626  11.316   0.849
49706W        W18036   8.167  10.719  10.450
49707W        W18037   5.263  16.210   4.760
49708W        W18038  42.454  19.161  14.840
49709W        W18039  33.421  23.987  14.314
49710W        W18040  31.625  40.911   2.374
49711W        W18041  14.157  32.573  14.332
49712W        W18042  43.401  42.513  13.840
49713W        W18043  38.416  40.942  13.007
49714W        W18044  26.008  40.970  14.432
49715W        W18045  21.592  21.525   2.845
49716W        W18046  32.536  22.995  12.401
49717W        W18047   6.742   8.663   2.742
49718W        W18048  17.114  36.850   5.618
49719W        W18049   4.747  19.061  10.576
49720W        W18050  41.870  36.502  11.871
49721W        W18051   1.352  28.474   2.893
49722W        W18052  19.060   1.427   3.181
49723W        W18053  27.964   8.250  14.375
49724W        W18054  39.939  33.046   0.869
49725W        W18055  25.524  33.921  10.442
49726W        W18056  36.388  36.875  12.406
49727W        W18057  40.499  18.714   3.754
49728W        W18058  11.641  31.625  13.048
49729W        W18059  42.949  16.601  13.434
49730W        W18060  10.870   8.295   1.432
49731W        W18061  42.344  21.139   0.376
49732W        W18062   1.307  37.505  10.984
49733W        W18063   1.309  34.547   3.831
49734W        W18064  43.956  42.418  14.303
49735W        W18065  12.324  29.960   4.198
49736W        W18066  12.654  42.314  14.346
49737W        W18067  16.163  18.581   2.854
49738W        W18068  16.201  28.154   4.320
49739W        W18069  18.721  13.229   1.397
49740W        W18070   1.472  19.668  11.105
49741W        W18071  27.164  20.122  10.630
49742W        W18072   3.888   8.802  14.953
49743W        W18073  35.510  33.389  10.607
49744W        W18074  18.090   9.789  12.948
49745W        W18075  28.617   0.891   1.835
49746W        W18076  20.732  23.036   1.713
49747W        W18077  18.180  18.236  14.942
49748W        W18078  29.015  35.390   2.897
49749W        W18079  26.623  32.912   9.929
49750W        W18080  26.118  36.501   1.252
49751W        W18081   9.724  35.445  11.472
49752W        W18082  43.842  19.582   2.334
49753W        W18083  25.133  13.222   0.885
49754W        W18084  13.632  17.780   1.403
49755W        W18085   4.321   1.280   1.852
49756W        W18086  19.712  32.129  10.112
49757W        W18087  44.790  24.693  12.051
49758W        W18088   0.986   0.918   1.398
49759W        W18089  16.134   3.784  13.985
49760W        W18090  41.330  20.564   0.471
49761W        W18091  37.881  44.305   3.346
49762W        W18092   7.677  31.971  13.050
49763W        W18093  39.353   5.694   2.208
49764W        W18094  27.514  31.489   3.336
49765W        W18095  24.512  23.501  11.117
49766W        W18096  35.438  33.061  11.976
49767W        W18097  17.673  34.407   4.768
49768W        W18098  12.300  14.221   1.877
49769W        W18099   4.848  19.576  14.399
49770W        W18100  27.992  12.796  11.444
49771W        W18101   0.446   1.829  12.905
49772W        W18102  40.385  16.119   2.721
49773W        W18103   9.199  34.428  11.966
49774W        W18104   6.240  22.554  10.032
49775W        W18105  44.939  35.402  11.603
49776W        W18106   7.680  24.499  10.556
49777W        W18107  10.184  24.006   4.705
49778W        W18108  37.427  43.888  14.306
49779W        W18109  17.116  23.237  11.437
49780W        W18110  39.811  21.123   1.700
49781W        W18111  30.140  14.651   1.764
49782W        W18112  25.548  13.663  12.054
49783W        W18113  31.530  31.520  12.873
49784W        W18114  21.220   1.420   1.935
49785W        W18115   3.778  40.014  13.427
49786W        W18116   8.217  20.181  12.410
49787W        W18117  30.555  18.762   3.297
49788W        W18118  42.441  23.685   0.400
49789W        W18119  24.655  17.120   3.635
49790W        W18120   9.761  30.086  13.428
49791W        W18121  44.932  25.519  12.456
49792W        W18122  26.512  11.180  13.448
49793W        W18123  39.956  14.152   4.639
49794W        W18124  29.603  21.133  14.769
49795W        W18125  44.388  44.391  14.014
49796W        W18126  28.531  36.562   0.471
49797W        W18127  35.908  42.917   0.770
49798W        W18128  20.036   0.771   0.301
49799W        W18129  35.987   2.408   0.816
49800W        W18130  23.040  31.498   0.757
49801W        W18131  27.662  25.112  14.879
49802W        W18132   2.941  35.946   1.865
49803W        W18133  33.997  15.277   3.261
49804W        W18134  28.624   0.304   4.780
49805W        W18135  10.198  44.299  11.507
49806W        W18136  20.114  12.134  11.003
49807W        W18137  20.052  15.220   2.196
49808W        W18138  24.488  21.598  14.870
49809W        W18139  20.612  31.476   1.377
49810W        W18140  36.892  33.997  11.382
49811W        W18141  40.369  23.195  14.381
49812W        W18142  30.092   9.200   2.879
49813W        W18143  38.548  27.494   0.739
49814W        W18144   3.420  30.585  11.125
49815W        W18145  29.002  13.212   2.241
49816W        W18146   8.773   7.203   0.841
49817W        W18147   9.869  33.925   1.873
49818W        W18148  44.301  41.429  13.318
49819W        W18149   9.724  31.623  12.882
49820W        W18150  31.092  19.107   4.303
49821W        W18151  14.315  37.430   1.217
49822W        W18152  17.272  34.102   0.279
49823W        W18153   2.847  39.921  14.030
49824W        W18154  43.016  13.712  11.589
49825W        W18155   7.203   2.353   0.884
49826W        W18156  37.985  17.100  13.488
49827W        W18157  30.145  21.222   4.676
49828W        W18158  29.467   7.687  10.914
49829W        W18159  39.550   6.407   1.271
49830W        W18160  16.206  44.368   3.670
49831W        W18161  23.082  14.285  10.643
49832W        W18162   4.872   1.929   0.738
49833W        W18163  19.067  36.395  10.639
49834W        W18164  37.026   6.425   1.814
49835W        W18165  16.251   8.176   3.658
49836W        W18166  39.397  22.080  11.520
49837W        W18167   3.342  18.282  12.019
49838W        W18168  40.326  39.920   0.245
49839W        W18169  19.081  28.651  13.837
49840W        W18170   0.850  24.577  12.869
49841W        W18171  41.308   7.173   3.193
49842W        W18172  32.061  16.609   1.758
49843W        W18173  21.579  25.502  12.844
49844W        W18174  43.281  42.321  11.538
49845W        W18175   9.381  25.597  12.494
49846W        W18176  30.010   8.874   0.964
49847W        W18177  44.293   3.271   4.205
49848W        W18178  33.989   3.895   2.365
49849W        W18179   4.450  43.455  11.521
49850W        W18180  31.527  27.521  13.042
49851W        W18181  41.400  21.053   1.358
49852W        W18182   1.411  21.113  13.829
49853W        W18183  30.144  29.569  10.605
49854W        W18184   2.270  42.014   1.875
49855W        W18185   0.750  44.971   3.866
49856W        W18186  43.388  14.816  10.608
49857W        W18187  31.117   7.682  14.391
49858W        W18188  21.515  12.182   1.285
49859W        W18189  41.882   2.358   3.179
49860W        W18190  36.943  40.429  13.416
49861W        W18191  11.809  29.099   1.802
49862W        W18192  17.575  27.485   1.781
49863W        W18193   9.813   0.260   3.682
49864W        W18194  37.925  25.656  10.980
49865W        W18195  10.655  21.068   2.277
49866W        W18196  27.462  40.315  14.949
49867W        W18197  24.707   1.793   4.227
49868W        W18198  31.940   1.899   2.337
49869W        W18199  12.322  19.261   2.889
49870W        W18200  20.089  39.882   4.651
49871W        W18201  12.718   0.937   4.610
49872W        W18202   2.931  10.372   3.333
49873W        W18203  12.823   6.250   2.665
49874W        W18204  16.726  27.464   1.420
49875W        W18205  40.038  10.203  12.048
49876W        W18206  10.240  35.025   4.615
49877W        W18207  36.526  20.125  13.056
49878W        W18208  32.932  16.613   2.234
49879W        W18209  16.619  43.360   0.266
49880W        W18210  36.482  17.138   1.858
49881W        W18211  32.888  29.436   4.705
49882W        W18212  12.294  35.076  10.430
49883W        W18213  43.876   7.371  12.961
49884W        W18214   8.828  10.843  11.444
49885W        W18215  12.119  18.710  10.580
49886W        W18216  37.874   7.396  11.038
49887W        W18217  40.539  41.929  10.519
49888W        W18218  28.607  24.071   3.366
49889W        W18219  43.391  30.128  13.865
49890W        W18220   7.193  31.545  14.321
49891W        W18221  34.104  16.278   2.387
49892W        W18222  14.788  11.294   0.245
49893W        W18223  15.606  31.642  14.435
49894W        W18224  14.250  30.508  10.978
49895W        W18225  38.028  33.573   1.319
49896W        W18226  27.044   8.869  13.851
49897W        W18227   5.880  42.877  11.396
49898W        W18228  44.416  22.603   2.369
49899W        W18229  31.620  43.814  10.519
49900W        W18230   2.816  22.061   1.896
49901W        W18231   9.764   8.800   3.849
49902W        W18232  42.800  39.323   4.791
49903W        W18233  28.500  11.285   3.691
49904W        W18234  30.028  10.291   2.329
49905W        W18235  38.953   0.948   2.399
49906W        W18236  34.977  40.890  10.538
49907W        W18237  10.176  29.046  10.565
49908W        W18238  41.401   5.695  12.889
49909W        W18239  20.598  37.362   3.763
49910W        W18240  14.124   8.691  14.505
49911W        W18241  27.160  38.069  13.401
49912W        W18242  44.317  29.607  13.538
49913W        W18243  37.569  14.613   0.808
49914W        W18244   5.209  24.706   2.229
49915W        W18245  43.967   8.668  14.855
49916W        W18246  24.616   8.306  10.934
49917W        W18247   9.305  42.983  12.848
49918W        W18248  35.399  10.662   0.959
49919W        W18249  12.294  26.681  10.640
49920W        W18250  16.677  43.508  13.414
49921W        W18251  41.984  11.267  14.911
49922W        W18252  40.466  39.065  11.061
49923W        W18253   4.313  34.487  14.851
49924W        W18254  20.251  40.346  14.411
49925W        W18255  18.690   7.267  11.923
49926W        W18256  43.972  31.029  14.331
49927W        W18257   0.909  42.941   4.646
49928W        W18258  34.040  24.606   4.761
49929W        W18259  43.936   6.229   3.693
49930W        W18260  36.489  11.347  13.913
49931W        W18261  42.819  44.305  13.338
49932W        W18262   7.874  34.558  10.525
49933W        W18263   6.881   9.853  12.024
49934W        W18264  23.012  14.834   0.428
49935W        W18265  27.484   1.358  14.909
49936W        W18266  28.041   0.950  12.839
49937W        W18267  20.031   3.731   1.887
49938W        W18268   3.221  23.657   1.261
49939W        W18269  15.737  23.539   2.410
49940W        W18270  24.186  32.083   9.940
49941W        W18271  19.717  31.474   3.355
49942W        W18272  34.500  39.040   2.392
49943W        W18273  20.738  44.278   4.317
49944W        W18274  40.883  31.083  12.364
49945W        W18275  21.176  40.014  11.029
49946W        W18276  23.198  35.494  13.855
49947W        W18277  42.907  20.565   3.844
49948W        W18278  42.876  25.631  12.947
49949W        W18279   2.938  36.487   4.674
49950W        W18280  26.131  33.570  10.448
49951W        W18281  28.117  42.389  12.405
49952W        W18282  27.548   6.255  13.348
49953W        W18283   9.732  23.492   0.404
49954W        W18284   4.282  18.720  11.003
49955W        W18285   1.399  10.677  10.543
49956W        W18286  23.567  32.042   2.289
49957W        W18287  28.002   8.273  10.488
49958W        W18288  22.193   2.358  13.487
49959W        W18289   3.954  38.988  11.988
49960W        W18290   9.737  29.566   1.714
49961W        W18291  32.453   8.806  14.322
49962W        W18292  43.890  37.045   4.142
49963W        W18293  12.753   9.884  13.810
49964W        W18294  41.399  28.520  12.411
49965W        W18295  11.737   0.292  13.464
49966W        W18296  44.006  40.837  12.094
49967W        W18297  28.654  41.394  14.285
49968W        W18298  12.160  28.978  14.877
49969W        W18299  41.802   5.842  12.486
49970W        W18300   9.170  24.029   0.318
49971W        W18301  26.645   1.467   3.343
49972W        W18302  40.375   5.892   2.751
49973W        W18303   9.695  40.328  11.039
49974W        W18304  32.934   9.651   4.826
49975W        W18305  29.654  37.834   3.275
49976W        W18306  41.825   1.824   4.270
49977W        W18307  10.750  38.865   0.253
49978W        W18308  17.760  18.150   4.185
49979W        W18309  17.075  35.379   0.896
49980W        W18310   1.815  39.333   2.833
49981W        W18311  22.018  42.895  14.848
49982W        W18312  32.621  37.054  12.927
49983W        W18313  24.168   0.272   3.780
49984W        W18314  42.523  24.610  14.290
49985W        W18315   4.768   0.443   3.634
49986W        W18316  41.418  15.688  10.566
49987W        W18317  11.633  14.780  11.436
49988W        W18318  37.986  25.693   4.144
49989W        W18319   3.869  20.067  11.090
49990W        W18320  34.577  29.499  14.295
49991W        W18321  32.044  40.902   4.620
49992W        W18322  27.654  18.211   1.442
49993W        W18323   2.747  19.697   1.439
49994W        W18324  18.638  10.359   5.182
49995W        W18325  44.816  15.326  14.947
49996W        W18326   0.839  34.911   4.219
49997W        W18327  26.199  28.983   2.772
49998W        W18328  33.512  30.509  10.637
49999W        W18329  11.337  43.894   2.711
50000W        W18330  31.007   3.778   1.336
50001W        W18331  13.653   4.708   0.444
50002W        W18332  41.812  27.087  12.965
50003W        W18333  16.689   3.334  13.922
50004W        W18334  11.630  34.513  14.462
50005W        W18335  42.390  14.306  13.352
50006W        W18336   3.802   7.397  13.336
50007W        W18337  38.432  17.613   2.887
50008W        W18338  39.338   6.921  12.994
50009W        W18339  18.062   6.372   3.352
50010W        W18340  30.093  11.357  11.566
50011W        W18341  33.584   0.773  11.465
50012W        W18342   9.781  31.121   3.654
50013W        W18343  32.899  43.924   0.469
50014W        W18344   0.785  34.399   1.707
50015W        W18345  25.064  37.497  12.537
50016W        W18346  18.175  42.294   2.299
50017W        W18347  24.637  10.877  14.907
50018W        W18348  19.689  39.511   2.270
50019W        W18349  33.526  22.168   0.848
50020W        W18350  32.459  35.531  14.937
50021W        W18351  33.950  20.753  14.361
50022W        W18352  41.460   9.308  13.840
50023W        W18353  22.221  16.729   3.248
50024W        W18354  17.659  27.116   4.633
50025W        W18355  18.785  23.623  12.435
50026W        W18356  38.016  32.977   4.661
50027W        W18357   1.354  17.566  14.351
50028W        W18358   3.311   4.889  10.038
50029W        W18359  24.541   1.343  12.053
50030W        W18360  11.671  13.142   2.305
50031W        W18361  25.491  21.716  13.414
50032W        W18362  25.539  30.967  13.818
50033W        W18363  22.577  29.605   3.672
50034W        W18364  42.401   9.178  14.506
50035W        W18365  32.142   7.211   1.238
50036W        W18366  34.549  17.286   2.364
50037W        W18367  33.604  21.515   4.816
50038W        W18368   5.341  15.087   1.739
50039W        W18369  32.463  36.009  12.876
50040W        W18370   4.385  12.707  13.826
50041W        W18371  44.319  20.540   2.259
50042W        W18372  25.047  13.119  11.931
50043W        W18373  25.146  17.659   2.887
50044W        W18374  34.025   2.419  12.533
50045W        W18375  37.042  26.088  14.901
50046W        W18376  41.897  23.665   9.980
50047W        W18377  15.634  22.027   3.837
50048W        W18378  27.631  10.709  12.893
50049W        W18379   3.432  22.662  11.989
50050W        W18380  43.458  41.464  12.367
50051W        W18381  28.488  21.605  12.390
50052W        W18382   2.249  12.855   0.455
50053W        W18383  33.004  22.722  11.393
50054W        W18384   3.945  33.387  14.462
50055W        W18385  14.212  33.116   2.699
50056W        W18386  19.081  18.128   2.819
50057W        W18387  36.352  19.092  12.996
50058W        W18388  42.956  34.908  11.871
50059W        W18389  19.733   6.217   0.452
50060W        W18390  15.627  24.707   0.817
50061W        W18391   8.185  23.221  11.981
50062W        W18392  38.535  38.025  13.917
50063W        W18393  16.700  33.026   0.356
50064W        W18394  19.158  15.814  11.536
50065W        W18395  43.944   6.294  12.899
50066W        W18396  11.723  38.965   1.420
50067W        W18397  16.602   1.445   1.852
50068W        W18398  40.525  39.384   2.358
50069W        W18399   2.865  40.498  10.919
50070W        W18400   6.847   2.906   0.371
50071W        W18401   2.949  36.065   5.599
50072W        W18402  13.218  21.600   1.360
50073W        W18403  38.076  21.126   0.270
50074W        W18404  20.120   8.754   5.320
50075W        W18405   0.447   7.796  11.380
50076W        W18406  21.650   1.298  13.843
50077W        W18407  20.554  43.899   1.265
50078W        W18408  13.658  31.088   4.816
50079W        W18409  31.542  32.466  14.418
50080W        W18410   1.970  18.605   1.757
50081W        W18411  35.397  44.831  14.301
50082W        W18412  32.634   1.267  14.933
50083W        W18413  15.733  43.960   3.190
50084W        W18414  32.559  36.086   0.355
50085W        W18415  11.367  11.647   1.222
50086W        W18416  30.144  36.074  11.870
50087W        W18417  17.134  11.728   1.708
50088W        W18418   9.292  13.227  13.837
50089W        W18419  41.353  22.136  11.987
50090W        W18420  25.533   9.176   4.262
50091W        W18421   8.888  40.505   2.835
50092W        W18422  29.092   4.932  11.456
50093W        W18423   6.740   0.962   0.772
50094W        W18424  43.851  41.827  10.620
50095W        W18425  44.493  27.085   0.352
50096W        W18426  33.066  25.131  14.782
50097W        W18427  17.629   0.311  14.926
50098W        W18428  38.832  21.224  10.938
50099W        W18429  30.095  14.675  12.908
50100W        W18430  18.618   9.886  10.546
50101W        W18431   3.389  37.891  10.546
50102W        W18432   4.908  25.182  13.410
50103W        W18433   4.299  43.000   0.864
50104W        W18434  41.314  35.572   4.785
50105W        W18435  22.721  25.690  11.053
50106W        W18436  39.910  15.641   1.840
50107W        W18437  36.010   6.415   3.265
50108W        W18438   9.175  43.343  11.038
50109W        W18439   4.271  16.251  10.495
50110W        W18440  12.829  24.533  11.448
50111W        W18441   4.373  20.132  13.993
50112W        W18442   8.805   3.929  11.966
50113W        W18443  41.964  41.462   0.245
50114W        W18444  39.315  20.162   3.358
50115W        W18445  10.146   3.923  13.518
50116W        W18446  40.484  12.324   1.744
50117W        W18447  34.436  36.008   4.664
50118W        W18448  34.594  15.760  12.558
50119W        W18449  39.963  43.976   0.323
50120W        W18450  24.076  10.226  11.116
50121W        W18451   1.809   9.703   2.867
50122W        W18452  38.872  32.625  10.485
50123W        W18453  44.303   4.340   4.786
50124W        W18454  10.267  23.021  10.953
50125W        W18455  22.744   7.415  14.886
50126W        W18456  30.582  11.656  14.415
50127W        W18457  28.135  10.633  11.020
50128W        W18458   2.316   3.745   1.251
50129W        W18459  19.698  44.347   1.404
50130W        W18460   0.772  28.178  14.790
50131W        W18461  40.834  14.244  12.561
50132W        W18462  33.491  39.959   3.831
50133W        W18463  20.204  36.381  14.883
50134W        W18464  26.051  43.873  13.909
50135W        W18465  17.147   7.186   2.324
50136W        W18466   0.348  37.429   3.836
50137W        W18467  22.716  19.768  12.546
50138W        W18468  11.197  40.489  13.376
50139W        W18469   5.720   7.401   1.322
50140W        W18470  31.408  20.553   0.785
50141W        W18471  13.233  33.004  13.898
50142W        W18472  10.286  12.631  13.849
50143W        W18473  38.459  10.241  13.796
50144W        W18474  26.527   2.946  10.508
50145W        W18475  13.126  19.747   3.725
50146W        W18476  36.979  20.599  13.814
50147W        W18477  25.139  13.840   1.295
50148W        W18478  26.495  34.082  12.086
50149W        W18479   9.669  22.054   2.187
50150W        W18480  21.727  38.518   1.853
50151W        W18481   4.309  19.640  13.964
50152W        W18482  42.942   7.699   1.774
50153W        W18483  36.887  32.906   4.645
50154W        W18484  42.476  29.545  11.873
50155W        W18485   0.288  13.298  14.940
50156W        W18486  30.412  10.713  10.625
50157W        W18487  43.449   6.686   1.256
50158W        W18488   8.193  42.299   3.721
50159W        W18489   9.758   3.946  10.972
50160W        W18490  38.022  22.097   4.785
50161W        W18491  39.380   4.814   4.351
50162W        W18492  27.581  34.038  10.003
50163W        W18493  38.528   1.437   4.128
50164W        W18494  26.481  13.625  11.874
50165W        W18495  32.634  23.560   4.657
50166W        W18496  15.592  34.088  14.356
50167W        W18497  43.942  34.551  11.492
50168W        W18498  14.632   8.370  14.291
50169W        W18499   0.417  12.790   4.258
50170W        W18500  19.178  27.587   1.776
50171W        W18501  25.045  19.710   2.338
50172W        W18502  26.617  26.639   0.427
50173W        W18503  41.954  14.102  14.851
50174W        W18504  27.620   9.358   1.248
50175W        W18505  35.450  17.111  12.088
50176W        W18506   5.223  12.792   2.237
50177W        W18507   4.248  42.956   3.341
50178W        W18508  27.946  33.096   1.804
50179W        W18509   4.881  32.463   5.256
50180W        W18510  18.228  16.697  13.548
50181W        W18511  19.711  30.146   0.854
50182W        W18512  18.699  15.637   0.342
50183W        W18513  12.223  21.217   3.805
50184W        W18514  11.680  10.667   0.437
50185W        W18515   6.719  26.561  11.123
50186W        W18516  13.274  15.599   4.181
50187W        W18517   2.815  44.433  12.545
50188W        W18518   5.316  39.436   0.323
50189W        W18519  24.091  11.812  12.457
50190W        W18520  28.056  33.495  10.900
50191W        W18521  14.188  38.049  10.467
50192W        W18522  25.492  34.109   2.793
50193W        W18523  25.019  29.021  14.281
50194W        W18524  30.982  39.503   4.135
50195W        W18525  38.398   9.888  12.360
50196W        W18526   2.243  41.977   0.396
50197W        W18527  27.670   4.819  13.877
50198W        W18528  13.222   0.768   2.323
50199W        W18529  42.463  20.056   0.861
50200W        W18530  39.912  33.981  12.032
50201W        W18531  35.874  26.675  14.398
50202W        W18532  23.068   2.417   1.765
50203W        W18533  11.655   5.709  11.477
50204W        W18534  41.855  26.666  10.585
50205W        W18535  42.921  20.634   4.792
50206W        W18536  36.531  16.118   3.200
50207W        W18537  43.322  39.982  14.893
50208W        W18538  10.343  33.467  12.947
50209W        W18539  36.091  35.547   0.466
50210W        W18540  27.454   2.802   2.831
50211W        W18541  11.287   7.840  12.485
50212W        W18542  40.948  36.002  14.354
50213W        W18543  24.197  17.175   0.338
50214W        W18544  38.418  35.039  11.568
50215W        W18545  13.232  34.910   5.089
50216W        W18546  11.257   1.917   4.680
50217W        W18547  35.873  37.550  14.854
50218W        W18548  43.327  18.621   4.136
50219W        W18549  30.480  34.553  14.341
50220W        W18550  37.959  44.502   0.764
50221W        W18551  21.139   4.353   1.793
50222W        W18552   8.179  30.413  13.027
50223W        W18553  15.182   5.740  10.446
50224W        W18554  44.302  27.682  12.031
50225W        W18555   7.370   4.937  11.509
50226W        W18556  38.889   5.827  11.900
50227W        W18557  25.094  34.996  14.923
50228W        W18558  25.996  32.064   3.248
50229W        W18559  43.820  43.308   1.347
50230W        W18560  43.808  13.179   4.306
50231W        W18561  27.506   3.319  12.850
50232W        W18562   8.188  35.475   3.342
50233W        W18563  30.036  28.051  12.056
50234W        W18564   5.713  21.200  14.966
50235W        W18565  12.284  43.860   0.794
50236W        W18566   4.766   3.327  13.004
50237W        W18567  27.684  10.865   3.339
50238W        W18568   1.865  44.788  13.969
50239W        W18569  22.530  29.046  13.405
50240W        W18570  44.832  15.113  10.433
50241W        W18571  32.415  24.677  14.026
50242W        W18572  25.611  14.256   2.827
50243W        W18573   5.837  24.096  13.978
50244W        W18574  12.779  23.680  14.000
50245W        W18575  40.362  19.127   4.284
50246W        W18576  15.807  25.012   1.298
50247W        W18577  22.015   3.765  13.999
50248W        W18578   7.698  43.480   1.868
50249W        W18579  22.240   0.478   0.337
50250W        W18580  17.299  39.483   4.762
50251W        W18581  33.014  44.009  10.500
50252W        W18582  30.048  41.338  11.932
50253W        W18583  19.264  26.661  12.497
50254W        W18584   6.325  21.599  10.466
50255W        W18585  18.662  16.609  11.405
50256W        W18586  30.059  44.840  12.432
50257W        W18587   2.841  26.035   4.203
50258W        W18588  37.048  16.103   3.728
50259W        W18589   0.371  10.323   4.169
50260W        W18590  17.231  14.339   4.691
50261W        W18591   6.301   0.906  11.515
50262W        W18592  40.027  41.026   4.120
50263W        W18593   5.769   4.937   4.713
50264W        W18594  12.803   3.297   0.748
50265W        W18595  13.314   2.321   1.258
50266W        W18596  28.934  22.536  12.535
50267W        W18597   1.392  11.302   4.181
50268W        W18598   6.757  31.414   1.285
50269W        W18599   4.377  33.446  11.022
50270W        W18600  30.146  44.466   1.879
50271W        W18601  18.214  25.662  13.825
50272W        W18602   3.843  40.324   1.912
50273W        W18603   0.410  16.131   1.838
50274W        W18604  36.885  28.618  13.379
50275W        W18605  23.005  11.651   0.861
50276W        W18606  32.474   4.254   3.678
50277W        W18607  44.345  13.333   4.315
50278W        W18608  35.573  25.694  12.000
50279W        W18609  14.757  25.516   1.434
50280W        W18610  18.062  24.669   0.930
50281W        W18611   1.865  42.429   3.249
50282W        W18612  24.026   0.876   5.289
50283W        W18613   1.386  23.005  13.402
50284W        W18614  25.171  32.132   1.302
50285W        W18615   8.657  30.654   3.640
50286W        W18616   3.742   6.739   4.289
50287W        W18617  19.551  34.000  13.435
50288W        W18618  39.960  29.099   4.176
50289W        W18619  31.442  33.903   2.290
50290W        W18620  38.366   9.363  12.446
50291W        W18621  29.133   5.369   3.219
50292W        W18622  24.169   8.272  13.981
50293W        W18623  44.989  30.469  13.841
50294W        W18624  26.507  15.800   1.851
50295W        W18625  41.926  18.190  13.394
50296W        W18626  14.157  15.761  10.994
50297W        W18627   4.237  40.945  13.341
50298W        W18628  37.408  15.166   0.869
50299W        W18629  28.983  21.625   1.718
50300W        W18630  25.978   3.409   0.935
50301W        W18631  33.462   3.402  14.812
50302W        W18632   3.296  15.089   2.221
50303W        W18633  28.510  37.453   3.218
50304W        W18634  28.996   2.733  12.532
50305W        W18635  23.718  19.738  14.889
50306W        W18636  44.953  27.115  14.386
50307W        W18637  28.463  43.945  10.944
50308W        W18638  39.930  31.489  13.507
50309W        W18639   9.184  21.259   0.747
50310W        W18640  31.945  25.012   4.204
50311W        W18641  40.835  33.038   0.885
50312W        W18642  20.736  31.149  10.984
50313W        W18643   0.891  42.424  10.583
50314W        W18644  15.281   7.859   4.824
50315W        W18645  33.622  13.109   4.646
50316W        W18646  23.706  12.261  13.031
50317W        W18647   5.918  13.610  11.055
50318W        W18648  42.819  23.572   0.261
50319W        W18649  20.761  22.074  11.024
50320W        W18650  36.435  11.713   0.769
50321W        W18651  28.603   7.858   0.819
50322W        W18652   7.393  16.223  12.010
50323W        W18653  35.481  17.241  11.058
50324W        W18654  14.612  13.113  14.937
50325W        W18655  22.196  42.931  13.443
50326W        W18656  20.730  20.564  14.887
50327W        W18657  18.779  22.653   5.609
50328W        W18658   4.914  20.522  14.831
50329W        W18659  22.620   7.735   9.534
50330W        W18660  27.650  28.118   0.950
50331W        W18661   7.312   7.794  14.785
50332W        W18662  39.958  14.170   1.757
50333W        W18663  15.600  26.530   0.759
50334W        W18664  44.414  36.579  11.999
50335W        W18665  41.869  20.169   2.788
50336W        W18666  27.574  15.739  10.889
50337W        W18667  13.246  25.571   2.220
50338W        W18668   1.447  24.994  11.382
50339W        W18669  22.243  43.501   1.856
50340W        W18670  44.426  35.478   0.456
50341W        W18671  16.183  44.891   4.258
50342W        W18672  27.063  23.093  12.348
50343W        W18673  21.147  27.614  14.516
50344W        W18674   5.244  19.584   2.854
50345W        W18675   5.222  38.877   1.697
50346W        W18676  17.741  12.690   4.123
50347W        W18677  12.172  42.947   2.897
50348W        W18678  37.386  44.469  13.959
50349W        W18679  35.596  23.190  12.004
50350W        W18680  37.410  28.010  11.956
50351W        W18681  35.035  21.728  11.563
50352W        W18682  39.417  32.017  11.471
50353W        W18683  38.948  24.226  11.519
50354W        W18684  35.937  27.061   4.237
50355W        W18685  43.487  30.098   3.723
50356W        W18686  34.958  20.051  12.367
50357W        W18687  44.907  27.680   4.691
50358W        W18688  19.606  41.940   0.842
50359W        W18689   7.218   5.789   4.673
50360W        W18690  35.571  12.796  10.945
50361W        W18691   1.410  29.078  11.405
50362W        W18692  24.593  13.823   3.312
50363W        W18693  27.651  25.480  14.389
50364W        W18694   0.254  38.948   3.354
50365W        W18695  37.521  17.707  14.342
50366W        W18696  28.957  30.557   1.346
50367W        W18697  30.046  38.009  12.915
50368W        W18698  12.704  43.357   4.801
50369W        W18699   9.345  26.012  13.939
50370W        W18700  10.705   8.747  10.983
50371W        W18701  23.034  27.460  13.062
50372W        W18702   7.794  27.595   3.169
50373W        W18703  39.435  27.552   4.181
50374W        W18704  12.689  25.658   2.190
50375W        W18705  32.598  41.523   5.144
50376W        W18706  13.704   8.320  13.024
50377W        W18707  26.126   3.236  12.516
50378W        W18708  34.976   8.852   1.224
50379W        W18709   4.795  22.528   5.316
50380W        W18710  22.239  44.313  11.039
50381W        W18711  39.434  37.454   4.327
50382W        W18712  22.714  32.954  13.393
50383W        W18713  35.080  41.933  10.412
50384W        W18714  36.494   0.266  13.920
50385W        W18715  42.876  28.103   5.286
50386W        W18716  27.951  41.324   1.814
50387W        W18717  32.058  12.166  13.502
50388W        W18718  17.710  29.597   4.253
50389W        W18719  36.010   3.803  10.971
50390W        W18720  12.182  14.609  12.406
50391W        W18721   7.897  19.767   1.772
50392W        W18722  22.703  43.910   3.290
50393W        W18723  22.617  18.287   4.757
50394W        W18724  21.162  26.638   2.801
50395W        W18725  28.509  15.733  12.042
50396W        W18726  13.251  38.394  10.995
50397W        W18727   6.795  44.298  11.035
50398W        W18728   3.940  42.289  13.353
50399W        W18729   6.301   8.277   2.802
50400W        W18730  17.123  28.143   2.336
50401W        W18731  15.742   1.419   3.307
50402W        W18732   2.417  36.904   1.776
50403W        W18733   9.321  43.864  12.854
50404W        W18734  36.928  23.720   2.858
50405W        W18735  35.897   0.868   0.428
50406W        W18736  44.902   2.472   1.359
50407W        W18737   6.404  35.422  11.092
50408W        W18738  36.963   2.265   1.860
50409W        W18739  27.529  28.610   3.376
50410W        W18740  14.768  36.047   3.682
50411W        W18741  25.479   7.226   4.742
50412W        W18742  16.255  23.226   2.825
50413W        W18743  44.334  39.002   4.654
50414W        W18744  11.237  17.220   3.631
50415W        W18745  34.022   8.784  11.955
50416W        W18746  11.285  33.555  10.522
50417W        W18747   3.873  24.597  13.792
50418W        W18748  27.952  16.694  10.128
50419W        W18749   4.807   8.337  13.347
50420W        W18750  32.984   5.752   1.728
50421W        W18751   3.290  44.434  12.991
50422W        W18752  34.433  12.304   2.226
50423W        W18753  25.670  15.651  10.083
50424W        W18754  11.161  21.230   2.797
50425W        W18755  42.456  30.605  10.555
50426W        W18756  33.061  17.576  14.493
50427W        W18757  23.579  14.731  12.440
50428W        W18758  40.012   8.723   3.276
50429W        W18759  32.956  41.948   4.183
50430W        W18760  14.799  38.070  10.967
50431W        W18761  22.118   9.255  10.562
50432W        W18762  16.159   8.389   0.415
50433W        W18763  30.125  31.503   1.923
50434W        W18764  13.207  22.727  12.432
50435W        W18765  25.543  12.175   2.687
50436W        W18766  14.337  28.458  10.643
50437W        W18767  26.669  28.096  12.931
50438W        W18768  26.623  29.966  13.532
50439W        W18769  25.011   9.256   4.145
50440W        W18770  25.679  10.693   1.745
50441W        W18771  43.515   3.400  10.120
50442W        W18772   0.944   5.822  14.786
50443W        W18773  33.118   0.819  12.467
50444W        W18774  37.969  21.060  14.352
50445W        W18775  33.517  22.529  13.891
50446W        W18776   1.932  15.194  12.457
50447W        W18777  40.042  15.281   0.917
50448W        W18778   8.844  16.175   3.787
50449W        W18779  20.753  16.231   0.844
50450W        W18780  20.662   8.656   4.147
50451W        W18781  10.238  28.184  11.860
50452W        W18782  43.287   8.728   5.299
50453W        W18783   3.388   2.439   1.305
50454W        W18784  34.022  35.497   4.838
50455W        W18785  18.709  43.877   3.754
50456W        W18786  34.957   5.305   0.921
50457W        W18787   1.473  13.634   1.836
50458W        W18788  34.416  33.878  14.306
50459W        W18789  42.800  11.679  14.818
50460W        W18790  19.107  28.511   1.443
50461W        W18791  42.421   2.265  13.060
50462W        W18792   1.388  22.033  10.535
50463W        W18793  11.713  26.040  13.932
50464W        W18794   8.873  24.569   2.893
50465W        W18795   5.719  27.023  13.852
50466W        W18796  33.410  29.166   0.305
50467W        W18797  27.166  27.577   2.219
50468W        W18798  27.526  11.357  14.449
50469W        W18799  23.023  34.473   4.783
50470W        W18800  36.502  16.084   1.723
50471W        W18801  11.776  27.482  14.786
50472W        W18802  38.056  21.211   1.705
50473W        W18803  25.097  20.692  10.542
50474W        W18804  35.928  30.569  11.398
50475W        W18805   8.249  35.463  12.993
50476W        W18806   3.268  10.179   3.182
50477W        W18807   9.682  35.884  12.824
50478W        W18808  36.498  13.715   3.374
50479W        W18809  11.648   0.418  14.003
50480W        W18810  11.847  42.889   3.355
50481W        W18811  26.987  11.133   0.312
50482W        W18812  24.602  32.138  12.868
50483W        W18813  35.396  14.281   0.258
50484W        W18814  10.843  37.457  14.345
50485W        W18815  42.461  39.965   3.632
50486W        W18816  19.709  31.481  10.949
50487W        W18817  36.516  21.740  11.995
50488W        W18818  22.163  38.071  13.946
50489W        W18819  22.216   7.840   1.390
50490W        W18820  42.890  31.619   2.821
50491W        W18821  38.981  11.732   0.366
50492W        W18822  26.972  43.773   2.311
50493W        W18823  12.728  17.216  11.989
50494W        W18824   3.728  19.190   2.861
50495W        W18825  11.732  15.656  12.456
50496W        W18826  12.316   1.282   1.328
50497W        W18827  31.639   0.765  11.103
50498W        W18828  33.100  31.024   4.326
50499W        W18829   1.937  27.135  11.992
50500W        W18830  37.893  38.525   1.217
50501W        W18831   5.822   1.388   2.723
50502W        W18832  16.120  30.452   3.833
50503W        W18833  33.915  12.344  12.947
50504W        W18834  14.319  31.419  12.029
50505W        W18835  41.966  32.452   1.415
50506W        W18836   3.442  36.372   2.749
50507W        W18837  37.893  44.888   1.889
50508W        W18838  18.665   4.710  13.998
50509W        W18839  31.644  27.016  11.456
50510W        W18840   1.964  15.249   3.850
50511W        W18841  12.147  31.050  11.114
50512W        W18842  27.589  44.293  12.943
50513W        W18843  10.350  16.128  13.993
50514W        W18844  21.128  38.545  13.933
50515W        W18845  28.981  31.018  11.862
50516W        W18846   7.374   6.423   4.240
50517W        W18847  28.169  11.182   0.279
50518W        W18848  28.650  10.705  14.317
50519W        W18849  29.454  16.741   2.312
50520W        W18850   6.902  42.377  11.982
50521W        W18851  32.081  27.659  12.975
50522W        W18852  28.963  18.589  11.571
50523W        W18853  14.100  18.081   4.602
50524W        W18854  28.499  25.692   1.418
50525W        W18855  19.198  40.882   4.798
50526W        W18856  15.177  16.313  13.856
50527W        W18857  36.481  32.072  10.463
50528W        W18858  10.364  15.672   5.094
50529W        W18859  27.178  40.461  14.479
50530W        W18860  28.483   4.764  10.932
50531W        W18861  39.472  23.146  12.859
50532W        W18862  23.082   7.893   5.677
50533W        W18863  37.888  34.467  10.151
50534W        W18864  33.093  25.055  11.475
50535W        W18865  33.014  35.042  14.477
50536W        W18866  21.595  41.531   2.836
50537W        W18867  23.234  18.640   2.324
50538W        W18868  11.317  12.668   2.200
50539W        W18869  14.238  24.712  11.962
50540W        W18870  17.778   7.679  11.536
50541W        W18871  12.680  33.424   4.814
50542W        W18872  10.273  22.122   0.268
50543W        W18873   0.445   0.299  13.378
50544W        W18874  40.303  38.388  14.967
50545W        W18875  36.904   1.907   3.311
50546W        W18876  30.471  36.968   2.221
50547W        W18877  42.791  30.032   3.312
50548W        W18878  31.936  18.560   4.598
50549W        W18879   1.324  22.100   4.137
50550W        W18880   0.365  16.310  11.069
50551W        W18881  25.568   6.895  13.976
50552W        W18882  22.131  35.026   0.279
50553W        W18883  13.689  29.444  10.964
50554W        W18884  34.031  39.345  14.495
50555W        W18885  32.479  35.577  13.879
50556W        W18886   6.299  37.960  12.569
50557W        W18887  26.017  18.630   4.744
50558W        W18888  14.619  41.377   4.139
50559W        W18889  14.593   9.266  14.432
50560W        W18890  30.461  39.810  10.558
50561W        W18891   8.767  41.942  10.432
50562W        W18892  26.037  36.383  11.974
50563W        W18893  18.219  42.909  10.439
50564W        W18894  37.466  21.514  12.406
50565W        W18895  23.075  33.409  13.408
50566W        W18896  39.417  34.408   3.804
50567W        W18897  16.280  31.134   1.799
50568W        W18898   9.803   7.219   4.759
50569W        W18899  32.599  26.517   5.294
50570W        W18900  20.223  36.392   1.767
50571W        W18901   9.155  25.537  10.604
50572W        W18902   1.806  16.778  12.995
50573W        W18903  16.317  15.714  12.886
50574W        W18904  14.290  20.090   0.845
50575W        W18905  30.413  38.414  12.442
50576W        W18906  36.548   3.248   1.896
50577W        W18907   9.316  41.850  14.001
50578W        W18908  19.187  16.660  11.591
50579W        W18909  32.463  41.031   0.948
50580W        W18910  27.490  39.327   3.300
50581W        W18911  20.212  22.009  12.344
50582W        W18912  18.136  37.411  13.056
50583W        W18913  20.566  39.920   3.182
50584W        W18914  44.482  31.116   0.821
50585W        W18915  35.438   3.817  14.387
50586W        W18916  31.474  19.651   3.654
50587W        W18917  26.458  39.419  13.509
50588W        W18918  28.589  41.414   4.286
50589W        W18919  36.384  38.469   1.348
50590W        W18920  27.019   5.200  13.037
50591W        W18921   1.746  18.635  11.581
50592W        W18922  20.035  42.836   0.311
50593W        W18923  36.410  13.743  12.394
50594W        W18924  11.740  36.390   4.654
50595W        W18925   2.762  22.554  13.487
50596W        W18926  11.683  33.421  12.369
50597W        W18927  15.789  40.312   3.794
50598W        W18928  32.433  16.183  13.327
50599W        W18929  22.192  22.700  14.009
50600W        W18930  13.337  12.743  13.903
50601W        W18931  22.541   1.967  11.052
50602W        W18932  29.032  44.960   4.729
50603W        W18933   7.845   7.793  12.825
50604W        W18934  41.455  24.502   3.738
50605W        W18935  31.114  10.366   2.722
50606W        W18936  22.198  10.284  12.487
50607W        W18937  21.139   8.900   0.733
50608W        W18938  33.442  27.048   3.175
50609W        W18939   0.793  42.854   2.246
50610W        W18940  19.129  29.507   5.755
50611W        W18941  14.642  35.861  14.504
50612W        W18942  34.608  15.684  13.384
50613W        W18943   7.709   3.299   9.983
50614W        W18944  44.496   4.866   0.779
50615W        W18945  21.072  22.722   1.259
50616W        W18946  18.133  35.852  14.858
50617W        W18947   7.855  10.169  11.060
50618W        W18948  30.009  16.777  10.585
50619W        W18949  40.843  37.456   1.904
50620W        W18950   0.347  32.142  12.514
50621W        W18951  19.083  20.231  13.934
50622W        W18952  12.257  28.605   4.250
50623W        W18953  13.708  13.119  14.856
50624W        W18954  10.379  36.420   1.277
50625W        W18955  17.749  26.045  14.284
50626W        W18956   8.371  26.995   4.673
50627W        W18957  42.302  41.303  12.859
50628W        W18958  34.602  14.614   4.156
50629W        W18959  30.074   3.899   4.317
50630W        W18960   8.862  14.268   4.837
50631W        W18961  29.424  41.926   2.212
50632W        W18962   5.690  29.982   1.382
50633W        W18963  32.078  30.056   3.760
50634W        W18964   0.845  27.598   1.841
50635W        W18965   2.915  39.392   3.295
50636W        W18966   9.733   9.842  12.956
50637W        W18967  37.952  44.933  14.365
50638W        W18968  31.549  30.586  11.074
50639W        W18969  34.425  11.816  13.445
50640W        W18970  24.497  28.021  14.022
50641W        W18971  20.149   7.356  12.570
50642W        W18972  22.661  27.674  12.418
50643W        W18973  25.123  11.642  14.343
50644W        W18974  23.512   3.865   3.191
50645W        W18975  34.927  44.005  14.458
50646W        W18976  19.653  13.767   3.227
50647W        W18977   0.262  39.381   3.798
50648W        W18978  19.209  27.960   4.627
50649W        W18979  28.486   4.234   0.912
50650W        W18980  25.714  23.070  10.598
50651W        W18981  42.782  24.679  12.551
50652W        W18982  30.624  36.369   2.318
50653W        W18983   6.890  22.126   0.419
50654W        W18984  34.487  22.106  11.904
50655W        W18985  25.973   9.358   3.342
50656W        W18986  40.500  16.807   2.380
50657W        W18987  43.811  43.796  14.824
50658W        W18988   6.383  29.088  12.351
50659W        W18989  36.556  43.497  14.404
50660W        W18990  34.063  21.555  11.861
50661W        W18991   6.885  23.085  12.942
50662W        W18992   9.657  16.688   0.474
50663W        W18993  20.566  31.638   3.173
50664W        W18994  19.728  27.547  14.838
50665W        W18995   5.921   5.389   1.259
50666W        W18996  34.610   4.225  10.436
50667W        W18997  23.236  30.506   5.690
50668W        W18998  25.694  23.166   3.647
50669W        W18999  26.687  36.866  14.769
50670W        W19000  31.635   4.268  10.544
50671W        W19001  27.117  12.716   0.461
50672W        W19002  33.558  16.756   1.307
50673W        W19003  36.855  31.422   4.691
50674W        W19004  41.534  15.195  13.402
50675W        W19005  43.431   3.733   3.739
50676W        W19006  15.622   9.290   1.859
50677W        W19007  10.774  27.140   2.847
50678W        W19008  17.294  38.062   9.953
50679W        W19009  34.118  18.232   4.330
50680W        W19010  16.160  39.833  13.360
50681W        W19011  12.724   0.275   0.429
50682W        W19012   2.294  35.522  13.359
50683W        W19013  27.131  29.456   3.865
50684W        W19014   9.685  36.865   1.797
50685W        W19015   9.657  17.761   1.832
50686W        W19016  21.534  20.546  13.917
50687W        W19017  22.139   4.409   3.827
50688W        W19018  33.544  38.503   0.263
50689W        W19019  38.397   6.807   0.786
50690W        W19020  24.213  37.372  13.034
50691W        W19021  32.565   8.401  14.988
50692W        W19022  22.238  31.072   4.170
50693W        W19023  12.154  19.742   3.303
50694W        W19024  42.319   9.829   4.349
50695W        W19025   1.479  12.801   0.347
50696W        W19026   2.354   3.354  10.480
50697W        W19027   1.416  38.948   4.646
50698W        W19028  13.769  12.187   2.876
50699W        W19029  22.703  22.659   0.350
50700W        W19030  41.015  12.804  13.994
50701W        W19031  11.253  43.486  13.896
50702W        W19032   1.924  11.176  11.901
50703W        W19033  12.638  40.364  14.321
50704W        W19034   5.226  10.873   2.326
50705W        W19035  32.913   0.835  13.985
50706W        W19036   2.452  12.282  14.397
50707W        W19037  33.901  15.305  13.369
50708W        W19038  41.528   7.175  12.364
50709W        W19039  33.057  29.501   1.325
50710W        W19040  11.205  20.195   4.789
50711W        W19041  39.353  33.082  14.840
50712W        W19042  30.964  30.463   3.154
50713W        W19043  44.773   4.374  10.975
50714W        W19044  43.326   8.318  13.487
50715W        W19045  38.376  35.918   3.795
50716W        W19046   4.945   4.734  10.098
50717W        W19047  27.502  38.851  12.010
50718W        W19048  24.537  37.426   1.747
50719W        W19049   6.873  40.541   0.855
50720W        W19050  39.468  10.801  13.494
50721W        W19051  23.685  13.237  11.524
50722W        W19052   1.805  23.532   3.786
50723W        W19053  21.731  32.480  14.475
50724W        W19054  23.588  35.032  14.884
50725W        W19055  16.086   2.434   0.792
50726W        W19056  35.449  10.835   3.705
50727W        W19057  23.064  16.127   3.697
50728W        W19058  42.288  21.728   4.739
50729W        W19059  36.916  16.648   2.314
50730W        W19060   3.730  23.522  11.376
50731W        W19061  43.512  40.342   0.334
50732W        W19062  10.203  33.454   5.153
50733W        W19063  35.106  26.483  11.477
50734W        W19064  10.696  15.118   4.701
50735W        W19065  29.002  28.592   0.779
50736W        W19066   0.908  16.135  11.960
50737W        W19067  21.167   0.957  11.084
50738W        W19068  18.678  39.955   4.718
50739W        W19069  39.877  23.137   1.746
50740W        W19070  15.642  19.682  13.446
50741W        W19071  20.531  42.776   2.334
50742W        W19072  35.444  17.199   3.766
50743W        W19073  28.946  29.075  10.512
50744W        W19074  20.241  18.145  13.445
50745W        W19075  41.950   3.271   1.391
50746W        W19076   4.839   5.835  10.977
50747W        W19077  22.198  10.635  13.833
50748W        W19078  15.735  16.197   2.826
50749W        W19079  21.242  36.936  13.020
50750W        W19080  18.161   4.721   4.292
50751W        W19081   4.218   2.884  13.434
50752W        W19082  16.285  36.886  11.485
50753W        W19083  16.098  38.918   1.843
50754W        W19084  40.904   2.879  12.388
50755W        W19085  42.999  20.041  13.878
50756W        W19086  22.712  14.302  11.979
50757W        W19087  37.464  20.614   2.849
50758W        W19088  30.147  22.742   0.948
50759W        W19089  31.619  17.292  13.356
50760W        W19090  15.145  21.216   0.482
50761W        W19091  16.172  42.964  11.453
50762W        W19092  35.522  30.093  10.989
50763W        W19093   6.409  16.238   3.228
50764W        W19094  39.407  11.259  14.425
50765W        W19095  37.055  11.238   3.711
50766W        W19096  22.554  10.305  13.336
50767W        W19097   0.879  14.311  13.441
50768W        W19098  24.111  42.440   2.671
50769W        W19099  13.699  33.078   1.864
50770W        W19100   4.348  37.505  10.973
50771W        W19101  17.133  44.460   1.280
50772W        W19102   8.813  43.937   3.291
50773W        W19103  16.800  35.009   0.942
50774W        W19104  43.846  22.646  11.886
50775W        W19105   3.236  24.067   1.856
50776W        W19106   1.311  29.476  14.480
50777W        W19107  20.755  31.419  13.973
50778W        W19108   4.279  25.571   2.322
50779W        W19109   7.399   4.700  10.446
50780W        W19110   6.887  44.480   0.388
50781W        W19111  23.519  26.486  11.427
50782W        W19112  15.776   1.474  13.815
50783W        W19113  42.303  12.734  12.915
50784W        W19114  11.793  30.488   3.705
50785W        W19115   2.451   1.400   1.791
50786W        W19116  39.919   4.824   1.262
50787W        W19117  17.252  42.449   2.205
50788W        W19118  20.234   8.305   4.278
50789W        W19119  34.019  21.584  13.019
50790W        W19120  15.292  42.845  12.894
50791W        W19121  17.089   5.933  10.013
50792W        W19122   7.676   4.835  10.022
50793W        W19123   5.887   8.388   2.690
50794W        W19124  27.008  34.538  14.907
50795W        W19125  38.504  44.334  14.344
50796W        W19126   1.336  39.058  14.455
50797W        W19127  36.061  28.929  12.356
50798W        W19128  38.873   6.875   3.745
50799W        W19129  13.760  10.295   9.943
50800W        W19130  33.057  42.409   3.256
50801W        W19131  18.766  21.601   0.962
50802W        W19132  40.866   2.960  13.973
50803W        W19133  40.805  38.538   1.768
50804W        W19134  10.876  27.047  14.835
50805W        W19135  27.189  29.533  12.968
50806W        W19136  12.229  15.305  14.956
50807W        W19137  38.402  25.691  10.992
50808W        W19138   4.781  26.980   2.257
50809W        W19139   6.923  10.693  11.960
50810W        W19140  38.495  11.849   3.253
50811W        W19141  40.379  27.138   1.896
50812W        W19142  20.692  19.170  12.896
50813W        W19143  25.658  38.559  11.417
50814W        W19144   9.759  22.063  12.930
50815W        W19145  15.207  26.476   1.268
50816W        W19146  17.703  18.109   2.903
50817W        W19147  36.028  36.476   1.241
50818W        W19148  18.218   3.943  11.128
50819W        W19149  29.055  21.178   5.746
50820W        W19150  14.129  16.301   3.200
50821W        W19151  24.697  38.881   1.744
50822W        W19152   0.288  26.132  14.930
50823W        W19153  13.822  40.307  13.504
50824W        W19154  33.108  14.646  10.528
50825W        W19155   0.274   6.785  12.023
50826W        W19156  44.350   9.718  10.961
50827W        W19157  33.617   6.414  10.636
50828W        W19158  24.647  40.039  12.887
50829W        W19159  39.875   5.881  11.443
50830W        W19160  24.226  37.076   4.212
50831W        W19161  23.541  29.930  11.392
50832W        W19162  29.130  38.532   4.745
50833W        W19163  14.159  21.116  11.606
50834W        W19164  20.108   4.878  12.552
50835W        W19165  11.361   9.314   3.685
50836W        W19166  19.196   2.281   0.372
50837W        W19167  22.690   6.303   1.230
50838W        W19168  13.351  25.591  11.962
50839W        W19169   2.935  33.050   4.709
50840W        W19170  23.718  38.561   0.477
50841W        W19171  10.859  35.556   0.760
50842W        W19172  31.113   8.206   2.675
50843W        W19173  19.620   2.777   3.650
50844W        W19174   7.217  13.199  12.393
50845W        W19175  32.422  29.972  14.775
50846W        W19176  18.293   1.934   3.327
50847W        W19177  41.446  39.869   4.247
50848W        W19178  10.224  31.071   0.339
50849W        W19179  14.641  16.638  13.450
50850W        W19180  28.002   1.771  14.781
50851W        W19181  27.553  14.247   3.250
50852W        W19182  38.347  39.424   0.824
50853W        W19183  40.014  24.556  11.489
50854W        W19184  30.075   7.789   0.790
50855W        W19185  37.914  35.099   2.836
50856W        W19186  15.179  11.214  14.028
50857W        W19187   1.733  26.657   4.140
50858W        W19188  41.955  38.344  10.471
50859W        W19189  21.074  33.976  11.900
50860W        W19190  14.726  35.888   0.431
50861W        W19191  22.069   0.942  12.541
50862W        W19192  39.874  36.401   0.824
50863W        W19193  30.939  21.721  12.572
50864W        W19194  31.527  34.945  12.013
50865W        W19195  16.296   7.362  11.887
50866W        W19196   3.905   9.648   0.874
50867W        W19197  20.531  18.661   3.272
50868W        W19198  15.183  13.117  12.520
50869W        W19199  22.507  40.996   4.836
50870W        W19200  38.369  23.633   3.805
50871W        W19201   8.304  33.041  11.433
50872W        W19202  20.255  18.056  14.027
50873W        W19203  36.996  38.005  13.804
50874W        W19204  33.403  11.712  13.915
50875W        W19205   5.413   1.825  12.981
50876W        W19206  31.593  25.684  14.869
50877W        W19207  30.112   9.281  14.281
50878W        W19208   2.862  40.538   1.409
50879W        W19209   2.731  28.449   1.847
50880W        W19210  41.995  18.788   0.781
50881W        W19211  42.876  22.235  14.853
50882W        W19212  26.679   2.787  13.039
50883W        W19213  26.061  34.509   1.333
50884W        W19214  23.131  25.475   3.284
50885W        W19215  35.025  12.152  13.046
50886W        W19216  14.749  37.884  12.431
50887W        W19217  40.904   0.988   1.380
50888W        W19218  20.192   9.349   3.679
50889W        W19219  30.569   3.886  11.408
50890W        W19220   6.848  13.632  13.834
50891W        W19221  22.059   9.861   1.780
50892W        W19222   6.921  17.105  11.995
50893W        W19223  19.095  33.484  14.940
50894W        W19224  18.068   8.173  11.494
50895W        W19225  41.015  20.253   3.336
50896W        W19226  13.787  11.839   4.279
50897W        W19227   9.711  11.294   1.328
50898W        W19228  32.541  10.195  14.830
50899W        W19229   6.265  41.948  12.841
50900W        W19230  35.602  42.381   0.876
50901W        W19231   4.394   8.804   2.678
50902W        W19232  42.814   1.845  13.419
50903W        W19233  28.186   0.333   3.149
50904W        W19234  29.086   3.873  11.982
50905W        W19235   7.785  23.660   1.815
50906W        W19236   4.709  36.399   0.468
50907W        W19237  16.263  39.846  14.304
50908W        W19238   3.404   9.879  14.032
50909W        W19239   9.703  22.710   0.433
50910W        W19240  14.624  26.575   1.889
50911W        W19241  27.683  18.217   0.877
50912W        W19242  18.101  23.129  14.021
50913W        W19243  10.351   3.404  10.894
50914W        W19244  27.620  38.349  14.946
50915W        W19245  29.126   8.241  14.827
50916W        W19246  18.061  37.338  11.384
50917W        W19247   7.713  24.228   5.192
50918W        W19248  38.940  26.529  14.511
50919W        W19249  36.463  21.559  13.929
50920W        W19250  41.959   6.400  14.925
50921W        W19251  31.993  24.680  10.557
50922W        W19252  32.515  38.500  12.340
50923W        W19253  32.061  27.520   4.725
50924W        W19254  10.778  15.321   1.884
50925W        W19255   1.283   1.819   3.839
50926W        W19256   2.847  16.311  10.431
50927W        W19257  40.943  21.165  10.932
50928W        W19258   9.237  33.450  10.129
50929W        W19259  41.382   1.306   4.180
50930W        W19260  12.763   7.399   4.247
50931W        W19261  17.577  29.051  12.363
50932W        W19262  17.195  35.417   0.474
50933W        W19263  27.113  21.544   3.752
50934W        W19264  27.030  29.099   0.331
50935W        W19265  39.356  15.820   0.375
50936W        W19266  29.518   3.227  12.497
50937W        W19267  40.439  13.286   1.266
50938W        W19268  23.631  13.818   3.318
50939W        W19269  13.273  33.409   4.181
50940W        W19270  24.043  40.823  11.866
50941W        W19271  16.249   8.890  12.854
50942W        W19272  39.500  35.936   2.343
50943W        W19273  32.012  11.187  11.400
50944W        W19274  41.480   8.325  12.393
50945W        W19275   8.829   9.377   2.792
50946W        W19276  34.477  37.007   2.414
50947W        W19277  10.783  34.067   0.311
50948W        W19278  18.575  39.381   1.212
50949W        W19279  30.143  25.999  11.419
50950W        W19280  22.506  34.107  13.452
50951W        W19281  22.697  21.543   1.449
50952W        W19282  29.072   5.905   1.825
50953W        W19283  38.946  22.197   4.317
50954W        W19284  43.914  12.684  14.959
50955W        W19285  41.510  42.891   2.847
50956W        W19286  21.122  29.075  13.917
50957W        W19287  16.152   4.725  12.017
50958W        W19288  11.155  29.595  12.386
50959W        W19289  23.505   4.430   1.854
50960W        W19290  12.362  33.435   0.281
50961W        W19291  12.233  40.000   4.656
50962W        W19292  44.352  36.869   1.423
50963W        W19293  28.537  25.555   3.190
50964W        W19294  31.435  38.372   4.143
50965W        W19295   3.789  18.078  14.358
50966W        W19296   6.820  25.074   2.243
50967W        W19297  37.411  17.628  13.903
50968W        W19298   4.886  28.654   0.778
50969W        W19299  17.664  27.468  14.002
50970W        W19300  31.026  38.565  14.364
50971W        W19301   8.710  23.579   2.803
50972W        W19302  36.069  11.661  14.426
50973W        W19303  12.190   0.282  13.919
50974W        W19304   9.741  11.763  11.424
50975W        W19305   3.922  21.212   2.779
50976W        W19306  36.401   4.349   4.820
50977W        W19307  17.797  12.204   4.784
50978W        W19308   9.168  35.370  12.554
50979W        W19309  24.494  41.486   4.660
50980W        W19310  37.482  29.462  13.411
50981W        W19311  16.252  33.606   3.858
50982W        W19312   7.329  15.678  12.392
50983W        W19313  26.510  22.572   5.261
50984W        W19314   5.805  24.548   3.202
50985W        W19315   2.871  42.429  14.798
50986W        W19316   4.927  42.303   0.290
50987W        W19317  19.739  34.086  10.472
50988W        W19318  29.162   1.960  14.829
50989W        W19319  19.739  27.061  14.005
50990W        W19320   3.768  31.473  12.873
50991W        W19321  43.394  43.861   0.759
50992W        W19322   5.390   3.450  14.464
50993W        W19323  35.989  37.963  11.970
50994W        W19324  43.765  19.232  10.930
50995W        W19325  28.032  23.041   2.735
50996W        W19326  31.518  40.429   0.917
50997W        W19327  10.147   1.368   2.813
50998W        W19328  36.941   4.922   0.734
50999W        W19329  40.918  20.613   1.328
51000W        W19330   8.271  14.315   4.354
51001W        W19331  33.087  41.925   1.818
51002W        W19332   8.338   2.910   4.263
51003W        W19333  31.929  16.072  13.395
51004W        W19334  41.938  25.510  12.880
51005W        W19335  14.629   1.448  14.008
51006W        W19336  12.831  35.907  13.316
51007W        W19337  29.577  40.362  10.465
51008W        W19338  10.794  34.505   2.903
51009W        W19339  24.114  16.579  12.984
51010W        W19340  32.432  42.523  13.984
51011W        W19341  42.447   6.803  14.489
51012W        W19342   4.786  11.137  10.148
51013W        W19343  15.822  32.001   4.791
51014W        W19344  37.896   8.319  12.361
51015W        W19345  12.185   4.907   0.410
51016W        W19346  34.902  43.901  13.462
51017W        W19347  24.478  30.157   3.681
51018W        W19348   7.302   1.823   4.220
51019W        W19349   2.743   8.369  10.968
51020W        W19350  29.041  36.564  14.961
51021W        W19351   3.910  26.182   3.704
51022W        W19352  43.983  17.281   1.285
51023W        W19353  32.432  10.143  13.011
51024W        W19354  28.988   4.868  14.769
51025W        W19355  11.831   0.390   4.252
51026W        W19356  39.972  28.511   0.463
51027W        W19357  23.512  22.611   2.818
51028W        W19358  41.395  27.588   0.382
51029W        W19359  35.882  17.610   2.385
51030W        W19360  34.083  10.237  14.399
51031W        W19361  19.769  25.559   2.217
51032W        W19362   2.762  24.677   0.256
51033W        W19363  37.566  33.550   4.636
51034W        W19364  24.991  44.274  14.820
51035W        W19365  21.583  11.814  14.355
51036W        W19366   6.270  17.645  14.411
51037W        W19367  25.128  19.149  13.851
51038W        W19368  16.664  20.534  12.082
51039W        W19369  33.031  39.977  14.862
51040W        W19370  23.644  23.703  11.583
51041W        W19371  31.619   0.848   3.806
51042W        W19372   7.760  35.009  14.396
51043W        W19373  32.003  43.289   1.853
51044W        W19374  22.199   5.385   3.160
51045W        W19375  42.382   8.350  12.542
51046W        W19376  13.192  10.752  12.372
51047W        W19377  44.876  12.836  14.489
51048W        W19378  29.553  14.225  14.323
51049W        W19379  33.922  34.978   4.296
51050W        W19380  37.461   8.692   4.600
51051W        W19381  10.658  14.242   3.781
51052W        W19382   2.464   4.362   1.708
51053W        W19383   2.881  18.060   2.179
51054W        W19384   5.912  40.964  12.572
51055W        W19385  21.548   2.893  13.794
51056W        W19386  36.539  39.499   2.351
51057W        W19387  40.006  38.545  10.927
51058W        W19388  31.423  39.059  12.826
51059W        W19389  37.548  40.864   2.804
51060W        W19390  12.188  20.093  10.404
51061W        W19391  10.865  33.587   1.340
51062W        W19392  19.575  33.432  14.002
51063W        W19393  10.331  33.953  13.828
51064W        W19394  27.578  23.564  10.959
51065W        W19395  29.011   4.847   1.338
51066W        W19396  34.499  30.022  12.984
51067W        W19397  33.105  40.889   1.857
51068W        W19398   3.360  19.262   2.268
51069W        W19399  11.797  40.919  10.538
51070W        W19400  21.189  29.545  12.358
51071W        W19401  17.801  14.159   3.744
51072W        W19402   9.256  40.526   0.448
51073W        W19403  15.085  21.249   3.285
51074W        W19404   7.209  22.566   1.832
51075W        W19405  32.403  14.683  11.055
51076W        W19406  40.356  40.897  10.532
51077W        W19407  14.105  40.305   4.298
51078W        W19408  43.471  12.810  11.064
51079W        W19409  39.042  11.149  14.806
51080W        W19410  34.951  42.521   4.318
51081W        W19411  24.604   1.733   1.304
51082W        W19412  13.725   1.931  13.918
51083W        W19413  40.014  27.572  14.292
51084W        W19414  29.636  23.581  10.094
51085W        W19415  32.086  40.311  10.523
51086W        W19416  41.506  43.272   0.385
51087W        W19417  21.109  41.003   2.689
51088W        W19418  36.496   9.172  11.443
51089W        W19419  31.119  11.254   3.847
51090W        W19420  19.165  34.976  13.871
51091W        W19421   4.234   3.258  13.884
51092W        W19422  23.192  43.802  10.907
51093W        W19423  33.105  14.212  11.506
51094W        W19424  26.990   8.786   1.239
51095W        W19425  32.000  11.305   4.171
51096W        W19426  27.480  30.515   3.837
51097W        W19427   0.926  24.639   4.239
51098W        W19428   5.270  11.839  10.058
51099W        W19429  41.935  27.468  12.919
51100W        W19430   2.932  39.506   2.273
51101W        W19431  39.362  14.267   2.178
51102W        W19432  43.421  37.851  12.028
51103W        W19433  32.410  18.285  10.512
51104W        W19434  34.442  36.367  14.279
51105W        W19435  15.132  37.350  13.038
51106W        W19436  20.233  35.405  13.013
51107W        W19437  29.528  12.701   3.852
51108W        W19438   4.782  13.760   1.855
51109W        W19439  30.024   2.865  10.958
51110W        W19440  28.594  22.205  12.459
51111W        W19441  40.997  36.976   1.823
51112W        W19442  21.546  34.586   0.890
51113W        W19443  17.559  44.988  14.892
51114W        W19444  23.221  11.658  11.012
51115W        W19445  37.377   9.704   4.216
51116W        W19446  40.875  25.640  12.501
51117W        W19447  15.639  26.126  13.022
51118W        W19448  29.089  28.663   1.407
51119W        W19449   8.791  22.742  14.940
51120W        W19450   8.834   3.843  10.430
51121W        W19451  42.867  26.034   4.123
51122W        W19452   3.750  25.048  11.506
51123W        W19453   7.231  34.906   0.755
51124W        W19454  11.856  18.294  11.911
51125W        W19455  19.161  35.419  11.402
51126W        W19456   2.916  31.477  10.910
51127W        W19457  17.138  25.691   0.928
51128W        W19458  33.476  11.235  11.998
51129W        W19459  26.529   2.943   0.749
51130W        W19460  37.550   0.750  11.894
51131W        W19461  36.538  31.904  14.294
51132W        W19462  13.159   3.755   3.661
51133W        W19463  23.127   7.876  10.512
51134W        W19464   6.218   4.282   3.294
51135W        W19465   2.237  13.127   0.736
51136W        W19466  37.963  10.257  12.364
51137W        W19467  14.295  25.661   3.192
51138W        W19468  27.004   1.442  11.862
51139W        W19469  22.182  12.784  11.468
51140W        W19470  26.672  37.545   4.635
51141W        W19471   2.871  28.639   4.183
51142W        W19472  44.450  18.635  12.912
51143W        W19473  44.914   2.398  11.984
51144W        W19474  14.722  28.144   3.321
51145W        W19475  25.087  30.483  11.544
51146W        W19476  17.146  43.859  14.313
51147W        W19477  13.622   9.393  12.556
51148W        W19478   6.923   2.758  11.022
51149W        W19479   7.828  44.342   9.935
51150W        W19480  13.244  10.780  12.882
51151W        W19481  15.592  14.833   4.669
51152W        W19482  11.755  16.702   0.340
51153W        W19483  15.239  12.282  11.926
51154W        W19484  31.407   3.384   1.331
51155W        W19485  36.848   3.461   2.889
51156W        W19486  14.834  30.052  14.826
51157W        W19487   9.856  27.134   4.224
51158W        W19488  37.510  30.509  13.973
51159W        W19489  28.965   1.460  11.085
51160W        W19490  32.974  41.340  13.492
51161W        W19491  37.892  10.153  10.150
51162W        W19492   0.833  16.268  10.633
51163W        W19493  21.236  26.471  14.475
51164W        W19494  32.888  19.566   1.338
51165W        W19495  36.555  33.927  13.407
51166W        W19496   4.309  15.721  11.921
51167W        W19497   6.402  40.815  11.016
51168W        W19498  16.241  20.071  14.759
51169W        W19499  21.146  12.782  10.444
51170W        W19500  33.079  16.280   1.312
51171W        W19501  31.924  11.247  12.851
51172W        W19502  14.652  22.109   3.802
51173W        W19503  22.216  43.404   0.884
51174W        W19504  27.464  11.201  12.580
51175W        W19505  30.931   8.694  11.965
51176W        W19506  33.046  36.513  14.435
51177W        W19507  33.003  28.076   0.745
51178W        W19508   6.812  16.657  11.410
51179W        W19509  14.657  16.076   3.290
51180W        W19510  19.065  39.985   1.393
51181W        W19511  14.688  20.220  11.052
51182W        W19512  21.612  24.185   2.206
51183W        W19513  22.246  28.620   1.413
51184W        W19514  41.897  39.973   3.700
51185W        W19515  37.374   6.861   2.239
51186W        W19516  33.874  20.570   1.838
51187W        W19517   0.773  29.171  14.872
51188W        W19518  26.657  27.455  14.801
51189W        W19519   5.924  42.350   1.399
51190W        W19520  29.045  27.009  10.557
51191W        W19521  11.729  37.071  11.978
51192W        W19522  42.461  41.479   4.280
51193W        W19523  42.792  14.333  10.096
51194W        W19524  20.069   4.284  14.799
51195W        W19525   9.670  29.974  12.978
51196W        W19526   5.743  15.288  12.826
51197W        W19527  25.075  36.859  10.551
51198W        W19528  40.959   5.820  13.064
51199W        W19529   8.859  38.830   4.162
51200W        W19530  23.678  19.749  14.283
51201W        W19531  35.988  13.219   4.240
51202W        W19532  17.640  14.167   1.255
51203W        W19533  35.392  38.905  14.355
51204W        W19534  37.933  13.275  12.558
51205W        W19535   4.711  32.605   3.846
51206W        W19536  16.168  27.029  11.969
51207W        W19537   3.338   7.804   4.249
51208W        W19538  39.046  40.319  12.078
51209W        W19539  23.001  30.157  10.150
51210W        W19540  41.537   2.780  11.887
51211W        W19541  36.895  30.584   2.385
51212W        W19542  43.018  26.065   4.738
51213W        W19543  40.416  26.624   0.352
51214W        W19544  23.710  20.642  12.550
51215W        W19545  33.884  41.964  13.959
51216W        W19546  23.128   1.404   3.743
51217W        W19547  21.182  12.255  10.472
51218W        W19548  32.580  31.469  11.967
51219W        W19549  26.199   7.294  10.905
51220W        W19550  25.055  42.852  14.865
51221W        W19551  31.447  31.924   1.854
51222W        W19552  24.010   1.831   0.760
51223W        W19553   9.348   0.986   4.317
51224W        W19554  10.151  39.965   4.798
51225W        W19555  20.195  19.575  14.996
51226W        W19556  10.855  37.915   4.177
51227W        W19557  28.166  34.969  13.864
51228W        W19558  12.721   0.817  12.373
51229W        W19559  18.190  25.202  14.762
51230W        W19560  37.874  33.903  14.850
51231W        W19561  42.322  16.681   2.246
51232W        W19562  31.924  21.741  10.903
51233W        W19563  39.451  19.128   2.839
51234W        W19564  41.850   0.483  11.596
51235W        W19565  21.217  20.222   2.297
51236W        W19566  23.102  14.107   2.322
51237W        W19567  37.467  15.105  14.968
51238W        W19568  41.521  13.651  13.407
51239W        W19569  17.636  35.928   1.235
51240W        W19570  20.212  11.146   3.282
51241W        W19571  21.757  14.227   3.713
51242W        W19572  43.815  11.776  14.831
51243W        W19573  21.608  37.926  14.354
51244W        W19574   2.893  39.032   1.868
51245W        W19575  32.989  37.523  10.901
51246W        W19576  44.407  12.171  12.908
51247W        W19577  39.435  15.716  12.425
51248W        W19578  35.396  35.381   3.346
51249W        W19579  23.040  14.109  14.441
51250W        W19580   8.203  13.653   3.670
51251W        W19581  30.927  29.478   0.393
51252W        W19582  37.511   1.280   3.212
51253W        W19583  20.642  22.047  11.487
51254W        W19584  39.990  18.124   1.820
51255W        W19585  15.739   4.922   1.917
51256W        W19586  30.993  13.815  14.309
51257W        W19587  34.409   5.344   2.220
51258W        W19588   7.415  36.862   0.962
51259W        W19589  13.236  24.984  13.985
51260W        W19590  29.490  23.115   3.774
51261W        W19591  26.984  38.411   2.299
51262W        W19592   4.245  19.177   4.123
51263W        W19593  21.143   7.895   2.680
51264W        W19594  44.483  38.964  14.940
51265W        W19595  16.266  29.612  14.285
51266W        W19596  11.302  32.140   3.680
51267W        W19597  30.518  27.028   1.857
51268W        W19598  39.507  16.307   0.920
51269W        W19599  43.956  10.276  12.021
51270W        W19600   7.698  26.684   1.344
51271W        W19601   3.294  33.899  14.028
51272W        W19602  19.176  41.512   2.756
51273W        W19603   1.818   7.861  11.867
51274W        W19604  30.506  12.175   0.476
51275W        W19605   4.918   2.725  11.098
51276W        W19606  18.741  29.148  13.920
51277W        W19607  39.989  35.879   1.797
51278W        W19608  18.677  28.646   4.157
51279W        W19609  31.538   2.745   4.729
51280W        W19610  11.364  14.643  13.825
51281W        W19611  17.212  34.029   3.203
51282W        W19612  41.974  40.429  13.968
51283W        W19613  25.057   0.311  14.962
51284W        W19614  41.878  41.921   1.918
51285W        W19615  21.566   4.243  11.423
51286W        W19616  43.467   7.307  10.586
51287W        W19617  38.021  32.016   0.859
51288W        W19618  31.088  28.072   3.739
51289W        W19619   6.400  32.530   0.338
51290W        W19620  37.050  12.233  12.546
51291W        W19621  35.035   1.434  14.452
51292W        W19622  38.514  26.109   4.699
51293W        W19623  21.643   5.386   4.125
51294W        W19624  10.336   4.280   0.322
51295W        W19625  33.061  19.199   0.935
51296W        W19626  21.260  44.916   5.163
51297W        W19627  14.094   4.297   1.750
51298W        W19628  41.407  15.664   4.114
51299W        W19629   5.376  22.723   4.644
51300W        W19630   3.840  38.886  12.569
51301W        W19631  12.619  38.340   2.742
51302W        W19632  44.876  42.424  13.424
51303W        W19633  35.509  42.495  11.119
51304W        W19634  42.526  13.240   3.328
51305W        W19635   0.436  18.058   0.897
51306W        W19636  25.588  11.351   0.765
51307W        W19637   9.840   8.243  12.056
51308W        W19638  35.005   0.838  14.991
51309W        W19639  37.351  19.249   0.826
51310W        W19640   8.377   6.889  14.838
51311W        W19641  36.418  41.869  11.378
51312W        W19642   2.740  23.503  12.515
51313W        W19643  44.911  43.338   4.221
51314W        W19644   9.710  10.675   1.290
51315W        W19645  10.373  14.206   0.943
51316W        W19646   1.391  26.622  11.604
51317W        W19647  18.557  42.967   4.114
51318W        W19648  36.991  25.195   3.757
51319W        W19649  30.625  32.045  12.343
51320W        W19650  34.984  42.524  10.501
51321W        W19651  32.985  38.972   1.815
51322W        W19652  36.902  12.756  13.805
51323W        W19653   1.449  36.077   2.248
51324W        W19654  35.914  32.504   3.219
51325W        W19655   9.349   0.935   3.247
51326W        W19656  28.547  23.586  13.855
51327W        W19657  39.920  21.191  11.959
51328W        W19658  21.525  27.692  11.462
51329W        W19659   9.689   4.277  14.806
51330W        W19660  35.915  14.708  10.563
51331W        W19661  11.678   4.249  11.951
51332W        W19662  11.336  42.355  12.016
51333W        W19663  21.633  44.400   1.450
51334W        W19664  24.591  15.292   3.703
51335W        W19665  33.002  11.172   1.429
51336W        W19666  22.731  24.224   1.451
51337W        W19667  18.679   9.725  13.396
51338W        W19668  20.742  10.364  13.926
51339W        W19669   2.429  30.536  14.474
51340W        W19670  18.780  35.502   2.233
51341W        W19671   4.759  17.136  13.826
51342W        W19672  37.441  11.259   9.999
51343W        W19673   0.344   2.249   3.707
51344W        W19674  15.249  21.173   1.830
51345W        W19675  34.576  20.138   2.307
51346W        W19676   3.742   7.775  11.974
51347W        W19677  38.403  41.531  14.502
51348W        W19678  29.640  32.572  11.434
51349W        W19679   0.278  11.831   4.261
51350W        W19680  34.072  19.247   4.265
51351W        W19681   6.751   6.711  13.845
51352W        W19682  21.256  37.339  14.858
51353W        W19683  27.513   2.421  10.943
51354W        W19684  18.289  35.573  10.474
51355W        W19685  29.056  26.575  12.065
51356W        W19686  20.227  35.911   4.771
51357W        W19687  14.310  33.000  10.499
51358W        W19688  25.113  17.168  12.073
51359W        W19689  26.670  32.895  10.964
51360W        W19690  39.540   4.296  12.427
51361W        W19691  43.917  39.038  13.316
51362W        W19692  31.000  10.708   1.406
51363W        W19693  17.250  11.163   1.865
51364W        W19694   6.718  34.565   3.785
51365W        W19695  41.802  28.011  11.467
51366W        W19696  14.712   0.851   2.181
51367W        W19697  13.172  11.324   1.393
51368W        W19698   6.403  43.303   2.788
51369W        W19699  15.586  42.923  11.403
51370W        W19700   2.271  15.707  14.814
51371W        W19701   0.828   9.783  12.445
51372W        W19702  44.870  19.669  12.404
51373W        W19703  42.472   0.890  11.015
51374W        W19704   4.300   9.655   0.481
51375W        W19705   5.793   5.882   2.671
51376W        W19706  13.612  33.949   4.630
51377W        W19707   8.318  27.544   3.366
51378W        W19708  18.610  25.130   4.757
51379W        W19709  18.089  27.510   0.843
51380W        W19710  38.901  27.976   5.310
51381W        W19711  25.494  24.055   2.874
51382W        W19712  41.975  32.954   0.875
51383W        W19713  33.461  26.067  12.541
51384W        W19714  43.430   1.867   1.299
51385W        W19715  11.209  28.930  13.418
51386W        W19716  40.322   6.308  12.435
51387W        W19717  13.601  18.194  12.970
51388W        W19718   5.347  38.345  13.484
51389W        W19719  17.678  20.075   2.850
51390W        W19720   3.711  17.757  10.442
51391W        W19721  42.849   3.873  13.496
51392W        W19722  31.533   8.358  14.319
51393W        W19723  12.854  22.535  10.608
51394W        W19724   9.843  23.038   0.364
51395W        W19725  36.949   7.244  13.389
51396W        W19726  27.065  26.469  12.923
51397W        W19727  33.073  19.175  10.437
51398W        W19728  12.671  30.132  12.969
51399W        W19729  44.873  30.485  14.478
51400W        W19730  28.670  40.443  13.538
51401W        W19731  20.214   4.325   4.717
51402W        W19732  38.947  36.007  11.958
51403W        W19733  11.227   0.946  13.516
51404W        W19734  25.029  15.130   0.948
51405W        W19735  23.226   5.810  12.972
51406W        W19736  15.125  16.783  10.501
51407W        W19737  37.961  39.339   1.828
51408W        W19738  35.072  40.010   0.906
51409W        W19739   3.778  33.045   0.945
51410W        W19740  39.824  24.651   1.277
51411W        W19741   0.865  32.569   3.343
51412W        W19742  14.683  18.176   2.840
51413W        W19743  17.122  21.218   0.483
51414W        W19744  43.850  42.912  11.931
51415W        W19745  18.109  40.395  10.976
51416W        W19746   0.468  21.753  10.410
51417W        W19747  14.236  33.960   3.762
51418W        W19748  22.659  15.812  13.015
51419W        W19749  44.329  28.146   3.353
51420W        W19750  21.195  21.631   4.334
51421W        W19751   8.338  40.416   1.792
51422W        W19752  43.010  31.937  10.914
51423W        W19753  20.561  26.956   0.354
51424W        W19754  32.428  19.187   3.722
51425W        W19755  23.226  32.595   4.319
51426W        W19756  31.998  14.173  12.422
51427W        W19757  42.411   5.223  12.067
51428W        W19758  30.648   3.810  14.466
51429W        W19759   4.714  20.047   5.216
51430W        W19760  41.493   2.446   3.663
51431W        W19761   9.825   3.331  14.413
51432W        W19762   5.311  39.352  11.568
51433W        W19763  12.208   2.446  12.497
51434W        W19764   8.762  28.032  12.957
51435W        W19765  23.591   1.314   3.645
51436W        W19766  44.342   4.361  12.514
51437W        W19767  33.902  36.002   0.417
51438W        W19768  14.132  34.584  14.997
51439W        W19769  35.867  40.963   1.410
51440W        W19770   1.794  29.111  14.379
51441W        W19771  40.038  38.546  12.484
51442W        W19772  27.521  27.978   3.233
51443W        W19773   5.687  43.312   0.787
51444W        W19774  42.339  27.033   0.449
51445W        W19775  30.034  13.672   2.388
51446W        W19776  15.096  34.009   4.676
51447W        W19777  34.424  40.015   2.357
51448W        W19778  24.992  23.117  12.041
51449W        W19779  20.259  17.248  11.982
51450W        W19780  34.441  14.324  11.057
51451W        W19781  33.920  22.576  13.338
51452W        W19782  34.088  24.555  12.479
51453W        W19783  15.278   7.827  13.469
51454W        W19784  39.999  10.352   1.373
51455W        W19785  20.602  27.552   3.677
51456W        W19786  42.435   0.367  11.897
51457W        W19787  24.143  36.028  13.835
51458W        W19788  29.573   6.406  10.627
51459W        W19789  15.128   8.380   2.254
51460W        W19790  23.238  17.246   4.163
51461W        W19791  20.237  27.082   2.269
51462W        W19792  26.078  10.247   2.390
51463W        W19793   5.823   5.807  11.447
51464W        W19794  38.385   6.245  10.483
51465W        W19795  35.439  14.201  13.485
51466W        W19796   2.728   6.683  14.409
51467W        W19797  33.888   8.187  12.092
51468W        W19798  14.304   8.821  10.540
51469W        W19799  23.638  26.654  10.529
51470W        W19800  31.072  20.568  13.320
51471W        W19801  36.364  19.610   2.864
51472W        W19802  12.631  15.788   1.380
51473W        W19803  12.801  22.582  13.341
51474W        W19804  37.839  24.589  10.463
51475W        W19805   1.908  39.325  11.570
51476W        W19806  18.293  14.290   2.292
51477W        W19807  11.246  38.819   0.375
51478W        W19808  19.672  23.984   5.650
51479W        W19809  21.189   8.396  13.497
51480W        W19810  44.341  42.848   4.728
51481W        W19811  12.337   8.837   0.776
51482W        W19812  15.270   2.896  12.987
51483W        W19813  42.319  28.035   4.783
51484W        W19814  32.048  35.928   2.196
51485W        W19815  30.431  33.412   2.698
51486W        W19816  33.461  40.891   4.137
51487W        W19817  15.323  30.442   4.764
51488W        W19818   9.646  18.762   3.649
51489W        W19819  41.973  13.155  12.340
51490W        W19820  23.123  32.510  14.448
51491W        W19821  32.399  33.945  14.341
51492W        W19822  41.889   9.746  12.048
51493W        W19823  27.520  25.566   4.631
51494W        W19824   9.299   4.782   1.273
51495W        W19825  28.935   3.769  10.419
51496W        W19826  33.106   9.888   2.406
51497W        W19827   5.247   4.758  11.518
51498W        W19828  37.987  35.108  13.930
51499W        W19829  28.566  33.444   4.338
51500W        W19830  22.604   6.290   0.867
51501W        W19831  14.594  10.765   2.317
51502W        W19832  21.598  41.907   0.279
51503W        W19833  32.506  24.202   2.263
51504W        W19834  28.534   0.278  13.499
51505W        W19835  22.525  31.150   2.883
51506W        W19836   0.784   4.207   9.939
51507W        W19837   5.744  20.682  13.435
51508W        W19838  40.546   3.288  10.409
51509W        W19839  41.986  15.818  10.595
51510W        W19840   4.345  43.952   0.338
51511W        W19841  38.036  35.588   4.611
51512W        W19842   6.769   1.287   4.155
51513W        W19843   7.679  41.380   1.759
51514W        W19844  11.235   4.322   4.835
51515W        W19845  35.863  40.420   2.219
51516W        W19846  25.137   3.450   0.438
51517W        W19847   1.818  41.499  12.521
51518W        W19848  30.609   2.450  12.560
51519W        W19849  12.248  31.643   2.220
51520W        W19850  34.473  19.738   4.252
51521W        W19851  13.199  41.475  13.908
51522W        W19852  20.692  11.198   1.857
51523W        W19853  28.677   5.290  13.965
51524W        W19854   7.250  20.719   1.925
51525W        W19855  12.177  21.686  13.517
51526W        W19856  17.597  22.095   3.782
51527W        W19857  25.599  24.155  14.853
51528W        W19858   7.738  40.460  14.484
51529W        W19859  43.917  19.550  11.382
51530W        W19860  34.599  14.788  13.871
51531W        W19861  38.950  26.620   5.310
51532W        W19862   8.181  16.569   2.736
51533W        W19863   5.784  13.826   0.751
51534W        W19864  33.403   2.902   0.332
51535W        W19865  17.224  14.291  12.383
51536W        W19866  18.069  34.415   0.936
51537W        W19867  38.498   6.316  12.942
51538W        W19868  39.554  38.565   4.354
51539W        W19869  14.831  21.596  12.869
51540W        W19870  38.069  21.756  12.424
51541W        W19871   0.264  18.761  10.404
51542W        W19872   0.958  19.593   5.095
51543W        W19873  44.478  25.583  10.628
51544W        W19874  38.428  40.898   4.614
51545W        W19875   1.934   9.645  13.947
51546W        W19876  33.109  26.664   1.708
51547W        W19877  34.950  12.693  10.635
51548W        W19878  30.086   6.846   2.735
51549W        W19879  44.796  35.544  14.760
51550W        W19880  34.443   0.392  11.103
51551W        W19881  33.969  19.754   4.677
51552W        W19882  12.763  28.111  13.493
51553W        W19883   0.450   9.784  14.810
51554W        W19884  39.029  10.866  11.955
51555W        W19885  19.161  21.634   1.897
51556W        W19886  27.596  16.659   0.840
51557W        W19887  42.391   9.220  12.825
51558W        W19888  36.025  29.081  13.033
51559W        W19889  19.243   7.845   3.212
51560W        W19890  14.804   3.381  11.374
51561W        W19891  18.736  30.916   1.371
51562W        W19892  42.882  14.643   1.220
51563W        W19893  44.982  40.485   4.625
51564W        W19894  24.085   4.804   3.334
51565W        W19895   0.879  15.241   1.300
51566W        W19896  24.002   9.307  11.097
51567W        W19897  34.456  41.316   2.821
51568W        W19898  30.624  42.452   2.709
51569W        W19899   4.216  29.100  13.451
51570W        W19900   7.776  33.041  14.000
51571W        W19901  38.342  10.858   0.406
51572W        W19902   3.408  20.672  14.414
51573W        W19903  34.917  17.202  12.512
51574W        W19904  29.996  19.074  14.511
51575W        W19905  21.656  40.974  11.446
51576W        W19906  13.711   5.741   2.406
51577W        W19907  44.296  43.886   3.853
51578W        W19908  29.024   0.754   1.300
51579W        W19909   2.917  39.343   5.751
51580W        W19910   8.284  44.968   4.790
51581W        W19911  28.560  23.597   4.754
51582W        W19912   3.414   9.728  10.423
51583W        W19913  37.907  35.976   2.807
51584W        W19914  31.473  35.064  10.631
51585W        W19915  39.956   8.667   3.870
51586W        W19916  33.544  28.589   4.773
51587W        W19917   1.239  44.839   2.402
51588W        W19918   6.409  33.958   0.380
51589W        W19919  23.588  35.015   0.409
51590W        W19920  28.037  20.566  13.052
51591W        W19921   1.941  44.441  12.967
51592W        W19922  40.539  19.039  12.477
51593W        W19923  31.569  12.654  14.781
51594W        W19924  40.424  36.423   0.308
51595W        W19925  42.981  31.428  13.445
51596W        W19926  24.637  27.086   2.672
51597W        W19927   4.376  17.218   2.204
51598W        W19928  15.601  12.650   0.244
51599W        W19929  14.234  16.811   1.402
51600W        W19930  42.352  33.982   1.760
51601W        W19931  19.709  35.075   3.355
51602W        W19932  19.261   7.176  10.983
51603W        W19933  38.417   9.694   2.222
51604W        W19934  44.878  19.239   4.763
51605W        W19935  38.454  26.470   3.366
51606W        W19936  36.392  32.006   2.745
51607W        W19937  28.085  43.860   0.779
51608W        W19938  38.570  25.210  10.894
51609W        W19939  26.968  25.511  11.040
51610W        W19940  14.830   9.685   3.631
51611W        W19941   1.811   8.398   2.293
51612W        W19942  30.591  25.524   0.265
51613W        W19943  28.992  32.491  14.806
51614W        W19944  14.155   7.807  14.949
51615W        W19945  18.092  14.185   1.717
51616W        W19946   7.843  42.419  14.894
51617W        W19947  40.373  27.147  13.960
51618W        W19948  37.465  16.101  12.389
51619W        W19949   1.448  42.502  14.462
51620W        W19950  15.176   6.757   4.597
51621W        W19951  41.532  42.445  14.394
51622W        W19952   1.847  32.491  10.460
51623W        W19953   9.759   8.206   3.273
51624W        W19954  14.743  27.196   2.903
51625W        W19955  30.573   6.261   0.894
51626W        W19956  44.339  18.744  14.513
51627W        W19957   5.796   5.302  14.946
51628W        W19958  44.927   2.330  14.478
51629W        W19959  10.144  16.628   0.395
51630W        W19960   1.238  13.118  14.304
51631W        W19961   9.872  43.882  11.102
51632W        W19962  30.646  38.355  14.004
51633W        W19963  29.633   8.394   0.284
51634W        W19964  31.551   1.427   0.855
51635W        W19965  27.099  44.878  14.825
51636W        W19966  39.852  17.697   1.242
51637W        W19967   0.371  34.522  12.411
51638W        W19968   1.433   6.234   1.254
51639W        W19969  11.318  32.096  14.874
51640W        W19970  26.460   6.306  14.891
51641W        W19971  24.521  13.754   4.327
51642W        W19972  26.055  30.938  14.789
51643W        W19973  18.640  24.994   2.265
51644W        W19974  28.675  31.042  13.541
51645W        W19975  20.275  15.581   0.326
51646W        W19976   9.722  36.484   1.811
51647W        W19977  31.090   7.869  12.980
51648W        W19978  19.660   3.897  10.969
51649W        W19979   2.760  18.285   3.360
51650W        W19980   5.391   0.793   4.189
51651W        W19981  38.927  14.812   2.192
51652W        W19982  17.304   0.455   3.347
51653W        W19983  36.442   1.763   1.435
51654W        W19984  24.003  31.000   2.769
51655W        W19985   6.782  31.025   3.318
51656W        W19986  41.517  11.222  10.911
51657W        W19987   0.396  22.180   2.256
51658W        W19988  36.918   9.845  14.373
51659W        W19989  39.900  22.147  14.925
51660W        W19990  17.281  23.150   0.475
51661W        W19991  14.254  35.984   4.270
51662W        W19992   7.681  25.182   4.351
51663W        W19993   5.246   5.318  13.447
51664W        W19994   9.725  32.554   2.837
51665W        W19995  41.859  27.689  11.494
51666W        W19996  21.078  14.332  11.865
51667W        W19997  16.245  38.514   0.303
51668W        W19998  37.041  41.407  14.477
51669W        W19999   3.250  24.652   1.383
51670W        W20000  21.642   2.335   0.844
51671W        W20001  18.770   1.975   3.821
51672W        W20002  40.966  39.025   4.283
51673W        W20003  35.429   1.438  11.492
51674W        W20004  12.780  31.540   0.295
51675W        W20005  40.488  24.563   4.700
51676W        W20006  30.641   6.909  12.401
51677W        W20007  39.347  37.937  12.091
51678W        W20008  39.370  20.032  10.561
51679W        W20009  17.177  24.598  10.887
51680W        W20010   8.237  26.032   4.829
51681W        W20011  38.541  35.488  11.057
51682W        W20012  24.586   9.392  11.033
51683W        W20013  26.999  35.372   4.229
51684W        W20014  30.047   7.704  11.376
51685W        W20015  18.698   1.926  13.447
51686W        W20016  29.094   7.386  11.105
51687W        W20017   6.861   5.709  14.475
51688W        W20018   2.437  10.868   2.686
51689W        W20019  26.119  21.524   1.826
51690W        W20020   8.244  39.052   4.604
51691W        W20021   2.371  36.063   4.655
51692W        W20022  39.924  42.919  14.456
51693W        W20023  31.998  18.547   4.227
51694W        W20024  41.394  38.405  12.431
51695W        W20025  40.440  24.066   2.816
51696W        W20026  22.051   4.307   0.758
51697W        W20027   5.912  28.634   4.605
51698W        W20028  13.227  22.210   1.247
51699W        W20029   3.878  16.765   2.841
51700W        W20030  43.015  30.069   1.305
51701W        W20031  18.704  21.147   0.861
51702W        W20032  24.712   3.834   0.844
51703W        W20033  25.098  34.115  11.430
51704W        W20034  22.152  25.525  12.854
51705W        W20035   1.304  39.399   2.680
51706W        W20036  17.180   0.882  13.974
51707W        W20037  31.527  24.079   3.156
51708W        W20038  44.428  38.425  13.062
51709W        W20039  21.056  16.168   1.381
51710W        W20040   8.355  35.928   1.828
51711W        W20041  39.918  31.406  12.892
51712W        W20042  21.220  17.231   9.557
51713W        W20043  26.051  30.569  14.304
51714W        W20044  36.420   4.882  12.937
51715W        W20045  19.559  17.279  10.061
51716W        W20046  22.106  25.136   4.315
51717W        W20047  28.011  44.327  14.878
51718W        W20048  25.680  32.539  11.512
51719W        W20049   3.325   2.943  12.398
51720W        W20050  37.543   0.481   3.696
51721W        W20051  13.692  20.685   0.791
51722W        W20052  40.956   2.863  14.947
51723W        W20053   0.261  10.866   3.654
51724W        W20054  21.535  18.559  14.376
51725W        W20055  43.333  15.153  12.390
51726W        W20056  22.030  21.581  12.523
51727W        W20057   0.836  44.964   4.207
51728W        W20058  40.879   0.872   0.425
51729W        W20059  18.112  21.241  10.424
51730W        W20060  43.800  19.624  13.372
51731W        W20061  35.038  35.999   3.823
51732W        W20062  19.780  25.075   1.935
51733W        W20063  38.541  38.872   3.776
51734W        W20064  27.447  10.191  14.447
51735W        W20065  32.980  35.459  12.962
51736W        W20066  20.172   6.697  13.063
51737W        W20067   1.380  18.169  14.351
51738W        W20068  43.018   6.687   3.283
51739W        W20069  11.858  42.010   1.794
51740W        W20070  39.043   7.405   3.364
51741W        W20071  42.335   8.240   0.753
51742W        W20072  39.428   3.798  10.478
51743W        W20073  36.032  13.813   0.747
51744W        W20074  32.978  36.972  11.577
51745W        W20075  44.327   2.769   1.717
51746W        W20076  10.348  21.233   2.796
51747W        W20077  44.934  40.344  13.935
51748W        W20078  17.067  27.565   1.244
51749W        W20079  20.601  18.583  11.916
51750W        W20080  16.593   1.903   2.208
51751W        W20081  13.122   0.965  13.033
51752W        W20082  19.116  44.919  11.116
51753W        W20083  36.433  15.778  11.894
51754W        W20084  16.124  22.204   1.873
51755W        W20085  38.518  42.946  14.910
51756W        W20086   1.738   1.751   2.731
51757W        W20087  41.373  38.020  11.572
51758W        W20088   0.435  32.099  11.919
51759W        W20089   2.882   6.888   1.824
51760W        W20090  30.530   5.418  11.552
51761W        W20091   0.394   6.357   0.339
51762W        W20092  43.449  12.333   0.298
51763W        W20093   9.835  15.740   5.169
51764W        W20094  39.814  33.039   2.829
51765W        W20095  42.308  30.468   2.187
51766W        W20096  43.787  21.577   2.405
51767W        W20097   5.384  19.222  14.447
51768W        W20098  39.430  21.635   3.229
51769W        W20099   0.446  42.804  11.534
51770W        W20100  13.294  18.555   0.820
51771W        W20101  40.384  40.896   1.258
51772W        W20102  37.393  12.724  11.886
51773W        W20103  43.794  19.118   1.351
51774W        W20104  19.706  25.612  11.114
51775W        W20105  10.189  16.573   3.798
51776W        W20106  25.205   6.914   3.859
51777W        W20107  13.669  19.051   2.796
51778W        W20108  19.656  29.124  12.421
51779W        W20109  34.092   9.343   2.383
51780W        W20110  28.594  33.391  14.442
51781W        W20111  13.814  31.587  11.029
51782W        W20112  15.263  33.439  14.800
51783W        W20113  20.613  28.645  10.416
51784W        W20114   9.660  26.151  14.934
51785W        W20115  23.615  37.877  12.518
51786W        W20116  44.454  44.960   2.195
51787W        W20117  28.086  27.166   2.802
51788W        W20118  16.712   4.210  13.800
51789W        W20119   3.793   4.384  13.932
51790W        W20120  22.504   4.801   3.836
51791W        W20121  32.980   7.879  12.013
51792W        W20122  19.209  18.740  12.901
51793W        W20123  17.269   2.302  10.425
51794W        W20124  23.592   4.828  12.950
51795W        W20125  40.880   3.324   1.840
51796W        W20126  16.300  44.984  13.400
51797W        W20127  34.582  24.512   1.718
51798W        W20128  28.128  37.033  12.964
51799W        W20129  10.347   5.357   4.268
51800W        W20130  34.989  36.551   4.603
51801W        W20131   6.739   9.220  13.476
51802W        W20132   1.420   9.793   0.803
51803W        W20133  17.093  22.585   2.820
51804W        W20134  44.769  27.550  11.414
51805W        W20135   1.881  34.961  12.403
51806W        W20136  27.002  17.733   2.892
51807W        W20137   1.737   7.823   2.277
51808W        W20138  20.094  30.580  10.061
51809W        W20139  35.453   3.948   2.367
51810W        W20140  14.685  27.692   3.267
51811W        W20141  40.902   1.476  13.978
51812W        W20142  10.707  33.609   1.820
51813W        W20143  17.745  26.658   3.353
51814W        W20144  17.778  13.707  14.939
51815W        W20145  29.618  10.381   4.816
51816W        W20146   2.290  41.989   0.942
51817W        W20147   2.318   5.861  12.367
51818W        W20148   4.243  24.119   2.862
51819W        W20149  11.768  24.090  13.963
51820W        W20150  22.729  39.360   4.258
51821W        W20151  31.007  35.941  12.561
51822W        W20152  17.713   9.269   0.263
51823W        W20153  11.359  32.425   4.138
51824W        W20154  30.018  30.039   4.801
51825W        W20155  42.462  22.567   0.867
51826W        W20156  33.034  43.362  14.887
51827W        W20157  25.971  34.382  10.945
51828W        W20158   7.682   9.772  12.925
51829W        W20159  14.310  33.555   3.179
51830W        W20160  13.151  26.560  13.864
51831W        W20161   8.751  39.483   1.437
51832W        W20162  13.832   3.761   1.215
51833W        W20163  20.208  30.932   0.243
51834W        W20164  42.369  10.699   3.829
51835W        W20165  34.385  44.918  10.901
51836W        W20166  24.665   4.740   2.313
51837W        W20167  22.713  30.009   2.319
51838W        W20168   2.321  40.018   1.227
51839W        W20169   0.344  25.012   2.771
51840W        W20170   2.879   8.354  11.447
51841W        W20171  22.540  22.624   9.985
51842W        W20172  31.153  36.551   2.377
51843W        W20173  20.730  25.072   0.742
51844W        W20174  21.147   9.684  12.447
51845W        W20175  17.733  12.269  12.344
51846W        W20176  10.796   2.790  11.414
51847W        W20177  30.413  20.095  14.302
51848W        W20178  32.598  37.581  12.877
51849W        W20179  18.624  18.693   0.369
51850W        W20180   3.864  22.619   0.746
51851W        W20181  19.592  14.173   2.784
51852W        W20182  24.082   5.751   0.732
51853W        W20183  17.240  34.058   4.771
51854W        W20184  40.477  33.125  12.424
51855W        W20185  19.583   7.784   2.364
51856W        W20186  26.585   7.397   2.706
51857W        W20187  30.531   3.944  12.487
51858W        W20188   7.770  12.170   3.838
51859W        W20189  13.202  35.042   1.220
51860W        W20190  24.661  19.098  12.921
51861W        W20191  29.156  40.039   2.879
51862W        W20192  31.503  18.215  13.443
51863W        W20193   4.223  26.060   2.779
51864W        W20194  36.421  10.218  13.843
51865W        W20195  41.371  16.093   3.660
51866W        W20196  37.374  34.543   4.195
51867W        W20197  15.289  40.340  12.464
51868W        W20198   1.475  25.093  10.562
51869W        W20199  13.160  37.987  13.378
51870W        W20200   7.667  12.837   1.855
51871W        W20201  32.444  19.074   5.225
51872W        W20202  22.120   5.926   4.341
51873W        W20203  22.031  41.009  10.502
51874W        W20204  17.071  44.405  13.832
51875W        W20205  40.321   0.862   3.729
51876W        W20206  15.147  35.034   9.646
51877W        W20207   8.842  28.503   0.379
51878W        W20208  29.449  20.694  13.372
51879W        W20209   2.932  16.777  13.416
51880W        W20210  18.695  24.679  10.537
51881W        W20211  27.609  17.137   1.740
51882W        W20212  35.468  23.500   0.864
51883W        W20213   3.922  28.075   0.259
51884W        W20214  11.250  30.590   2.835
51885W        W20215  43.377  42.903  10.983
51886W        W20216  26.087  16.104  10.435
51887W        W20217  16.142  31.036  10.555
51888W        W20218  31.105  33.931   0.777
51889W        W20219  28.655   2.824   4.738
51890W        W20220  33.934  13.813   1.397
51891W        W20221  34.079   3.893  11.431
51892W        W20222   7.891  39.533   1.291
51893W        W20223  26.999  32.051  14.438
51894W        W20224  15.319  13.698   3.686
51895W        W20225  32.475  15.171  11.415
51896W        W20226   0.278  22.081  13.537
51897W        W20227   5.356  25.185  12.875
51898W        W20228  34.117   2.897   4.322
51899W        W20229  36.927  42.792   3.256
51900W        W20230  29.669  36.011  14.372
51901W        W20231  30.414   0.927  14.412
51902W        W20232  25.545  18.260   4.692
51903W        W20233  12.721  25.575   4.749
51904W        W20234  29.064   0.361   1.434
51905W        W20235  27.959   1.323  13.377
51906W        W20236  20.068   7.892  14.495
51907W        W20237  29.166  20.641   1.310
51908W        W20238  39.976  32.393  14.407
51909W        W20239  41.879  15.633   2.374
51910W        W20240   4.813  12.202   3.698
51911W        W20241  26.672   2.238   3.169
51912W        W20242  39.514  14.273  13.999
51913W        W20243  16.293  31.082   3.823
51914W        W20244   0.928   0.489  11.066
51915W        W20245  29.451  16.185  14.438
51916W        W20246  28.988   6.719   2.224
51917W        W20247  42.446  41.892  14.984
51918W        W20248  10.262  29.523   2.344
51919W        W20249  31.567   9.693   3.332
51920W        W20250  36.503  40.391  14.437
51921W        W20251  35.541  35.522   3.795
51922W        W20252  28.598  12.778   2.835
51923W        W20253  28.089  29.150  11.093
51924W        W20254  24.646  38.343  14.790
51925W        W20255   7.723  44.395  14.942
51926W        W20256  24.147  24.048  13.370
51927W        W20257  40.407  35.435   2.876
51928W        W20258  34.030   6.914   2.349
51929W        W20259  38.071  40.962   0.438
51930W        W20260  31.578  19.196  13.319
51931W        W20261  37.077  20.569  11.421
51932W        W20262   0.287  33.573  11.407
51933W        W20263  18.637  42.373   2.191
51934W        W20264  12.810  44.985   1.404
51935W        W20265  28.615  42.964  12.022
51936W        W20266  42.916  33.044   1.865
51937W        W20267   6.799  19.100  14.434
51938W        W20268   9.385   6.415  10.932
51939W        W20269  21.575  20.205   2.233
51940W        W20270   0.848  44.275   4.715
51941W        W20271  36.873   1.419  11.091
51942W        W20272  18.681  40.815  14.926
51943W        W20273  13.217  38.008  10.467
51944W        W20274   9.888  14.678  13.476
51945W        W20275  32.608   6.393  11.459
51946W        W20276   5.892  19.619  14.344
51947W        W20277  41.818  34.003   3.719
51948W        W20278  41.916  37.029  10.559
51949W        W20279  10.168  25.166   2.891
51950W        W20280  21.035  44.999  11.097
51951W        W20281   9.249  36.548   1.709
51952W        W20282  26.999   5.701  13.962
51953W        W20283   0.905  20.603   3.817
51954W        W20284   0.249   3.779  11.895
51955W        W20285  42.477   7.911  12.452
51956W        W20286  19.141  20.734   4.262
51957W        W20287  42.783  44.803   2.861
51958W        W20288   9.786   0.489  12.826
51959W        W20289  32.097  40.363  13.862
51960W        W20290  32.141   0.465  12.848
51961W        W20291  15.609  14.313  12.007
51962W        W20292  36.021   1.322  14.380
51963W        W20293   2.796  35.998  10.432
51964W        W20294  16.298   0.978   0.295
51965W        W20295  19.257  28.059  14.862
51966W        W20296   3.322  15.230   2.712
51967W        W20297   5.907  17.753   2.770
51968W        W20298   4.706  34.412   1.728
51969W        W20299   4.737  35.460   3.696
51970W        W20300  38.933  18.122   1.374
51971W        W20301  11.782   0.489   3.239
51972W        W20302  17.688  25.048  13.931
51973W        W20303  24.549   0.404  12.480
51974W        W20304  42.483   6.373   1.780
51975W        W20305  33.886  18.574  14.478
51976W        W20306  32.104  20.573   0.783
51977W        W20307  34.476   9.233   1.263
51978W        W20308   7.327  16.172  13.974
51979W        W20309  42.820  23.593   3.362
51980W        W20310  43.952  16.234  11.445
51981W        W20311  43.418  38.933  14.470
51982W        W20312  14.124  31.572   1.808
51983W        W20313  34.430  26.188   1.211
51984W        W20314   8.211  40.309   1.307
51985W        W20315  38.039  27.061   2.312
51986W        W20316  23.626  13.760  11.945
51987W        W20317  35.018  19.190   2.215
51988W        W20318  41.898  27.096   0.852
51989W        W20319  10.373  30.047   0.480
51990W        W20320   3.859  10.660   0.439
51991W        W20321  21.104  15.716   2.896
51992W        W20322  24.202  18.656   3.264
51993W        W20323  43.942  43.948  13.823
51994W        W20324  18.549   4.822  14.474
51995W        W20325  30.997   3.426  11.386
51996W        W20326  13.758  16.247   2.275
51997W        W20327  13.641  36.468  12.097
51998W        W20328  27.957  26.475   0.323
51999W        W20329   2.942  12.719  13.517
52000W        W20330  36.443  28.138  10.926
52001W        W20331   1.781  10.874   2.739
52002W        W20332  34.402   9.866  12.471
52003W        W20333  15.150  32.594  13.793
52004W        W20334  10.666   1.425   3.759
52005W        W20335  10.845  30.447  10.471
52006W        W20336   9.367   4.393   4.604
52007W        W20337   8.195  27.048   2.858
52008W        W20338  11.660  15.194   0.801
52009W        W20339  13.616  32.434   1.415
52010W        W20340  24.669  23.190  12.523
52011W        W20341   7.381  33.413   2.320
52012W        W20342   6.241  42.868   0.797
52013W        W20343  33.508  19.067  10.907
52014W        W20344   7.251  25.547  12.450
52015W        W20345  31.628   7.268   0.402
52016W        W20346   1.483  37.052  13.402
52017W        W20347   3.334  29.038   3.258
52018W        W20348  23.107  24.537   3.232
52019W        W20349  35.974  43.882  12.057
52020W        W20350  22.019   2.348   3.867
52021W        W20351  14.646  39.358  12.953
52022W        W20352  21.630  40.905  13.411
52023W        W20353  35.920  44.308   3.632
52024W        W20354  34.391  24.114   0.274
52025W        W20355   6.306  10.262   5.267
52026W        W20356  19.258   8.248   4.150
52027W        W20357  37.864  15.586  10.442
52028W        W20358  36.536  15.141   0.396
52029W        W20359  37.867   2.720   0.797
52030W        W20360  17.212  31.539  10.588
52031W        W20361  43.335  15.212   2.826
52032W        W20362  29.659  34.986  11.405
52033W        W20363  24.009  18.199   0.362
52034W        W20364  30.986  18.120  11.126
52035W        W20365  36.071  30.472   0.895
52036W        W20366   4.442  37.962   9.939
52037W        W20367  25.548  12.213  13.907
52038W        W20368  22.528  33.514  13.316
52039W        W20369  39.853   3.330   0.890
52040W        W20370  12.698  38.343  13.927
52041W        W20371   7.308   8.241   4.224
52042W        W20372  17.620  36.411  14.016
52043W        W20373  34.002  25.097  10.489
52044W        W20374  30.500  22.205  10.587
52045W        W20375  35.947   7.222  11.975
52046W        W20376   1.930  10.166   3.341
52047W        W20377   2.303  34.964  14.879
52048W        W20378   3.885  31.148  12.013
52049W        W20379   3.735  20.611  13.382
52050W        W20380  29.523   0.302   1.436
52051W        W20381   8.658  20.216  12.849
52052W        W20382  38.364  15.632  13.462
52053W        W20383  22.085  36.983  12.507
52054W        W20384  44.323   6.799   3.783
52055W        W20385  25.537  21.192  13.029
52056W        W20386  12.720  11.231   4.788
52057W        W20387  24.122  19.548   4.136
52058W        W20388   3.326  42.415  12.433
52059W        W20389  44.998  12.205  11.420
52060W        W20390  44.843  16.288   4.154
52061W        W20391   6.196  17.077   0.792
52062W        W20392  14.740  15.810   4.664
52063W        W20393   5.748  25.149   0.894
52064W        W20394   2.792  26.089  10.547
52065W        W20395  45.000  16.211   3.377
52066W        W20396  24.214  41.912  11.609
52067W        W20397  32.007   1.781   4.721
52068W        W20398  18.650  28.051   1.704
52069W        W20399  42.818  17.133   1.246
52070W        W20400   6.778  30.597  14.860
52071W        W20401  15.623  13.634   3.259
52072W        W20402  25.642  25.024   9.986
52073W        W20403  11.153  10.197   2.303
52074W        W20404  37.071  24.677   0.282
52075W        W20405  11.134  20.203  13.385
52076W        W20406  20.554   9.825   3.339
52077W        W20407  41.362  23.601  13.532
52078W        W20408  36.376  28.669   0.749
52079W        W20409  15.757  34.073   0.802
52080W        W20410  11.322  41.925   4.696
52081W        W20411  35.040  40.543  13.458
52082W        W20412  18.671  14.202   5.130
52083W        W20413   7.891  23.574  10.569
52084W        W20414  38.380  24.560   0.341
52085W        W20415  30.044  16.586  12.462
52086W        W20416  14.327   4.347  10.130
52087W        W20417  19.699  18.738  11.592
52088W        W20418  17.762  12.328  11.574
52089W        W20419  37.491  40.952  11.073
52090W        W20420  42.468  13.296   3.715
52091W        W20421  24.229  29.032   2.371
52092W        W20422  37.043  33.560   1.283
52093W        W20423  27.944  41.995  11.458
52094W        W20424  30.091  41.362  11.460
52095W        W20425  36.375  22.631  14.874
52096W        W20426  37.453  34.420  10.613
52097W        W20427   0.889  28.596  12.877
52098W        W20428   3.265  15.148  10.624
52099W        W20429  16.753  26.035   3.186
52100W        W20430   6.820  21.586   0.816
52101W        W20431  23.147  42.879  10.536
52102W        W20432  19.554  12.135   0.784
52103W        W20433  37.944   8.849   0.430
52104W        W20434  30.992  16.694  11.610
52105W        W20435  36.378  38.549   1.916
52106W        W20436  22.151  21.753  14.918
52107W        W20437  20.264  31.112   5.570
52108W        W20438  31.567  21.241   4.609
52109W        W20439  23.018  43.430   4.173
52110W        W20440  19.265  24.638  12.009
52111W        W20441  35.528  27.156   0.861
52112W        W20442  15.769  44.471   4.726
52113W        W20443  36.416  27.655  12.844
52114W        W20444  35.885  41.033   3.855
52115W        W20445  37.540   2.880  10.978
52116W        W20446   9.788  15.625   4.161
52117W        W20447  15.654  12.690   0.947
52118W        W20448  17.580  23.027   3.194
52119W        W20449  15.693  11.173   3.342
52120W        W20450  42.364   4.853  13.328
52121W        W20451   1.876  30.474   3.837
52122W        W20452  42.951  42.291  14.783
52123W        W20453  13.841   3.935  13.352
52124W        W20454  38.046   7.886   5.772
52125W        W20455  39.544  36.965   1.807
52126W        W20456   4.405  31.580  13.026
52127W        W20457  20.079  19.700  14.418
52128W        W20458  36.459  26.118   0.744
52129W        W20459  43.836  21.022  13.500
52130W        W20460  30.126  28.465   3.197
52131W        W20461  40.965  30.495   1.419
52132W        W20462  27.564   8.715   4.274
52133W        W20463   0.298   4.821   0.417
52134W        W20464  22.224  41.818   0.845
52135W        W20465  35.050   8.817  13.333
52136W        W20466  32.396  16.203   4.712
52137W        W20467  39.028  32.483  11.531
52138W        W20468  25.043   6.314   3.851
52139W        W20469  43.285  26.065  12.896
52140W        W20470  15.307  32.104  14.296
52141W        W20471   2.875   6.212   3.195
52142W        W20472   5.197   1.921  14.940
52143W        W20473  38.894  34.089  11.374
52144W        W20474  15.256  27.108   4.775
52145W        W20475  39.394  39.926  10.436
52146W        W20476   1.955   1.461   3.292
52147W        W20477  16.600  35.445   5.586
52148W        W20478  40.951  43.017   2.394
52149W        W20479  28.144  31.001   0.446
52150W        W20480  33.434  37.355  12.569
52151W        W20481  12.215  27.959  14.848
52152W        W20482  18.195  37.066  10.450
52153W        W20483  18.293  34.434   2.362
52154W        W20484  18.723  37.377  14.029
52155W        W20485  37.431  24.097   2.749
52156W        W20486  32.419  18.630  13.011
52157W        W20487  43.314  30.583   5.288
52158W        W20488  24.128  15.683   5.255
52159W        W20489  15.237  35.854  11.033
52160W        W20490  31.487   0.769   4.646
52161W        W20491  38.361  35.095   1.417
52162W        W20492  37.056  13.322  13.506
52163W        W20493   6.227  36.965   3.791
52164W        W20494   3.411  20.149  14.490
52165W        W20495  43.980  16.165  10.520
52166W        W20496  25.972   2.266   4.216
52167W        W20497  18.196  20.698  10.919
52168W        W20498  26.002  41.919   1.861
52169W        W20499  26.599  33.050   4.694
52170W        W20500  28.492  25.468  14.996
52171W        W20501  37.539  32.552  10.933
52172W        W20502  39.027  43.291   3.367
52173W        W20503  24.571  27.088   0.759
52174W        W20504  36.927  18.181   0.305
52175W        W20505   3.733  34.431  13.335
52176W        W20506  34.076  21.082  11.126
52177W        W20507  28.584   6.226   0.767
52178W        W20508   5.379  42.438   3.820
52179W        W20509   7.879  43.392   2.198
52180W        W20510  25.155  16.150  12.446
52181W        W20511  17.176  30.029   0.863
52182W        W20512  30.105  19.695  11.123
52183W        W20513  18.782  27.592  14.012
52184W        W20514  39.359  36.967  12.903
52185W        W20515  12.119  17.653   2.330
52186W        W20516  42.380   7.359   0.396
52187W        W20517  19.553  30.636   1.236
52188W        W20518   1.791   7.818  13.330
52189W        W20519  31.439  39.458   4.267
52190W        W20520  34.375   6.361  12.367
52191W        W20521  40.037  30.464   4.333
52192W        W20522  15.136   9.265  10.458
52193W        W20523  40.386  17.727   2.711
52194W        W20524  44.352   9.665   3.833
52195W        W20525  13.670  14.801   2.666
52196W        W20526  21.019   1.869  12.374
52197W        W20527  23.144   3.840   3.154
52198W        W20528  37.059   3.267  12.951
52199W        W20529   9.215   4.864   0.773
52200W        W20530  27.027  21.144  12.531
52201W        W20531  36.536  39.377  13.416
52202W        W20532  42.917   1.856   3.823
52203W        W20533  39.939  44.881   0.961
52204W        W20534  29.086  28.533  12.986
52205W        W20535   7.331  29.521  13.006
52206W        W20536  44.372  15.125   1.747
52207W        W20537  39.996  14.711   2.739
52208W        W20538  20.707  44.756   0.297
52209W        W20539  35.899   1.913   4.334
52210W        W20540  11.223   6.839   4.155
52211W        W20541  20.136  13.245  13.957
52212W        W20542   8.792  32.436   3.312
52213W        W20543  23.165  35.570   1.380
52214W        W20544  30.025  21.726  11.456
52215W        W20545  28.043  10.289   0.368
52216W        W20546   8.717   5.236   2.387
52217W        W20547  43.790  33.921   4.255
52218W        W20548  37.865   8.726   1.898
52219W        W20549  38.448  33.117  13.891
52220W        W20550  11.854  36.348  11.610
52221W        W20551  33.894  19.057  11.438
52222W        W20552  14.253  20.529   0.292
52223W        W20553  27.055  44.355  14.904
52224W        W20554  38.836  25.151  12.341
52225W        W20555  22.234   6.391   1.385
52226W        W20556  19.601  38.067   4.233
52227W        W20557  43.925   2.424  14.977
52228W        W20558  19.164  30.584   4.781
52229W        W20559   8.829  36.519  14.374
52230W        W20560  43.451  17.086  10.632
52231W        W20561  26.069   7.198  14.282
52232W        W20562   2.273  32.562   2.670
52233W        W20563   5.328   4.237  14.924
52234W        W20564  15.226  32.601  11.448
52235W        W20565  31.069  21.674   0.898
52236W        W20566   5.726   0.455  13.939
52237W        W20567  26.122   7.272   4.235
52238W        W20568   8.223  19.118   2.670
52239W        W20569   3.446  43.951   4.671
52240W        W20570  11.726  11.810   1.850
52241W        W20571  23.228  18.111   9.961
52242W        W20572  25.533  15.264   2.752
52243W        W20573  40.506  38.984   4.145
52244W        W20574  41.826  43.347   1.815
52245W        W20575   0.383  27.550  12.840
52246W        W20576  26.012  30.582  10.464
52247W        W20577  10.377  37.449   0.911
52248W        W20578  25.151   4.877   5.236
52249W        W20579  21.176  11.140  11.016
52250W        W20580   6.335  20.115  14.390
52251W        W20581  41.845  35.048  14.016
52252W        W20582  23.728   5.838   1.211
52253W        W20583  19.710   8.401   1.328
52254W        W20584   5.205  10.825  11.970
52255W        W20585  35.971  44.970   0.483
52256W        W20586  43.344   6.747  10.549
52257W        W20587  16.614  24.504   4.813
52258W        W20588  40.347   6.207  11.994
52259W        W20589  23.993  35.603  12.935
52260W        W20590  15.614  36.988  14.457
52261W        W20591  35.047  12.794   2.234
52262W        W20592  42.431   0.285  12.480
52263W        W20593  26.684  14.732   4.726
52264W        W20594  22.654  35.004  13.045
52265W        W20595  24.998  15.235   2.666
52266W        W20596  13.279  35.440   3.276
52267W        W20597  25.156  14.595   0.468
52268W        W20598  40.503  13.694   4.139
52269W        W20599  27.184  16.247   1.870
52270W        W20600  37.070   0.413   2.758
52271W        W20601  32.991   2.881  11.408
52272W        W20602  31.009  22.133   5.689
52273W        W20603   8.836  33.413  13.938
52274W        W20604  39.808  37.479   4.138
52275W        W20605   2.343  42.463  11.599
52276W        W20606   8.885  22.583  13.423
52277W        W20607  43.299  32.917  11.414
52278W        W20608   1.369   0.901   1.211
52279W        W20609   0.258   3.801  10.596
52280W        W20610   6.196  43.516  12.013
52281W        W20611  27.448  24.996   4.796
52282W        W20612  31.119  10.155   0.427
52283W        W20613  14.730  17.181  12.031
52284W        W20614  29.583  19.739   2.728
52285W        W20615   4.242  13.159  14.331
52286W        W20616  25.513  20.734  12.905
52287W        W20617   6.717  21.040   1.398
52288W        W20618  19.625   2.884   4.662
52289W        W20619  11.684  22.567   0.819
52290W        W20620  42.956  42.463  12.403
52291W        W20621   6.775   6.734  14.372
52292W        W20622  30.480  29.980   0.872
52293W        W20623  32.628  36.479   2.680
52294W        W20624  14.600   0.284  11.474
52295W        W20625  27.964  33.893  14.499
52296W        W20626  22.122   8.319   3.800
52297W        W20627   4.891   1.318   1.424
52298W        W20628  26.970  16.135  12.529
52299W        W20629   4.761   3.400  13.379
52300W        W20630  21.205   3.942  14.927
52301W        W20631  25.478   9.336   2.750
52302W        W20632  22.218  20.122   2.410
52303W        W20633  41.886  12.630  10.125
52304W        W20634  22.212  38.515   0.846
52305W        W20635  34.567  25.975  11.522
52306W        W20636  29.966  12.686   4.313
52307W        W20637  12.138   7.309   0.964
52308W        W20638  25.987  39.530  13.378
52309W        W20639  27.587  37.403   3.742
52310W        W20640  15.761  42.977   0.247
52311W        W20641   4.908   2.745   3.342
52312W        W20642  39.911  44.952  14.915
52313W        W20643  41.522  26.606   0.426
52314W        W20644  36.871  14.688  12.970
52315W        W20645  36.561   3.225  12.033
52316W        W20646  42.990  17.653  10.456
52317W        W20647   2.399   9.743   2.812
52318W        W20648  40.901  15.208  14.836
52319W        W20649   7.396  22.190   0.371
52320W        W20650  26.627   3.439  12.428
52321W        W20651  25.103  15.663   2.309
52322W        W20652  30.515  27.025  10.409
52323W        W20653  37.466  20.687   1.325
52324W        W20654  12.168  40.446   4.751
52325W        W20655  33.126  12.342   2.200
52326W        W20656   6.396  20.214  11.877
52327W        W20657  34.498  14.280  13.464
52328W        W20658  28.595  23.611   1.727
52329W        W20659  26.594  30.446   2.786
52330W        W20660   9.311   6.269   0.337
52331W        W20661  29.605   7.728   2.831
52332W        W20662  29.992  33.449   2.204
52333W        W20663  24.008  28.129  11.379
52334W        W20664  34.405  24.083   1.760
52335W        W20665  16.724  38.455   2.204
52336W        W20666  18.277   0.317   4.224
52337W        W20667  14.698  17.743  14.969
52338W        W20668   9.243  37.955  11.050
52339W        W20669  22.206  21.067  10.413
52340W        W20670  20.642   6.295  11.951
52341W        W20671   1.887  25.014   0.755
52342W        W20672  31.473  22.508  12.865
52343W        W20673   6.772  32.023  11.034
52344W        W20674  42.328  41.961   2.202
52345W        W20675   1.274  35.518  10.998
52346W        W20676  36.955  27.941   1.221
52347W        W20677  25.154   2.906   0.935
52348W        W20678  32.119  25.066   0.756
52349W        W20679   9.770  15.726  11.400
52350W        W20680  12.231   1.319  12.013
52351W        W20681  31.012  18.254   0.298
52352W        W20682   1.935  35.376  11.031
52353W        W20683  18.545  41.301   4.246
52354W        W20684   6.319  16.758  13.476
52355W        W20685  26.656   7.279  14.807
52356W        W20686  23.042  43.776  12.460
52357W        W20687   8.773  35.100   1.857
52358W        W20688  24.647  29.607   0.310
52359W        W20689  18.683  21.716   3.200
52360W        W20690  18.621  38.877   5.184
52361W        W20691   7.188   7.303  12.874
52362W        W20692   8.164  27.448  13.418
52363W        W20693   5.338  23.657  10.592
52364W        W20694   7.373  23.628   3.378
52365W        W20695  27.608  32.889   3.190
52366W        W20696  11.754  19.279   4.164
52367W        W20697  24.168  11.859  10.901
52368W        W20698  14.632  31.542  11.378
52369W        W20699  33.453  26.492   3.328
52370W        W20700  31.921  32.078   2.877
52371W        W20701  15.220   5.266  13.401
52372W        W20702  33.614   1.942   1.387
52373W        W20703  27.117   9.804  13.450
52374W        W20704  37.436  15.746  13.981
52375W        W20705  15.238  31.962  11.427
52376W        W20706  31.403  28.650   2.691
52377W        W20707  29.590   2.332  11.597
52378W        W20708  16.239  18.700   3.630
52379W        W20709   2.743  27.976  10.419
52380W        W20710  10.148  44.399  13.938
52381W        W20711   3.911  24.995   3.715
52382W        W20712  19.574  43.505   2.708
52383W        W20713  36.531  37.876  14.847
52384W        W20714  29.570  14.783  14.416
52385W        W20715  29.935  17.064  12.388
52386W        W20716  12.176  18.060   4.785
52387W        W20717  25.014  43.450   0.432
52388W        W20718   2.953  36.859  13.498
52389W        W20719  21.173  39.365  13.959
52390W        W20720  23.133  43.377   4.837
52391W        W20721  10.369  23.152   1.362
52392W        W20722  33.911  13.767   0.770
52393W        W20723  38.976   3.904  14.425
52394W        W20724   1.745  30.140  12.975
52395W        W20725  12.660  15.622   4.703
52396W        W20726  21.609  22.150  12.018
52397W        W20727  22.576  41.791   3.683
52398W        W20728  32.605  31.103   3.375
52399W        W20729  10.185  26.548  12.890
52400W        W20730  40.818  15.761   2.775
52401W        W20731  44.330  35.905  10.144
52402W        W20732  20.719  43.290  12.080
52403W        W20733  29.526  43.969   0.303
52404W        W20734   2.928   9.237   2.384
52405W        W20735  41.490   1.238   3.153
52406W        W20736  17.194  19.203   0.789
52407W        W20737  23.621  32.937   1.387
52408W        W20738  35.935  44.343   1.879
52409W        W20739  20.648  40.548   1.232
52410W        W20740  26.025  25.169   5.156
52411W        W20741  11.747  23.708  12.576
52412W        W20742  44.374  16.125  12.856
52413W        W20743  35.523  22.024   2.247
52414W        W20744  29.610  24.701  11.376
52415W        W20745  43.804  42.033   0.388
52416W        W20746  21.531  13.164   2.723
52417W        W20747  12.143  16.281  12.823
52418W        W20748  18.072  13.264  11.540
52419W        W20749  38.897  15.802  13.864
52420W        W20750  16.644  35.579  10.137
52421W        W20751  13.743  40.891   4.801
52422W        W20752  41.346   8.295  11.939
52423W        W20753  36.930  10.642   4.330
52424W        W20754  16.777  30.549  13.901
52425W        W20755  43.319  44.277  14.285
52426W        W20756   2.419   1.322   4.609
52427W        W20757  19.168  12.811  10.427
52428W        W20758  25.492   1.752   4.262
52429W        W20759  42.929  12.360  11.463
52430W        W20760   9.178  19.280   1.434
52431W        W20761  23.610  39.918  12.435
52432W        W20762  30.104  20.694   4.318
52433W        W20763   4.710  44.335   1.400
52434W        W20764  23.731   7.741   1.266
52435W        W20765   8.227   0.797  14.797
52436W        W20766  12.832  31.426  14.848
52437W        W20767  40.477  13.195   4.748
52438W        W20768  35.089  41.488  12.576
52439W        W20769  44.418   5.918   1.798
52440W        W20770   2.882   0.945   0.374
52441W        W20771  13.844   8.759  11.980
52442W        W20772  26.667  41.478   3.173
52443W        W20773  14.658  22.629   1.408
52444W        W20774  25.621   5.237   0.774
52445W        W20775  28.634  34.973   4.264
52446W        W20776   5.333  13.349  13.993
52447W        W20777  39.987  40.331  10.521
52448W        W20778  24.006   3.249  11.568
52449W        W20779  11.267  11.342  11.539
52450W        W20780  10.637  23.114   4.262
52451W        W20781  35.017  34.419  10.571
52452W        W20782  41.489  22.235   4.149
52453W        W20783  34.430  14.233   0.265
52454W        W20784  22.155  11.723   4.632
52455W        W20785  29.153  39.899   4.163
52456W        W20786   8.764  38.840   5.152
52457W        W20787  25.697  41.504  12.906
52458W        W20788  37.858  20.182   2.755
52459W        W20789  22.588  33.550  10.426
52460W        W20790   3.237  40.050   0.862
52461W        W20791  37.839  41.517  14.926
52462W        W20792  10.834  19.758   0.963
52463W        W20793  28.003  25.487  12.491
52464W        W20794  39.888   8.387  14.861
52465W        W20795  17.590  33.498   3.237
52466W        W20796  26.147  29.494  13.394
52467W        W20797  36.933  19.089  11.981
52468W        W20798  27.053  12.300  13.541
52469W        W20799  32.409  35.387  12.540
52470W        W20800  37.993  43.970   2.317
52471W        W20801  25.523  27.980   3.331
52472W        W20802  25.059  12.300  11.893
52473W        W20803  39.443   7.295   0.735
52474W        W20804  19.608   4.845   1.818
52475W        W20805  13.128  19.732   3.149
52476W        W20806  19.157   9.884  12.036
52477W        W20807   8.751  11.153   2.330
52478W        W20808  29.454   2.300  14.281
52479W        W20809   7.909  35.106   0.342
52480W        W20810  20.035  26.126   1.797
52481W        W20811   7.409  29.501  14.331
52482W        W20812  31.918  44.341   4.690
52483W        W20813  32.622   5.424   4.153
52484W        W20814  18.175  12.231   4.677
52485W        W20815   3.865   6.706  13.998
52486W        W20816   7.893  26.562   2.250
52487W        W20817  21.625   7.829  13.029
52488W        W20818  19.155  41.372   1.331
52489W        W20819  33.020  38.335  10.534
52490W        W20820  23.092  12.760  14.430
52491W        W20821  30.521  35.380   1.839
52492W        W20822  43.017   9.252   1.882
52493W        W20823  13.297  19.232  12.507
52494W        W20824   7.289  33.977   1.699
52495W        W20825  14.317   0.340  13.061
52496W        W20826   1.455   7.304  13.541
52497W        W20827  14.762  35.035   0.468
52498W        W20828   3.872  39.973  10.638
52499W        W20829  31.074   4.217  11.539
52500W        W20830  32.975  21.710  11.091
52501W        W20831   3.757   2.412   2.880
52502W        W20832   6.890  33.561   4.634
52503W        W20833  31.025  13.709   1.702
52504W        W20834  26.696  28.121  11.509
52505W        W20835   4.714  11.260   1.844
52506W        W20836   0.756  30.530  12.054
52507W        W20837  26.469  14.127  11.553
52508W        W20838  14.184  42.488   4.715
52509W        W20839  26.180  34.428  12.079
52510W        W20840  16.114  17.303  13.869
52511W        W20841  31.556  14.750   4.734
52512W        W20842  37.443  33.910   2.709
52513W        W20843  36.515  15.594  12.355
52514W        W20844  29.669  39.383   3.274
52515W        W20845  28.595  39.863   3.700
52516W        W20846  28.584  27.567  10.597
52517W        W20847  24.602  29.940   2.380
52518W        W20848   3.236  11.331  13.011
52519W        W20849  15.745  18.242  10.494
52520W        W20850  26.972  11.353  11.529
52521W        W20851  31.569   0.477   2.349
52522W        W20852  44.386  24.480  12.073
52523W        W20853   4.926   9.872   0.853
52524W        W20854  23.493  18.585  11.416
52525W        W20855  14.144  42.786   1.264
52526W        W20856  43.483  38.427   3.725
52527W        W20857  26.005  41.496   0.341
52528W        W20858  12.720   2.297   2.369
52529W        W20859  17.663  25.107   1.304
52530W        W20860  10.173  36.387  12.561
52531W        W20861  21.095  29.437   4.689
52532W        W20862  44.445  39.959   9.971
52533W        W20863  11.784   5.692  14.302
52534W        W20864  43.401  15.277   3.324
52535W        W20865  44.955  39.825   0.298
52536W        W20866   1.319  39.356  11.591
52537W        W20867  12.132  36.384  14.763
52538W        W20868  38.075  26.500   0.335
52539W        W20869   7.406  17.270   1.773
52540W        W20870  35.958  15.214  12.051
52541W        W20871  16.790  13.766   4.278
52542W        W20872  13.716  21.123   4.247
52543W        W20873  18.263  11.864  11.417
52544W        W20874  38.563   7.828   0.814
52545W        W20875  38.014  19.685  14.969
52546W        W20876   2.447   6.833  12.870
52547W        W20877   2.902  44.460  13.461
52548W        W20878  27.561  38.935   2.323
52549W        W20879  32.417  25.179   4.749
52550W        W20880  20.606  42.391  10.976
52551W        W20881  13.348  27.451  11.115
52552W        W20882  12.714  24.498   4.266
52553W        W20883  15.748  44.923   2.340
52554W        W20884   1.467  27.678  14.995
52555W        W20885  29.031  35.075   9.966
52556W        W20886   1.376   9.180   0.934
52557W        W20887  12.335   2.464  11.979
52558W        W20888   5.928  35.572  14.871
52559W        W20889  44.897  29.507   3.719
52560W        W20890  34.383   9.385  14.783
52561W        W20891  33.035  38.452  11.092
52562W        W20892  12.692  30.158   4.150
52563W        W20893  13.207   9.183   2.186
52564W        W20894  40.023  34.989  12.066
52565W        W20895  32.467  22.071  12.923
52566W        W20896  12.126   6.279  13.929
52567W        W20897   3.896   7.794   0.771
52568W        W20898   6.838   7.729   3.784
52569W        W20899   3.781  11.654   1.293
52570W        W20900  11.159  38.443   3.228
52571W        W20901  40.993  31.932   0.885
52572W        W20902  13.264  12.138   4.668
52573W        W20903  18.165  25.685   5.082
52574W        W20904  40.491  42.897  10.534
52575W        W20905   2.883   4.803  13.924
52576W        W20906  22.250  42.031  12.353
52577W        W20907  17.282  17.781   3.261
52578W        W20908   9.373  20.233  13.435
52579W        W20909  14.685  26.058   1.323
52580W        W20910  22.246  27.579   3.316
52581W        W20911  35.554  22.518  13.499
52582W        W20912  19.171  22.632  11.855
52583W        W20913  21.175  23.693   1.248
52584W        W20914  44.475  16.661   0.934
52585W        W20915  30.586  25.190   0.923
52586W        W20916  44.306  29.506  12.043
52587W        W20917  15.132  26.184  14.866
52588W        W20918  32.143  29.668  13.941
52589W        W20919  41.012  18.051   3.294
52590W        W20920  32.408  23.129  10.566
52591W        W20921  33.971   2.867   4.753
52592W        W20922  11.278  18.575  13.481
52593W        W20923  41.382  23.703  13.939
52594W        W20924  21.052  10.169   5.118
52595W        W20925  30.586  12.338   3.771
52596W        W20926  21.735  42.800   1.800
52597W        W20927  40.393  29.153   2.243
52598W        W20928  41.295   4.708  14.845
52599W        W20929  33.485  19.282  12.387
52600W        W20930   5.895  33.491  11.015
52601W        W20931   7.386  23.529  12.375
52602W        W20932   8.706  28.123  14.905
52603W        W20933  18.195  40.410  13.966
52604W        W20934  23.204  31.456   4.150
52605W        W20935  24.588  20.054  10.635
52606W        W20936  42.808  19.562  10.547
52607W        W20937   5.846   8.250  12.851
52608W        W20938   0.921  16.130   1.833
52609W        W20939  38.002  21.618   0.799
52610W        W20940  44.461  43.892   3.178
52611W        W20941  10.800  19.629   1.748
52612W        W20942  20.754  29.586   4.772
52613W        W20943  28.107  33.428  10.514
52614W        W20944  33.989  13.755   4.349
52615W        W20945   1.916   2.916   4.672
52616W        W20946  14.098  10.203  13.933
52617W        W20947  10.216  18.172  11.478
52618W        W20948  27.465  27.550   0.764
52619W        W20949   3.303  31.057  13.917
52620W        W20950  20.157  20.245   4.606
52621W        W20951  35.517  35.410   2.833
52622W        W20952   7.674  37.997  11.912
52623W        W20953  18.260  31.497  11.021
52624W        W20954  31.608  25.660  14.016
52625W        W20955  25.986   5.702  12.969
52626W        W20956  32.976  44.951   1.766
52627W        W20957  29.638  20.588   9.640
52628W        W20958  35.411   4.435  12.368
52629W        W20959  28.486  41.359  12.544
52630W        W20960  18.159  16.772   2.338
52631W        W20961   5.375   9.658   2.216
52632W        W20962  42.886  20.164   3.263
52633W        W20963  12.126  41.374  13.930
52634W        W20964  16.093   8.247  14.433
52635W        W20965  20.671  35.861   1.817
52636W        W20966   3.415  17.626   1.806
52637W        W20967  29.505  41.437   5.274
52638W        W20968  30.097   1.886  13.866
52639W        W20969  38.529  19.763   2.791
52640W        W20970  14.590  44.769  11.069
52641W        W20971   1.298  17.632  11.058
52642W        W20972  24.182   8.704   5.272
52643W        W20973  32.488  38.874   1.912
52644W        W20974  24.100  34.113  14.448
52645W        W20975  29.657  30.423   1.927
52646W        W20976  38.553   0.485  11.390
52647W        W20977  27.645  40.866  14.513
52648W        W20978  34.514  34.567  12.890
52649W        W20979   5.418  41.468  11.071
52650W        W20980   5.244   9.181   0.733
52651W        W20981  28.444  44.834  11.961
52652W        W20982  42.909  20.236   2.181
52653W        W20983   7.384  17.760  14.789
52654W        W20984  27.583  25.181  14.477
52655W        W20985  26.130  39.033  11.377
52656W        W20986  40.408  42.403  12.360
52657W        W20987  13.226  10.277  10.988
52658W        W20988  13.142  39.009  13.313
52659W        W20989  22.188   9.320  12.887
52660W        W20990   9.309  38.407   4.161
52661W        W20991  44.006  21.062   4.609
52662W        W20992  30.983  14.239  14.977
52663W        W20993  38.442  41.801  10.602
52664W        W20994  26.630  13.750  11.433
52665W        W20995   8.202  12.319   1.380
52666W        W20996  11.166  24.704   1.933
52667W        W20997  17.255  33.000   4.124
52668W        W20998  40.894  39.969   3.810
52669W        W20999  44.372   2.804  10.428
52670W        W21000  11.369  29.008  12.912
52671W        W21001  30.958  14.642   0.423
52672W        W21002  18.687   1.419   2.391
52673W        W21003  13.678  11.708   0.391
52674W        W21004   3.356  28.184  13.540
52675W        W21005  12.125   3.827   1.737
52676W        W21006  29.628  21.025  12.407
52677W        W21007  31.501  38.560   2.695
52678W        W21008  20.190  38.013   0.799
52679W        W21009  13.254  11.727   1.212
52680W        W21010  16.746  31.447   0.932
52681W        W21011  12.247  26.071   3.778
52682W        W21012  40.867  43.785   3.821
52683W        W21013   0.953   8.294   0.414
52684W        W21014  40.967   3.832  13.901
52685W        W21015  11.156   7.321  13.474
52686W        W21016  34.047  34.565   3.343
52687W        W21017  42.894  21.194   1.218
52688W        W21018  11.781  22.077   3.214
52689W        W21019  43.014  27.464   3.664
52690W        W21020  31.536  21.022  10.937
52691W        W21021  20.157  43.904   1.274
52692W        W21022  25.620  19.151  13.326
52693W        W21023  26.039  34.995   4.639
52694W        W21024  27.449  30.599  14.430
52695W        W21025  42.453   3.333   3.374
52696W        W21026  39.872  19.166  12.556
52697W        W21027  37.085  39.011  12.488
52698W        W21028  20.116   5.303  11.987
52699W        W21029  31.465  44.449  13.824
52700W        W21030  34.418  41.343   1.852
52701W        W21031  37.847   7.264   5.158
52702W        W21032  14.277  42.907   0.393
52703W        W21033   7.224  32.596   2.356
52704W        W21034  42.976  31.140  13.476
52705W        W21035   0.961  22.124   2.297
52706W        W21036  39.324   1.414   3.307
52707W        W21037  34.514  30.492   3.327
52708W        W21038  43.767  35.404   3.784
52709W        W21039  20.704  40.413  13.930
52710W        W21040  39.483  24.601  14.413
52711W        W21041  20.156  17.222   9.513
52712W        W21042  37.871  12.736  14.437
52713W        W21043  17.149  40.394  14.323
52714W        W21044  12.296  21.094   5.192
52715W        W21045  31.607  15.737   4.707
52716W        W21046   4.261  40.972  12.942
52717W        W21047  40.431  18.090  14.406
52718W        W21048   2.264   1.937  12.377
52719W        W21049  15.215  41.853   4.797
52720W        W21050   4.859   1.976   1.332
52721W        W21051  40.974   6.196  13.357
52722W        W21052  37.886  20.527   4.833
52723W        W21053  11.254  16.773  11.609
52724W        W21054  36.880  26.504   4.669
52725W        W21055  28.131  31.916  11.537
52726W        W21056  37.553  28.931  11.511
52727W        W21057  37.438  43.849  10.639
52728W        W21058   7.294  30.983   3.739
52729W        W21059   6.887  11.246  14.836
52730W        W21060  12.831   3.433  14.780
52731W        W21061  26.470  42.301   0.922
52732W        W21062  17.198  36.361  14.931
52733W        W21063  23.520  27.475  11.523
52734W        W21064   3.901  36.910   5.156
52735W        W21065  13.647  31.125  10.970
52736W        W21066  40.029  44.900   2.885
52737W        W21067  17.604  12.818  14.509
52738W        W21068  38.991  15.707   4.822
52739W        W21069  21.085  28.515  13.846
52740W        W21070   8.689  33.583   4.168
52741W        W21071  42.961  16.301   0.905
52742W        W21072  23.559  17.266  11.995
52743W        W21073  18.110  33.950   3.717
52744W        W21074  43.848  22.050   2.900
52745W        W21075   0.374   8.267   2.722
52746W        W21076  10.243   8.867   1.801
52747W        W21077  43.317  17.252  13.377
52748W        W21078  21.674   7.910   1.914
52749W        W21079  14.247  28.470   1.914
52750W        W21080   1.409  32.132  13.344
52751W        W21081  38.542  11.183   2.264
52752W        W21082  40.052  25.559   4.707
52753W        W21083  30.446  28.479  11.562
52754W        W21084  34.112  23.585  13.514
52755W        W21085  15.098  26.612  14.847
52756W        W21086  44.782  36.076   0.838
52757W        W21087   1.795  18.645  11.087
52758W        W21088  44.981  39.512   2.735
52759W        W21089  44.784  15.760   0.844
52760W        W21090  28.673   8.271  13.537
52761W        W21091   3.805  20.558  12.492
52762W        W21092  20.598  25.611   0.312
52763W        W21093  20.147  17.227   0.953
52764W        W21094  34.045  42.414   0.792
52765W        W21095  14.607  42.919  12.435
52766W        W21096  39.931  28.179  10.996
52767W        W21097  44.269  32.591  13.825
52768W        W21098  39.851  22.131   4.327
52769W        W21099  13.143   8.871   0.853
52770W        W21100  26.487  34.467   3.355
52771W        W21101  34.018   2.855   2.699
52772W        W21102  40.366  15.307   1.325
52773W        W21103  14.675  41.463   2.708
52774W        W21104  12.649  10.664  11.401
52775W        W21105  29.524   3.254  12.084
52776W        W21106  20.545  37.849  14.301
52777W        W21107  37.482  25.481   4.272
52778W        W21108  18.613  20.684   4.206
52779W        W21109  25.667  16.786  13.336
52780W        W21110   4.705  21.017  11.077
52781W        W21111   4.244  11.705   3.289
52782W        W21112  23.563  11.200   0.959
52783W        W21113  43.819  31.034   3.295
52784W        W21114  14.119  30.046  13.356
52785W        W21115  21.205   4.357  14.920
52786W        W21116   5.331  15.603  11.129
52787W        W21117  28.030   9.208  13.433
52788W        W21118  39.019  31.076   1.448
52789W        W21119  32.938  33.575  13.517
52790W        W21120   5.812   1.895   1.291
52791W        W21121  38.392  39.354  11.011
52792W        W21122   8.657  44.499  12.845
52793W        W21123  44.437  39.036  12.091
52794W        W21124  15.643   1.841   2.248
52795W        W21125  30.000  36.506   2.394
52796W        W21126  34.477  43.000   2.376
52797W        W21127  12.174  27.646   0.456
52798W        W21128   0.458  35.866  14.810
52799W        W21129  24.057  12.701  14.984
52800W        W21130   0.482  43.831   2.255
52801W        W21131  32.406  22.064   1.444
52802W        W21132  34.493  29.986  13.979
52803W        W21133   3.755  14.714  10.928
52804W        W21134  29.053  43.798  12.075
52805W        W21135  20.751   2.451   2.677
52806W        W21136  15.298   0.445  11.559
52807W        W21137  42.402  18.765  13.923
52808W        W21138  24.608  34.522  13.378
52809W        W21139  14.172  31.006   2.196
52810W        W21140   3.821  25.117   1.230
52811W        W21141  44.334   8.806  11.386
52812W        W21142   4.438  17.139   4.145
52813W        W21143  33.006  43.442   4.215
52814W        W21144  17.628   3.286   3.686
52815W        W21145   5.288  31.428  14.929
52816W        W21146  30.915  16.080  11.497
52817W        W21147  17.771  22.085   3.297
52818W        W21148   0.492   4.774   4.199
52819W        W21149  38.353  26.611   4.275
52820W        W21150  18.266  38.416  12.456
52821W        W21151   3.276   0.813  12.443
52822W        W21152  28.518  38.387  11.904
52823W        W21153  18.644  35.894  11.975
52824W        W21154   0.818  32.398   3.801
52825W        W21155  29.961  29.139   0.943
52826W        W21156  23.515  19.223  13.000
52827W        W21157  42.891  31.975  12.421
52828W        W21158  14.681   5.287   1.757
52829W        W21159  18.110  27.020  11.059
52830W        W21160  42.417  13.843   2.902
52831W        W21161  30.118   2.861   2.382
52832W        W21162  42.937  12.621  13.418
52833W        W21163  13.678  27.093   2.828
52834W        W21164  31.536  32.491   0.386
52835W        W21165   0.254  15.773   0.826
52836W        W21166  34.926  38.983  13.307
52837W        W21167   6.237  30.060  14.792
52838W        W21168  42.933   9.167  14.294
52839W        W21169   5.737   7.180   4.338
52840W        W21170  41.364  11.305  13.365
52841W        W21171   3.334   8.872  12.423
52842W        W21172   1.898  14.669  13.502
52843W        W21173  11.222   7.235  13.810
52844W        W21174   9.175  23.589   4.723
52845W        W21175   9.217  11.231  14.969
52846W        W21176  26.643   2.958  13.498
52847W        W21177  17.073  29.082  13.387
52848W        W21178   3.334  24.011   4.240
52849W        W21179  34.100   1.843  14.506
52850W        W21180  33.580  33.051  12.531
52851W        W21181   0.347   5.853   4.152
52852W        W21182  18.626  17.787   4.182
52853W        W21183  36.367  14.180  10.906
52854W        W21184  35.993   3.954  11.939
52855W        W21185   8.813  35.999  14.286
52856W        W21186  28.580  30.420  12.375
52857W        W21187  21.100  23.510  13.901
52858W        W21188   3.263   7.672   0.330
52859W        W21189  30.568  28.987   2.799
52860W        W21190  34.896  36.083  11.425
52861W        W21191  19.220   0.254  14.886
52862W        W21192  15.688  26.097   4.187
52863W        W21193   6.857   8.734   1.281
52864W        W21194  36.990  25.621   1.843
52865W        W21195  15.778  23.557   4.785
52866W        W21196  16.185  38.989  10.038
52867W        W21197  24.670  27.043   3.284
52868W        W21198  19.664  43.462  12.073
52869W        W21199  41.305  16.254   2.391
52870W        W21200  36.052  22.724  11.413
52871W        W21201  15.287  21.541   3.632
52872W        W21202   4.804  22.998   0.919
52873W        W21203  36.347  11.144   4.208
52874W        W21204  28.536   7.205  14.429
52875W        W21205  26.193  15.784   1.931
52876W        W21206  30.122  38.477   3.812
52877W        W21207  22.747  24.148   3.324
52878W        W21208  12.842  12.293  14.817
52879W        W21209  41.975  37.082   3.226
52880W        W21210  42.909  21.018  12.947
52881W        W21211  14.808  33.001   3.867
52882W        W21212   2.911  44.958  11.912
52883W        W21213   3.904  26.481   3.362
52884W        W21214  15.704  12.726   3.265
52885W        W21215  39.535   6.350   2.788
52886W        W21216  42.910  18.287   0.738
52887W        W21217  28.051  22.706  13.942
52888W        W21218  19.736   5.216   1.753
52889W        W21219   4.851  20.091  11.546
52890W        W21220  33.029  34.942  10.589
52891W        W21221  15.121  43.936  11.519
52892W        W21222  41.384  40.361   4.294
52893W        W21223  35.588  37.893   0.321
52894W        W21224  22.555  22.598  10.487
52895W        W21225  35.364   6.220  12.418
52896W        W21226  35.025   9.717   0.266
52897W        W21227  39.514  43.493   0.483
52898W        W21228  31.426  13.302   3.665
52899W        W21229   0.264  27.530  10.944
52900W        W21230  42.465  11.847  12.430
52901W        W21231  34.530  36.368  11.126
52902W        W21232  36.069  29.557   4.291
52903W        W21233  20.071  16.207   4.785
52904W        W21234  32.392   0.961   2.361
52905W        W21235  37.023  39.974   3.364
52906W        W21236  31.461  28.576  13.333
52907W        W21237  43.327  32.572  13.854
52908W        W21238  21.581  12.705   0.305
52909W        W21239  18.207  30.036  10.952
52910W        W21240  40.991  28.597  12.842
52911W        W21241  42.481  11.760  13.991
52912W        W21242  34.948  41.452  12.980
52913W        W21243   6.267   0.810  14.942
52914W        W21244  38.862   2.843   1.235
52915W        W21245   8.352  13.824  13.542
52916W        W21246  21.122  35.867   2.254
52917W        W21247   1.799  34.581  14.788
52918W        W21248  41.528  26.169   0.316
52919W        W21249  34.489  40.436  11.610
52920W        W21250  44.997  43.354   2.894
52921W        W21251  23.087   0.815  13.826
52922W        W21252  34.000  33.050  10.614
52923W        W21253   9.394  42.811   2.691
52924W        W21254  44.281   0.912   3.318
52925W        W21255  36.475  26.058   0.340
52926W        W21256  31.628  22.101  10.565
52927W        W21257  13.727   2.841   0.418
52928W        W21258   0.424   5.412   0.460
52929W        W21259  23.563   4.298  14.488
52930W        W21260  30.438  36.942  10.929
52931W        W21261  26.545   7.273   1.285
52932W        W21262  41.001  30.917  12.945
52933W        W21263   2.311  30.088  11.465
52934W        W21264  22.066  41.302   3.228
52935W        W21265  23.039  28.003  12.888
52936W        W21266  31.015  20.108   9.941
52937W        W21267   6.370   6.218   4.223
52938W        W21268   5.204  41.994  13.878
52939W        W21269  18.221  27.138  14.364
52940W        W21270  15.604  20.220  11.979
52941W        W21271  32.116  35.411  12.439
52942W        W21272   7.864  34.889  14.797
52943W        W21273  24.005  42.796  10.511
52944W        W21274   0.765  28.551  11.498
52945W        W21275   3.456  37.582   0.963
52946W        W21276  37.900  11.360  10.529
52947W        W21277  44.850  36.095  13.999
52948W        W21278   1.315  14.096  10.905
52949W        W21279  41.811  24.036   3.157
52950W        W21280  40.486  14.249  14.826
52951W        W21281   1.856  33.938  14.443
52952W        W21282  15.097  13.202  12.961
52953W        W21283  23.029  32.947  11.951
52954W        W21284  25.004  19.583  14.787
52955W        W21285  39.478   5.856  11.913
52956W        W21286  13.840  34.522   0.967
52957W        W21287   9.282  23.011   0.806
52958W        W21288  10.370  23.172  13.447
52959W        W21289   4.269  43.471   2.192
52960W        W21290  40.819  12.326  13.975
52961W        W21291  43.822  43.498   3.859
52962W        W21292  40.468  43.892  14.279
52963W        W21293  37.979  22.109   2.331
52964W        W21294  32.989  18.112  14.898
52965W        W21295  33.399  19.704   1.221
52966W        W21296  17.680  10.191  11.578
52967W        W21297   5.413  36.505   4.164
52968W        W21298  25.560  41.317  13.824
52969W        W21299  20.061  42.860   2.850
52970W        W21300  16.736  19.181   4.653
52971W        W21301   2.455   8.717   4.765
52972W        W21302  26.166  24.680  12.999
52973W        W21303  17.714  16.126   4.838
52974W        W21304   0.387  16.629   0.356
52975W        W21305  33.880  21.597   2.780
52976W        W21306  32.459  33.427  12.378
52977W        W21307   8.243   9.650   3.350
52978W        W21308  10.193  37.527   9.944
52979W        W21309   8.730  36.905   4.212
52980W        W21310  32.953  32.561   4.625
52981W        W21311  27.624  22.203   1.903
52982W        W21312  41.857   2.765   2.875
52983W        W21313  10.858  29.473  11.883
52984W        W21314   3.297  13.277   2.820
52985W        W21315  30.962   9.341  11.098
52986W        W21316  20.044  35.508   1.382
52987W        W21317  15.639  12.755   4.749
52988W        W21318  21.576   1.417   2.359
52989W        W21319  37.376  39.552  14.806
52990W        W21320   7.412  19.622   0.848
52991W        W21321  37.473  14.667  11.500
52992W        W21322  21.720  40.477  14.793
52993W        W21323   6.735  22.183  11.042
52994W        W21324  12.829   7.253   1.441
52995W        W21325  44.893  15.701  13.034
52996W        W21326  33.979  36.368   4.638
52997W        W21327  12.761   6.235   1.218
52998W        W21328  40.424  17.083   1.803
52999W        W21329  36.988  12.209   0.744
53000W        W21330   1.772  19.681   3.641
53001W        W21331   8.346  24.115  13.875
53002W        W21332  33.876   0.412  14.949
53003W        W21333  21.214  10.351   2.344
53004W        W21334   3.293  35.914   3.147
53005W        W21335  18.756   2.927  12.580
53006W        W21336  33.956  38.868   3.684
53007W        W21337  29.077  11.697  14.370
53008W        W21338  27.502  23.494  12.916
53009W        W21339  20.523   7.890   1.893
53010W        W21340  41.966  44.954  11.109
53011W        W21341  29.974  22.108   5.630
53012W        W21342  40.444   5.917   1.857
53013W        W21343  35.398   5.839  12.900
53014W        W21344  25.614  10.287   3.661
53015W        W21345  15.151  25.021   3.378
53016W        W21346  26.175  10.634  14.823
53017W        W21347   3.952  14.603   1.346
53018W        W21348   3.296   5.793  12.918
53019W        W21349  16.231   9.210  11.583
53020W        W21350   7.382  33.981   0.351
53021W        W21351   4.346   2.347   1.873
53022W        W21352  38.051  17.080   3.274
53023W        W21353  16.595  11.205   4.783
53024W        W21354  10.726  18.695  10.441
53025W        W21355   7.225  29.638   4.242
53026W        W21356  22.192  19.046   1.269
53027W        W21357   8.215   0.780  13.819
53028W        W21358   4.380  36.990   2.226
53029W        W21359  38.981  17.250  11.878
53030W        W21360   4.754  14.687   2.385
53031W        W21361  22.150   2.297   3.148
53032W        W21362  27.669  43.864  13.535
53033W        W21363  14.230  30.539  14.856
53034W        W21364  34.479  20.176   0.336
53035W        W21365  38.513  39.337  11.602
53036W        W21366   2.863  17.144  10.481
53037W        W21367  40.429  39.455  14.362
53038W        W21368  42.485  16.630  11.022
53039W        W21369  40.426   5.818   0.365
53040W        W21370   4.206  32.016   2.777
53041W        W21371  33.890  31.433  12.958
53042W        W21372   6.370  33.613  10.982
53043W        W21373  11.802   4.823   2.343
53044W        W21374  31.609  30.164   4.146
53045W        W21375  10.747  23.113  10.897
53046W        W21376  43.474  43.836  13.528
53047W        W21377  24.109  34.598  14.885
53048W        W21378  13.687  30.480  13.485
53049W        W21379  24.503  41.312   0.467
53050W        W21380  21.242  27.566   5.596
53051W        W21381  16.663  13.308  14.791
53052W        W21382  21.257  31.939  12.959
53053W        W21383  26.463  11.288   3.219
53054W        W21384   9.764  12.130  14.387
53055W        W21385  35.362  41.935  13.337
53056W        W21386  27.197   3.808  11.973
53057W        W21387  31.069  26.083   4.753
53058W        W21388  16.756  21.172  14.503
53059W        W21389  23.695  39.317   4.770
53060W        W21390   6.694  10.335   0.953
53061W        W21391   0.301  11.829   3.260
53062W        W21392  19.703   7.373  10.561
53063W        W21393   6.285   0.480  13.435
53064W        W21394  37.553  29.986  13.035
53065W        W21395  30.575   5.705  11.425
53066W        W21396  26.563  29.172   3.791
53067W        W21397  41.863  40.936  11.106
53068W        W21398  38.571  17.609  13.532
53069W        W21399  43.771   1.935  10.915
53070W        W21400  39.509  42.849  13.921
53071W        W21401  13.729  22.716   1.322
53072W        W21402  11.776  42.900  10.615
53073W        W21403  20.687  27.583  14.397
53074W        W21404   8.292   9.802  13.920
53075W        W21405   5.927  21.028   2.770
53076W        W21406  19.276   7.727   3.793
53077W        W21407   2.785  15.171  11.400
53078W        W21408  23.560  33.041   0.300
53079W        W21409  20.193  16.801   9.941
53080W        W21410  16.743  17.155  13.484
53081W        W21411  38.913  26.476  14.839
53082W        W21412  35.952  15.252  13.324
53083W        W21413  18.678  23.214  12.370
53084W        W21414  37.426  27.644  13.042
53085W        W21415  10.298   1.975  12.953
53086W        W21416  33.454  23.133  10.965
53087W        W21417   7.733   0.300  10.108
53088W        W21418   4.754  35.423  11.041
53089W        W21419   0.353  28.135   4.606
53090W        W21420  26.064  12.806  11.596
53091W        W21421  22.506  31.048  10.988
53092W        W21422  39.994  41.431  14.394
53093W        W21423  37.580  23.551   2.294
53094W        W21424   3.955   0.861   3.294
53095W        W21425  30.035   8.252  13.500
53096W        W21426  33.438  26.480  13.980
53097W        W21427   4.384  21.106   2.370
53098W        W21428   4.756  42.337   1.284
53099W        W21429  10.863  18.694   1.873
53100W        W21430  33.395  34.431   2.186
53101W        W21431  19.722  22.174  12.443
53102W        W21432  33.128  25.536  10.541
53103W        W21433  42.342   8.725  10.428
53104W        W21434   9.644  33.429  12.850
53105W        W21435  12.358   9.192   2.840
53106W        W21436  41.806  37.049  14.963
53107W        W21437  14.122  17.247  14.851
53108W        W21438  19.552  22.668  14.429
53109W        W21439   6.327  19.625  11.959
53110W        W21440  22.085  32.050   4.229
53111W        W21441  23.217   4.314   2.729
53112W        W21442  18.722  31.498   3.813
53113W        W21443   9.878  15.190   3.816
53114W        W21444  43.317  43.408   1.342
53115W        W21445  10.316  37.011  14.924
53116W        W21446  23.151   7.707   3.282
53117W        W21447  10.878  35.052  10.419
53118W        W21448  39.490   9.807  14.843
53119W        W21449  38.394  25.701   1.403
53120W        W21450  17.713   7.731  14.921
53121W        W21451  30.647  44.341   0.751
53122W        W21452  16.758  36.435  13.314
53123W        W21453  29.968  21.261   5.319
53124W        W21454  44.407  40.826   0.466
53125W        W21455   7.373  14.300   3.793
53126W        W21456   3.733  10.247   0.349
53127W        W21457   9.267  24.973  14.944
53128W        W21458  28.506  34.079   4.199
53129W        W21459   6.341  42.915   0.288
53130W        W21460  39.854  39.827   3.324
53131W        W21461  33.524   5.835   2.259
53132W        W21462  20.662  13.668  10.518
53133W        W21463  44.422   2.848  12.362
53134W        W21464  17.171  41.795   2.377
53135W        W21465  18.590  36.451  12.372
53136W        W21466  26.648   0.265  12.378
53137W        W21467   1.740  35.019   4.178
53138W        W21468  13.797   1.345   3.657
53139W        W21469  40.304   9.326  12.005
53140W        W21470  24.201  36.510   4.654
53141W        W21471  22.027   8.671  11.585
53142W        W21472  42.344   4.917  11.114
53143W        W21473  34.972  30.617  11.547
53144W        W21474  23.579   5.887   0.353
53145W        W21475  39.529  31.416   1.862
53146W        W21476  31.083   2.458   4.763
53147W        W21477  25.540  30.591  11.933
53148W        W21478  35.061  39.058  14.277
53149W        W21479  22.504  28.121  14.332
53150W        W21480  31.553  22.136   5.196
53151W        W21481  24.117  19.760   1.820
53152W        W21482   3.407  17.208   3.192
53153W        W21483   1.823   6.719   3.790
53154W        W21484  24.226  31.069  12.464
53155W        W21485  24.481  10.302   5.135
53156W        W21486  44.406   8.836   2.344
53157W        W21487  16.576  23.531   4.716
53158W        W21488  36.857  37.482  14.833
53159W        W21489  44.942  22.089  11.488
53160W        W21490  29.104  27.024   3.222
53161W        W21491   4.906  20.534   2.260
53162W        W21492  34.511  37.467  11.490
53163W        W21493  44.830   9.372  13.533
53164W        W21494  42.785   8.312  14.511
53165W        W21495  20.621   8.886  13.033
53166W        W21496  19.555  10.731   0.881
53167W        W21497  28.989  19.641  10.566
53168W        W21498  25.168  38.907  14.877
53169W        W21499  19.691  13.142   3.342
53170W        W21500  42.789  17.144  14.896
53171W        W21501  19.596  19.674  14.307
53172W        W21502   1.789  42.982   1.419
53173W        W21503   8.810  17.180  14.515
53174W        W21504   0.843   7.227   2.758
53175W        W21505  38.417  26.106   1.732
53176W        W21506  44.777  33.996  11.458
53177W        W21507  28.435  29.505   3.200
53178W        W21508  33.914   5.346  13.498
53179W        W21509  26.193  35.110   4.342
53180W        W21510  26.601  44.987  11.440
53181W        W21511  10.227  20.693   3.787
53182W        W21512  21.142  42.332   3.650
53183W        W21513  20.759  10.716   4.628
53184W        W21514  35.081  40.498   2.194
53185W        W21515  16.132  25.568  10.982
53186W        W21516   7.715  42.813   0.850
53187W        W21517  31.903  30.158  10.584
53188W        W21518  13.617  32.082   3.701
53189W        W21519   1.738   5.749  12.894
53190W        W21520   7.761  43.864  12.408
53191W        W21521   3.408  32.003   4.779
53192W        W21522  12.749  28.565   2.280
53193W        W21523  29.504  24.128   4.748
53194W        W21524  41.322  13.307  13.310
53195W        W21525  13.268  25.078  13.532
53196W        W21526   2.761  14.686   1.910
53197W        W21527   1.349   7.738   1.263
53198W        W21528   4.373   9.653  10.496
53199W        W21529   2.959   0.257   0.436
53200W        W21530  42.797  35.449   4.194
53201W        W21531  39.444  24.581   3.793
53202W        W21532  33.402  35.924  13.402
53203W        W21533  32.542  40.922   2.414
53204W        W21534   6.264  35.381   0.826
53205W        W21535  30.497  40.455   2.190
53206W        W21536   4.369   0.305  13.494
53207W        W21537  30.478  28.440  14.904
53208W        W21538  16.099  40.393   0.835
53209W        W21539  15.188  39.981  11.477
53210W        W21540  20.648  30.586   3.256
53211W        W21541   3.400  12.731  10.507
53212W        W21542  31.616  37.026   2.832
53213W        W21543   0.967  12.281  13.970
53214W        W21544  28.630  23.601  10.578
53215W        W21545  10.665  38.326   3.853
53216W        W21546   6.793   5.820   2.266
53217W        W21547  32.048  25.054  12.037
53218W        W21548  23.009  28.008  12.431
53219W        W21549  36.415  36.092  13.955
53220W        W21550  27.152   9.372   1.351
53221W        W21551  22.669   6.334   4.142
53222W        W21552   3.221   8.266   3.635
53223W        W21553  17.196  21.107  11.375
53224W        W21554  32.432  14.214  11.100
53225W        W21555  42.286  34.594  13.309
53226W        W21556  30.654  42.867  12.360
53227W        W21557  26.029  16.085  13.023
53228W        W21558   9.315  42.463  13.023
53229W        W21559   5.859  39.944  11.881
53230W        W21560  24.513  11.632   2.783
53231W        W21561  11.294  30.067  13.355
53232W        W21562   4.852  14.736  13.858
53233W        W21563  29.570  22.562   3.255
53234W        W21564  17.688  36.876   0.856
53235W        W21565   3.887   0.845  14.023
53236W        W21566  31.079  44.464   2.186
53237W        W21567  27.994   9.265  14.368
53238W        W21568  11.328  15.120   4.164
53239W        W21569   5.837   6.806   3.329
53240W        W21570  20.056  17.291   3.234
53241W        W21571  39.851  32.002  14.309
53242W        W21572  33.031  10.252  10.636
53243W        W21573   3.235  43.923  13.358
53244W        W21574  42.892  39.835  13.477
53245W        W21575  14.099   8.776   4.164
53246W        W21576  14.203  33.540  13.841
53247W        W21577  34.946  39.973   2.784
53248W        W21578  29.045   0.473   2.903
53249W        W21579   1.266   3.742  13.841
53250W        W21580  24.650  37.359  10.449
53251W        W21581  42.840   6.396   2.840
53252W        W21582  22.587   5.800   4.283
53253W        W21583  16.124  33.412   2.892
53254W        W21584   6.818  26.093  13.500
53255W        W21585  31.064  41.314  12.355
53256W        W21586   3.885   4.801  11.397
53257W        W21587  14.665  24.044  12.497
53258W        W21588  23.140  11.868  14.025
53259W        W21589   7.253  21.027  12.094
53260W        W21590   5.341  35.942   1.728
53261W        W21591  12.323  36.543  13.004
53262W        W21592  37.850  12.182  13.915
53263W        W21593  42.495   5.381   1.411
53264W        W21594  39.434  10.826   0.400
53265W        W21595   5.401  17.733  12.442
53266W        W21596  13.700  20.056  12.508
53267W        W21597  17.739   1.360   3.339
53268W        W21598  12.311  13.713   3.287
53269W        W21599  13.338  23.999   3.363
53270W        W21600   2.287  24.040   0.415
53271W        W21601  28.989  43.850  13.522
53272W        W21602   4.259  13.611   1.796
53273W        W21603   9.270   6.862  12.912
53274W        W21604   2.304  32.393  10.564
53275W        W21605  14.804  29.957   1.331
53276W        W21606  18.066   0.460  13.825
53277W        W21607   0.484  44.996   3.279
53278W        W21608  41.850  29.423  13.045
53279W        W21609  35.860  11.676  12.350
53280W        W21610  35.038  35.459  13.545
53281W        W21611   3.791  35.435  14.981
53282W        W21612   1.917  33.551  11.432
53283W        W21613  37.841  23.204   1.932
53284W        W21614  18.608  21.709  11.052
53285W        W21615   6.711  28.014  11.552
53286W        W21616  13.144  14.219  12.435
53287W        W21617  23.717  29.589  13.889
53288W        W21618  25.509  28.521   1.286
53289W        W21619  30.546  30.012   3.273
53290W        W21620  37.992  26.093  14.762
53291W        W21621   5.713  13.836   3.378
53292W        W21622  21.648  12.228  11.899
53293W        W21623  40.814   0.338  14.291
53294W        W21624  40.833  23.212  12.367
53295W        W21625  43.939  26.702   1.742
53296W        W21626  22.610  13.623   0.855
53297W        W21627  10.193  32.619   2.268
53298W        W21628   4.211   8.279  12.454
53299W        W21629  18.292   5.384  12.516
53300W        W21630   8.853  21.146  10.580
53301W        W21631  30.932   1.874  11.920
53302W        W21632  10.198  28.635   4.239
53303W        W21633  40.372  10.763   4.249
53304W        W21634  33.554   9.203  12.975
53305W        W21635  12.225   6.333  14.772
53306W        W21636   2.363  21.689  12.050
53307W        W21637  14.132  21.073  11.022
53308W        W21638  30.603  15.273   0.926
53309W        W21639  26.510  41.292  13.992
53310W        W21640  39.948   7.317   4.765
53311W        W21641   4.232   6.272   4.167
53312W        W21642  18.167  14.670  12.975
53313W        W21643  12.209  16.253  11.963
53314W        W21644  14.282  12.176  13.396
53315W        W21645  33.431  16.626  13.498
53316W        W21646  35.100   7.284  14.779
53317W        W21647  26.056  16.765   3.665
53318W        W21648   7.370  15.800   4.300
53319W        W21649   8.246  39.020  11.598
53320W        W21650  28.987  23.537  12.865
53321W        W21651   7.748  15.639   3.795
53322W        W21652  31.412  36.910   3.680
53323W        W21653  31.569  17.114   3.223
53324W        W21654  17.244  20.674   4.800
53325W        W21655  12.311  16.811   4.143
53326W        W21656  27.027  21.118   4.614
53327W        W21657  43.876  37.439  13.500
53328W        W21658  11.847  13.137   1.759
53329W        W21659  23.127  43.934  13.811
53330W        W21660   2.311  15.610   0.429
53331W        W21661  40.020  41.436  13.545
53332W        W21662   5.255  14.169   3.327
53333W        W21663  22.090  32.629   3.154
53334W        W21664  14.826   1.833   3.352
53335W        W21665  33.593  32.492   4.162
53336W        W21666  25.101   4.281  13.384
53337W        W21667  27.992  21.600   3.278
53338W        W21668   6.801  10.148  12.002
53339W        W21669  25.603  12.833   2.769
53340W        W21670  20.120  33.929  11.933
53341W        W21671  41.463   3.444  10.431
53342W        W21672   8.897  13.625  12.073
53343W        W21673  30.951  24.041  13.039
53344W        W21674  31.453  14.729  10.530
53345W        W21675  44.478   6.782   3.215
53346W        W21676  15.686  37.952   5.286
53347W        W21677   4.276  15.762   4.159
53348W        W21678   2.832  21.157  13.500
53349W        W21679  17.683  40.018  12.404
53350W        W21680  20.045  33.429  14.972
53351W        W21681  42.827  19.674  12.419
53352W        W21682  10.346  15.247  12.857
53353W        W21683  10.658   3.215   2.734
53354W        W21684  12.339  36.448  11.576
53355W        W21685  25.079  14.170   0.458
53356W        W21686  31.948  27.626  10.621
53357W        W21687  36.537  15.723   3.831
53358W        W21688  15.152  10.813   4.680
53359W        W21689  34.514  34.084  10.440
53360W        W21690  13.337  30.519   0.291
53361W        W21691  41.312  12.857   0.432
53362W        W21692   3.874   9.868   3.679
53363W        W21693   8.330  22.187   4.787
53364W        W21694  43.454  23.651   1.712
53365W        W21695  44.313   5.820  12.466
53366W        W21696  24.991  43.398   3.163
53367W        W21697  36.379  34.942   1.445
53368W        W21698  19.560  26.074  12.878
53369W        W21699  23.180  23.984  14.373
53370W        W21700  40.542  42.831  12.871
53371W        W21701  33.591   2.730  12.508
53372W        W21702  32.485  21.688   0.281
53373W        W21703  13.836  15.740   1.742
53374W        W21704  18.069  28.053  14.823
53375W        W21705  20.257   3.849  13.435
53376W        W21706  10.710  38.409  12.367
53377W        W21707  36.850  37.551  12.353
53378W        W21708  11.355  22.038  14.785
53379W        W21709   7.785  25.526  14.403
53380W        W21710  34.559  34.919   3.336
53381W        W21711  14.705  18.065   3.214
53382W        W21712  39.520  40.499   0.884
53383W        W21713  21.744  33.906   1.734
53384W        W21714  30.542   6.371   3.630
53385W        W21715  38.914  14.275   1.842
53386W        W21716  27.528   1.829  14.976
53387W        W21717  34.604  40.480  10.448
53388W        W21718  18.259  26.195   3.235
53389W        W21719  21.626  20.217  11.516
53390W        W21720  35.933  13.126  12.405
53391W        W21721  25.071  31.132  12.440
53392W        W21722  19.088   0.438  11.979
53393W        W21723   0.256  33.876  12.078
53394W        W21724  33.478  21.682   4.186
53395W        W21725  16.236  15.222   3.768
53396W        W21726  21.673  16.738   9.582
53397W        W21727   3.736  39.439  12.065
53398W        W21728   8.703  27.146   2.354
53399W        W21729  16.799  17.257  13.846
53400W        W21730  17.569   4.326   0.417
53401W        W21731  17.290  25.169  12.057
53402W        W21732   0.952  12.220   3.784
53403W        W21733  25.603  39.833  13.459
53404W        W21734  25.987  14.825   4.148
53405W        W21735  11.282  22.164  13.797
53406W        W21736   2.955  31.625  12.047
53407W        W21737  40.462  44.443   2.862
53408W        W21738  32.435  15.195  10.444
53409W        W21739  31.416  41.361  13.804
53410W        W21740  24.681   5.711   0.372
53411W        W21741  24.100  12.666   1.224
53412W        W21742  33.496  30.104   1.729
53413W        W21743  29.932  21.654   4.730
53414W        W21744  37.490  11.682  12.887
53415W        W21745  40.394   7.369  11.375
53416W        W21746  13.181  39.825  12.938
53417W        W21747  43.809  12.174   2.873
53418W        W21748  15.692  14.270   0.267
53419W        W21749  19.701   6.783  10.522
53420W        W21750  22.653  36.957   2.402
53421W        W21751  36.469  35.386   4.349
53422W        W21752  22.719  31.131  12.533
53423W        W21753   2.461   7.255   1.289
53424W        W21754  18.135  23.091  13.378
53425W        W21755  38.842  38.445   3.340
53426W        W21756  41.311  31.908  13.451
53427W        W21757  23.675  11.709  12.853
53428W        W21758   7.214  24.644   1.353
53429W        W21759  23.681   7.821  13.892
53430W        W21760  33.931   7.345   1.837
53431W        W21761  31.499  23.092   3.770
53432W        W21762  17.107  22.631   1.315
53433W        W21763  19.667  35.914  12.885
53434W        W21764  22.722   5.206   2.770
53435W        W21765   6.921   9.864   3.723
53436W        W21766  25.211  39.462   1.803
53437W        W21767   6.408  25.482  14.478
53438W        W21768  26.087   3.336   0.341
53439W        W21769  16.600  30.118   1.228
53440W        W21770   5.859  26.678   2.815
53441W        W21771  10.147  43.825   4.142
53442W        W21772  29.043  37.060   4.208
53443W        W21773   8.802  20.258  11.525
53444W        W21774   5.411  28.104  11.047
53445W        W21775  22.096  21.705   1.363
53446W        W21776  20.164  42.319   3.171
53447W        W21777  40.523   3.768  12.001
53448W        W21778   9.772  36.461   0.283
53449W        W21779  33.596  17.728  14.014
53450W        W21780   3.246  43.848   3.840
53451W        W21781  43.918   0.837   2.207
53452W        W21782  21.039   1.886   3.155
53453W        W21783  27.469  25.611   2.823
53454W        W21784   3.764   1.433  11.498
53455W        W21785   2.827  27.086   1.730
53456W        W21786  18.552  11.172   2.403
53457W        W21787  29.668  32.985  10.062
53458W        W21788  43.280   5.905   1.832
53459W        W21789  29.441  42.825  10.492
53460W        W21790  27.163   9.167   0.389
53461W        W21791  19.727   7.783   3.843
53462W        W21792  38.463  31.480  10.457
53463W        W21793  42.367   5.746  13.976
53464W        W21794   3.738  18.231   3.351
53465W        W21795  20.672   0.810   0.311
53466W        W21796  43.368  27.506  14.464
53467W        W21797  32.586  27.945  13.851
53468W        W21798  14.755   7.734   2.710
53469W        W21799  38.447  32.559   4.152
53470W        W21800  39.480  10.311   0.440
53471W        W21801  28.152   2.434  11.067
53472W        W21802  22.138  20.101  14.374
53473W        W21803  24.206  27.108  13.447
53474W        W21804  43.861  42.823   3.174
53475W        W21805   0.902   5.197   0.866
53476W        W21806  30.023  38.996   1.703
53477W        W21807  12.193  17.062  14.827
53478W        W21808  13.845  35.601  13.861
53479W        W21809  43.425  44.373   0.351
53480W        W21810  39.327   0.356  14.909
53481W        W21811  32.088  20.573   2.892
53482W        W21812  10.692  25.978  14.375
53483W        W21813  20.150  30.970  11.009
53484W        W21814  34.105  33.439  10.970
53485W        W21815   7.697   4.784  13.868
53486W        W21816  23.030  42.817  12.066
53487W        W21817  19.660   0.424   2.339
53488W        W21818  35.995  13.826  11.039
53489W        W21819  16.299   8.314   0.896
53490W        W21820  43.991   5.414  12.475
53491W        W21821   4.807  10.828  13.892
53492W        W21822  18.784   7.815  14.299
53493W        W21823   6.806   3.351   3.212
53494W        W21824  29.024  23.560  12.405
53495W        W21825  36.371  30.076  12.580
53496W        W21826  34.405  20.090  11.873
53497W        W21827  16.805  22.743  13.897
53498W        W21828   4.795  31.476  14.877
53499W        W21829  42.408  22.722  10.578
53500W        W21830  31.958  15.209   3.844
53501W        W21831  32.440  27.539  11.855
53502W        W21832   0.334  26.524   1.354
53503W        W21833  17.603  39.500   0.728
53504W        W21834  25.160  32.081   2.359
53505W        W21835  15.092  33.404  13.803
53506W        W21836  21.519  43.789   1.708
53507W        W21837   9.758  34.120  12.406
53508W        W21838   2.360   7.778   2.333
53509W        W21839  25.679   1.243   4.350
53510W        W21840  10.251  14.726  11.005
53511W        W21841  18.246  25.191   1.445
53512W        W21842  26.671  28.604  13.916
53513W        W21843  25.104  34.104  14.465
53514W        W21844  14.752   3.953   2.856
53515W        W21845  39.535  36.437   3.849
53516W        W21846  39.863  16.766   4.639
53517W        W21847   1.789   4.752   0.836
53518W        W21848  27.529  43.855   3.256
53519W        W21849  27.600  35.080  12.883
53520W        W21850  27.184  39.467   4.227
53521W        W21851  28.955  37.073  13.501
53522W        W21852   8.342  30.004   3.637
53523W        W21853  35.023   3.729   1.870
53524W        W21854   0.268  22.080  10.493
53525W        W21855  15.114  39.393   3.804
53526W        W21856  10.861  31.525   1.708
53527W        W21857  38.531  27.620   3.825
53528W        W21858   9.367  39.380  12.437
53529W        W21859  27.545  21.530  10.579
53530W        W21860   7.685   5.361  13.872
53531W        W21861  10.381  25.683  12.994
53532W        W21862   7.340  28.052   2.261
53533W        W21863  44.988  26.026  13.926
53534W        W21864  26.096  17.589   3.327
53535W        W21865  21.150   0.460   4.345
53536W        W21866  19.183   8.218  12.390
53537W        W21867  21.669  10.369   5.263
53538W        W21868  14.135   9.749  13.421
53539W        W21869  30.968  19.131   2.851
53540W        W21870  29.444  25.203  11.081
53541W        W21871  43.005  42.919   0.871
53542W        W21872  14.106   1.951   4.253
53543W        W21873   9.237  20.201  12.866
53544W        W21874  25.533  35.392   3.736
53545W        W21875  32.140  36.348   4.169
53546W        W21876   0.250  30.913   4.257
53547W        W21877  38.340   4.897   2.900
53548W        W21878   7.734  40.901  14.948
53549W        W21879   4.303   1.414  10.482
53550W        W21880  28.564  30.945  10.111
53551W        W21881  21.213  30.424  14.838
53552W        W21882   7.751  36.530   0.243
53553W        W21883  22.547   0.950   9.939
53554W        W21884  39.544  16.214  10.503
53555W        W21885  16.660  11.792  11.521
53556W        W21886   0.989   4.294  10.500
53557W        W21887  17.679   4.863  12.449
53558W        W21888   4.727  44.885   1.282
53559W        W21889  22.571  33.922  12.496
53560W        W21890   6.192   2.943  11.858
53561W        W21891  43.819  10.180  10.488
53562W        W21892  16.254  40.825   0.739
53563W        W21893  28.081  13.239  14.499
53564W        W21894  23.134  43.401  14.324
53565W        W21895   1.479  36.021   1.734
53566W        W21896   2.774   6.235  10.901
53567W        W21897  42.841   7.407   3.331
53568W        W21898   5.831   0.908  12.571
53569W        W21899  43.289  40.491  11.875
53570W        W21900   5.310  42.838   3.271
53571W        W21901   8.275  28.108  13.956
53572W        W21902  19.102  17.771  13.845
53573W        W21903  29.474  27.514  14.971
53574W        W21904  31.450   5.716   2.372
53575W        W21905  22.112  41.947  14.444
53576W        W21906  35.446  23.508   1.864
53577W        W21907   0.790  18.137  11.456
53578W        W21908  33.906  22.729   2.858
53579W        W21909  21.743  38.056   1.223
53580W        W21910  10.217  35.009  11.379
53581W        W21911  43.818  32.465  11.415
53582W        W21912  25.137  41.982   3.867
53583W        W21913  15.648  20.147  12.558
53584W        W21914  13.287  43.298   1.365
53585W        W21915  18.688  37.551  14.975
53586W        W21916  34.929  33.957   1.450
53587W        W21917  41.911  29.133  14.942
53588W        W21918  15.216  13.192  14.437
53589W        W21919  15.192  21.680   0.311
53590W        W21920   0.820  35.079   0.287
53591W        W21921   2.913  32.989  11.537
53592W        W21922  30.153  43.770   3.776
53593W        W21923  37.576  38.355   0.440
53594W        W21924  30.572  30.949  10.898
53595W        W21925  17.172  39.548   0.249
53596W        W21926  25.603  17.698   2.180
53597W        W21927  41.842   3.391  11.426
53598W        W21928  15.279  13.646  11.584
53599W        W21929  16.238  29.152  12.090
53600W        W21930  12.742  27.971   3.313
53601W        W21931  20.664   1.966   0.478
53602W        W21932  10.851  20.100   1.433
53603W        W21933  41.028   1.946   2.227
53604W        W21934  17.141  23.083  14.917
53605W        W21935  38.942  40.316   3.807
53606W        W21936  31.485  31.629   0.361
53607W        W21937  39.889   5.847  10.585
53608W        W21938  28.590  42.362  11.419
53609W        W21939   6.185  15.214  10.447
53610W        W21940  35.086  20.046   2.350
53611W        W21941  12.785   3.216  10.579
53612W        W21942  16.173  42.925  11.026
53613W        W21943   7.240  22.561  11.962
53614W        W21944  10.706  42.892  14.830
53615W        W21945  28.181  32.605  10.570
53616W        W21946  34.436   4.241   4.703
53617W        W21947  21.177  36.063   5.198
53618W        W21948   5.696  29.112  12.091
53619W        W21949  41.535  10.160   4.765
53620W        W21950   9.182  19.735  11.894
53621W        W21951  37.371   0.375  11.122
53622W        W21952  12.318   8.802   2.194
53623W        W21953   5.305   2.877  14.481
53624W        W21954  15.278   5.694   1.799
53625W        W21955  33.613  44.948   3.802
53626W        W21956  37.986  15.124  11.017
53627W        W21957  40.438  20.106   3.737
53628W        W21958   1.894  15.646  14.459
53629W        W21959  26.039  29.564   2.364
53630W        W21960  22.641  29.045   9.502
53631W        W21961  23.714  13.756   4.705
53632W        W21962  12.707  14.230  12.457
53633W        W21963  39.853  13.127  11.552
53634W        W21964  29.075   4.857   0.929
53635W        W21965  36.028  12.730  12.450
53636W        W21966  42.337  18.254  10.941
53637W        W21967   5.813  40.479  13.343
53638W        W21968  21.044  10.208  13.417
53639W        W21969  14.739  33.068  10.552
53640W        W21970  36.885  18.136  13.459
53641W        W21971   0.438  21.240   0.882
53642W        W21972   2.472   1.858  14.863
53643W        W21973  12.218  24.525  10.948
53644W        W21974  23.132   1.959  12.941
53645W        W21975  27.064  13.296   2.214
53646W        W21976  16.148  19.254   2.722
53647W        W21977  15.782   9.704  13.994
53648W        W21978  25.567  42.980   4.183
53649W        W21979  26.551  38.344   0.399
53650W        W21980  20.616   1.820   4.740
53651W        W21981  21.593  13.773  12.572
53652W        W21982  36.081  16.306  13.398
53653W        W21983   5.334  24.484   4.134
53654W        W21984  11.781  34.422   0.389
53655W        W21985   2.887   2.761  11.516
53656W        W21986  42.785  13.805   2.801
53657W        W21987   1.365   2.230   0.473
53658W        W21988  21.207  27.996   1.750
53659W        W21989  38.494  14.323  10.626
53660W        W21990  44.976  12.282  10.433
53661W        W21991   3.715  19.275   3.738
53662W        W21992   6.729  32.433   4.269
53663W        W21993  34.415  31.124   0.261
53664W        W21994   9.743  41.397   0.849
53665W        W21995  14.268  32.129  14.826
53666W        W21996  27.625  18.247   3.356
53667W        W21997  16.124  29.083  14.774
53668W        W21998   4.300  28.052  10.472
53669W        W21999  31.539  31.017   4.602
53670W        W22000  24.115  25.021   1.225
53671W        W22001  32.634  39.949  11.924
53672W        W22002  11.851   4.722  14.432
53673W        W22003  20.656  19.058   3.659
53674W        W22004  27.455  27.588  14.809
53675W        W22005   1.300  25.660  12.876
53676W        W22006  21.095   1.805  10.942
53677W        W22007  37.562  34.547  12.907
53678W        W22008   9.240  35.553   2.321
53679W        W22009  20.682  23.546   1.933
53680W        W22010  44.784  40.988  11.918
53681W        W22011  44.863   5.741   3.777
53682W        W22012  15.783  18.636  11.607
53683W        W22013  42.481  18.579  12.051
53684W        W22014   3.819   7.354  11.384
53685W        W22015  10.833   7.281   1.308
53686W        W22016   9.861  14.614   1.424
53687W        W22017  15.614  28.513   0.784
53688W        W22018  16.810  30.620  14.770
53689W        W22019  29.094  44.990   3.321
53690W        W22020  36.537  23.984   3.280
53691W        W22021   0.941  15.789  12.504
53692W        W22022   9.687  15.657   0.729
53693W        W22023  18.283  42.408   3.668
53694W        W22024  20.608  26.971   2.738
53695W        W22025  12.774  25.135   2.204
53696W        W22026  15.276   4.342   3.301
53697W        W22027  27.581   6.229   2.335
53698W        W22028  27.498  19.631  14.461
53699W        W22029   6.242  32.451  12.344
53700W        W22030  17.629  15.312   1.381
53701W        W22031  22.130  39.958   4.338
53702W        W22032  19.626  27.100   2.303
53703W        W22033  36.390   3.787  13.802
53704W        W22034  14.656   3.898   4.297
53705W        W22035  32.632  34.922   2.269
53706W        W22036  33.532   9.647  14.280
53707W        W22037  19.211  10.667   3.790
53708W        W22038  24.093  32.417  14.279
53709W        W22039  37.559  31.559   1.718
53710W        W22040  34.420   0.468  12.459
53711W        W22041  32.889  29.483   0.767
53712W        W22042   6.867  24.144   3.739
53713W        W22043  36.456   8.806  11.048
53714W        W22044   1.285  15.084   2.894
53715W        W22045  20.049  10.258  14.374
53716W        W22046   4.311  39.057   1.408
53717W        W22047  20.120  12.298  11.887
53718W        W22048   2.273  28.677   2.327
53719W        W22049  13.609  30.579   3.847
53720W        W22050  28.170   1.388  12.424
53721W        W22051  38.405   0.352   1.843
53722W        W22052  38.393  31.944  13.538
53723W        W22053   3.721  21.582  10.626
53724W        W22054  12.650  17.665   1.414
53725W        W22055  14.197   3.278  12.075
53726W        W22056  20.695  31.990   0.330
53727W        W22057  32.477  12.235  11.025
53728W        W22058  36.919  32.130  14.405
53729W        W22059  39.495  24.723   4.712
53730W        W22060  31.460  19.238   1.287
53731W        W22061  12.845   9.752   2.366
53732W        W22062  41.864  12.835  10.588
53733W        W22063  31.490  16.699  10.503
53734W        W22064  27.022  11.732   5.218
53735W        W22065  44.398   0.937   1.327
53736W        W22066  24.055   3.391  13.870
53737W        W22067  35.604  30.449   0.795
53738W        W22068  14.115  27.609   4.193
53739W        W22069  29.951   9.158   2.217
53740W        W22070  43.022  17.796  12.486
53741W        W22071  10.138  28.471   3.383
53742W        W22072  19.696  14.824  10.908
53743W        W22073  44.001   4.265   3.302
53744W        W22074  38.821  35.093  11.458
53745W        W22075   4.347  27.139   2.822
53746W        W22076  14.323  16.801   2.855
53747W        W22077  19.676  31.112  10.015
53748W        W22078  42.442  24.667  12.433
53749W        W22079  35.374   7.795  13.999
53750W        W22080  18.205  16.790   4.615
53751W        W22081  36.939  42.433  12.873
53752W        W22082  14.179   5.895  12.410
53753W        W22083  12.142  16.232   2.720
53754W        W22084  23.703  23.491  13.426
53755W        W22085   7.743   8.801   5.135
53756W        W22086   1.756   5.823  14.426
53757W        W22087  21.745  37.000  13.049
53758W        W22088  36.414  14.297  11.458
53759W        W22089  28.096  44.476   3.265
53760W        W22090  27.968  32.575   4.225
53761W        W22091   8.711  22.209  13.807
53762W        W22092  37.536  43.349  13.853
53763W        W22093   8.377  32.111   4.321
53764W        W22094  32.935  20.260  14.847
53765W        W22095  10.349  32.537   4.180
53766W        W22096  20.676  30.636   2.712
53767W        W22097  18.248   3.237  10.975
53768W        W22098  40.311  27.987  13.331
53769W        W22099   6.710  25.703   0.746
53770W        W22100   4.843  25.996   0.375
53771W        W22101  30.092  14.114   2.379
53772W        W22102  30.584  31.936  10.422
53773W        W22103   5.262  20.679   3.757
53774W        W22104  18.734  23.672  14.973
53775W        W22105  25.490  15.219  12.009
53776W        W22106   2.930  34.516   0.372
53777W        W22107  16.116   6.325  10.101
53778W        W22108  32.121   3.912  12.881
53779W        W22109  14.807  34.009   0.290
53780W        W22110  38.055  13.201   2.789
53781W        W22111  36.487  34.520   9.926
53782W        W22112  18.104   8.261  10.579
53783W        W22113  23.716  26.189   1.374
53784W        W22114  19.744  29.082   4.806
53785W        W22115  29.112  41.975  10.890
53786W        W22116  31.524   3.374   2.726
53787W        W22117  42.938   8.231  13.838
53788W        W22118   8.681   2.782   4.279
53789W        W22119  39.944  14.136  13.028
53790W        W22120  21.031  20.531  12.912
53791W        W22121  10.176  12.125  12.430
53792W        W22122  18.053   7.376  11.031
53793W        W22123  24.101  17.165  12.081
53794W        W22124  19.217  34.495  13.807
53795W        W22125  36.902  40.962   2.325
53796W        W22126  42.506  26.628  12.552
53797W        W22127   1.300   9.344   3.268
53798W        W22128  30.153  43.428   2.200
53799W        W22129  20.062  39.842  14.320
53800W        W22130  44.003  16.117   4.240
53801W        W22131  23.234   5.304  12.844
53802W        W22132  28.996  13.623  13.032
53803W        W22133  31.102  19.554   3.198
53804W        W22134   2.245  14.726   1.376
53805W        W22135  30.040  18.762   1.403
53806W        W22136  19.130  19.597   3.777
53807W        W22137   6.184  32.999   1.323
53808W        W22138  27.554  41.936  11.432
53809W        W22139   8.192  19.165   0.340
53810W        W22140  15.152  41.362   0.389
53811W        W22141  41.382  36.486   4.301
53812W        W22142  23.201  10.278  14.446
53813W        W22143  29.018  21.656  11.114
53814W        W22144  28.493  17.798   0.310
53815W        W22145  10.247  20.041   4.698
53816W        W22146  37.865  10.772  13.797
53817W        W22147  38.884  34.042   0.334
53818W        W22148   4.921  24.115   4.249
53819W        W22149  21.527   3.402  11.589
53820W        W22150  22.683   4.921   0.452
53821W        W22151  34.573  22.655  14.336
53822W        W22152   3.227   3.797  13.816
53823W        W22153  39.356  34.075  11.124
53824W        W22154  38.530  32.472  12.992
53825W        W22155   7.203  17.737  12.471
53826W        W22156  28.654   6.350   1.887
53827W        W22157  31.994   6.705   1.867
53828W        W22158   0.383  36.406  13.484
53829W        W22159  28.086  34.031  11.955
53830W        W22160  20.132  22.010   4.219
53831W        W22161  31.902  25.212  11.546
53832W        W22162  40.358   8.276   4.684
53833W        W22163  19.082   0.824  10.566
53834W        W22164  19.184  38.416  12.001
53835W        W22165  23.586  23.992   2.404
53836W        W22166  22.211  39.027   2.855
53837W        W22167  16.206  10.339  11.429
53838W        W22168  44.412  38.568  10.156
53839W        W22169  29.583  38.340   0.475
53840W        W22170  32.405  10.285  10.481
53841W        W22171  15.227  24.186   3.148
53842W        W22172  34.486  26.643  11.566
53843W        W22173  11.265  13.322  13.482
53844W        W22174  37.933  20.030   3.378
53845W        W22175   6.902  19.608   4.319
53846W        W22176  29.922   7.214  14.009
53847W        W22177  26.085  38.509   1.758
53848W        W22178  22.173  11.150  11.477
53849W        W22179  35.035  33.052  10.927
53850W        W22180  25.999  16.302   1.862
53851W        W22181   2.332  31.116   4.787
53852W        W22182  16.605  33.981  12.548
53853W        W22183  22.008  14.283  13.858
53854W        W22184  10.687  41.350  10.476
53855W        W22185  23.110  23.989   2.288
53856W        W22186  34.874   4.211  12.357
53857W        W22187   1.838  42.476   2.182
53858W        W22188  28.523  42.960  11.395
53859W        W22189  18.258  43.789   4.699
53860W        W22190  11.345  36.068  11.101
53861W        W22191  12.643   3.271   0.291
53862W        W22192   5.299  38.821   1.352
53863W        W22193  38.359   4.291   0.726
53864W        W22194  41.851  22.196  10.432
53865W        W22195  20.622  42.505  11.403
53866W        W22196   2.430  10.142   2.773
53867W        W22197  41.975  10.654  11.930
53868W        W22198   2.455  17.199  10.485
53869W        W22199  15.621  43.827  13.897
53870W        W22200  37.917  16.629   4.628
53871W        W22201  34.912  34.483  14.286
53872W        W22202  38.986  20.764  12.938
53873W        W22203  19.069   9.200  12.453
53874W        W22204  28.164  27.948   2.867
53875W        W22205   0.811   3.421  10.553
53876W        W22206  39.537  31.008  11.540
53877W        W22207  28.534   3.298  10.944
53878W        W22208  41.352  21.082  11.491
53879W        W22209  41.427   4.743   3.822
53880W        W22210  21.543   7.704   4.206
53881W        W22211  25.195  39.858  11.548
53882W        W22212  14.819  38.962   3.808
53883W        W22213  14.200   9.271   4.164
53884W        W22214  18.144   0.809   1.228
53885W        W22215   4.903  44.396  12.868
53886W        W22216   2.366  18.250  10.576
53887W        W22217  17.584  11.687  12.842
53888W        W22218  36.871   7.188   4.185
53889W        W22219   1.351  38.922  14.797
53890W        W22220  23.704  11.312   0.356
53891W        W22221  23.567  33.471   2.856
53892W        W22222   8.266  17.131   0.898
53893W        W22223  21.056  22.701   4.274
53894W        W22224  31.555   3.870  12.447
53895W        W22225  41.452  34.596   0.936
53896W        W22226  31.944  28.113  14.766
53897W        W22227  39.964  36.511   3.237
53898W        W22228  13.180   8.665   2.200
53899W        W22229   7.292  20.186   3.811
53900W        W22230   6.274  31.058   2.829
53901W        W22231  28.628  40.990  11.600
53902W        W22232  37.456  32.910   2.732
53903W        W22233  35.039  25.563   0.391
53904W        W22234   0.887  15.707   0.298
53905W        W22235  20.693   9.770  14.767
53906W        W22236  41.534  31.134  14.425
53907W        W22237  34.439  43.956  13.512
53908W        W22238  29.999   0.752   1.436
53909W        W22239   6.218  28.074  10.100
53910W        W22240   1.468   8.374   4.635
53911W        W22241  24.602  10.275  14.886
53912W        W22242  30.601  21.597   5.098
53913W        W22243  40.539   3.726   3.837
53914W        W22244  38.912  17.207   1.243
53915W        W22245  40.433   8.229   3.797
53916W        W22246  26.982  10.667   4.730
53917W        W22247   0.486  23.494   1.389
53918W        W22248  11.625   6.912  10.096
53919W        W22249  15.657  36.060  12.351
53920W        W22250  36.049  20.202   4.346
53921W        W22251  33.091  28.948   0.334
53922W        W22252  13.835  12.352  13.884
53923W        W22253  19.235  25.633   4.682
53924W        W22254  30.150  17.656  10.988
53925W        W22255  11.169  26.170   0.818
53926W        W22256   3.440  20.542   0.780
53927W        W22257  29.597   8.847   0.960
53928W        W22258  40.453  28.124   1.915
53929W        W22259   7.680  36.986   2.408
53930W        W22260  40.359  16.300  11.487
53931W        W22261  15.784   6.298   1.764
53932W        W22262   0.788   3.843   4.633
53933W        W22263  26.562  31.974  12.909
53934W        W22264   1.415  26.147   3.632
53935W        W22265  39.412   7.885   4.230
53936W        W22266  15.763   0.950  10.581
53937W        W22267  33.964  20.619   0.733
53938W        W22268  43.319  24.721   1.931
53939W        W22269  26.963  37.046   3.667
53940W        W22270  16.122  32.407  10.958
53941W        W22271  14.797  42.390  14.964
53942W        W22272  11.136  41.008  12.048
53943W        W22273  13.714  30.555  14.889
53944W        W22274  29.648  39.371   4.320
53945W        W22275  14.687  27.942  10.136
53946W        W22276  15.219  27.631  11.508
53947W        W22277  32.995   6.391   3.757
53948W        W22278   5.910  40.348  11.598
53949W        W22279   6.402  25.196  14.769
53950W        W22280  35.044  14.328  10.474
53951W        W22281  22.080  23.676  12.386
53952W        W22282   4.303  32.121   3.255
53953W        W22283  17.250  37.475   2.800
53954W        W22284  26.127  26.165  14.874
53955W        W22285   4.234  38.481  12.432
53956W        W22286  16.261  36.578   4.235
53957W        W22287   8.176   7.825  13.851
53958W        W22288   2.893   2.902  11.082
53959W        W22289  34.970  30.565  11.917
53960W        W22290  34.913  36.023  12.432
53961W        W22291  29.010  44.960   0.782
53962W        W22292   4.224   6.241   4.747
53963W        W22293  42.513  12.663   1.839
53964W        W22294  40.428   2.924  11.099
53965W        W22295  44.762  31.517   2.877
53966W        W22296  15.780  16.660  12.578
53967W        W22297   7.277  43.844  11.074
53968W        W22298  13.688  33.583   3.629
53969W        W22299   9.298  32.448  12.471
53970W        W22300  34.911  37.466   1.363
53971W        W22301   6.694   3.866   4.126
53972W        W22302  39.407  21.684   1.786
53973W        W22303  26.098  10.320   4.607
53974W        W22304  26.143  31.027   3.775
53975W        W22305  19.183   3.892  10.455
53976W        W22306  41.980  14.606  12.960
53977W        W22307   0.281  36.465  11.456
53978W        W22308  21.208  28.958  14.448
53979W        W22309  18.234  30.934   4.831
53980W        W22310  39.443  44.329   1.927
53981W        W22311  29.496   5.284   0.306
53982W        W22312  26.087   3.714   2.394
53983W        W22313  10.285   6.250  11.047
53984W        W22314   7.832  27.525   4.765
53985W        W22315  23.129  42.857  12.997
53986W        W22316  21.019  30.614   0.841
53987W        W22317  22.022  20.104   3.191
53988W        W22318  26.459  28.996  11.092
53989W        W22319   4.759  15.771   2.803
53990W        W22320  11.203  26.102  13.327
53991W        W22321  38.465  38.921  13.422
53992W        W22322   7.704  44.307   0.395
53993W        W22323  18.588  39.935   2.419
53994W        W22324  31.497  32.602   4.732
53995W        W22325  38.990  31.553  13.480
53996W        W22326   2.771   9.849   4.838
53997W        W22327  33.027  16.135  11.549
53998W        W22328   6.705  18.782  13.370
53999W        W22329   9.251  33.017   0.780
54000W        W22330  13.263  14.275  13.430
54001W        W22331  24.015  33.997  12.007
54002W        W22332  14.120  31.537  14.416
54003W        W22333  16.086  38.363  14.816
54004W        W22334  15.799  42.833  10.576
54005W        W22335   1.383  13.350  12.011
54006W        W22336  20.578   1.340   0.287
54007W        W22337  43.353   3.899  11.871
54008W        W22338  15.720  13.128  11.559
54009W        W22339  42.521   7.834  12.848
54010W        W22340   6.192  42.845  13.813
54011W        W22341  30.010   5.226  14.780
54012W        W22342   0.485  42.841  10.543
54013W        W22343  21.588  41.317   2.190
54014W        W22344  11.739  22.556   3.151
54015W        W22345   3.359  17.613   0.376
54016W        W22346   1.785  16.259   2.759
54017W        W22347   7.337  38.449   3.354
54018W        W22348  41.405  25.659  13.037
54019W        W22349  42.329  39.006   2.710
54020W        W22350  27.997  13.263   4.350
54021W        W22351   1.431  18.651   4.691
54022W        W22352  24.687  41.020   3.862
54023W        W22353  31.940  43.424   4.715
54024W        W22354  24.205  38.032   3.290
54025W        W22355   4.863  26.473  14.496
54026W        W22356   4.729  33.119  12.977
54027W        W22357  32.013  26.583  14.897
54028W        W22358   7.730  39.983   2.267
54029W        W22359   4.787  31.633   4.183
54030W        W22360  12.315  27.692  11.579
54031W        W22361  27.170  32.622  11.487
54032W        W22362   9.306  13.653   4.209
54033W        W22363  34.927   6.343   2.268
54034W        W22364  18.660  14.252  10.888
54035W        W22365  11.814  37.415   5.242
54036W        W22366  38.436  22.709  13.987
54037W        W22367  17.088  38.821  14.293
54038W        W22368  33.547  15.142   2.364
54039W        W22369  12.243  44.896  14.884
54040W        W22370  16.281  37.067  14.959
54041W        W22371  20.209  29.503  14.875
54042W        W22372  37.907  22.180  13.858
54043W        W22373  16.641   0.782   4.779
54044W        W22374  14.197  18.135  11.490
54045W        W22375  21.552  13.225   4.334
54046W        W22376  36.550  29.972  13.038
54047W        W22377  41.947  10.653  13.884
54048W        W22378  25.148  12.657   3.713
54049W        W22379   9.218   2.435  13.329
54050W        W22380  23.720   7.250   2.846
54051W        W22381  39.473  19.708  10.998
54052W        W22382  33.439  39.834  11.458
54053W        W22383  13.141  19.127  12.827
54054W        W22384  29.587  10.707  14.416
54055W        W22385  17.717   5.858  13.848
54056W        W22386  26.550  29.990   2.406
54057W        W22387  40.483  30.120   4.749
54058W        W22388  29.523  26.187   0.760
54059W        W22389  11.364  38.959  11.404
54060W        W22390  36.508  38.974  12.351
54061W        W22391  16.217  44.417   4.653
54062W        W22392  18.107  40.459  11.554
54063W        W22393  20.609  27.449   9.553
54064W        W22394  31.421  15.174   3.387
54065W        W22395  17.214   7.809   2.822
54066W        W22396  32.131  26.606   2.356
54067W        W22397  21.069  41.946   2.317
54068W        W22398  22.020  15.676  14.309
54069W        W22399   0.327  34.972  12.408
54070W        W22400  24.156   6.678   2.846
54071W        W22401  20.106  10.787  12.869
54072W        W22402  29.044  25.713  10.462
54073W        W22403  21.244  16.180   0.279
54074W        W22404  40.856  34.460  14.311
54075W        W22405  42.485  24.586   4.611
54076W        W22406  12.290   0.323   1.893
54077W        W22407  39.390  28.052   1.785
54078W        W22408   8.375  39.981   1.802
54079W        W22409   8.325  35.005  13.342
54080W        W22410   4.843  36.936  14.884
54081W        W22411  19.078  29.027  13.968
54082W        W22412  44.425  26.602  13.407
54083W        W22413  19.745   0.256   0.752
54084W        W22414  42.811  39.875   1.834
54085W        W22415  34.069   1.461  14.872
54086W        W22416   9.827  22.146   4.284
54087W        W22417   0.865  42.453  11.969
54088W        W22418  23.679  23.033   1.425
54089W        W22419  29.657  29.024  10.578
54090W        W22420   9.326   2.447  11.094
54091W        W22421  29.506  30.995  13.467
54092W        W22422  22.596  19.139   1.894
54093W        W22423  36.020  18.256  11.457
54094W        W22424  31.944   0.403  12.003
54095W        W22425   6.309  28.471   2.244
54096W        W22426  38.471   4.218   4.836
54097W        W22427   6.396  34.430   1.919
54098W        W22428  41.030  32.893  14.029
54099W        W22429  19.205  39.871  11.857
54100W        W22430   8.846  44.416   3.830
54101W        W22431   4.399  31.459   0.762
54102W        W22432   1.772  31.977  13.416
54103W        W22433  20.142   2.915  13.958
54104W        W22434  39.347   8.384   0.732
54105W        W22435  43.347   0.401   0.782
54106W        W22436  43.334  10.730  12.345
54107W        W22437  19.758   4.374   3.222
54108W        W22438   7.780   9.653   4.683
54109W        W22439  24.681  19.701   0.395
54110W        W22440  27.567  10.162   9.928
54111W        W22441  40.365  18.090   4.735
54112W        W22442   6.414  36.875  13.509
54113W        W22443   3.908  25.089  11.962
54114W        W22444  22.109  38.880   4.830
54115W        W22445  30.647  44.830   0.947
54116W        W22446  19.667  19.600   4.121
54117W        W22447  16.766  12.784  10.952
54118W        W22448  20.614  32.964   0.960
54119W        W22449   9.835  29.466   0.262
54120W        W22450  13.303  22.995   0.395
54121W        W22451  27.079   8.374   4.609
54122W        W22452   4.713   7.679  10.891
54123W        W22453  31.965  11.770   3.825
54124W        W22454  34.600  44.374  14.288
54125W        W22455  38.332  18.584   2.383
54126W        W22456   1.421  27.639   2.219
54127W        W22457  22.052  29.124   0.914
54128W        W22458  20.593  34.943  13.525
54129W        W22459  39.342  12.132   4.660
54130W        W22460  16.787  10.846  14.502
54131W        W22461  15.308  14.142  10.517
54132W        W22462   9.794  22.622  10.474
54133W        W22463  33.406  41.331  13.945
54134W        W22464  12.350  30.998   3.757
54135W        W22465  37.055  19.657  14.367
54136W        W22466   8.875   2.956   2.218
54137W        W22467  40.523  37.509  12.434
54138W        W22468  28.471  15.652  12.400
54139W        W22469  42.897   6.900  13.890
54140W        W22470  35.082  40.971  12.462
54141W        W22471  39.475  34.437   4.145
54142W        W22472   2.391  19.579   2.737
54143W        W22473  31.629  11.796  14.455
54144W        W22474  12.314   0.940   2.895
54145W        W22475  26.518  32.128  10.158
54146W        W22476   5.367   0.911  14.784
54147W        W22477  36.866  28.613  11.525
54148W        W22478  18.058  25.032   5.205
54149W        W22479   4.729  40.445   4.354
54150W        W22480   3.941  19.212  12.380
54151W        W22481  23.191   2.385   1.335
54152W        W22482  31.642  39.851  12.885
54153W        W22483  19.662   9.849   3.730
54154W        W22484  40.527   6.793  14.449
54155W        W22485  16.231  26.648   2.374
54156W        W22486  29.444   4.357   2.903
54157W        W22487  14.278  42.941  12.941
54158W        W22488  15.770   8.792   2.304
54159W        W22489  18.123  36.581   2.824
54160W        W22490  43.359  13.778  13.962
54161W        W22491  28.063  25.020  11.995
54162W        W22492  42.400  33.522   1.293
54163W        W22493  33.434   0.759  14.484
54164W        W22494  21.240   5.290   2.298
54165W        W22495  40.372  41.870  13.913
54166W        W22496  20.218  11.316   0.373
54167W        W22497   6.698  42.395   1.900
54168W        W22498   1.798  13.753   4.182
54169W        W22499  14.188  32.549   0.461
54170W        W22500  13.832  44.383  13.515
54171W        W22501   1.472   2.364  14.770
54172W        W22502  44.270  32.579  10.559
54173W        W22503  24.543   9.201   0.435
54174W        W22504   7.754  18.767   4.747
54175W        W22505  23.070  25.629  14.764
54176W        W22506  19.626  33.998  14.812
54177W        W22507  34.019  21.028   4.193
54178W        W22508  23.089  29.970  14.413
54179W        W22509  33.916   1.907  13.329
54180W        W22510  36.882   2.340  13.967
54181W        W22511   7.208   8.390  14.838
54182W        W22512  12.188  30.014   4.661
54183W        W22513  23.614  13.608  11.556
54184W        W22514   2.813  15.607   2.383
54185W        W22515  43.767  22.615   0.263
54186W        W22516  19.048  30.607  13.885
54187W        W22517  10.876  33.441   3.344
54188W        W22518  12.828  33.501  11.466
54189W        W22519   3.816   6.775  10.574
54190W        W22520  31.084  26.987  11.856
54191W        W22521  18.079  29.993   0.360
54192W        W22522  23.236  36.948   0.748
54193W        W22523  34.096  43.308  11.376
54194W        W22524  33.025  26.056   0.967
54195W        W22525  16.073   9.241   1.377
54196W        W22526   7.382  18.670   1.215
54197W        W22527  34.948  18.567   1.218
54198W        W22528  18.129  37.044   2.253
54199W        W22529  40.804  34.512  11.943
54200W        W22530  11.299  22.625   4.163
54201W        W22531  10.873  42.434   4.601
54202W        W22532   5.882  34.074   1.848
54203W        W22533   1.853  37.005   2.785
54204W        W22534   0.441   8.769   0.341
54205W        W22535   6.909   0.462   1.332
54206W        W22536  16.275  36.895  10.018
54207W        W22537   7.175   4.314  13.978
54208W        W22538  16.627  37.068   9.949
54209W        W22539   3.401  39.982   3.168
54210W        W22540  20.754  26.467  12.068
54211W        W22541   7.317  38.419  12.880
54212W        W22542  28.531  27.091  14.417
54213W        W22543   0.371  22.539  12.012
54214W        W22544  35.517  40.902  10.436
54215W        W22545  29.480  32.460  10.437
54216W        W22546  23.553  27.179   0.368
54217W        W22547  27.000   2.409  14.838
54218W        W22548   8.385  41.974   3.661
54219W        W22549  35.084  19.624   3.363
54220W        W22550   3.771  36.447  13.450
54221W        W22551  27.553  32.590   5.264
54222W        W22552  42.504  27.449   4.204
54223W        W22553  11.728   1.436   3.779
54224W        W22554   5.889  25.673  14.323
54225W        W22555  38.361  12.220   0.312
54226W        W22556  38.538  12.749   0.405
54227W        W22557  31.556  20.034  13.044
54228W        W22558  15.294   0.960  12.472
54229W        W22559   3.278   8.199  12.576
54230W        W22560  17.247  31.578   0.289
54231W        W22561  21.105  22.142   4.599
54232W        W22562  32.112  20.633  13.991
54233W        W22563  34.058  31.956   0.760
54234W        W22564  30.618  19.146   2.297
54235W        W22565  23.055  40.882   0.887
54236W        W22566  25.076  42.284   3.845
54237W        W22567   3.934   6.280   3.158
54238W        W22568  10.381  42.500  13.811
54239W        W22569  39.528   3.750  14.831
54240W        W22570  31.133  33.926   2.333
54241W        W22571  42.409  17.134  14.351
54242W        W22572   3.251  33.577  13.882
54243W        W22573  29.999  19.626  10.002
54244W        W22574  36.581  22.054  12.401
54245W        W22575  21.700  17.221   0.760
54246W        W22576  12.779  37.992   2.779
54247W        W22577  34.581  30.433   4.178
54248W        W22578   3.449   0.862   4.313
54249W        W22579  42.808   6.379  12.397
54250W        W22580  13.814   0.985   2.840
54251W        W22581   5.281  30.021  13.994
54252W        W22582  27.632  26.569   3.376
54253W        W22583   3.387  35.432  14.027
54254W        W22584  25.664   5.404  11.855
54255W        W22585  28.442  14.618  13.917
54256W        W22586  43.330  38.425   4.812
54257W        W22587  38.955  37.442   4.186
54258W        W22588  37.966   6.910   1.772
54259W        W22589  21.088  16.660   2.323
54260W        W22590  30.425  18.756   1.812
54261W        W22591  10.227  38.384   4.225
54262W        W22592  11.188   1.846  10.405
54263W        W22593  16.725  16.576   0.789
54264W        W22594  22.237   7.709  13.545
54265W        W22595   0.750  15.680  14.815
54266W        W22596  31.958  25.105  13.010
54267W        W22597   0.271  43.401   4.215
54268W        W22598  13.773  36.024  10.965
54269W        W22599  27.040  23.147   2.298
54270W        W22600  40.993   9.645  12.568
54271W        W22601  30.102  30.045   4.168
54272W        W22602  44.357  42.490   3.198
54273W        W22603  20.166   5.361  14.468
54274W        W22604  41.527  37.013  11.069
54275W        W22605  32.449  18.184  12.980
54276W        W22606  34.946  35.447   4.206
54277W        W22607  15.144  32.454   0.377
54278W        W22608   1.403   8.250  13.017
54279W        W22609   1.336  23.525  14.399
54280W        W22610  34.516  44.382   4.266
54281W        W22611  38.930  35.939  10.058
54282W        W22612  35.914  17.178  13.885
54283W        W22613   9.350  43.020  10.942
54284W        W22614  36.926   5.278   3.167
54285W        W22615  24.618  16.671   4.293
54286W        W22616  21.576  14.629   4.704
54287W        W22617   5.267  16.668  12.519
54288W        W22618   2.911  38.464  12.461
54289W        W22619   3.347  43.361   4.782
54290W        W22620   3.715  42.304   2.180
54291W        W22621  21.158   0.795   1.854
54292W        W22622   2.347  24.185   3.758
54293W        W22623  13.689  30.422  14.323
54294W        W22624  31.007  21.670   2.686
54295W        W22625  18.609  43.471   3.703
54296W        W22626  43.292  21.719   2.741
54297W        W22627  29.077  26.540   3.266
54298W        W22628   4.363  27.680   4.610
54299W        W22629   0.339  20.587   0.289
54300W        W22630  34.084  10.225   2.801
54301W        W22631  37.377   6.308   1.767
54302W        W22632   9.222  41.893   2.872
54303W        W22633  35.486  31.461   0.323
54304W        W22634   2.234  38.971   2.799
54305W        W22635  19.770   2.807   0.249
54306W        W22636  23.728  18.546  13.925
54307W        W22637  25.056  28.084   1.302
54308W        W22638   5.306   2.292   3.367
54309W        W22639   5.923  32.540   0.286
54310W        W22640   0.278   7.748   2.334
54311W        W22641  36.423  30.146  11.858
54312W        W22642  38.855   7.667  12.823
54313W        W22643   2.239   9.751  12.029
54314W        W22644  35.023  42.287  13.475
54315W        W22645  44.502  35.948  13.938
54316W        W22646  24.990  36.399   0.467
54317W        W22647  17.754   3.353   0.419
54318W        W22648   4.436  18.295   4.800
54319W        W22649  38.866  29.928   3.184
54320W        W22650   6.761  22.027  13.929
54321W        W22651  10.850  28.504   4.817
54322W        W22652  37.030  40.964   0.814
54323W        W22653  29.094  10.766  10.569
54324W        W22654  22.206  15.296   0.459
54325W        W22655  23.573  32.536  12.397
54326W        W22656  16.767   3.850  14.507
54327W        W22657  21.148   8.830  11.094
54328W        W22658  22.575  32.937  11.493
54329W        W22659  13.151  39.429   2.777
54330W        W22660  40.940  16.106  13.352
54331W        W22661  37.054  40.370  14.010
54332W        W22662  27.007  35.096   1.856
54333W        W22663  35.365  31.943  13.913
54334W        W22664  14.233  39.914   0.885
54335W        W22665  16.075   2.892   2.665
54336W        W22666  19.218  12.238  13.991
54337W        W22667  10.644   3.941   0.939
54338W        W22668  35.875  39.509   0.742
54339W        W22669  25.029  34.590   0.903
54340W        W22670  14.222  16.616   0.254
54341W        W22671  21.080  34.950  12.890
54342W        W22672  22.246   0.749   1.893
54343W        W22673   0.907  27.026   1.289
54344W        W22674  28.624   2.374  12.865
54345W        W22675   5.913  29.620   4.257
54346W        W22676  23.117  27.182  10.638
54347W        W22677  14.642  18.225   4.701
54348W        W22678  34.060  20.133   1.822
54349W        W22679   8.162  35.459  11.541
54350W        W22680  37.964  31.580  14.436
54351W        W22681  24.098  26.540   3.820
54352W        W22682  14.189  22.591  11.557
54353W        W22683  25.192  32.558  12.575
54354W        W22684  37.570  42.414  14.466
54355W        W22685  22.626   1.240   0.798
54356W        W22686  33.523  17.158   4.622
54357W        W22687  34.471  35.012   1.711
54358W        W22688  37.988  13.232   2.286
54359W        W22689  10.311  25.066   3.851
54360W        W22690   0.878   9.762  11.068
54361W        W22691  39.382   0.487   1.270
54362W        W22692  41.435  36.927  13.918
54363W        W22693   6.754  15.725  12.547
54364W        W22694  40.020  22.145   3.350
54365W        W22695  31.090   1.812   1.895
54366W        W22696   8.354  16.300  12.010
54367W        W22697  34.045  37.835   2.313
54368W        W22698   7.739  16.789  12.472
54369W        W22699   3.923  23.673  13.862
54370W        W22700  30.961  28.107  12.416
54371W        W22701  39.421   6.683  12.505
54372W        W22702  39.864  25.145  12.013
54373W        W22703   4.778  31.983   0.859
54374W        W22704  31.084  13.286   4.614
54375W        W22705  38.005   8.252   2.732
54376W        W22706  43.376  12.817   1.285
54377W        W22707  39.978   4.368   3.672
54378W        W22708   1.782  14.219   2.377
54379W        W22709   7.225  33.384   3.266
54380W        W22710  33.482   7.721  14.396
54381W        W22711  24.505  11.305   3.821
54382W        W22712  13.676  20.238   0.910
54383W        W22713   3.879  28.945   0.259
54384W        W22714  21.227  19.719   2.717
54385W        W22715   8.769  14.736  14.025
54386W        W22716   5.776  34.864   4.787
54387W        W22717  34.541  38.009  14.775
54388W        W22718   5.702  10.664   0.264
54389W        W22719  34.410  38.980  10.970
54390W        W22720  27.158  34.040   5.241
54391W        W22721  43.405  20.608   0.294
54392W        W22722  12.217   8.701   2.839
54393W        W22723   6.222  38.379   0.300
54394W        W22724  27.647  23.690  14.409
54395W        W22725   1.940  12.789  10.934
54396W        W22726   4.819  26.056  13.329
54397W        W22727  28.123  32.543   3.811
54398W        W22728  26.138  42.802   2.756
54399W        W22729  10.870  37.832  11.118
54400W        W22730  33.523  14.696   4.747
54401W        W22731   6.690  40.949   3.148
54402W        W22732  14.197  18.576  10.519
54403W        W22733  32.896  34.580  11.395
54404W        W22734  30.086  40.543  10.521
54405W        W22735  37.536  43.400   2.809
54406W        W22736  41.529  35.412  14.476
54407W        W22737   4.233  10.712  11.505
54408W        W22738  18.699  11.622   0.734
54409W        W22739  26.641  11.646  14.378
54410W        W22740  36.403  30.923  14.462
54411W        W22741  13.721  13.781   4.682
54412W        W22742   7.178  15.698   1.791
54413W        W22743  34.074   8.797  10.899
54414W        W22744  38.868  11.203   3.172
54415W        W22745  20.268  42.019   1.318
54416W        W22746  27.015   6.877  13.450
54417W        W22747   0.332  34.443  13.955
54418W        W22748   0.276  44.914   2.203
54419W        W22749   4.762  39.953   1.223
54420W        W22750  28.481   5.811  13.544
54421W        W22751  39.810   7.776  11.413
54422W        W22752  14.683  26.993   4.299
54423W        W22753  17.141  38.020  14.900
54424W        W22754  36.501  23.241  11.936
54425W        W22755  31.424  36.373  14.785
54426W        W22756  44.325  38.883  11.403
54427W        W22757  39.416   1.333   4.795
54428W        W22758  33.568  34.960   4.663
54429W        W22759  30.457  25.156  11.461
54430W        W22760  17.146  13.152   0.297
54431W        W22761  30.039   6.344  13.039
54432W        W22762  41.379  42.503  10.517
54433W        W22763  39.965   2.811  10.949
54434W        W22764  33.079   4.717   0.889
54435W        W22765  18.065  38.975  13.967
54436W        W22766   9.261  40.390  11.592
54437W        W22767   0.767   6.785   1.934
54438W        W22768  26.095   8.761   2.307
54439W        W22769  44.351  40.378  11.532
54440W        W22770  35.461  32.114   4.700
54441W        W22771  30.933  40.956   1.429
54442W        W22772   7.799   5.422   4.759
54443W        W22773   7.744   7.213  14.467
54444W        W22774  42.853  36.476  13.960
54445W        W22775   2.940   0.927   1.401
54446W        W22776  30.640  15.780  12.350
54447W        W22777   3.770  42.785   2.896
54448W        W22778  27.102  24.608  12.471
54449W        W22779  13.627  31.503  14.414
54450W        W22780  40.428  31.119  14.278
54451W        W22781  44.478  15.596   0.416
54452W        W22782   4.848  25.098  13.812
54453W        W22783  43.497   4.827  13.999
54454W        W22784   6.235   1.883   1.401
54455W        W22785  42.290   6.253   4.645
54456W        W22786  33.576  29.468   4.688
54457W        W22787  12.149  34.048  14.854
54458W        W22788  39.507   0.962  11.055
54459W        W22789  26.141   1.882   0.807
54460W        W22790   7.665  42.904   4.291
54461W        W22791   9.299  34.369   1.397
54462W        W22792  29.511  35.591   0.295
54463W        W22793  22.646   0.901  13.926
54464W        W22794  16.264  34.061  14.341
54465W        W22795  14.623  31.081   1.705
54466W        W22796  14.669   4.937  11.393
54467W        W22797  27.568   8.690   3.715
54468W        W22798  38.340  35.007  10.968
54469W        W22799  19.733  37.563  13.050
54470W        W22800  17.150   7.744   5.218
54471W        W22801  35.952  31.966   1.374
54472W        W22802   5.377  13.765   2.370
54473W        W22803  40.854  30.509  14.514
54474W        W22804  25.618   0.892  10.642
54475W        W22805   2.289  30.937  10.978
54476W        W22806   6.364  40.990  13.920
54477W        W22807   9.837   0.769  12.832
54478W        W22808  44.412  36.414  10.442
54479W        W22809  41.970  38.540   2.898
54480W        W22810  40.929  27.085  12.452
54481W        W22811  37.540  25.043   4.733
54482W        W22812  31.472   1.830  13.392
54483W        W22813  37.466  41.788   5.199
54484W        W22814  22.229  40.465   4.188
54485W        W22815   8.714  32.538  11.962
54486W        W22816  18.727  11.337  10.552
54487W        W22817  23.240  43.348   2.190
54488W        W22818  37.499  24.569   1.380
54489W        W22819  24.216  10.163   4.147
54490W        W22820  10.818   7.778  10.472
54491W        W22821   8.899   3.394  12.349
54492W        W22822  25.601  29.138   2.399
54493W        W22823   0.858   2.228  14.428
54494W        W22824  31.024   7.810   1.932
54495W        W22825  11.829  17.748   3.807
54496W        W22826  39.513  17.084  10.405
54497W        W22827  25.675  43.017   0.256
54498W        W22828  12.616  16.743   1.213
54499W        W22829  37.881   0.367  10.500
54500W        W22830  44.758  38.368  11.438
54501W        W22831   3.727  23.204   1.318
54502W        W22832  22.216  12.346  12.015
54503W        W22833  43.377  12.619   4.759
54504W        W22834   9.385   5.409   0.752
54505W        W22835  14.647  17.234   9.976
54506W        W22836   2.251  30.624  10.094
54507W        W22837  32.992  12.844   1.780
54508W        W22838   6.323  23.146  13.394
54509W        W22839  31.903  17.791   1.788
54510W        W22840  38.040  19.543   1.341
54511W        W22841  23.673  10.711  14.759
54512W        W22842   9.888  36.568   0.819
54513W        W22843  41.428   7.399  12.903
54514W        W22844  20.585  44.932   0.862
54515W        W22845   3.300  44.336   0.442
54516W        W22846  16.162  17.281   3.276
54517W        W22847  27.078   5.329  11.530
54518W        W22848   2.886  23.009   2.709
54519W        W22849   2.443  39.847   1.707
54520W        W22850  21.029   9.301   1.241
54521W        W22851   5.215  29.617   2.831
54522W        W22852   7.870  30.476   1.777
54523W        W22853  30.110  34.895  14.341
54524W        W22854  28.565  13.334   0.740
54525W        W22855  38.841  22.129   2.373
54526W        W22856   2.958  25.115  12.342
54527W        W22857  26.198  44.832   2.833
54528W        W22858   5.694  27.172   4.301
54529W        W22859  20.123  12.309  13.521
54530W        W22860  24.171   7.749   2.404
54531W        W22861   7.413  26.065   4.768
54532W        W22862  31.099  19.209   2.188
54533W        W22863  37.003  34.005   2.870
54534W        W22864   8.204  23.021   3.341
54535W        W22865  26.698  17.107  14.475
54536W        W22866  36.978  36.569   1.300
54537W        W22867  17.250   3.829   0.889
54538W        W22868  11.275  20.670   1.289
54539W        W22869  40.010  26.635   2.715
54540W        W22870  12.612  29.162   2.394
54541W        W22871  31.528  26.089   1.809
54542W        W22872  16.633   4.436  10.421
54543W        W22873  41.326  44.857   0.778
54544W        W22874  10.268  24.985  12.509
54545W        W22875  35.547  34.052   1.744
54546W        W22876  41.399   9.657   1.291
54547W        W22877  35.572   5.831   1.366
54548W        W22878  16.739  23.240   2.266
54549W        W22879   4.248  22.120  12.040
54550W        W22880  25.089  42.875   2.846
54551W        W22881   3.873  31.493   4.241
54552W        W22882  42.367  20.669  14.493
54553W        W22883  25.176  30.489  11.066
54554W        W22884  13.725  14.632   2.306
54555W        W22885   7.836  10.277   4.702
54556W        W22886  38.051  39.358   1.366
54557W        W22887  36.897   2.828   3.356
54558W        W22888   2.872   4.299   3.801
54559W        W22889   2.891  34.108   2.725
54560W        W22890  34.597  43.968  13.948
54561W        W22891  28.049  26.602  14.842
54562W        W22892  10.173  44.282   0.336
54563W        W22893   1.835  17.699  11.581
54564W        W22894  41.971  19.173   0.771
54565W        W22895  34.519  11.630   0.767
54566W        W22896   7.883   5.280   1.874
54567W        W22897  32.528   3.341  11.448
54568W        W22898  28.124  38.858   1.851
54569W        W22899  16.183  31.068   2.701
54570W        W22900  38.068  44.498   3.824
54571W        W22901   1.307  10.245   2.789
54572W        W22902  40.464  16.762   3.163
54573W        W22903  13.341  36.484   2.882
54574W        W22904  19.567  15.152  12.372
54575W        W22905  18.262  26.170   5.179
54576W        W22906  29.432  23.534   1.449
54577W        W22907  19.080  27.957  11.471
54578W        W22908  20.649  26.015  14.441
54579W        W22909  27.551   2.851   4.760
54580W        W22910  44.409   3.844   0.726
54581W        W22911   0.818  10.715  14.999
54582W        W22912  36.060  18.141  10.985
54583W        W22913   6.746  17.629  13.894
54584W        W22914  22.136  37.494   4.733
54585W        W22915  33.048  14.783   0.483
54586W        W22916  37.961  41.329  14.406
54587W        W22917  22.737  24.222  10.505
54588W        W22918   6.325  18.133   2.888
54589W        W22919  20.747  22.150   1.916
54590W        W22920   9.846   0.866  13.898
54591W        W22921  44.916   4.350   2.685
54592W        W22922  36.456  25.147   2.238
54593W        W22923   1.751  33.099  14.944
54594W        W22924  23.992  18.604   0.833
54595W        W22925  12.124   2.790   0.409
54596W        W22926  24.049  26.190  11.907
54597W        W22927  34.112  36.529   1.428
54598W        W22928  43.364   9.804  13.794
54599W        W22929  14.156  38.377  14.873
54600W        W22930  24.058   6.892  11.062
54601W        W22931  34.091   4.208  14.458
54602W        W22932  23.168  19.045   3.802
54603W        W22933  15.728  13.657   4.717
54604W        W22934  40.411   2.912   2.290
54605W        W22935  37.460   3.365  12.934
54606W        W22936   9.657  27.178   4.679
54607W        W22937  39.544  41.001  11.078
54608W        W22938  44.857  23.512   1.384
54609W        W22939  41.395   1.926   1.355
54610W        W22940  24.064  40.923  11.379
54611W        W22941  16.620  12.345  14.887
54612W        W22942  15.823   6.202  12.027
54613W        W22943  26.067  34.405  14.330
54614W        W22944  29.036   1.813  13.835
54615W        W22945  26.020  31.454  14.286
54616W        W22946  43.773   2.371   0.309
54617W        W22947  41.368  41.468   0.865
54618W        W22948   0.926   4.381   3.829
54619W        W22949  40.024  32.490   3.161
54620W        W22950  41.323  15.259   4.324
54621W        W22951  26.680  36.986   3.812
54622W        W22952  25.671  25.528   0.457
54623W        W22953   1.314  12.213  14.346
54624W        W22954  19.575  26.059   3.288
54625W        W22955  17.090  40.975   4.778
54626W        W22956  31.640  12.752   3.709
54627W        W22957  44.331  30.639   4.298
54628W        W22958   8.658  32.093  13.989
54629W        W22959   9.682  41.305   3.319
54630W        W22960  11.157  15.265  13.495
54631W        W22961  22.126  44.467  13.978
54632W        W22962   3.412   2.269  14.929
54633W        W22963  43.313  25.131  14.388
54634W        W22964  39.875   9.164   5.210
54635W        W22965  40.360  41.387   0.945
54636W        W22966  40.412   7.254  12.483
54637W        W22967  32.448  35.505  13.501
54638W        W22968   1.959   9.735   3.809
54639W        W22969  23.628   3.290  13.366
54640W        W22970  24.069  43.507  12.506
54641W        W22971  19.555  32.621   4.351
54642W        W22972   4.436  15.110  12.991
54643W        W22973   8.318  30.496   4.672
54644W        W22974  34.567   9.833  14.491
54645W        W22975  34.429   1.942  13.469
54646W        W22976  15.311  14.287  12.398
54647W        W22977  18.258   3.847  14.800
54648W        W22978   9.252  21.227  12.531
54649W        W22979  23.162  10.194   2.280
54650W        W22980  36.566  28.492   1.404
54651W        W22981   4.879  41.004  13.006
54652W        W22982  16.232   1.439  10.441
54653W        W22983  19.538   0.405  10.418
54654W        W22984   3.379  19.575   1.709
54655W        W22985  43.515  15.266  14.432
54656W        W22986  29.122  13.619   1.438
54657W        W22987   3.372  32.113  10.607
54658W        W22988  43.296  16.727  10.524
54659W        W22989  26.955  21.618   0.441
54660W        W22990  35.510  24.610  14.316
54661W        W22991   4.214  32.036   1.243
54662W        W22992  29.074  29.130   0.940
54663W        W22993   0.397  28.466   4.705
54664W        W22994  38.475  42.004  14.390
54665W        W22995  40.980  11.782   4.160
54666W        W22996  34.881   1.396   2.382
54667W        W22997  28.935   8.195  11.856
54668W        W22998   0.907  15.600  12.019
54669W        W22999  34.612  25.607  14.405
54670W        W23000  40.506  19.767   2.373
54671W        W23001  36.859  44.754  11.590
54672W        W23002   4.294  23.150  10.902
54673W        W23003  24.676  19.088   4.758
54674W        W23004   3.355  30.145   3.371
54675W        W23005  20.546  19.227  13.360
54676W        W23006  17.778  32.987  13.038
54677W        W23007  35.364  39.345  12.458
54678W        W23008  38.339  17.790   4.629
54679W        W23009  22.056  11.265   1.732
54680W        W23010   6.232  43.498   3.195
54681W        W23011  31.578  30.982  12.549
54682W        W23012  38.570  28.967   4.224
54683W        W23013  21.048  43.901   2.836
54684W        W23014  26.057  20.590  14.420
54685W        W23015  44.411  23.699  10.087
54686W        W23016  12.853  11.652  13.061
54687W        W23017   6.405  13.191  11.050
54688W        W23018   1.755   3.275  11.434
54689W        W23019  22.180  37.894   2.354
54690W        W23020  18.549  29.991  13.950
54691W        W23021  26.105  35.893  11.481
54692W        W23022  20.723  12.688  13.448
54693W        W23023  24.700   0.927   2.250
54694W        W23024  14.324  16.702   2.407
54695W        W23025  43.976  37.926   4.279
54696W        W23026   0.482   4.813   2.286
54697W        W23027  36.493  35.003   4.775
54698W        W23028  38.505  21.187   0.442
54699W        W23029  12.756  30.491   2.295
54700W        W23030  11.682  20.659   0.735
54701W        W23031  44.898  15.712  10.965
54702W        W23032   5.927  14.776   2.743
54703W        W23033  10.832  10.310  11.419
54704W        W23034  11.708  28.479  11.087
54705W        W23035  30.452  25.179   0.440
54706W        W23036   9.708  16.077  14.369
54707W        W23037  22.144  22.687   1.845
54708W        W23038  21.204  30.992  13.927
54709W        W23039  30.445  34.941   3.749
54710W        W23040  13.275  43.006   5.120
54711W        W23041   0.941  11.372  14.910
54712W        W23042  30.035  18.726   0.285
54713W        W23043  23.219  12.213   4.213
54714W        W23044  19.199  11.195  10.462
54715W        W23045  32.112  23.986   3.244
54716W        W23046  10.291  15.673   4.709
54717W        W23047  13.697  34.428  12.970
54718W        W23048  36.485  18.145   1.428
54719W        W23049  28.631  18.700  12.876
54720W        W23050  33.120  17.602  10.468
54721W        W23051   1.317  38.001   3.281
54722W        W23052  41.355  41.418  12.938
54723W        W23053  36.005   1.304   0.341
54724W        W23054  11.240   9.744  11.887
54725W        W23055   9.798  32.471  11.874
54726W        W23056  34.591  15.198   3.696
54727W        W23057  13.148  29.020   2.837
54728W        W23058  23.681  33.532  11.542
54729W        W23059  38.875   3.880  14.960
54730W        W23060  17.567  12.646   0.297
54731W        W23061   1.399   9.807  12.989
54732W        W23062   6.753  34.998   3.836
54733W        W23063  17.163  30.122   2.794
54734W        W23064   7.188  17.630  11.408
54735W        W23065  44.868  11.292  13.448
54736W        W23066  35.526  31.041   2.851
54737W        W23067  40.050  12.833  12.966
54738W        W23068  33.942  14.599   2.208
54739W        W23069  44.362  31.568  13.848
54740W        W23070  10.328  31.499  11.959
54741W        W23071   1.287   6.193  14.316
54742W        W23072  35.946   4.338   0.358
54743W        W23073  23.168  42.369  14.302
54744W        W23074   3.414   4.702  14.430
54745W        W23075   1.285  16.195   0.728
54746W        W23076  21.696  15.208  11.009
54747W        W23077   0.801   6.209  12.042
54748W        W23078  33.576   7.323   2.850
54749W        W23079   9.843  20.161  12.998
54750W        W23080   2.903   8.856  14.959
54751W        W23081  44.955  10.361   1.302
54752W        W23082  21.043   4.326   3.230
54753W        W23083  28.635  19.077   3.726
54754W        W23084  34.967  32.517  13.057
54755W        W23085  16.072  23.017  12.946
54756W        W23086  15.648  13.178  12.073
54757W        W23087  37.462  16.187  10.953
54758W        W23088  41.528   2.443  11.956
54759W        W23089  16.665  24.660   3.676
54760W        W23090  41.953   8.842  10.023
54761W        W23091  33.489  43.301   0.309
54762W        W23092  24.621   2.286   2.226
54763W        W23093  41.485  29.610  12.415
54764W        W23094   9.651  29.041  14.930
54765W        W23095  11.322   1.978   3.837
54766W        W23096  15.257  23.698   4.251
54767W        W23097  27.671  17.666   0.819
54768W        W23098  11.191  30.501   0.928
54769W        W23099  23.177  35.412   1.711
54770W        W23100  36.050  20.042   0.837
54771W        W23101  26.176  37.519  12.475
54772W        W23102  11.232   4.905   1.803
54773W        W23103   4.747  20.086  12.566
54774W        W23104  15.127  39.009   4.124
54775W        W23105   4.794  16.704  13.313
54776W        W23106   1.910   5.350   0.895
54777W        W23107  12.164   7.846   3.777
54778W        W23108  24.506   9.332   3.762
54779W        W23109   2.793  27.457   4.226
54780W        W23110  22.613  26.567  12.468
54781W        W23111  39.413  33.416  11.460
54782W        W23112  36.402   9.310  11.960
54783W        W23113   2.794   8.322   0.418
54784W        W23114  33.933  29.946  14.356
54785W        W23115  29.006  11.231  14.903
54786W        W23116  33.414  24.144   3.804
54787W        W23117  44.799  18.552  13.525
54788W        W23118  39.874  39.972  13.340
54789W        W23119  35.493  38.972  11.404
54790W        W23120   7.191   8.194  11.528
54791W        W23121  24.550  43.905  12.449
54792W        W23122  43.348  27.577   0.859
54793W        W23123  38.974  25.702   1.883
54794W        W23124  14.102  14.262  13.438
54795W        W23125  24.703  11.234  12.966
54796W        W23126  27.515  17.081   0.890
54797W        W23127   7.278  30.447  11.043
54798W        W23128  19.589  10.179  11.504
54799W        W23129  22.565  40.312   4.218
54800W        W23130  15.790  18.051   1.249
54801W        W23131  10.320  32.016   4.609
54802W        W23132  26.631   1.337   2.184
54803W        W23133  14.645  12.743   9.980
54804W        W23134   1.475   9.709   2.872
54805W        W23135  10.306  29.664  13.995
54806W        W23136   1.782  25.487  11.412
54807W        W23137   4.297  13.646   3.725
54808W        W23138   8.203  13.807   4.722
54809W        W23139   9.739  15.776  13.461
54810W        W23140  30.932  38.007  13.928
54811W        W23141  38.362  36.547  13.891
54812W        W23142   6.343  26.612  12.490
54813W        W23143   5.829  43.853   2.673
54814W        W23144   1.741  34.552   3.184
54815W        W23145   8.365   9.880  10.960
54816W        W23146   2.839   0.421   3.702
54817W        W23147   1.378   7.322   3.830
54818W        W23148  18.595   4.865  12.875
54819W        W23149  22.675   2.322  12.479
54820W        W23150  17.713  17.730   1.820
54821W        W23151   7.810  26.625   3.769
54822W        W23152   0.476  12.843   4.671
54823W        W23153  41.475   9.305  11.114
54824W        W23154  33.035   8.728   4.698
54825W        W23155   0.310  19.624  14.862
54826W        W23156  20.717  26.983   4.168
54827W        W23157   9.726  30.504  14.333
54828W        W23158   7.683  11.803   1.900
54829W        W23159  26.013  44.502  14.006
54830W        W23160  17.754   9.282  12.549
54831W        W23161   3.405  18.752   0.769
54832W        W23162  43.283  15.807  10.133
54833W        W23163  33.123  43.014   3.764
54834W        W23164  12.122  35.399   4.726
54835W        W23165  16.590   6.685  13.484
54836W        W23166  11.269  31.909   0.388
54837W        W23167  21.717   0.273   1.448
54838W        W23168  34.384   3.351   3.251
54839W        W23169  39.888  43.492  13.486
54840W        W23170  33.415  11.663  11.110
54841W        W23171  43.341   1.258  12.025
54842W        W23172  43.843  36.416  11.014
54843W        W23173  37.881  29.103   3.760
54844W        W23174  14.300  38.969   0.805
54845W        W23175  28.498  31.436   5.632
54846W        W23176   9.178   7.172  12.063
54847W        W23177   0.266  11.191   1.373
54848W        W23178  10.829   6.244  14.990
54849W        W23179  12.696  21.547  11.860
54850W        W23180  19.742  20.109   2.321
54851W        W23181  40.018  40.957   0.416
54852W        W23182  26.988  24.671   3.314
54853W        W23183  27.573  15.155  12.443
54854W        W23184   5.762  41.946   4.749
54855W        W23185   3.752  14.121  13.030
54856W        W23186  27.686  11.818   0.836
54857W        W23187  23.537   0.490   4.726
54858W        W23188  41.951   4.881  13.382
54859W        W23189   9.209   4.253  12.503
54860W        W23190  32.617  38.486   2.239
54861W        W23191  31.443  17.605  14.488
54862W        W23192   4.428  17.781   2.344
54863W        W23193  20.122   6.310   3.766
54864W        W23194  17.649   0.918   0.728
54865W        W23195   5.381  28.044   3.854
54866W        W23196   9.688  33.530   4.597
54867W        W23197   5.203  18.255   3.823
54868W        W23198   8.226  19.779  10.614
54869W        W23199  29.600  28.092  13.032
54870W        W23200   3.935  11.680  11.954
54871W        W23201  36.001  37.055  14.808
54872W        W23202  21.684  12.763  13.931
54873W        W23203  19.705  25.993   4.600
54874W        W23204  29.546  28.169   4.159
54875W        W23205  12.182  41.417  14.976
54876W        W23206  15.750   1.732   0.876
54877W        W23207   2.721  29.157   0.418
54878W        W23208  12.324   0.746  14.022
54879W        W23209  44.398  21.543  14.450
54880W        W23210  14.598  38.516  12.463
54881W        W23211  29.477  42.365  11.008
54882W        W23212  16.599  32.951  12.961
54883W        W23213  36.482  26.626  13.340
54884W        W23214  18.712  15.625   5.265
54885W        W23215   1.349   8.701  14.285
54886W        W23216  36.986   1.257   2.331
54887W        W23217  36.376  28.626  11.982
54888W        W23218   0.920  28.670  12.414
54889W        W23219  37.530  33.127  12.988
54890W        W23220   1.314  35.544   3.265
54891W        W23221  27.971   5.392   0.452
54892W        W23222  24.523  32.045   2.771
54893W        W23223   3.420  22.252  11.446
54894W        W23224  44.925  18.153  11.956
54895W        W23225   8.696  13.335  10.466
54896W        W23226  19.780  22.181  11.544
54897W        W23227  21.181  44.349  13.449
54898W        W23228   8.807  40.514  11.387
54899W        W23229  40.893  35.518   3.220
54900W        W23230  31.076  24.494   1.336
54901W        W23231  28.998  44.004   4.720
54902W        W23232  34.075  37.937   1.215
54903W        W23233  13.697  25.962  13.462
54904W        W23234  34.461  33.129  12.344
54905W        W23235  27.595   8.860   2.703
54906W        W23236   1.238  36.014  12.074
54907W        W23237  34.042  17.741   0.300
54908W        W23238   6.281  30.951  11.067
54909W        W23239   5.842  13.317  10.420
54910W        W23240  36.875  38.465  14.772
54911W        W23241  36.496  39.450   0.888
54912W        W23242  19.641   6.734  14.852
54913W        W23243  30.005  31.111   4.700
54914W        W23244  25.571  34.920  13.854
54915W        W23245  28.152  13.340   3.359
54916W        W23246  11.298  42.952  11.104
54917W        W23247  30.440  31.053   0.831
54918W        W23248  10.809  27.639   1.401
54919W        W23249   7.828  31.445   1.745
54920W        W23250  38.396   6.246   4.353
54921W        W23251  16.784  41.530   3.266
54922W        W23252  21.078  42.344  11.894
54923W        W23253  25.560  26.188   4.211
54924W        W23254  20.169  17.271   4.261
54925W        W23255   3.290  24.214   0.401
54926W        W23256  22.065   1.383   0.367
54927W        W23257  29.946  44.968   4.626
54928W        W23258  10.380  33.571  10.623
54929W        W23259  41.344  22.168  14.422
54930W        W23260   3.321  34.432   4.343
54931W        W23261   9.314   6.698  14.414
54932W        W23262   7.892  20.178   1.763
54933W        W23263   3.834  33.604  14.872
54934W        W23264   5.708  24.713  13.982
54935W        W23265  37.899  12.351   2.882
54936W        W23266  30.937  29.921   3.291
54937W        W23267  20.070   0.360  10.492
54938W        W23268  23.632  42.834  10.638
54939W        W23269  41.521  29.630   0.475
54940W        W23270   3.218  16.809   0.865
54941W        W23271  13.653   6.349   0.455
54942W        W23272  18.678   2.796  10.579
54943W        W23273  39.339  34.531   4.658
54944W        W23274   4.310  26.036   0.893
54945W        W23275  18.644  10.169   3.865
54946W        W23276   7.674  39.895  11.524
54947W        W23277  37.413  44.786  13.861
54948W        W23278  19.778   0.379   4.180
54949W        W23279  32.093  10.669  14.414
54950W        W23280  40.382  18.587   5.276
54951W        W23281   1.354  26.569   1.365
54952W        W23282   8.209  37.461   1.843
54953W        W23283   4.848  28.601   2.418
54954W        W23284  17.138  23.214  13.351
54955W        W23285  34.029  25.009  13.412
54956W        W23286  34.102   8.284  10.965
54957W        W23287  44.473  17.228   5.125
54958W        W23288  39.398   8.797   2.352
54959W        W23289  17.184  27.163   0.345
54960W        W23290  10.291  28.639  14.861
54961W        W23291  36.092  12.762   0.908
54962W        W23292  40.823  29.000   2.776
54963W        W23293  22.696  36.375   3.660
54964W        W23294  34.474  31.973   0.447
54965W        W23295  39.464  26.494   1.766
54966W        W23296   8.786   2.390  13.889
54967W        W23297  28.541  43.356  13.929
54968W        W23298  18.198  27.962  11.904
54969W        W23299  33.448  27.570  12.477
54970W        W23300  25.641  14.295  10.525
54971W        W23301  39.930  13.240   3.829
54972W        W23302  17.223  24.080  14.289
54973W        W23303  42.917  21.539   1.298
54974W        W23304  28.154  26.498   3.794
54975W        W23305  12.710  17.192   2.367
54976W        W23306  27.127  22.010  11.002
54977W        W23307  18.681  44.469  11.124
54978W        W23308   6.309  24.082  11.125
54979W        W23309  31.916  14.201  11.991
54980W        W23310  10.292  27.495  14.772
54981W        W23311  13.130  12.124  14.424
54982W        W23312  36.932  23.992   2.268
54983W        W23313  10.805  16.621   2.268
54984W        W23314   4.366   8.325   3.371
54985W        W23315   4.943   5.215   1.696
54986W        W23316  42.013  33.483   1.441
54987W        W23317   8.205  11.324  12.837
54988W        W23318  37.527   0.809   3.758
54989W        W23319  29.968  36.446  10.474
54990W        W23320  32.492  32.453   2.893
54991W        W23321   1.807  35.920   3.289
54992W        W23322  25.194  17.556   4.160
54993W        W23323   3.881  28.082  12.494
54994W        W23324  31.119   5.301   0.822
54995W        W23325  30.088  14.226   4.634
54996W        W23326   6.771   3.382  11.432
54997W        W23327  22.030  35.028  14.280
54998W        W23328  40.829  16.263   3.300
54999W        W23329  18.671  43.890   2.769
55000W        W23330   9.750  33.956  11.600
55001W        W23331  40.386   2.805   1.704
55002W        W23332  39.047  35.109   4.618
55003W        W23333  12.798  21.046  14.987
55004W        W23334  35.383  38.559  14.938
55005W        W23335  15.126  40.414   4.207
55006W        W23336  13.699   1.818   1.710
55007W        W23337  23.582   6.221  13.867
55008W        W23338  22.623  26.039  14.361
55009W        W23339   4.213  15.237   4.645
55010W        W23340  34.556  23.637  13.398
55011W        W23341  40.912  27.540   2.205
55012W        W23342  24.997  14.284  14.802
55013W        W23343  12.784  30.541  12.840
55014W        W23344   0.363  30.034  13.956
55015W        W23345  15.594  41.886  13.950
55016W        W23346  24.123   9.184  13.999
55017W        W23347  14.683  30.567  13.346
55018W        W23348  42.324  30.148  10.984
55019W        W23349  41.891   1.323  13.833
55020W        W23350   5.326   3.241  10.964
55021W        W23351  18.266  27.546  11.391
55022W        W23352  23.731   9.880   1.792
55023W        W23353   6.191  26.466   3.720
55024W        W23354  35.512   6.344   3.276
55025W        W23355   1.892   8.855   1.780
55026W        W23356  10.243   3.949  12.879
55027W        W23357  14.199  22.696  12.498
55028W        W23358   6.336  33.097   0.442
55029W        W23359  39.455  19.067  13.525
55030W        W23360  20.099  11.658  10.423
55031W        W23361  32.905  29.653   2.398
55032W        W23362   0.376  32.022   0.762
55033W        W23363  39.062  13.157   1.875
55034W        W23364   2.750   7.385   3.174
55035W        W23365  32.133  13.143  11.474
55036W        W23366   7.849  34.480   4.669
55037W        W23367  19.169  35.886   1.306
55038W        W23368   6.728   7.315   2.773
55039W        W23369  34.550  44.959   0.425
55040W        W23370   4.729  43.329   4.176
55041W        W23371  22.644   6.259  14.348
55042W        W23372  27.644   1.479   2.699
55043W        W23373  10.208  43.021  13.380
55044W        W23374  34.938  15.787   1.845
55045W        W23375  30.539  42.331   2.294
55046W        W23376  23.603   8.161  13.858
55047W        W23377  14.708  39.508  10.472
55048W        W23378  28.124  20.557   0.280
55049W        W23379   2.757  27.620  12.543
55050W        W23380   6.304  29.553   1.853
55051W        W23381  25.031  37.848   2.311
55052W        W23382  16.284   5.270  12.965
55053W        W23383  23.669  18.258  14.493
55054W        W23384  39.560  38.569   1.388
55055W        W23385  39.039  14.277   0.867
55056W        W23386  29.139  20.530   3.326
55057W        W23387   5.334   3.800  12.021
55058W        W23388  36.004  26.651  12.514
55059W        W23389  11.773   3.408   0.458
55060W        W23390  16.791  38.452   1.357
55061W        W23391  16.647   9.244  14.866
55062W        W23392  26.585  37.996  13.824
55063W        W23393  25.584  31.639  11.999
55064W        W23394  30.040  43.887  14.768
55065W        W23395  16.772  17.690  13.470
55066W        W23396   9.888  14.276   3.374
55067W        W23397  16.107  22.744  13.446
55068W        W23398  43.424  24.563   3.795
55069W        W23399   6.214  33.405   0.939
55070W        W23400  30.980  40.408  14.969
55071W        W23401  18.780  13.118  12.504
55072W        W23402  41.365  19.595  13.458
55073W        W23403  37.069  12.793  12.827
55074W        W23404  37.381  11.158   3.185
55075W        W23405  21.598   7.669  10.627
55076W        W23406  11.800  40.830  13.049
55077W        W23407   5.437  44.903  11.607
55078W        W23408   5.841  19.648   2.789
55079W        W23409   4.853  37.907  11.498
55080W        W23410  11.645  42.525  14.422
55081W        W23411  37.465  43.825  14.015
55082W        W23412  12.801  34.968   3.729
55083W        W23413   1.866  35.366   3.247
55084W        W23414  33.121  41.380  10.894
55085W        W23415  35.022   8.170   1.777
55086W        W23416   2.761  26.555  12.881
55087W        W23417  32.445  26.689   2.788
55088W        W23418   3.443  19.159   1.260
55089W        W23419  15.085  13.267  10.507
55090W        W23420  31.468   2.412  12.897
55091W        W23421  44.952  10.779  11.549
55092W        W23422  19.280   3.456   2.413
55093W        W23423  36.915  13.276  14.338
55094W        W23424  25.113   5.800   3.816
55095W        W23425  26.683  42.864  10.912
55096W        W23426  33.087  33.976   4.346
55097W        W23427  12.165  23.116  14.477
55098W        W23428  30.910   0.782   5.206
55099W        W23429   7.780  23.141  12.354
55100W        W23430  29.023  40.900  12.090
55101W        W23431  18.603  15.653   3.721
55102W        W23432  44.957  13.661  11.098
55103W        W23433  10.351  21.700  10.888
55104W        W23434   9.706  26.566   4.354
55105W        W23435  44.391   4.216   3.302
55106W        W23436   0.350  32.944   3.292
55107W        W23437  41.448  41.446   2.863
55108W        W23438   0.838  36.499   4.690
55109W        W23439  18.588  14.784  14.513
55110W        W23440   1.268  41.853  11.865
55111W        W23441  38.480  33.502   1.851
55112W        W23442  28.112  37.883   1.783
55113W        W23443  10.818  13.639  14.457
55114W        W23444  27.683  28.462  10.404
55115W        W23445   2.791  43.961   1.837
55116W        W23446  40.522   5.246  14.462
55117W        W23447  18.088  25.038   3.193
55118W        W23448  37.976  23.518   0.945
55119W        W23449  24.156  31.613  12.483
55120W        W23450  22.104   8.215  11.095
55121W        W23451  26.655  18.090   0.833
55122W        W23452  31.005  15.780  10.068
55123W        W23453   2.859   1.276   2.389
55124W        W23454   2.468  14.641   0.924
55125W        W23455  36.352  11.356   3.238
55126W        W23456  10.213  40.427  11.118
55127W        W23457  24.647  42.819   3.277
55128W        W23458   7.908  17.135  11.956
55129W        W23459   2.840  37.834  13.470
55130W        W23460  11.755  31.999  14.773
55131W        W23461  13.246  16.112  14.439
55132W        W23462  29.006   4.281   2.314
55133W        W23463  40.016  36.418  11.047
55134W        W23464  34.925  27.190   2.671
55135W        W23465  24.131  32.127   1.345
55136W        W23466  28.959  15.816  14.881
55137W        W23467  18.609   1.856  14.364
55138W        W23468   1.402  21.244  10.947
55139W        W23469  39.318  43.996  13.969
55140W        W23470   4.712  24.201  10.910
55141W        W23471  26.537   7.222   3.632
55142W        W23472  44.008  32.489   1.753
55143W        W23473  28.667  13.692  12.888
55144W        W23474  20.172  12.336  14.477
55145W        W23475  27.541  14.722   0.731
55146W        W23476   9.682   5.231  12.035
55147W        W23477   3.861   0.402  13.924
55148W        W23478  23.187  44.328  13.530
55149W        W23479   0.918  15.109  11.021
55150W        W23480  27.638  13.615  10.478
55151W        W23481  15.709   9.246   2.359
55152W        W23482  13.238  38.945  14.408
55153W        W23483  29.638  26.060   2.323
55154W        W23484  39.869  33.079  12.847
55155W        W23485   2.305  17.088   1.896
55156W        W23486  35.068  37.075  14.381
55157W        W23487  34.481  32.912   1.864
55158W        W23488   9.274  29.974   3.306
55159W        W23489  22.244  25.561   0.871
55160W        W23490  13.190  33.005  12.085
55161W        W23491  10.767   6.922   2.300
55162W        W23492  29.920  11.659   3.813
55163W        W23493  21.158  38.862  13.855
55164W        W23494  34.078  25.608   1.297
55165W        W23495  43.292  34.907  12.558
55166W        W23496  25.068   2.443   3.317
55167W        W23497  10.380   5.756   1.427
55168W        W23498  43.984  38.906  11.612
55169W        W23499  37.476  44.959  14.501
55170W        W23500  14.817  25.097  14.364
55171W        W23501   4.255  35.990  11.591
55172W        W23502  16.643  20.252   4.653
55173W        W23503  24.101  29.530   2.239
55174W        W23504  22.702  42.326   1.421
55175W        W23505  24.485   4.774  13.841
55176W        W23506  37.037  41.966   2.702
55177W        W23507  33.544  16.209   0.870
55178W        W23508   9.327  24.119  12.957
55179W        W23509   5.840  19.158   4.127
55180W        W23510  14.794   7.826  10.889
55181W        W23511  17.107   7.698   0.900
55182W        W23512  28.530  28.435  11.392
55183W        W23513  44.846   5.921   2.372
55184W        W23514  37.914   9.654   1.713
55185W        W23515  17.105  18.193  14.901
55186W        W23516  42.778  29.013   4.227
55187W        W23517  18.694  24.103   3.741
55188W        W23518  37.481   8.291   1.255
55189W        W23519  12.241  15.113   3.371
55190W        W23520  18.185  10.373   4.234
55191W        W23521   2.270  42.388  11.108
55192W        W23522  37.056  30.101  13.914
55193W        W23523  35.598  21.571  12.573
55194W        W23524  30.575   9.824   1.911
55195W        W23525  22.245  29.641   4.159
55196W        W23526  30.437   8.291   2.235
55197W        W23527   6.250  28.960   2.407
55198W        W23528   4.742  14.200   4.125
55199W        W23529   7.752   4.941   0.453
55200W        W23530  14.174  43.384  11.375
55201W        W23531  34.520   0.843   3.676
55202W        W23532  34.382  44.353   0.351
55203W        W23533   7.372  26.124  13.482
55204W        W23534  37.351  19.189  14.382
55205W        W23535  42.815  41.472   3.691
55206W        W23536  40.513  22.672   1.715
55207W        W23537  38.437   4.899   3.680
55208W        W23538  13.621   8.369  14.784
55209W        W23539   9.362   3.227  13.904
55210W        W23540   9.224  23.124  14.443
55211W        W23541  11.213  26.198   2.746
55212W        W23542  28.063  37.944  12.901
55213W        W23543  23.056  20.715  11.914
55214W        W23544  25.048   6.344   0.405
55215W        W23545  38.472  37.866   4.301
55216W        W23546  28.101  11.363  13.912
55217W        W23547  16.312   5.881  11.414
55218W        W23548   2.225   5.236   1.785
55219W        W23549  27.941  24.566   2.216
55220W        W23550  23.194  22.137  14.416
55221W        W23551  32.984  31.990   4.619
55222W        W23552  43.776  15.674   2.847
55223W        W23553  17.204   9.263  12.352
55224W        W23554  12.290  14.235  13.346
55225W        W23555  13.795  34.485  11.386
55226W        W23556  42.488  31.058   1.917
55227W        W23557  23.069  27.013  11.074
55228W        W23558  37.843  43.998  14.848
55229W        W23559  18.622  43.814   2.297
55230W        W23560   4.232  31.436  14.990
55231W        W23561  42.323   2.934   4.283
55232W        W23562   1.333  20.199  12.432
55233W        W23563  43.009   7.335  10.160
55234W        W23564  17.628  23.994  13.879
55235W        W23565  27.028  31.083  13.036
55236W        W23566  40.466  37.951   0.767
55237W        W23567   0.810  19.177  13.341
55238W        W23568   6.208  42.481   0.312
55239W        W23569  23.625  44.985  14.889
55240W        W23570  14.757  27.488  14.378
55241W        W23571  21.065  30.998   5.303
55242W        W23572  10.816  37.961  12.020
55243W        W23573   2.239  12.688  13.468
55244W        W23574  44.948  43.870   2.386
55245W        W23575  40.352  38.936  10.586
55246W        W23576  12.675  19.652   4.241
55247W        W23577  31.448  22.191   1.448
55248W        W23578  13.212  24.214   2.813
55249W        W23579  23.522  24.610  13.481
55250W        W23580  32.543  20.240  12.456
55251W        W23581  44.372   2.450  11.068
55252W        W23582  42.953  14.829  13.330
55253W        W23583  23.698  16.809  14.401
55254W        W23584  28.553  12.188   4.210
55255W        W23585  24.046   0.432   1.702
55256W        W23586   0.320  25.556   1.302
55257W        W23587  36.984  17.729   1.742
55258W        W23588  27.586  31.437   2.203
55259W        W23589  16.198  37.936   2.757
55260W        W23590  28.984  28.525  10.468
55261W        W23591  40.915  25.120  10.958
55262W        W23592  10.848  24.589  10.962
55263W        W23593  44.447  10.863  11.958
55264W        W23594   9.362  20.094  11.117
55265W        W23595   1.457  27.501  10.535
55266W        W23596   8.814  31.065  13.400
55267W        W23597  35.422   3.290  12.976
55268W        W23598  11.681  28.535  13.880
55269W        W23599  21.255  43.310   4.188
55270W        W23600   7.396  12.786   0.949
55271W        W23601  39.856  17.213  12.893
55272W        W23602  36.093  44.362   2.838
55273W        W23603  38.994  36.953  10.137
55274W        W23604  22.704  15.662  11.492
55275W        W23605  18.588  26.990  11.462
55276W        W23606  35.471  22.650   4.287
55277W        W23607   4.241  14.647   2.883
55278W        W23608  28.160  18.663  14.960
55279W        W23609   2.356  19.566  12.848
55280W        W23610  19.127  18.732  10.027
55281W        W23611  20.581  32.062   1.446
55282W        W23612   7.756  44.884   4.134
55283W        W23613  38.562   7.367  11.556
55284W        W23614   1.460  34.489  11.056
55285W        W23615   7.900  18.193   3.862
55286W        W23616  33.997  14.158  10.490
55287W        W23617  17.684   7.891  12.436
55288W        W23618  18.137   2.936  12.841
55289W        W23619  30.945  44.831  12.574
55290W        W23620  33.987  10.375   1.867
55291W        W23621   2.840  39.355  11.563
55292W        W23622   5.934  29.593  11.014
55293W        W23623   6.413  44.267   5.319
55294W        W23624  17.120  27.569  11.579
55295W        W23625  15.637  43.897  13.459
55296W        W23626  31.017  36.548   3.325
55297W        W23627  41.999   5.737   4.718
55298W        W23628  31.050   4.735  11.994
55299W        W23629  14.801  33.003   2.829
55300W        W23630  34.414   6.280  13.545
55301W        W23631  19.063  11.721   1.821
55302W        W23632  18.069   6.301  12.826
55303W        W23633  21.536  39.873   4.336
55304W        W23634   8.669  33.943  13.436
55305W        W23635   8.399  42.355  10.917
55306W        W23636  17.233  43.309  11.596
55307W        W23637  32.036   2.758  10.550
55308W        W23638   1.295  25.211   1.432
55309W        W23639  27.188   7.178   2.400
55310W        W23640   5.782  41.034   2.865
55311W        W23641  19.206  14.789  14.503
55312W        W23642   1.959  28.057  13.003
55313W        W23643  28.573  19.256  10.442
55314W        W23644  42.362  29.139   2.723
55315W        W23645  42.522   5.208   4.260
55316W        W23646  43.789  12.359   1.245
55317W        W23647  43.810  38.884   0.866
55318W        W23648  23.111  16.585  13.361
55319W        W23649  10.752  28.967  14.280
55320W        W23650  42.523  42.012  13.996
55321W        W23651   6.891  12.683  11.876
55322W        W23652  33.099  29.080   1.340
55323W        W23653   3.824  22.537  13.545
55324W        W23654  40.968  14.679  13.967
55325W        W23655   6.721  38.917  13.987
55326W        W23656   4.294  27.522  12.852
55327W        W23657  36.359  19.191   3.739
55328W        W23658  18.637  38.044   2.847
55329W        W23659   7.911   6.311  11.582
55330W        W23660  10.266  44.912  12.370
55331W        W23661  26.695  10.796   2.774
55332W        W23662   0.344   5.793  14.804
55333W        W23663  40.336  40.996   3.683
55334W        W23664  36.512  14.594  11.878
55335W        W23665  30.103   2.760  12.556
55336W        W23666  26.614  28.929  12.925
55337W        W23667  29.507  38.837  10.089
55338W        W23668   6.845  44.322  12.494
55339W        W23669   7.685  17.699  11.905
55340W        W23670  24.125  11.148   4.728
55341W        W23671   8.174  24.561  12.530
55342W        W23672   5.794  17.784  11.011
55343W        W23673  19.574  31.051  10.630
55344W        W23674  40.946  16.594   2.882
55345W        W23675  39.337  23.017   2.244
55346W        W23676  11.251   4.281   0.413
55347W        W23677   0.964  31.515  11.987
55348W        W23678   7.843  21.201   0.885
55349W        W23679  21.155  11.136  13.993
55350W        W23680  15.597  31.914  13.527
55351W        W23681   5.321   6.716  11.480
55352W        W23682  33.033   0.396  10.425
55353W        W23683  37.975   3.385  10.000
55354W        W23684   6.205  43.781  10.100
55355W        W23685  14.800  24.223   3.314
55356W        W23686  43.343  16.778  12.355
55357W        W23687  14.791  20.702  13.805
55358W        W23688  35.585  14.633  13.895
55359W        W23689  18.731  32.408   2.243
55360W        W23690  20.547  38.413   3.361
55361W        W23691  29.066  36.536  14.372
55362W        W23692  30.604  31.565   4.819
55363W        W23693   8.352  18.237  10.640
55364W        W23694   0.362  38.903   1.739
55365W        W23695   1.908  11.856   4.703
55366W        W23696   7.367  40.491   3.638
55367W        W23697  31.530  17.287   0.260
55368W        W23698  13.602  15.156  12.864
55369W        W23699   9.807   7.750  14.505
55370W        W23700  42.399  16.690   4.676
55371W        W23701  30.947  17.151   1.312
55372W        W23702  35.474  12.781   1.326
55373W        W23703   0.873   1.845  13.009
55374W        W23704  19.142  42.839  11.472
55375W        W23705  28.532  42.410  14.865
55376W        W23706   1.268  32.908  12.072
55377W        W23707   0.364  11.353  12.988
55378W        W23708  20.060  11.749   2.306
55379W        W23709  36.028  25.615   0.330
55380W        W23710  26.674  41.999   3.321
55381W        W23711  10.670   3.326   5.191
55382W        W23712   7.797   0.831  13.333
55383W        W23713  31.080  14.710   0.857
55384W        W23714  23.080  18.642   0.387
55385W        W23715   7.247  42.009   4.348
55386W        W23716  26.165   9.705   2.667
55387W        W23717  19.635  12.650  13.952
55388W        W23718   7.728  20.206   4.641
55389W        W23719  26.552  36.847   1.735
55390W        W23720  27.499   0.953  14.380
55391W        W23721  14.797  17.187   2.868
55392W        W23722   7.265   9.343  10.939
55393W        W23723  35.435  38.554  10.952
55394W        W23724  23.020  10.806   1.263
55395W        W23725  24.066   8.206   1.259
55396W        W23726  38.906  42.843  13.013
55397W        W23727  10.637  13.322   3.820
55398W        W23728  33.927   4.895  13.964
55399W        W23729  15.265  32.036   1.406
55400W        W23730  24.037   8.161   4.337
55401W        W23731  28.943  41.306   4.753
55402W        W23732  41.316  16.169  12.946
55403W        W23733   2.764  17.651  11.496
55404W        W23734   5.397  38.377  14.961
55405W        W23735   1.384  37.539  12.426
55406W        W23736  17.300  29.533   1.439
55407W        W23737  38.919  22.555   3.755
55408W        W23738   3.249  25.541   0.884
55409W        W23739  42.844  16.790   9.962
55410W        W23740  13.188  12.611  11.052
55411W        W23741   2.387  20.150  12.904
55412W        W23742  44.339  32.517   0.268
55413W        W23743  36.529  27.986   2.730
55414W        W23744  16.137  33.897   3.762
55415W        W23745  18.066   0.463  12.571
55416W        W23746   1.924  18.216   1.852
55417W        W23747  17.707  35.563   9.966
55418W        W23748   5.210  32.582   3.643
55419W        W23749   0.318  19.701  11.455
55420W        W23750  25.067  42.981  13.394
55421W        W23751  25.119  36.479   2.681
55422W        W23752  34.557  25.154  14.762
55423W        W23753  14.216   2.735  10.976
55424W        W23754  44.415   4.868  10.514
55425W        W23755  33.087  26.044   4.196
55426W        W23756  25.549  20.717   4.668
55427W        W23757  11.191   4.877  11.881
55428W        W23758  19.141  31.490   4.806
55429W        W23759  37.021  26.157   1.345
55430W        W23760   1.453  19.090   1.821
55431W        W23761  34.076  21.539  11.039
55432W        W23762   9.818   9.242   0.905
55433W        W23763  31.126  16.241   0.911
55434W        W23764   1.884   9.178  13.982
55435W        W23765  35.897  20.200  12.491
55436W        W23766  33.473  31.482   3.194
55437W        W23767  12.644  11.762   3.284
55438W        W23768   4.363  29.590  14.948
55439W        W23769  21.653   1.958  13.402
55440W        W23770  26.122  44.373  14.471
55441W        W23771   1.792  11.864  13.011
55442W        W23772  12.191  41.019   0.914
55443W        W23773  27.648  13.719   4.734
55444W        W23774  13.293  34.987   1.899
55445W        W23775  22.660  20.564   2.729
55446W        W23776  31.519  23.575  11.114
55447W        W23777  27.549  27.046  12.502
55448W        W23778  27.636  29.622  14.871
55449W        W23779  41.463  22.572  12.043
55450W        W23780   5.781  22.534  11.473
55451W        W23781   2.829   7.797   4.742
55452W        W23782   1.824  30.980  11.033
55453W        W23783  20.242  17.666  10.462
55454W        W23784  25.069   8.849   0.367
55455W        W23785  14.629   4.303   4.113
55456W        W23786  26.461  23.563   3.797
55457W        W23787   7.296  32.512  10.464
55458W        W23788  30.022  18.065   1.856
55459W        W23789   2.757  37.950  13.975
55460W        W23790  19.533   7.719  14.408
55461W        W23791  29.972  33.073  11.489
55462W        W23792   7.178  28.162   3.165
55463W        W23793  40.347  17.558   4.290
55464W        W23794  40.830  18.230   2.231
55465W        W23795  30.083  11.729  12.074
55466W        W23796  29.922  38.072   1.257
55467W        W23797  38.046  12.279   0.765
55468W        W23798  18.691   7.720  14.982
55469W        W23799  19.645   8.311   9.990
55470W        W23800  22.073   1.771  14.013
55471W        W23801  32.402  41.460  14.457
55472W        W23802  10.743  24.695  12.899
55473W        W23803  36.984   2.742   0.469
55474W        W23804  29.048   1.965  10.414
55475W        W23805  40.818   5.426  13.394
55476W        W23806  13.775   5.758   4.618
55477W        W23807  28.024  39.520   1.313
55478W        W23808  17.774  16.719   1.848
55479W        W23809  42.857  31.991  11.969
55480W        W23810  16.167  37.990   2.381
55481W        W23811  20.032   1.319  10.904
55482W        W23812  16.223  23.085  14.452
55483W        W23813  11.340  21.650  13.042
55484W        W23814  27.999  42.383   4.129
55485W        W23815  21.750  28.007  12.060
55486W        W23816  24.090  33.898   2.255
55487W        W23817   6.759  20.260  12.450
55488W        W23818   7.873  44.470   2.356
55489W        W23819  31.534   3.713  14.304
55490W        W23820  18.145  43.513  13.488
55491W        W23821  38.998  38.385   1.853
55492W        W23822  16.652   3.781   0.946
55493W        W23823   5.700  15.308  12.544
55494W        W23824  18.680  25.025  10.534
55495W        W23825  12.837  26.664   3.717
55496W        W23826  32.015  14.639  11.457
55497W        W23827  24.010  24.101   2.218
55498W        W23828   4.839  23.507   0.883
55499W        W23829  10.664  34.371  13.055
55500W        W23830  13.704  22.531  12.066
55501W        W23831  14.282  20.226  11.611
55502W        W23832  40.807  21.603  14.431
55503W        W23833  28.515  31.625   4.333
55504W        W23834  13.165  20.037  10.480
55505W        W23835  13.810  11.245   3.677
55506W        W23836   0.754  38.549  14.349
55507W        W23837  27.071   7.266  12.875
55508W        W23838  12.774  30.108   1.767
55509W        W23839   6.373  14.782   1.735
55510W        W23840  42.908  19.596   1.737
55511W        W23841  11.768   1.362  13.533
55512W        W23842  43.305  25.213  10.521
55513W        W23843  21.551  11.315   4.818
55514W        W23844  39.823  38.403  12.877
55515W        W23845  13.680  27.190  12.071
55516W        W23846  30.598   1.749   0.959
55517W        W23847  38.027  22.675   1.281
55518W        W23848  32.929  33.621   4.693
55519W        W23849   4.344  36.355   5.805
55520W        W23850  35.372  28.494   4.137
55521W        W23851   5.697  43.437   4.716
55522W        W23852  37.522   2.736  14.367
55523W        W23853  43.808  41.334   1.701
55524W        W23854  30.437  21.620   3.806
55525W        W23855  35.864  36.588  14.022
55526W        W23856  13.290  39.039   0.307
55527W        W23857   4.386  40.047   2.698
55528W        W23858  15.787   3.450  11.388
55529W        W23859  41.895  10.235  12.057
55530W        W23860  25.203  15.196  11.563
55531W        W23861   3.903  27.661  13.882
55532W        W23862  36.092  22.511   0.353
55533W        W23863  40.356  33.982   2.711
55534W        W23864  25.043  24.692  14.887
55535W        W23865  19.665  22.592   2.664
55536W        W23866  28.598  14.168  12.349
55537W        W23867  13.276  42.786  13.839
55538W        W23868  41.472  20.220   1.283
55539W        W23869  12.326  27.648  10.517
55540W        W23870  25.017  26.592   1.743
55541W        W23871  43.900  19.629  12.833
55542W        W23872  44.293   5.262   0.919
55543W        W23873  14.268   4.719  13.538
55544W        W23874  15.093  31.153   0.377
55545W        W23875  26.520   4.728  11.965
55546W        W23876  19.554  21.569  11.092
55547W        W23877  17.069  32.992   2.843
55548W        W23878  27.642  39.028   0.757
55549W        W23879  40.449  11.149  10.565
55550W        W23880  42.300  21.182  12.353
55551W        W23881  30.056  41.479  12.507
55552W        W23882  22.704  16.767  13.999
55553W        W23883  42.393  40.911   1.386
55554W        W23884  19.648   1.752  13.989
55555W        W23885   6.683  27.648   0.841
55556W        W23886   1.751  37.453  13.881
55557W        W23887  43.957  35.012  12.833
55558W        W23888  40.435  23.997   0.410
55559W        W23889  25.650  35.003   1.430
55560W        W23890   6.202   5.755  13.847
55561W        W23891   2.458  17.616  12.893
55562W        W23892  40.311  22.177  12.495
55563W        W23893  36.399  42.838   1.444
55564W        W23894  36.964  23.001  13.018
55565W        W23895   9.204  11.785  14.868
55566W        W23896  39.542  41.041   2.761
55567W        W23897   7.698  12.771  12.943
55568W        W23898   1.788  31.114  10.469
55569W        W23899  15.300  41.030  11.577
55570W        W23900  17.195  40.329   4.776
55571W        W23901  17.138   0.490  10.890
55572W        W23902   7.814   7.876  14.811
55573W        W23903  12.794  33.521   0.822
55574W        W23904  23.666   7.415  13.824
55575W        W23905   1.300  16.176  11.423
55576W        W23906  35.924  29.134   0.382
55577W        W23907  37.426  16.289   0.809
55578W        W23908   2.293  12.245   1.244
55579W        W23909   2.284  33.593   4.649
55580W        W23910  11.755  30.550  12.876
55581W        W23911  13.279  20.627   2.679
55582W        W23912  22.175   9.295  13.431
55583W        W23913  29.991  26.570  14.455
55584W        W23914  23.591  13.235   3.283
55585W        W23915  16.585   8.708   2.342
55586W        W23916  14.218  36.347   5.283
55587W        W23917  43.964  26.546  12.909
55588W        W23918  43.795   0.878  12.987
55589W        W23919  24.557  36.424  11.050
55590W        W23920   6.396  12.192  12.901
55591W        W23921  34.441  21.647   0.937
55592W        W23922  24.105   3.812  10.439
55593W        W23923   0.338  29.987   3.833
55594W        W23924  24.189  30.613  12.345
55595W        W23925  32.977   4.854  12.501
55596W        W23926  10.774  10.196   1.371
55597W        W23927  34.103   4.752  12.567
55598W        W23928  24.047  44.890  13.360
55599W        W23929  41.896  41.852  14.357
55600W        W23930  14.130  37.042   4.343
55601W        W23931  36.588   0.339   4.319
55602W        W23932  43.334   9.658   1.404
55603W        W23933  11.769  35.070  11.520
55604W        W23934  28.643  32.113   1.850
55605W        W23935  23.597  39.528  12.568
55606W        W23936  38.447  38.056   3.245
55607W        W23937  20.708  15.300   3.197
55608W        W23938  36.519   7.250   1.721
55609W        W23939  40.014  24.575  14.491
55610W        W23940  14.737  40.421  11.588
55611W        W23941   6.409   2.283   1.414
55612W        W23942   1.358  36.568   1.269
55613W        W23943  38.016  33.509   4.307
55614W        W23944  37.980  10.288  11.454
55615W        W23945  16.117  17.084  11.503
55616W        W23946  41.375  10.382   5.270
55617W        W23947   5.302   1.409  14.993
55618W        W23948  25.700  26.071  11.553
55619W        W23949  17.704   3.729   2.860
55620W        W23950  38.850  40.423   5.297
55621W        W23951  27.536  40.939   1.375
55622W        W23952  15.579  42.326  13.960
55623W        W23953  44.482  15.782   2.793
55624W        W23954  14.132   6.908   4.341
55625W        W23955  20.249  13.823  10.453
55626W        W23956  17.696   4.860  14.288
55627W        W23957  31.516  37.920   1.227
55628W        W23958  40.434   3.915  14.467
55629W        W23959  41.376  25.140  14.310
55630W        W23960   6.377  34.376   0.751
55631W        W23961  26.185   1.792   4.702
55632W        W23962  19.746   8.183  14.980
55633W        W23963  25.561  25.543  13.530
55634W        W23964  26.075  17.614  13.374
55635W        W23965  27.527  23.621   4.645
55636W        W23966  16.132  42.018   0.360
55637W        W23967   1.748  19.231   4.816
55638W        W23968  20.624  12.771  10.488
55639W        W23969  25.065  21.639   2.286
55640W        W23970  16.146  30.040   0.447
55641W        W23971  36.350  32.399   4.661
55642W        W23972  43.295  31.128  10.529
55643W        W23973  22.162  17.597   9.964
55644W        W23974  13.844  31.985  14.785
55645W        W23975  37.501  42.282   4.329
55646W        W23976  37.025  40.498   1.377
55647W        W23977  16.272   8.851   0.732
55648W        W23978  37.947   9.324  12.985
55649W        W23979  42.001  20.116   0.810
55650W        W23980  33.495  40.030   4.607
55651W        W23981  10.317   5.360  12.970
55652W        W23982  38.348  23.049   1.326
55653W        W23983  39.910   6.860  13.811
55654W        W23984  28.097  19.617  12.436
55655W        W23985   2.748  14.754   2.764
55656W        W23986  43.411  34.923  11.455
55657W        W23987   5.792  11.346   4.346
55658W        W23988   1.302   4.390  12.960
55659W        W23989  21.264   8.800   0.482
55660W        W23990  38.454  36.542   3.221
55661W        W23991   1.921   4.387  10.598
55662W        W23992  18.157  42.002  10.429
55663W        W23993  38.564  12.812   4.687
55664W        W23994  30.487   9.778   3.727
55665W        W23995  24.099  28.556   4.780
55666W        W23996  34.088  12.666  13.354
55667W        W23997  34.419  12.324  12.448
55668W        W23998  31.081  40.982   3.161
55669W        W23999  16.724   0.892  14.306
55670W        W24000   2.228   6.921   1.880
55671W        W24001  42.440  28.520   2.415
55672W        W24002  30.076  12.675   2.728
55673W        W24003  43.303   8.236  14.507
55674W        W24004  30.461  28.550  14.482
55675W        W24005  37.958  37.884   3.313
55676W        W24006   1.247  34.470  14.465
55677W        W24007  34.008  29.586   1.812
55678W        W24008  35.546  36.064   1.904
55679W        W24009  12.769  13.826  14.453
55680W        W24010  31.121  42.802  13.031
55681W        W24011   8.368  22.085   0.852
55682W        W24012  42.823  44.461   2.775
55683W        W24013  20.558   1.789   2.746
55684W        W24014  30.551  31.114   4.193
55685W        W24015  41.402  23.734   3.746
55686W        W24016   7.779  27.989   4.696
55687W        W24017  29.099  25.671  11.521
55688W        W24018  30.156  16.232   3.718
55689W        W24019  43.390  14.829   3.836
55690W        W24020  36.504  24.182   2.349
55691W        W24021  13.600  40.464   3.659
55692W        W24022  43.910  35.926  11.528
55693W        W24023   9.326  39.499   1.402
55694W        W24024  24.670  37.498  14.485
55695W        W24025  21.757  21.166  14.313
55696W        W24026   2.274  38.929  12.942
55697W        W24027   1.822  28.554  11.490
55698W        W24028   5.330  22.016   0.316
55699W        W24029  32.583  10.192  10.963
55700W        W24030  12.839   7.171  12.389
55701W        W24031  35.494  13.672   1.848
55702W        W24032  20.242   4.398   3.327
55703W        W24033   0.946  37.404   1.449
55704W        W24034  28.939  30.161   1.384
55705W        W24035  38.379   8.187   5.161
55706W        W24036   9.257  15.182  10.996
55707W        W24037  35.495  16.644   2.678
55708W        W24038  27.678   5.286  13.846
55709W        W24039  34.081   5.359  10.605
55710W        W24040  25.977  38.067  12.031
55711W        W24041  30.114   9.269   1.330
55712W        W24042  36.402  40.868   4.213
55713W        W24043   3.925  33.925   2.666
55714W        W24044   3.903  44.292  12.983
55715W        W24045  31.423  42.299   2.689
55716W        W24046  13.202  20.733  13.886
55717W        W24047  16.586  26.051   3.714
55718W        W24048   1.849  10.867   0.962
55719W        W24049  33.961   9.697  14.795
55720W        W24050  35.948   9.208   5.110
55721W        W24051  15.579  21.742   4.324
55722W        W24052  15.311  13.136  11.916
55723W        W24053  43.271  14.323   3.329
55724W        W24054  19.262  38.498   4.308
55725W        W24055  12.291   0.305   1.407
55726W        W24056   4.387   0.808   0.418
55727W        W24057  31.948   7.719  12.406
55728W        W24058  23.568  37.840  12.027
55729W        W24059  39.026  43.300   0.464
55730W        W24060  36.075   4.388  13.805
55731W        W24061  24.724   2.323   0.934
55732W        W24062  10.723  13.601   1.747
55733W        W24063  44.284  40.316   3.352
55734W        W24064  20.086  14.644   4.171
55735W        W24065   6.302  29.939   1.431
55736W        W24066   6.894  15.605  14.844
55737W        W24067  23.695  13.677   1.873
55738W        W24068  36.034  28.932  14.494
55739W        W24069  32.896  21.750   2.776
55740W        W24070  25.626  44.294  11.386
55741W        W24071  41.897   7.320  11.065
55742W        W24072  33.023  42.939  14.384
55743W        W24073   6.347  26.478  10.538
55744W        W24074  34.103  42.844  14.915
55745W        W24075  28.670   9.220  10.504
55746W        W24076   0.839  22.557  10.064
55747W        W24077  28.948  14.160   2.287
55748W        W24078  27.535  33.409   2.666
55749W        W24079  22.602  23.120  12.478
55750W        W24080  38.893   7.357   4.235
55751W        W24081  31.427  32.442  10.437
55752W        W24082  33.581   6.413  14.337
55753W        W24083  44.815  24.038  13.377
55754W        W24084  43.486  32.093  11.893
55755W        W24085  27.187  26.114   0.318
55756W        W24086  17.069  16.258  11.598
55757W        W24087  34.118   7.408  11.044
55758W        W24088  16.716   7.719  11.578
55759W        W24089  10.735  40.035   4.607
55760W        W24090   8.183   3.436  13.810
55761W        W24091  37.512  27.576  12.096
55762W        W24092  30.926  25.025   4.290
55763W        W24093  16.226  16.283   4.327
55764W        W24094  21.525  39.482  12.967
55765W        W24095  17.217   2.723  10.573
55766W        W24096  31.647  18.091   1.244
55767W        W24097   4.384  18.620   3.755
55768W        W24098  14.265  17.660  11.457
55769W        W24099  21.665  26.047   4.609
55770W        W24100   3.788  21.028   3.262
55771W        W24101  31.597  31.908   2.728
55772W        W24102  43.471  24.676  10.585
55773W        W24103  42.779   9.695   0.400
55774W        W24104  43.836  35.940  13.374
55775W        W24105   8.807  38.974  14.967
55776W        W24106  19.099  23.723  13.342
55777W        W24107   2.746  44.861   4.209
55778W        W24108  29.155   7.680   1.418
55779W        W24109  38.901  41.903  13.472
55780W        W24110  19.620  38.902   3.385
55781W        W24111  21.163   4.316  12.038
55782W        W24112   8.305  25.559   1.772
55783W        W24113  20.255  37.433  14.401
55784W        W24114  23.130   5.406   2.755
55785W        W24115  41.501  14.225   2.342
55786W        W24116  36.018  41.854   4.203
55787W        W24117  38.987  40.816  14.300
55788W        W24118  21.088  44.753  12.516
55789W        W24119   4.427  41.497   3.819
55790W        W24120  22.682   3.920   0.781
55791W        W24121   6.274  39.408   3.210
55792W        W24122  12.624  14.284  11.564
55793W        W24123  37.338  21.079  10.491
55794W        W24124  39.929  24.225   4.248
55795W        W24125   8.341   5.732   3.269
55796W        W24126  43.880  27.632   3.308
55797W        W24127  37.446  23.616   3.792
55798W        W24128  26.050  25.571  12.400
55799W        W24129  15.789  32.471  13.411
55800W        W24130  27.486  13.696   1.860
55801W        W24131  40.393  35.594  12.001
55802W        W24132  32.103  26.002  14.979
55803W        W24133  42.335  21.586  14.434
55804W        W24134  20.100  16.154   1.272
55805W        W24135  19.724  27.522  11.933
55806W        W24136  14.771  33.933   2.857
55807W        W24137   7.280  35.385   3.239
55808W        W24138  40.015  12.674   2.664
55809W        W24139   2.939  27.108   2.845
55810W        W24140  16.799  21.045   3.722
55811W        W24141  44.501  35.367  12.468
55812W        W24142  22.095  17.260   2.267
55813W        W24143  33.587  11.774   5.117
55814W        W24144  19.713  18.254  11.080
55815W        W24145  12.164  17.594  10.969
55816W        W24146  10.755  39.414  11.902
55817W        W24147  42.472  27.569  14.338
55818W        W24148  21.750  16.308   1.752
55819W        W24149  43.022   5.416  11.438
55820W        W24150  26.566  12.319   5.189
55821W        W24151  34.408  35.049   0.927
55822W        W24152  22.670  43.803  14.013
55823W        W24153  31.418  33.884   0.908
55824W        W24154  35.061   5.762  14.785
55825W        W24155  42.434  42.505  11.484
55826W        W24156  11.865  19.538  13.451
55827W        W24157  18.231  42.500  10.549
55828W        W24158   8.298  28.601   0.329
55829W        W24159   6.788  35.966   3.341
55830W        W24160  34.978  14.643   0.435
55831W        W24161  36.579  44.981  12.966
55832W        W24162  30.420  39.059  14.958
55833W        W24163  18.639  14.285   2.400
55834W        W24164   8.212  16.098  13.407
55835W        W24165  43.468  37.952  13.466
55836W        W24166  14.190  26.488   2.206
55837W        W24167  24.992  16.618  13.443
55838W        W24168  35.594  36.515  11.580
55839W        W24169  37.540  26.173  10.945
55840W        W24170  44.471  34.421   2.734
55841W        W24171  18.576   1.827   3.245
55842W        W24172  34.537  12.679  14.513
55843W        W24173   6.834  20.634  10.597
55844W        W24174   8.351   6.732  11.961
55845W        W24175  16.757  27.146   2.330
55846W        W24176  34.494  12.194  11.581
55847W        W24177   9.280  20.633   3.764
55848W        W24178  18.583   0.808   0.408
55849W        W24179   7.370  37.972  14.429
55850W        W24180  17.638  18.573  11.484
55851W        W24181  13.605  42.306   3.271
55852W        W24182  21.578  23.059   2.744
55853W        W24183  25.623  44.964  14.883
55854W        W24184  12.236  23.044   3.663
55855W        W24185   8.702   9.708  12.467
55856W        W24186  35.927   3.905  14.301
55857W        W24187  20.060  25.103   3.343
55858W        W24188  39.403   7.903  12.387
55859W        W24189  16.797   8.402  11.406
55860W        W24190   5.878  27.161  10.430
55861W        W24191  28.615  26.956   3.366
55862W        W24192  21.749  16.136  12.563
55863W        W24193  16.770  40.849   1.447
55864W        W24194  40.371  44.305  10.504
55865W        W24195  10.776  42.420  11.902
55866W        W24196  22.201   4.319  12.890
55867W        W24197  35.037   1.886  11.562
55868W        W24198  10.872   8.254   4.728
55869W        W24199   2.871  19.275  14.900
55870W        W24200  11.804  13.246  12.923
55871W        W24201  10.664   7.828  11.378
55872W        W24202  44.445  16.244   3.870
55873W        W24203  30.063  23.050   0.403
55874W        W24204  42.381   7.819   3.294
55875W        W24205  19.687  21.660  14.945
55876W        W24206  42.941  35.925  13.014
55877W        W24207  11.800  14.102  11.898
55878W        W24208  19.244  14.302  12.507
55879W        W24209  32.107  26.009   2.199
55880W        W24210  44.428  42.962  13.319
55881W        W24211  20.730  28.441  10.014
55882W        W24212  14.646  43.345  14.387
55883W        W24213  14.701  18.296  10.612
55884W        W24214  28.948  37.424  10.423
55885W        W24215  18.672  21.526  13.896
55886W        W24216  15.677  41.927   4.670
55887W        W24217   3.888  42.509   0.461
55888W        W24218  20.145   9.353  14.984
55889W        W24219  16.759   7.805   2.235
55890W        W24220  17.775  33.113  10.978
55891W        W24221  40.524  12.207  10.416
55892W        W24222   4.305  40.867   0.963
55893W        W24223  39.055  36.437  12.930
55894W        W24224  44.767   1.361  12.973
55895W        W24225  31.955  23.118   1.704
55896W        W24226  31.937  19.591   3.818
55897W        W24227  11.251  26.512  10.455
55898W        W24228   9.318  13.681  12.503
55899W        W24229  31.903  27.167   1.909
55900W        W24230   5.350  44.329  11.602
55901W        W24231   7.752  13.652   3.719
55902W        W24232  44.287  36.509   1.836
55903W        W24233  29.662  14.628  12.940
55904W        W24234  29.452  40.476  11.493
55905W        W24235  15.235   6.761   1.884
55906W        W24236  29.648  13.277  13.529
55907W        W24237   9.854  44.761  14.491
55908W        W24238  23.045   8.738  13.335
55909W        W24239   8.359  39.541  13.986
55910W        W24240  34.881  28.051   4.302
55911W        W24241  39.820  40.339   4.755
55912W        W24242  14.646  22.687  10.477
55913W        W24243   6.793   0.360   3.761
55914W        W24244  17.736   1.820  11.964
55915W        W24245  20.587  26.163  13.322
55916W        W24246  14.829  21.540   2.678
55917W        W24247  37.997  44.957   0.863
55918W        W24248  39.822   9.709   4.667
55919W        W24249  28.001  11.240   5.281
55920W        W24250  30.099  40.022   1.809
55921W        W24251  36.360   8.215   3.815
55922W        W24252  37.546  40.409  13.821
55923W        W24253  43.013  17.117   4.183
55924W        W24254  14.122  15.123   2.782
55925W        W24255  20.671  25.555  14.955
55926W        W24256  10.653  18.620  13.450
55927W        W24257  31.905  29.640  14.955
55928W        W24258  44.396  33.007   2.346
55929W        W24259  34.012  23.730   2.875
55930W        W24260  25.216  44.829  12.912
55931W        W24261   9.154  43.013  14.776
55932W        W24262   0.920  34.594  13.825
55933W        W24263  44.827  22.192   2.836
55934W        W24264  12.179  10.254   4.708
55935W        W24265   7.796  23.552  11.577
55936W        W24266  31.987   4.924  11.503
55937W        W24267  18.055  37.385   3.815
55938W        W24268   7.834  39.027  14.417
55939W        W24269  23.010  24.022   4.782
55940W        W24270  15.745  42.305  12.070
55941W        W24271  23.117   3.748  12.541
55942W        W24272   9.875  33.023  12.956
55943W        W24273   4.425  39.934   3.147
55944W        W24274  28.134   6.301   4.162
55945W        W24275  30.967  28.104  13.047
55946W        W24276  22.572  28.475   0.834
55947W        W24277  17.153  25.152   4.734
55948W        W24278  38.392  17.078  11.405
55949W        W24279   1.448  35.488  10.586
55950W        W24280   3.262  25.123  11.604
55951W        W24281   5.302  17.098  10.409
55952W        W24282  17.140   1.260   2.894
55953W        W24283  19.142  20.262   1.408
55954W        W24284  39.406   4.850  14.814
55955W        W24285  35.930  43.461   0.341
55956W        W24286  33.499   9.749  13.410
55957W        W24287  13.346  18.712  11.090
55958W        W24288  12.723  14.645   1.309
55959W        W24289   3.385  10.276  10.939
55960W        W24290   9.827  42.425   3.265
55961W        W24291  30.599  18.755  10.520
55962W        W24292  33.897  30.927   1.912
55963W        W24293  28.036  15.246   1.730
55964W        W24294  36.505  29.609   3.793
55965W        W24295  38.928  37.433   3.762
55966W        W24296  18.210  44.963  11.492
55967W        W24297  26.071  20.599  13.926
55968W        W24298  18.737   9.300   0.315
55969W        W24299  15.791  29.485  14.792
55970W        W24300  12.710   0.762   1.795
55971W        W24301  19.616  16.619   2.283
55972W        W24302   0.888  13.627  12.418
55973W        W24303  17.078  38.514  12.418
55974W        W24304   3.759  17.278  13.368
55975W        W24305  16.581  23.708  11.894
55976W        W24306  39.352   6.720  13.446
55977W        W24307  42.445  39.977   4.214
55978W        W24308  37.348  35.381   0.837
55979W        W24309   3.402   6.830   2.733
55980W        W24310  22.699  36.055  13.812
55981W        W24311   0.370  37.437   2.676
55982W        W24312  36.053   9.218   2.312
55983W        W24313  22.207  16.149   1.855
55984W        W24314  21.254  31.554   5.675
55985W        W24315   9.379   3.862  12.021
55986W        W24316  24.584  22.703  12.931
55987W        W24317  34.050  33.989   0.401
55988W        W24318  28.106  21.558   0.874
55989W        W24319  23.541   7.208  12.366
55990W        W24320   1.438  32.942  11.045
55991W        W24321  26.014  25.121  10.430
55992W        W24322  42.335  31.403  14.952
55993W        W24323  23.153  31.132   5.784
55994W        W24324  19.063  44.272  12.434
55995W        W24325  14.306   2.378   3.235
55996W        W24326  19.125   8.235   2.243
55997W        W24327  16.691  23.515  12.458
55998W        W24328  25.677   3.831   0.406
55999W        W24329   0.311  44.369   4.732
56000W        W24330   2.366   5.268  13.885
56001W        W24331  20.768   4.710  14.386
56002W        W24332  26.470  40.812   1.240
56003W        W24333  43.322  33.906   0.365
56004W        W24334  27.146  27.535   0.359
56005W        W24335  23.046  31.491  14.349
56006W        W24336  20.633  35.004   4.678
56007W        W24337  16.605   7.313  13.522
56008W        W24338  28.040   3.783   3.656
56009W        W24339  41.964  35.066   0.941
56010W        W24340   4.731   7.844  11.472
56011W        W24341  40.507  10.188  11.048
56012W        W24342  12.818   2.936   2.397
56013W        W24343  25.591  28.118  12.478
56014W        W24344  37.571  39.010   5.242
56015W        W24345   7.821  24.067  11.448
56016W        W24346   1.804   3.913  10.434
56017W        W24347  25.975   3.941  13.805
56018W        W24348  43.784   3.277  14.908
56019W        W24349  44.294  12.648  14.761
56020W        W24350  42.975  15.726   0.278
56021W        W24351  41.987  35.448  12.988
56022W        W24352   1.978  31.415   0.832
56023W        W24353  21.143  15.130  14.410
56024W        W24354   1.317  21.037  10.441
56025W        W24355  43.829  25.656   0.351
56026W        W24356  28.652   2.793   3.323
56027W        W24357  37.886  13.157  14.299
56028W        W24358  14.610  31.973  14.480
56029W        W24359  40.481   8.750   4.639
56030W        W24360  16.705  13.155  12.027
56031W        W24361  20.222   5.341  13.473
56032W        W24362   1.751  18.741  13.442
56033W        W24363  37.511   3.731  11.999
56034W        W24364  21.153  28.637  14.420
56035W        W24365   7.792  35.530   2.178
56036W        W24366  35.452  40.997   0.959
56037W        W24367  25.974  19.600   3.322
56038W        W24368  22.014  31.501  14.936
56039W        W24369  10.329  40.858   4.188
56040W        W24370  38.550  23.002   2.201
56041W        W24371  19.704   9.343  12.832
56042W        W24372  41.793   0.276   2.315
56043W        W24373  16.211  21.752  11.503
56044W        W24374  34.080  40.517   3.812
56045W        W24375  23.589   0.406  13.438
56046W        W24376  25.547  39.024  14.791
56047W        W24377   7.282  33.402  11.512
56048W        W24378   3.391   4.882   3.146
56049W        W24379  11.269  39.977   0.780
56050W        W24380  40.307  18.217  13.872
56051W        W24381  35.523  17.139  13.484
56052W        W24382   5.868  29.112   1.834
56053W        W24383  12.297   0.907  10.414
56054W        W24384  40.346  13.231   2.326
56055W        W24385  26.978   3.222   1.881
56056W        W24386  11.147   8.683  12.830
56057W        W24387   8.882   0.862  14.398
56058W        W24388  38.828   1.885  11.859
56059W        W24389   4.301   0.339   0.733
56060W        W24390  41.019  16.605  13.458
56061W        W24391   9.862  23.651  12.386
56062W        W24392  32.566   2.467   1.265
56063W        W24393  35.968  39.365   4.630
56064W        W24394  30.655  28.131   2.378
56065W        W24395  28.061   7.313   0.440
56066W        W24396  17.183  30.655  12.369
56067W        W24397  21.531  20.658   1.706
56068W        W24398  31.634  20.603  13.487
56069W        W24399  40.382  34.416  11.423
56070W        W24400  21.579  44.933  13.463
56071W        W24401   6.713  19.084   4.336
56072W        W24402  44.938  44.296  12.486
56073W        W24403  44.424  42.842   0.907
56074W        W24404  12.273  29.623  12.375
56075W        W24405  44.297   3.271   5.081
56076W        W24406  27.534  29.487   4.253
56077W        W24407  42.419   3.918  12.351
56078W        W24408   1.429  26.060   2.899
56079W        W24409  26.082  12.243   5.139
56080W        W24410  32.067  20.044   2.784
56081W        W24411  43.516  40.400   1.290
56082W        W24412  41.503   6.372  14.514
56083W        W24413  23.653   1.423  12.505
56084W        W24414  32.896  20.655   4.642
56085W        W24415  15.747   1.818  11.383
56086W        W24416  31.141  23.996  12.382
56087W        W24417  37.047   0.858   3.196
56088W        W24418  24.699   3.255   3.643
56089W        W24419  41.982  29.426   3.267
56090W        W24420  33.385  43.406  10.988
56091W        W24421   6.357  42.396   2.363
56092W        W24422  25.585  35.407  12.026
56093W        W24423  21.722  24.149   1.364
56094W        W24424  23.601  20.582   4.755
56095W        W24425  36.371  44.858  11.906
56096W        W24426  40.544  24.660  10.629
56097W        W24427  38.872  44.908   2.277
56098W        W24428  14.649  34.114   4.799
56099W        W24429  39.815  38.888   1.934
56100W        W24430  30.074  29.634   2.765
56101W        W24431  17.635  21.729   1.273
56102W        W24432  44.450  34.439  14.770
56103W        W24433  41.474  28.018   5.194
56104W        W24434  24.159  44.828   1.317
56105W        W24435  30.010  35.891  12.825
56106W        W24436  11.253   8.768   2.203
56107W        W24437  44.326  19.712   3.815
56108W        W24438  44.448  13.699  11.384
56109W        W24439  10.349   4.936   5.268
56110W        W24440  10.687  13.782  10.908
56111W        W24441  37.551  23.179  13.016
56112W        W24442  17.584  16.210  10.610
56113W        W24443  14.264  17.569  13.031
56114W        W24444   6.845  17.252  10.044
56115W        W24445  40.965  33.448  11.988
56116W        W24446  40.973   2.828   2.775
56117W        W24447   6.375   0.893  12.517
56118W        W24448  32.138  44.411   3.869
56119W        W24449  22.182  34.019  10.459
56120W        W24450  37.372  35.869  11.421
56121W        W24451  18.654   1.474  13.859
56122W        W24452  15.780  26.115  11.124
56123W        W24453  12.227  21.687   0.348
56124W        W24454  42.977   7.327   4.701
56125W        W24455  14.711  15.085   2.233
56126W        W24456   1.894  11.248   4.778
56127W        W24457  32.011   5.812   4.119
56128W        W24458   7.848  28.121   2.766
56129W        W24459   5.340  20.191   2.220
56130W        W24460   1.732  14.767  12.486
56131W        W24461   8.834  37.924  14.466
56132W        W24462  29.542   4.735  12.019
56133W        W24463   9.692   0.776  11.097
56134W        W24464  38.056  40.405  14.799
56135W        W24465  44.972   4.942   1.340
56136W        W24466   8.753   2.302   4.690
56137W        W24467   6.241   2.858   0.795
56138W        W24468   6.723   7.196  10.990
56139W        W24469  22.192  33.977   2.322
56140W        W24470  31.418   5.429   4.238
56141W        W24471  32.472  31.567   2.715
56142W        W24472  37.440   8.746   1.917
56143W        W24473  16.628  24.190   3.178
56144W        W24474  26.091  32.537  14.284
56145W        W24475  13.180   9.771   0.477
56146W        W24476  24.145  13.154  11.953
56147W        W24477  34.108   7.216   1.353
56148W        W24478  19.643  37.494   4.714
56149W        W24479  23.691   7.309  13.359
56150W        W24480  20.529  34.510  12.834
56151W        W24481  42.886  27.542   1.729
56152W        W24482  19.167   2.750  14.936
56153W        W24483  37.384  17.588   3.801
56154W        W24484  40.313   0.409  12.828
56155W        W24485   4.812  17.666  13.935
56156W        W24486   3.299  14.134  12.076
56157W        W24487   3.846   2.854  10.624
56158W        W24488  33.501   6.837   4.165
56159W        W24489  29.169  19.551   2.277
56160W        W24490  18.251  43.878  14.818
56161W        W24491  11.158  32.978   4.175
56162W        W24492  29.596  14.319  10.007
56163W        W24493  40.931  32.504   3.357
56164W        W24494  10.353   5.275   2.897
56165W        W24495   7.172  16.722   2.247
56166W        W24496   8.842   6.753   1.241
56167W        W24497  31.994   2.309   0.475
56168W        W24498  18.566  12.324  12.895
56169W        W24499  21.743  23.146  12.983
56170W        W24500  41.405  16.637  11.393
56171W        W24501  24.222  21.572  13.954
56172W        W24502  35.877  16.304  12.488
56173W        W24503  31.102  20.155  12.358
56174W        W24504  15.710  39.903  12.967
56175W        W24505  13.716   8.205   2.302
56176W        W24506  26.643   8.401  12.462
56177W        W24507  39.995  39.846   2.772
56178W        W24508  38.936  21.077   2.739
56179W        W24509  10.311  32.922   3.378
56180W        W24510  42.804  40.050  13.885
56181W        W24511  11.776   1.889  10.096
56182W        W24512  35.056  23.560  11.903
56183W        W24513  23.149  21.168  12.988
56184W        W24514  19.157  28.168  14.493
56185W        W24515  22.725  29.509   2.231
56186W        W24516  28.985   6.264  11.464
56187W        W24517  33.117  18.725  13.846
56188W        W24518  43.773  19.751  14.885
56189W        W24519   7.843  34.930   2.272
56190W        W24520  18.080   3.771   1.264
56191W        W24521  40.495   6.359   9.458
56192W        W24522  32.142  30.476   4.815
56193W        W24523  39.437  29.480  11.032
56194W        W24524  44.487  34.942  14.479
56195W        W24525  28.516  43.017   4.621
56196W        W24526  28.145   2.335  14.314
56197W        W24527  36.500   5.898   2.178
56198W        W24528  17.198  26.668   5.274
56199W        W24529  33.383  30.913  13.920
56200W        W24530   0.250  36.015  14.466
56201W        W24531  41.797  23.160   4.300
56202W        W24532  30.096  18.585  13.905
56203W        W24533   1.310  11.157  12.465
56204W        W24534  10.238  13.672   1.742
56205W        W24535   7.200  44.924   1.715
56206W        W24536  23.694  43.372   2.202
56207W        W24537  16.169  18.739  13.505
56208W        W24538  14.319  33.593   0.789
56209W        W24539  11.837  29.522  11.404
56210W        W24540  19.163  44.926  11.591
56211W        W24541  10.231  11.807   1.925
56212W        W24542   0.949   2.801   0.825
56213W        W24543  30.979  31.501   4.185
56214W        W24544  16.120  40.461  13.541
56215W        W24545  32.097  18.595  11.024
56216W        W24546   4.315  12.765   4.198
56217W        W24547  38.906  29.481   4.189
56218W        W24548   9.332  33.942   4.181
56219W        W24549  22.242  36.587   0.885
56220W        W24550   9.698   4.361  11.081
56221W        W24551  28.548  38.371  10.496
56222W        W24552   7.272  31.906  13.455
56223W        W24553  39.488  25.085  12.029
56224W        W24554  14.340  17.076   1.411
56225W        W24555   3.277  42.376   0.758
56226W        W24556  26.014  26.052   2.885
56227W        W24557   0.956   5.789   3.193
56228W        W24558   4.883  24.566  11.116
56229W        W24559  12.232   0.434   4.114
56230W        W24560  33.613   8.224   2.399
56231W        W24561  22.550  28.057   1.252
56232W        W24562  27.941  29.565   4.285
56233W        W24563  42.845  11.695  13.458
56234W        W24564   5.870  33.419  12.850
56235W        W24565  29.450  26.625   4.232
56236W        W24566  14.306  27.149   1.746
56237W        W24567  13.192  23.710  11.998
56238W        W24568  42.842  32.967  10.053
56239W        W24569  28.611  25.074   2.356
56240W        W24570   2.805  31.907  12.568
56241W        W24571  16.145  43.380  11.598
56242W        W24572  39.326  19.608   2.335
56243W        W24573  18.217  16.115   0.281
56244W        W24574   8.208  21.534   1.285
56245W        W24575  25.611   9.284   4.749
56246W        W24576  11.777  25.642   0.345
56247W        W24577   2.725  12.790  10.970
56248W        W24578   9.289  31.007  10.477
56249W        W24579  13.645  17.672  13.387
56250W        W24580  15.269  26.630   1.739
56251W        W24581   7.827  11.194   2.185
56252W        W24582  13.713  10.736   2.795
56253W        W24583  15.092  28.440   4.226
56254W        W24584   0.477  29.063   3.179
56255W        W24585   4.867  12.203   4.624
56256W        W24586  28.521  39.010   0.907
56257W        W24587  34.877  41.458   3.267
56258W        W24588  32.621  44.386  10.093
56259W        W24589  36.474   0.953  10.542
56260W        W24590   1.917  35.366   4.114
56261W        W24591  25.570  14.680   0.764
56262W        W24592  26.165  35.956  10.516
56263W        W24593  18.768  31.644   1.431
56264W        W24594  40.959  23.099   3.643
56265W        W24595  33.532   9.370   1.877
56266W        W24596   0.960  22.133   1.278
56267W        W24597   8.287  44.451   1.372
56268W        W24598  34.394  18.558  11.439
56269W        W24599   8.846  30.995   4.658
56270W        W24600  12.233  39.945   0.403
56271W        W24601  41.432  38.945  10.983
56272W        W24602  21.204  27.615  11.077
56273W        W24603  35.930  17.606  11.475
56274W        W24604  16.765  30.927  14.278
56275W        W24605  29.144  32.082  14.433
56276W        W24606  20.707   3.237  10.628
56277W        W24607  27.125  10.697   4.312
56278W        W24608  21.023  11.195   3.244
56279W        W24609   7.383  28.172  11.550
56280W        W24610  39.967  41.357   2.772
56281W        W24611  37.836  40.313  12.373
56282W        W24612  27.955   8.227  11.900
56283W        W24613  28.528  27.186   0.458
56284W        W24614  21.539   3.280  13.840
56285W        W24615   0.449  36.867   0.436
56286W        W24616  10.285  28.010  14.286
56287W        W24617  36.057   5.743  12.915
56288W        W24618  15.222   7.285   2.327
56289W        W24619   6.256  10.338  13.884
56290W        W24620  18.562  20.619   3.257
56291W        W24621  30.485  16.752   4.225
56292W        W24622   6.349  28.151   1.409
56293W        W24623  36.449   9.279  14.959
56294W        W24624   1.471  24.154  13.473
56295W        W24625  15.248  17.232  13.357
56296W        W24626  35.425  24.687  12.353
56297W        W24627  11.271  12.782   0.873
56298W        W24628  33.011  25.632  10.929
56299W        W24629  40.341  26.982   4.304
56300W        W24630   2.805   4.431  11.543
56301W        W24631  27.535  25.486  11.598
56302W        W24632  39.527  10.263  13.517
56303W        W24633  39.340  13.794  11.035
56304W        W24634  11.704   9.271  14.776
56305W        W24635  38.033   5.366   2.705
56306W        W24636   6.717   6.762   2.882
56307W        W24637  25.575   6.383  14.320
56308W        W24638  22.608  42.437  12.058
56309W        W24639   7.188  24.167  12.960
56310W        W24640   0.860  37.469  11.980
56311W        W24641   9.272  15.093  12.021
56312W        W24642  40.845  18.083  12.909
56313W        W24643  23.493   3.218   0.755
56314W        W24644  32.022  37.033  10.123
56315W        W24645  30.491  22.722   3.318
56316W        W24646  17.065  13.109  10.919
56317W        W24647  25.655  41.512   1.712
56318W        W24648  19.736  40.404   3.697
56319W        W24649  19.076   1.966  10.901
56320W        W24650  37.525   0.354   1.864
56321W        W24651   9.351  15.111  13.999
56322W        W24652  10.730  43.881  14.340
56323W        W24653  36.385  27.536  11.438
56324W        W24654  11.306  18.054   1.346
56325W        W24655  12.255   3.826  12.913
56326W        W24656  40.935  13.829   4.826
56327W        W24657  36.930  44.275   4.806
56328W        W24658  40.947  40.487  13.843
56329W        W24659  32.981  32.566  12.994
56330W        W24660  35.945  26.098  11.400
56331W        W24661   6.422  10.649  11.908
56332W        W24662  11.707  13.129   3.662
56333W        W24663  41.019  19.673  10.906
56334W        W24664   4.375  28.055  12.455
56335W        W24665  12.211   4.246   1.315
56336W        W24666   6.922  43.924  14.338
56337W        W24667  28.672  36.903  11.372
56338W        W24668   9.703  33.956  11.934
56339W        W24669  14.277  35.414   3.784
56340W        W24670  42.458   6.713   2.385
56341W        W24671  13.336  42.862  12.578
56342W        W24672  11.778  31.141   0.278
56343W        W24673  21.685  34.562  13.413
56344W        W24674  38.049  39.825  10.626
56345W        W24675   8.296  41.320   3.340
56346W        W24676  29.667  29.130  14.968
56347W        W24677   8.740  44.460  14.793
56348W        W24678  33.028  31.425  13.338
56349W        W24679  41.529  13.645   4.326
56350W        W24680  14.296  23.157  13.962
56351W        W24681  22.121   4.730  12.449
56352W        W24682   8.858  37.533   2.791
56353W        W24683   5.908  11.235   4.641
56354W        W24684  29.453  10.318   1.241
56355W        W24685   0.826   0.259  14.988
56356W        W24686  10.261  12.284  13.432
56357W        W24687  17.287  16.619   3.383
56358W        W24688   1.859  35.414   2.849
56359W        W24689   9.395  42.385   4.735
56360W        W24690  12.143  32.505  13.503
56361W        W24691  24.509  20.735  14.390
56362W        W24692  30.944  12.736  13.898
56363W        W24693   8.698  27.182   4.114
56364W        W24694   8.829  35.972   2.709
56365W        W24695  40.486  12.230   4.606
56366W        W24696  22.021  43.276  14.842
56367W        W24697  26.606  10.654  12.513
56368W        W24698  12.332  14.636  10.946
56369W        W24699   5.702  33.919   2.326
56370W        W24700  44.893   1.246   3.213
56371W        W24701  30.061  35.494   3.333
56372W        W24702  22.546  36.062   0.390
56373W        W24703  32.540   2.758  11.507
56374W        W24704  31.135  20.683  10.456
56375W        W24705  26.191  24.622   0.380
56376W        W24706  36.015  25.206  13.431
56377W        W24707  41.981   4.823  11.433
56378W        W24708  13.253  39.825   1.793
56379W        W24709  42.795   0.250   0.802
56380W        W24710  38.473  28.080  12.833
56381W        W24711  36.566  30.100  10.595
56382W        W24712  27.570  16.084  12.011
56383W        W24713  21.654  26.693   0.745
56384W        W24714  37.909   8.680  13.874
56385W        W24715  14.208  30.948  12.042
56386W        W24716  19.636  14.124  12.382
56387W        W24717  15.253  42.814  11.581
56388W        W24718  39.000  36.518  12.395
56389W        W24719  43.811  28.546   3.199
56390W        W24720   3.753  43.985  11.515
56391W        W24721  35.947   2.398  13.803
56392W        W24722  32.119  24.998  13.876
56393W        W24723  12.156  44.977  12.908
56394W        W24724  30.592  16.312   4.176
56395W        W24725  41.975  15.710  14.428
56396W        W24726  18.673  32.123   3.669
56397W        W24727  16.570  13.645   3.757
56398W        W24728   6.886   1.830  14.999
56399W        W24729   5.861  16.773  11.477
56400W        W24730  40.050   2.432  14.016
56401W        W24731   5.912  33.905   2.752
56402W        W24732  34.384  20.541   3.742
56403W        W24733  40.489  40.424  10.915
56404W        W24734  18.790  34.470   2.849
56405W        W24735  11.649  19.578   1.871
56406W        W24736  13.117  41.010  10.621
56407W        W24737  18.204  23.520   1.445
56408W        W24738  29.549  19.544   0.778
56409W        W24739  19.660  10.302  10.973
56410W        W24740  35.892  37.854   4.341
56411W        W24741  44.467  16.208  13.914
56412W        W24742   6.382  39.931   2.807
56413W        W24743  40.900  25.965   4.229
56414W        W24744  26.972  22.512  10.472
56415W        W24745   6.184  41.292   2.715
56416W        W24746   2.909  32.425  14.300
56417W        W24747   7.244  25.476   1.742
56418W        W24748  26.479  23.192  12.406
56419W        W24749  11.783  36.586  12.013
56420W        W24750  44.822  24.199  10.987
56421W        W24751  22.166   7.278   3.630
56422W        W24752  40.359  40.957   1.903
56423W        W24753  28.093   3.345   3.345
56424W        W24754  30.939  15.614  14.792
56425W        W24755   5.244  42.431   4.627
56426W        W24756  38.016  41.941  11.010
56427W        W24757  19.099  11.786  13.848
56428W        W24758  13.233  27.113  14.813
56429W        W24759  35.536   7.673   2.416
56430W        W24760  44.946  14.620   2.279
56431W        W24761  15.195   5.713   2.749
56432W        W24762   5.807  34.034  13.395
56433W        W24763  44.927  20.694  13.889
56434W        W24764  25.507  28.593  10.468
56435W        W24765  25.608  17.208  10.096
56436W        W24766   3.217   8.804   0.258
56437W        W24767  35.457  15.093   3.326
56438W        W24768  34.940  42.445  14.279
56439W        W24769  37.086  34.383  11.396
56440W        W24770  38.476  17.230   2.220
56441W        W24771  11.866  11.684   1.335
56442W        W24772  12.164   2.773  10.573
56443W        W24773   1.348  38.957  13.050
56444W        W24774  42.017  39.328  12.093
56445W        W24775  33.987  14.123  11.129
56446W        W24776  43.366  31.151  11.125
56447W        W24777  10.155  41.336   5.172
56448W        W24778  41.460  37.495   2.876
56449W        W24779  10.783  26.563  14.897
56450W        W24780  12.671   0.776  13.831
56451W        W24781  29.507  36.347  12.961
56452W        W24782  42.908   0.363  12.929
56453W        W24783  22.041  41.487  11.439
56454W        W24784   0.430  33.496  13.879
56455W        W24785  35.556  19.755   0.961
56456W        W24786  43.470   8.898  12.526
56457W        W24787  21.579  13.217   2.293
56458W        W24788  37.567  19.671  12.843
56459W        W24789  21.028  10.675  13.872
56460W        W24790  19.682  19.747   1.432
56461W        W24791   3.398  34.955   1.915
56462W        W24792   6.763  37.437  10.997
56463W        W24793   2.400  10.682  14.302
56464W        W24794  15.197  31.103   3.211
56465W        W24795  19.773  11.666  11.471
56466W        W24796  25.000  34.373  12.907
56467W        W24797   0.313  11.748   0.829
56468W        W24798  10.348  31.601  13.051
56469W        W24799   3.852  29.496  12.974
56470W        W24800   7.910  23.672  13.818
56471W        W24801   6.894  25.649  11.027
56472W        W24802   1.793  31.417   1.840
56473W        W24803  43.825  28.574  12.501
56474W        W24804  26.973   1.288  13.460
56475W        W24805  39.431  21.202  10.989
56476W        W24806  21.637  12.352   4.246
56477W        W24807  41.931  18.172   1.821
56478W        W24808  20.730  23.644  14.984
56479W        W24809  10.370  24.983   2.235
56480W        W24810  26.528  15.167   1.212
56481W        W24811   9.820  31.495   3.348
56482W        W24812   5.437  10.787   3.689
56483W        W24813  31.535  16.634  11.393
56484W        W24814  40.028  18.593  10.509
56485W        W24815   1.899   1.480  14.935
56486W        W24816  20.168  24.101   0.481
56487W        W24817  19.098  15.181  13.934
56488W        W24818  35.581  11.838  13.937
56489W        W24819  20.180   0.865  12.916
56490W        W24820  43.270   5.753  12.340
56491W        W24821   3.327  27.498   2.218
56492W        W24822  27.484   7.908   1.832
56493W        W24823  31.045  43.317  14.828
56494W        W24824  13.824  41.414   4.150
56495W        W24825  13.350   7.300  10.488
56496W        W24826  42.916   8.732  12.449
56497W        W24827  16.122  30.163   0.839
56498W        W24828  25.572  40.011   3.227
56499W        W24829   5.379  23.114   4.334
56500W        W24830  43.982  17.771   3.754
56501W        W24831  17.797   4.898  14.950
56502W        W24832  22.139  25.205  13.929
56503W        W24833  24.702  18.565   4.343
56504W        W24834  23.155  39.397  11.462
56505W        W24835  16.097   2.945   3.692
56506W        W24836  26.461   4.245   1.404
56507W        W24837   5.702   5.387   3.215
56508W        W24838  20.662  42.984  12.969
56509W        W24839  43.472  11.273   3.280
56510W        W24840  23.041  17.577   0.323
56511W        W24841  37.376  20.198  13.990
56512W        W24842  44.807   1.805   0.351
56513W        W24843   4.853  31.047  14.343
56514W        W24844  40.888  11.733  13.308
56515W        W24845   0.436  13.621  12.577
56516W        W24846  11.212   9.317   2.408
56517W        W24847  31.538  28.454  13.976
56518W        W24848  36.355  24.684  12.422
56519W        W24849  11.271  23.182  12.066
56520W        W24850   4.889   6.380  11.566
56521W        W24851  20.125  12.279   1.854
56522W        W24852   9.738  20.546  13.876
56523W        W24853  20.063  34.396   0.371
56524W        W24854  11.129  14.638   0.922
56525W        W24855  23.128   1.423  10.582
56526W        W24856  44.009   0.771  10.925
56527W        W24857  27.009  39.889  14.433
56528W        W24858  21.030  23.203   4.642
56529W        W24859  30.915   7.377   5.313
56530W        W24860   6.361   0.957   4.625
56531W        W24861  42.996  35.902  14.873
56532W        W24862  44.417  33.002   9.988
56533W        W24863  34.033  14.216  11.944
56534W        W24864  27.454  20.764  12.390
56535W        W24865  19.612  32.432  13.944
56536W        W24866  12.826  14.596  11.872
56537W        W24867  17.235  37.900  14.494
56538W        W24868  30.997   9.713   0.823
56539W        W24869   3.450  33.045   1.374
56540W        W24870   7.891  42.378  10.983
56541W        W24871  15.177  43.474  12.956
56542W        W24872  35.425  18.690  10.474
56543W        W24873  27.577  33.054  11.565
56544W        W24874  13.815  38.041  10.951
56545W        W24875   1.970   0.468   0.815
56546W        W24876  38.494  28.966   3.289
56547W        W24877  37.382  15.280  11.445
56548W        W24878  38.348  26.026  14.844
56549W        W24879  21.514  38.865   2.849
56550W        W24880   0.278   3.755   0.736
56551W        W24881   7.306  34.983   0.297
56552W        W24882  20.662  14.791   1.931
56553W        W24883  35.904  43.414  10.958
56554W        W24884  13.279  28.561   4.342
56555W        W24885  28.149  22.202  11.938
56556W        W24886  33.416  39.434  12.094
56557W        W24887  14.254  41.532   3.713
56558W        W24888   3.457  31.588   1.909
56559W        W24889  14.178   5.338  10.476
56560W        W24890  36.860   2.364  14.286
56561W        W24891  16.652  34.901   3.204
56562W        W24892  36.972  31.516   3.810
56563W        W24893  40.011  18.234  13.460
56564W        W24894  34.603  10.378  13.859
56565W        W24895  30.483  10.849  11.067
56566W        W24896  31.053  32.956   4.354
56567W        W24897   8.393  43.775   0.290
56568W        W24898  14.179   7.901  11.426
56569W        W24899  23.107   5.878   2.252
56570W        W24900  15.284   8.391  12.474
56571W        W24901   0.465  11.208  13.825
56572W        W24902  11.844  41.393   4.730
56573W        W24903   7.728   7.773  11.005
56574W        W24904  28.506  14.765  11.570
56575W        W24905  29.444  41.423  14.956
56576W        W24906  12.140  39.856   1.727
56577W        W24907  41.884   0.458   0.377
56578W        W24908  42.021  43.392  14.284
56579W        W24909  14.824  36.882   2.774
56580W        W24910  42.994   8.312  14.854
56581W        W24911  38.865  21.549  14.963
56582W        W24912   2.852  42.387   1.706
56583W        W24913  14.117  15.294   2.404
56584W        W24914   6.211   2.893  10.628
56585W        W24915  17.191  21.745  12.949
56586W        W24916  33.960  23.235  12.419
56587W        W24917  19.538  24.039  10.585
56588W        W24918  35.567   9.249   3.782
56589W        W24919   6.819  39.855  14.867
56590W        W24920   0.276  39.411   4.249
56591W        W24921   4.334   1.856  13.502
56592W        W24922  44.472  29.085  11.005
56593W        W24923  35.034  25.086  12.883
56594W        W24924  33.043   4.426  14.414
56595W        W24925  20.070  31.460  12.572
56596W        W24926  42.422  25.156  13.973
56597W        W24927  32.906  30.161  11.034
56598W        W24928  20.211  17.559  11.545
56599W        W24929   5.223  38.867  11.069
56600W        W24930  29.035  21.238  13.849
56601W        W24931  35.063  34.880   2.244
56602W        W24932   0.863  31.604   0.264
56603W        W24933  20.696  13.138   0.457
56604W        W24934  30.579  22.678   1.252
56605W        W24935  13.336  41.901   1.862
56606W        W24936  32.047   3.937   0.483
56607W        W24937  31.142   9.811   2.742
56608W        W24938   6.226  25.608  13.018
56609W        W24939  42.001  18.640  14.275
56610W        W24940   2.329  12.356  10.892
56611W        W24941  29.460  23.192  12.027
56612W        W24942  24.590  14.099   1.244
56613W        W24943  16.257   1.751  11.384
56614W        W24944  32.457   7.259  14.956
56615W        W24945  22.072  30.918  14.979
56616W        W24946  42.988  20.034   0.388
56617W        W24947  38.061  41.382   3.788
56618W        W24948   1.849  32.519  13.824
56619W        W24949  15.772   1.317   4.205
56620W        W24950  33.406   8.849   3.360
56621W        W24951  25.615   3.795  13.852
56622W        W24952  32.493  19.177   5.712
56623W        W24953   5.697  30.593   2.709
56624W        W24954   8.399  11.690  12.441
56625W        W24955  22.102  32.487   1.382
56626W        W24956  12.855  17.779  13.061
56627W        W24957   8.261  37.499   4.217
56628W        W24958  37.000  21.185   2.717
56629W        W24959   1.405  10.208  13.841
56630W        W24960  27.580   0.474   1.284
56631W        W24961  41.497   6.814  11.987
56632W        W24962   0.788  38.820   1.320
56633W        W24963  10.642  11.656   0.388
56634W        W24964  20.069   0.843   3.858
56635W        W24965  21.140  40.993   2.391
56636W        W24966   6.406  29.562   5.300
56637W        W24967   0.310  10.161   3.664
56638W        W24968  29.587  17.074  13.960
56639W        W24969  44.907  42.031   3.354
56640W        W24970  39.973  31.897  13.821
56641W        W24971  39.828  29.977   4.652
56642W        W24972  36.358   8.273   0.470
56643W        W24973  24.715   2.286  10.531
56644W        W24974  15.663  42.325  10.888
56645W        W24975  30.469  37.513   0.908
56646W        W24976  33.974  14.332   0.266
56647W        W24977  24.116  41.911   2.367
56648W        W24978  18.050  43.321  14.926
56649W        W24979  43.281  35.513  10.440
56650W        W24980  44.471  23.638   3.741
56651W        W24981  19.144  27.091  11.990
56652W        W24982  20.563   9.240  10.456
56653W        W24983  34.482  26.109  12.967
56654W        W24984   4.395  35.859   0.791
56655W        W24985  12.253  19.693  13.971
56656W        W24986  34.922  33.555   2.396
56657W        W24987  40.364   8.703  11.115
56658W        W24988   7.777  40.362   2.270
56659W        W24989   8.741   4.399  12.081
56660W        W24990   5.905   5.794  12.359
56661W        W24991  36.009   5.337   1.734
56662W        W24992  17.071  22.155  13.909
56663W        W24993   7.240  33.099  11.516
56664W        W24994  10.844   4.255  11.484
56665W        W24995  13.601   0.444   1.339
56666W        W24996  44.504   9.239  13.822
56667W        W24997  26.123  34.079   4.289
56668W        W24998  15.772  23.497  10.072
56669W        W24999  42.373  43.892   2.709
56670W        W25000  34.943  12.834  14.029
56671W        W25001  11.755  39.985  13.393
56672W        W25002  15.315  35.471   4.348
56673W        W25003   5.745  33.090  12.924
56674W        W25004  41.365  30.560   1.378
56675W        W25005  12.661  18.163  10.968
56676W        W25006  25.120  39.008   0.761
56677W        W25007   2.346  25.504   0.823
56678W        W25008  39.439  34.504  11.572
56679W        W25009  43.473  23.106   1.274
56680W        W25010  31.094  10.682  11.594
56681W        W25011  36.852  32.550  12.437
56682W        W25012  19.155   4.247  11.527
56683W        W25013  29.127  42.798   3.793
56684W        W25014   5.725  16.641  14.320
56685W        W25015  25.213  16.179  14.345
56686W        W25016   1.976  36.928   4.273
56687W        W25017   0.493  14.625  12.827
56688W        W25018  30.029  15.780   3.867
56689W        W25019  16.120   7.870  10.978
56690W        W25020   3.297  32.616  10.632
56691W        W25021  26.537  37.582  10.436
56692W        W25022   1.871  17.267   1.765
56693W        W25023   8.171  24.977   1.372
56694W        W25024   3.228   4.399   3.831
56695W        W25025   4.931  11.311   0.775
56696W        W25026  30.101  39.364   4.147
56697W        W25027  38.561  32.098   0.263
56698W        W25028  28.978  30.109  13.986
56699W        W25029  11.634  25.156  13.053
56700W        W25030  30.479  37.043  12.546
56701W        W25031  43.293  10.264  10.428
56702W        W25032   4.291   7.855  12.091
56703W        W25033  34.111  32.912  13.899
56704W        W25034  39.497  39.836  11.022
56705W        W25035   4.798  38.912  12.070
56706W        W25036  34.392   2.393  13.325
56707W        W25037   5.871  34.378   4.651
56708W        W25038   3.775  29.562   3.768
56709W        W25039  37.353  14.658   2.415
56710W        W25040  21.709  24.982  13.392
56711W        W25041  16.730  40.913   2.182
56712W        W25042  17.303   0.335   0.818
56713W        W25043  43.946  31.420   4.123
56714W        W25044  25.061  22.606  12.464
56715W        W25045  40.908  32.923   4.120
56716W        W25046  43.289  41.011   2.765
56717W        W25047  31.961  20.208   5.312
56718W        W25048  29.121  11.733  12.448
56719W        W25049  11.755  26.513  13.442
56720W        W25050  39.459  15.213  11.995
56721W        W25051  31.102   6.902  12.016
56722W        W25052  30.954   9.235  12.463
56723W        W25053   7.217   3.919  10.481
56724W        W25054  20.212  11.786   4.742
56725W        W25055  44.405  24.161   0.804
56726W        W25056  23.242  21.687  14.484
56727W        W25057  25.607  21.616   0.348
56728W        W25058   1.798  43.388   2.384
56729W        W25059  44.435  14.807   4.239
56730W        W25060  44.400  23.708  12.938
56731W        W25061  19.184  34.950  12.905
56732W        W25062  23.731   6.873  14.828
56733W        W25063  31.112  30.033   2.197
56734W        W25064  32.493  26.471  13.547
56735W        W25065   2.466  42.808  14.373
56736W        W25066   9.313  43.407  13.944
56737W        W25067  20.672  43.952  12.013
56738W        W25068   8.179  14.186   4.764
56739W        W25069  43.355  26.499   4.658
56740W        W25070  25.077  21.559  11.955
56741W        W25071  17.596   4.752   4.823
56742W        W25072  37.386  13.176  13.408
56743W        W25073  44.319  32.952   1.736
56744W        W25074  41.811  37.342  13.992
56745W        W25075  14.211   7.735  14.341
56746W        W25076  44.439  42.323  13.418
56747W        W25077  23.630  37.514  12.571
56748W        W25078  26.591  27.124  13.464
56749W        W25079  23.670  25.615  10.521
56750W        W25080  39.939  19.215   0.782
56751W        W25081  22.059   2.437  12.425
56752W        W25082  19.679  18.562  12.839
56753W        W25083  20.664   8.176  10.469
56754W        W25084   6.181  42.831  11.561
56755W        W25085  30.604   8.788   3.245
56756W        W25086   5.807  31.931  13.830
56757W        W25087  25.107  23.034   0.266
56758W        W25088  35.074  16.265   4.824
56759W        W25089  26.198  42.515   0.483
56760W        W25090  42.865  12.342   0.958
56761W        W25091   1.449  25.975  11.079
56762W        W25092   8.346  44.971   2.786
56763W        W25093  30.083  30.952   0.274
56764W        W25094  33.481  44.771  13.989
56765W        W25095  30.647   7.901  10.478
56766W        W25096   6.333   8.846   2.814
56767W        W25097  37.467   6.883  10.064
56768W        W25098   8.229  15.606   0.838
56769W        W25099  30.066  14.188  10.405
56770W        W25100  28.465  13.209   4.306
56771W        W25101  34.443  27.678   1.260
56772W        W25102  43.450  29.114  12.510
56773W        W25103  19.701  20.240   2.846
56774W        W25104  40.308  12.770  13.935
56775W        W25105  37.087   0.362  13.800
56776W        W25106  12.818   5.205   0.820
56777W        W25107  28.036   1.956   4.350
56778W        W25108  22.168  14.240   3.753
56779W        W25109   6.363  34.077   2.823
56780W        W25110  44.352  20.264  14.834
56781W        W25111  39.833  20.271   4.173
56782W        W25112  27.005  15.193   0.735
56783W        W25113   6.870   1.803   0.839
56784W        W25114   8.851  40.396  12.364
56785W        W25115  31.457  20.641   1.332
56786W        W25116   1.466  26.107   4.262
56787W        W25117  39.832  32.040  13.023
56788W        W25118  17.143  23.655   2.231
56789W        W25119  17.586  41.422   0.857
56790W        W25120  22.121  37.500   4.134
56791W        W25121   9.381  26.158  14.827
56792W        W25122  13.321  34.499  14.445
56793W        W25123  22.236   9.669  13.807
56794W        W25124  41.818  32.090  13.055
56795W        W25125  15.127   9.275   1.849
56796W        W25126  29.158   4.385   4.701
56797W        W25127  33.881   7.785  12.475
56798W        W25128  14.207  36.350   3.632
56799W        W25129  17.736   4.769   0.391
56800W        W25130  16.741  17.110   2.889
56801W        W25131  34.009  10.320   3.745
56802W        W25132  21.537  10.785  12.468
56803W        W25133  39.492  37.915  11.386
56804W        W25134   1.454  23.239   2.216
56805W        W25135  20.100  29.000   3.698
56806W        W25136  35.591   7.828  12.993
56807W        W25137   3.851  39.495  13.377
56808W        W25138  11.637  20.551   1.846
56809W        W25139   0.471  25.200  10.473
56810W        W25140  15.091  27.013  12.927
56811W        W25141  10.276  18.603  11.959
56812W        W25142   7.334  44.891   4.293
56813W        W25143   3.334  32.401   0.470
56814W        W25144   4.317   7.867  14.478
56815W        W25145  43.288  19.636   4.667
56816W        W25146   6.911  13.752   0.805
56817W        W25147   2.959  33.962  12.901
56818W        W25148  42.994  40.503   0.387
56819W        W25149  10.786   9.304  11.871
56820W        W25150  38.047  23.043  11.901
56821W        W25151  27.119  35.936  11.906
56822W        W25152   7.274  27.053   1.440
56823W        W25153  44.908   7.234  13.990
56824W        W25154  12.722   2.345  11.863
56825W        W25155  14.763   2.720   0.761
56826W        W25156  26.583  14.605  13.911
56827W        W25157  18.122   1.314   1.904
56828W        W25158  21.518  41.801  14.455
56829W        W25159  20.556   0.320   3.654
56830W        W25160  11.804   9.740   4.618
56831W        W25161  40.540  21.716   0.905
56832W        W25162  24.979  14.258  11.887
56833W        W25163  18.108  43.799   0.906
56834W        W25164  10.291  31.941   3.227
56835W        W25165  25.608  18.242  11.926
56836W        W25166  40.332   5.284   5.322
56837W        W25167  39.547  14.823  14.809
56838W        W25168  25.000  19.228   0.940
56839W        W25169  18.200  17.743  11.026
56840W        W25170  16.645   6.251  13.056
56841W        W25171  38.921   5.318  12.551
56842W        W25172  23.225  13.754  12.824
56843W        W25173  29.667   0.928   2.720
56844W        W25174  35.862  35.031   3.729
56845W        W25175  40.981  21.548   3.282
56846W        W25176   8.758  41.435   0.919
56847W        W25177  26.990  34.436   3.682
56848W        W25178  33.914  29.124   2.721
56849W        W25179   6.779  15.701  13.061
56850W        W25180  34.393  31.014  10.424
56851W        W25181   6.723  10.359   2.842
56852W        W25182  31.990   3.839   3.188
56853W        W25183  16.676   0.296  14.465
56854W        W25184  18.112   3.914   0.395
56855W        W25185  20.552  42.924  10.917
56856W        W25186  24.505   5.811  12.471
56857W        W25187  10.191  43.828  13.878
56858W        W25188  19.767   2.426  12.535
56859W        W25189  39.904  11.671   4.294
56860W        W25190  32.453   3.274   0.831
56861W        W25191   3.836  36.535  14.476
56862W        W25192  25.689  30.588   2.793
56863W        W25193  39.829  39.841  11.477
56864W        W25194  24.043   6.891  10.427
56865W        W25195  41.518  30.575   0.876
56866W        W25196   3.248  36.403   5.120
56867W        W25197  17.286  44.307   0.315
56868W        W25198   7.263   7.700  12.431
56869W        W25199  38.880   0.886  14.924
56870W        W25200  24.132   1.330  10.480
56871W        W25201  11.302  33.419   1.222
56872W        W25202  26.620  36.371   1.369
56873W        W25203  36.478  35.487  14.777
56874W        W25204  33.425  16.664  14.478
56875W        W25205   6.195  17.645   3.662
56876W        W25206  40.494  38.065   1.222
56877W        W25207   5.908  33.481  11.564
56878W        W25208   6.270  28.183  11.604
56879W        W25209  27.078  32.117   0.313
56880W        W25210  15.120  40.354   3.831
56881W        W25211  31.636   6.283   4.778
56882W        W25212  35.943  36.001   3.749
56883W        W25213   4.404  13.207  10.590
56884W        W25214  32.414  19.615  13.955
56885W        W25215  15.289   4.213   4.705
56886W        W25216  14.314  10.311  11.557
56887W        W25217  29.666  18.550   1.210
56888W        W25218  28.457  37.499   2.373
56889W        W25219  27.950   8.334  14.926
56890W        W25220  26.035   9.695   0.802
56891W        W25221  38.512   3.314   4.224
56892W        W25222  36.523  18.701   4.240
56893W        W25223  44.009   5.364   3.771
56894W        W25224  34.567  14.669  11.466
56895W        W25225  41.512   9.192  11.567
56896W        W25226  28.099   2.845   0.775
56897W        W25227  13.624  18.643  11.027
56898W        W25228  33.462  19.625  13.046
56899W        W25229  11.768  39.437   3.159
56900W        W25230  12.658  34.958  13.408
56901W        W25231  12.668  19.673  13.886
56902W        W25232   2.439  18.237   1.242
56903W        W25233  40.805  29.086   4.798
56904W        W25234  35.055   8.717  10.119
56905W        W25235  27.173  16.637  13.023
56906W        W25236  35.079  28.634  12.515
56907W        W25237  22.539   9.292  14.866
56908W        W25238  43.955  22.088   0.929
56909W        W25239  42.927  24.593   2.677
56910W        W25240  44.847   6.369  11.976
56911W        W25241   7.288   0.330  12.504
56912W        W25242   8.397  30.945   3.177
56913W        W25243  43.001  38.514  11.024
56914W        W25244   8.726  43.418   2.736
56915W        W25245   9.369  19.665   4.151
56916W        W25246  34.491  13.150  10.522
56917W        W25247   2.849  35.447   2.394
56918W        W25248  27.454   1.750   1.892
56919W        W25249   3.458  39.361  14.758
56920W        W25250   3.356  11.813  13.496
56921W        W25251  42.322  42.404  13.847
56922W        W25252  23.207  43.843   2.385
56923W        W25253  43.973  17.607  13.382
56924W        W25254   5.881  30.476   4.346
56925W        W25255   8.404  25.998  11.887
56926W        W25256   9.833  44.910   0.825
56927W        W25257  17.079  32.126  14.002
56928W        W25258  23.651  30.931  10.948
56929W        W25259  29.564  24.020  12.961
56930W        W25260  25.116  35.005   1.447
56931W        W25261  36.053  38.501   1.373
56932W        W25262  13.288  17.184   9.950
56933W        W25263  26.207  10.337   4.186
56934W        W25264  24.043  11.686  11.422
56935W        W25265  43.801  14.820   2.873
56936W        W25266   5.832  16.593   4.148
56937W        W25267  12.659  33.990  11.107
56938W        W25268  38.367  32.049   3.789
56939W        W25269  32.963  36.951   1.392
56940W        W25270  35.961  17.249   1.739
56941W        W25271   1.465  12.617  11.999
56942W        W25272   5.307  18.586   3.652
56943W        W25273  25.047  44.352   2.253
56944W        W25274  30.916  40.493   4.220
56945W        W25275  23.527  28.961  14.306
56946W        W25276  34.458  42.288   1.235
56947W        W25277   7.415  22.602   0.466
56948W        W25278  22.642  44.995  13.056
56949W        W25279  27.102   2.954  11.592
56950W        W25280  35.358   8.837   0.392
56951W        W25281  41.831  43.788   2.753
56952W        W25282  38.325   3.312  14.425
56953W        W25283  31.901  38.944  12.480
56954W        W25284  30.113  37.965   0.934
56955W        W25285   3.864  14.701   3.769
56956W        W25286  21.258  16.788  13.400
56957W        W25287  38.055  37.832  12.857
56958W        W25288  40.429  14.762   3.263
56959W        W25289  18.242  14.635   2.182
56960W        W25290   0.836  10.323   5.281
56961W        W25291  33.465   2.281   1.442
56962W        W25292  10.655  37.581  11.033
56963W        W25293  37.543  21.039  11.859
56964W        W25294  34.018  42.902   3.857
56965W        W25295  14.159  10.817  10.895
56966W        W25296  15.578   7.711   2.344
56967W        W25297   7.888  37.493  14.454
56968W        W25298   0.284  23.147  13.982
56969W        W25299  27.967  12.784   3.358
56970W        W25300  27.168   1.446  11.538
56971W        W25301  30.475  23.237  11.379
56972W        W25302  27.636  32.503   2.303
56973W        W25303   8.793  18.550   1.718
56974W        W25304  25.191  14.705  14.381
56975W        W25305  13.820  20.162  11.960
56976W        W25306  32.020  34.423   1.814
56977W        W25307   2.285  26.586  12.942
56978W        W25308  22.704  27.945  10.135
56979W        W25309  34.048  21.617  10.514
56980W        W25310  17.164  33.994   2.251
56981W        W25311   3.903  21.227  10.968
56982W        W25312  32.568  22.664  12.977
56983W        W25313   9.255  12.246  14.486
56984W        W25314  25.008  32.893   3.330
56985W        W25315  17.287   0.882   4.318
56986W        W25316  33.409  16.129   3.819
56987W        W25317  41.362   0.387   0.483
56988W        W25318  41.912   9.186  14.838
56989W        W25319  37.889   6.202  13.457
56990W        W25320  32.986   8.241  10.434
56991W        W25321  30.619  26.632   1.281
56992W        W25322   3.721  24.061  12.543
56993W        W25323  17.722  17.689  11.985
56994W        W25324  40.493  18.274   2.268
56995W        W25325  23.136  20.112  13.959
56996W        W25326  37.498  12.174   0.821
56997W        W25327  21.095  38.488   0.256
56998W        W25328  35.901   0.774   0.958
56999W        W25329   7.327  43.286  10.523
57000W        W25330  11.684  24.542  14.010
57001W        W25331  32.031  10.325  13.052
57002W        W25332  17.622  19.225   0.855
57003W        W25333  27.507  30.453  13.362
57004W        W25334  12.183  11.681   3.869
57005W        W25335   5.290  11.673  13.535
57006W        W25336  20.176   5.343   1.284
57007W        W25337  17.152  13.125   3.196
57008W        W25338  25.033  12.213  12.869
57009W        W25339  36.915  34.419   0.436
57010W        W25340  37.878   7.357   4.637
57011W        W25341  28.594  29.941   1.714
57012W        W25342   6.344  11.134  12.376
57013W        W25343   2.883  44.373   4.763
57014W        W25344  16.790  26.647   2.370
57015W        W25345  26.131  35.083  12.564
57016W        W25346  42.368   3.818  11.422
57017W        W25347  18.566  32.942   3.786
57018W        W25348  27.634  36.007  10.438
57019W        W25349  36.381  15.100   1.447
57020W        W25350  10.364  19.633   2.311
57021W        W25351  10.332  19.732  12.043
57022W        W25352  26.509  17.618   1.877
57023W        W25353  36.511   1.955   3.309
57024W        W25354  34.520   1.780   2.189
57025W        W25355  26.081  28.509   2.199
57026W        W25356  30.580  24.481  14.001
57027W        W25357   9.210  14.232  13.018
57028W        W25358  40.469  25.137  12.848
57029W        W25359  36.039  20.179   2.390
57030W        W25360  44.335   4.846   1.868
57031W        W25361   4.297  19.070  13.854
57032W        W25362  14.643  27.553   0.399
57033W        W25363  30.544   8.347   0.251
57034W        W25364  33.064   6.294   0.808
57035W        W25365  25.609  19.175   1.847
57036W        W25366  41.427  39.843   3.849
57037W        W25367  15.190  32.128   3.222
57038W        W25368  35.030  22.562   3.756
57039W        W25369   2.823   1.798   2.803
57040W        W25370   7.843   9.671  14.324
57041W        W25371   7.712  18.090  11.049
57042W        W25372  27.018  15.788   4.735
57043W        W25373   4.326  22.646  10.466
57044W        W25374  16.286  23.604   9.931
57045W        W25375  20.615  27.617   0.966
57046W        W25376  37.975  11.143   1.803
57047W        W25377  36.403  14.331   0.287
57048W        W25378  20.139  40.920  11.034
57049W        W25379  38.031  16.096   2.870
57050W        W25380  36.949  25.504   3.217
57051W        W25381  41.388   6.399  11.858
57052W        W25382   6.416  42.918   5.308
57053W        W25383  30.480  39.847  14.002
57054W        W25384   8.775  25.981   0.434
57055W        W25385  15.768  38.867  10.406
57056W        W25386  12.775  11.230  12.031
57057W        W25387   2.926  42.886  14.003
57058W        W25388   4.736  18.076  14.352
57059W        W25389  20.229  24.114   1.778
57060W        W25390  34.435  41.868   4.202
57061W        W25391  26.652  14.280   0.454
57062W        W25392   4.740   3.895   2.254
57063W        W25393  17.242  28.651   4.182
57064W        W25394  42.456  22.503  13.935
57065W        W25395  40.029  39.934  11.057
57066W        W25396  37.500  25.098  10.888
57067W        W25397  20.244  22.653   0.382
57068W        W25398  18.282  21.577   1.440
57069W        W25399   9.388  21.108   0.368
57070W        W25400  16.701  12.324   1.294
57071W        W25401  24.141  18.211  10.997
57072W        W25402  18.726   8.371   0.781
57073W        W25403  34.398  32.396   0.387
57074W        W25404  10.286  43.934   4.811
57075W        W25405   2.880  24.629   3.867
57076W        W25406  40.405   4.923  10.157
57077W        W25407  16.129  31.488  13.488
57078W        W25408  39.945  12.179  11.440
57079W        W25409  37.358  23.171  13.408
57080W        W25410  42.917   2.955  13.308
57081W        W25411  12.327  27.053   1.719
57082W        W25412  15.666  17.194   3.258
57083W        W25413  31.086  30.558   2.670
57084W        W25414   6.837  40.407   1.830
57085W        W25415  28.614   2.368  10.968
57086W        W25416  30.093  16.756  12.034
57087W        W25417   4.315  30.015   1.263
57088W        W25418  11.775  25.052   4.733
57089W        W25419  14.202  41.292  13.382
57090W        W25420  27.132  41.917  12.950
57091W        W25421  21.239  38.351   1.374
57092W        W25422   3.836  18.084  13.993
57093W        W25423  13.603  19.657   3.828
57094W        W25424   5.216  43.964  14.864
57095W        W25425  36.908  38.849   0.305
57096W        W25426  41.406  30.564  10.941
57097W        W25427  27.480  31.527  10.634
57098W        W25428  36.041  26.140  14.380
57099W        W25429  12.701  23.704   3.719
57100W        W25430   5.758  12.778  14.812
57101W        W25431  37.373  29.582  10.993
57102W        W25432  21.229  31.482  14.383
57103W        W25433  24.992  34.466   3.793
57104W        W25434   3.228  40.407   0.313
57105W        W25435  35.882  18.623  11.030
57106W        W25436  10.156  36.025   3.779
57107W        W25437  17.204  25.980   4.254
57108W        W25438  17.260  44.809  14.023
57109W        W25439  20.741  13.839  14.382
57110W        W25440   7.766  25.997   0.276
57111W        W25441  20.171  22.519  12.383
57112W        W25442   0.774  40.804  12.530
57113W        W25443   6.308  12.744   1.833
57114W        W25444   7.673  44.894  13.488
57115W        W25445   0.762  24.602  10.423
57116W        W25446  23.057  41.987   2.392
57117W        W25447  37.903  35.946  14.949
57118W        W25448   7.836  24.001   0.734
57119W        W25449  28.081  17.613  11.438
57120W        W25450  15.176  10.238  14.428
57121W        W25451   0.481  42.457   4.711
57122W        W25452  12.734   6.374   3.148
57123W        W25453  26.122  19.683   2.208
57124W        W25454  42.024  36.029  12.861
57125W        W25455  23.605  27.547  14.870
57126W        W25456  14.654  44.796   4.656
57127W        W25457  31.529   6.722  12.555
57128W        W25458  18.231   1.360  14.345
57129W        W25459  34.999  26.065   1.376
57130W        W25460  12.252  24.582   0.804
57131W        W25461   8.848  37.527  13.897
57132W        W25462  23.102  31.467   3.222
57133W        W25463  44.259  24.184  13.474
57134W        W25464  29.131  28.999  14.290
57135W        W25465   8.321  38.418  11.461
57136W        W25466  44.011   2.257   2.269
57137W        W25467  15.152  24.713  13.363
57138W        W25468  30.138  22.250  13.020
57139W        W25469  27.638  27.628  10.955
57140W        W25470  13.221   7.883  11.917
57141W        W25471  15.297   0.484   2.339
57142W        W25472  43.495  28.144   0.376
57143W        W25473   2.926  24.600  11.020
57144W        W25474  24.560  40.431  12.076
57145W        W25475   3.312  26.090  11.120
57146W        W25476   2.251   8.767  10.931
57147W        W25477   1.368  21.696   3.202
57148W        W25478   9.268   8.266  11.897
57149W        W25479   0.875   2.758   1.852
57150W        W25480  14.779  27.627  10.615
57151W        W25481  15.675  21.242   1.923
57152W        W25482  17.678  15.234  11.909
57153W        W25483  30.474  29.933   4.245
57154W        W25484   8.813  31.149  12.012
57155W        W25485  20.677  27.614  10.939
57156W        W25486  26.575  41.421   2.808
57157W        W25487  36.920  44.388   0.402
57158W        W25488  33.578  12.299   4.798
57159W        W25489  18.548  10.214   2.370
57160W        W25490  24.498  41.859  10.940
57161W        W25491  32.960  30.106   1.244
57162W        W25492  44.342  37.501  14.317
57163W        W25493  42.013   9.196   1.930
57164W        W25494  39.827  11.801  13.872
57165W        W25495  44.773   1.913   3.680
57166W        W25496   2.794   1.869   1.445
57167W        W25497   9.347  11.743  10.931
57168W        W25498  38.966  16.073   4.209
57169W        W25499  36.469  38.972  14.017
57170W        W25500   8.245  39.816   3.767
57171W        W25501  31.920  27.643  12.368
57172W        W25502  29.048   1.957  12.509
57173W        W25503   4.239  19.169   1.271
57174W        W25504   2.812   7.744  11.092
57175W        W25505  11.686  29.571   3.321
57176W        W25506  29.073   5.746   4.327
57177W        W25507   0.796  31.961   3.812
57178W        W25508  43.281  18.564  13.452
57179W        W25509  41.486  32.901  10.921
57180W        W25510  11.327  31.067   4.338
57181W        W25511   3.351  22.235   2.776
57182W        W25512  41.385  23.129  12.948
57183W        W25513   9.199  38.017   3.358
57184W        W25514  36.933  33.564   0.292
57185W        W25515   6.199  44.866  10.952
57186W        W25516   8.659  25.094   5.315
57187W        W25517   2.944  26.036  12.889
57188W        W25518  30.911  22.513  11.608
57189W        W25519   2.890  35.497   5.142
57190W        W25520  20.042  18.699  13.975
57191W        W25521  31.927  32.077  11.612
57192W        W25522  22.126  26.517  11.608
57193W        W25523  37.833   0.961  12.393
57194W        W25524   0.348  44.005  13.906
57195W        W25525  43.780  15.656   0.482
57196W        W25526   6.284  27.116  12.496
57197W        W25527  28.632   7.278   0.304
57198W        W25528  23.058  18.181   5.313
57199W        W25529  24.720  26.514  14.902
57200W        W25530  39.929  35.862   2.193
57201W        W25531  39.318  12.276  13.006
57202W        W25532   4.264  43.824  13.796
57203W        W25533  11.823  17.689  14.277
57204W        W25534  30.009   4.941   4.178
57205W        W25535  28.957  11.707  11.599
57206W        W25536  19.242   3.394  12.018
57207W        W25537   5.317   2.864   0.793
57208W        W25538   0.389  42.503   1.322
57209W        W25539  16.615  23.591  14.400
57210W        W25540  27.450  24.002   4.303
57211W        W25541  40.911  21.687  14.930
57212W        W25542   4.710  42.468   0.752
57213W        W25543  22.565  31.422   4.285
57214W        W25544  36.404   7.730   3.270
57215W        W25545  12.692  10.302   1.912
57216W        W25546   9.665   9.679   2.375
57217W        W25547  27.155  35.063   4.632
57218W        W25548  15.085  36.066   2.409
57219W        W25549  31.946   9.886  11.470
57220W        W25550  13.617  35.592  14.394
57221W        W25551  43.505  38.406   0.405
57222W        W25552  44.430  40.046  12.374
57223W        W25553   1.936   0.956   1.303
57224W        W25554  36.044  14.640   0.753
57225W        W25555  27.074  20.561  11.001
57226W        W25556   8.737   1.842   2.763
57227W        W25557   5.431  25.703   1.286
57228W        W25558  18.748  33.885   1.336
57229W        W25559   0.272  13.196   1.364
57230W        W25560  20.032  15.142  14.343
57231W        W25561  31.473  44.902   1.702
57232W        W25562   6.702   6.304  11.470
57233W        W25563  36.046   1.874   2.804
57234W        W25564   6.318  25.709   0.965
57235W        W25565  18.151  35.946   3.649
57236W        W25566  18.655  14.671   0.251
57237W        W25567  40.808   8.209  11.573
57238W        W25568  18.629  36.969  11.484
57239W        W25569  43.329  14.129   4.278
57240W        W25570  15.115  37.054  10.926
57241W        W25571  19.707   5.921  13.457
57242W        W25572  40.478  26.107   3.655
57243W        W25573  30.507  11.741   4.255
57244W        W25574  15.784   2.446   3.706
57245W        W25575  23.590   2.467  13.992
57246W        W25576  20.228   9.252   0.866
57247W        W25577  32.627  39.811  13.952
57248W        W25578  38.926  43.478  10.114
57249W        W25579  23.735  41.389   2.842
57250W        W25580   9.306  19.661   2.322
57251W        W25581  34.990  15.811   2.395
57252W        W25582   5.224  31.141  12.519
57253W        W25583  16.256  21.577  14.836
57254W        W25584  16.795  13.297   4.736
57255W        W25585  36.019   3.841  13.009
57256W        W25586  42.883  14.317   1.260
57257W        W25587  28.496  12.796   2.252
57258W        W25588  44.950  39.056  11.103
57259W        W25589   5.846  20.221   3.850
57260W        W25590  18.658   4.852   4.216
57261W        W25591  14.695  31.007   4.309
57262W        W25592  21.542  23.232   4.832
57263W        W25593  29.069  20.714  10.979
57264W        W25594  36.065  32.089   2.800
57265W        W25595  12.760  15.218  11.984
57266W        W25596   9.343  42.775  10.055
57267W        W25597  37.370  14.208   0.436
57268W        W25598   3.727   2.331  12.375
57269W        W25599  11.849  23.668   1.929
57270W        W25600  17.098  36.951   5.082
57271W        W25601  40.029   6.365  14.501
57272W        W25602  11.128  16.287  13.037
57273W        W25603  10.775  13.264   2.687
57274W        W25604  18.183   4.407   1.918
57275W        W25605  28.010  38.884  13.984
57276W        W25606  15.315  41.525   3.348
57277W        W25607  11.806   2.792   3.634
57278W        W25608   8.279  38.915   0.374
57279W        W25609  11.683  30.023   0.797
57280W        W25610   2.314  39.812  11.432
57281W        W25611  22.526  16.723   4.117
57282W        W25612  29.974  37.406  12.440
57283W        W25613  21.701  33.383  12.443
57284W        W25614   7.309  27.567  13.341
57285W        W25615  38.017  12.126  13.482
57286W        W25616  42.022  25.482   4.214
57287W        W25617   7.863  42.359  12.445
57288W        W25618  44.260  29.107  10.040
57289W        W25619   9.693  10.168  13.328
57290W        W25620  40.852  20.551   1.785
57291W        W25621  34.022  44.479  11.606
57292W        W25622  23.166   2.335  12.346
57293W        W25623   6.823   1.318   3.309
57294W        W25624  14.657  25.482  10.464
57295W        W25625  30.087  39.370  13.418
57296W        W25626  18.062  11.806  14.826
57297W        W25627  30.616   4.869  10.528
57298W        W25628  18.699  32.031   0.776
57299W        W25629  13.664  21.153   1.697
57300W        W25630  21.546  14.178  12.355
57301W        W25631  43.277   3.390   4.118
57302W        W25632  10.305  39.859  13.443
57303W        W25633   2.729  12.116   3.351
57304W        W25634  16.253   9.790   3.691
57305W        W25635  44.300  44.279   0.801
57306W        W25636  34.948  37.385   4.274
57307W        W25637  38.476  11.160   0.356
57308W        W25638  35.080  19.059   4.695
57309W        W25639  22.683  42.846  14.909
57310W        W25640  33.479  35.515  12.020
57311W        W25641   0.768  28.520   2.669
57312W        W25642  34.981  39.324  11.451
57313W        W25643  42.460  40.535  11.892
57314W        W25644  28.967  27.946   3.279
57315W        W25645  24.710  36.566   4.321
57316W        W25646  25.523   5.389   4.618
57317W        W25647  11.791  16.093  10.027
57318W        W25648   5.438  31.410  13.487
57319W        W25649  20.101  23.232  12.407
57320W        W25650  31.599  31.586   1.440
57321W        W25651  30.137   0.922   2.867
57322W        W25652  14.803  40.859  11.538
57323W        W25653   7.683   4.797  13.054
57324W        W25654  14.772   9.209   0.894
57325W        W25655   4.309  22.564   1.396
57326W        W25656  32.589   3.236   4.791
57327W        W25657  22.009   8.820   3.692
57328W        W25658  22.659  21.679   3.672
57329W        W25659  42.309  27.103  11.878
57330W        W25660  36.420  18.570   1.707
57331W        W25661  11.773  42.989  13.450
57332W        W25662  39.411  32.531   3.255
57333W        W25663  40.471  35.491  11.447
57334W        W25664  13.188  43.764  11.447
57335W        W25665  10.815  34.013  13.466
57336W        W25666   1.325  43.371  14.022
57337W        W25667  15.744  12.620  12.473
57338W        W25668  27.565  11.827   2.280
57339W        W25669  32.955   6.779   3.748
57340W        W25670  44.786  33.605   0.480
57341W        W25671  41.510  33.952  11.461
57342W        W25672  29.438  33.057  13.444
57343W        W25673  32.408  34.438   4.226
57344W        W25674  13.303  14.334   0.803
57345W        W25675  14.133  27.604   3.164
57346W        W25676  36.468  24.130  11.867
57347W        W25677   5.346  28.627   4.343
57348W        W25678   9.761  39.526  12.852
57349W        W25679   4.893  25.059   0.256
57350W        W25680  28.025  40.547  14.950
57351W        W25681   3.335  31.142  12.882
57352W        W25682   6.348   5.806   3.643
57353W        W25683   0.935  13.117  13.826
57354W        W25684  28.501  29.054  10.521
57355W        W25685  37.043  13.823   4.170
57356W        W25686  30.466  12.122   2.691
57357W        W25687  17.683  37.071   4.323
57358W        W25688  10.819   7.726  14.492
57359W        W25689  29.960  36.442   3.732
57360W        W25690  43.788  28.609   1.221
57361W        W25691  42.821   4.710  13.063
57362W        W25692   7.669   8.178   1.875
57363W        W25693  23.048  26.541  10.887
57364W        W25694   1.896  26.184  10.912
57365W        W25695  29.623  14.834  12.359
57366W        W25696  37.968  20.169   1.234
57367W        W25697  20.535  37.466  13.828
57368W        W25698  22.726  13.344   1.864
57369W        W25699  21.197   8.401   2.676
57370W        W25700  16.731  34.931   0.374
57371W        W25701   3.829  17.682   2.419
57372W        W25702  27.175  38.852  11.590
57373W        W25703  24.491  31.641  12.071
57374W        W25704  29.511  39.545   3.652
57375W        W25705   8.277   3.378  14.790
57376W        W25706  32.458  41.992  14.339
57377W        W25707  43.311  18.558  12.399
57378W        W25708  20.030  19.535  13.871
57379W        W25709  29.434  43.913  14.487
57380W        W25710  39.361  17.589   0.802
57381W        W25711  40.043   9.805   1.450
57382W        W25712   3.843  21.066   4.174
57383W        W25713  35.055  32.041  14.982
57384W        W25714  33.128  38.902   0.756
57385W        W25715  23.065  40.491  13.016
57386W        W25716   4.330  43.396   0.351
57387W        W25717  32.619  24.715   0.417
57388W        W25718  37.545  41.823   4.175
57389W        W25719   3.784   3.365  10.641
57390W        W25720  20.578   7.380   4.201
57391W        W25721  37.003  15.149  12.003
57392W        W25722  18.578  17.643  10.462
57393W        W25723  28.531  20.670  12.912
57394W        W25724  25.709  26.972  10.914
57395W        W25725  20.658  33.049   3.677
57396W        W25726   0.968  17.281  12.475
57397W        W25727   4.766  30.433   2.831
57398W        W25728  12.146  29.953   0.378
57399W        W25729  41.848   3.251   2.688
57400W        W25730  19.247  11.835  13.519
57401W        W25731  20.155  39.036   0.846
57402W        W25732  41.843  14.651  11.529
57403W        W25733  36.493  25.484  14.892
57404W        W25734  17.079   5.285  11.021
57405W        W25735  44.390  24.611  14.931
57406W        W25736   8.316  26.653  10.967
57407W        W25737   0.889  35.080  11.996
57408W        W25738  34.915  42.990   9.924
57409W        W25739  43.806  24.508  12.924
57410W        W25740   2.955  28.519   2.812
57411W        W25741  23.057   1.309   1.325
57412W        W25742  37.837  27.033  14.324
57413W        W25743  14.205  40.947  14.478
57414W        W25744  41.342   0.353  14.353
57415W        W25745  38.425  20.642  14.027
57416W        W25746  11.804  30.040  11.910
57417W        W25747   4.781  38.497  13.525
57418W        W25748  29.427  20.144  11.607
57419W        W25749  13.644  11.662  10.899
57420W        W25750  44.772  29.093   0.447
57421W        W25751  12.333  38.454   1.730
57422W        W25752  42.840   7.278   1.360
57423W        W25753  33.979   0.286  11.532
57424W        W25754  40.825  39.920  14.794
57425W        W25755   3.430  13.700  11.914
57426W        W25756  15.107  29.636   3.350
57427W        W25757  18.718  36.356   1.374
57428W        W25758  17.280   8.749  10.475
57429W        W25759   7.413  18.286  14.811
57430W        W25760  23.692  31.477   3.640
57431W        W25761  40.352   4.790  11.004
57432W        W25762  19.646  41.944   0.348
57433W        W25763   5.276  42.392  14.449
57434W        W25764   4.306  17.202  10.572
57435W        W25765  10.647  27.952  13.353
57436W        W25766  28.123  14.235  13.036
57437W        W25767  10.156  19.044   2.783
57438W        W25768  43.453  18.055  13.821
57439W        W25769  33.936  35.421  10.928
57440W        W25770   1.871  26.498  11.972
57441W        W25771  29.060  27.151   2.398
57442W        W25772  40.396   4.245  13.394
57443W        W25773  42.930  43.843  11.497
57444W        W25774   0.267  39.533   2.366
57445W        W25775  29.943  33.422   5.729
57446W        W25776   5.790  28.607   2.730
57447W        W25777  13.158  27.649  10.568
57448W        W25778  37.000  14.219   0.745
57449W        W25779  16.750  43.345  14.361
57450W        W25780  15.246  42.019  14.835
57451W        W25781   1.839  24.069  11.044
57452W        W25782  22.089  36.852   3.713
57453W        W25783  43.985  22.525  10.600
57454W        W25784  40.343   6.376   5.785
57455W        W25785  19.623   1.874   4.210
57456W        W25786  40.937   2.263   3.732
57457W        W25787  14.247  29.927  12.348
57458W        W25788   0.296   8.671  14.379
57459W        W25789  13.810   9.304   3.845
57460W        W25790  43.873  27.946  12.854
57461W        W25791  13.160  20.241  14.884
57462W        W25792  25.167   8.673  12.457
57463W        W25793  43.311  21.246  13.791
57464W        W25794  22.672  24.130  13.884
57465W        W25795  17.799  23.175  10.519
57466W        W25796  15.177  43.348  12.073
57467W        W25797   2.868   9.808  10.967
57468W        W25798  39.450   7.742  10.586
57469W        W25799   7.757  15.750   2.865
57470W        W25800  35.520  36.526   4.630
57471W        W25801   7.668   4.318   4.773
57472W        W25802   8.717  42.406  10.893
57473W        W25803  28.460   1.470   0.323
57474W        W25804  24.054   5.720   3.336
57475W        W25805  15.786  23.237  12.516
57476W        W25806   2.284  16.660  12.401
57477W        W25807  33.991  30.640  13.353
57478W        W25808  25.022  31.604   2.417
57479W        W25809  19.570  12.683  10.590
57480W        W25810  37.909  23.662   3.748
57481W        W25811  13.115  10.663  11.879
57482W        W25812  12.630  12.844   0.349
57483W        W25813   6.409  32.001   3.239
57484W        W25814   1.838   3.897   1.873
57485W        W25815  42.881  17.626   2.794
57486W        W25816  24.550  14.722  11.573
57487W        W25817  29.058  37.466  13.431
57488W        W25818  32.137  42.811   4.258
57489W        W25819  26.678  37.348   1.438
57490W        W25820  26.033   9.703  11.943
57491W        W25821  16.215  37.991  10.584
57492W        W25822  33.538  29.085  11.448
57493W        W25823  25.632  38.986   4.737
57494W        W25824  22.144  27.003  12.417
57495W        W25825   2.754   6.714  12.417
57496W        W25826  41.929  37.339  11.001
57497W        W25827  26.585  19.040   2.250
57498W        W25828   0.298   6.327  12.091
57499W        W25829  42.977  30.471   4.729
57500W        W25830  39.978   6.418  10.537
57501W        W25831  33.111  42.973  11.015
57502W        W25832  13.733   2.471   4.831
57503W        W25833   7.911  35.570  13.348
57504W        W25834  19.231  31.901   3.371
57505W        W25835  37.535  16.291   4.806
57506W        W25836  37.493  37.359   0.376
57507W        W25837  30.041  39.330   3.352
57508W        W25838  32.946  41.953  11.030
57509W        W25839  36.965  23.656   0.306
57510W        W25840  44.330  20.553  11.395
57511W        W25841  18.752  11.868  12.507
57512W        W25842  28.092   3.822  14.994
57513W        W25843  32.933  16.589  11.427
57514W        W25844   5.771  13.180   3.292
57515W        W25845   8.899  23.218  13.063
57516W        W25846  44.933  11.137   4.273
57517W        W25847  27.065  28.542  11.083
57518W        W25848   1.428  12.135  11.957
57519W        W25849  33.942  24.182  12.876
57520W        W25850   3.731  38.907   4.130
57521W        W25851  17.699  42.033   3.182
57522W        W25852  27.145  28.079   3.217
57523W        W25853   8.353   7.171   3.716
57524W        W25854  31.145  24.117   4.257
57525W        W25855  42.514  10.636   4.118
57526W        W25856  37.406  19.254   2.726
57527W        W25857  27.999   2.385  14.822
57528W        W25858  38.498  38.403  13.982
57529W        W25859  24.679   5.898   0.915
57530W        W25860   4.751  11.750   4.690
57531W        W25861  44.447  35.087   2.718
57532W        W25862  12.776  44.411   4.838
57533W        W25863  39.365  35.467   0.832
57534W        W25864  40.023  16.214  13.827
57535W        W25865   7.701  37.376  14.943
57536W        W25866  34.064  25.978   3.837
57537W        W25867  19.555  43.443   4.300
57538W        W25868  23.506  26.115  11.996
57539W        W25869  18.658   0.869   4.159
57540W        W25870  20.034  19.195   2.205
57541W        W25871  35.046  39.052  11.480
57542W        W25872  33.976  38.886  14.882
57543W        W25873  43.477  26.628   1.719
57544W        W25874  14.706  27.053   0.810
57545W        W25875  43.276  28.666   4.255
57546W        W25876   3.365   1.293   0.922
57547W        W25877  15.792  34.872   2.325
57548W        W25878  15.222  29.099  10.512
57549W        W25879   0.438  12.829   3.200
57550W        W25880  35.498  30.567   0.369
57551W        W25881   6.893   4.336  11.088
57552W        W25882  40.478  30.450   5.161
57553W        W25883  26.646  35.918   2.270
57554W        W25884   1.339   2.738  11.461
57555W        W25885  17.633   9.828  14.398
57556W        W25886  19.764  23.710  11.111
57557W        W25887  12.834  30.624  11.062
57558W        W25888  19.605  44.321   0.385
57559W        W25889  39.831   5.252  14.779
57560W        W25890  28.616   2.809   2.417
57561W        W25891  12.793  25.615  13.328
57562W        W25892   2.735  36.544   0.781
57563W        W25893  12.329  24.648  13.472
57564W        W25894   6.343  44.393   3.354
57565W        W25895  23.628  33.457   0.419
57566W        W25896  38.390   5.329  14.280
57567W        W25897  43.292  24.145  12.566
57568W        W25898  30.590   4.862   1.755
57569W        W25899  31.021   3.386  10.005
57570W        W25900  44.907  12.621   4.141
57571W        W25901  26.084   1.747   1.835
57572W        W25902  23.499  36.366   3.235
57573W        W25903  14.148  27.655  12.517
57574W        W25904  30.477  31.623   0.483
57575W        W25905  34.910  24.582  12.028
57576W        W25906   5.307  32.628   0.292
57577W        W25907  37.499  44.342  13.528
57578W        W25908   6.882  35.941  11.884
57579W        W25909  18.157  22.690   0.467
57580W        W25910  24.074  30.020  13.800
57581W        W25911  21.219  28.019   3.172
57582W        W25912  20.607   8.211   2.869
57583W        W25913  33.935  33.572  10.603
57584W        W25914  38.428   7.897  12.952
57585W        W25915  42.812  41.461  12.980
57586W        W25916  28.600  33.061  11.961
57587W        W25917  29.019  30.008   0.370
57588W        W25918  41.457  39.947  13.349
57589W        W25919  14.729   2.897  12.345
57590W        W25920  36.447  27.672  13.893
57591W        W25921  17.609  20.589  12.898
57592W        W25922  27.518  42.008  12.364
57593W        W25923  17.780  32.500  11.057
57594W        W25924   9.830  35.059   2.291
57595W        W25925  10.170  15.752  13.356
57596W        W25926  36.996   7.792  14.278
57597W        W25927  26.074  10.773   4.301
57598W        W25928  25.985  24.175  14.341
57599W        W25929  41.371   7.855  14.898
57600W        W25930  30.591  36.067  14.789
57601W        W25931  38.500  40.907   0.337
57602W        W25932  22.227  17.613  14.876
57603W        W25933  11.808  44.846  10.487
57604W        W25934  44.459  14.715   9.993
57605W        W25935  26.691  30.487  12.065
57606W        W25936  27.461  24.183   0.301
57607W        W25937  14.658   5.847  11.494
57608W        W25938  31.478  33.546  11.113
57609W        W25939  19.138  27.617  11.528
57610W        W25940  15.698  30.030  14.967
57611W        W25941  23.210   3.327  13.978
57612W        W25942   9.240  38.372  14.460
57613W        W25943  20.252  41.361  14.818
57614W        W25944  16.300  14.120   3.819
57615W        W25945  41.421   5.803  13.443
57616W        W25946  37.087  43.372   2.716
57617W        W25947  40.358  34.060   3.365
57618W        W25948  28.551  18.193   0.828
57619W        W25949  18.087  44.939  14.485
57620W        W25950  14.667  10.845  12.383
57621W        W25951  32.910  40.895  11.373
57622W        W25952  21.048  41.346   2.194
57623W        W25953  32.634  36.397   0.843
57624W        W25954  42.282  34.438   4.836
57625W        W25955  29.468  13.613  12.472
57626W        W25956  23.660   9.701   4.795
57627W        W25957  22.506  28.437   2.828
57628W        W25958  10.209  29.986   2.814
57629W        W25959  14.194  11.654  10.497
57630W        W25960  35.068   7.751  14.782
57631W        W25961  23.091   5.306  14.865
57632W        W25962  38.366  11.691  12.462
57633W        W25963  44.867  38.032   1.800
57634W        W25964   9.321   0.902  14.888
57635W        W25965  19.571  20.057   1.339
57636W        W25966   5.841   0.939   1.383
57637W        W25967  10.643  29.172   5.233
57638W        W25968   4.310  28.979   2.800
57639W        W25969  33.466  25.525  10.889
57640W        W25970  36.925  10.170  14.986
57641W        W25971   8.247  32.517  13.791
57642W        W25972  18.554  28.020   2.714
57643W        W25973  28.179  34.096   0.832
57644W        W25974  19.243   9.743  14.351
57645W        W25975  23.676  23.014   2.327
57646W        W25976  32.475  38.053  11.105
57647W        W25977   9.765  41.992   4.252
57648W        W25978  32.451  44.967   2.717
57649W        W25979   4.209  33.444   4.599
57650W        W25980  29.601   4.427   0.402
57651W        W25981  40.966   4.749  12.466
57652W        W25982   1.409  40.978  14.452
57653W        W25983  24.179  21.059  13.011
57654W        W25984  24.688  14.811  12.407
57655W        W25985  15.300  44.900   2.728
57656W        W25986  38.844  40.911   3.632
57657W        W25987  30.919  41.331  10.453
57658W        W25988  16.580  11.863  13.973
57659W        W25989  21.736  12.667  13.044
57660W        W25990  41.034  18.654   2.253
57661W        W25991   9.882  38.445  11.454
57662W        W25992  37.363  24.715   3.796
57663W        W25993  28.057  36.534   3.152
57664W        W25994  29.114   3.872   2.883
57665W        W25995  13.672   6.874  12.544
57666W        W25996  12.229  14.658   1.283
57667W        W25997  29.438  43.298  13.402
57668W        W25998  18.240  29.021   4.169
57669W        W25999   5.904  22.604   1.723
57670W        W26000  32.066   5.398  12.052
57671W        W26001  10.865  25.048  14.947
57672W        W26002  13.758   6.267  13.976
57673W        W26003  41.859  39.454  10.921
57674W        W26004  38.984   3.421  14.503
57675W        W26005  27.619  14.633   2.777
57676W        W26006   6.239   0.349   3.847
57677W        W26007   7.685   6.192  11.957
57678W        W26008   0.890  19.275  14.351
57679W        W26009  31.137   1.240   0.267
57680W        W26010   6.811   4.417  13.012
57681W        W26011  10.635  15.266  11.505
57682W        W26012  23.164  23.672  12.902
57683W        W26013  24.499  17.232   3.153
57684W        W26014  14.807  29.995   0.473
57685W        W26015  38.876  15.776  14.795
57686W        W26016  34.491   3.312   4.697
57687W        W26017  38.395   7.830   3.305
57688W        W26018  38.415  22.188   2.830
57689W        W26019  21.163   2.919   3.661
57690W        W26020  29.945   0.854  13.923
57691W        W26021  41.352   9.666  14.300
57692W        W26022  27.031  43.281   2.281
57693W        W26023  42.300  41.312  13.884
57694W        W26024  29.549   2.962  11.863
57695W        W26025  13.222  40.875  12.450
57696W        W26026  32.460  21.704   4.174
57697W        W26027  28.065   7.186   2.741
57698W        W26028  37.899  28.035   0.842
57699W        W26029  42.302  38.403   4.245
57700W        W26030  31.931  12.720  11.555
57701W        W26031  31.544   8.731  12.870
57702W        W26032  23.552  15.674   2.205
57703W        W26033  41.024  19.607   1.302
57704W        W26034  26.133  27.470  14.771
57705W        W26035   9.170   5.750   0.296
57706W        W26036  24.599  35.096  14.934
57707W        W26037  21.585  37.008   3.310
57708W        W26038   9.155  12.356  12.500
57709W        W26039   8.763  40.951  13.382
57710W        W26040   0.824  16.770   3.764
57711W        W26041  20.061  38.830  11.611
57712W        W26042  15.805   9.388  11.380
57713W        W26043  19.780  23.138  13.405
57714W        W26044  40.539  37.357  11.070
57715W        W26045  30.916  21.577   9.929
57716W        W26046  24.980  24.570   4.826
57717W        W26047  36.006  36.848  10.994
57718W        W26048  44.387  37.465  10.956
57719W        W26049  29.933  21.256   0.461
57720W        W26050  19.070  43.391  13.833
57721W        W26051   6.760   2.267  14.481
57722W        W26052  16.081   8.211  13.363
57723W        W26053  31.109  32.554  11.028
57724W        W26054  30.421  10.286   3.167
57725W        W26055  36.572   2.259  14.838
57726W        W26056   4.915   7.693  14.995
57727W        W26057   5.401  35.072  14.814
57728W        W26058  40.510  22.228  14.324
57729W        W26059  15.135  27.134   1.807
57730W        W26060  15.667  28.062   4.832
57731W        W26061  10.850  16.647  10.617
57732W        W26062  10.705  32.941  14.355
57733W        W26063   2.810  23.646  14.799
57734W        W26064   4.859   1.306  13.346
57735W        W26065  29.013  41.033  14.972
57736W        W26066  39.496  12.753  11.579
57737W        W26067  11.730  43.021   1.234
57738W        W26068  43.369  14.298   5.294
57739W        W26069  35.570  25.704   1.696
57740W        W26070  19.735  20.523   1.378
57741W        W26071  11.743  24.118  10.133
57742W        W26072  10.719   9.383   4.820
57743W        W26073  40.383  25.570  11.504
57744W        W26074  30.532  18.739  12.524
57745W        W26075  24.640  33.912  12.554
57746W        W26076  12.158   0.480  12.554
57747W        W26077   0.308  30.130   1.258
57748W        W26078  36.564  42.899  13.878
57749W        W26079  13.620   9.786  13.867
57750W        W26080  36.005   3.386   1.802
57751W        W26081   7.214  22.691   3.312
57752W        W26082  44.778  15.708   3.370
57753W        W26083   7.830   9.151  14.409
57754W        W26084  43.455  18.631   1.917
57755W        W26085  18.097  31.123  14.925
57756W        W26086  41.905  40.467  13.535
57757W        W26087  23.126  11.721   3.212
57758W        W26088  12.825  19.106   2.328
57759W        W26089   7.798   6.816   4.669
57760W        W26090  36.563  42.419  10.936
57761W        W26091  38.859  12.130   4.237
57762W        W26092   1.482  42.863  12.573
57763W        W26093  14.320   3.876  13.999
57764W        W26094   2.401   7.703  13.512
57765W        W26095  30.153  34.906   1.708
57766W        W26096   9.364  28.061  14.315
57767W        W26097  36.443  34.975   0.253
57768W        W26098  40.323   7.217   0.412
57769W        W26099  24.083   8.769  14.482
57770W        W26100  27.495   7.350   1.767
57771W        W26101   7.190  14.638  14.500
57772W        W26102  13.640  13.607   3.725
57773W        W26103  20.600  21.116   4.786
57774W        W26104   3.728  44.941  14.855
57775W        W26105  37.489  38.487  12.028
57776W        W26106  35.515   9.362  11.412
57777W        W26107  37.350   9.767   4.826
57778W        W26108   3.285  19.240  14.312
57779W        W26109  14.778  37.489   4.117
57780W        W26110  40.924  15.148  11.024
57781W        W26111   2.466  31.610  13.335
57782W        W26112  29.513   9.885   0.868
57783W        W26113  24.489  31.936  11.535
57784W        W26114  14.214   7.815   3.385
57785W        W26115   8.178  12.136  14.899
57786W        W26116  22.707  20.679  14.811
57787W        W26117  38.939  43.897  10.492
57788W        W26118  29.490  23.224  14.962
57789W        W26119   6.213  44.406   1.213
57790W        W26120  42.804   5.229   1.280
57791W        W26121  21.545  42.479   1.294
57792W        W26122  43.344   1.409  10.462
57793W        W26123  39.429  30.150   1.253
57794W        W26124  19.754  38.420   0.880
57795W        W26125  14.729  23.155  11.033
57796W        W26126  12.257   0.394   3.732
57797W        W26127  40.986  16.631   0.455
57798W        W26128   1.241  11.839   0.788
57799W        W26129  24.546  22.617  13.813
57800W        W26130  43.423  43.020   2.725
57801W        W26131   1.843  15.197   4.728
57802W        W26132  32.490  14.668   4.156
57803W        W26133   1.400  22.174  12.838
57804W        W26134  43.467   5.739   4.124
57805W        W26135  30.972  23.544   1.876
57806W        W26136  36.092   6.856  11.998
57807W        W26137  21.656  27.535   4.692
57808W        W26138   4.432  13.229  14.840
57809W        W26139  33.607  30.446   4.272
57810W        W26140   1.797  29.063   4.322
57811W        W26141  13.212  37.066  12.414
57812W        W26142   3.828   5.921  12.833
57813W        W26143  43.354  18.732  14.770
57814W        W26144  34.385  22.731  10.979
57815W        W26145  43.801  18.770   3.848
57816W        W26146  23.572   4.407   2.843
57817W        W26147  20.065   3.422  11.099
57818W        W26148  35.556  42.328  14.795
57819W        W26149  28.495  34.401   2.903
57820W        W26150  24.563  32.416  12.886
57821W        W26151   6.327   7.319  10.909
57822W        W26152  34.513  22.161  10.887
57823W        W26153  29.020  22.564   5.143
57824W        W26154   8.784   4.766   1.703
57825W        W26155  39.417  12.827   0.345
57826W        W26156   3.766  40.934  13.995
57827W        W26157  22.528   1.907  10.612
57828W        W26158  38.045  13.677  14.857
57829W        W26159  43.827  34.953  12.422
57830W        W26160   5.747  39.025  10.628
57831W        W26161   4.337  39.343   3.208
57832W        W26162   9.788  22.521   3.804
57833W        W26163  22.634  16.177  11.581
57834W        W26164   4.886  34.956  11.591
57835W        W26165  18.698   6.389   3.851
57836W        W26166   0.355  29.502   3.296
57837W        W26167  38.017  30.647  13.908
57838W        W26168  39.870   6.782  11.051
57839W        W26169  25.547  41.957   4.637
57840W        W26170  34.950  40.508   3.862
57841W        W26171  33.062  10.722   1.259
57842W        W26172   5.787   7.359  14.978
57843W        W26173  11.666  44.829  11.951
57844W        W26174   4.267  33.046   2.686
57845W        W26175  39.966  10.308   3.376
57846W        W26176  35.410  15.313   0.377
57847W        W26177  13.608  36.019   2.787
57848W        W26178  35.465  31.598   4.752
57849W        W26179   1.457  33.477   3.685
57850W        W26180   2.879  27.477   2.386
57851W        W26181  36.866   7.911   4.147
57852W        W26182   9.750  19.238   2.739
57853W        W26183  16.676  19.613   1.696
57854W        W26184  19.115   8.275   1.281
57855W        W26185  36.881  38.557  12.557
57856W        W26186   0.297  26.583   2.309
57857W        W26187   8.849  33.393  12.868
57858W        W26188  20.253   8.233  12.946
57859W        W26189  21.660  36.947  13.309
57860W        W26190  26.066  21.643  12.830
57861W        W26191  14.685  20.111  14.281
57862W        W26192  20.117   3.284   2.244
57863W        W26193  10.193  26.205  11.540
57864W        W26194   6.690  23.660   1.712
57865W        W26195  32.415  44.430  12.088
57866W        W26196  29.987   4.293  10.590
57867W        W26197  23.538  14.825   1.214
57868W        W26198  30.580  44.934   2.373
57869W        W26199  19.224   7.731  12.068
57870W        W26200  27.664  19.768  10.938
57871W        W26201  12.742  32.902   3.859
57872W        W26202   8.881  36.383   5.209
57873W        W26203  12.149  29.641  14.974
57874W        W26204  18.253  42.894  13.338
57875W        W26205  18.138  31.034   1.425
57876W        W26206  16.750  32.628  10.434
57877W        W26207   9.358  29.110   0.258
57878W        W26208  33.483  18.678  14.017
57879W        W26209  43.414   8.378  12.863
57880W        W26210  13.270  26.145  14.397
57881W        W26211   3.838  19.774   4.808
57882W        W26212  21.084  28.938   1.883
57883W        W26213  30.654   9.652   0.965
57884W        W26214  13.166  30.994   3.764
57885W        W26215  30.497  11.244  14.333
57886W        W26216  16.109   1.432   0.454
57887W        W26217  39.833  28.443  13.367
57888W        W26218  19.040  17.555  14.792
57889W        W26219  33.978   3.313  12.991
57890W        W26220  13.206  17.065   0.798
57891W        W26221  35.899  14.815  11.525
57892W        W26222  43.513  22.532  12.551
57893W        W26223   6.422  11.729  12.550
57894W        W26224  32.480  15.128   4.181
57895W        W26225  43.771  35.448   1.278
57896W        W26226  17.675  26.558   2.385
57897W        W26227   4.440  20.577   4.751
57898W        W26228  22.151  12.285  12.980
57899W        W26229   1.446  32.587   1.433
57900W        W26230  22.546  30.033  14.506
57901W        W26231  26.983  27.991   9.979
57902W        W26232  43.342  13.656  12.555
57903W        W26233   5.730  16.097   2.395
57904W        W26234  26.668  29.140  13.952
57905W        W26235   4.287   2.460  10.576
57906W        W26236  39.556   8.251  11.542
57907W        W26237   3.461  13.830   3.294
57908W        W26238  31.954  19.152  14.782
57909W        W26239  13.253  29.621  13.807
57910W        W26240  43.482  21.031   1.758
57911W        W26241  12.281  35.430   2.307
57912W        W26242  35.516  43.888  10.497
57913W        W26243   9.858   5.789   1.258
57914W        W26244  31.474  34.968  14.011
57915W        W26245  30.570  26.474   5.122
57916W        W26246  41.819  20.260   3.811
57917W        W26247  29.494  11.835   1.860
57918W        W26248   2.754  29.038  11.092
57919W        W26249   4.414  20.667   4.273
57920W        W26250   8.370  10.876   3.227
57921W        W26251  37.452  43.866  14.908
57922W        W26252  33.059  15.292  14.319
57923W        W26253  21.635  20.263   3.647
57924W        W26254  20.584  13.309   4.733
57925W        W26255  32.912  40.841   3.254
57926W        W26256   8.749  22.502   1.916
57927W        W26257   4.709  20.178  14.312
57928W        W26258   6.341  18.157   1.237
57929W        W26259  18.184  15.318  11.994
57930W        W26260  41.394   1.443  13.374
57931W        W26261  36.078   4.208  13.399
57932W        W26262  42.357  17.274  13.387
57933W        W26263  37.431   4.281   1.811
57934W        W26264  43.303   8.676   1.357
57935W        W26265  36.380  44.374  10.597
57936W        W26266   2.857   5.917   2.705
57937W        W26267  44.358  21.677   1.771
57938W        W26268  21.600   5.812  11.388
57939W        W26269  20.635  32.955  11.431
57940W        W26270  20.155  39.458  11.095
57941W        W26271  19.056  38.426   2.741
57942W        W26272   6.297   1.429  10.424
57943W        W26273  16.601  37.015  11.517
57944W        W26274  22.234  34.422   2.323
57945W        W26275  30.130  35.533   3.830
57946W        W26276  32.992  29.025  13.450
57947W        W26277  31.541  33.612  13.057
57948W        W26278  31.535  29.027   0.381
57949W        W26279  43.998  42.836   4.704
57950W        W26280  44.261  38.433   4.308
57951W        W26281  22.739  17.773  12.376
57952W        W26282  19.116  18.744  11.890
57953W        W26283  24.546   3.932  14.897
57954W        W26284  44.262   4.928   3.331
57955W        W26285  43.487  38.552   3.301
57956W        W26286  15.596  15.254   4.307
57957W        W26287  13.693   0.874  14.933
57958W        W26288   2.409  23.650  11.032
57959W        W26289   6.691  15.187   0.376
57960W        W26290  43.958  15.304  10.558
57961W        W26291   1.422   6.713  13.410
57962W        W26292  34.463  18.170  11.501
57963W        W26293  28.465   8.727  12.490
57964W        W26294  44.919  31.012   3.639
57965W        W26295  14.305  11.650   2.814
57966W        W26296  28.106  42.014   2.734
57967W        W26297  26.558  39.503   3.632
57968W        W26298  22.173  33.058  12.489
57969W        W26299  17.729  24.157  11.573
57970W        W26300  36.469  31.981  13.479
57971W        W26301  35.023  31.138  10.473
57972W        W26302  19.723  44.490   2.673
57973W        W26303   5.424   9.885  10.599
57974W        W26304  18.254  25.648   9.547
57975W        W26305  31.907  36.061   3.381
57976W        W26306  10.313  18.064   2.293
57977W        W26307   1.791  37.472  14.410
57978W        W26308  12.270  42.786   4.226
57979W        W26309   0.459   1.417  14.513
57980W        W26310  34.939  10.277  10.500
57981W        W26311  22.636  15.639   1.255
57982W        W26312   9.337  11.839   5.167
57983W        W26313  29.097  12.338  14.888
57984W        W26314   9.875  22.718   1.212
57985W        W26315   9.786  24.545  10.600
57986W        W26316  13.237  28.513  13.803
57987W        W26317  40.512   1.883  14.414
57988W        W26318  18.737  14.274  11.488
57989W        W26319  30.642  35.064  12.557
57990W        W26320  13.306  13.660   2.712
57991W        W26321  26.994  30.555   0.790
57992W        W26322  14.748  15.587  10.522
57993W        W26323  20.221  27.122   2.676
57994W        W26324  23.663  27.528   4.154
57995W        W26325  28.181  30.463   4.140
57996W        W26326   3.784  13.730  12.371
57997W        W26327   5.712  17.247  10.557
57998W        W26328  36.518   4.362  12.845
57999W        W26329  31.039  18.126   2.328
58000W        W26330  32.011  33.518   3.803
58001W        W26331  24.655  27.126   4.197
58002W        W26332  21.193  22.665   0.427
58003W        W26333  39.326  33.588   2.763
58004W        W26334  15.760  13.196  11.036
58005W        W26335  27.462   0.770  11.887
58006W        W26336  40.021  44.310   4.264
58007W        W26337  19.198  44.411  11.451
58008W        W26338  39.957   7.669   3.379
58009W        W26339  27.177  16.220   3.179
58010W        W26340   5.346  25.031   3.712
58011W        W26341  30.000  18.115   0.893
58012W        W26342  27.658  28.068  11.895
58013W        W26343  36.964  23.057   1.908
58014W        W26344  29.470  22.615  10.929
58015W        W26345  41.859  35.370   3.157
58016W        W26346  38.835   4.848   1.213
58017W        W26347  10.212  11.740  13.036
58018W        W26348  20.033   9.700  10.427
58019W        W26349  13.209  31.077  11.566
58020W        W26350  35.075  30.600  10.474
58021W        W26351  33.446   7.183  11.106
58022W        W26352  20.558  33.614  11.989
58023W        W26353   1.438   2.449   1.804
58024W        W26354   6.211  26.698  12.007
58025W        W26355  16.801  23.510   0.836
58026W        W26356  36.405   1.429   4.121
58027W        W26357  24.715   8.683  11.459
58028W        W26358  33.910  31.578  13.458
58029W        W26359   2.409  24.153  10.905
58030W        W26360   3.387  19.108  11.532
58031W        W26361  42.395  42.809  11.575
58032W        W26362  17.070  24.195  13.880
58033W        W26363   9.290   5.878  13.383
58034W        W26364  21.162  13.336  14.480
58035W        W26365  43.875  23.200   1.346
58036W        W26366   1.968  19.081   0.286
58037W        W26367  20.550   4.904   4.193
58038W        W26368  33.392  16.757  10.505
58039W        W26369  43.351   4.237   1.707
58040W        W26370   6.798  10.146  12.580
58041W        W26371   9.341  23.502  14.374
58042W        W26372  21.605   7.694   1.298
58043W        W26373  38.892  26.702  11.590
58044W        W26374  34.560  28.987   4.266
58045W        W26375   4.376  13.680   1.233
58046W        W26376  23.602  26.064   4.262
58047W        W26377   2.408  43.809   4.152
58048W        W26378   1.465   0.286  10.468
58049W        W26379  21.124   6.851   4.788
58050W        W26380  34.510   5.849  14.858
58051W        W26381  32.545  41.023   3.353
58052W        W26382  18.569  26.565   3.866
58053W        W26383   5.350  23.527  13.350
58054W        W26384  29.130  29.556   0.793
58055W        W26385  30.013  10.662   0.899
58056W        W26386   8.282   0.463  14.325
58057W        W26387   3.779  15.271   0.856
58058W        W26388  17.164  21.047  14.408
58059W        W26389  37.491  22.141  10.641
58060W        W26390  11.621   7.833   2.347
58061W        W26391  35.060  39.960  12.055
58062W        W26392  19.724  15.743   3.790
58063W        W26393   4.352  15.752   2.735
58064W        W26394  20.183   3.324  13.457
58065W        W26395  26.000  11.745  14.329
58066W        W26396  40.483  26.623   1.338
58067W        W26397  43.436  18.283   3.721
58068W        W26398  18.715  43.373   4.806
58069W        W26399   0.484  36.421  14.386
58070W        W26400  20.689  15.268   2.380
58071W        W26401  14.716   5.720  12.981
58072W        W26402  27.009  28.659   2.734
58073W        W26403  28.596  22.248  11.017
58074W        W26404  30.464  30.058  13.424
58075W        W26405  37.002  44.815   0.324
58076W        W26406   4.338   5.779  12.844
58077W        W26407  18.564  42.391   1.842
58078W        W26408   4.289  27.453  12.487
58079W        W26409  31.970   3.342   3.220
58080W        W26410  10.291  26.130  10.894
58081W        W26411  24.996   3.939  12.923
58082W        W26412  16.158   5.863  12.044
58083W        W26413  42.481  26.160   1.798
58084W        W26414  37.038  23.187   3.371
58085W        W26415  26.182  28.049  12.845
58086W        W26416  37.063  19.047  14.862
58087W        W26417  17.704  11.785   2.319
58088W        W26418  13.795   5.365   4.347
58089W        W26419   8.263   9.170   4.304
58090W        W26420   8.313  43.926  11.533
58091W        W26421  26.157   6.283  14.283
58092W        W26422   9.791  44.408   1.448
58093W        W26423  41.479  35.978  13.848
58094W        W26424  38.072  19.592  13.885
58095W        W26425  43.471  15.117  12.994
58096W        W26426  37.005   9.266  13.523
58097W        W26427  28.976  12.789   1.403
58098W        W26428  26.456  17.176   1.426
58099W        W26429  35.057  16.762   4.638
58100W        W26430  21.235   1.310   3.663
58101W        W26431  44.365  32.989   0.442
58102W        W26432   7.755  37.852  13.804
58103W        W26433  32.121   1.776   3.767
58104W        W26434  27.005   2.294  12.823
58105W        W26435   5.295   4.797  13.448
58106W        W26436  22.553  33.901   4.638
58107W        W26437   9.227   4.775   2.715
58108W        W26438   9.817  44.457   0.739
58109W        W26439  32.897  25.569   3.316
58110W        W26440  24.479  25.148  10.480
58111W        W26441  31.488   0.856   1.726
58112W        W26442  30.133   8.817  13.044
58113W        W26443  11.734  15.315  12.988
58114W        W26444  35.570   7.727   0.339
58115W        W26445  31.101  39.017  14.028
58116W        W26446  37.511   4.918  12.475
58117W        W26447  40.349   6.690   0.397
58118W        W26448   1.959  30.136  10.537
58119W        W26449  41.966  10.278  11.491
58120W        W26450  15.207  18.242   1.382
58121W        W26451  21.714  37.532   3.200
58122W        W26452  28.025  18.570   3.161
58123W        W26453  14.706   5.322   4.301
58124W        W26454  40.942  36.036  10.988
58125W        W26455  24.549  28.488  13.016
58126W        W26456  27.564  18.556   3.267
58127W        W26457   2.359  27.121   1.797
58128W        W26458  15.283  42.795  14.372
58129W        W26459  42.451  31.961  13.368
58130W        W26460   2.730   3.411   5.194
58131W        W26461  33.040  26.127  10.405
58132W        W26462  29.579  22.585  10.084
58133W        W26463  34.439  16.161  11.935
58134W        W26464   1.823  37.985  14.338
58135W        W26465  32.637   1.741   4.279
58136W        W26466   6.824  42.346  14.366
58137W        W26467  44.862  38.845  11.865
58138W        W26468  25.632   0.365   3.349
58139W        W26469   6.764  38.951   0.252
58140W        W26470  40.321  16.212   4.114
58141W        W26471  31.034  12.789  12.929
58142W        W26472   6.790   9.189  14.291
58143W        W26473  33.888  21.594  14.936
58144W        W26474  28.179  31.505  13.348
58145W        W26475   0.406  41.005  13.001
58146W        W26476  12.312   1.737   4.267
58147W        W26477  38.455  18.174   1.361
58148W        W26478  23.207  38.828  13.329
58149W        W26479  12.719   4.787   3.363
58150W        W26480  18.234  39.385  13.367
58151W        W26481  32.085  32.077   4.280
58152W        W26482  10.193  33.104  12.092
58153W        W26483  30.570  42.511   3.816
58154W        W26484  44.790  17.277   4.633
58155W        W26485   3.337  32.085  14.804
58156W        W26486   8.845  27.015   1.295
58157W        W26487  28.946  39.527  13.361
58158W        W26488  23.685  27.156   4.788
58159W        W26489  41.349  23.209   4.740
58160W        W26490   5.870   7.219   0.747
58161W        W26491  12.234   6.701  14.818
58162W        W26492   0.302  22.166   2.735
58163W        W26493  31.960   0.444   0.353
58164W        W26494  23.184  34.935   1.775
58165W        W26495   2.744   0.331   1.300
58166W        W26496  32.946  25.037  10.915
58167W        W26497  27.497  36.009  14.432
58168W        W26498  23.024  10.356  13.997
58169W        W26499  32.142   3.432   1.365
58170W        W26500  25.177  28.082   2.209
58171W        W26501  29.024  16.103  13.464
58172W        W26502  23.149  13.155   1.399
58173W        W26503  18.131   6.858  12.398
58174W        W26504  44.785  16.689  11.420
58175W        W26505  16.706  32.086  13.325
58176W        W26506   2.428  35.584  11.874
58177W        W26507  34.431  28.106   1.326
58178W        W26508  41.416   4.853  11.125
58179W        W26509  26.531   8.191  14.763
58180W        W26510  38.457  20.695   3.666
58181W        W26511  18.190  13.765  10.476
58182W        W26512  43.478  12.290  11.559
58183W        W26513  33.613  32.953   3.322
58184W        W26514  32.539  21.721  10.001
58185W        W26515  35.911  18.604   1.395
58186W        W26516   9.786  18.692   4.217
58187W        W26517  35.890  40.360   4.656
58188W        W26518  16.666   3.824   2.700
58189W        W26519  42.413   2.375   3.306
58190W        W26520  43.808  43.849  13.539
58191W        W26521  14.755  18.077   2.396
58192W        W26522  40.415  14.247  12.866
58193W        W26523  25.700  26.459   1.431
58194W        W26524  27.126  18.136  11.462
58195W        W26525  12.163  26.698   4.697
58196W        W26526  37.895  31.079  13.353
58197W        W26527   6.378  37.380  10.151
58198W        W26528  28.594  23.524   0.462
58199W        W26529  40.383  19.203  11.899
58200W        W26530   5.876  30.003  13.315
58201W        W26531  34.907  39.470   2.357
58202W        W26532   1.300  40.470  13.310
58203W        W26533  30.150  23.204   1.274
58204W        W26534  10.837  26.994  13.404
58205W        W26535  29.084  11.729   4.746
58206W        W26536  16.218  41.417   4.813
58207W        W26537  27.145  12.747  11.081
58208W        W26538   2.821  23.194   4.736
58209W        W26539  38.353  18.140  13.807
58210W        W26540   4.214   0.957  12.054
58211W        W26541  27.943  29.944   3.168
58212W        W26542   8.772  24.188   4.117
58213W        W26543   6.731  41.808   0.287
58214W        W26544   7.687  12.777  14.454
58215W        W26545  12.851   1.237   1.362
58216W        W26546  40.833  16.764   1.753
58217W        W26547  10.235  36.019   1.924
58218W        W26548  20.742  21.738   0.733
58219W        W26549   5.206  44.980  13.393
58220W        W26550  24.660  22.745   1.263
58221W        W26551  20.139   1.467   3.155
58222W        W26552  40.475   2.939  12.903
58223W        W26553   5.354  41.991   3.262
58224W        W26554   3.393  32.128   0.824
58225W        W26555  35.462  18.567  14.492
58226W        W26556  15.822  25.078  14.453
58227W        W26557  16.172   0.270  10.937
58228W        W26558  42.778  22.115   2.418
58229W        W26559   1.416   6.722   0.946
58230W        W26560  29.957   5.404   3.369
58231W        W26561  21.182  19.226  14.875
58232W        W26562  27.584  34.003   3.790
58233W        W26563  41.436  11.664  10.973
58234W        W26564  24.591  11.718  13.815
58235W        W26565  26.476  18.274  11.081
58236W        W26566  40.495  16.131  12.437
58237W        W26567  28.576  30.624  10.551
58238W        W26568  40.352  44.886  12.053
58239W        W26569   8.876  40.325   3.795
58240W        W26570  42.345  32.590   1.924
58241W        W26571  19.080  15.787   0.871
58242W        W26572  10.768  18.225   3.857
58243W        W26573  30.486  41.971   1.800
58244W        W26574   4.710  36.545  14.808
58245W        W26575  26.620  23.998  14.882
58246W        W26576  40.398  36.463  11.027
58247W        W26577  44.327  44.387  11.422
58248W        W26578  37.500  32.004  11.427
58249W        W26579  18.241  38.333   4.726
58250W        W26580  40.474  26.982  12.443
58251W        W26581   2.930  29.509   4.727
58252W        W26582  11.248  24.981   3.350
58253W        W26583  33.014  42.324   1.213
58254W        W26584  37.004  29.121   0.817
58255W        W26585  44.976   3.886  12.560
58256W        W26586   3.851   5.707   2.189
58257W        W26587  26.064  40.013  11.612
58258W        W26588   1.341   7.351   3.173
58259W        W26589  21.049  40.960   3.758
58260W        W26590  40.353   0.974   2.885
58261W        W26591  18.745   4.285  13.882
58262W        W26592  27.473   7.173   0.913
58263W        W26593   1.299  43.947   4.793
58264W        W26594  20.123   8.287  13.980
58265W        W26595  15.099  14.121   0.337
58266W        W26596  10.790  11.832  12.367
58267W        W26597  21.554  37.474   0.443
58268W        W26598  17.771   2.951   3.329
58269W        W26599  23.511  23.170   3.768
58270W        W26600  40.831  14.813   2.206
58271W        W26601   2.758  30.564  13.879
58272W        W26602  13.186  36.421  13.413
58273W        W26603  10.240  20.061  12.919
58274W        W26604  11.805  12.723  11.606
58275W        W26605  30.150  30.605  13.967
58276W        W26606  26.538  25.498  13.364
58277W        W26607  40.528  36.571   4.304
58278W        W26608  17.176   9.847  12.010
58279W        W26609  24.723  11.216  10.547
58280W        W26610  21.227   2.748  11.124
58281W        W26611  25.670   2.878  12.894
58282W        W26612  18.708   3.824   0.785
58283W        W26613   4.827  41.512  14.839
58284W        W26614  37.509  44.913  12.545
58285W        W26615  27.161  35.440   3.150
58286W        W26616   8.807  38.031   0.845
58287W        W26617  41.010   1.972   4.722
58288W        W26618  38.876  35.596  11.095
58289W        W26619   3.737  13.706  13.341
58290W        W26620  17.765   3.327  12.915
58291W        W26621  11.767  10.255  10.069
58292W        W26622  22.590  18.693   0.290
58293W        W26623  42.775  37.575  14.777
58294W        W26624  40.927  19.233   4.647
58295W        W26625  13.148  32.631  12.962
58296W        W26626  22.143  34.952   2.877
58297W        W26627  41.482  43.330  11.100
58298W        W26628  11.674  17.226  12.437
58299W        W26629  44.490  20.573  14.287
58300W        W26630  42.010  30.933  10.406
58301W        W26631  39.053   8.707   2.184
58302W        W26632   2.467  41.015   3.780
58303W        W26633  14.273   6.208  14.343
58304W        W26634  22.129  36.539   2.198
58305W        W26635  36.393  26.169   4.189
58306W        W26636  31.630   9.293  13.452
58307W        W26637   4.941  39.023  12.999
58308W        W26638  30.101  15.221   2.863
58309W        W26639  35.992   2.358   1.726
58310W        W26640  33.896  44.486   0.834
58311W        W26641  15.599  10.751   3.199
58312W        W26642  31.529  18.572   2.714
58313W        W26643  36.495   3.944  10.477
58314W        W26644  27.018   4.859   3.634
58315W        W26645  36.082   5.244  11.970
58316W        W26646  43.480  18.197   2.349
58317W        W26647  25.694  18.717   1.223
58318W        W26648   7.397   8.401   0.481
58319W        W26649  10.666  11.771  11.924
58320W        W26650  28.077  44.282  12.989
58321W        W26651  30.464  43.906   0.279
58322W        W26652  32.569  25.062   0.922
58323W        W26653  26.506   1.779  11.053
58324W        W26654  19.049  19.097  14.862
58325W        W26655  30.011  41.032   0.267
58326W        W26656  15.307  26.661   4.722
58327W        W26657   5.220  14.611  14.324
58328W        W26658  34.603  11.287   1.371
58329W        W26659  31.952  42.884   5.101
58330W        W26660  28.544  14.166  11.611
58331W        W26661  11.701  18.136  10.951
58332W        W26662  29.516  17.243   4.186
58333W        W26663  32.581   4.431   0.410
58334W        W26664  39.835   1.357   2.208
58335W        W26665  38.926   2.429  13.526
58336W        W26666  20.107  14.802  10.907
58337W        W26667  11.806   3.926  12.438
58338W        W26668  14.301  23.529  12.951
58339W        W26669  40.497  11.174   1.725
58340W        W26670  43.821  35.003  11.605
58341W        W26671  32.575   4.807   4.231
58342W        W26672  15.603  33.099  14.281
58343W        W26673  44.474  14.779  11.068
58344W        W26674   9.250  21.514  11.489
58345W        W26675  13.110  16.645   3.709
58346W        W26676   6.403   2.798  10.900
58347W        W26677  31.959   8.166  13.008
58348W        W26678  34.610  20.645   2.815
58349W        W26679  43.780   7.867  13.936
58350W        W26680  22.181  11.780  12.949
58351W        W26681   0.801  10.300  10.003
58352W        W26682  12.175  27.157  14.881
58353W        W26683  12.743  31.581   1.724
58354W        W26684  31.466  34.905  11.536
58355W        W26685  39.921  29.962  10.516
58356W        W26686  44.824  39.455  14.500
58357W        W26687  42.459   1.482   0.751
58358W        W26688  29.551   9.196  10.909
58359W        W26689   1.965  41.526  11.382
58360W        W26690   8.893   7.245   2.835
58361W        W26691  28.940  23.715  10.541
58362W        W26692  15.315  44.794   3.851
58363W        W26693   2.463   1.408   3.365
58364W        W26694  21.613   1.399  10.472
58365W        W26695  26.081  33.947   2.882
58366W        W26696   9.859  24.998  11.538
58367W        W26697  44.910  27.526  13.362
58368W        W26698  38.886   7.825  13.930
58369W        W26699  29.929   3.931  12.926
58370W        W26700   4.782  35.895   0.829
58371W        W26701   9.848   8.866   5.202
58372W        W26702  43.787  13.728  10.597
58373W        W26703  17.288  35.401   9.571
58374W        W26704  21.676  42.924   3.272
58375W        W26705  22.015  10.221   2.348
58376W        W26706  26.003  16.721  12.386
58377W        W26707  30.994   7.679   3.772
58378W        W26708   2.801   8.737  11.864
58379W        W26709  15.222   8.279  10.934
58380W        W26710  40.483  38.838  13.528
58381W        W26711  38.382  13.637  11.384
58382W        W26712  38.360  27.617  11.456
58383W        W26713  19.145   6.880  10.960
58384W        W26714  18.550  37.361   2.323
58385W        W26715   0.448   6.230  12.477
58386W        W26716  14.829  21.646   4.824
58387W        W26717  34.518  41.529   0.306
58388W        W26718   5.422  15.277   3.180
58389W        W26719  17.722  17.574  11.414
58390W        W26720   2.887  19.656   4.750
58391W        W26721   9.811  25.141   3.693
58392W        W26722  16.182  18.293   1.330
58393W        W26723  37.538  14.227   0.794
58394W        W26724   1.474  25.505  11.542
58395W        W26725  18.170  38.868  12.504
58396W        W26726  22.120  37.919  13.327
58397W        W26727   2.781  37.898   4.223
58398W        W26728  24.597  35.535   1.216
58399W        W26729   5.813  31.569   0.769
58400W        W26730  14.655  39.957  14.327
58401W        W26731  44.927   2.369   3.261
58402W        W26732  24.494  33.548   3.768
58403W        W26733   7.750  13.803  14.993
58404W        W26734  18.790  21.711  14.929
58405W        W26735  30.503  32.102  11.969
58406W        W26736  19.702  26.497   3.261
58407W        W26737  33.591  18.137   4.302
58408W        W26738  21.025  38.056  10.937
58409W        W26739  10.243   8.264   4.351
58410W        W26740  16.277  43.992   2.375
58411W        W26741  14.159  16.281   5.215
58412W        W26742  15.711   5.267   0.431
58413W        W26743  34.003   6.377  13.391
58414W        W26744   7.904  13.816  10.896
58415W        W26745  36.557  27.685  10.953
58416W        W26746  28.471  44.803  14.797
58417W        W26747   7.764  44.427   3.305
58418W        W26748  18.080  13.334   2.262
58419W        W26749  35.977   0.903  11.069
58420W        W26750  43.784  40.993   4.141
58421W        W26751  37.426  37.473  12.366
58422W        W26752   2.846  32.990  10.986
58423W        W26753  13.248  34.420   2.716
58424W        W26754  11.841  27.610   2.204
58425W        W26755  15.178  44.398  10.933
58426W        W26756  23.717   4.712  12.412
58427W        W26757   2.372   9.357   4.605
58428W        W26758  28.478   3.392  11.472
58429W        W26759   5.884  20.254  14.300
58430W        W26760  27.107  25.545  11.976
58431W        W26761  16.079   4.230  11.126
58432W        W26762   2.728  42.285   1.251
58433W        W26763   5.808  18.546  10.568
58434W        W26764  41.030  38.966  11.401
58435W        W26765   0.753  36.480  13.394
58436W        W26766   7.779  44.352   5.238
58437W        W26767  26.565  41.901  13.998
58438W        W26768  11.771   3.928  11.550
58439W        W26769   4.814  14.684   4.739
58440W        W26770  37.481  35.030   4.140
58441W        W26771  43.410  36.572   4.703
58442W        W26772  39.007  30.068  14.331
58443W        W26773  41.027   2.433  13.450
58444W        W26774  30.008  41.840   4.646
58445W        W26775  22.139  14.283   4.232
58446W        W26776  36.516  36.036   1.713
58447W        W26777   8.405  19.179  12.572
58448W        W26778  27.447   0.346  11.963
58449W        W26779  38.863  39.942  11.121
58450W        W26780  25.151  10.696   4.302
58451W        W26781  40.501  11.279   1.322
58452W        W26782  14.180  16.281   1.272
58453W        W26783   7.208  17.680   4.245
58454W        W26784  18.286   3.298   0.329
58455W        W26785  35.873   4.437  14.844
58456W        W26786  24.605  17.790   4.288
58457W        W26787  25.554  30.978   4.123
58458W        W26788  23.580  17.223   1.301
58459W        W26789   6.688  27.612   2.405
58460W        W26790   3.441   5.221  14.936
58461W        W26791   5.207   1.469  14.400
58462W        W26792  15.603  14.670   3.234
58463W        W26793  22.187  32.926   2.863
58464W        W26794  38.472  35.082   4.830
58465W        W26795  41.407  22.551  10.551
58466W        W26796  33.076  39.889  13.817
58467W        W26797  15.788  34.098  10.128
58468W        W26798  22.122  41.899   2.369
58469W        W26799  14.104  11.152   0.376
58470W        W26800  12.840  19.697  14.318
58471W        W26801  27.690   6.893  11.026
58472W        W26802   5.373  42.884  14.954
58473W        W26803  31.135   4.249   1.805
58474W        W26804  44.389  11.651  12.384
58475W        W26805  43.319  42.290  13.005
58476W        W26806  15.760   6.869  10.143
58477W        W26807  13.794  16.089   3.710
58478W        W26808  25.195  12.180   3.244
58479W        W26809  14.615  14.664  14.834
58480W        W26810  14.307   8.307  13.795
58481W        W26811  43.436  16.777  13.988
58482W        W26812  32.584  21.748   2.860
58483W        W26813  32.010  38.826   4.830
58484W        W26814  15.325  24.202  11.014
58485W        W26815  10.175  23.575  10.074
58486W        W26816  30.528  32.917   2.806
58487W        W26817  33.985  41.865   0.829
58488W        W26818   3.336  27.641  12.381
58489W        W26819   9.167  12.668  12.070
58490W        W26820  12.311  37.531   1.382
58491W        W26821  13.725  14.186   2.295
58492W        W26822  21.171  18.124  13.049
58493W        W26823  33.079  33.556   3.836
58494W        W26824  12.298  35.982  13.921
58495W        W26825  40.547  10.183   2.798
58496W        W26826  22.085  18.638   0.289
58497W        W26827   6.703  21.675   1.773
58498W        W26828  32.901  30.940   1.768
58499W        W26829  18.061  18.652  14.297
58500W        W26830  19.735   8.655   5.176
58501W        W26831  24.194  34.020   0.937
58502W        W26832  40.323  41.831   3.636
58503W        W26833   8.233  10.636   4.704
58504W        W26834  22.648  20.582  14.509
58505W        W26835   2.947  26.168   3.161
58506W        W26836  37.397  25.068   4.172
58507W        W26837  32.130  26.577   0.795
58508W        W26838  41.032  21.562  11.870
58509W        W26839  32.053  28.064   1.769
58510W        W26840  44.816  20.715   3.222
58511W        W26841  44.815  33.082  10.986
58512W        W26842  25.625  18.148  10.023
58513W        W26843  35.363  20.639   4.273
58514W        W26844   5.889   5.330  10.921
58515W        W26845  38.369  36.357   3.857
58516W        W26846  42.364  40.054  13.043
58517W        W26847  22.152  43.013   4.138
58518W        W26848  16.128  35.012   4.116
58519W        W26849  26.621  18.625   4.665
58520W        W26850  14.141  44.484  11.014
58521W        W26851  24.163  25.587  14.472
58522W        W26852  37.021   4.895  12.393
58523W        W26853   5.332  33.919  11.941
58524W        W26854  32.443  21.060  13.529
58525W        W26855  17.697   1.749  10.887
58526W        W26856  12.266  18.745   3.154
58527W        W26857   5.914  21.033  10.155
58528W        W26858  14.794   9.712   0.864
58529W        W26859   2.893  28.550   1.232
58530W        W26860  19.740  31.454   0.290
58531W        W26861  28.931  12.743  13.480
58532W        W26862   3.880  36.930   1.255
58533W        W26863  24.979  31.456   1.876
58534W        W26864  23.613  37.342   1.775
58535W        W26865   1.305  40.525   3.788
58536W        W26866  20.087   7.877   0.244
58537W        W26867   2.860  15.222   2.756
58538W        W26868  19.627  39.929   0.294
58539W        W26869   8.276  37.027  13.795
58540W        W26870  17.743  36.095   3.249
58541W        W26871  12.299   6.303   4.795
58542W        W26872  12.821   8.662  12.022
58543W        W26873   2.454  43.458  12.375
58544W        W26874   5.250  15.124  11.409
58545W        W26875  30.560  33.569   2.185
58546W        W26876  25.123  10.175   1.869
58547W        W26877  15.239  39.859   4.617
58548W        W26878  18.589  31.450  14.504
58549W        W26879  37.053  21.042   0.898
58550W        W26880  26.191   1.416  10.627
58551W        W26881   5.374  43.892   0.301
58552W        W26882   5.330   4.385  13.986
58553W        W26883   3.724  29.972  13.489
58554W        W26884   5.372  41.937  13.347
58555W        W26885   5.768  15.756  11.003
58556W        W26886  26.481   1.332  13.013
58557W        W26887  15.119  18.544  13.825
58558W        W26888  29.639  23.661   2.847
58559W        W26889   4.339   8.252  11.879
58560W        W26890  10.229  19.072  12.949
58561W        W26891  25.078   4.898  13.353
58562W        W26892  10.383   7.666  12.550
58563W        W26893   3.222  38.838  12.962
58564W        W26894  18.679  32.987   4.694
58565W        W26895  25.590  42.419   2.681
58566W        W26896  41.978  24.571   2.858
58567W        W26897   1.344   8.827   1.772
58568W        W26898  43.832   0.446  10.545
58569W        W26899  26.590   9.258   1.439
58570W        W26900   1.421  31.548   0.831
58571W        W26901   4.247  15.787  12.451
58572W        W26902  29.502  41.817   0.396
58573W        W26903  21.724  31.449   2.874
58574W        W26904  18.153  24.627   1.741
58575W        W26905  13.800   2.424   0.883
58576W        W26906  18.744   7.838  11.454
58577W        W26907  41.472  16.573   4.344
58578W        W26908   0.948  16.283  14.023
58579W        W26909   2.816  10.302   4.763
58580W        W26910   4.702  17.118  11.963
58581W        W26911   7.787   5.871  12.844
58582W        W26912  28.119  41.968   4.299
58583W        W26913  30.066  42.839   1.908
58584W        W26914  18.716   8.673  12.435
58585W        W26915  39.520   7.243  13.414
58586W        W26916  26.185   2.884  11.005
58587W        W26917  30.004  24.593   0.265
58588W        W26918  40.468  31.038  14.012
58589W        W26919   0.289  35.097   0.840
58590W        W26920   3.782  41.467   0.909
58591W        W26921  35.092  34.879  13.856
58592W        W26922  44.329  33.032  12.359
58593W        W26923  16.168  24.999  12.529
58594W        W26924  34.436  41.529  12.912
58595W        W26925  40.307  18.691  10.615
58596W        W26926  12.304  23.985   4.603
58597W        W26927  33.498   8.281  11.480
58598W        W26928  33.559   4.207   4.741
58599W        W26929  12.779  12.353   0.853
58600W        W26930  32.466  21.251  10.539
58601W        W26931  15.639  33.038  10.510
58602W        W26932  23.225  15.306  11.424
58603W        W26933  34.058  31.597   0.376
58604W        W26934  35.534  18.630   2.357
58605W        W26935  11.626   2.921  11.099
58606W        W26936  39.339  26.536   2.261
58607W        W26937   4.368  10.345   1.267
58608W        W26938  22.664   9.304  13.866
58609W        W26939  14.192  28.615   0.768
58610W        W26940  12.132  42.352  11.533
58611W        W26941  34.454  30.103  12.428
58612W        W26942  22.701   4.803  12.087
58613W        W26943  35.038   7.872   4.802
58614W        W26944  27.178  12.748   3.686
58615W        W26945  20.767  17.710  10.477
58616W        W26946  44.798  20.737  13.526
58617W        W26947  41.787  32.955   3.745
58618W        W26948  35.914  14.146   1.222
58619W        W26949  23.088  41.936  14.997
58620W        W26950  27.684  22.731  14.482
58621W        W26951  44.993   6.381  13.027
58622W        W26952   2.785   3.403   1.367
58623W        W26953  23.046  31.596  12.476
58624W        W26954  20.700  39.927   4.785
58625W        W26955  31.521  11.732  12.954
58626W        W26956  14.767  42.881   2.195
58627W        W26957  28.068  23.156  14.452
58628W        W26958  32.929  13.610   3.159
58629W        W26959  19.069  32.623  12.388
58630W        W26960   3.409   0.742   0.955
58631W        W26961  22.222  36.092   4.301
58632W        W26962  13.289  42.414  12.386
58633W        W26963  15.292  10.222   2.225
58634W        W26964  28.457   1.297  14.852
58635W        W26965  30.600  18.151  11.536
58636W        W26966  13.324  23.144  14.413
58637W        W26967  14.589  31.426   2.678
58638W        W26968  37.051  17.090   0.431
58639W        W26969   9.845  32.100   4.306
58640W        W26970  17.581   6.832   2.718
58641W        W26971   0.749   7.261   3.793
58642W        W26972  43.804  35.540  10.590
58643W        W26973  31.468  21.580   2.829
58644W        W26974   2.443  18.753   2.371
58645W        W26975  16.274  30.002   1.323
58646W        W26976  19.208  32.469  13.444
58647W        W26977  14.767  31.447  12.467
58648W        W26978  38.404  36.063  12.512
58649W        W26979  37.443  19.578   3.321
58650W        W26980  11.248   3.422   3.752
58651W        W26981  29.510  28.558  14.278
58652W        W26982  29.018  40.970   2.185
58653W        W26983   5.287  39.424   3.745
58654W        W26984  13.182  19.735  14.391
58655W        W26985  41.372   9.162  14.366
58656W        W26986  41.880   5.323  13.352
58657W        W26987  30.511  16.796  11.574
58658W        W26988  32.935  33.110  11.422
58659W        W26989  35.407  11.833   1.891
58660W        W26990  28.537  17.096  10.122
58661W        W26991  23.118  28.992  11.468
58662W        W26992   8.877  36.929  14.803
58663W        W26993   3.921   1.783   3.734
58664W        W26994  37.853  20.738  14.833
58665W        W26995  25.686  25.213   4.286
58666W        W26996  35.396  38.467   4.637
58667W        W26997   2.811  27.005  13.463
58668W        W26998  35.484  37.031   2.859
58669W        W26999   5.897  32.485  10.544
58670W        W27000  10.220  32.892   4.772
58671W        W27001  18.588  39.888   3.322
58672W        W27002  27.026  21.557  10.471
58673W        W27003   2.728  11.835   1.879
58674W        W27004   9.666  41.836  12.826
58675W        W27005  18.217   7.807   1.925
58676W        W27006  12.151  24.083   3.170
58677W        W27007   7.719  32.005   1.243
58678W        W27008  26.951  19.756   3.300
58679W        W27009  29.473  27.536   1.710
58680W        W27010   5.801  17.061  13.032
58681W        W27011  38.341   9.887  13.328
58682W        W27012  32.092  26.152   4.285
58683W        W27013   6.279  39.364  12.823
58684W        W27014  28.069  23.494   4.606
58685W        W27015  36.081   7.768   4.681
58686W        W27016   7.790  11.867  12.962
58687W        W27017  39.835  21.591   2.783
58688W        W27018  38.410  32.089   3.219
58689W        W27019   0.439   7.898   1.388
58690W        W27020   1.782  34.469  12.386
58691W        W27021  31.422   9.855   4.247
58692W        W27022  35.385   6.230   1.290
58693W        W27023  43.309  41.362  13.897
58694W        W27024  10.268  32.135  14.459
58695W        W27025  30.076  37.003   3.761
58696W        W27026   1.855  14.170  10.500
58697W        W27027  23.525  21.128   1.235
58698W        W27028  27.543  15.817  12.359
58699W        W27029  40.004  40.503  14.307
58700W        W27030  33.584  22.222   1.817
58701W        W27031  40.496  28.029  13.834
58702W        W27032  35.383  28.090   0.885
58703W        W27033  15.688  28.966  13.926
58704W        W27034  26.011  30.426   3.339
58705W        W27035   5.231  12.205   1.345
58706W        W27036  26.127  19.756  11.545
58707W        W27037   3.729  36.436   2.804
58708W        W27038  11.718  34.011  10.513
58709W        W27039   9.798  11.312   0.747
58710W        W27040  29.060  42.280  10.901
58711W        W27041  24.501  38.843   1.222
58712W        W27042  12.163  25.658  13.906
58713W        W27043  16.119  39.379  11.425
58714W        W27044  21.535   2.237  11.393
58715W        W27045  35.432   3.341  14.900
58716W        W27046  26.697  34.999   3.680
58717W        W27047  36.444  28.036  10.534
58718W        W27048  33.878  20.253  14.282
58719W        W27049  28.634  16.178   3.226
58720W        W27050  40.538  37.458  13.321
58721W        W27051  23.987  30.634  11.398
58722W        W27052   7.312  19.270  14.764
58723W        W27053   8.382  40.814  11.523
58724W        W27054  21.023  16.115   5.238
58725W        W27055   5.902   5.403   3.639
58726W        W27056  32.980  43.888   1.380
58727W        W27057  18.699  27.125   1.443
58728W        W27058  22.541   6.277   5.186
58729W        W27059   5.729  36.892  11.929
58730W        W27060   5.750   6.277   3.817
58731W        W27061  43.412  13.232   3.630
58732W        W27062  20.140  27.956  11.377
58733W        W27063  18.697   5.729  12.373
58734W        W27064  15.714  12.681   2.388
58735W        W27065   3.307   3.876   0.424
58736W        W27066   7.264  22.190   1.899
58737W        W27067   5.289  15.737  14.868
58738W        W27068  12.615  41.837  11.856
58739W        W27069  23.051   5.712   4.799
58740W        W27070   0.453  23.593  10.604
58741W        W27071  41.292   9.674   3.740
58742W        W27072   7.408  13.232  11.081
58743W        W27073  38.352  13.333  11.380
58744W        W27074  20.266  14.120   4.599
58745W        W27075   9.243  12.848   9.935
58746W        W27076  21.661   4.273  12.020
58747W        W27077  26.162  26.534  14.903
58748W        W27078  43.839  31.586   4.602
58749W        W27079  25.099   4.753  10.571
58750W        W27080  11.666   5.916   4.128
58751W        W27081  44.375   6.896  13.471
58752W        W27082  14.312  14.672   3.835
58753W        W27083  35.925   4.243   4.197
58754W        W27084  42.322  39.421  12.510
58755W        W27085  34.924  15.664   5.160
58756W        W27086   4.909   0.261  11.121
58757W        W27087  15.627  29.560   2.284
58758W        W27088  41.469  40.947   2.703
58759W        W27089  40.914  39.491  13.334
58760W        W27090   6.263   3.462   3.677
58761W        W27091  26.551  32.397  11.946
58762W        W27092  27.170  44.945   1.879
58763W        W27093  34.006   6.242  13.882
58764W        W27094  43.917  34.877   3.179
58765W        W27095   7.177   0.807   1.298
58766W        W27096  26.986   8.730  11.029
58767W        W27097   2.461  18.611  14.463
58768W        W27098  29.037   7.228   0.810
58769W        W27099  32.467   5.223  11.600
58770W        W27100  36.849  12.643  11.584
58771W        W27101  14.634   5.787  10.968
58772W        W27102  33.114  30.950   0.395
58773W        W27103   8.376  42.376   3.303
58774W        W27104  35.376  38.480  11.450
58775W        W27105  39.006  36.034  12.883
58776W        W27106  44.344  37.020  12.871
58777W        W27107   1.279  27.964   1.716
58778W        W27108  26.598  13.147  13.365
58779W        W27109  23.545  43.474  11.020
58780W        W27110  28.020  42.899  11.891
58781W        W27111  25.624  22.740  13.542
58782W        W27112  10.156   3.381  13.803
58783W        W27113  44.961  17.619  12.962
58784W        W27114   8.865  29.031   2.732
58785W        W27115   6.187  35.873  14.915
58786W        W27116  27.140   2.287   2.273
58787W        W27117  18.293  38.442  10.616
58788W        W27118  30.452  42.937   4.313
58789W        W27119  10.298  20.534   1.293
58790W        W27120  21.654  12.648  14.307
58791W        W27121   9.795  21.219   0.410
58792W        W27122  22.740  38.930   5.221
58793W        W27123  13.699  44.346   4.163
58794W        W27124  34.932  19.722   4.170
58795W        W27125   2.793  11.176  12.466
58796W        W27126  14.313  17.285  12.861
58797W        W27127  36.373  24.223   4.838
58798W        W27128  43.873   8.238   4.610
58799W        W27129  41.919  29.959  14.001
58800W        W27130  23.525  16.168  12.522
58801W        W27131  16.142  31.926   9.941
58802W        W27132   5.410  17.104  12.849
58803W        W27133  10.278   8.287   0.451
58804W        W27134   2.838  35.524   9.951
58805W        W27135  30.003  25.174  12.068
58806W        W27136  43.414  21.237   1.399
58807W        W27137  30.441  26.996   1.251
58808W        W27138  36.922  39.974  11.024
58809W        W27139  40.527  22.612  14.500
58810W        W27140  29.015  36.368   1.807
58811W        W27141  28.528  27.455  14.348
58812W        W27142   5.853  15.823   2.882
58813W        W27143  24.651  31.934   3.228
58814W        W27144  23.609   5.418  11.556
58815W        W27145  17.796  24.711   3.316
58816W        W27146  44.395  26.176   2.250
58817W        W27147  32.909   8.203   1.278
58818W        W27148  38.855  20.748  13.853
58819W        W27149  28.100  30.943  12.839
58820W        W27150  34.983  35.509   3.168
58821W        W27151  44.862   4.379  13.921
58822W        W27152  20.535   1.420  12.361
58823W        W27153  44.405  12.236  13.519
58824W        W27154  31.645  38.525   3.858
58825W        W27155   8.822  24.090   3.147
58826W        W27156  21.135  38.023  13.454
58827W        W27157  40.910   3.892  11.077
58828W        W27158   2.744  12.315   4.122
58829W        W27159   8.279  28.150   1.918
58830W        W27160  14.806  20.716   1.210
58831W        W27161  27.194  28.081  11.049
58832W        W27162  40.488  27.462   3.362
58833W        W27163  37.427  15.741  10.603
58834W        W27164   7.285  34.530  11.881
58835W        W27165  17.245  34.608   5.317
58836W        W27166  39.499  20.109  13.424
58837W        W27167  26.167  39.062   4.646
58838W        W27168   8.863   1.835  13.469
58839W        W27169  25.976  28.640  13.530
58840W        W27170   8.725   0.405  11.421
58841W        W27171  37.340  11.773  12.081
58842W        W27172   8.731   6.745   0.425
58843W        W27173  11.805   7.286  14.781
58844W        W27174   9.806  10.793  14.295
58845W        W27175  10.741  18.710  12.960
58846W        W27176   2.338  37.958   2.221
58847W        W27177   3.266  21.052  13.370
58848W        W27178  26.510  15.114   1.844
58849W        W27179   3.783  44.500  14.919
58850W        W27180  41.845  40.947   2.267
58851W        W27181   8.237  34.612   3.311
58852W        W27182   9.837  36.997  13.003
58853W        W27183  30.150  32.013  10.563
58854W        W27184  10.275  34.498  12.549
58855W        W27185  35.859   9.378  14.805
58856W        W27186  27.535  30.135   1.383
58857W        W27187  18.061  21.047  14.002
58858W        W27188   0.436  35.911   3.700
58859W        W27189  23.985  28.082   1.427
58860W        W27190  27.635  32.447  11.442
58861W        W27191  41.516  44.287   0.829
58862W        W27192  20.147  15.221  11.386
58863W        W27193  10.352  32.472  14.391
58864W        W27194  17.772  30.131  11.545
58865W        W27195  36.904   5.395  14.276
58866W        W27196  27.006  42.850   0.738
58867W        W27197  22.017   8.744   4.178
58868W        W27198  33.534  37.391   0.387
58869W        W27199  11.300  11.655  11.045
58870W        W27200   8.681  15.180  13.325
58871W        W27201   8.771  10.306   2.354
58872W        W27202  39.558  19.685  12.964
58873W        W27203  33.999  28.548   4.663
58874W        W27204  25.567   7.241   1.393
58875W        W27205  37.483  29.991   3.170
58876W        W27206  37.535  21.243  11.588
58877W        W27207  39.982  28.493  10.469
58878W        W27208  42.844  18.152  11.989
58879W        W27209  28.554   7.668   1.314
58880W        W27210  39.882   9.292   1.337
58881W        W27211  10.333   0.375  12.097
58882W        W27212  16.318  41.513  11.021
58883W        W27213  38.338  17.665   1.297
58884W        W27214   1.339  33.470  11.530
58885W        W27215  13.698  31.029  10.572
58886W        W27216  39.463  13.121  13.439
58887W        W27217  16.644  29.954   2.366
58888W        W27218  25.658   5.232  14.309
58889W        W27219   0.473  23.994  11.482
58890W        W27220  23.526  42.909   1.743
58891W        W27221  31.937   7.807  12.034
58892W        W27222  30.645  40.922  13.936
58893W        W27223  42.866  42.922  13.424
58894W        W27224  43.501   5.265  14.418
58895W        W27225  11.757  34.928   2.331
58896W        W27226  44.338  13.746  10.887
58897W        W27227  32.483   1.299   1.886
58898W        W27228   3.834  12.775  11.561
58899W        W27229  33.501   6.365  14.980
58900W        W27230  10.775  16.567   2.760
58901W        W27231  33.576  18.647  13.486
58902W        W27232  15.132  36.050  12.942
58903W        W27233  20.669  31.079   5.259
58904W        W27234  35.092   5.379  12.075
58905W        W27235  14.232  19.709   2.833
58906W        W27236  25.589  33.541   2.868
58907W        W27237   2.293  32.449  14.002
58908W        W27238  27.077   7.845  13.351
58909W        W27239   5.738  19.602   2.277
58910W        W27240  25.677   8.259   0.831
58911W        W27241  39.454   1.976  11.114
58912W        W27242  21.579  18.195  10.623
58913W        W27243  10.650  16.203  11.516
58914W        W27244  35.024  19.242  10.470
58915W        W27245  32.069  34.605  11.384
58916W        W27246  43.914  22.704  14.405
58917W        W27247  12.359   7.204  14.887
58918W        W27248  37.548  15.256   3.741
58919W        W27249  24.710  41.403   2.693
58920W        W27250  30.454   2.935   0.733
58921W        W27251  22.673   9.656   5.228
58922W        W27252   8.752  23.534   1.288
58923W        W27253   8.659  12.149  14.477
58924W        W27254  23.198  27.989  12.075
58925W        W27255  33.476  17.154   4.310
58926W        W27256   0.356  11.841  13.548
58927W        W27257  34.096  31.412   0.820
58928W        W27258   1.779  39.379  11.084
58929W        W27259  36.484   2.748   4.837
58930W        W27260  31.912  20.063  13.840
58931W        W27261  26.660  26.687   4.823
58932W        W27262  31.054  20.538  13.993
58933W        W27263  40.333  43.927   0.747
58934W        W27264  31.915  43.282  11.996
58935W        W27265  24.667  42.811  11.444
58936W        W27266  44.490  42.929   2.671
58937W        W27267  34.589  42.973  11.027
58938W        W27268  15.683  37.520   4.789
58939W        W27269  41.485  23.178   3.641
58940W        W27270  14.788  39.983   1.228
58941W        W27271  26.189  21.629   4.186
58942W        W27272  33.057   0.484  13.810
58943W        W27273  33.391  27.502   0.460
58944W        W27274  29.498  29.166   0.276
58945W        W27275  19.571  23.184   1.398
58946W        W27276  17.741  19.151   0.480
58947W        W27277   4.876  29.022   1.410
58948W        W27278   4.840  30.637   3.194
58949W        W27279  32.093  17.242   3.791
58950W        W27280  22.620  13.148  14.021
58951W        W27281  44.441  10.780  13.349
58952W        W27282  15.670  21.615  14.927
58953W        W27283  17.657  44.953  14.394
58954W        W27284  43.480  25.060  11.533
58955W        W27285  28.494  41.981   0.473
58956W        W27286  22.674   5.928   3.209
58957W        W27287  30.419  31.015   1.230
58958W        W27288   4.351  41.442   4.117
58959W        W27289  11.675  38.481  12.372
58960W        W27290   8.173  27.593   3.657
58961W        W27291  28.973   5.752  14.470
58962W        W27292  28.088  20.765   4.340
58963W        W27293  14.753  29.526  14.321
58964W        W27294   9.193  11.203   2.707
58965W        W27295   0.252   0.749  14.291
58966W        W27296  43.854   1.786  12.556
58967W        W27297  38.923  14.835   4.194
58968W        W27298  11.679  38.412  13.832
58969W        W27299  22.123  12.220   0.364
58970W        W27300  31.601  34.602   1.840
58971W        W27301  32.403  43.479  13.898
58972W        W27302   9.150  16.279   3.837
58973W        W27303   5.823  32.452  12.004
58974W        W27304  25.673  14.808  14.941
58975W        W27305   3.873   9.271   2.334
58976W        W27306  15.683   9.830   1.749
58977W        W27307  28.450   7.392   2.760
58978W        W27308  34.953  17.666   4.688
58979W        W27309  27.471  38.943   3.196
58980W        W27310  39.318  31.623  11.425
58981W        W27311  35.452  32.949   0.727
58982W        W27312  20.712  17.245  13.813
58983W        W27313   3.807  23.029   2.317
58984W        W27314   0.491  43.821   0.254
58985W        W27315  35.385   5.316   2.192
58986W        W27316  14.292  14.257  14.501
58987W        W27317  34.494  44.953  12.951
58988W        W27318  32.131  29.061  11.015
58989W        W27319  22.133  18.276   3.191
58990W        W27320   4.821  22.112  12.970
58991W        W27321  13.161  22.183  14.486
58992W        W27322  35.937  10.263   3.851
58993W        W27323  15.124  20.163  11.558
58994W        W27324  16.762   4.785  14.945
58995W        W27325   2.228  31.989   4.617
58996W        W27326  16.651  36.566  14.932
58997W        W27327  44.492  40.343   4.796
58998W        W27328  25.041  32.927   1.750
58999W        W27329  31.578  34.119  10.616
59000W        W27330  40.435  29.071  14.943
59001W        W27331   9.741  36.587   4.243
59002W        W27332  13.734  19.617   4.298
59003W        W27333  43.387  43.979   0.319
59004W        W27334  34.377   3.300   4.243
59005W        W27335  25.494  10.778  14.305
59006W        W27336  22.566  37.055   0.478
59007W        W27337  27.639   3.281   4.179
59008W        W27338   1.924   4.287   0.334
59009W        W27339   6.228  26.175   1.914
59010W        W27340  26.613  34.438  12.514
59011W        W27341  27.450  30.925  13.866
59012W        W27342  40.306  33.617  10.012
59013W        W27343  38.050  26.607  12.425
59014W        W27344  19.727  20.066   9.931
59015W        W27345  17.180  42.778  10.558
59016W        W27346  27.174  33.960  12.881
59017W        W27347  38.886   9.680   1.292
59018W        W27348  28.472  38.439  11.456
59019W        W27349  14.621  25.106   4.630
59020W        W27350  28.534  32.508   2.744
59021W        W27351  28.971   3.757  13.993
59022W        W27352  37.981  36.378  10.638
59023W        W27353  11.695  13.238   0.268
59024W        W27354  43.274  36.989   3.171
59025W        W27355   4.269   7.385  10.482
59026W        W27356   7.886  12.657  11.933
59027W        W27357   2.763   5.806  13.330
59028W        W27358  33.574  33.563  13.477
59029W        W27359  25.626  18.632  10.432
59030W        W27360  41.792  23.730  10.969
59031W        W27361   5.406  20.183  11.902
59032W        W27362  27.501  11.162  10.964
59033W        W27363  10.358   0.838  11.560
59034W        W27364  15.296  38.455  13.469
59035W        W27365  38.047   0.456  12.036
59036W        W27366  37.503  40.864  14.004
59037W        W27367   5.833  44.384   4.291
59038W        W27368  28.589   4.791   4.243
59039W        W27369  36.502  31.552   4.631
59040W        W27370   2.966  41.344  13.538
59041W        W27371  10.809  15.093  14.012
59042W        W27372   7.812   8.318   4.121
59043W        W27373  39.932  44.370   0.895
59044W        W27374  24.613   8.773  11.019
59045W        W27375  26.602  40.378   4.341
59046W        W27376  21.678  18.685   0.284
59047W        W27377  23.492  40.472  14.850
59048W        W27378  34.874   3.885  12.997
59049W        W27379   7.839  40.380  13.309
59050W        W27380  42.406  12.287  12.502
59051W        W27381  20.200  13.316   0.419
59052W        W27382  30.962   8.742  14.939
59053W        W27383   6.846   5.305  11.473
59054W        W27384  26.465  22.087   0.799
59055W        W27385   0.334  15.596  14.021
59056W        W27386  35.598  13.301   3.364
59057W        W27387   8.212  15.594  11.372
59058W        W27388  29.006  13.693   4.133
59059W        W27389  40.852  44.912   4.153
59060W        W27390   8.895   0.816   1.758
59061W        W27391  14.747  42.361   1.324
59062W        W27392  14.296  35.866   3.318
59063W        W27393  13.330  44.316   2.825
59064W        W27394  12.312  24.715   3.162
59065W        W27395  21.699  16.756   0.412
59066W        W27396   7.251  27.086   0.469
59067W        W27397   8.380  32.598  11.889
59068W        W27398  18.210  42.002   1.264
59069W        W27399  24.597  17.649  13.817
59070W        W27400  13.305  44.868  14.312
59071W        W27401  41.431  15.768   0.815
59072W        W27402  17.802   8.833   0.244
59073W        W27403  29.016   4.374  13.966
59074W        W27404   8.853   0.407  11.882
59075W        W27405  25.011  29.531   1.921
59076W        W27406   4.336  34.971  12.889
59077W        W27407  14.094  29.060  10.901
59078W        W27408   1.851  10.659   0.362
59079W        W27409   9.764  13.294  13.473
59080W        W27410  12.758   8.688   4.293
59081W        W27411  32.519  12.323   4.312
59082W        W27412  29.494  26.522  12.079
59083W        W27413   2.277  14.171  12.892
59084W        W27414  33.485  12.671  11.054
59085W        W27415  40.318  40.804  14.470
59086W        W27416  39.838  10.660  14.854
59087W        W27417  33.591  22.662  11.950
59088W        W27418  43.325  16.180   4.648
59089W        W27419  42.028   6.853  11.883
59090W        W27420  36.414  14.682   3.232
59091W        W27421  30.580  22.537   5.702
59092W        W27422  32.031  40.957   2.411
59093W        W27423  39.485  37.475   2.701
59094W        W27424  15.758  10.670  14.294
59095W        W27425  14.240  31.149  11.415
59096W        W27426  24.219  23.569  11.437
59097W        W27427   9.362  22.069   2.211
59098W        W27428   1.939  44.481  11.057
59099W        W27429  12.165   9.720  13.359
59100W        W27430   2.430  25.629  12.948
59101W        W27431  24.658  17.075  14.402
59102W        W27432  29.631   5.765   1.759
59103W        W27433  12.201   8.782  12.994
59104W        W27434  27.608  35.595  11.534
59105W        W27435  33.098  44.921  11.428
59106W        W27436   4.211  44.423  10.040
59107W        W27437  43.437  32.970   4.746
59108W        W27438  40.038   1.822  11.883
59109W        W27439   8.810  19.247   4.791
59110W        W27440  39.559  43.780   2.303
59111W        W27441  24.665  14.147   2.757
59112W        W27442   5.246   4.208   4.736
59113W        W27443  21.164  24.676  13.399
59114W        W27444  25.143   9.253  14.277
59115W        W27445  33.968   1.845  13.913
59116W        W27446   1.456  39.932  14.294
59117W        W27447  16.650  12.217   3.827
59118W        W27448   7.720  32.424  12.493
59119W        W27449  27.686  42.014  13.857
59120W        W27450  26.476   3.949   2.350
59121W        W27451  15.086  16.181   1.696
59122W        W27452   7.731  36.968  11.554
59123W        W27453  15.115  33.389   3.711
59124W        W27454  11.791  10.139   4.253
59125W        W27455  18.678  20.587   3.791
59126W        W27456  12.256   6.781   3.237
59127W        W27457  35.031  38.073   0.818
59128W        W27458   8.686   8.736  10.423
59129W        W27459  24.608   5.722  11.890
59130W        W27460  39.392   6.249   4.640
59131W        W27461  25.709  26.998   2.708
59132W        W27462  14.315   7.273  14.935
59133W        W27463   1.400  44.774  10.589
59134W        W27464  43.836  14.633  12.965
59135W        W27465  14.164  40.407  10.413
59136W        W27466  25.166  18.232   3.774
59137W        W27467  31.935  40.991   0.966
59138W        W27468   2.813  15.769  11.936
59139W        W27469  43.004  20.540   0.872
59140W        W27470  17.793  36.013  12.860
59141W        W27471  21.636   8.716   3.828
59142W        W27472   6.284  35.463   3.687
59143W        W27473  16.782  25.654  10.953
59144W        W27474  38.896  43.904   0.914
59145W        W27475  28.615  17.174   1.900
59146W        W27476  13.223  31.062  14.372
59147W        W27477   8.260  22.570  14.019
59148W        W27478  17.226   2.827  11.946
59149W        W27479  35.035  19.049   1.723
59150W        W27480   0.957  30.538   9.991
59151W        W27481   2.335  36.441   1.735
59152W        W27482   0.454   0.983  13.481
59153W        W27483  29.159   2.412   0.289
59154W        W27484  10.766  44.807   0.338
59155W        W27485   5.351  38.912   0.910
59156W        W27486  36.917  21.219  13.977
59157W        W27487   0.916   3.224  12.520
59158W        W27488  30.630  39.333  10.915
59159W        W27489  10.291  11.688   5.287
59160W        W27490  12.211  32.027   0.347
59161W        W27491  21.680  11.196   2.377
59162W        W27492  39.448   8.657  11.997
59163W        W27493  15.314   4.292  11.447
59164W        W27494  28.635  41.533  10.565
59165W        W27495  13.289  43.382   3.671
59166W        W27496   3.709  27.144   3.710
59167W        W27497   8.715  37.965  13.894
59168W        W27498  44.789  16.203  12.842
59169W        W27499  28.556  41.344   1.300
59170W        W27500   4.733   3.291  13.863
59171W        W27501  30.921  23.177  14.807
59172W        W27502  17.598  20.147   3.325
59173W        W27503   5.697   3.893   4.706
59174W        W27504   8.324  40.055   3.270
59175W        W27505  38.347   3.934   3.162
59176W        W27506  43.850  39.512   0.925
59177W        W27507  36.997   8.824   1.712
59178W        W27508  30.157  32.488   2.212
59179W        W27509  12.352  29.662  12.875
59180W        W27510  23.233  17.569  12.577
59181W        W27511   4.924  38.387   4.331
59182W        W27512   3.415  26.545   3.335
59183W        W27513  22.617  31.040   4.681
59184W        W27514  38.832  23.591   4.304
59185W        W27515  19.562   1.945   3.738
59186W        W27516  25.616  43.478  14.842
59187W        W27517  44.904  23.606  12.886
59188W        W27518  16.568   4.820   1.726
59189W        W27519  17.774   3.418   3.174
59190W        W27520  40.842   8.399   1.782
59191W        W27521  38.327  18.730   2.747
59192W        W27522  39.004  38.420   3.652
59193W        W27523  27.597   2.892   4.326
59194W        W27524  28.483  33.406  13.429
59195W        W27525  37.515  39.337  11.559
59196W        W27526  15.795  25.558   1.785
59197W        W27527  31.489   9.847   0.806
59198W        W27528   5.915  32.091  11.978
59199W        W27529  17.061  21.673   2.418
59200W        W27530  13.709  20.712   4.345
59201W        W27531  32.596  42.470   4.681
59202W        W27532  40.546   1.337   3.204
59203W        W27533  13.235   6.909   4.602
59204W        W27534   4.833  39.061  13.985
59205W        W27535  27.046   0.901   4.124
59206W        W27536  16.206  44.943   2.186
59207W        W27537  21.543  34.023  14.471
59208W        W27538  28.484  44.870   2.274
59209W        W27539  30.578   0.856   1.329
59210W        W27540  33.422  24.616  11.921
59211W        W27541  40.430  11.825   1.238
59212W        W27542  16.737   4.934   3.193
59213W        W27543  23.106   7.818   2.761
59214W        W27544  44.963  22.163  12.383
59215W        W27545  27.596  32.392  13.532
59216W        W27546  23.179   6.760  12.519
59217W        W27547  26.132  35.583   0.332
59218W        W27548  20.217   5.728   4.273
59219W        W27549  31.034  26.640   9.978
59220W        W27550  18.140  24.572   4.237
59221W        W27551  24.158   6.244  10.485
59222W        W27552  24.217  26.624   1.447
59223W        W27553  18.152   5.908  11.392
59224W        W27554  37.080  18.196  12.847
59225W        W27555  33.460  38.892   3.173
59226W        W27556   0.918  43.376   4.605
59227W        W27557   8.339  35.558  14.012
59228W        W27558   6.864  40.807  13.034
59229W        W27559  20.246   8.330   5.318
59230W        W27560  39.016  11.664  11.380
59231W        W27561  25.622  31.539   2.391
59232W        W27562  35.916  26.073  13.930
59233W        W27563  41.851  17.162   2.811
59234W        W27564   3.838  18.673   3.253
59235W        W27565  10.735  39.350   3.761
59236W        W27566   7.382  20.560   0.910
59237W        W27567  42.400  32.423  14.795
59238W        W27568   6.368  29.591  10.949
59239W        W27569  18.097  34.476   1.926
59240W        W27570  21.596   9.308  14.940
59241W        W27571  16.729  41.833  12.385
59242W        W27572  17.267  33.578   3.787
59243W        W27573   3.734   9.687   1.285
59244W        W27574  22.114  17.138  12.444
59245W        W27575  30.063   9.855   0.858
59246W        W27576   9.805  25.585  10.955
59247W        W27577   6.380  37.446  12.892
59248W        W27578   3.718  18.670   2.673
59249W        W27579  36.055  43.459  13.429
59250W        W27580  40.443  34.476  11.042
59251W        W27581  28.179  42.450  14.427
59252W        W27582  35.489  30.986  12.989
59253W        W27583   2.375   1.758   2.852
59254W        W27584  13.171  25.543   4.832
59255W        W27585   7.297  41.892  14.958
59256W        W27586  18.050  12.298  14.485
59257W        W27587   9.828  23.233   1.301
59258W        W27588  38.416   2.275  11.895
59259W        W27589   3.242  34.055   3.810
59260W        W27590  36.081  41.367   2.296
59261W        W27591  43.505   9.816  12.435
59262W        W27592  24.667  25.172  14.947
59263W        W27593  16.106  36.364  13.529
59264W        W27594  22.006   9.743   4.760
59265W        W27595   4.211   0.804  10.919
59266W        W27596  31.935   8.258   3.758
59267W        W27597   6.894  44.304   0.880
59268W        W27598  20.726   7.269   0.795
59269W        W27599   7.375  19.613  13.368
59270W        W27600  24.659  12.797  13.336
59271W        W27601   8.304  39.470  12.508
59272W        W27602   3.806  12.724   1.721
59273W        W27603  34.027  28.679  14.391
59274W        W27604  37.061  39.415  10.464
59275W        W27605  26.508  31.948   1.765
59276W        W27606  12.621  39.956  14.328
59277W        W27607  18.560  16.146  14.882
59278W        W27608  22.508  39.980  11.961
59279W        W27609  43.896  30.552  13.008
59280W        W27610  18.193  18.579   0.921
59281W        W27611  30.921  25.996  14.961
59282W        W27612  36.566   4.808  12.470
59283W        W27613  44.431   5.733  10.915
59284W        W27614  17.127  33.993  13.913
59285W        W27615  43.853  34.555  14.841
59286W        W27616  15.607  37.964  14.363
59287W        W27617  43.286  38.397   4.228
59288W        W27618   8.802  15.647  10.411
59289W        W27619  41.018   0.976   4.180
59290W        W27620  24.214   0.911   4.726
59291W        W27621  27.047  30.508   3.811
59292W        W27622  39.409  13.225  12.943
59293W        W27623  23.613  41.845   4.704
59294W        W27624  39.960  27.452  11.860
59295W        W27625  24.527  28.557   2.730
59296W        W27626  42.832  44.971  12.966
59297W        W27627   7.689   5.692  12.360
59298W        W27628  13.205  33.108   1.814
59299W        W27629  13.823   4.383  11.078
59300W        W27630  41.347   4.898   0.268
59301W        W27631  19.555  40.811   1.425
59302W        W27632  41.500  31.117   4.222
59303W        W27633  10.714  36.471  14.369
59304W        W27634  15.175  39.018  14.029
59305W        W27635  32.477  30.658   1.294
59306W        W27636  25.526  22.645   3.850
59307W        W27637  13.811  28.174   2.851
59308W        W27638  36.523  26.132   2.804
59309W        W27639  38.036  30.424   1.356
59310W        W27640  21.187  34.606   0.357
59311W        W27641   4.889  33.411   1.265
59312W        W27642  13.245  14.103  11.594
59313W        W27643  20.097  26.055  11.529
59314W        W27644  30.056  29.540   3.235
59315W        W27645   6.275   4.849  11.964
59316W        W27646  21.676   5.325  14.433
59317W        W27647  17.086  25.109   3.214
59318W        W27648  32.520  18.578  11.401
59319W        W27649  37.511  37.429  10.144
59320W        W27650  17.756  34.599   2.235
59321W        W27651  39.938  20.080   3.746
59322W        W27652  42.297  36.949   1.892
59323W        W27653  41.488   0.776   0.928
59324W        W27654  34.416  14.602  11.061
59325W        W27655   9.223  22.549  13.980
59326W        W27656  32.954  18.734  14.396
59327W        W27657   2.827  12.676  11.468
59328W        W27658  20.742   0.892  11.478
59329W        W27659  11.709  29.111   3.733
59330W        W27660  28.553  23.725  11.417
59331W        W27661  14.287  11.224  13.440
59332W        W27662  12.349  22.744  12.056
59333W        W27663   9.363  16.139  11.989
59334W        W27664  12.122  30.545  14.867
59335W        W27665  29.103  26.584   1.426
59336W        W27666  15.235  40.399  13.062
59337W        W27667  20.766  19.631  13.815
59338W        W27668  41.788  44.775   4.287
59339W        W27669  18.160  16.229   4.238
59340W        W27670  18.100  13.819  14.486
59341W        W27671  25.188   1.757  10.556
59342W        W27672   7.898  17.739   1.311
59343W        W27673  28.527  35.507   0.868
59344W        W27674   5.925  28.608  12.491
59345W        W27675  32.434  26.666  10.580
59346W        W27676  18.561  25.637   5.265
59347W        W27677   5.897  32.450  12.407
59348W        W27678  10.380  13.688   2.806
59349W        W27679   8.310  18.559   4.654
59350W        W27680  15.124   1.445   0.867
59351W        W27681  16.141  22.594  11.571
59352W        W27682  31.597  18.750  13.051
59353W        W27683   6.790  40.461   4.270
59354W        W27684  16.288  23.056  14.949
59355W        W27685  32.404  39.428   0.915
59356W        W27686  27.184  15.207   2.228
59357W        W27687  41.302  36.972   4.201
59358W        W27688   5.860  32.141   2.793
59359W        W27689  12.155  21.593  10.496
59360W        W27690  24.101  34.036  14.890
59361W        W27691   7.794  36.518  14.779
59362W        W27692  28.062   7.237   4.224
59363W        W27693   7.290   9.657   4.286
59364W        W27694  17.738   1.260   0.365
59365W        W27695   3.820  26.063  11.042
59366W        W27696  23.131  32.016  14.939
59367W        W27697  34.496  10.323  10.597
59368W        W27698  20.579   5.212  14.295
59369W        W27699  15.096  37.059   1.334
59370W        W27700  28.066  30.918   1.711
59371W        W27701  12.214   8.204   4.141
59372W        W27702  42.399  38.046  12.571
59373W        W27703   9.204  44.842  13.410
59374W        W27704  21.545  12.310   2.266
59375W        W27705  25.979  15.720   2.808
59376W        W27706  35.375  14.305  13.870
59377W        W27707  26.570  27.180   0.395
59378W        W27708  18.129  41.925  14.461
59379W        W27709   2.929  44.884  13.965
59380W        W27710   0.294  26.544  12.085
59381W        W27711  18.759   8.191   1.811
59382W        W27712   9.719  28.173  12.992
59383W        W27713   4.390  18.232   3.675
59384W        W27714   6.197  31.898  10.075
59385W        W27715   4.834  35.886  12.523
59386W        W27716  11.321  30.053   4.823
59387W        W27717  40.475  15.662  13.892
59388W        W27718  28.981  33.616   1.299
59389W        W27719  28.068  19.054   2.702
59390W        W27720   8.372  29.995   3.358
59391W        W27721  26.179  31.476  12.952
59392W        W27722  11.286  20.695  10.438
59393W        W27723  26.557   9.756   1.748
59394W        W27724  12.759   1.429  12.461
59395W        W27725  24.611   8.330  11.970
59396W        W27726  14.809  34.005  13.342
59397W        W27727   8.260  32.405   4.176
59398W        W27728  43.011  12.165  10.523
59399W        W27729  43.304  18.182  12.024
59400W        W27730  28.613  39.370  13.947
59401W        W27731  32.442  17.595  10.999
59402W        W27732  19.094  25.557  12.352
59403W        W27733  40.334  23.036  12.838
59404W        W27734   4.768  36.541  10.562
59405W        W27735   4.310  31.581  12.391
59406W        W27736  25.518  23.571  11.430
59407W        W27737  15.733  30.003  13.853
59408W        W27738  34.094  38.386   2.754
59409W        W27739   1.355  27.128   1.815
59410W        W27740   5.331  42.932   4.626
59411W        W27741  20.160  12.686   4.605
59412W        W27742   2.289  20.642  14.804
59413W        W27743  43.909  25.580   2.329
59414W        W27744  19.706  28.585   5.637
59415W        W27745  25.515  15.820   0.937
59416W        W27746  27.949  41.477  10.130
59417W        W27747  29.033  32.533   0.376
59418W        W27748   3.323  41.973  14.987
59419W        W27749  25.173  23.174   1.401
59420W        W27750   8.310  13.739   2.305
59421W        W27751   6.289  40.053   1.873
59422W        W27752  27.141  39.030   2.883
59423W        W27753  31.104  40.009   0.455
59424W        W27754   0.893  33.401  11.950
59425W        W27755   3.711   5.209   1.320
59426W        W27756  18.203  19.116   2.708
59427W        W27757  29.630   7.409  12.526
59428W        W27758  30.490  24.544  11.464
59429W        W27759  20.239  30.471   4.785
59430W        W27760  20.735  32.916  10.615
59431W        W27761  40.830   5.257  11.906
59432W        W27762  24.004  29.171  12.580
59433W        W27763  14.195   8.827   0.305
59434W        W27764  25.157   2.336  14.489
59435W        W27765   7.349  10.356  13.367
59436W        W27766  30.918  13.671  13.052
59437W        W27767  25.526   2.838  13.411
59438W        W27768  21.219  35.406   2.822
59439W        W27769   1.393  44.765   0.313
59440W        W27770  43.271   6.692   2.861
59441W        W27771  34.899  34.109   3.859
59442W        W27772  42.967   5.319  12.482
59443W        W27773  19.208   1.297  12.878
59444W        W27774  17.670  31.985  10.063
59445W        W27775  28.602   9.369   4.149
59446W        W27776  44.314  38.562   4.806
59447W        W27777  18.254  12.282   3.347
59448W        W27778  31.078   6.226   5.142
59449W        W27779  14.622  19.084  12.031
59450W        W27780  22.144  38.050   1.710
59451W        W27781   4.705  27.481  14.488
59452W        W27782  33.936  37.024   3.279
59453W        W27783  13.694  15.138  13.331
59454W        W27784  28.174  39.414  11.040
59455W        W27785  33.498   8.397  13.490
59456W        W27786   5.888   8.849   0.874
59457W        W27787  15.708  34.079  11.094
59458W        W27788  28.566  40.944   2.397
59459W        W27789  16.225  26.096   0.921
59460W        W27790   2.872  42.027   3.631
59461W        W27791  31.522   1.375  14.011
59462W        W27792  19.638  18.630  10.911
59463W        W27793  13.776  22.063   4.823
59464W        W27794   5.838  35.100  10.611
59465W        W27795  35.448  40.981  14.431
59466W        W27796  15.225  24.512   0.467
59467W        W27797   6.399   0.814   3.816
59468W        W27798  15.593  22.662  10.634
59469W        W27799  35.551  30.581   1.924
59470W        W27800  33.010   6.787   0.931
59471W        W27801  18.703  38.073   0.406
59472W        W27802   9.861  17.615   0.732
59473W        W27803  12.299  39.513  12.978
59474W        W27804  26.561  34.871   2.349
59475W        W27805  26.197   5.204  14.978
59476W        W27806  13.783  33.077   2.888
59477W        W27807  12.310  37.424  12.890
59478W        W27808  27.481  36.526  12.568
59479W        W27809  37.518   7.406   2.267
59480W        W27810  41.921  19.069   3.372
59481W        W27811  35.413  22.117  11.394
59482W        W27812  33.036  10.245   2.705
59483W        W27813  16.676  33.465   1.294
59484W        W27814  30.117  21.230  10.419
59485W        W27815   9.352   0.905  13.817
59486W        W27816  41.450  42.293  14.020
59487W        W27817  31.610  26.031  14.916
59488W        W27818  16.586   1.978  13.968
59489W        W27819  39.009  44.387  12.095
59490W        W27820  24.135  29.648  10.524
59491W        W27821  12.803   8.668   1.289
59492W        W27822  18.745  12.208  14.908
59493W        W27823   5.258  31.034   4.140
59494W        W27824  19.651  27.616  10.987
59495W        W27825  17.681  28.570   4.323
59496W        W27826   4.833  23.606   4.622
59497W        W27827  15.718  20.147  13.814
59498W        W27828  27.529  38.406   0.762
59499W        W27829  33.576  32.959  10.593
59500W        W27830  28.630  30.076  13.404
59501W        W27831  13.709   4.292   1.764
59502W        W27832  25.661  27.501  11.499
59503W        W27833  40.527  44.438   4.130
59504W        W27834  26.683   9.731   5.632
59505W        W27835   7.871   8.825   1.287
59506W        W27836  40.035  39.541   4.139
59507W        W27837  42.963   0.280   2.381
59508W        W27838  11.821  22.025   2.409
59509W        W27839  29.131  33.079  12.575
59510W        W27840  35.002  43.314  14.317
59511W        W27841  26.616  20.638  14.938
59512W        W27842  42.006  19.666  10.600
59513W        W27843   5.288   8.729   4.610
59514W        W27844  29.607  43.995   4.662
59515W        W27845  16.713  20.628  13.424
59516W        W27846  32.048   4.912   2.896
59517W        W27847  29.173  18.668   0.474
59518W        W27848   1.262  40.002  13.831
59519W        W27849  20.131   9.870   0.253
59520W        W27850   7.767   8.332  13.875
59521W        W27851  13.675  24.502   2.306
59522W        W27852  16.629  32.945   3.697
59523W        W27853  37.563  31.065   1.773
59524W        W27854  10.845  37.964   0.340
59525W        W27855   3.235  43.837  12.925
59526W        W27856  18.174  40.543   0.480
59527W        W27857  37.993  40.524   4.818
59528W        W27858  11.680   1.379  13.952
59529W        W27859  28.557   3.747  14.426
59530W        W27860  40.324   8.185  14.912
59531W        W27861  26.049   5.712  11.402
59532W        W27862  35.510  19.231   1.359
59533W        W27863  22.546  15.291  10.521
59534W        W27864   0.338  13.123  13.311
59535W        W27865  23.715  43.948  10.933
59536W        W27866  17.785  16.651  10.920
59537W        W27867   3.259  38.460   1.702
59538W        W27868  44.963  15.096  14.417
59539W        W27869  40.497  40.341  14.779
59540W        W27870  23.015  29.150   4.124
59541W        W27871   5.435  27.671  11.371
59542W        W27872  28.657  22.657  10.145
59543W        W27873  35.040   1.379  13.375
59544W        W27874  33.039   2.389   2.727
59545W        W27875  33.588   5.838  12.062
59546W        W27876   7.790   4.408   2.713
59547W        W27877   3.799  24.160   0.319
59548W        W27878   5.718  33.550   0.294
59549W        W27879  25.070  21.627   0.867
59550W        W27880  18.758  15.087   3.807
59551W        W27881   7.271  36.095  11.887
59552W        W27882   8.865  20.666   1.383
59553W        W27883   8.236   8.669  13.844
59554W        W27884  32.587  39.820  14.437
59555W        W27885  11.827   4.810   0.829
59556W        W27886   3.385   6.842  13.794
59557W        W27887   7.276  21.584   3.731
59558W        W27888  35.579  37.365  12.511
59559W        W27889  10.797  44.906   2.193
59560W        W27890  16.751  24.706   0.957
59561W        W27891  27.532  36.098  12.580
59562W        W27892  35.538  19.262   1.907
59563W        W27893  14.321  16.122   2.831
59564W        W27894  33.989  42.322   4.285
59565W        W27895  29.639   5.692   3.267
59566W        W27896  25.054  26.066  11.051
59567W        W27897  16.754  43.931   4.822
59568W        W27898  13.846  41.918   4.712
59569W        W27899  25.182  25.029  13.546
59570W        W27900   1.750  18.648  11.898
59571W        W27901  10.281   5.714   2.263
59572W        W27902  28.457  20.573   4.832
59573W        W27903   2.873  42.430  13.884
59574W        W27904  33.886  16.777   0.256
59575W        W27905   3.368   0.866  11.522
59576W        W27906  33.401  31.992   4.150
59577W        W27907  28.947  28.457  11.064
59578W        W27908   3.321  26.999  13.968
59579W        W27909   2.788  11.718  12.903
59580W        W27910  41.522  40.465  12.035
59581W        W27911  24.131   9.277  14.275
59582W        W27912  34.993  27.011  14.937
59583W        W27913  39.823  20.765   3.704
59584W        W27914  43.271  22.645  10.013
59585W        W27915  19.153  16.729  14.281
59586W        W27916   1.437   7.696   2.804
59587W        W27917  38.847  12.284  14.832
59588W        W27918  37.946  22.095   1.836
59589W        W27919  15.689  39.495  14.449
59590W        W27920  38.328  42.414  10.491
59591W        W27921  44.883  34.050   3.303
59592W        W27922  34.115  11.812   0.791
59593W        W27923  27.534  37.951   3.288
59594W        W27924   6.922  35.962   4.295
59595W        W27925  38.551  38.365  12.967
59596W        W27926  33.512  30.990   0.439
59597W        W27927  27.631  16.710   3.710
59598W        W27928  35.020  36.372   0.280
59599W        W27929  17.619  27.145  14.292
59600W        W27930  13.689  42.378  13.442
59601W        W27931  16.115  33.482  13.013
59602W        W27932  15.641  12.356   3.191
59603W        W27933  36.963  26.047  11.392
59604W        W27934   9.700  36.009  12.070
59605W        W27935  10.315   9.877  11.516
59606W        W27936  18.154  28.500  13.877
59607W        W27937  43.796  30.070   1.295
59608W        W27938  37.987  22.681   4.294
59609W        W27939  31.020  38.950  11.869
59610W        W27940  37.365  27.148  13.934
59611W        W27941  21.105  11.272   2.385
59612W        W27942  41.396   9.771  11.103
59613W        W27943  30.954  20.587   1.839
59614W        W27944  42.857  40.888  13.319
59615W        W27945  26.116  14.704   3.372
59616W        W27946  13.655   6.279   3.853
59617W        W27947  39.025  43.991  14.436
59618W        W27948   6.881  36.890   1.795
59619W        W27949   5.254  21.647  11.959
59620W        W27950  40.013  22.570  11.049
59621W        W27951   5.358  36.966   1.329
59622W        W27952  15.615  35.884  11.015
59623W        W27953  37.014   4.298  10.574
59624W        W27954  27.647   6.859   0.440
59625W        W27955  36.931   3.258  11.494
59626W        W27956  29.975  10.771   1.843
59627W        W27957  25.047  41.416   1.866
59628W        W27958  17.692  26.626   1.403
59629W        W27959  34.976   6.897  12.988
59630W        W27960  31.101  38.017   1.816
59631W        W27961  25.707  20.613  14.833
59632W        W27962  37.862  12.857   4.175
59633W        W27963  43.323  36.532   1.344
59634W        W27964  13.640  19.701  11.606
59635W        W27965  19.573  26.612  13.342
59636W        W27966  35.549  15.735  12.884
59637W        W27967  14.687  40.896   3.797
59638W        W27968   7.276  28.596  14.323
59639W        W27969  11.774  17.560  11.580
59640W        W27970  25.610  23.658  13.895
59641W        W27971   3.881  44.462   4.174
59642W        W27972  41.874  35.367  14.283
59643W        W27973   3.709  33.006  12.435
59644W        W27974  44.922   4.844  11.494
59645W        W27975  34.976  32.608  12.574
59646W        W27976   0.315  18.615   2.312
59647W        W27977  20.686  34.990  12.969
59648W        W27978   6.692  31.094  14.301
59649W        W27979   8.328  10.752  12.425
59650W        W27980  20.626  15.192   3.709
59651W        W27981  16.268   9.304  13.521
59652W        W27982   8.797  30.474   4.122
59653W        W27983  40.807  25.570   0.403
59654W        W27984  17.094  25.060   9.972
59655W        W27985  32.095  26.482  12.823
59656W        W27986  11.624  31.009   4.264
59657W        W27987  26.499  11.649  14.853
59658W        W27988   2.282  41.436   2.816
59659W        W27989   7.849  44.501  14.418
59660W        W27990  36.914   1.925  13.024
59661W        W27991   0.391   4.805  13.468
59662W        W27992   7.180  15.243   1.369
59663W        W27993  38.518   4.280  14.008
59664W        W27994  24.056  40.401   3.270
59665W        W27995  40.967   9.876   3.350
59666W        W27996   5.806  13.260   2.875
59667W        W27997  23.083  12.814  11.003
59668W        W27998   8.243  15.138   0.358
59669W        W27999   3.281  38.561  12.973
59670W        W28000   7.883  23.060  12.892
59671W        W28001  35.018  16.167   2.182
59672W        W28002  26.097  42.976   1.353
59673W        W28003  36.069  42.463  13.471
59674W        W28004  19.069   7.401  12.827
59675W        W28005  24.104  39.355  14.816
59676W        W28006   4.910  19.110   1.899
59677W        W28007  34.584  42.883   1.696
59678W        W28008  24.005  11.174  10.929
59679W        W28009  27.531  25.508  13.364
59680W        W28010   2.887  16.103   1.713
59681W        W28011  12.657  22.232  12.362
59682W        W28012  25.000  35.002  13.416
59683W        W28013   2.821  35.931   3.334
59684W        W28014  25.041  21.039   1.877
59685W        W28015  17.103  25.125  12.985
59686W        W28016  20.629  17.579   4.802
59687W        W28017  30.532  37.831  14.475
59688W        W28018  19.654  11.677  12.864
59689W        W28019  22.030  13.293   0.790
59690W        W28020  28.131  23.688  11.525
59691W        W28021  13.164  14.766   1.928
59692W        W28022  35.377  13.622   4.303
59693W        W28023   4.362   9.307   1.284
59694W        W28024   1.474  39.991  10.904
59695W        W28025  16.811  26.550  14.906
59696W        W28026  20.552  43.493  13.326
59697W        W28027  39.814  10.848   2.723
59698W        W28028   4.935  26.666  10.122
59699W        W28029  29.500  21.207  14.484
59700W        W28030  20.604  25.541   4.806
59701W        W28031  25.999  30.987   0.791
59702W        W28032   2.762  41.939   0.355
59703W        W28033  32.019  24.708  10.971
59704W        W28034  41.005  31.601  12.975
59705W        W28035  32.917  37.072   3.815
59706W        W28036  21.096   6.770  10.913
59707W        W28037  16.295   9.671  13.999
59708W        W28038   4.833  23.518   4.259
59709W        W28039  18.748  17.204  12.356
59710W        W28040  12.271  29.551   1.283
59711W        W28041   6.792   1.918  10.573
59712W        W28042  32.488  32.596   1.399
59713W        W28043   0.980  40.385   3.805
59714W        W28044  20.221  44.413   0.294
59715W        W28045  16.698   8.249   4.325
59716W        W28046  29.061  44.436  14.431
59717W        W28047  26.139  18.684   3.788
59718W        W28048  25.548  13.734   1.819
59719W        W28049   6.313  20.739  14.829
59720W        W28050  27.174   0.261   0.292
59721W        W28051  23.492   7.876   3.865
59722W        W28052  38.547  22.599   3.336
59723W        W28053   0.779   6.790   0.439
59724W        W28054  26.654  31.596  12.916
59725W        W28055   8.890  23.199  11.039
59726W        W28056  37.481  41.836  12.030
59727W        W28057  39.473  26.665  14.285
59728W        W28058  20.258  42.465   2.851
59729W        W28059  10.249   6.243   1.760
59730W        W28060  18.221  15.686  14.912
59731W        W28061  32.468  30.908   1.311
59732W        W28062   3.863  42.439   3.841
59733W        W28063  33.981  34.050  13.388
59734W        W28064  29.570  17.713  10.640
59735W        W28065  37.566  16.184  14.889
59736W        W28066  44.356  16.743  11.535
59737W        W28067   4.755  33.502  10.422
59738W        W28068  12.845   4.296  14.362
59739W        W28069  38.523  13.337  11.124
59740W        W28070  18.089   7.763  13.517
59741W        W28071  35.372  38.860   4.289
59742W        W28072  25.691  23.055  13.538
59743W        W28073  19.276  43.415  11.600
59744W        W28074  14.761  39.008  11.878
59745W        W28075  34.888  13.630  12.872
59746W        W28076   6.206  41.356   0.887
59747W        W28077   6.814   1.418  12.938
59748W        W28078  25.034  16.776   4.638
59749W        W28079   5.893  43.844  10.413
59750W        W28080  14.311  18.697  11.507
59751W        W28081  27.103  23.704   4.759
59752W        W28082  22.047  29.117  13.882
59753W        W28083   7.210  38.347  12.469
59754W        W28084  40.490  14.233   1.366
59755W        W28085  13.204  32.598   1.755
59756W        W28086  14.184  30.554  10.545
59757W        W28087   1.328  30.647   2.792
59758W        W28088   2.768  42.841  13.486
59759W        W28089  41.859  29.573  11.032
59760W        W28090   9.692  13.714   2.305
59761W        W28091  35.473  25.211   2.211
59762W        W28092   8.324  24.122  10.483
59763W        W28093  40.040  28.515  13.901
59764W        W28094  24.528  34.962  12.852
59765W        W28095   1.465  21.125   1.344
59766W        W28096   5.233  16.090  10.962
59767W        W28097  43.878  40.831   0.858
59768W        W28098   9.376  38.937   3.768
59769W        W28099  12.234   9.682  11.023
59770W        W28100  23.242  12.224  14.858
59771W        W28101  25.710  36.914   4.223
59772W        W28102  16.268  19.731   0.791
59773W        W28103  16.124  39.927   3.630
59774W        W28104  41.514  41.986   1.371
59775W        W28105   3.225   9.353  13.367
59776W        W28106  15.676  41.938  14.930
59777W        W28107  29.952  25.146  11.501
59778W        W28108   9.723   1.300  12.575
59779W        W28109  23.578  37.565   1.428
59780W        W28110  40.847  42.927  13.045
59781W        W28111  22.665  38.556   1.364
59782W        W28112  39.317  42.875   2.244
59783W        W28113  20.251  39.446   1.896
59784W        W28114  10.876  37.345  12.457
59785W        W28115  40.448  40.404  13.481
59786W        W28116  26.154   1.370  14.430
59787W        W28117   1.801  32.102   2.748
59788W        W28118  12.250  25.593   2.250
59789W        W28119   8.753   8.726   5.140
59790W        W28120  38.446  23.060   3.264
59791W        W28121   2.350  42.909   1.284
59792W        W28122  14.320  38.885  14.279
59793W        W28123  20.028  17.224  10.440
59794W        W28124   3.281  37.361  11.859
59795W        W28125  44.473   3.910   2.864
59796W        W28126  36.941  28.667   3.246
59797W        W28127  40.900   6.383  14.288
59798W        W28128  37.498  19.217   3.366
59799W        W28129  41.309  34.552   1.322
59800W        W28130   8.169  32.019  13.828
59801W        W28131  43.913  27.676  11.099
59802W        W28132  44.384   6.214  11.435
59803W        W28133   2.771  19.639  14.365
59804W        W28134  12.847  29.167  11.403
59805W        W28135   1.877   6.815  13.940
59806W        W28136  40.387   0.347   0.401
59807W        W28137  19.773  44.883  11.423
59808W        W28138  36.912   6.339  14.365
59809W        W28139  38.927  33.490  12.943
59810W        W28140   8.677  22.572   1.279
59811W        W28141  13.677  41.854   1.799
59812W        W28142  18.556   3.950   4.219
59813W        W28143  16.287  14.114  10.497
59814W        W28144   1.354   4.226   1.292
59815W        W28145   5.855   7.736   2.878
59816W        W28146  30.414   9.846  14.314
59817W        W28147  42.307  23.217   2.286
59818W        W28148  30.497  34.884  11.083
59819W        W28149  19.749   5.764  12.541
59820W        W28150  33.096  27.958   4.816
59821W        W28151  21.616  25.540   1.703
59822W        W28152  44.398  37.362   2.306
59823W        W28153  30.414  29.945  14.298
59824W        W28154  35.532  27.079   1.821
59825W        W28155  21.110   4.283   2.359
59826W        W28156   1.299  44.763   1.308
59827W        W28157   4.332  44.812   1.430
59828W        W28158  30.031  43.830   4.267
59829W        W28159  27.030   2.912  12.419
59830W        W28160  20.586  17.715  13.466
59831W        W28161  35.854  29.456  11.063
59832W        W28162  33.879  20.100  13.341
59833W        W28163   1.857  35.590  13.809
59834W        W28164  14.249  23.995  14.890
59835W        W28165  19.126  19.698   0.408
59836W        W28166  24.193   9.737   3.159
59837W        W28167  39.809  14.099  13.332
59838W        W28168   5.343  15.247   3.660
59839W        W28169   5.908  13.799  11.559
59840W        W28170  41.498  42.331  11.462
59841W        W28171   4.321  43.940   2.788
59842W        W28172  41.517  19.072   3.742
59843W        W28173   7.171  23.531  11.970
59844W        W28174  27.139  26.997  14.978
59845W        W28175  43.827   6.700  14.765
59846W        W28176  35.983  19.274   2.665
59847W        W28177   6.726  44.345   4.227
59848W        W28178  15.672  40.376  11.944
59849W        W28179  11.275  27.948   3.355
59850W        W28180  37.036   9.369   4.700
59851W        W28181  24.096  27.189   0.866
59852W        W28182  43.478   3.955  12.910
59853W        W28183   2.853  15.329  14.493
59854W        W28184  23.546  32.066  10.894
59855W        W28185   9.158  20.597   1.347
59856W        W28186  40.019  16.177  12.882
59857W        W28187  34.570   8.696   3.739
59858W        W28188   4.373  15.711   1.309
59859W        W28189  33.520  30.954   4.182
59860W        W28190  34.909  38.425   4.654
59861W        W28191  12.668  43.387   3.216
59862W        W28192   7.820  35.999  14.894
59863W        W28193   9.165  32.888  10.566
59864W        W28194  29.612   3.937   3.280
59865W        W28195  31.567  37.481  12.567
59866W        W28196   4.922  11.301  12.929
59867W        W28197  24.697   1.879   2.762
59868W        W28198  27.064  19.582  12.878
59869W        W28199   5.751  31.424  12.895
59870W        W28200  43.323  32.898  14.766
59871W        W28201  36.884  19.534  11.995
59872W        W28202  21.756  40.977  12.982
59873W        W28203  11.173  16.286  10.465
59874W        W28204  21.688  21.710   3.727
59875W        W28205  34.490  14.805  11.889
59876W        W28206  23.213  28.571  13.010
59877W        W28207  41.430  31.007  10.573
59878W        W28208  10.699  15.696   9.971
59879W        W28209  12.326   0.804   1.752
59880W        W28210  10.278  16.690  13.020
59881W        W28211   4.309  42.854   4.623
59882W        W28212  35.539  39.316   1.919
59883W        W28213  14.105  17.577   0.757
59884W        W28214   2.436  26.516   2.384
59885W        W28215   8.804  17.212   4.149
59886W        W28216  18.656  38.481   4.318
59887W        W28217  25.590  32.465   3.299
59888W        W28218  10.853   6.852  11.483
59889W        W28219  15.323  15.247   0.904
59890W        W28220  34.409  44.495   4.814
59891W        W28221  10.645  32.063  14.474
59892W        W28222  25.056   4.343   0.749
59893W        W28223  22.639  27.478  11.115
59894W        W28224  42.313  18.261   3.318
59895W        W28225  10.282  44.492   2.846
59896W        W28226  11.804  34.908   2.833
59897W        W28227   9.381  34.098  11.520
59898W        W28228  23.641  38.865  13.896
59899W        W28229  23.224  40.821   2.255
59900W        W28230  38.879  40.835   4.650
59901W        W28231  14.202  17.179  10.971
59902W        W28232   1.437  32.603   3.339
59903W        W28233  11.270  20.116   1.410
59904W        W28234   3.370  20.687  11.570
59905W        W28235  17.587  36.861  13.491
59906W        W28236  30.152   8.389  11.534
59907W        W28237  21.675  26.141   4.331
59908W        W28238   9.229   6.198  14.457
59909W        W28239  27.599   3.411   1.766
59910W        W28240   2.352  43.860  14.906
59911W        W28241  22.670  15.207  11.954
59912W        W28242  12.262  42.019  11.485
59913W        W28243  44.423  29.113  11.590
59914W        W28244  38.556   3.927   0.820
59915W        W28245   2.925  33.129   1.719
59916W        W28246   5.207  11.713  12.032
59917W        W28247  44.341  22.020   0.928
59918W        W28248  10.857  20.611  14.998
59919W        W28249  37.390  23.718   4.808
59920W        W28250   3.247   6.890  10.608
59921W        W28251  14.802  22.730  10.991
59922W        W28252  36.005  38.547  13.812
59923W        W28253   7.252  34.102   0.839
59924W        W28254  13.612  10.698  14.420
59925W        W28255  26.050  25.204   3.821
59926W        W28256  40.423  20.256  12.868
59927W        W28257  25.595  10.775  10.111
59928W        W28258  37.379   2.370   5.152
59929W        W28259   8.281  35.523  12.081
59930W        W28260  21.693  24.132   4.131
59931W        W28261  28.115  27.594   3.386
59932W        W28262  20.085  29.600   2.415
59933W        W28263   6.187   3.928   4.835
59934W        W28264  20.648  27.955   4.119
59935W        W28265  37.425  12.274   0.292
59936W        W28266  42.358  25.677   1.908
59937W        W28267  35.105  40.539   4.713
59938W        W28268  44.356  11.854   5.157
59939W        W28269  38.540  34.040   1.381
59940W        W28270  11.685   1.262  12.042
59941W        W28271   8.690   5.845  13.975
59942W        W28272  18.266  30.629   4.155
59943W        W28273  12.157   1.361   2.714
59944W        W28274   8.752  18.585   5.134
59945W        W28275   3.898  22.214   2.866
59946W        W28276  44.804  43.343   1.773
59947W        W28277  10.149  19.623  13.431
59948W        W28278  24.630  32.981  11.430
59949W        W28279   7.410  40.936   3.851
59950W        W28280  32.474   0.305  11.498
59951W        W28281  38.982  32.460   2.873
59952W        W28282   0.905   0.755  13.369
59953W        W28283  31.082  29.074   1.728
59954W        W28284  23.559  30.942  14.759
59955W        W28285  13.139  30.535  11.546
59956W        W28286  19.069   0.766  12.095
59957W        W28287  39.333  41.461  11.020
59958W        W28288  22.213  15.237   1.376
59959W        W28289  19.055  27.688  14.859
59960W        W28290  40.829  21.250  11.959
59961W        W28291  11.284   8.792   1.305
59962W        W28292   1.404   0.762  14.841
59963W        W28293  29.606  38.483   3.712
59964W        W28294  16.306   9.352  12.518
59965W        W28295  23.582  22.036   3.666
59966W        W28296  13.321  37.570   0.428
59967W        W28297   1.241  10.863   1.358
59968W        W28298  37.970   8.797   1.373
59969W        W28299   0.327  10.171  11.860
59970W        W28300   9.210  36.087  14.938
59971W        W28301  15.250  30.420   1.378
59972W        W28302  30.558  37.504  10.900
59973W        W28303  31.531  41.927  12.376
59974W        W28304  19.668  22.218   0.961
59975W        W28305  27.631  31.913  12.840
59976W        W28306  20.098  23.683  13.376
59977W        W28307  16.165  28.520   3.342
59978W        W28308  39.434   7.276   3.789
59979W        W28309  24.093  30.647   0.840
59980W        W28310  30.019  43.303   0.769
59981W        W28311  13.136  42.966   2.209
59982W        W28312   9.859  27.611  11.936
59983W        W28313   0.776   2.726   1.318
59984W        W28314  27.045  39.029   4.628
59985W        W28315  18.685   2.945  11.547
59986W        W28316  36.989  26.629  12.478
59987W        W28317  32.102  14.624   2.686
59988W        W28318  42.323  29.115  10.613
59989W        W28319   3.224  19.228   4.203
59990W        W28320  16.655   1.964  10.630
59991W        W28321  27.684  30.136  14.913
59992W        W28322   6.335  36.050  10.962
59993W        W28323  28.504  18.785   0.269
59994W        W28324  18.093  32.539  12.951
59995W        W28325   8.786  19.709   4.760
59996W        W28326  34.989  34.460   2.406
59997W        W28327  11.349  41.293  12.355
59998W        W28328  34.574   3.316   5.122
59999W        W28329  10.225  22.572   1.776
60000W        W28330  17.137  24.568   2.824
60001W        W28331  36.418   2.964  12.082
60002W        W28332  25.203  30.158   1.695
60003W        W28333  37.073  12.691   4.119
60004W        W28334  18.273  27.455  10.551
60005W        W28335  42.347  19.051  13.468
60006W        W28336  16.086  23.653   2.836
60007W        W28337   7.726  19.635   5.146
60008W        W28338  23.041  14.259  10.899
60009W        W28339   9.765   3.773   2.415
60010W        W28340  11.360  43.328  12.538
60011W        W28341  30.071   1.439   2.871
60012W        W28342  35.077  15.675   2.732
60013W        W28343  35.444  25.103  12.090
60014W        W28344  17.637  16.151  13.923
60015W        W28345  44.458  15.239  12.547
60016W        W28346  44.273  27.083   3.349
60017W        W28347  36.461   3.332  13.922
60018W        W28348  34.092   8.683   2.830
60019W        W28349   2.466   0.874   1.855
60020W        W28350  38.451  16.266  10.420
60021W        W28351  27.148  16.156   0.730
60022W        W28352  28.618  24.606   4.330
60023W        W28353  37.057  35.967  11.906
60024W        W28354  29.496   1.414  10.516
60025W        W28355  24.982  11.819   2.749
60026W        W28356  37.349  20.149   3.696
60027W        W28357  30.640  21.258  14.466
60028W        W28358   1.460   2.904   1.809
60029W        W28359  19.120  24.515   5.138
60030W        W28360   5.823  10.749  10.566
60031W        W28361  10.261   5.217   2.343
60032W        W28362  19.083   9.862   4.768
60033W        W28363   6.755  33.530   0.441
60034W        W28364  10.161  37.978  12.033
60035W        W28365  12.227  37.836   3.687
60036W        W28366  30.983  36.974   0.256
60037W        W28367  16.597  37.950   1.849
60038W        W28368   6.860  17.289   4.806
60039W        W28369  12.199   5.689  14.963
60040W        W28370  21.522  42.452   0.294
60041W        W28371  17.121  27.163   4.226
60042W        W28372  26.137  27.637   4.241
60043W        W28373  16.619  31.103   4.682
60044W        W28374  42.347  23.013  12.509
60045W        W28375  15.777   3.924  11.920
60046W        W28376  16.143  19.549   1.213
60047W        W28377  42.776  10.639  11.878
60048W        W28378  33.887  18.155   0.954
60049W        W28379  27.671   2.765  13.411
60050W        W28380  37.434  36.373   5.288
60051W        W28381   8.689  40.849   3.630
60052W        W28382  37.025  26.977   0.944
60053W        W28383  32.471  32.393  10.447
60054W        W28384   4.390  15.767   3.839
60055W        W28385  25.674  42.374  13.891
60056W        W28386  33.553  34.885  14.500
60057W        W28387  29.002  18.752  11.894
60058W        W28388  38.850  19.769   0.358
60059W        W28389   8.322  18.206   4.218
60060W        W28390   8.762  24.074  11.945
60061W        W28391   7.188  32.139   0.442
60062W        W28392  34.438   4.219   0.295
60063W        W28393   3.375  25.518  11.985
60064W        W28394  22.630  30.530  13.426
60065W        W28395  21.127   0.764  13.921
60066W        W28396   7.792  23.580   4.284
60067W        W28397  29.653  37.997   0.864
60068W        W28398  32.926  12.697  11.908
60069W        W28399   0.272  43.393   0.768
60070W        W28400  14.174  33.399  11.937
60071W        W28401  40.323   5.814   3.316
60072W        W28402  37.842   9.788  10.971
60073W        W28403  15.819  34.526  12.950
60074W        W28404  22.504  29.599  11.525
60075W        W28405  26.646   3.835   3.322
60076W        W28406  43.008  14.750  14.858
60077W        W28407  22.555   3.723  14.993
60078W        W28408  11.689  42.006  13.973
60079W        W28409  36.352  11.269   0.437
60080W        W28410  22.715   8.732   1.770
60081W        W28411  32.419  37.022  13.890
60082W        W28412  16.239  39.946   2.666
60083W        W28413  37.410  35.885   1.419
60084W        W28414  12.352  12.834  10.591
60085W        W28415  25.584   7.783   4.612
60086W        W28416  32.920  28.636   4.165
60087W        W28417  17.644  22.124  13.394
60088W        W28418  38.050  24.230   4.244
60089W        W28419   8.396   6.270   2.813
60090W        W28420  15.106  25.468   2.863
60091W        W28421   5.924  29.994   2.736
60092W        W28422  10.298  18.209  14.878
60093W        W28423   7.404   8.385   1.862
60094W        W28424  13.647   8.242   1.366
60095W        W28425  19.181   3.740   2.848
60096W        W28426   9.848  37.499   3.804
60097W        W28427  34.871  23.014  10.611
60098W        W28428  27.118  29.034  14.470
60099W        W28429  39.815  27.023   4.814
60100W        W28430  14.289  13.239   2.275
60101W        W28431  31.038  33.932   1.430
60102W        W28432  31.081   3.859  14.420
60103W        W28433  42.841  34.510  14.930
60104W        W28434  43.977  26.075  12.400
60105W        W28435  36.458  31.482   1.829
60106W        W28436  30.457  40.377  13.003
60107W        W28437  26.587  11.815  12.913
60108W        W28438  20.704  40.378   0.742
60109W        W28439   6.306  32.599  12.036
60110W        W28440   4.345  31.617  10.522
60111W        W28441   4.916  34.111   0.953
60112W        W28442  26.660  12.279  10.105
60113W        W28443  22.161  20.192  11.931
60114W        W28444  24.035  30.164   1.869
60115W        W28445  33.991  18.211  11.953
60116W        W28446  30.445  24.167   3.692
60117W        W28447   0.274  18.755  13.943
60118W        W28448   5.363  22.120   1.242
60119W        W28449   2.911  40.035  13.355
60120W        W28450  11.797  28.049  13.893
60121W        W28451  23.992   8.887   3.232
60122W        W28452  15.693   6.332   0.829
60123W        W28453  32.996   0.877  11.910
60124W        W28454  16.264  10.760  12.942
60125W        W28455   6.921  39.864  11.442
60126W        W28456   5.307  31.975   3.686
60127W        W28457   0.476   8.802   1.897
60128W        W28458  15.647  44.954  12.045
60129W        W28459  19.042  35.045   2.698
60130W        W28460  40.516  33.544   1.359
60131W        W28461   4.249  28.945  11.048
60132W        W28462  43.418  19.175  10.487
60133W        W28463  37.375   4.942   3.338
60134W        W28464  20.093  13.336   3.632
60135W        W28465  24.106  36.861   3.298
60136W        W28466  11.202  12.852   4.733
60137W        W28467   2.421  38.040  14.013
60138W        W28468  28.623  38.074  11.885
60139W        W28469  22.561  40.315  13.953
60140W        W28470  41.386  18.701  12.358
60141W        W28471  27.174  31.060   1.257
60142W        W28472  10.282  12.743  10.066
60143W        W28473  18.637  24.983   1.730
60144W        W28474  37.541   4.746  14.829
60145W        W28475  11.621  43.914   3.375
60146W        W28476  44.798  13.672   3.327
60147W        W28477  39.929  18.269   1.256
60148W        W28478   7.760  32.486   3.783
60149W        W28479  43.889  25.707   3.823
60150W        W28480   8.342  16.767  12.912
60151W        W28481  16.714  11.656   2.261
60152W        W28482  33.068  31.401  14.802
60153W        W28483   9.189  19.750  11.084
60154W        W28484  32.954   7.272  12.029
60155W        W28485   0.975   5.332   3.792
60156W        W28486  35.428  17.755  10.905
60157W        W28487  23.620   1.910   1.742
60158W        W28488  36.501  34.558   4.275
60159W        W28489   4.778  19.141  14.870
60160W        W28490  26.027  26.046   4.787
60161W        W28491  21.122  31.045   3.843
60162W        W28492  27.158   0.412  10.617
60163W        W28493   5.332  39.879   2.274
60164W        W28494  13.297  38.866   2.778
60165W        W28495  35.038  20.539   3.382
60166W        W28496  18.641  32.088  10.628
60167W        W28497  32.973   6.220   1.927
60168W        W28498   7.236   2.886   2.233
60169W        W28499   5.912   5.773   3.715
60170W        W28500  43.934   0.748  12.033
60171W        W28501  21.195   6.412   3.789
60172W        W28502  14.327   7.888   0.824
60173W        W28503   7.776  38.928  13.388
60174W        W28504  26.617  45.000   2.325
60175W        W28505  32.895  12.796   0.957
60176W        W28506  10.847   1.975  11.458
60177W        W28507   0.877  27.479  13.956
60178W        W28508  27.468  24.504   2.414
60179W        W28509  31.130  12.281  13.854
60180W        W28510  21.092  35.020   3.835
60181W        W28511  10.264  25.581  12.421
60182W        W28512   6.361   0.801  10.635
60183W        W28513  44.782  24.989  13.945
60184W        W28514  19.216  35.580  10.906
60185W        W28515  16.318   9.714   4.803
60186W        W28516  40.045  16.235   0.820
60187W        W28517  42.867  33.088  10.937
60188W        W28518  21.755  39.051   3.757
60189W        W28519  27.633  35.364  11.991
60190W        W28520  19.052  27.035   2.834
60191W        W28521  27.567   1.299  14.475
60192W        W28522  41.431   7.336  10.443
60193W        W28523  20.159   1.363   0.951
60194W        W28524  36.464  19.230  10.457
60195W        W28525  35.919  16.664   1.739
60196W        W28526   0.798  35.360  11.412
60197W        W28527   4.341  11.748  12.057
60198W        W28528  18.296  29.003   4.767
60199W        W28529  36.047  43.993   2.315
60200W        W28530  21.099  23.704  10.046
60201W        W28531  13.154   6.921  10.941
60202W        W28532   8.187  22.713   1.326
60203W        W28533  36.053   2.426   3.635
60204W        W28534  31.116   3.805  11.536
60205W        W28535  18.228  27.182   3.150
60206W        W28536   1.290   5.847   2.872
60207W        W28537   1.431   7.745   2.379
60208W        W28538  27.576   0.904   4.660
60209W        W28539  41.828  38.067   0.836
60210W        W28540  16.667  17.649  12.474
60211W        W28541  24.725  30.624   4.137
60212W        W28542  22.618  43.902   4.646
60213W        W28543   4.347  34.551  14.328
60214W        W28544  35.039  32.547   1.928
60215W        W28545  40.931  35.518  11.097
60216W        W28546  33.408  42.363  11.957
60217W        W28547  14.259  12.352  14.363
60218W        W28548  10.381  21.029  12.487
60219W        W28549   8.280  42.825   0.790
60220W        W28550  19.121  25.507   1.292
60221W        W28551  27.594  30.481   3.297
60222W        W28552  21.203  20.564   4.325
60223W        W28553  11.327  21.526  12.486
60224W        W28554   2.399  41.307   4.723
60225W        W28555   0.477  38.344   3.177
60226W        W28556  40.391  15.205  13.028
60227W        W28557  23.209  17.659   4.273
60228W        W28558  13.128  25.534  13.420
60229W        W28559  24.668  29.525  12.466
60230W        W28560  17.231  24.048   2.378
60231W        W28561  17.696  43.408   2.189
60232W        W28562  35.413  36.865   4.787
60233W        W28563   8.364  31.087  11.096
60234W        W28564  29.638  38.464  13.522
60235W        W28565  22.018   8.808   1.317
60236W        W28566  16.147  33.510  11.047
60237W        W28567  39.413  41.500  14.854
60238W        W28568  42.912   7.276  12.851
60239W        W28569  34.890  42.526   2.715
60240W        W28570  19.675  19.760   5.101
60241W        W28571  17.748  11.220  14.363
60242W        W28572   1.911  23.714   1.737
60243W        W28573  32.422  24.051  10.509
60244W        W28574  33.080  21.681   1.776
60245W        W28575  44.366   8.723   1.439
60246W        W28576  13.248  34.541  11.879
60247W        W28577  31.636  37.360   3.225
60248W        W28578  38.966  10.275   4.337
60249W        W28579  29.989   4.357  14.423
60250W        W28580  38.503  12.635   0.818
60251W        W28581  35.865  32.102  10.638
60252W        W28582  20.741  28.060  11.573
60253W        W28583  23.239  34.566   3.869
60254W        W28584  42.020  35.465   4.763
60255W        W28585  44.375  37.011  12.423
60256W        W28586  17.213  39.443  12.003
60257W        W28587  41.978  41.319  10.127
60258W        W28588  37.474  11.668  11.126
60259W        W28589  31.926  29.517   3.205
60260W        W28590   2.393  41.037  13.817
60261W        W28591   2.304  31.081   2.790
60262W        W28592   9.718  25.195  12.509
60263W        W28593  13.293  17.257  10.640
60264W        W28594  29.437  10.282  11.121
60265W        W28595  23.003  13.837  14.782
60266W        W28596  29.925   4.930   3.325
60267W        W28597   8.299  37.085   4.322
60268W        W28598  30.076  36.044   3.268
60269W        W28599  34.392   1.371  11.456
60270W        W28600  13.749  44.404  10.075
60271W        W28601  28.588   4.309  11.607
60272W        W28602  18.227  41.920   2.207
60273W        W28603  27.121  15.118  13.483
60274W        W28604   1.268   9.353   2.356
60275W        W28605  33.548  37.022   3.696
60276W        W28606  31.013  23.148   0.397
60277W        W28607  36.489  25.088  12.877
60278W        W28608   1.789  36.929   0.764
60279W        W28609  18.626  34.016  12.825
60280W        W28610  29.500  12.316   4.245
60281W        W28611  32.929   8.859  13.947
60282W        W28612  35.500  29.545  13.827
60283W        W28613  13.826  24.168  14.346
60284W        W28614  32.108  23.211  12.004
60285W        W28615  42.346  43.952  14.408
60286W        W28616   6.773  41.007  14.864
60287W        W28617   0.975   9.774  10.565
60288W        W28618  29.557  30.544   4.832
60289W        W28619  37.443  30.979   3.852
60290W        W28620  38.866  13.299   3.278
60291W        W28621  40.460  43.413   4.800
60292W        W28622  10.296  12.747  11.380
60293W        W28623  31.151  20.600   0.451
60294W        W28624   3.933  36.348   3.767
60295W        W28625  43.419  16.807  12.977
60296W        W28626   7.394   3.719   0.460
60297W        W28627  38.006  30.413   3.718
60298W        W28628  34.072  26.672  12.934
60299W        W28629  19.568   3.438   4.207
60300W        W28630  39.392  20.764   4.686
60301W        W28631  20.659  17.090   0.853
60302W        W28632  21.753  35.396   2.792
60303W        W28633  29.018  37.998   2.228
60304W        W28634   5.326  14.255   4.644
60305W        W28635  42.854  42.858   4.702
60306W        W28636  15.608  21.603  10.490
60307W        W28637  42.288   2.377  12.452
60308W        W28638  15.181  19.123  12.095
60309W        W28639  43.846  23.240  13.798
60310W        W28640  35.526  37.960  11.881
60311W        W28641  41.433   4.440   2.873
60312W        W28642  21.669  43.271  11.074
60313W        W28643  12.616   7.834  13.842
60314W        W28644  28.452  33.096   2.871
60315W        W28645  29.068  36.008   3.364
60316W        W28646  34.500   3.915  14.842
60317W        W28647   1.819  18.271   0.727
60318W        W28648  20.050  28.185   3.731
60319W        W28649  44.305  10.239  12.446
60320W        W28650  20.655  25.001  10.457
60321W        W28651  17.670   3.284   1.695
60322W        W28652  19.571  19.082  11.443
60323W        W28653   4.430   2.738   2.259
60324W        W28654  37.573  26.092   0.782
60325W        W28655  42.892   4.910  11.445
60326W        W28656  31.997   1.447  14.979
60327W        W28657   6.199   6.396   9.952
60328W        W28658  28.455  20.632   4.121
60329W        W28659  11.723   6.235  12.457
60330W        W28660  22.176  25.100  12.942
60331W        W28661  15.180  37.927  10.486
60332W        W28662  17.752  17.219  14.790
60333W        W28663   2.266  29.095   0.893
60334W        W28664  39.874  12.824  14.792
60335W        W28665   3.285  42.938  10.623
60336W        W28666  12.637   1.783   0.863
60337W        W28667   7.778   8.399   2.805
60338W        W28668  11.178  17.623  12.492
60339W        W28669   4.405  40.869   0.278
60340W        W28670  24.027  44.952   1.897
60341W        W28671  11.343  11.837   0.932
60342W        W28672  17.289  41.795   3.255
60343W        W28673  21.672  15.251   1.808
60344W        W28674  23.657  19.777  12.359
60345W        W28675  12.160  27.189   2.331
60346W        W28676   0.256  22.036   4.711
60347W        W28677  18.091  15.174   0.263
60348W        W28678   2.401  22.669  11.613
60349W        W28679   8.239   8.889   3.843
60350W        W28680   5.717  10.834  14.881
60351W        W28681  35.922  13.292   1.783
60352W        W28682  29.524  29.604   0.950
60353W        W28683  26.139   6.849   1.221
60354W        W28684  33.459  22.612  10.056
60355W        W28685  20.133  13.277  12.546
60356W        W28686  11.253  38.992   0.789
60357W        W28687  12.832  44.374  10.578
60358W        W28688  38.953  38.004   0.393
60359W        W28689  31.124  39.884   4.265
60360W        W28690   5.216  16.149   2.205
60361W        W28691   4.790   9.214  10.444
60362W        W28692  14.611  30.060  11.953
60363W        W28693   0.750  12.160   2.268
60364W        W28694  12.258  11.371  11.961
60365W        W28695   5.695  36.476   0.431
60366W        W28696   7.815   9.264   4.611
60367W        W28697  16.118   1.305   4.326
60368W        W28698  38.838  28.142   4.701
60369W        W28699  38.342  28.486  13.368
60370W        W28700  24.024  41.013   4.177
60371W        W28701  11.224  12.158  11.579
60372W        W28702  12.633  33.121  10.627
60373W        W28703  31.522  33.436   0.268
60374W        W28704   7.904  14.672  13.509
60375W        W28705   0.364  34.117   4.604
60376W        W28706  20.648   3.869   2.877
60377W        W28707  35.874  25.627  14.491
60378W        W28708  12.222  21.549  11.115
60379W        W28709  41.311   8.706  13.053
60380W        W28710   9.249  17.195   2.182
60381W        W28711  38.045  15.308   0.455
60382W        W28712  34.085  22.204   3.749
60383W        W28713  39.375   6.795   3.287
60384W        W28714  19.772  19.634  13.936
60385W        W28715   2.375  37.364  14.943
60386W        W28716  16.607  35.471   4.236
60387W        W28717  41.339  39.929  14.404
60388W        W28718  12.202  16.281  12.472
60389W        W28719   1.814  18.091  13.011
60390W        W28720  42.972  26.669  11.383
60391W        W28721  19.233   5.698  12.091
60392W        W28722   2.357  39.441   9.536
60393W        W28723  19.247  20.702   1.908
60394W        W28724  35.995  30.543   3.311
60395W        W28725  21.184  18.561   4.174
60396W        W28726  44.298  12.784   0.297
60397W        W28727  31.574   4.270  11.119
60398W        W28728  40.354   3.323  13.041
60399W        W28729   2.818  10.749   3.238
60400W        W28730  34.458  10.744   3.850
60401W        W28731  11.259  23.207   0.435
60402W        W28732  36.953  13.605  14.963
60403W        W28733   8.240  29.579   0.921
60404W        W28734  33.007  27.604   4.116
60405W        W28735  41.535  44.285  10.003
60406W        W28736  27.670  29.068  13.881
60407W        W28737  17.762   2.459  12.029
60408W        W28738   7.229  34.976  10.595
60409W        W28739  44.958  15.690  14.294
60410W        W28740   9.368  36.847  11.002
60411W        W28741  26.518   8.883   9.964
60412W        W28742  37.430   2.424  12.473
60413W        W28743  14.225  34.035  11.543
60414W        W28744   9.187  14.625  13.844
60415W        W28745  21.019  17.074  10.522
60416W        W28746  11.347  10.215  14.887
60417W        W28747  24.556  25.003   4.684
60418W        W28748  36.092  20.230   1.411
60419W        W28749  27.173  15.325  11.453
60420W        W28750  28.974  43.498   0.799
60421W        W28751  41.005  22.132   4.655
60422W        W28752  11.846   9.732  14.008
60423W        W28753  19.718  10.368  14.365
60424W        W28754  19.072  17.157  10.982
60425W        W28755  28.501   0.796  13.500
60426W        W28756  34.602  12.632   1.446
60427W        W28757  31.954   9.672   4.636
60428W        W28758  38.462  39.811   0.436
60429W        W28759  15.595   3.785   4.253
60430W        W28760  16.227  22.679   1.893
60431W        W28761  30.427  25.993  11.517
60432W        W28762  27.613  34.056   4.159
60433W        W28763  37.935  31.049  11.005
60434W        W28764  17.250  25.511  13.849
60435W        W28765  17.304  43.861   3.781
60436W        W28766  29.534   9.319   0.875
60437W        W28767   8.312   5.438  14.461
60438W        W28768  19.222   2.891   4.202
60439W        W28769  29.008  22.034  11.997
60440W        W28770  33.485  20.222  11.079
60441W        W28771  23.107  23.009   2.254
60442W        W28772  16.197  37.074   0.926
60443W        W28773  20.056  23.172   5.724
60444W        W28774  11.741  40.303  14.435
60445W        W28775  14.642  30.451  14.781
60446W        W28776  10.177  11.636   2.398
60447W        W28777   7.232  32.964   4.221
60448W        W28778  10.772  30.124  12.985
60449W        W28779  42.776  21.644   3.301
60450W        W28780   6.405   1.806  14.441
60451W        W28781  28.126  38.958  11.588
60452W        W28782   4.420   9.192   1.740
60453W        W28783  22.622  31.090   5.607
60454W        W28784  21.184  22.011   3.672
60455W        W28785  32.455  32.113   0.804
60456W        W28786  14.170  41.927   0.956
60457W        W28787  42.332  20.691   2.837
60458W        W28788  28.606  12.341   2.703
60459W        W28789   7.221  13.251   3.249
60460W        W28790  40.834  23.071   3.384
60461W        W28791   7.777   0.319  10.962
60462W        W28792   6.371  27.009  14.890
60463W        W28793   4.330  12.791  11.953
60464W        W28794  16.575  17.703  14.458
60465W        W28795  28.549  22.169   2.761
60466W        W28796  16.226  26.649  11.905
60467W        W28797  39.431  13.830   4.143
60468W        W28798   4.720  15.308   9.991
60469W        W28799   1.907  43.336  14.457
60470W        W28800  43.790  42.419   3.679
60471W        W28801  24.633  31.557   2.375
60472W        W28802  40.869  43.825  14.465
60473W        W28803  12.665  42.775  11.952
60474W        W28804  42.453  23.090   0.300
60475W        W28805  35.531  10.859   2.799
60476W        W28806  19.102  15.089  12.500
60477W        W28807   2.767  27.065   0.315
60478W        W28808  16.225  39.012   0.271
60479W        W28809   3.234  16.172   3.805
60480W        W28810  13.844  32.931  12.093
60481W        W28811  27.180  36.897  12.480
60482W        W28812  11.645   0.309  14.415
60483W        W28813  33.486  27.484  12.919
60484W        W28814  25.121  27.158  14.960
60485W        W28815  44.822  33.112  12.555
60486W        W28816  32.637  29.174  14.421
60487W        W28817  15.280  39.045  13.515
60488W        W28818  37.921  19.739   5.091
60489W        W28819   8.352  21.240   2.402
60490W        W28820  11.208   3.350   4.148
60491W        W28821  32.486  22.100  14.790
60492W        W28822  28.117   3.729  10.505
60493W        W28823  36.887  26.124  13.369
60494W        W28824  40.968   9.829   0.422
60495W        W28825  33.894  17.781   2.669
60496W        W28826  14.123  27.078  12.465
60497W        W28827  35.492  42.340   0.328
60498W        W28828   6.256  15.777  12.953
60499W        W28829  14.317  19.652  12.836
60500W        W28830   0.814  24.005   4.709
60501W        W28831  32.022  21.710  11.885
60502W        W28832  40.396  36.580  12.536
60503W        W28833   4.231  22.137  10.608
60504W        W28834  22.112  16.686   3.646
60505W        W28835  26.478   4.288  14.461
60506W        W28836  44.923  37.475   3.740
60507W        W28837   7.276   3.258   2.684
60508W        W28838  26.478   6.195  10.599
60509W        W28839  33.506  28.539  12.513
60510W        W28840  11.310  12.748   1.406
60511W        W28841  18.689  33.030   4.226
60512W        W28842  29.545  24.685   0.278
60513W        W28843  27.170  13.792   1.702
60514W        W28844   1.474  25.552   2.314
60515W        W28845  43.839   4.767   3.637
60516W        W28846  33.395  44.947  10.904
60517W        W28847  30.653  30.587   1.419
60518W        W28848  23.014   6.827   4.817
60519W        W28849  36.913   2.771  11.442
60520W        W28850   9.802  42.782  11.069
60521W        W28851  33.409  24.673   0.279
60522W        W28852  35.029   5.903  13.394
60523W        W28853  20.130   6.919  13.975
60524W        W28854  20.664  22.172   2.838
60525W        W28855  17.561  32.892   1.878
60526W        W28856  41.532  11.853   0.292
60527W        W28857  17.129  42.829   3.287
60528W        W28858  15.227  15.736  12.857
60529W        W28859  11.679  14.689   4.754
60530W        W28860  16.164  15.183  11.889
60531W        W28861  36.921  39.430   1.332
60532W        W28862  14.285  24.213  11.556
60533W        W28863  27.103  14.298   1.268
60534W        W28864  20.262  21.082   0.419
60535W        W28865   3.832   1.394   4.707
60536W        W28866  37.440  17.099  12.488
60537W        W28867  28.065  15.268   0.264
60538W        W28868  36.430  36.899  13.888
60539W        W28869  10.249  36.536  11.935
60540W        W28870  18.166  35.093   0.782
60541W        W28871  44.780  24.642   1.857
60542W        W28872   8.392  41.359  13.489
60543W        W28873   3.254  21.022   3.827
60544W        W28874  29.107  20.252  13.855
60545W        W28875  18.285  43.331  12.366
60546W        W28876  19.655  29.947  14.004
60547W        W28877  34.511  37.971   3.362
60548W        W28878  17.139   5.369   2.819
60549W        W28879  19.707  25.006  14.816
60550W        W28880   9.365  39.505  10.622
60551W        W28881  13.255  28.120   3.200
60552W        W28882  12.854  13.737   0.741
60553W        W28883  14.802  22.020  12.942
60554W        W28884  10.187  32.547   3.279
60555W        W28885  38.885  17.761   1.725
60556W        W28886   8.850   1.825   4.660
60557W        W28887  25.039  43.877  11.107
60558W        W28888  35.924  39.815  12.854
60559W        W28889   6.409  16.144   4.294
60560W        W28890  16.128   6.425   4.605
60561W        W28891   1.299  30.974   2.769
60562W        W28892  41.993  44.334  12.346
60563W        W28893   2.887  43.462   3.780
60564W        W28894  39.954  29.981   2.323
60565W        W28895  39.051  23.607   9.941
60566W        W28896  17.304  20.541  10.021
60567W        W28897   4.296  21.629   1.310
60568W        W28898   2.939  37.357  13.836
60569W        W28899  25.532   4.429   2.278
60570W        W28900   0.337  25.624  11.923
60571W        W28901  25.501  11.809  10.947
60572W        W28902  29.658  34.591  14.282
60573W        W28903  36.071   8.218  13.856
60574W        W28904  21.576   1.429   1.245
60575W        W28905  27.579  43.879  10.462
60576W        W28906  27.522  18.098  13.547
60577W        W28907  21.739  23.091   3.210
60578W        W28908  27.042  34.592  10.443
60579W        W28909   0.428  43.328  14.856
60580W        W28910  22.010  25.166   1.848
60581W        W28911  38.917   6.287   3.147
60582W        W28912  16.682  27.683   4.725
60583W        W28913  26.555  27.654   4.241
60584W        W28914  21.201   4.943  12.930
60585W        W28915  39.831   8.716   5.629
60586W        W28916  35.380  19.170   2.317
60587W        W28917   3.915  15.323   1.429
60588W        W28918  40.441  34.408   5.229
60589W        W28919   2.389   0.303   2.828
60590W        W28920  13.288   8.694  13.426
60591W        W28921  26.094  18.102   2.680
60592W        W28922  37.956  28.161   3.255
60593W        W28923   2.720  10.151  12.494
60594W        W28924  38.538  32.099  14.511
60595W        W28925  36.494  20.760  12.045
60596W        W28926  27.954  18.104   9.986
60597W        W28927  39.881  20.074   2.738
60598W        W28928  14.667  33.961  14.366
60599W        W28929  28.070   8.685   4.656
60600W        W28930   0.481  27.595  13.337
60601W        W28931  41.904  43.495   2.682
60602W        W28932  40.477  34.534   3.347
60603W        W28933  31.443  10.676  10.644
60604W        W28934  15.632  39.466   0.843
60605W        W28935  28.002  39.029   0.393
60606W        W28936   9.863  28.668   1.344
60607W        W28937  22.205  27.472  11.056
60608W        W28938  28.024  22.204   2.774
60609W        W28939  30.058  17.587  11.441
60610W        W28940  27.471  19.756  14.792
60611W        W28941  38.066  31.548   3.740
60612W        W28942  18.183  35.425   0.328
60613W        W28943  29.098  13.796  12.366
60614W        W28944   4.831  30.004  10.500
60615W        W28945   4.393  41.485   1.694
60616W        W28946  44.982  12.203  12.940
60617W        W28947  32.442  41.533  14.012
60618W        W28948  29.964  25.153  10.438
60619W        W28949   2.964  36.860  11.505
60620W        W28950   7.203  22.500  13.029
60621W        W28951  35.591  43.795  14.375
60622W        W28952  14.806  16.766  12.340
60623W        W28953   5.926  31.444  11.468
60624W        W28954  26.175  19.147   0.883
60625W        W28955  36.541  15.726   1.331
60626W        W28956  41.978  11.668  10.969
60627W        W28957  24.227  28.155  10.147
60628W        W28958   6.802   2.366  12.369
60629W        W28959  24.061   8.765  13.909
60630W        W28960  16.179  20.539  12.855
60631W        W28961  40.364  13.181  12.438
60632W        W28962  19.696  13.283   0.262
60633W        W28963  43.829  29.967  13.404
60634W        W28964   2.374  35.441  14.964
60635W        W28965  24.186   8.386   3.834
60636W        W28966  27.072   0.261   1.780
60637W        W28967  15.701  28.438   4.114
60638W        W28968   7.894  32.040  14.804
60639W        W28969   8.277  25.999   4.260
60640W        W28970   2.247  37.946   0.345
60641W        W28971  34.910  18.052  10.557
60642W        W28972  29.548  41.340  11.120
60643W        W28973  39.019   5.401   5.584
60644W        W28974  40.914  23.157  13.984
60645W        W28975  30.543   1.348  12.910
60646W        W28976  41.886  29.055   2.195
60647W        W28977  14.217  28.629  13.322
60648W        W28978  18.155  38.359   2.254
60649W        W28979  11.160   6.360   2.870
60650W        W28980  23.178  23.122   3.667
60651W        W28981  43.863  34.524   2.779
60652W        W28982  21.528   8.171   3.290
60653W        W28983  34.426  14.331   3.812
60654W        W28984  32.077  12.123  14.829
60655W        W28985  24.607   6.739   1.368
60656W        W28986   7.270  29.955   1.723
60657W        W28987  43.895  16.095   4.599
60658W        W28988  13.756  36.567  14.488
60659W        W28989   9.717  39.480   4.263
60660W        W28990  40.447  44.421   0.965
60661W        W28991  34.071  40.957  14.832
60662W        W28992  33.997  32.533  10.967
60663W        W28993  24.591   1.403  12.835
60664W        W28994  42.992  13.342  11.872
60665W        W28995  44.961   0.411  14.809
60666W        W28996  17.707  23.209   9.598
60667W        W28997  18.075  36.960  14.329
60668W        W28998  25.562  32.541   0.855
60669W        W28999  15.156   9.862  12.383
60670W        W29000  12.685  20.266   3.790
60671W        W29001   0.879  38.438  14.022
60672W        W29002  25.601  15.248   0.841
60673W        W29003  18.057  25.488   2.783
60674W        W29004  25.036  10.735   9.603
60675W        W29005  14.321  22.572   0.828
60676W        W29006  39.852  28.639   4.248
60677W        W29007  19.553  42.396   2.896
60678W        W29008  20.204  12.268   2.336
60679W        W29009  12.291  19.623  12.048
60680W        W29010  37.081   6.230  10.939
60681W        W29011  25.983   1.915   0.261
60682W        W29012  35.059   1.285   1.734
60683W        W29013  41.904  22.059  13.411
60684W        W29014  36.098  22.545   3.783
60685W        W29015  30.533   8.393   0.865
60686W        W29016   6.370   5.257   1.797
60687W        W29017  38.905  19.697  11.459
60688W        W29018   7.224  11.755   1.699
60689W        W29019  30.553   8.816   2.766
60690W        W29020  41.327  31.988  14.792
60691W        W29021  17.726  25.501   0.832
60692W        W29022  16.089  37.903  12.454
60693W        W29023  37.345  13.657  13.862
60694W        W29024  20.098  40.843   2.861
60695W        W29025   2.319  12.254  13.538
60696W        W29026  20.758   3.281  13.853
60697W        W29027  19.069  12.804   2.741
60698W        W29028  14.610  43.295   1.859
60699W        W29029  26.627  40.852   2.237
60700W        W29030  22.691   7.752  10.548
60701W        W29031  28.149   1.943  14.028
60702W        W29032  31.478  19.554  13.490
60703W        W29033  37.578  23.508  14.293
60704W        W29034  22.655  11.654  13.938
60705W        W29035  23.647  39.392  11.879
60706W        W29036  26.168  22.596  10.506
60707W        W29037  20.082   3.404   1.720
60708W        W29038  23.572  12.648   2.733
60709W        W29039  27.548  44.991  10.483
60710W        W29040  17.148  22.694  11.118
60711W        W29041  42.428  39.343   3.779
60712W        W29042  32.420  35.973   3.271
60713W        W29043  19.089   9.243   0.460
60714W        W29044   6.193  39.372   4.787
60715W        W29045  39.349  24.644   3.375
60716W        W29046   0.811  15.638   4.614
60717W        W29047   7.266  42.848   2.677
60718W        W29048  38.072  32.478  11.432
60719W        W29049  10.249  10.781   4.652
60720W        W29050  12.647   6.330  11.430
60721W        W29051  16.641   1.245  11.567
60722W        W29052  25.096  24.117  14.968
60723W        W29053  14.217  38.031   2.299
60724W        W29054  31.042  17.147  11.935
60725W        W29055  38.527  37.347   1.718
60726W        W29056  44.400  34.028   3.371
60727W        W29057   6.233   5.431   0.258
60728W        W29058  28.937  18.562  11.033
60729W        W29059  29.047   5.800  13.061
60730W        W29060  31.488  13.117   2.277
60731W        W29061   4.779  44.961   2.405
60732W        W29062  38.945  27.447   1.749
60733W        W29063  32.124   0.804  13.000
60734W        W29064  22.187  22.071  13.859
60735W        W29065   8.677  31.976   4.705
60736W        W29066  31.991  40.817   0.322
60737W        W29067  24.048  41.524  10.474
60738W        W29068  23.571  35.497   1.902
60739W        W29069  30.555  39.999  14.797
60740W        W29070  43.823   7.309  13.915
60741W        W29071  22.638  13.705   4.206
60742W        W29072   0.803  31.549  11.468
60743W        W29073  42.827  36.420  10.519
60744W        W29074   0.979   2.754  12.914
60745W        W29075   4.811  19.599  12.052
60746W        W29076  14.690  16.133  12.967
60747W        W29077  14.124  30.112   2.715
60748W        W29078  31.552  15.127  13.863
60749W        W29079  24.549  24.024   0.258
60750W        W29080  20.191  10.364   4.814
60751W        W29081   0.943  23.233  12.088
60752W        W29082   8.175  34.908   1.719
60753W        W29083  24.161  36.458  13.523
60754W        W29084  44.908  42.968   2.347
60755W        W29085   9.390   5.436   1.282
60756W        W29086   0.451  22.646   3.342
60757W        W29087   1.471  37.015  11.943
60758W        W29088  11.854   2.265  11.068
60759W        W29089  35.950  32.528  14.030
60760W        W29090  29.167  28.638   3.374
60761W        W29091  26.626  15.263   2.357
60762W        W29092  14.320  14.756  11.478
60763W        W29093   8.304  38.523  11.987
60764W        W29094  40.343  42.776   3.206
60765W        W29095  29.653  19.720  10.012
60766W        W29096  35.432  39.818  12.502
60767W        W29097  23.147  25.646   0.427
60768W        W29098  29.607  35.898  12.407
60769W        W29099   0.444   1.761   2.402
60770W        W29100  23.061  34.912   2.686
60771W        W29101  44.005  12.352   3.707
60772W        W29102   5.316   4.283   1.925
60773W        W29103   0.252  32.114  13.832
60774W        W29104  40.505   6.741  13.468
60775W        W29105  16.733  22.746   4.223
60776W        W29106  16.127  27.535   1.404
60777W        W29107  23.565  27.481  14.385
60778W        W29108  27.521  41.922   2.729
60779W        W29109  36.387  18.180   1.875
60780W        W29110  44.833  23.142   2.738
60781W        W29111  36.366  33.064   3.674
60782W        W29112  32.554   3.456  12.579
60783W        W29113   5.407  19.772  14.291
60784W        W29114   3.390  24.546   1.784
60785W        W29115   5.308  43.823  11.068
60786W        W29116  22.212  32.577  12.916
60787W        W29117   8.268  41.896   4.311
60788W        W29118  40.409  21.250   0.310
60789W        W29119   0.816  27.137   2.179
60790W        W29120   6.314   3.222  11.482
60791W        W29121   9.696  23.230  13.443
60792W        W29122   6.906  22.249  13.048
60793W        W29123   4.761  16.748   1.236
60794W        W29124   0.864  18.166  11.879
60795W        W29125  42.812  23.059   1.362
60796W        W29126   9.355  18.215   1.326
60797W        W29127  12.143  23.183   4.283
60798W        W29128  40.463  39.877   1.261
60799W        W29129   5.704  27.185  13.044
60800W        W29130  38.948   9.749  13.972
60801W        W29131  28.032  25.105  13.061
60802W        W29132  13.158  13.134   3.362
60803W        W29133  11.831  32.471   0.750
60804W        W29134   3.267   7.867  13.372
60805W        W29135  25.505  36.077  12.051
60806W        W29136  29.657   3.329   1.334
60807W        W29137   9.803  25.143   1.443
60808W        W29138   1.827  32.610   0.782
60809W        W29139  22.174  34.048   4.599
60810W        W29140  39.346  17.133  10.952
60811W        W29141   1.426  22.716   3.289
60812W        W29142  30.913  12.848  14.870
60813W        W29143   0.294  34.441  10.628
60814W        W29144  28.568  22.583  13.948
60815W        W29145  19.192  31.947  14.027
60816W        W29146  17.642  33.097   2.886
60817W        W29147  12.299  22.176   1.415
60818W        W29148  36.486   0.468  10.906
60819W        W29149   5.845  31.442  12.035
60820W        W29150  32.992  14.818  13.368
60821W        W29151  25.163  12.192  13.394
60822W        W29152  41.392  24.582  13.876
60823W        W29153  26.018  36.002  14.278
60824W        W29154  27.085  21.682  11.017
60825W        W29155  16.187  26.959  12.385
60826W        W29156  22.587   0.801   4.811
60827W        W29157  20.201  30.052   1.328
60828W        W29158  21.145  25.210  14.443
60829W        W29159   4.720  22.702   0.832
60830W        W29160   0.770  37.005   1.721
60831W        W29161   7.701  41.370   0.427
60832W        W29162  17.143  13.122   2.311
60833W        W29163  16.639  35.397  14.468
60834W        W29164  33.598  19.135  13.805
60835W        W29165  21.528  36.866   2.819
60836W        W29166  38.912  19.561   2.835
60837W        W29167  34.586  26.122   2.256
60838W        W29168  16.137  29.450   0.356
60839W        W29169  38.519  34.542  12.374
60840W        W29170  21.102  35.493  12.347
60841W        W29171  40.483  42.410   2.253
60842W        W29172  20.726  14.728   0.841
60843W        W29173  10.655  31.530  13.025
60844W        W29174   5.704  13.713  13.063
60845W        W29175  27.659  22.198  11.047
60846W        W29176  27.172  20.207   4.775
60847W        W29177  12.199  37.575  11.496
60848W        W29178  25.087  19.762  11.567
60849W        W29179  40.986  24.692   0.774
60850W        W29180   1.833   4.247  14.333
60851W        W29181   8.666  23.235   0.878
60852W        W29182  26.508  32.490  13.951
60853W        W29183  40.863  39.515  12.364
60854W        W29184   9.365  24.126  10.471
60855W        W29185  17.729  26.144  10.954
60856W        W29186  39.349  23.229  11.066
60857W        W29187  44.273   1.268  13.446
60858W        W29188  34.436  42.289  11.564
60859W        W29189  23.226  27.570  10.897
60860W        W29190  40.490  34.518   3.656
60861W        W29191  24.691  15.301   0.762
60862W        W29192  31.104   3.381   2.902
60863W        W29193   6.878  23.156  11.879
60864W        W29194   7.731  33.556   2.376
60865W        W29195  38.366  22.692   1.351
60866W        W29196   3.789  32.100   1.935
60867W        W29197  30.938  10.204   1.333
60868W        W29198  18.234  38.347   2.694
60869W        W29199  38.994  16.789   0.425
60870W        W29200  22.111  36.886  13.059
60871W        W29201  44.791  30.928  11.962
60872W        W29202   4.881  30.548   9.959
60873W        W29203   0.818  20.586   0.835
60874W        W29204  15.772  16.767   3.803
60875W        W29205  43.423   3.264   0.816
60876W        W29206  38.890  21.188  12.403
60877W        W29207  18.258   5.343  12.016
60878W        W29208  25.578  18.296  13.803
60879W        W29209   6.412  13.133   3.331
60880W        W29210  31.543  21.758  11.505
60881W        W29211  32.433   5.363  13.457
60882W        W29212  28.029  43.925  13.524
60883W        W29213   0.362  35.390  10.944
60884W        W29214  43.451  19.243  13.525
60885W        W29215  22.708  24.627   0.782
60886W        W29216   8.311   5.768  13.508
60887W        W29217  34.520  11.164  14.993
60888W        W29218  28.022   8.889   1.227
60889W        W29219   3.306   8.663   0.931
60890W        W29220  28.628  23.698  14.365
60891W        W29221  32.989   1.459   4.789
60892W        W29222  40.463  37.948  11.007
60893W        W29223  23.087  32.018   2.178
60894W        W29224  29.484  20.227  10.926
60895W        W29225  22.017  44.778   1.698
60896W        W29226   8.704  19.535  14.481
60897W        W29227  23.183  18.100   2.411
60898W        W29228  37.028  38.392   3.732
60899W        W29229  38.826   5.281   4.209
60900W        W29230  42.867  18.612  13.976
60901W        W29231   9.395  17.235  12.457
60902W        W29232  38.934  30.502   3.704
60903W        W29233  44.487  34.550  12.041
60904W        W29234  14.717  39.403  14.414
60905W        W29235  15.781  32.430   3.347
60906W        W29236   7.346  41.857   3.264
60907W        W29237  31.526   0.952  11.390
60908W        W29238   7.412  41.843  12.064
60909W        W29239  23.015  41.970   4.613
60910W        W29240   6.411  35.563  12.563
60911W        W29241   2.428   8.190  14.009
60912W        W29242  40.363  34.408  12.049
60913W        W29243  44.332  39.031  14.331
60914W        W29244  44.283  32.437   4.167
60915W        W29245  31.950  22.119  12.893
60916W        W29246  44.495  26.539  12.082
60917W        W29247   0.447  32.950   1.841
60918W        W29248  37.887   1.763   3.272
60919W        W29249  20.574  18.271   1.897
60920W        W29250  15.757  35.498  12.514
60921W        W29251   6.203  19.187  11.894
60922W        W29252  30.413  29.646   1.856
60923W        W29253  43.928  29.103   4.337
60924W        W29254  28.971  23.662   3.669
60925W        W29255  34.899   5.874   3.227
60926W        W29256  14.615  17.165  13.479
60927W        W29257  10.682  26.561  10.563
60928W        W29258   5.428  15.788   0.777
60929W        W29259  12.652   4.841   2.830
60930W        W29260  37.001  14.131  14.479
60931W        W29261  35.395  14.666   3.161
60932W        W29262  13.165  14.774  11.891
60933W        W29263   4.903  25.607   2.263
60934W        W29264   1.822   1.346   0.255
60935W        W29265   1.365  21.234  14.924
60936W        W29266  41.307  28.048   3.863
60937W        W29267  22.231  20.135   1.902
60938W        W29268  31.566  40.875   4.123
60939W        W29269  10.800   8.377   3.184
60940W        W29270  30.987  12.695   3.852
60941W        W29271  28.158  12.661   4.203
60942W        W29272  13.331  14.606   0.359
60943W        W29273  17.744  25.529  11.468
60944W        W29274  42.883  42.439   4.679
60945W        W29275   6.344  19.740   1.846
60946W        W29276  12.796  34.884  12.366
60947W        W29277  22.533  44.914  13.526
60948W        W29278  10.641  12.736  10.919
60949W        W29279  22.088  20.229  11.083
60950W        W29280  41.333  43.437   3.688
60951W        W29281  15.215  21.173   1.254
60952W        W29282  34.994  12.687  12.003
60953W        W29283  13.702   2.742  14.510
60954W        W29284  26.096   4.777  14.421
60955W        W29285  24.574  42.513  14.997
60956W        W29286  33.042  20.102   0.275
60957W        W29287  31.013  38.466  13.830
60958W        W29288  12.780  16.625   0.293
60959W        W29289  43.785  17.565  10.538
60960W        W29290  36.037  18.767   2.203
60961W        W29291  20.656  33.068   1.317
60962W        W29292   8.182   7.288   1.431
60963W        W29293  39.065  27.472   4.667
60964W        W29294  28.944   8.216   0.317
60965W        W29295  33.087   2.363  10.943
60966W        W29296  42.413  34.018   0.949
60967W        W29297  30.010  37.964  14.453
60968W        W29298  15.765  13.790   2.251
60969W        W29299  21.150  39.560   2.778
60970W        W29300  25.160  26.055   2.407
60971W        W29301   7.392   6.836  13.513
60972W        W29302  32.057  10.771   2.662
60973W        W29303  24.608  25.711  13.038
60974W        W29304  41.306  31.124  13.852
60975W        W29305  10.280  14.108  10.137
60976W        W29306  18.651   0.351  11.577
60977W        W29307  22.654  37.405  13.444
60978W        W29308  25.606  23.535   4.685
60979W        W29309   2.448   7.353  11.608
60980W        W29310   5.800  34.961  13.055
60981W        W29311  16.128  15.259   0.392
60982W        W29312  15.683  30.579  10.999
60983W        W29313  26.553  13.599  11.128
60984W        W29314  26.203  12.631  10.933
60985W        W29315  14.236  16.190  13.540
60986W        W29316  24.511  24.209  13.037
60987W        W29317  40.399  11.680  13.363
60988W        W29318   7.879   7.376  13.456
60989W        W29319   7.241  14.172  13.522
60990W        W29320  10.296  44.845   4.606
60991W        W29321  22.584  31.922  13.929
60992W        W29322  20.173   1.829  12.853
60993W        W29323  29.445  31.960  14.945
60994W        W29324   0.867   5.296   2.887
60995W        W29325   9.395  31.064  14.389
60996W        W29326  29.524  33.465  13.497
60997W        W29327  39.543  14.229  14.482
60998W        W29328  30.072  31.088  12.352
60999W        W29329  15.222  36.903   4.286
61000W        W29330  27.456   4.724  12.916
61001W        W29331   8.273  25.036   0.959
61002W        W29332   7.367  10.232   3.170
61003W        W29333  37.064  33.070  12.505
61004W        W29334  19.187  13.248  11.919
61005W        W29335  41.818  24.635   1.282
61006W        W29336  17.561  13.619   3.752
61007W        W29337  22.092   5.392  11.931
61008W        W29338  11.810  37.897   2.750
61009W        W29339  32.983  17.774  14.867
61010W        W29340   8.879  29.116  13.311
61011W        W29341  12.262   1.341  10.609
61012W        W29342  16.789  18.215  13.810
61013W        W29343  22.592  11.820   5.266
61014W        W29344   3.829   8.655  14.283
61015W        W29345  44.874  31.962   1.888
61016W        W29346  34.925   7.326   3.270
61017W        W29347  14.687   7.912   4.668
61018W        W29348  41.947  34.516   0.833
61019W        W29349   4.872  20.736   4.620
61020W        W29350  22.736  42.350   2.365
61021W        W29351   2.798  35.446  11.940
61022W        W29352  41.930  35.036   4.163
61023W        W29353  19.753  11.723  12.491
61024W        W29354   1.415  41.011   0.942
61025W        W29355  17.656   5.759  12.998
61026W        W29356  39.420  44.404  10.912
61027W        W29357  27.192  40.974   3.797
61028W        W29358  44.988  12.765   0.967
61029W        W29359  15.655  42.945  13.028
61030W        W29360   8.741  39.476   2.375
61031W        W29361  27.090  26.486   4.243
61032W        W29362  43.003  43.489  10.952
61033W        W29363   1.474  19.279   4.303
61034W        W29364  22.592  21.535   1.742
61035W        W29365  21.240  36.993   2.818
61036W        W29366  31.564  34.061  13.977
61037W        W29367   0.977  27.492   3.237
61038W        W29368  30.541  26.472  10.412
61039W        W29369  38.469  11.145  12.063
61040W        W29370   5.860  29.607  14.801
61041W        W29371  36.403  30.953  13.901
61042W        W29372  16.772  18.583   2.318
61043W        W29373   5.912   3.728  12.856
61044W        W29374  19.707   9.154  11.485
61045W        W29375  33.518  42.354   5.316
61046W        W29376  38.972  39.056   1.822
61047W        W29377   8.241  16.770  13.797
61048W        W29378  10.292   3.244  11.580
61049W        W29379  13.606  28.489  11.054
61050W        W29380  29.596  32.487  14.781
61051W        W29381  37.535  39.006   3.380
61052W        W29382  35.359   6.226   1.847
61053W        W29383   5.423  10.270   4.121
61054W        W29384   7.667  35.390   2.846
61055W        W29385  24.061  44.373   3.782
61056W        W29386   7.718  42.803   2.842
61057W        W29387  19.285   1.247  10.409
61058W        W29388  30.140  11.775   4.264
61059W        W29389   7.713  22.736  10.566
61060W        W29390  17.110  43.461   4.330
61061W        W29391   6.784  11.658  10.896
61062W        W29392  43.887   0.444  12.569
61063W        W29393  17.799   2.452   4.334
61064W        W29394  13.126  31.076   2.282
61065W        W29395   8.339  41.476  13.984
61066W        W29396  10.672   2.944   4.806
61067W        W29397  10.788   5.391  11.973
61068W        W29398  11.148   8.369   1.759
61069W        W29399   6.851  18.265  14.418
61070W        W29400   5.220  38.048  12.877
61071W        W29401  17.677   3.846  10.525
61072W        W29402  36.426  14.123  14.440
61073W        W29403  40.333   8.288   5.106
61074W        W29404  41.379  27.474  10.532
61075W        W29405  24.625   5.217   1.389
61076W        W29406   5.353  32.488   1.387
61077W        W29407  42.357  30.100   2.183
61078W        W29408  32.086  43.311   2.227
61079W        W29409   0.940  23.570   4.817
61080W        W29410  15.311   2.820   2.314
61081W        W29411  37.853   6.304   2.181
61082W        W29412  36.044  32.951  10.452
61083W        W29413  42.393  30.927  14.022
61084W        W29414  25.178  23.685   2.242
61085W        W29415  37.026  13.599  11.981
61086W        W29416  29.547  12.331  12.538
61087W        W29417   8.232  39.914   2.763
61088W        W29418  27.562  26.170   4.600
61089W        W29419  33.464  38.378  11.411
61090W        W29420  22.203  22.192  12.470
61091W        W29421  43.981  37.857  11.576
61092W        W29422  11.853  36.851   4.642
61093W        W29423  41.805  23.125  12.556
61094W        W29424   2.290  30.555   3.838
61095W        W29425  13.158   1.787   3.235
61096W        W29426   7.286  39.863   0.330
61097W        W29427   6.715  43.424   4.631
61098W        W29428   7.810  35.570  13.019
61099W        W29429  14.159  41.385   3.318
61100W        W29430  23.111   7.900  10.912
61101W        W29431   6.883  29.554   1.337
61102W        W29432   7.393   8.196  14.482
61103W        W29433   6.693   2.417   1.425
61104W        W29434  38.474   3.411   0.786
61105W        W29435  29.035   7.706   2.762
61106W        W29436  31.937  19.716  14.006
61107W        W29437   0.344   6.229   2.180
61108W        W29438  20.537   7.776   4.348
61109W        W29439  16.810  28.592   1.700
61110W        W29440  19.656  44.417  13.051
61111W        W29441  36.367  24.629  11.875
61112W        W29442  28.144  19.166   3.660
61113W        W29443   8.296  10.692  13.364
61114W        W29444  11.692  40.981  14.403
61115W        W29445  38.952  20.702  10.901
61116W        W29446   3.257  31.051   1.267
61117W        W29447   9.172  29.075   3.236
61118W        W29448  32.571   9.234   2.759
61119W        W29449  20.661   9.712   5.250
61120W        W29450  27.642  27.015   3.658
61121W        W29451  20.140  43.838  13.979
61122W        W29452  12.740  12.737  10.442
61123W        W29453   6.753  11.621   1.269
61124W        W29454   0.834  36.455   2.415
61125W        W29455  40.363  31.144   2.794
61126W        W29456  42.898  13.704  11.985
61127W        W29457  22.624  20.625   0.418
61128W        W29458  36.484  21.678   0.301
61129W        W29459   0.915  29.477   2.679
61130W        W29460  28.147   6.861   1.824
61131W        W29461  14.606  10.656   2.720
61132W        W29462  31.044  43.809   4.221
61133W        W29463  38.401   9.645  13.919
61134W        W29464   6.852  32.471   0.383
61135W        W29465  27.581   0.943  14.841
61136W        W29466   3.457  43.324   5.213
61137W        W29467  22.113  31.013  12.050
61138W        W29468  43.766   8.747   4.702
61139W        W29469  36.025  35.474  14.353
61140W        W29470  19.266  25.003   2.297
61141W        W29471  23.542  14.235  10.999
61142W        W29472  28.533  23.073  12.488
61143W        W29473  29.091  24.639  10.469
61144W        W29474  10.251   4.899   3.840
61145W        W29475  12.767  22.543   0.810
61146W        W29476  17.800  38.060   2.225
61147W        W29477  34.586  20.673  10.908
61148W        W29478  37.067  11.725  12.883
61149W        W29479  18.167  17.072   4.267
61150W        W29480   5.862  43.993  12.513
61151W        W29481  12.760  20.251  10.994
61152W        W29482  38.866  29.551  12.842
61153W        W29483  21.511  28.067  12.859
61154W        W29484  39.988  11.781   3.849
61155W        W29485   2.826  19.690   0.315
61156W        W29486  33.021  24.579  13.418
61157W        W29487   3.920   2.745   3.255
61158W        W29488  23.664  31.406   1.705
61159W        W29489  31.607   9.163  12.072
61160W        W29490  41.472  18.756   1.843
61161W        W29491   5.720  14.644  10.442
61162W        W29492  40.839  29.527  11.950
61163W        W29493  32.606  19.189  14.338
61164W        W29494  29.584  43.973  14.828
61165W        W29495  16.185  16.293  14.400
61166W        W29496  18.631  30.576   5.120
61167W        W29497  44.497  41.439   4.800
61168W        W29498   1.258  35.393  13.868
61169W        W29499  20.695  31.098   2.218
61170W        W29500  28.184  20.565  11.606
61171W        W29501   5.929  17.589  12.928
61172W        W29502   3.863  21.561   2.695
61173W        W29503  30.553  16.615   0.843
61174W        W29504  17.224  10.287  10.466
61175W        W29505  23.628  40.469   3.325
61176W        W29506  15.708  36.031   1.863
61177W        W29507  20.204  31.568  10.444
61178W        W29508  30.937  16.717   1.267
61179W        W29509  16.311  15.607   0.349
61180W        W29510   9.290  18.725   1.314
61181W        W29511  14.324  13.161   3.374
61182W        W29512  13.220  29.094  10.161
61183W        W29513  43.790   2.443   1.703
61184W        W29514  36.914  32.542   3.267
61185W        W29515   8.175   3.365  13.375
61186W        W29516  14.590  16.189  10.555
61187W        W29517  36.920   9.212  12.930
61188W        W29518   2.270  39.344  12.007
61189W        W29519  33.603  15.680  11.562
61190W        W29520  28.090  29.641  13.368
61191W        W29521  18.544  39.881  11.612
61192W        W29522  20.577  44.317   1.434
61193W        W29523  11.751  19.680  10.999
61194W        W29524  40.878  27.482   3.363
61195W        W29525  41.998   1.831   1.695
61196W        W29526  38.527  13.111  14.932
61197W        W29527   6.707  15.207  12.407
61198W        W29528  14.830  44.480   1.263
61199W        W29529   7.272   0.970   4.728
61200W        W29530  34.461  14.238  14.771
61201W        W29531  25.118  25.036  13.908
61202W        W29532  30.101  38.827   0.465
61203W        W29533  33.607  13.647   2.296
61204W        W29534  31.098   1.426  10.479
61205W        W29535  13.126  10.274  10.535
61206W        W29536  15.251   0.428  14.986
61207W        W29537   6.211  22.074   1.709
61208W        W29538  41.384  25.564  13.801
61209W        W29539  36.549  17.082   1.425
61210W        W29540   9.865  17.130   4.294
61211W        W29541  12.275   4.880   1.260
61212W        W29542   7.247  28.022   4.184
61213W        W29543  28.978  20.599  11.528
61214W        W29544  41.890  36.566  13.362
61215W        W29545   4.283  25.014  11.554
61216W        W29546  18.548  34.081  13.538
61217W        W29547  43.461  26.519  14.294
61218W        W29548  11.627  25.030   2.694
61219W        W29549   8.289  11.205   1.882
61220W        W29550  20.108  40.470   4.828
61221W        W29551   7.665   7.280  13.971
61222W        W29552  44.361  21.156   3.196
61223W        W29553  31.477   5.688   0.442
61224W        W29554  18.668   8.271  12.481
61225W        W29555   5.414   7.860   0.923
61226W        W29556   3.953  14.282  10.944
61227W        W29557  41.363  18.067  12.072
61228W        W29558   7.189  16.241   4.674
61229W        W29559  37.551   3.313  11.097
61230W        W29560  33.405  28.119  14.287
61231W        W29561  13.250   7.234  13.513
61232W        W29562  33.078  40.430  11.593
61233W        W29563  20.746  22.677   3.658
61234W        W29564  29.618   4.283  10.540
61235W        W29565   4.330  12.832  14.860
61236W        W29566  33.123  19.274   3.171
61237W        W29567  28.538  11.630   9.640
61238W        W29568   7.319  10.649   1.375
61239W        W29569  33.926  28.065   3.352
61240W        W29570  16.758  38.841  14.411
61241W        W29571   9.687  40.426  13.966
61242W        W29572  12.823  12.658   3.773
61243W        W29573  21.535  23.714   1.396
61244W        W29574  22.716  11.366  11.888
61245W        W29575  20.119  37.406  14.828
61246W        W29576  29.124  30.625   0.274
61247W        W29577  29.110  16.797  12.518
61248W        W29578  20.590  12.850   1.797
61249W        W29579   8.660  42.997   2.723
61250W        W29580   6.812  16.220  10.446
61251W        W29581  13.154  11.652   2.736
61252W        W29582  24.221  15.762   4.211
61253W        W29583  36.952   2.281   0.905
61254W        W29584   1.732   3.271  14.334
61255W        W29585  37.003  38.934   0.965
61256W        W29586   1.276  20.075   3.823
61257W        W29587  10.347  30.616   0.785
61258W        W29588  16.679  37.342   5.173
61259W        W29589   6.324  38.978   1.344
61260W        W29590   5.901  35.578   1.417
61261W        W29591  28.143   3.722   0.798
61262W        W29592  23.526  11.670   4.163
61263W        W29593  32.035  30.150  11.042
61264W        W29594  12.337  17.644  14.493
61265W        W29595  41.327  18.283  14.493
61266W        W29596  16.809  13.120  12.487
61267W        W29597  35.360  27.521   4.733
61268W        W29598  13.686   3.285   2.855
61269W        W29599   3.385  39.461   9.624
61270W        W29600  43.416  22.202  12.833
61271W        W29601  26.701   6.354  13.502
61272W        W29602   0.309  40.872  13.482
61273W        W29603  24.990   8.388   0.314
61274W        W29604  39.467  39.926   3.778
61275W        W29605  15.711  18.661  10.963
61276W        W29606  35.436   2.245   2.696
61277W        W29607   3.218  33.476   1.317
61278W        W29608   9.692  41.791   2.227
61279W        W29609  30.972  42.497  14.814
61280W        W29610   3.818  20.163   4.638
61281W        W29611  18.061   2.731   0.819
61282W        W29612   0.825  31.974  11.978
61283W        W29613  10.336  10.181  12.929
61284W        W29614  30.657   7.689  14.926
61285W        W29615  18.246  41.467  10.996
61286W        W29616  23.535  27.459  12.519
61287W        W29617  13.324  38.412  13.500
61288W        W29618  17.592  28.080   0.881
61289W        W29619  22.067  15.638   1.339
61290W        W29620  20.564  30.519  13.325
61291W        W29621  15.595   4.812  12.908
61292W        W29622  10.804  21.547  11.896
61293W        W29623   6.843   4.846  10.533
61294W        W29624  27.563   6.246   4.285
61295W        W29625  38.551  44.794   3.789
61296W        W29626  26.957  29.467  10.078
61297W        W29627  33.960   3.299  10.918
61298W        W29628  34.612  40.362   0.954
61299W        W29629  33.462   3.881   3.681
61300W        W29630  21.112  10.670  14.286
61301W        W29631  22.109   1.807  13.328
61302W        W29632  28.962  26.968  12.861
61303W        W29633  26.465  13.230  11.968
61304W        W29634  24.096  33.066  12.962
61305W        W29635  40.537  11.358   3.255
61306W        W29636   2.466   3.894   4.787
61307W        W29637  15.143   1.880   4.124
61308W        W29638  29.437  12.192  11.866
61309W        W29639  23.626  34.613   1.389
61310W        W29640  10.779  36.444   0.835
61311W        W29641  34.977  30.556   0.305
61312W        W29642  41.989  27.491  11.040
61313W        W29643  21.573   1.871   4.317
61314W        W29644   7.667  11.350  11.120
61315W        W29645  17.704  29.453   1.319
61316W        W29646  30.514  34.544  13.822
61317W        W29647   9.321  15.742   4.704
61318W        W29648  23.192  10.876   4.306
61319W        W29649  41.983  12.631  11.446
61320W        W29650   7.364  25.539   0.800
61321W        W29651   6.275  25.651  13.455
61322W        W29652  18.561  19.107  12.841
61323W        W29653  42.392  35.104  12.035
61324W        W29654  11.183  12.827   4.312
61325W        W29655  29.595   6.298  11.508
61326W        W29656  28.450  31.516  11.880
61327W        W29657  13.773  42.896  10.480
61328W        W29658  16.212  30.094  14.506
61329W        W29659  26.035  23.225   2.412
61330W        W29660  34.024  25.687  13.385
61331W        W29661  41.871  15.779   1.392
61332W        W29662  12.248  26.600   3.234
61333W        W29663  31.900  35.093   3.655
61334W        W29664  14.593   2.419  12.547
61335W        W29665  11.793  22.673   1.368
61336W        W29666  29.923  19.542   2.212
61337W        W29667  38.997  35.486   4.670
61338W        W29668  42.913  27.146   0.450
61339W        W29669  10.219   6.729  14.860
61340W        W29670  41.412  44.999   2.838
61341W        W29671  14.151   4.856  12.020
61342W        W29672  35.916  31.605  12.532
61343W        W29673  29.016  23.184  13.798
61344W        W29674  15.604   7.786   2.720
61345W        W29675  20.135  38.551   4.289
61346W        W29676  31.621  40.361   4.717
61347W        W29677  27.500   8.406   1.424
61348W        W29678  16.251  27.075   4.354
61349W        W29679  37.839  34.504   1.448
61350W        W29680  29.120  36.013   2.382
61351W        W29681  23.194  38.924  12.095
61352W        W29682  34.014  33.402   0.965
61353W        W29683  26.146  23.511   4.164
61354W        W29684  30.151  24.635  11.520
61355W        W29685  42.818   0.788  13.342
61356W        W29686  26.165  34.109  13.914
61357W        W29687   0.350   9.237   3.744
61358W        W29688  25.486  38.525  14.959
61359W        W29689  44.270   5.207  13.812
61360W        W29690   2.830  23.054   2.196
61361W        W29691  16.158   4.800  14.882
61362W        W29692  22.695  38.438  12.930
61363W        W29693  39.558   8.767   3.861
61364W        W29694  24.153   9.719   3.640
61365W        W29695  23.542  41.299   4.815
61366W        W29696  17.165  14.665   1.874
61367W        W29697  12.816  43.463  11.383
61368W        W29698  17.760  35.952   2.375
61369W        W29699  37.897   1.388   2.402
61370W        W29700   4.873  11.681   2.697
61371W        W29701   2.771  31.500   4.764
61372W        W29702   2.771  21.019  14.315
61373W        W29703   4.332  40.925  10.976
61374W        W29704  23.703  41.824  13.007
61375W        W29705  15.228  39.555   1.868
61376W        W29706  37.335   6.266  12.870
61377W        W29707  10.240  12.828  14.812
61378W        W29708  29.527  24.603   3.844
61379W        W29709  39.336  36.433  14.382
61380W        W29710  24.577  34.004  11.491
61381W        W29711   5.769  36.484   2.397
61382W        W29712  27.611  32.600  12.533
61383W        W29713  40.402  15.202   0.734
61384W        W29714  19.102  19.094  12.838
61385W        W29715  40.514  37.862  10.563
61386W        W29716  35.038   7.791   0.469
61387W        W29717  13.807  14.272   3.245
61388W        W29718  44.453  15.809   1.756
61389W        W29719  19.268  44.393   4.744
61390W        W29720  40.370  31.633   4.636
61391W        W29721  31.553  10.759   2.367
61392W        W29722  44.811  41.301  11.483
61393W        W29723  21.586  12.840   4.197
61394W        W29724  40.420  16.801  12.083
61395W        W29725  29.015  25.001  14.441
61396W        W29726  15.163  26.556  11.405
61397W        W29727  40.997   4.356   3.322
61398W        W29728  40.439  20.222  14.448
61399W        W29729  44.919  33.903  13.409
61400W        W29730  41.986  16.584  14.404
61401W        W29731   0.864  23.008   2.336
61402W        W29732  25.694  33.576  11.859
61403W        W29733  44.373  25.219   9.964
61404W        W29734  38.365  42.888  11.466
61405W        W29735   5.769  14.178  14.422
61406W        W29736  44.474  20.749  10.442
61407W        W29737  18.245  13.809  14.026
61408W        W29738  41.397   6.207   3.236
61409W        W29739  28.585  22.246   3.799
61410W        W29740  23.655  35.867   0.330
61411W        W29741  31.094   6.859  14.886
61412W        W29742  39.323   2.365   4.241
61413W        W29743  34.475  32.969  14.839
61414W        W29744  17.068  33.877  11.877
61415W        W29745  19.632  35.942   0.355
61416W        W29746  16.567  19.186  10.424
61417W        W29747  42.841  21.230  14.934
61418W        W29748  17.211  33.075  11.119
61419W        W29749  32.920  22.169  14.877
61420W        W29750  42.922   9.380  12.882
61421W        W29751  27.489   5.802  11.528
61422W        W29752   8.168   8.722  11.506
61423W        W29753  38.855  11.688  13.537
61424W        W29754  40.469  26.079  10.954
61425W        W29755  14.680   5.308   3.647
61426W        W29756  24.523  44.819  11.481
61427W        W29757  23.104  41.372  10.423
61428W        W29758   3.260  44.786   2.318
61429W        W29759  15.732  21.261  13.914
61430W        W29760   8.350   2.793  11.006
61431W        W29761  17.085  29.924   3.374
61432W        W29762  37.963   4.242   3.726
61433W        W29763  29.651  11.360   1.926
61434W        W29764  42.423  33.120   4.265
61435W        W29765  41.820   0.378  10.442
61436W        W29766  15.182  25.668  13.308
61437W        W29767   0.829  40.816   3.736
61438W        W29768  38.450  16.168   4.351
61439W        W29769   2.431  38.050  14.430
61440W        W29770  44.281  14.156   9.974
61441W        W29771   8.193  11.654   2.367
61442W        W29772  13.689  11.155   2.209
61443W        W29773  13.611   2.382  12.468
61444W        W29774  39.369  41.919   0.243
61445W        W29775   2.853  10.171  14.006
61446W        W29776  42.513   5.720  12.014
61447W        W29777  29.148  12.287   3.264
61448W        W29778  19.133  38.855   2.232
61449W        W29779  14.605  40.479  12.405
61450W        W29780   6.324  21.622  14.771
61451W        W29781  36.420   3.857  11.935
61452W        W29782   2.940  36.931   4.192
61453W        W29783   2.802  26.023  12.483
61454W        W29784  18.296  39.856  12.850
61455W        W29785  13.308   6.196  12.031
61456W        W29786   5.700  28.613   3.753
61457W        W29787  13.754  36.401  13.480
61458W        W29788  10.271  38.857  14.395
61459W        W29789  29.052  17.108  14.320
61460W        W29790  33.075  30.143   2.257
61461W        W29791  38.977  44.967   3.199
61462W        W29792  34.947  41.448   3.653
61463W        W29793  13.637   3.887  11.015
61464W        W29794  29.620  15.194   0.274
61465W        W29795  16.179  19.625   5.156
61466W        W29796   8.213  12.186  10.981
61467W        W29797  13.744  30.981   3.304
61468W        W29798  40.029  42.328   4.317
61469W        W29799  15.662   6.188  10.475
61470W        W29800   4.307  15.293   2.680
61471W        W29801  19.775   7.253  12.460
61472W        W29802  29.609   8.356   1.350
61473W        W29803  31.564  44.915  12.943
61474W        W29804   5.730  22.201   1.429
61475W        W29805   5.375   0.297   3.271
61476W        W29806   5.765  17.780   2.364
61477W        W29807   5.916   1.837   2.381
61478W        W29808  13.138  38.400   4.167
61479W        W29809  18.100  19.251   0.448
61480W        W29810  11.668  26.046   1.920
61481W        W29811  23.494  37.974   0.295
61482W        W29812   0.906  18.152  13.866
61483W        W29813  18.276  33.102  11.916
61484W        W29814  29.003   5.325  12.379
61485W        W29815   9.298  35.587  14.446
61486W        W29816  14.285  36.917  10.414
61487W        W29817  31.958  21.672  10.152
61488W        W29818  16.602  27.038   3.833
61489W        W29819  39.815   7.666  14.024
61490W        W29820  34.875  11.854   0.799
61491W        W29821  36.408   2.442   4.246
61492W        W29822  12.624  13.810  10.548
61493W        W29823   4.219  41.875  13.464
61494W        W29824  25.565  14.217   4.644
61495W        W29825   8.815  19.047  13.791
61496W        W29826  30.599  18.101   0.943
61497W        W29827   0.982  42.294   0.392
61498W        W29828   7.872  28.003  13.349
61499W        W29829  27.110  38.438  11.101
61500W        W29830  20.612  41.992  12.501
61501W        W29831  26.029  34.992  13.432
61502W        W29832   2.733  11.772   0.393
61503W        W29833  44.932  32.121   4.623
61504W        W29834  30.034  11.799  12.543
61505W        W29835   6.884  30.642  12.908
61506W        W29836   2.735   1.473  10.928
61507W        W29837  40.425  40.487  14.334
61508W        W29838  14.245  32.424  11.047
61509W        W29839  15.255  25.114  13.529
61510W        W29840  29.506   2.278  12.852
61511W        W29841  25.033  23.717   0.860
61512W        W29842  36.085   7.748   1.840
61513W        W29843  10.688  10.138  12.428
61514W        W29844  41.829   0.447   1.231
61515W        W29845  35.039   5.852  10.149
61516W        W29846  17.773   8.900   1.433
61517W        W29847  28.142  17.798   1.285
61518W        W29848  34.394  21.162  13.320
61519W        W29849  22.128  17.744   4.660
61520W        W29850  24.080  26.206   1.757
61521W        W29851   1.422  41.299  11.076
61522W        W29852  20.031  36.907  13.808
61523W        W29853  23.183  20.543  14.803
61524W        W29854  32.020  18.162   2.238
61525W        W29855  22.086  15.691   3.235
61526W        W29856  34.067  20.731  10.645
61527W        W29857  20.247  13.620   2.266
61528W        W29858   6.215  40.809  13.046
61529W        W29859  28.457  22.141  14.010
61530W        W29860  10.234  26.066  10.515
61531W        W29861   6.407  36.953  12.982
61532W        W29862  34.902  12.169   1.907
61533W        W29863  41.361  29.139   1.776
61534W        W29864  44.324  21.139  10.561
61535W        W29865  32.983  43.945   4.613
61536W        W29866  34.898  15.196  12.448
61537W        W29867  27.956  17.231   4.632
61538W        W29868  44.440   3.450   3.837
61539W        W29869  33.043  22.693  12.491
61540W        W29870  23.599  12.809  10.419
61541W        W29871  12.845  43.825   2.706
61542W        W29872  17.299  36.850   1.700
61543W        W29873  36.858   4.276  12.902
61544W        W29874  11.312  42.976   2.354
61545W        W29875  33.893  13.648  14.888
61546W        W29876  10.163  22.127   3.382
61547W        W29877  17.164  10.767  14.473
61548W        W29878   8.309   3.246   1.214
61549W        W29879  43.324   4.398  11.859
61550W        W29880  37.543  16.252  12.989
61551W        W29881   3.255  11.657  10.515
61552W        W29882  38.060   6.358   3.853
61553W        W29883  39.520   0.848   1.336
61554W        W29884   1.415   3.268  10.537
61555W        W29885  10.207   8.785  14.393
61556W        W29886   2.734   2.299  13.792
61557W        W29887   0.370   4.260   1.336
61558W        W29888  12.309   2.263   3.803
61559W        W29889  34.030  16.142   3.273
61560W        W29890  15.821   5.197   4.624
61561W        W29891  23.035  34.584  13.950
61562W        W29892  33.107   2.730   3.338
61563W        W29893   7.274  29.066  14.858
61564W        W29894   0.957  31.534  14.796
61565W        W29895   9.858   1.392   0.306
61566W        W29896  39.342  35.959  11.970
61567W        W29897  25.707  39.548   4.621
61568W        W29898  37.998  23.688  10.562
61569W        W29899  37.000  31.011   0.933
61570W        W29900   5.873  37.046   3.317
61571W        W29901  19.688  44.757   2.206
61572W        W29902   8.211  39.987   0.436
61573W        W29903   4.748  35.956  12.045
61574W        W29904  32.892  38.341   1.897
61575W        W29905  37.549   7.382   3.225
61576W        W29906  10.729   8.727   3.700
61577W        W29907  22.610  26.519   3.728
61578W        W29908  20.077  15.595   0.939
61579W        W29909  30.581  24.135   1.368
61580W        W29910  15.710  18.705  14.956
61581W        W29911  21.588  33.525  11.897
61582W        W29912   2.818  39.455   0.824
61583W        W29913  26.176  11.224   0.264
61584W        W29914   8.655  31.905   0.733
61585W        W29915   6.810  11.292  14.509
61586W        W29916  44.902  36.059  14.861
61587W        W29917  40.021  18.053  11.013
61588W        W29918  32.579  30.435  11.892
61589W        W29919  19.273   0.975   1.732
61590W        W29920  12.153  14.682   3.863
61591W        W29921  32.510  41.856   0.744
61592W        W29922   7.310  24.088  10.643
61593W        W29923  18.738  34.598   3.724
61594W        W29924  25.571   7.696   3.251
61595W        W29925  11.761  29.614   4.245
61596W        W29926  35.048  44.861   1.830
61597W        W29927   6.922   7.331   1.370
61598W        W29928  17.236   9.202   3.249
61599W        W29929  44.926   7.399   3.653
61600W        W29930  39.011   5.884  10.994
61601W        W29931   4.290  12.799   2.678
61602W        W29932  37.082  10.780   2.772
61603W        W29933  18.765  22.138   1.764
61604W        W29934  10.829  33.878   2.369
61605W        W29935  26.122  22.550   4.224
61606W        W29936  27.660  44.770  12.344
61607W        W29937   1.432   3.372  11.921
61608W        W29938   9.199   6.188  10.433
61609W        W29939  20.225   6.790   2.757
61610W        W29940  30.104  20.059  10.967
61611W        W29941  31.069   5.352   3.340
61612W        W29942  41.535  21.652  12.480
61613W        W29943  44.366  38.054  13.370
61614W        W29944   2.277  44.980   2.709
61615W        W29945  30.907   5.231  10.517
61616W        W29946  43.392  36.368  12.530
61617W        W29947  35.038  19.258   4.158
61618W        W29948  36.586  29.667  11.484
61619W        W29949  11.819   2.815   0.343
61620W        W29950  17.597  32.043   0.345
61621W        W29951  31.896  32.602   2.311
61622W        W29952  30.121   4.781  12.433
61623W        W29953   1.469  44.503   3.155
61624W        W29954  41.412  23.675   3.265
61625W        W29955  18.236  15.700  10.444
61626W        W29956  32.135  14.330   2.677
61627W        W29957   8.181  31.447   3.751
61628W        W29958  11.826  13.600  11.410
61629W        W29959  34.524   7.679  13.369
61630W        W29960  36.034  28.638  13.501
61631W        W29961  29.505  16.813  11.530
61632W        W29962  18.567  17.215  14.789
61633W        W29963  26.646  44.325   2.287
61634W        W29964  35.070  14.138  13.048
61635W        W29965  21.700  11.271  11.595
61636W        W29966  10.373  15.644  14.888
61637W        W29967  42.830   4.261  11.944
61638W        W29968   9.315  14.219   2.825
61639W        W29969  20.548   6.405   1.729
61640W        W29970  17.237  10.380  11.405
61641W        W29971  26.155  40.952  10.566
61642W        W29972  18.086   0.333  12.972
61643W        W29973  30.028  12.634  11.955
61644W        W29974  29.066   4.755   4.717
61645W        W29975  26.061   9.353   1.902
61646W        W29976  25.021  39.319   0.353
61647W        W29977   0.251  43.009   2.241
61648W        W29978  22.637  35.571   3.809
61649W        W29979  43.872   4.780  14.343
61650W        W29980  38.456  17.141  12.417
61651W        W29981  14.176  22.153  14.993
61652W        W29982  26.593  14.666   0.909
61653W        W29983  37.509   9.874  10.517
61654W        W29984  42.289   5.710   1.862
61655W        W29985  11.302  32.484  14.788
61656W        W29986  35.509   6.902  14.500
61657W        W29987  33.399  13.745   4.776
61658W        W29988  33.984  44.940   2.856
61659W        W29989  23.529  23.086   4.114
61660W        W29990   4.364  37.042  11.981
61661W        W29991  32.020  12.708   1.277
61662W        W29992  19.744  34.607   2.880
61663W        W29993  20.153  22.732  11.551
61664W        W29994  36.971   5.306  13.924
61665W        W29995  28.011  32.456  13.441
61666W        W29996  44.491  38.352   0.345
61667W        W29997  33.461   5.848   1.755
61668W        W29998  34.950  38.001   3.255
61669W        W29999  15.301  13.788  12.516
61670W        W30000  16.623  44.385  10.979
61671W        W30001  12.785  20.619  11.531
61672W        W30002  20.150   3.331  13.847
61673W        W30003  18.079  27.091   3.639
61674W        W30004  23.670   3.765   1.848
61675W        W30005  26.652  14.825   2.893
61676W        W30006  44.370   9.729  14.424
61677W        W30007  43.943  36.938   0.745
61678W        W30008  27.003  16.299   4.697
61679W        W30009   0.349  13.828   4.311
61680W        W30010  23.598  42.461   3.248
61681W        W30011  17.252  32.007   4.176
61682W        W30012  18.194  34.429  13.343
61683W        W30013   1.304   7.291  12.020
61684W        W30014   9.387  22.654   2.325
61685W        W30015  23.571  41.532   1.405
61686W        W30016  30.984  14.661   3.307
61687W        W30017  41.893  18.179   4.177
61688W        W30018  14.651  34.077  13.056
61689W        W30019  19.653  26.995  12.843
61690W        W30020  43.909  37.434   1.442
61691W        W30021  34.503   9.736  11.924
61692W        W30022  30.082  12.819   3.658
61693W        W30023  44.869  13.256  14.962
61694W        W30024  33.063  41.346   4.141
61695W        W30025   5.402  10.232   2.270
61696W        W30026   6.834  24.664   1.818
61697W        W30027  21.189  26.035  12.954
61698W        W30028  22.097   0.311   2.791
61699W        W30029  29.455  41.466   0.901
61700W        W30030   3.318  32.070  12.408
61701W        W30031  32.021  11.283  14.862
61702W        W30032   8.866  19.716  10.068
61703W        W30033   7.736  28.572   1.792
61704W        W30034   8.390   5.373   0.280
61705W        W30035  19.626   5.888   0.752
61706W        W30036  13.841  20.201   3.834
61707W        W30037  12.680  31.924  11.585
61708W        W30038  17.249  18.614  14.465
61709W        W30039  21.610  23.082   3.772
61710W        W30040   9.209  14.827  14.968
61711W        W30041  12.785  41.482   1.386
61712W        W30042  41.861  19.168   0.364
61713W        W30043  28.120  17.257  11.552
61714W        W30044  41.012  35.107   0.813
61715W        W30045  21.757  33.597   9.928
61716W        W30046   1.883   3.217   0.890
61717W        W30047  16.310   1.779  14.985
61718W        W30048  34.426  19.715  11.089
61719W        W30049  41.417   9.769   0.793
61720W        W30050   6.820  11.746  14.483
61721W        W30051  11.640  11.150  14.347
61722W        W30052   1.359  43.300   2.408
61723W        W30053  16.783  14.734  12.007
61724W        W30054   2.961  42.428  10.404
61725W        W30055  42.394  42.285  14.357
61726W        W30056   6.211   0.767   2.871
61727W        W30057  37.010  26.072  14.486
61728W        W30058  18.775  22.170  13.809
61729W        W30059  43.809   4.233  12.871
61730W        W30060   4.348  16.651  13.979
61731W        W30061  42.303  32.923   1.752
61732W        W30062  12.756  23.192  13.408
61733W        W30063   5.871  32.941  11.410
61734W        W30064  40.976  41.948  11.489
61735W        W30065  28.537  44.430  13.043
61736W        W30066  33.912  27.038   1.777
61737W        W30067  29.066  26.668  12.559
61738W        W30068   2.831  30.499   1.284
61739W        W30069  33.877  19.740  13.379
61740W        W30070  31.565   7.782  10.579
61741W        W30071   2.798  23.574   3.175
61742W        W30072  31.556  12.264  11.960
61743W        W30073  27.051  10.723  13.040
61744W        W30074  38.507  15.611   1.895
61745W        W30075  22.159   4.346  10.982
61746W        W30076   6.243  32.901  13.342
61747W        W30077  15.207  43.312   2.233
61748W        W30078  39.897  22.039  10.597
61749W        W30079  43.832   7.764   2.867
61750W        W30080  41.370  34.382  14.850
61751W        W30081  18.670   5.354  14.789
61752W        W30082  14.108  18.088   1.716
61753W        W30083  24.068   7.824  11.602
61754W        W30084  17.099  14.665   1.372
61755W        W30085   0.930  41.950  13.978
61756W        W30086  17.649  22.662  12.580
61757W        W30087  34.055  44.820   0.740
61758W        W30088  22.693  17.127  12.069
61759W        W30089  19.537  22.585  14.975
61760W        W30090  29.065  24.536   0.855
61761W        W30091  41.357  22.716   3.382
61762W        W30092  19.251  37.505  11.961
61763W        W30093   0.282  13.661   4.715
61764W        W30094  16.763  36.527   4.208
61765W        W30095  29.474   9.702   3.853
61766W        W30096  23.555  17.209   3.769
61767W        W30097  13.843  20.127  11.037
61768W        W30098  44.479  38.956  13.000
61769W        W30099  16.080   1.965  11.887
61770W        W30100  31.568  11.626  14.892
61771W        W30101   6.744  22.091   2.729
61772W        W30102   8.776  24.104  10.540
61773W        W30103   3.312   1.831  14.394
61774W        W30104   7.842  36.390   3.297
61775W        W30105  26.166  13.109  10.577
61776W        W30106  17.674  35.358   1.250
61777W        W30107  25.517  11.864  13.018
61778W        W30108  18.248   4.832  12.857
61779W        W30109   3.900  22.575  11.602
61780W        W30110  25.039  30.563  12.373
61781W        W30111   7.773  29.085  14.937
61782W        W30112   3.376   8.179  11.999
61783W        W30113   8.267  19.582   2.184
61784W        W30114  15.683   8.788  12.891
61785W        W30115  34.476   1.319  14.471
61786W        W30116   4.422  21.726  11.907
61787W        W30117  31.425  26.615   0.456
61788W        W30118  16.142  38.903   1.444
61789W        W30119  23.218  42.527  13.338
61790W        W30120  13.152  35.948  11.084
61791W        W30121  40.920   7.788  11.460
61792W        W30122   5.247   4.699  12.422
61793W        W30123  25.545  41.444  13.358
61794W        W30124  33.625  44.393  13.431
61795W        W30125  27.135   4.373  14.443
61796W        W30126  24.087   2.795  11.417
61797W        W30127  44.809  30.925   2.854
61798W        W30128   0.747  42.409  11.398
61799W        W30129   4.704  15.240  14.769
61800W        W30130  32.085  33.396  10.632
61801W        W30131  33.898  34.931   1.343
61802W        W30132  42.339  31.141   4.238
61803W        W30133  20.740  31.002   0.426
61804W        W30134  35.524  21.727   1.895
61805W        W30135  28.544  17.228  14.934
61806W        W30136  32.917  20.593  13.464
61807W        W30137   7.770  11.259  13.960
61808W        W30138  18.257  29.176   1.341
61809W        W30139  37.485  25.136   1.415
61810W        W30140  32.993   9.248   0.293
61811W        W30141  16.774  28.668   0.920
61812W        W30142  33.953   6.842  11.530
61813W        W30143  15.647  38.867   4.256
61814W        W30144  15.199   4.911   4.341
61815W        W30145  23.066  36.527  12.547
61816W        W30146  28.477   4.746  14.283
61817W        W30147  13.816  44.479   2.742
61818W        W30148   3.436  18.172   1.924
61819W        W30149  13.785   6.416  11.392
61820W        W30150   4.305   2.277  11.462
61821W        W30151  27.967  39.818   3.234
61822W        W30152   1.749   9.389   1.223
61823W        W30153  33.424  36.065   3.338
61824W        W30154  22.534  44.861  12.390
61825W        W30155  15.649  39.919   1.755
61826W        W30156  10.351   8.230   3.330
61827W        W30157   4.379  12.171   3.260
61828W        W30158  36.069  16.769  12.481
61829W        W30159  21.019  24.680  12.379
61830W        W30160  18.719  17.161   4.293
61831W        W30161  43.968  13.620  13.404
61832W        W30162   1.910  28.460   4.313
61833W        W30163   7.229  40.976  11.063
61834W        W30164  24.687  16.180  13.341
61835W        W30165  43.434   3.251   2.351
61836W        W30166  39.394   6.758   2.668
61837W        W30167  11.838  21.533   0.337
61838W        W30168  40.541   7.803   4.227
61839W        W30169   4.799  36.047   3.248
61840W        W30170  27.548  11.252  13.909
61841W        W30171   0.936   7.861   2.702
61842W        W30172   1.768  10.694   4.200
61843W        W30173  42.861  30.084  12.880
61844W        W30174  33.592  32.494  14.508
61845W        W30175  39.463   4.396   2.822
61846W        W30176  31.113  10.254  14.012
61847W        W30177  15.220   3.232   2.402
61848W        W30178  18.210   5.932   4.761
61849W        W30179   4.706   9.176   1.387
61850W        W30180  10.741  23.549  13.990
61851W        W30181   9.211  37.462   2.849
61852W        W30182   4.294  18.096  11.494
61853W        W30183  43.458  25.512  11.588
61854W        W30184  27.601  12.807   2.390
61855W        W30185   9.679  10.152  11.985
61856W        W30186   5.437  26.462  10.102
61857W        W30187  39.329   6.267  14.871
61858W        W30188  16.171  21.102   4.272
61859W        W30189  27.628   0.250   4.685
61860W        W30190  36.443  36.385  14.387
61861W        W30191  43.307  44.295  14.930
61862W        W30192  26.581  35.423  10.988
61863W        W30193  25.530  22.725  12.506
61864W        W30194  44.988  43.504  10.601
61865W        W30195  37.394   6.290   0.866
61866W        W30196  25.527  20.656  10.639
61867W        W30197  22.114  11.284  11.862
61868W        W30198  29.649  18.222   1.277
61869W        W30199  24.500  43.351   4.774
61870W        W30200  36.946  12.676   4.835
61871W        W30201  44.390  26.130  10.977
61872W        W30202  13.766  20.727   1.767
61873W        W30203  13.181  21.721  13.328
61874W        W30204  38.839  38.861   0.756
61875W        W30205  24.128  31.059  11.918
61876W        W30206  37.405   6.241   4.185
61877W        W30207  12.289  44.420  14.017
61878W        W30208  38.832  43.807  11.012
61879W        W30209  27.007  39.511  12.051
61880W        W30210  39.436  23.006  14.759
61881W        W30211  20.060  19.265   3.298
61882W        W30212  37.889  19.266  14.847
61883W        W30213  32.012   0.381   2.770
61884W        W30214  10.261  30.463   5.136
61885W        W30215  32.410   3.390   3.313
61886W        W30216  28.465  42.309  11.915
61887W        W30217  13.813  44.425   3.238
61888W        W30218  17.180  17.583  10.631
61889W        W30219  36.877   4.361   0.889
61890W        W30220  26.165  34.921  14.025
61891W        W30221   9.361  16.688   2.826
61892W        W30222  42.966  32.468   0.961
61893W        W30223   6.197   5.688   2.732
61894W        W30224  30.943  36.356  12.996
61895W        W30225  22.743   4.426   4.114
61896W        W30226  24.077  21.178   3.636
61897W        W30227  13.300  11.214  10.544
61898W        W30228   1.410   2.893   2.384
61899W        W30229  32.403  21.247  12.980
61900W        W30230  25.492  33.432  11.116
61901W        W30231  28.458  11.368   1.920
61902W        W30232   2.405  11.238   3.358
61903W        W30233  28.937   7.408  11.387
61904W        W30234  39.918  32.556   1.784
61905W        W30235  11.233  18.133  14.939
61906W        W30236  26.568  21.028   3.814
61907W        W30237   8.390  40.034  10.560
61908W        W30238  42.011  38.938   3.210
61909W        W30239  11.866  43.350  13.013
61910W        W30240  25.192  18.216   2.701
61911W        W30241  24.642  41.971   4.674
61912W        W30242  24.587  14.306  12.839
61913W        W30243  36.892   1.308  11.976
61914W        W30244  16.152  31.066  12.438
61915W        W30245   9.810   6.304   1.224
61916W        W30246  23.119  33.043   4.771
61917W        W30247  12.776  21.728  10.980
61918W        W30248  37.997   1.883   2.889
61919W        W30249  23.614  33.590  12.053
61920W        W30250  44.315  42.879  10.011
61921W        W30251  28.469   2.248  12.028
61922W        W30252  10.190  43.807   3.353
61923W        W30253  44.383  24.537   0.330
61924W        W30254  25.072  36.050  12.871
61925W        W30255  42.848  43.395   4.125
61926W        W30256  14.220  44.847   3.699
61927W        W30257  30.455  36.386   2.882
61928W        W30258  39.375  15.302  12.563
61929W        W30259  27.623  11.857   2.869
61930W        W30260   9.878  14.773   0.257
61931W        W30261   0.393  36.436   4.700
61932W        W30262  30.452  33.885  13.047
61933W        W30263   6.698  35.511  12.085
61934W        W30264  28.629  22.514  14.894
61935W        W30265  31.432  10.344  11.399
61936W        W30266  41.413  35.853   4.315
61937W        W30267  12.175  14.710   4.706
61938W        W30268  21.656   5.314  13.810
61939W        W30269   6.839   6.251  13.855
61940W        W30270  12.347  30.139  12.044
61941W        W30271   6.681  13.278  12.016
61942W        W30272  23.991  25.105   9.971
61943W        W30273   7.299  28.676   2.694
61944W        W30274  30.979  25.548   1.911
61945W        W30275   2.380  25.214  11.448
61946W        W30276  42.906  41.926   3.212
61947W        W30277  40.526  28.644   3.716
61948W        W30278  22.103  35.564   3.210
61949W        W30279   0.349  40.859   1.695
61950W        W30280  34.507  22.616  13.325
61951W        W30281  27.551  33.939   5.251
61952W        W30282  43.294  30.135   2.320
61953W        W30283   5.756  11.822   4.285
61954W        W30284  30.086  32.500   9.951
61955W        W30285  36.471  28.493  13.336
61956W        W30286  21.634  29.623  11.864
61957W        W30287  15.620   1.971   2.790
61958W        W30288  36.031  11.775   4.774
61959W        W30289  25.021  12.835   9.956
61960W        W30290  31.948  22.560   1.355
61961W        W30291  38.048  19.231   3.267
61962W        W30292  35.986   9.669   4.225
61963W        W30293  20.730  22.633  10.587
61964W        W30294  14.280  15.621   1.432
61965W        W30295  12.704  41.460   2.353
61966W        W30296  38.839  24.669   5.312
61967W        W30297   6.884  35.920  13.888
61968W        W30298  17.650  11.222  12.368
61969W        W30299  11.784   8.235   3.808
61970W        W30300  25.076   3.886  12.558
61971W        W30301  23.201   7.786   4.670
61972W        W30302  40.967   3.425  11.963
61973W        W30303  32.900  44.441   1.437
61974W        W30304  33.426  29.048  10.003
61975W        W30305  31.091   1.365  10.972
61976W        W30306  14.130  41.310  12.486
61977W        W30307   3.746  30.119  11.128
61978W        W30308  20.728   8.389  13.035
61979W        W30309  31.452  18.572  14.299
61980W        W30310  16.701   7.778  14.438
61981W        W30311  26.059  33.978  10.898
61982W        W30312  40.503   7.912   3.376
61983W        W30313  14.640  26.109  11.079
61984W        W30314  28.062   9.382   9.942
61985W        W30315   1.907   5.909  14.856
61986W        W30316  35.047  37.582   3.195
61987W        W30317   0.266  23.673  13.308
61988W        W30318   7.300   6.261   0.410
61989W        W30319  30.050  15.664   4.713
61990W        W30320  28.464   2.790  13.484
61991W        W30321  22.647   3.738  12.852
61992W        W30322  14.216  14.600   2.703
61993W        W30323  39.340   5.435  11.082
61994W        W30324  18.158  41.012   2.841
61995W        W30325  33.460  37.372  13.883
61996W        W30326  14.184   2.778  12.878
61997W        W30327   3.231  18.169  13.368
61998W        W30328   4.390  31.477   1.743
61999W        W30329   5.376   0.858  11.409
62000W        W30330  32.558  23.213   1.285
62001W        W30331  29.075  38.521  12.842
62002W        W30332  20.078  17.632  11.864
62003W        W30333   5.792   0.308   3.654
62004W        W30334  25.208  11.267   2.662
62005W        W30335  31.067  29.123   4.122
62006W        W30336  41.802  12.621   4.179
62007W        W30337  27.951  13.337   4.668
62008W        W30338   2.280   6.903  11.561
62009W        W30339  24.659  25.529   4.601
62010W        W30340  41.892  43.794   1.440
62011W        W30341  30.012  44.341  10.404
62012W        W30342  24.613  17.178  10.929
62013W        W30343  44.911  28.602   3.869
62014W        W30344  15.315  30.455   2.217
62015W        W30345  16.586   4.443   2.206
62016W        W30346   0.403  29.095  14.300
62017W        W30347  21.641  36.452   1.355
62018W        W30348   7.388  10.200  14.999
62019W        W30349  23.157   6.678  11.018
62020W        W30350  42.827  27.985   1.838
62021W        W30351  25.211  11.139   0.272
62022W        W30352  42.797   3.829   3.363
62023W        W30353  32.490   9.882  10.974
62024W        W30354  31.528  38.878  10.608
62025W        W30355  10.759  11.693  10.895
62026W        W30356   3.752  39.498   3.868
62027W        W30357  43.942  36.414   4.182
62028W        W30358  30.456  21.702   4.218
62029W        W30359  14.262   0.379  13.907
62030W        W30360  29.428  37.076  13.365
62031W        W30361  10.778  35.912  14.397
62032W        W30362  19.097   5.912   1.221
62033W        W30363  35.549   5.875  14.449
62034W        W30364  42.790  16.595  12.368
62035W        W30365  41.996  43.514  11.522
62036W        W30366  14.818   5.793   4.175
62037W        W30367  24.633  33.399   4.116
62038W        W30368  36.034  19.736  11.598
62039W        W30369  28.084   5.420  10.083
62040W        W30370  44.801  18.604   0.345
62041W        W30371  13.343  29.164  13.908
62042W        W30372  22.186   3.888   2.287
62043W        W30373  22.054  40.857   3.321
62044W        W30374  14.709  29.501   2.336
62045W        W30375  38.324  23.048  14.277
62046W        W30376  22.070   6.417  14.922
62047W        W30377  33.516   3.241  13.467
62048W        W30378  25.101  31.024   3.641
62049W        W30379  44.845  16.776   0.772
62050W        W30380  14.285  20.104   3.193
62051W        W30381  14.147  34.068  12.920
62052W        W30382   9.808  18.679   0.464
62053W        W30383  11.846   3.264  12.019
62054W        W30384  38.915  15.090  14.779
62055W        W30385   8.813  35.859   1.822
62056W        W30386  18.156   1.967   0.948
62057W        W30387  35.428  30.961   0.292
62058W        W30388  27.511  17.307  14.361
62059W        W30389   1.267   8.329   3.663
62060W        W30390  21.675  22.207   2.373
62061W        W30391  31.612  41.433   4.148
62062W        W30392  25.061  14.686   3.828
62063W        W30393  29.987   4.255   0.276
62064W        W30394   3.322  35.572   1.784
62065W        W30395   2.248  43.388  14.832
62066W        W30396  33.387  26.593   4.317
62067W        W30397   2.343  30.044  13.319
62068W        W30398   1.932  10.647  11.574
62069W        W30399  35.505  25.613  10.955
62070W        W30400   8.228   7.358   0.949
62071W        W30401   2.881  31.976   3.371
62072W        W30402  40.006  37.406  12.971
62073W        W30403  21.041  27.130  14.369
62074W        W30404   6.850   9.878   4.657
62075W        W30405   8.812  36.049  11.512
62076W        W30406  16.766  16.642   3.256
62077W        W30407  19.683   0.946  12.491
62078W        W30408  10.637   2.356   3.314
62079W        W30409  26.615  13.271  13.058
62080W        W30410  26.648  30.638   3.239
62081W        W30411  13.654  29.089   1.378
62082W        W30412  34.008  17.668  11.972
62083W        W30413  32.413   6.345  13.971
62084W        W30414   9.163  14.652   2.347
62085W        W30415  26.568  28.452   0.298
62086W        W30416  26.588  17.563   2.689
62087W        W30417  23.534  19.776  13.796
62088W        W30418  26.189  15.235   1.795
62089W        W30419  40.924  26.167  11.997
62090W        W30420  21.254  25.508   4.346
62091W        W30421  42.515  42.292   1.212
62092W        W30422   8.742  22.173   3.806
62093W        W30423  12.293  43.892   3.828
62094W        W30424  33.897  44.872  10.932
62095W        W30425  41.508  25.986   3.819
62096W        W30426  39.907  10.749   3.630
62097W        W30427  39.930  24.648  12.985
62098W        W30428  16.575  29.027  14.016
62099W        W30429   1.956  31.516   4.172
62100W        W30430  25.977  24.590   2.365
62101W        W30431   0.766  40.038   4.644
62102W        W30432  34.505  12.773   1.907
62103W        W30433   2.344  34.017   3.864
62104W        W30434  32.405  35.422   4.210
62105W        W30435  17.293   9.230  12.965
62106W        W30436  23.154  23.186  10.907
62107W        W30437  22.130  40.309  12.386
62108W        W30438  13.312  23.146  11.379
62109W        W30439   1.773  36.591  14.849
62110W        W30440  35.052  25.183   0.922
62111W        W30441  11.251  44.312  12.463
62112W        W30442   4.242  23.580  10.597
62113W        W30443  19.078  37.944  11.120
62114W        W30444  26.148  29.073  11.554
62115W        W30445   2.897  43.428   4.798
62116W        W30446  14.254  39.917   4.719
62117W        W30447  25.627  42.807  13.904
62118W        W30448  27.629  17.798  13.008
62119W        W30449  14.122   9.655  12.062
62120W        W30450  17.728  12.190   1.826
62121W        W30451   3.830  21.755   2.319
62122W        W30452  36.087   5.381  13.811
62123W        W30453  11.750   4.730  13.395
62124W        W30454  21.531  32.032   1.857
62125W        W30455  10.747  10.345  14.426
62126W        W30456  30.490  13.150   2.726
62127W        W30457  25.983  41.355  14.933
62128W        W30458   1.327   5.913   3.150
62129W        W30459  26.478  28.180  13.454
62130W        W30460  14.816  15.269   3.311
62131W        W30461  36.483   8.655   1.711
62132W        W30462   7.778  12.706  12.461
62133W        W30463  28.517  41.302  13.459
62134W        W30464  27.166   9.725   1.914
62135W        W30465  15.584  24.722  13.000
62136W        W30466  12.645  43.809   0.434
62137W        W30467  31.638  39.372  14.979
62138W        W30468  39.441  16.733  14.967
62139W        W30469   2.781  30.463   0.273
62140W        W30470   7.239  31.017  11.488
62141W        W30471  34.910  37.382   4.796
62142W        W30472  25.481  28.992  10.407
62143W        W30473  28.566  27.046  11.002
62144W        W30474  31.149  30.460   2.307
62145W        W30475  26.467  40.822   4.661
62146W        W30476  31.575  17.084  14.407
62147W        W30477  13.741   5.890  12.549
62148W        W30478   6.770  41.936   4.706
62149W        W30479  13.608  10.225  10.989
62150W        W30480   8.849  25.066  12.940
62151W        W30481  31.613  11.736  10.972
62152W        W30482  19.551  38.988  11.062
62153W        W30483   7.266  41.945  11.420
62154W        W30484  39.945   2.915   1.777
62155W        W30485   8.897  30.149  14.373
62156W        W30486  17.131   9.869  11.429
62157W        W30487  14.738  22.719   3.711
62158W        W30488  39.420  15.153   2.709
62159W        W30489  23.724  31.403   3.170
62160W        W30490  35.397  34.369   2.817
62161W        W30491  21.254   8.276   4.668
62162W        W30492  28.083  11.674   2.195
62163W        W30493  34.016   8.876   3.176
62164W        W30494  36.493   1.737  13.957
62165W        W30495   9.304  43.951  14.382
62166W        W30496  13.695  17.301   3.742
62167W        W30497  29.446  23.006   3.212
62168W        W30498   2.823   5.289   3.166
62169W        W30499  26.136  18.223   3.694
62170W        W30500  11.842   0.322   2.821
62171W        W30501  41.492  38.074   0.259
62172W        W30502  28.068   2.393  12.516
62173W        W30503  38.062  37.346   2.412
62174W        W30504  20.129  23.070  11.894
62175W        W30505   3.853   4.807  14.911
62176W        W30506  44.374  22.024   0.442
62177W        W30507  24.647   7.370   2.810
62178W        W30508  11.199  22.605  13.419
62179W        W30509   4.205   4.822  13.001
62180W        W30510  41.949  29.081   0.797
62181W        W30511  36.361  17.139   3.215
62182W        W30512  22.106   5.932  12.420
62183W        W30513  16.251   9.651  11.521
62184W        W30514   0.265  38.515   1.279
62185W        W30515  31.992  11.738  11.494
62186W        W30516  19.200  44.323   2.331
62187W        W30517  14.813   7.717  14.941
62188W        W30518  13.634  44.763  10.468
62189W        W30519  27.597  19.745   1.883
62190W        W30520  30.955  27.626  13.519
62191W        W30521   5.778  23.635   0.831
62192W        W30522  11.766  13.321  14.807
62193W        W30523  15.615  34.368  13.419
62194W        W30524   4.259  10.821  10.617
62195W        W30525  18.747   9.201   4.348
62196W        W30526  11.811  23.117  12.947
62197W        W30527   8.749  29.125  14.481
62198W        W30528  21.037  21.114   2.329
62199W        W30529  13.789  17.161   2.765
62200W        W30530  42.840   5.785  12.008
62201W        W30531  24.497  25.492  12.461
62202W        W30532  33.911  42.912   4.826
62203W        W30533  30.111  23.552  10.545
62204W        W30534  16.793  14.126   3.729
62205W        W30535  25.468   9.742   2.697
62206W        W30536  27.630  33.383   1.875
62207W        W30537  29.135  19.674  13.408
62208W        W30538  31.055  25.571   3.790
62209W        W30539  24.567  19.183  10.643
62210W        W30540  43.856  24.481  11.898
62211W        W30541  28.480  21.575   1.355
62212W        W30542  24.509  32.589  14.283
62213W        W30543  10.193  20.210  13.896
62214W        W30544  16.114   4.314  12.942
62215W        W30545   1.439  16.808  12.463
62216W        W30546  43.397  44.428  12.497
62217W        W30547  38.502  11.725  11.504
62218W        W30548  13.687  10.802   0.424
62219W        W30549  36.413  35.946   0.441
62220W        W30550  19.765   6.875  11.552
62221W        W30551  30.546  43.352  10.590
62222W        W30552   3.248   9.337   1.293
62223W        W30553  29.071   9.679  10.964
62224W        W30554   3.243  24.190  14.783
62225W        W30555  14.320  20.654  14.795
62226W        W30556  34.385  15.187   3.381
62227W        W30557  23.051  42.490  12.400
62228W        W30558  17.221   5.832  14.909
62229W        W30559  15.632   3.247  14.298
62230W        W30560  11.138  42.792   0.963
62231W        W30561   0.485   8.356   3.778
62232W        W30562  29.030  22.684   4.149
62233W        W30563  34.903  12.298  12.511
62234W        W30564  21.186  16.275   9.940
62235W        W30565   1.481  36.404   3.246
62236W        W30566  21.086  19.166   0.432
62237W        W30567   0.893  22.613   1.231
62238W        W30568  19.194  26.120   3.227
62239W        W30569  42.831  19.067  11.028
62240W        W30570  29.932  31.919   5.173
62241W        W30571  42.460  24.539  10.473
62242W        W30572   0.323  41.948   0.828
62243W        W30573  21.065  22.069   4.345
62244W        W30574  33.477   3.830  13.034
62245W        W30575  42.309  16.671  14.792
62246W        W30576  13.639  25.484  14.446
62247W        W30577  26.958  10.356   3.842
62248W        W30578  38.362   4.222  14.461
62249W        W30579  41.792  21.655   3.315
62250W        W30580  13.226   0.426  13.535
62251W        W30581  18.623  26.632   5.243
62252W        W30582  26.506  36.580  10.552
62253W        W30583  37.843  22.538   0.369
62254W        W30584  10.256  28.086   3.743
62255W        W30585  43.923  42.486  10.507
62256W        W30586  42.941  37.440  13.526
62257W        W30587   1.248  27.068  13.355
62258W        W30588  36.979  13.691   4.638
62259W        W30589  41.479   2.449   1.431
62260W        W30590   7.816  10.751  13.970
62261W        W30591  34.468  29.509   1.388
62262W        W30592  31.478  28.029  10.577
62263W        W30593  42.775   8.231   4.201
62264W        W30594  32.575  19.044   9.491
62265W        W30595   6.888  12.175  10.616
62266W        W30596  43.896  29.080   0.412
62267W        W30597  38.883   3.872   5.195
62268W        W30598  25.538  26.507  14.300
62269W        W30599  41.298  43.786  11.916
62270W        W30600   5.382  38.492  11.063
62271W        W30601  37.025  44.293   3.376
62272W        W30602  35.462  30.023  12.533
62273W        W30603  20.138  36.447   4.220
62274W        W30604  15.193   0.800   0.751
62275W        W30605  14.803   2.892   2.402
62276W        W30606  32.508  38.524  14.364
62277W        W30607  15.650  18.092   0.278
62278W        W30608  36.574  39.829  10.127
62279W        W30609   7.860   0.414   4.817
62280W        W30610  11.255   2.755  12.995
62281W        W30611   2.263  16.175   3.379
62282W        W30612  23.719  19.167  11.506
62283W        W30613  12.830  21.177   5.177
62284W        W30614   5.392   8.762  11.545
62285W        W30615   6.706   7.896   4.162
62286W        W30616  19.558   5.311  11.436
62287W        W30617  29.078  26.149  13.816
62288W        W30618   7.203  22.674  10.905
62289W        W30619  16.140   0.381  11.884
62290W        W30620  44.764  18.731   2.736
62291W        W30621  25.595  16.574   3.187
62292W        W30622  18.128  40.963  14.868
62293W        W30623  12.698  15.639   1.846
62294W        W30624   6.774  21.560  12.339
62295W        W30625  29.923  24.650  14.449
62296W        W30626  37.467  23.695  14.944
62297W        W30627  20.600   3.449  14.284
62298W        W30628   0.286  24.070   3.697
62299W        W30629  11.773  29.459   0.453
62300W        W30630  15.754  11.322   1.242
62301W        W30631  13.683  29.965  12.423
62302W        W30632  23.673  13.607  14.971
62303W        W30633  32.431  11.694  13.387
62304W        W30634   2.241  40.342   0.393
62305W        W30635  36.854  25.467   0.381
62306W        W30636   6.723  23.180   0.382
62307W        W30637  39.555  21.549   4.243
62308W        W30638  37.992  39.853  11.423
62309W        W30639  13.766  33.453   4.739
62310W        W30640  39.552  26.129   4.794
62311W        W30641  43.991  30.462  10.573
62312W        W30642  37.941  44.343  14.444
62313W        W30643  32.495  35.956   1.340
62314W        W30644   1.360   5.215  11.503
62315W        W30645  38.940   6.750  14.302
62316W        W30646   6.743  15.658   4.834
62317W        W30647  18.579   0.395   4.626
62318W        W30648  22.505  29.619   2.670
62319W        W30649   2.379  43.458  12.999
62320W        W30650   7.350  29.591   3.800
62321W        W30651  26.137  10.167   9.974
62322W        W30652   8.220  29.170   3.672
62323W        W30653  15.781  22.094  14.853
62324W        W30654  34.092   7.672   0.340
62325W        W30655  30.030  19.636   3.780
62326W        W30656  31.941   3.282  11.068
62327W        W30657  43.282  20.169   2.332
62328W        W30658   9.353  26.501   4.312
62329W        W30659  19.107  16.126  14.945
62330W        W30660   6.221   1.267  11.947
62331W        W30661   6.322   0.878   2.261
62332W        W30662  27.193   8.332   1.738
62333W        W30663   5.825  34.587   1.401
62334W        W30664  40.956  43.295  14.829
62335W        W30665  41.990   0.347   1.763
62336W        W30666  23.203  32.398  11.020
62337W        W30667  33.905   4.440  10.441
62338W        W30668  17.163   9.682   2.796
62339W        W30669  15.294  27.606   1.856
62340W        W30670  42.841  35.011  14.449
62341W        W30671  31.151   5.924  13.335
62342W        W30672  26.198   6.184   2.348
62343W        W30673   9.338  35.563   0.931
62344W        W30674  22.194  41.307  11.875
62345W        W30675  37.054   0.958  14.405
62346W        W30676  37.085  10.669  13.408
62347W        W30677  35.033  13.657  11.393
62348W        W30678  18.577   3.432   3.721
62349W        W30679  15.707  30.632  14.358
62350W        W30680  21.115  16.170   4.339
62351W        W30681  44.314  31.615  14.413
62352W        W30682  37.422  32.125   4.719
62353W        W30683  15.302   8.874   3.329
62354W        W30684  16.136   8.842  13.964
62355W        W30685  16.589  30.998  13.030
62356W        W30686  20.068  26.572  12.038
62357W        W30687   9.767  22.679  14.460
62358W        W30688  25.965  30.069   1.421
62359W        W30689   6.427  32.485   1.925
62360W        W30690  26.590  28.443  11.942
62361W        W30691  32.138  19.169   2.340
62362W        W30692   6.260  15.192   1.842
62363W        W30693  29.008   0.808  11.596
62364W        W30694  34.594  44.807  13.887
62365W        W30695  36.392  40.456  13.406
62366W        W30696  11.654   6.867  10.967
62367W        W30697   4.740  25.015  12.575
62368W        W30698  23.018  28.632  12.534
62369W        W30699  17.725  21.741  14.858
62370W        W30700  19.262  41.032   3.207
62371W        W30701   1.849  31.598   4.726
62372W        W30702   2.243   8.307  11.022
62373W        W30703  14.741   3.839  10.417
62374W        W30704  31.434  22.706  14.411
62375W        W30705   6.724   8.337   4.683
62376W        W30706   2.950  35.939  12.919
62377W        W30707  13.172  44.474  11.436
62378W        W30708  44.900   4.924  11.045
62379W        W30709  13.658  44.002  14.375
62380W        W30710  16.209  10.182  12.564
62381W        W30711   4.703  31.005  13.406
62382W        W30712  37.464  30.508   0.463
62383W        W30713  21.137  13.270  10.978
62384W        W30714  12.714  40.042   4.629
62385W        W30715   6.253  35.372  10.568
62386W        W30716  25.069  21.124   0.364
62387W        W30717  33.533  21.106   3.657
62388W        W30718  29.490  27.623   2.801
62389W        W30719  42.448  13.668  12.976
62390W        W30720  22.037  26.033   3.239
62391W        W30721  30.947  14.159   4.156
62392W        W30722  43.303   6.792  12.432
62393W        W30723   7.360  39.964   2.852
62394W        W30724  42.392   8.822  11.582
62395W        W30725   4.291  23.207   2.386
62396W        W30726  31.620  15.297  14.463
62397W        W30727  34.561  35.893  11.019
62398W        W30728  42.454   9.860   3.154
62399W        W30729  43.769  16.634  11.555
62400W        W30730  43.832  42.309  12.353
62401W        W30731  10.650  42.480   3.370
62402W        W30732  39.834   8.842  10.613
62403W        W30733  37.998   8.203   5.139
62404W        W30734  25.021  10.209  14.972
62405W        W30735  10.670  16.804   1.417
62406W        W30736  24.073   3.331   3.362
62407W        W30737   7.174  41.989   3.765
62408W        W30738  39.331  27.085   1.241
62409W        W30739  28.986  43.964   4.226
62410W        W30740  32.117   2.369  14.478
62411W        W30741  16.196  36.998  12.407
62412W        W30742  28.563  31.972   2.819
62413W        W30743   4.242  38.820  11.043
62414W        W30744  18.259  39.369   3.649
62415W        W30745  23.182   4.911  14.763
62416W        W30746  40.908   6.428   5.091
62417W        W30747  22.724  44.310   2.247
62418W        W30748   4.753  22.996  11.938
62419W        W30749  11.198  19.215  13.338
62420W        W30750   5.207  23.623   4.221
62421W        W30751   7.904   3.409   4.265
62422W        W30752  34.033   0.883  11.905
62423W        W30753  31.473  23.118  13.369
62424W        W30754   0.979  37.537  10.405
62425W        W30755   6.821  38.988   3.788
62426W        W30756   9.766  31.536   0.957
62427W        W30757   2.820  23.585  11.979
62428W        W30758  33.062  28.948   3.773
62429W        W30759  34.985  24.013   1.302
62430W        W30760   8.235  31.450  12.550
62431W        W30761  28.099  24.216   2.703
62432W        W30762   1.363  34.603  11.875
62433W        W30763  28.584  22.508   2.842
62434W        W30764  24.160  36.947   3.658
62435W        W30765  22.150  24.520  13.002
62436W        W30766  10.349  31.634  12.567
62437W        W30767  20.140  39.536   3.679
62438W        W30768   2.838  23.027   1.802
62439W        W30769  10.851  13.819  13.428
62440W        W30770  19.262  40.540   2.873
62441W        W30771   2.275  34.874   2.677
62442W        W30772  28.519  16.144  11.910
62443W        W30773  24.143  31.964  12.903
62444W        W30774  40.334   4.399  11.921
62445W        W30775   8.406   2.785   2.283
62446W        W30776  28.030  32.451   1.364
62447W        W30777   9.795  40.029  11.943
62448W        W30778  11.621   5.774  14.961
62449W        W30779  15.713   2.739   3.711
62450W        W30780  21.187  43.433   4.797
62451W        W30781   5.730  18.723  11.868
62452W        W30782  25.483   2.836  10.558
62453W        W30783   6.715  26.659  12.036
62454W        W30784   8.662  24.096   2.372
62455W        W30785  19.633  19.635   4.693
62456W        W30786   5.825  11.709  14.494
62457W        W30787  37.935  29.655   3.387
62458W        W30788   5.311   7.357   4.136
62459W        W30789  28.112  22.745  12.470
62460W        W30790  16.647  31.487  13.470
62461W        W30791   5.374   4.785   3.654
62462W        W30792   5.913  38.991  11.084
62463W        W30793  27.156  43.967  13.454
62464W        W30794   8.190  42.854   1.920
62465W        W30795  35.514  32.628   4.693
62466W        W30796   4.259  30.940   0.476
62467W        W30797   1.773  34.018  10.940
62468W        W30798  41.465  28.451  14.878
62469W        W30799   2.418  18.191   2.870
62470W        W30800  18.791   2.401   3.165
62471W        W30801   6.191  13.717  14.768
62472W        W30802  33.599   6.832   4.599
62473W        W30803  23.197   1.330   4.614
62474W        W30804  12.798  43.382  13.945
62475W        W30805  10.732  22.186  10.961
62476W        W30806  16.120  26.104  13.883
62477W        W30807  17.168  37.037   4.756
62478W        W30808  10.649   5.297  12.861
62479W        W30809  17.788   5.433  14.387
62480W        W30810  19.627  21.110   3.755
62481W        W30811  33.086  37.468  12.432
62482W        W30812   1.834  39.344   3.198
62483W        W30813  42.440  31.037  10.594
62484W        W30814  15.748  34.918  13.951
62485W        W30815  15.822  14.615  12.989
62486W        W30816  34.898  38.567  12.430
62487W        W30817  25.075  28.111   0.355
62488W        W30818  21.731  44.272   2.389
62489W        W30819  22.655   1.741   1.409
62490W        W30820   5.398  16.240   3.630
62491W        W30821  28.452   9.231  11.476
62492W        W30822   0.258  17.797   3.317
62493W        W30823  13.323   7.817   3.354
62494W        W30824  16.128   3.424  10.914
62495W        W30825  25.162  24.541  12.072
62496W        W30826  22.525  16.286  13.989
62497W        W30827  44.756  41.888  11.559
62498W        W30828  42.416  21.150   1.845
62499W        W30829  22.737   0.926   1.297
62500W        W30830  15.214  36.467  14.785
62501W        W30831  14.619  31.646  10.499
62502W        W30832  34.396  13.271   0.816
62503W        W30833  35.015  24.572  12.359
62504W        W30834  37.887  28.149  11.013
62505W        W30835  23.674  14.720   4.602
62506W        W30836  22.636  39.462  13.878
62507W        W30837  43.416  39.899   0.262
62508W        W30838  15.187  29.608   3.864
62509W        W30839  14.625  33.626  10.495
62510W        W30840   2.291  42.408   3.852
62511W        W30841  30.478   3.447   3.763
62512W        W30842  19.100  22.696   0.940
62513W        W30843  31.949  43.998   2.844
62514W        W30844  25.184  41.809   4.801
62515W        W30845  44.392  16.617   0.308
62516W        W30846  18.561  34.070  12.528
62517W        W30847   9.745  34.966  14.446
62518W        W30848  16.080  40.828  13.851
62519W        W30849  44.002   8.374  13.532
62520W        W30850  17.751  39.333  13.522
62521W        W30851  23.062   8.273  14.998
62522W        W30852  42.523  44.873  10.422
62523W        W30853   9.282  21.712  14.892
62524W        W30854   8.225  26.150   1.760
62525W        W30855  17.239  19.048   1.758
62526W        W30856  38.881  37.448  13.879
62527W        W30857  26.495  14.160   4.348
62528W        W30858  28.044  18.630  10.637
62529W        W30859  29.472  14.660   3.728
62530W        W30860  23.539  41.488  14.006
62531W        W30861  10.363  30.908  11.010
62532W        W30862  12.258  42.934   2.216
62533W        W30863  43.944  21.031  11.876
62534W        W30864  13.227  22.615  10.439
62535W        W30865  27.191  29.576  14.403
62536W        W30866  27.088  28.037  13.970
62537W        W30867  32.506  28.613   0.841
62538W        W30868  14.260  27.655  11.406
62539W        W30869  25.506  24.545  11.064
62540W        W30870  14.230   2.460  13.346
62541W        W30871  22.611   2.238   2.245
62542W        W30872  28.143  44.861   4.199
62543W        W30873  19.234  28.165   2.852
62544W        W30874  18.600   3.816  13.382
62545W        W30875  26.205  44.318   1.366
62546W        W30876  39.819  34.902   2.313
62547W        W30877  40.936  18.247   2.774
62548W        W30878  21.205  17.747   4.255
62549W        W30879  14.251  44.301  14.331
62550W        W30880  36.969  36.497   4.263
62551W        W30881  39.976  25.176   0.323
62552W        W30882  44.940  14.598  14.020
62553W        W30883  31.116  29.624  13.389
62554W        W30884  11.164  42.806   2.812
62555W        W30885   6.847  38.038   0.408
62556W        W30886   6.745  11.161  11.929
62557W        W30887   1.451   3.397  13.405
62558W        W30888   6.299   9.742  14.397
62559W        W30889  39.430  24.076  10.602
62560W        W30890  44.910  39.971   0.766
62561W        W30891  16.639  19.169   0.274
62562W        W30892   8.382  41.807   4.647
62563W        W30893  13.674   7.402  14.839
62564W        W30894  13.761  30.439   2.316
62565W        W30895  13.686   0.307   0.305
62566W        W30896   0.894  11.271   0.399
62567W        W30897  41.462   3.398   0.891
62568W        W30898  39.322  27.459  13.500
62569W        W30899  21.550   7.679  13.329
62570W        W30900  23.563  30.639  13.485
62571W        W30901   7.764  10.195   4.131
62572W        W30902  12.360   9.255   2.245
62573W        W30903  41.881  44.485   5.202
62574W        W30904  36.380  21.122  13.459
62575W        W30905   3.422  24.087  13.424
62576W        W30906  42.469  32.006  13.888
62577W        W30907  12.178  13.301  14.805
62578W        W30908  25.177  19.165   2.283
62579W        W30909  21.519  32.610   1.313
62580W        W30910  10.656  44.370  14.763
62581W        W30911  34.407  29.456  11.014
62582W        W30912  32.546  24.570  12.471
62583W        W30913  15.090  33.616  13.501
62584W        W30914  31.509  27.059  10.421
62585W        W30915  27.651  15.632  12.077
62586W        W30916  36.842  34.566   2.756
62587W        W30917  36.441  38.927   3.776
62588W        W30918  22.248  13.667  14.910
62589W        W30919  38.549   8.382  12.475
62590W        W30920  37.367  41.511   4.254
62591W        W30921  33.398  43.844  12.054
62592W        W30922  17.296  34.493   3.348
62593W        W30923  39.830  43.922  13.360
62594W        W30924  18.696  28.527  11.112
62595W        W30925   4.291  19.702  12.908
62596W        W30926   0.350  37.386   0.875
62597W        W30927  20.094  27.535  13.847
62598W        W30928   0.902  21.254  10.935
62599W        W30929   5.323  44.463   0.312
62600W        W30930  32.523   0.826   4.753
62601W        W30931  14.310  25.532   1.394
62602W        W30932  17.717  33.908   2.856
62603W        W30933  20.069   4.359   0.477
62604W        W30934  14.601  37.941  13.311
62605W        W30935   1.917  14.191  11.106
62606W        W30936   6.219   8.212   4.267
62607W        W30937  17.290  34.439   4.235
62608W        W30938  28.982  12.305   0.349
62609W        W30939   5.752   4.220  12.460
62610W        W30940  10.826  19.652  14.900
62611W        W30941   0.983  42.404  13.934
62612W        W30942  41.916  33.971  10.468
62613W        W30943  34.977   3.766   0.323
62614W        W30944  44.323   9.353   0.382
62615W        W30945   2.326  35.372   1.918
62616W        W30946  38.494   4.241  12.368
62617W        W30947  43.867   4.912   2.389
62618W        W30948   7.409  32.915   2.779
62619W        W30949  43.888   5.695  10.920
62620W        W30950  22.692  42.941   2.362
62621W        W30951  42.855  30.588   4.263
62622W        W30952  43.348   6.322   1.392
62623W        W30953  17.722  40.368   4.742
62624W        W30954  19.065  31.087   3.149
62625W        W30955  26.629  37.856   2.396
62626W        W30956  33.003  22.597   3.825
62627W        W30957  27.623   2.934   0.900
62628W        W30958  43.394  15.115   3.845
62629W        W30959   6.770  44.282  10.139
62630W        W30960  30.923  32.013   4.756
62631W        W30961  10.766  22.587  14.909
62632W        W30962  43.887   8.291   4.251
62633W        W30963  16.115  14.677   4.341
62634W        W30964   9.223  40.536  10.045
62635W        W30965  14.771  15.116  11.525
62636W        W30966  41.856  17.628   2.755
62637W        W30967   9.231   8.346   2.363
62638W        W30968  15.189   5.299  11.470
62639W        W30969  12.279  32.024   3.161
62640W        W30970  11.213  14.115  13.449
62641W        W30971  36.993  13.736   2.842
62642W        W30972   0.966  32.051   0.883
62643W        W30973  20.684  12.723  11.994
62644W        W30974  27.587  32.098   3.193
62645W        W30975  41.348   3.861   1.338
62646W        W30976  16.759  35.548  14.824
62647W        W30977  39.058  39.504   3.681
62648W        W30978   2.923  22.507   3.646
62649W        W30979  18.100  26.695   2.237
62650W        W30980  42.878  43.444  13.331
62651W        W30981  26.115   0.450   3.183
62652W        W30982  17.190  15.584   5.269
62653W        W30983  34.863  22.997  14.305
62654W        W30984  32.409   9.188  10.981
62655W        W30985  36.898  23.517   3.366
62656W        W30986  35.362  15.144  14.449
62657W        W30987   6.359  12.270   3.756
62658W        W30988  17.090   1.913   0.869
62659W        W30989  13.687  30.472   1.800
62660W        W30990   3.744  41.013   2.777
62661W        W30991   7.339  31.634   4.827
62662W        W30992  38.049  37.058   2.728
62663W        W30993  28.012  18.773   2.761
62664W        W30994  33.997  14.149   4.330
62665W        W30995  20.631  35.569  11.900
62666W        W30996   2.778  27.051   3.248
62667W        W30997  32.521  28.515  11.516
62668W        W30998  40.424   5.918  11.038
62669W        W30999   3.392  38.879  12.494
62670W        W31000  42.443   5.910   2.837
62671W        W31001  25.131  11.158  13.040
62672W        W31002  26.532  11.162   5.273
62673W        W31003  14.760  10.855   0.483
62674W        W31004  22.577  18.050  11.423
62675W        W31005  16.208  15.598   3.846
62676W        W31006  42.867   6.215  14.326
62677W        W31007  28.569  26.181   2.196
62678W        W31008  15.727  43.314  13.344
62679W        W31009   9.251  13.214   4.219
62680W        W31010   2.297   4.925  14.361
62681W        W31011  23.168  12.214  12.432
62682W        W31012  44.260  11.829   2.207
62683W        W31013  29.151   4.736  13.415
62684W        W31014  10.775  43.974  13.796
62685W        W31015  23.531  16.202   3.381
62686W        W31016   6.805  10.811  14.295
62687W        W31017  23.196  33.390  13.840
62688W        W31018  31.607  36.949  11.040
62689W        W31019  28.495  16.099   2.901
62690W        W31020  15.204  42.922  10.597
62691W        W31021  36.580  44.853   1.920
62692W        W31022  16.167  23.052   2.321
62693W        W31023  36.910  12.803  11.860
62694W        W31024  12.717   5.831  11.926
62695W        W31025  24.979  43.904  10.412
62696W        W31026  18.121  30.144  13.314
62697W        W31027  10.385  38.926  11.543
62698W        W31028  29.152  37.359  11.524
62699W        W31029   0.480  42.945   1.708
62700W        W31030  19.045  16.115  12.454
62701W        W31031  31.064   6.226  13.029
62702W        W31032  43.779  43.374   3.212
62703W        W31033  36.073  17.755   4.752
62704W        W31034  27.134  39.551  10.493
62705W        W31035  36.365  19.569  14.003
62706W        W31036  40.863  38.843  14.926
62707W        W31037  14.604  22.733  14.393
62708W        W31038   1.832  16.155   4.638
62709W        W31039  12.355  34.957  12.549
62710W        W31040  30.959  11.299  14.888
62711W        W31041  26.964  13.753   4.220
62712W        W31042  14.234   5.838  11.386
62713W        W31043  19.774  33.044  11.418
62714W        W31044  31.074  15.731   5.160
62715W        W31045  41.440  13.321  11.872
62716W        W31046  29.120  40.438  14.899
62717W        W31047  17.229   7.244  10.951
62718W        W31048  32.970   6.303  10.531
62719W        W31049   2.949  32.590  10.974
62720W        W31050   8.743  42.452   2.189
62721W        W31051  32.517  18.782  11.085
62722W        W31052   9.322  15.140  10.494
62723W        W31053  24.592  25.485   2.668
62724W        W31054  28.982   5.881   2.863
62725W        W31055  17.694  15.192  11.027
62726W        W31056  23.042  25.070   0.373
62727W        W31057  16.764  24.988   5.095
62728W        W31058  17.691  16.758  14.302
62729W        W31059  18.066  23.014   1.429
62730W        W31060  44.856   3.787   2.716
62731W        W31061  40.372   9.225  12.512
62732W        W31062   7.227  15.217  12.878
62733W        W31063  31.985  38.507  12.387
62734W        W31064   8.881  32.957   1.873
62735W        W31065  10.358  26.643  11.459
62736W        W31066  44.406  31.909  13.914
62737W        W31067  28.966  36.011  14.476
62738W        W31068  37.955  21.068  13.970
62739W        W31069  44.869  36.593   1.732
62740W        W31070  17.631  43.794   4.168
62741W        W31071  19.144  42.858  13.510
62742W        W31072  42.366  10.243   0.323
62743W        W31073   0.810  44.415   9.966
62744W        W31074  17.613  20.098   1.713
62745W        W31075  30.152  32.535   1.794
62746W        W31076  18.289  30.636  14.793
62747W        W31077  34.415  10.337  11.967
62748W        W31078   1.915  26.532   4.652
62749W        W31079  26.965  22.193  11.598
62750W        W31080  39.054  36.562  14.372
62751W        W31081  11.244  11.218  11.120
62752W        W31082   0.955  35.544  14.379
62753W        W31083  29.985  23.710   4.612
62754W        W31084   4.732  29.150  12.437
62755W        W31085  23.710  19.172   3.314
62756W        W31086  35.500  37.896  14.989
62757W        W31087  22.508  25.019   5.139
62758W        W31088  34.868  15.183   3.175
62759W        W31089  35.065   2.887  10.645
62760W        W31090   5.724  23.096   2.772
62761W        W31091  15.598  24.160  11.973
62762W        W31092  41.842   1.422   2.832
62763W        W31093   2.901  16.659  11.545
62764W        W31094  40.931   2.431  12.981
62765W        W31095  39.913   5.933   4.674
62766W        W31096   7.777   3.717   3.660
62767W        W31097  12.705  26.184   4.607
62768W        W31098  28.014   5.282  12.904
62769W        W31099  42.924  12.844  12.471
62770W        W31100  34.919  39.945  11.593
62771W        W31101  31.976  13.187  12.522
62772W        W31102   1.341   2.770  14.432
62773W        W31103   1.440  24.020  11.088
62774W        W31104  38.003   3.419   5.273
62775W        W31105  10.383  22.017  14.430
62776W        W31106  44.769  16.167  10.512
62777W        W31107   4.230   8.349   0.416
62778W        W31108  37.056  21.166   1.221
62779W        W31109   1.862  20.531   0.407
62780W        W31110  34.978  27.669   2.329
62781W        W31111  43.885  33.092   4.270
62782W        W31112  27.490  23.141  12.838
62783W        W31113   5.364  14.238  14.499
62784W        W31114  36.997   4.919   3.248
62785W        W31115  14.325  25.017  13.953
62786W        W31116  15.585  24.037   3.244
62787W        W31117   8.804  36.963  13.427
62788W        W31118  42.822   4.888  13.380
62789W        W31119  29.569  42.959   3.346
62790W        W31120   2.912  33.397  14.445
62791W        W31121   2.472  15.131  14.028
62792W        W31122  44.271  29.474   2.878
62793W        W31123   7.312  10.646  10.564
62794W        W31124  26.081  41.915  13.355
62795W        W31125  10.722  39.053  11.995
62796W        W31126  25.138  17.220   2.840
62797W        W31127  31.499  15.645  14.514
62798W        W31128   8.788   7.736  10.479
62799W        W31129  37.020  15.802  14.428
62800W        W31130   2.858  43.377  14.284
62801W        W31131  31.479   9.734  14.418
62802W        W31132  27.184   0.983  11.530
62803W        W31133  23.132   2.844  11.435
62804W        W31134  23.592  20.190   3.157
62805W        W31135  35.958   9.366  11.064
62806W        W31136  26.670  20.181  14.280
62807W        W31137  34.607   9.305   4.793
62808W        W31138  44.379  32.417   0.792
62809W        W31139  35.109  13.299  12.510
62810W        W31140  32.914  35.452  12.069
62811W        W31141  36.968  33.072  14.029
62812W        W31142  32.984  37.832   2.358
62813W        W31143  14.333  16.083   1.753
62814W        W31144  42.843  24.121   2.326
62815W        W31145  18.595  12.753   0.459
62816W        W31146  18.769  40.959  11.459
62817W        W31147  38.052   6.388   9.487
62818W        W31148   8.177  14.285   0.829
62819W        W31149   6.208  15.154  14.927
62820W        W31150  44.975   9.161   0.424
62821W        W31151  13.333  42.401  10.573
62822W        W31152   1.439  12.636   2.729
62823W        W31153   9.323  12.684   1.887
62824W        W31154  42.344  25.626  10.578
62825W        W31155   9.837  42.829   4.342
62826W        W31156  31.537  32.616  10.898
62827W        W31157  25.996  13.794  10.570
62828W        W31158  26.975  19.534  12.578
62829W        W31159   4.795  39.019   3.351
62830W        W31160   5.317  32.604   4.703
62831W        W31161  16.244  11.362  14.867
62832W        W31162  35.550  36.912  14.956
62833W        W31163  41.010  12.672  10.404
62834W        W31164  39.338  31.938  14.906
62835W        W31165  22.662  15.734   9.957
62836W        W31166  33.002  44.001  13.413
62837W        W31167  26.475  21.120  13.970
62838W        W31168  34.611   7.191   0.771
62839W        W31169  24.582   8.175  14.968
62840W        W31170  38.384  36.873   1.287
62841W        W31171  33.479  22.548   0.849
62842W        W31172  14.715  13.816   1.707
62843W        W31173  34.980  16.631  11.912
62844W        W31174   1.866  11.638   3.319
62845W        W31175  12.297  15.244   2.227
62846W        W31176  22.121  42.324   4.815
62847W        W31177  18.631  10.351   0.350
62848W        W31178  24.639  40.482  12.909
62849W        W31179  40.547  37.355  10.030
62850W        W31180  10.793   6.277   3.185
62851W        W31181  36.881   3.907  14.872
62852W        W31182  40.319  21.088  13.470
62853W        W31183  23.023  11.287   4.121
62854W        W31184  33.492  22.251  14.997
62855W        W31185   8.683  33.061  14.503
62856W        W31186  28.992   3.350  11.535
62857W        W31187  16.079  30.638  12.846
62858W        W31188   9.264   5.757   2.262
62859W        W31189   1.348  40.823  13.992
62860W        W31190  35.365  44.768   3.648
62861W        W31191  34.591  24.628  12.948
62862W        W31192  17.205  10.680  13.438
62863W        W31193  39.453   5.231   1.906
62864W        W31194  23.209  37.577  11.413
62865W        W31195  30.946  27.172   0.735
62866W        W31196  28.070  42.391  12.087
62867W        W31197   6.776  35.040  13.503
62868W        W31198  18.058  36.398  11.896
62869W        W31199  44.337  13.666   0.287
62870W        W31200  11.684  33.958   2.295
62871W        W31201   4.261  35.421  14.312
62872W        W31202  43.822  33.972   2.850
62873W        W31203  40.032  40.901   2.265
62874W        W31204  41.362  15.629  12.465
62875W        W31205  34.430  38.375  14.950
62876W        W31206   7.362  20.207   0.853
62877W        W31207   8.879  21.037  10.905
62878W        W31208  21.112  25.178  10.918
62879W        W31209  28.481  20.237   3.372
62880W        W31210  16.647   9.884  12.055
62881W        W31211  14.109   6.873  14.281
62882W        W31212  41.918   8.168  12.957
62883W        W31213   4.435  40.387   3.175
62884W        W31214  34.552   8.161  12.375
62885W        W31215  25.469  42.477  14.915
62886W        W31216  42.441  30.558  12.005
62887W        W31217  36.363  21.668   3.280
62888W        W31218  13.220  30.038   1.800
62889W        W31219  12.744  38.547  11.857
62890W        W31220  26.155  28.058  13.342
62891W        W31221  29.599  26.686  11.438
62892W        W31222  25.082  35.459  11.551
62893W        W31223  42.845  31.980   1.363
62894W        W31224  25.647  28.506   3.850
62895W        W31225  12.732   0.477   2.178
62896W        W31226  27.542  39.378  11.447
62897W        W31227  44.871  13.181  10.496
62898W        W31228  33.934  34.430   3.650
62899W        W31229  40.315  36.065  10.992
62900W        W31230   3.895  15.322  11.057
62901W        W31231  24.644  29.991  12.923
62902W        W31232  17.701  17.670  14.976
62903W        W31233  20.748   6.234  12.554
62904W        W31234   9.760  34.927  10.574
62905W        W31235  19.664  33.515  14.773
62906W        W31236  29.545  39.335  13.861
62907W        W31237  12.815  11.307   4.185
62908W        W31238  11.685  31.967   2.347
62909W        W31239   4.855  29.084  10.430
62910W        W31240  30.019  11.687  10.926
62911W        W31241  35.578   9.738   3.197
62912W        W31242  38.863  42.828  11.568
62913W        W31243  16.662  31.585  11.861
62914W        W31244  10.698  24.712   1.791
62915W        W31245  22.112   7.767   3.646
62916W        W31246  27.186  17.218   2.275
62917W        W31247  36.447  15.750   4.169
62918W        W31248  26.057   9.249   4.114
62919W        W31249  21.091  20.618  14.407
62920W        W31250   4.228  21.187  13.926
62921W        W31251  13.273  32.629  10.436
62922W        W31252  22.240  31.923  12.826
62923W        W31253  42.309  17.582   0.753
62924W        W31254  10.172   5.337  11.994
62925W        W31255  19.704  42.436   0.275
62926W        W31256   0.286  28.042   2.216
62927W        W31257  28.644   5.390   0.831
62928W        W31258   0.252  25.087   3.187
62929W        W31259  10.829   6.263  12.018
62930W        W31260  37.573  43.822  13.368
62931W        W31261  41.340   7.912  13.894
62932W        W31262  22.085  19.673  13.972
62933W        W31263  32.451   5.693  14.315
62934W        W31264  18.159   7.308   0.470
62935W        W31265  33.504  40.914   2.280
62936W        W31266   9.265  28.006   3.149
62937W        W31267  37.015  32.022  10.619
62938W        W31268   9.289  43.778   1.907
62939W        W31269  34.117  21.108   2.397
62940W        W31270  33.064   3.381   2.686
62941W        W31271  39.916  17.171   1.211
62942W        W31272  42.289  44.820   3.638
62943W        W31273   5.815  16.284  12.414
62944W        W31274  36.909  13.132   1.245
62945W        W31275  21.533  34.905   4.823
62946W        W31276  41.420  41.380  14.759
62947W        W31277  27.556   7.775   3.380
62948W        W31278  18.111   5.933   4.118
62949W        W31279   6.308  36.452   1.794
62950W        W31280  22.022  39.867  11.981
62951W        W31281   0.312  25.665  14.288
62952W        W31282  16.316  39.364  13.005
62953W        W31283  40.020  44.872  11.958
62954W        W31284  33.616  15.629  13.060
62955W        W31285  31.104  20.199  13.825
62956W        W31286   6.287  28.147  13.918
62957W        W31287  38.444  40.413  12.031
62958W        W31288  24.667  39.054   4.794
62959W        W31289  37.478   4.908   1.218
62960W        W31290  28.141  27.658   4.639
62961W        W31291  23.607  44.917   0.936
62962W        W31292  42.400   5.237   1.805
62963W        W31293  42.421  41.533  11.458
62964W        W31294   2.395  44.377  12.900
62965W        W31295  21.144  17.172  13.804
62966W        W31296  33.401  12.294   2.418
62967W        W31297  28.460   0.447  14.823
62968W        W31298   1.405  29.623  11.976
62969W        W31299   1.463  12.150   0.295
62970W        W31300   9.395   7.293  13.039
62971W        W31301   6.221   0.355   4.131
62972W        W31302   8.360  33.477   2.311
62973W        W31303  37.059  15.822  12.037
62974W        W31304  35.551   6.744   1.377
62975W        W31305  31.084  10.315  10.553
62976W        W31306  41.861  37.894  14.873
62977W        W31307  38.490  22.180   4.151
62978W        W31308  19.555  43.847   1.268
62979W        W31309  25.034  38.917  10.436
62980W        W31310  24.156  37.429  10.071
62981W        W31311   4.214  15.815  12.995
62982W        W31312   1.734  24.035   0.960
62983W        W31313  18.789  16.706  12.026
62984W        W31314   5.260   8.254  13.903
62985W        W31315   5.436  18.666  14.886
62986W        W31316  16.797  33.460   2.676
62987W        W31317  16.617  13.134  11.445
62988W        W31318  29.439  27.527  12.402
62989W        W31319  22.227  11.163   3.308
62990W        W31320   9.817  27.690   1.248
62991W        W31321   9.820   8.803  12.075
62992W        W31322   4.895  43.271   0.793
62993W        W31323  18.187  44.754   2.672
62994W        W31324  17.660   9.172   2.702
62995W        W31325   7.410   8.749   4.175
62996W        W31326  19.759  15.272  13.025
62997W        W31327  24.146  23.666  12.464
62998W        W31328  33.020  31.502   1.352
62999W        W31329  19.538  12.182   3.645
63000W        W31330  26.136  18.589   0.327
63001W        W31331  26.468  31.574   1.719
63002W        W31332  31.578  23.200   1.886
63003W        W31333  26.556  26.208   1.340
63004W        W31334  30.148  44.420   0.471
63005W        W31335   7.277  21.100  12.479
63006W        W31336   3.838  18.128  11.887
63007W        W31337  19.127  12.832  12.401
63008W        W31338  17.669  30.518  10.923
63009W        W31339  18.550   4.257   1.291
63010W        W31340  24.105  21.091  12.397
63011W        W31341  39.058  39.456   0.394
63012W        W31342  11.243  34.929   2.741
63013W        W31343  11.201  13.117   4.813
63014W        W31344  10.751   8.316  14.417
63015W        W31345  41.805  18.790  14.917
63016W        W31346  26.983  26.605  12.021
63017W        W31347   7.800  27.607  13.406
63018W        W31348  16.734  33.031   4.708
63019W        W31349  33.614   1.767  10.436
63020W        W31350   6.202  34.867  10.432
63021W        W31351  29.492   0.842  14.956
63022W        W31352   4.853   3.360   2.410
63023W        W31353  21.642   6.905  13.010
63024W        W31354   4.211  35.969   5.231
63025W        W31355  42.517  31.442   3.215
63026W        W31356  15.820  13.639  10.480
63027W        W31357  22.060  24.535  11.573
63028W        W31358  13.813  16.134  14.460
63029W        W31359  18.209  28.630   2.269
63030W        W31360  21.047  28.658   4.837
63031W        W31361   5.884  39.845   0.408
63032W        W31362  37.894  12.655   1.751
63033W        W31363  30.093  15.655  14.391
63034W        W31364  14.663   2.309   1.804
63035W        W31365  18.200  23.530   2.873
63036W        W31366  17.100  37.397  11.004
63037W        W31367  30.109  43.982   1.825
63038W        W31368  14.734  20.247  14.774
63039W        W31369  43.921   2.741   4.241
63040W        W31370  35.412  15.121  13.990
63041W        W31371   6.727   5.925   1.871
63042W        W31372  32.108  29.640   0.852
63043W        W31373   2.778  37.070   1.876
63044W        W31374  43.399   2.410   4.650
63045W        W31375  34.496  43.845  10.640
63046W        W31376  19.536  38.992   5.174
63047W        W31377   9.165   2.371  10.539
63048W        W31378  12.314  28.127   1.354
63049W        W31379   1.421  18.237   2.719
63050W        W31380  38.428  27.165  13.801
63051W        W31381  14.690   1.932  10.494
63052W        W31382  24.101  15.684  10.548
63053W        W31383  38.871   1.863   2.268
63054W        W31384  25.698  33.047   3.758
63055W        W31385  11.305  20.746  11.890
63056W        W31386  42.402   1.781  13.529
63057W        W31387  15.793  19.652  11.056
63058W        W31388  34.868  44.494   1.751
63059W        W31389   4.238  11.186  13.010
63060W        W31390  25.209  17.250   3.762
63061W        W31391  25.650  17.252   0.360
63062W        W31392   8.369   1.263   1.444
63063W        W31393  29.499  41.034   4.637
63064W        W31394   3.902  41.423  10.535
63065W        W31395  12.735  10.873   1.322
63066W        W31396  36.010   4.215   3.782
63067W        W31397  11.291   4.814  14.893
63068W        W31398  39.811  31.947   1.752
63069W        W31399  22.674  37.005   2.786
63070W        W31400  37.345  31.560  13.379
63071W        W31401  18.237  27.144   4.694
63072W        W31402  27.692  15.815  13.441
63073W        W31403  31.518  17.706   3.200
63074W        W31404  22.563  28.049   2.368
63075W        W31405  25.190  11.361   4.836
63076W        W31406   0.773  20.618   1.374
63077W        W31407  10.750  17.674  13.384
63078W        W31408  10.717  12.828   1.895
63079W        W31409  18.084   4.747  11.400
63080W        W31410  41.471  15.209  14.872
63081W        W31411   2.246   8.308  13.367
63082W        W31412  20.111  24.012   0.727
63083W        W31413  22.504   0.362  10.562
63084W        W31414  15.633   7.250  10.496
63085W        W31415  20.681  34.998   2.236
63086W        W31416  18.210  20.627   2.809
63087W        W31417  26.085   6.839   3.267
63088W        W31418  34.085  16.749  12.344
63089W        W31419  35.422  29.082   3.757
63090W        W31420  34.982  27.671  14.008
63091W        W31421  26.476  37.467   4.117
63092W        W31422  20.752  42.981   0.474
63093W        W31423  42.009  43.853  11.542
63094W        W31424  33.441  39.025  14.875
63095W        W31425  18.292  35.516  14.986
63096W        W31426  29.511  35.891   1.782
63097W        W31427  32.072  39.448  11.855
63098W        W31428  17.792   1.371   3.672
63099W        W31429   0.907  41.014   4.350
63100W        W31430  20.719  39.053   2.780
63101W        W31431  41.823  24.152  12.912
63102W        W31432   9.820  25.202   0.339
63103W        W31433  33.538  19.150   0.769
63104W        W31434  19.066  12.360   4.235
63105W        W31435   9.699  28.170   4.346
63106W        W31436   7.222  29.162   2.861
63107W        W31437  12.806   1.325   3.682
63108W        W31438   7.734  19.688  11.103
63109W        W31439   0.929  20.263  11.438
63110W        W31440  33.481   2.838  14.468
63111W        W31441  22.019  40.881  11.891
63112W        W31442  36.890  22.512   2.274
63113W        W31443  39.052  12.784  11.021
63114W        W31444  31.643   8.889  14.427
63115W        W31445  34.536  31.526   3.261
63116W        W31446  32.033  43.423   4.306
63117W        W31447  32.071  38.933   4.344
63118W        W31448  16.765   2.447   2.724
63119W        W31449   2.801   3.913   2.845
63120W        W31450  16.303  12.854  12.021
63121W        W31451  39.326   7.179  10.048
63122W        W31452  20.567   5.245   2.774
63123W        W31453   7.273  42.836   0.442
63124W        W31454  32.445  34.970   0.816
63125W        W31455  32.136  17.663   4.247
63126W        W31456  41.383  36.046  12.988
63127W        W31457  34.532   9.311   3.654
63128W        W31458  40.924   4.704  14.403
63129W        W31459  44.947  28.529   1.764
63130W        W31460  28.999  18.560   2.249
63131W        W31461  42.917  12.613   1.768
63132W        W31462  26.581   5.255  12.386
63133W        W31463  20.137  34.873   4.193
63134W        W31464  34.944  26.500   4.653
63135W        W31465   0.922  21.211  11.884
63136W        W31466  44.368  23.165  13.362
63137W        W31467  44.983  30.103  12.410
63138W        W31468  42.962   6.876   2.685
63139W        W31469   0.324  44.991  13.480
63140W        W31470  43.404  41.528   1.358
63141W        W31471   2.747   7.354   3.734
63142W        W31472  20.058  15.777  13.924
63143W        W31473  40.969  18.227  14.839
63144W        W31474  33.612  41.907  13.396
63145W        W31475   9.763  23.720   4.614
63146W        W31476  19.771  34.967  14.496
63147W        W31477   4.383  25.636   1.351
63148W        W31478   8.839   6.774  10.939
63149W        W31479   9.388  42.877   2.335
63150W        W31480   0.854   6.856   3.263
63151W        W31481  21.086  11.689  14.866
63152W        W31482  19.624   6.817   2.181
63153W        W31483   2.830  11.747   4.748
63154W        W31484  36.952  31.414   2.712
63155W        W31485  15.107  16.292   4.150
63156W        W31486   6.693  21.583   3.206
63157W        W31487  30.061  43.967  10.406
63158W        W31488  14.233  11.625   1.751
63159W        W31489  31.019  34.087  13.988
63160W        W31490  35.075   8.200   1.302
63161W        W31491  32.937  36.441   4.201
63162W        W31492  15.161  15.788   2.701
63163W        W31493  17.224  32.045  10.538
63164W        W31494  10.244  29.514   1.448
63165W        W31495  23.206  11.625   1.392
63166W        W31496  30.434  12.791   0.329
63167W        W31497   5.320  31.961   1.850
63168W        W31498  28.544   7.705  11.957
63169W        W31499  40.847   8.165   9.637
63170W        W31500   1.943  12.310  11.999
63171W        W31501  14.668  10.740  11.048
63172W        W31502  31.039  37.835  11.546
63173W        W31503  44.823  40.038  10.604
63174W        W31504   4.207  10.647  11.935
63175W        W31505  23.511  11.698  11.504
63176W        W31506  42.426  43.413   2.197
63177W        W31507  37.998  33.545  14.885
63178W        W31508  38.841  20.127   3.769
63179W        W31509  13.260  38.954  11.491
63180W        W31510  22.044  22.542  14.838
63181W        W31511  27.995  35.515   3.302
63182W        W31512  32.044  12.254   0.892
63183W        W31513  44.467   6.789   2.286
63184W        W31514  30.580  31.536  14.343
63185W        W31515  18.159  22.571  14.768
63186W        W31516  41.795  34.969  11.080
63187W        W31517  18.748   6.692  11.423
63188W        W31518  42.476  26.524   2.871
63189W        W31519  13.755  38.871   2.367
63190W        W31520  38.010  29.941   2.681
63191W        W31521  22.735   0.341  14.503
63192W        W31522  36.485   7.294   5.244
63193W        W31523   3.445   1.973   4.326
63194W        W31524  17.141  43.824  12.457
63195W        W31525  13.334  24.042  13.805
63196W        W31526  39.000   0.289  11.417
63197W        W31527  19.076  29.538  14.979
63198W        W31528  16.645  21.241   1.319
63199W        W31529  25.196  12.348  13.936
63200W        W31530  43.321  38.007  12.842
63201W        W31531  11.666   0.767   0.294
63202W        W31532  33.958  27.629  13.993
63203W        W31533  38.433  41.406  13.920
63204W        W31534   1.282   0.297   4.672
63205W        W31535  15.090  28.005  13.804
63206W        W31536  28.981  23.044  11.115
63207W        W31537  15.255   0.825   3.716
63208W        W31538  28.632  16.790   0.444
63209W        W31539  41.432  18.261   0.393
63210W        W31540  20.646  16.677  11.964
63211W        W31541   5.355  14.811  11.484
63212W        W31542   4.263  36.054   1.756
63213W        W31543  39.813  36.458  10.597
63214W        W31544  21.188   8.166   0.812
63215W        W31545  10.345   4.853   4.807
63216W        W31546  35.081  18.691  10.506
63217W        W31547  27.024  15.240  14.793
63218W        W31548   7.381  42.928  12.846
63219W        W31549  18.741  26.138   2.722
63220W        W31550  13.789   7.174   0.299
63221W        W31551   6.900  30.116   0.479
63222W        W31552   3.217  40.455   4.731
63223W        W31553   9.283  35.886   2.887
63224W        W31554  17.555  13.138   0.824
63225W        W31555  42.791  28.603   0.468
63226W        W31556  37.950   0.320  12.952
63227W        W31557  41.948  17.100   3.277
63228W        W31558  24.081  38.882   4.319
63229W        W31559   6.744  44.394  14.296
63230W        W31560  28.945  43.462   0.478
63231W        W31561   9.727  28.180   0.738
63232W        W31562   3.399   1.893   4.835
63233W        W31563  33.429  26.009   3.765
63234W        W31564  34.099  10.154  11.453
63235W        W31565  18.619  39.382  11.052
63236W        W31566  31.120  28.006  13.908
63237W        W31567  40.032  23.545  14.378
63238W        W31568  23.709  34.961  11.994
63239W        W31569  26.026  32.975   3.656
63240W        W31570  10.169  28.565   1.256
63241W        W31571  31.975   8.854   3.716
63242W        W31572   0.385   9.877  12.923
63243W        W31573  31.565   5.875   3.866
63244W        W31574  18.591   4.888   1.823
63245W        W31575  29.578  30.414   5.158
63246W        W31576   0.435  42.325   2.833
63247W        W31577   8.811  20.181   0.448
63248W        W31578  14.790  41.486   9.968
63249W        W31579   2.953   1.465  11.425
63250W        W31580  30.051  36.436   0.891
63251W        W31581  20.268  23.999   4.229
63252W        W31582  43.380  34.001   4.615
63253W        W31583  17.155  18.657   2.732
63254W        W31584  22.592  19.759  14.759
63255W        W31585  30.002   1.394  13.407
63256W        W31586  41.330  31.528   0.298
63257W        W31587  19.601  41.379   3.644
63258W        W31588  28.149  39.950   1.253
63259W        W31589  43.387  39.954   0.927
63260W        W31590  20.077  27.110   1.843
63261W        W31591  41.033  28.980  10.426
63262W        W31592  23.109  19.619   4.707
63263W        W31593  17.661  12.696  12.891
63264W        W31594  28.060  26.643   1.430
63265W        W31595  16.139  26.008   3.778
63266W        W31596   8.335   6.787  13.475
63267W        W31597  37.495  13.106  10.938
63268W        W31598   6.715   9.690   1.439
63269W        W31599  33.879  12.659  14.503
63270W        W31600  15.692   7.274  11.565
63271W        W31601  20.246   3.767   1.251
63272W        W31602  33.556  34.082   2.304
63273W        W31603  18.124   8.251  11.958
63274W        W31604  14.596  23.530  13.485
63275W        W31605  17.743   4.237  11.128
63276W        W31606  13.787  23.725   2.221
63277W        W31607  44.959  17.633   4.195
63278W        W31608  39.052   8.345   9.464
63279W        W31609   7.364   0.812   1.914
63280W        W31610  14.723  37.858   3.659
63281W        W31611  19.120   6.687  12.925
63282W        W31612  29.570   0.482  12.911
63283W        W31613  11.762  40.032  14.813
63284W        W31614  44.892  14.599   2.671
63285W        W31615  10.633  32.077   1.738
63286W        W31616  10.824  26.546   2.867
63287W        W31617  17.626   3.274   1.222
63288W        W31618   9.887  31.032  13.825
63289W        W31619  31.538   7.729  11.036
63290W        W31620  25.606   3.343   1.838
63291W        W31621  17.734  22.631  14.344
63292W        W31622  34.508   4.362   0.818
63293W        W31623  20.082  15.110   2.698
63294W        W31624  37.841  32.501  11.905
63295W        W31625  41.955  21.109   4.659
63296W        W31626   9.332  43.385  11.509
63297W        W31627  29.170  21.069   0.857
63298W        W31628   2.447   4.315  10.977
63299W        W31629  33.454  38.860   9.986
63300W        W31630  13.793  30.920   2.418
63301W        W31631  30.917  34.907   5.209
63302W        W31632  24.144  38.937   4.722
63303W        W31633  38.891  41.790  14.954
63304W        W31634   5.689  10.647   0.841
63305W        W31635  36.086  28.439  11.504
63306W        W31636   9.730  16.808   3.194
63307W        W31637  11.329  16.665   1.398
63308W        W31638  31.000  26.097   0.360
63309W        W31639  13.112  22.625   2.307
63310W        W31640   0.832  14.169   2.890
63311W        W31641  39.912  13.693   3.829
63312W        W31642  37.977  10.733  10.914
63313W        W31643  26.970  11.239  11.021
63314W        W31644  38.922  12.227   1.406
63315W        W31645  30.478  37.024  11.900
63316W        W31646   7.221  31.570   2.763
63317W        W31647  18.207  44.314  13.013
63318W        W31648  38.928  22.136   3.262
63319W        W31649   7.709  30.970  14.345
63320W        W31650  28.446  13.226  14.941
63321W        W31651  35.476   1.436  14.016
63322W        W31652  17.204  25.559   2.326
63323W        W31653   4.248  23.209   0.845
63324W        W31654  11.770  42.840   0.963
63325W        W31655  20.594  14.236  11.559
63326W        W31656  14.801  33.504  13.829
63327W        W31657   7.192  43.283  11.940
63328W        W31658  10.168  33.501   1.259
63329W        W31659  41.524  27.497   1.905
63330W        W31660  12.228   3.903  11.016
63331W        W31661  40.336   6.742  11.544
63332W        W31662  41.315  35.986  14.313
63333W        W31663  16.222  37.937   5.686
63334W        W31664   2.273  37.577   0.431
63335W        W31665  11.837  26.970  10.600
63336W        W31666  18.277  26.160   4.179
63337W        W31667  12.667   7.859   4.631
63338W        W31668   3.272  10.842   0.846
63339W        W31669  17.120  18.250   0.285
63340W        W31670   7.383   0.315   2.830
63341W        W31671  24.137   1.473  10.973
63342W        W31672  36.504  11.641  10.892
63343W        W31673  44.806  36.891   3.648
63344W        W31674  33.984   4.286  12.465
63345W        W31675   2.453  17.705   2.207
63346W        W31676   8.847   0.825   2.809
63347W        W31677  26.485   9.658   4.784
63348W        W31678  12.639  44.862  13.344
63349W        W31679  13.767  16.181   2.685
63350W        W31680  17.798  14.209  11.891
63351W        W31681  37.839  24.052   1.332
63352W        W31682   9.207  41.013  10.903
63353W        W31683  41.387  42.859   4.725
63354W        W31684   4.769  39.339   0.779
63355W        W31685  28.134   4.806   0.312
63356W        W31686  23.038  37.842  12.894
63357W        W31687  41.830   6.320  12.040
63358W        W31688   2.459  39.528  11.076
63359W        W31689   3.857  39.442  12.499
63360W        W31690  23.120  36.863   2.845
63361W        W31691   5.293  16.623   0.808
63362W        W31692  25.055  25.594  13.895
63363W        W31693  39.939   5.274  12.026
63364W        W31694  17.099  33.999   4.189
63365W        W31695  41.485   8.670   1.269
63366W        W31696   8.895  31.151  14.787
63367W        W31697  42.328  24.106  10.936
63368W        W31698  33.393  20.273   2.785
63369W        W31699  35.949  21.589  11.577
63370W        W31700  21.748  42.513  11.415
63371W        W31701   2.800  35.949  10.900
63372W        W31702  38.926   7.356   4.666
63373W        W31703  22.607  37.938   2.318
63374W        W31704  39.915   6.258  11.855
63375W        W31705  11.165   3.846  12.054
63376W        W31706  26.477  41.322  13.385
63377W        W31707  23.020  23.099  14.473
63378W        W31708  36.490  24.516   1.907
63379W        W31709   8.721  28.065  10.550
63380W        W31710  12.119  22.248  11.464
63381W        W31711  39.503  16.302  14.431
63382W        W31712  28.968  19.254   0.328
63383W        W31713  26.125  38.330   4.184
63384W        W31714   5.309  44.358  13.859
63385W        W31715   8.269   7.809   2.224
63386W        W31716   3.772  13.668  14.814
63387W        W31717   5.738  38.381  13.517
63388W        W31718  41.416  15.211   1.889
63389W        W31719   6.688  40.817  12.551
63390W        W31720   5.210   2.794   2.758
63391W        W31721   1.359  26.634   2.880
63392W        W31722  19.550   5.771   2.748
63393W        W31723  29.972   7.711  12.902
63394W        W31724  33.432  20.168   0.965
63395W        W31725  34.614   4.930   0.934
63396W        W31726   9.703   1.745   1.275
63397W        W31727  19.259  13.163   2.358
63398W        W31728  44.958  34.610   4.822
63399W        W31729  24.598  30.098  11.544
63400W        W31730  36.447  29.443  12.005
63401W        W31731   0.789  10.790  12.851
63402W        W31732  35.076  43.828   0.816
63403W        W31733   9.850  26.673  13.356
63404W        W31734  19.585  29.576   0.793
63405W        W31735  27.007  32.443   3.210
63406W        W31736  35.885  27.454   3.738
63407W        W31737  10.814  32.929  11.449
63408W        W31738   4.792  44.822  13.839
63409W        W31739  35.597  12.332   1.731
63410W        W31740  13.624   2.356   4.152
63411W        W31741  24.084  25.599  12.494
63412W        W31742  16.221   5.788   0.827
63413W        W31743  17.617  14.667   2.258
63414W        W31744  29.011  14.798   1.276
63415W        W31745  32.906  28.981  12.866
63416W        W31746   5.832   5.335  11.401
63417W        W31747  22.022  37.393  13.510
63418W        W31748   6.405   9.284   4.820
63419W        W31749  20.114   0.846   2.784
63420W        W31750  34.470   0.349  12.942
63421W        W31751   1.739   4.272  11.023
63422W        W31752  42.786  12.326   3.810
63423W        W31753  42.322  15.186  14.022
63424W        W31754  16.133   4.269   1.769
63425W        W31755  32.002  24.696   0.800
63426W        W31756   6.907  29.932   1.388
63427W        W31757   6.699  44.352   1.346
63428W        W31758   4.762  12.207  14.908
63429W        W31759  35.914   9.750  13.872
63430W        W31760  30.536  15.169   2.345
63431W        W31761  36.905  10.341   1.933
63432W        W31762  31.048  37.857   2.673
63433W        W31763  23.500  13.723   2.685
63434W        W31764  39.538  12.776   3.787
63435W        W31765  30.585  17.577  13.922
63436W        W31766   8.838  21.614  13.520
63437W        W31767   0.813  43.902   4.265
63438W        W31768  41.502  23.673   1.734
63439W        W31769  10.698   1.834   4.180
63440W        W31770   7.278   9.151  13.465
63441W        W31771  18.703  10.174  10.466
63442W        W31772   7.781  40.981  12.872
63443W        W31773   5.305  18.561   2.291
63444W        W31774  22.235  32.543  11.461
63445W        W31775   0.311  17.566   0.957
63446W        W31776   1.444  26.038   1.405
63447W        W31777  31.060  19.734   4.647
63448W        W31778  33.392  21.045   2.398
63449W        W31779  38.853  22.563   2.678
63450W        W31780  34.457   8.682  14.467
63451W        W31781  28.514  32.019  14.346
63452W        W31782  25.033   6.336  10.414
63453W        W31783  39.053   1.245   4.611
63454W        W31784  31.045   3.833   3.630
63455W        W31785  15.643  37.061   1.841
63456W        W31786  39.418   0.432   4.254
63457W        W31787  17.207   3.857  13.956
63458W        W31788   4.782  35.878   5.573
63459W        W31789  37.988  21.097   2.369
63460W        W31790  40.890  30.562   3.367
63461W        W31791  33.499  39.918   4.244
63462W        W31792  39.337  38.029   0.423
63463W        W31793  13.282  32.897   0.283
63464W        W31794  24.481  44.449  14.969
63465W        W31795   4.299  16.189   4.348
63466W        W31796  16.684   4.830   0.467
63467W        W31797  38.553  13.616   0.905
63468W        W31798  15.711   1.841   4.189
63469W        W31799   2.776  31.150   4.811
63470W        W31800  39.521   4.908   3.238
63471W        W31801  29.587  11.221  10.580
63472W        W31802   1.976  36.030  11.038
63473W        W31803  36.531  17.256  12.962
63474W        W31804  18.169  23.647  12.851
63475W        W31805  37.038  18.618  12.838
63476W        W31806  22.556   2.779   0.277
63477W        W31807   2.854  36.993  12.085
63478W        W31808  13.708  35.523   5.636
63479W        W31809  24.640  17.246  12.438
63480W        W31810   1.385  44.259   0.257
63481W        W31811  32.123  18.176  10.120
63482W        W31812   6.902  21.136  11.436
63483W        W31813   4.886  25.545  12.968
63484W        W31814  30.621  29.597   4.800
63485W        W31815   2.727   3.228  14.781
63486W        W31816   8.664  34.955   1.308
63487W        W31817  41.475  12.344  12.983
63488W        W31818   1.749  17.152  14.306
63489W        W31819   7.831  33.510  10.952
63490W        W31820  10.371  30.020  10.464
63491W        W31821   7.728  38.498  14.847
63492W        W31822  43.343   3.444   2.749
63493W        W31823  23.140  38.550   0.284
63494W        W31824   7.892  20.570   3.862
63495W        W31825  22.083  18.053  14.432
63496W        W31826   7.401   8.309   1.288
63497W        W31827  36.556  11.282  13.494
63498W        W31828  17.741   7.239   0.464
63499W        W31829  44.787   8.768   1.929
63500W        W31830  20.068  41.854   2.671
63501W        W31831   6.697  31.039  13.338
63502W        W31832  16.772  21.730  10.539
63503W        W31833  33.937  29.080   3.730
63504W        W31834  10.833  34.453   4.166
63505W        W31835  11.743   4.219   3.744
63506W        W31836   6.834  28.012  14.397
63507W        W31837  29.437  10.289   2.206
63508W        W31838  12.615  19.263  11.427
63509W        W31839   6.709  28.681   4.300
63510W        W31840  40.868  34.468   3.820
63511W        W31841  14.774  33.934  11.992
63512W        W31842  41.020   1.747   4.163
63513W        W31843   9.169   8.340   2.727
63514W        W31844   2.422  25.494  13.945
63515W        W31845  42.025  17.101  14.932
63516W        W31846  26.041  14.828   1.401
63517W        W31847  32.610  15.683  12.833
63518W        W31848  12.819  12.736   4.133
63519W        W31849  43.514  20.526  11.410
63520W        W31850  26.518  28.095   0.848
63521W        W31851  20.750  19.603   4.635
63522W        W31852   4.752  16.298  13.309
63523W        W31853  26.527  25.138   3.744
63524W        W31854  23.235   3.220   0.421
63525W        W31855  18.235  19.768   0.739
63526W        W31856  12.167  24.562   1.874
63527W        W31857   2.772  10.706   1.320
63528W        W31858  35.521   5.688   0.316
63529W        W31859  34.971  35.966   1.384
63530W        W31860  34.005   7.371  14.282
63531W        W31861  22.245   9.659   2.339
63532W        W31862  41.851  32.908  14.923
63533W        W31863   2.298  42.824  10.643
63534W        W31864  29.620  18.084  11.465
63535W        W31865  20.174  18.232  11.418
63536W        W31866  12.791   6.263   3.759
63537W        W31867  18.704   1.769   4.773
63538W        W31868  20.626  12.317   0.918
63539W        W31869  35.898   2.925  14.867
63540W        W31870  44.794  27.098  12.887
63541W        W31871   9.674  34.934   0.760
63542W        W31872  19.675  25.550   4.653
63543W        W31873  21.139  28.441   4.135
63544W        W31874  42.832  38.343  12.521
63545W        W31875   9.335  27.120  12.554
63546W        W31876  26.512  24.991   1.922
63547W        W31877  38.010  21.124  13.026
63548W        W31878  24.078  33.937   0.267
63549W        W31879  38.831  18.787  12.354
63550W        W31880  40.901  18.546   1.913
63551W        W31881  39.838  23.096   3.357
63552W        W31882  14.741  14.830   4.210
63553W        W31883  15.806  36.993  10.562
63554W        W31884  19.140  29.602   9.547
63555W        W31885  26.614  30.453  11.005
63556W        W31886  34.057   9.273  14.884
63557W        W31887   7.670  17.663   3.802
63558W        W31888  11.841   6.345   1.890
63559W        W31889   1.754  25.682  12.891
63560W        W31890  15.264  44.430  10.064
63561W        W31891  32.455  12.661  13.058
63562W        W31892  24.564  38.469  12.041
63563W        W31893  26.039  22.674  13.331
63564W        W31894  34.550  22.714   3.193
63565W        W31895  29.500  18.692  11.558
63566W        W31896   1.929  33.514  14.303
63567W        W31897   6.698   3.904   1.872
63568W        W31898   8.278  41.011   3.161
63569W        W31899   8.174   0.488  12.976
63570W        W31900  43.957   3.774   3.772
63571W        W31901  40.317  17.585  12.379
63572W        W31902  33.070  32.915   4.681
63573W        W31903  40.463  36.857  13.860
63574W        W31904  31.452   6.782   1.825
63575W        W31905  42.986  28.090  14.009
63576W        W31906  38.972   5.275  14.823
63577W        W31907   5.710   7.365  12.390
63578W        W31908   8.346  22.042   3.664
63579W        W31909   5.338  24.190  14.944
63580W        W31910  41.422   4.392   4.197
63581W        W31911  36.399  13.255  10.565
63582W        W31912  36.552   0.342   2.363
63583W        W31913   5.888  36.048   2.328
63584W        W31914  35.387  25.203   0.776
63585W        W31915  40.460  19.221   2.253
63586W        W31916  16.187  19.061  11.863
63587W        W31917  30.009  32.980  12.024
63588W        W31918  32.895  21.724  11.414
63589W        W31919  24.138  40.452   3.645
63590W        W31920  12.771  40.333   0.406
63591W        W31921  11.688  27.143   1.799
63592W        W31922  39.392   0.776   1.831
63593W        W31923  22.696   3.314  13.020
63594W        W31924  27.003  31.036  14.797
63595W        W31925  16.128   9.863  11.940
63596W        W31926  44.799  12.676  13.351
63597W        W31927  41.918  11.201   3.299
63598W        W31928  23.206  17.678   9.998
63599W        W31929  44.404   3.234   2.684
63600W        W31930  42.456  21.058  12.925
63601W        W31931  17.713  39.029   3.325
63602W        W31932  30.462  37.398   1.705
63603W        W31933  44.383  29.596  14.380
63604W        W31934  27.549   8.213  11.429
63605W        W31935  22.549  42.403  14.336
63606W        W31936  36.367  14.287  13.376
63607W        W31937  28.164  39.415   2.819
63608W        W31938  29.950  32.071  13.307
63609W        W31939  15.691  13.113  14.372
63610W        W31940   4.783  34.920  13.844
63611W        W31941  12.811  12.360  14.411
63612W        W31942   1.886  23.653   0.887
63613W        W31943  13.762  28.643   3.845
63614W        W31944  30.937  35.992  13.970
63615W        W31945  10.776  23.641   3.246
63616W        W31946  25.164   7.908   2.858
63617W        W31947  17.205  30.100  10.989
63618W        W31948  13.644  17.592   2.178
63619W        W31949  23.190   0.849   2.862
63620W        W31950  38.927  32.502  12.423
63621W        W31951  43.860  12.788  13.826
63622W        W31952   5.329  37.395   4.305
63623W        W31953  28.163  44.942   1.810
63624W        W31954   6.211  35.403   2.734
63625W        W31955  38.912  27.063   3.374
63626W        W31956   5.854  24.997   3.700
63627W        W31957   0.475   3.433  14.955
63628W        W31958   5.372  22.092  11.886
63629W        W31959  12.157  23.587  13.978
63630W        W31960  24.639  35.997   2.194
63631W        W31961  10.168  37.919  13.485
63632W        W31962  28.538  19.775  10.501
63633W        W31963  12.811  36.476  10.963
63634W        W31964  35.450  13.112  13.034
63635W        W31965   9.188   2.352  12.921
63636W        W31966   1.452   8.226   4.120
63637W        W31967   6.246   4.847   3.656
63638W        W31968   4.320  29.430   4.246
63639W        W31969  24.120   0.460   1.427
63640W        W31970  19.537  24.724   0.896
63641W        W31971  27.662  40.308  13.385
63642W        W31972   1.307  38.977   0.881
63643W        W31973  42.298  36.910  11.937
63644W        W31974  22.665  22.580   3.181
63645W        W31975  38.998  32.088   5.155
63646W        W31976   6.348  12.842   5.272
63647W        W31977  41.325  16.188   3.323
63648W        W31978  11.629  44.910   2.179
63649W        W31979  10.714  18.556  12.018
63650W        W31980   0.894  28.525  13.544
63651W        W31981  31.985  12.325   4.227
63652W        W31982  10.876  29.548   1.283
63653W        W31983  44.875  30.944   4.666
63654W        W31984  19.598  10.375   1.228
63655W        W31985  15.823  12.710   2.715
63656W        W31986  26.531  12.330   5.700
63657W        W31987   9.342  36.574   0.858
63658W        W31988  26.039  14.650  11.444
63659W        W31989  31.979  22.632  13.436
63660W        W31990   6.273  37.447   3.636
63661W        W31991   3.398   2.947   3.690
63662W        W31992  14.185   3.395   0.291
63663W        W31993  27.103  25.519   0.286
63664W        W31994  23.039  11.220   3.795
63665W        W31995  18.123   6.416  14.384
63666W        W31996   9.780  20.701  10.508
63667W        W31997  17.782   9.717   1.405
63668W        W31998  38.520   7.704  12.555
63669W        W31999  31.550   3.317   4.799
63670W        W32000   4.369  44.911  14.300
63671W        W32001  26.190  10.790   3.732
63672W        W32002  40.498  14.680  13.411
63673W        W32003  31.086  32.911  13.478
63674W        W32004  32.390  42.898   3.799
63675W        W32005  43.776  18.587   2.698
63676W        W32006  20.681  36.562  11.430
63677W        W32007  24.016  31.427  12.946
63678W        W32008  32.045   2.884   1.210
63679W        W32009  27.635  28.495   0.880
63680W        W32010  42.942  42.998   1.845
63681W        W32011  34.507  16.310   1.299
63682W        W32012  22.604   1.249  10.420
63683W        W32013   6.408   7.860  14.461
63684W        W32014   1.948  17.670  14.438
63685W        W32015   1.804   6.295  11.469
63686W        W32016  43.322  26.464  13.900
63687W        W32017  43.831  21.642  11.047
63688W        W32018  27.666   4.699   0.800
63689W        W32019  31.593   2.271  14.465
63690W        W32020   6.837  23.496   3.736
63691W        W32021  28.076  19.068   4.265
63692W        W32022  29.565  30.597  13.040
63693W        W32023   0.303  18.613  14.479
63694W        W32024  20.600  19.702   0.346
63695W        W32025  11.630  11.275  10.956
63696W        W32026  24.081  11.636   1.337
63697W        W32027  30.972   5.310   3.747
63698W        W32028  28.038  27.181  10.996
63699W        W32029  23.099   3.745  11.389
63700W        W32030  14.221  26.200  10.947
63701W        W32031  28.057  38.467   4.788
63702W        W32032  30.555  24.668   4.808
63703W        W32033   5.353  35.022  10.023
63704W        W32034  28.998  32.108   4.167
63705W        W32035  14.162   1.847   2.293
63706W        W32036  30.137   9.836   1.921
63707W        W32037   2.404  15.119  10.431
63708W        W32038   2.406   6.415  14.811
63709W        W32039  32.977   0.318   3.376
63710W        W32040  30.088  13.704  14.971
63711W        W32041   8.356  35.885   2.688
63712W        W32042  43.328  32.520  11.087
63713W        W32043  19.107  19.702  14.850
63714W        W32044  20.730  22.679  12.977
63715W        W32045   0.912   7.842   0.783
63716W        W32046  31.478  36.914  13.876
63717W        W32047  44.395   0.292  12.407
63718W        W32048  40.542  44.854   0.807
63719W        W32049  24.051  12.125   2.387
63720W        W32050  23.528  31.575   1.427
63721W        W32051  18.571  31.993   2.234
63722W        W32052  18.671  19.674  12.030
63723W        W32053  30.479  36.491   4.630
63724W        W32054  42.459  32.009   4.653
63725W        W32055  32.934  30.435  13.497
63726W        W32056   7.851  34.065   4.671
63727W        W32057  37.499   5.209  12.522
63728W        W32058  18.247  22.566   4.146
63729W        W32059  17.068  23.570   3.757
63730W        W32060   8.252  11.776   2.793
63731W        W32061  29.001  42.452  13.883
63732W        W32062  25.154   1.957  12.847
63733W        W32063  10.823  35.600  13.870
63734W        W32064   0.424   2.349   4.277
63735W        W32065  16.760   6.828  12.008
63736W        W32066  41.001   7.823  14.901
63737W        W32067  42.332  18.064  14.908
63738W        W32068  14.224  23.599  13.512
63739W        W32069  33.995  27.635  12.834
63740W        W32070  28.061  44.331   1.260
63741W        W32071  36.581  18.066   9.933
63742W        W32072  44.268  11.740  11.436
63743W        W32073  11.830   3.727  13.913
63744W        W32074   0.789  36.846   2.824
63745W        W32075  10.341  35.108  12.948
63746W        W32076   5.786  29.098  13.393
63747W        W32077   2.265   7.211  11.962
63748W        W32078  28.043  40.807   4.135
63749W        W32079  41.017   3.906   0.299
63750W        W32080  43.930  23.630  12.857
63751W        W32081   9.159  23.121   2.729
63752W        W32082  19.090  22.739  12.502
63753W        W32083  14.710  27.478   2.691
63754W        W32084  25.583  18.107   1.273
63755W        W32085  34.544  15.733   0.331
63756W        W32086  44.361  27.943   1.286
63757W        W32087  28.978   7.906   3.870
63758W        W32088  22.702  10.310   0.477
63759W        W32089  31.898  27.996   2.263
63760W        W32090  22.182   6.704  14.321
63761W        W32091  29.065   4.809  11.940
63762W        W32092  13.716  24.209   0.308
63763W        W32093   2.309  35.503  12.916
63764W        W32094  16.175  21.578   4.293
63765W        W32095  15.126  44.406  12.031
63766W        W32096   1.906  23.125   4.819
63767W        W32097  23.489  35.892  11.945
63768W        W32098   5.415  30.418   0.729
63769W        W32099   5.725  16.118  13.421
63770W        W32100   8.793  16.616  14.406
63771W        W32101  40.043   7.910  10.043
63772W        W32102  15.807  13.789  11.112
63773W        W32103  24.620  38.358  10.616
63774W        W32104  30.547  13.320  12.050
63775W        W32105  20.624  24.074  11.417
63776W        W32106   5.843  22.058   1.739
63777W        W32107  19.092   1.902  10.406
63778W        W32108   5.744  38.015   4.318
63779W        W32109  43.881   4.859  14.011
63780W        W32110   1.876  18.056   1.271
63781W        W32111  43.997   3.327   1.746
63782W        W32112  41.980  13.343   1.270
63783W        W32113   1.286  14.293  14.842
63784W        W32114  37.020  24.601   2.844
63785W        W32115  31.027   1.824  14.018
63786W        W32116  33.989  36.514   4.172
63787W        W32117  30.031   0.258  14.511
63788W        W32118  20.231  22.098  13.353
63789W        W32119   7.330   2.796  13.981
63790W        W32120   1.974  38.842   4.256
63791W        W32121  40.371  17.216  14.402
63792W        W32122  34.557  42.315  12.460
63793W        W32123  12.186   2.793  14.453
63794W        W32124  24.642  40.911   0.775
63795W        W32125   9.165   0.251   0.899
63796W        W32126  43.790  19.550   2.706
63797W        W32127  38.927  19.276   0.405
63798W        W32128  29.959  12.784   2.190
63799W        W32129  27.526  32.084   5.258
63800W        W32130  28.967  25.708  14.973
63801W        W32131  24.215  26.083  13.475
63802W        W32132  26.567  27.104   3.737
63803W        W32133  37.493   1.299  12.987
63804W        W32134  24.074  43.925   0.319
63805W        W32135  33.499  14.589   2.388
63806W        W32136   0.922   3.412   4.637
63807W        W32137  31.607  43.487  14.812
63808W        W32138  29.963  28.647   0.263
63809W        W32139  27.590  25.572  11.043
63810W        W32140  20.600  28.547   2.212
63811W        W32141  36.999  42.779   0.749
63812W        W32142  42.417  13.176   0.405
63813W        W32143  14.616  24.051   2.733
63814W        W32144  20.641  32.394   3.689
63815W        W32145  10.741  36.952   1.798
63816W        W32146  25.492  33.948   4.155
63817W        W32147  31.600  16.253   4.810
63818W        W32148  33.604   0.935  11.092
63819W        W32149   3.931  27.962   0.798
63820W        W32150  43.333  20.213   3.278
63821W        W32151  28.171  12.291   2.274
63822W        W32152  26.162  40.010   1.241
63823W        W32153  20.638   9.268   1.316
63824W        W32154  40.425   8.672  13.326
63825W        W32155  19.627  29.651   3.335
63826W        W32156  14.201  44.863  14.909
63827W        W32157  17.220  12.136   4.645
63828W        W32158  36.039  43.989  12.360
63829W        W32159   4.801   7.808  12.090
63830W        W32160  38.849  33.402   4.148
63831W        W32161   7.358   9.174   0.904
63832W        W32162   0.794   3.220  14.423
63833W        W32163   7.363   4.858   1.742
63834W        W32164  19.156  41.792   2.881
63835W        W32165  26.660  33.889   3.266
63836W        W32166  24.612  13.171   0.389
63837W        W32167  12.674   6.868   3.829
63838W        W32168  15.292  42.998   2.371
63839W        W32169   6.882  23.646   1.214
63840W        W32170  41.430   3.784  13.372
63841W        W32171  35.909  30.473  12.878
63842W        W32172  10.865  33.546  13.948
63843W        W32173  25.626   5.371  11.466
63844W        W32174  39.479  44.801  14.462
63845W        W32175  30.502  17.070  14.291
63846W        W32176  41.863  43.383   4.341
63847W        W32177  22.133   7.216   9.467
63848W        W32178   2.807  39.535  10.148
63849W        W32179   2.384   1.326  11.550
63850W        W32180  16.671  31.095  10.405
63851W        W32181  25.540  25.584   3.147
63852W        W32182  13.322   6.704   1.343
63853W        W32183  30.584   2.426  14.942
63854W        W32184  44.398  44.354  13.387
63855W        W32185  32.512   9.160   0.828
63856W        W32186  30.489  18.571  10.921
63857W        W32187  25.041  30.104   3.303
63858W        W32188  24.013   4.716   3.798
63859W        W32189   7.677   0.445  12.960
63860W        W32190  31.937  14.221   1.785
63861W        W32191  24.630  34.613   3.756
63862W        W32192  14.772  20.220  13.860
63863W        W32193  38.371   4.373  14.983
63864W        W32194  44.441  23.985  12.874
63865W        W32195   3.333  16.766   4.260
63866W        W32196  35.494  10.704  12.364
63867W        W32197  21.735  16.217   4.239
63868W        W32198  11.715   2.843  10.582
63869W        W32199  44.889   0.963  11.063
63870W        W32200   9.844  23.557   3.679
63871W        W32201  15.134  28.951  14.970
63872W        W32202   3.451   1.408  11.501
63873W        W32203  43.972  23.149  14.456
63874W        W32204  41.909   5.803  11.421
63875W        W32205  27.574  27.457   1.248
63876W        W32206  32.523  15.096  14.806
63877W        W32207  34.069   3.954  10.589
63878W        W32208  12.798  10.254  11.887
63879W        W32209   3.882   6.815   4.671
63880W        W32210  24.630  38.017   3.629
63881W        W32211  21.072  17.294   4.280
63882W        W32212  43.830   6.221   0.816
63883W        W32213  30.581  25.162  10.601
63884W        W32214   3.277  39.889   1.828
63885W        W32215  44.901  25.180   2.705
63886W        W32216   2.924   5.878  12.975
63887W        W32217   9.360  40.842   0.354
63888W        W32218  10.289   0.473   0.298
63889W        W32219   0.388  30.602   4.685
63890W        W32220  20.121   7.856  12.901
63891W        W32221  36.078   6.375   0.458
63892W        W32222  36.076  44.422  14.923
63893W        W32223   5.782  38.500   3.798
63894W        W32224  37.561  26.068   1.909
63895W        W32225  31.128  41.920   5.140
63896W        W32226   5.694  21.091   3.177
63897W        W32227  19.154  23.134   0.387
63898W        W32228   5.855   0.336  12.011
63899W        W32229   7.714  40.996  12.558
63900W        W32230   4.779  15.312   4.830
63901W        W32231  32.541  11.205  14.822
63902W        W32232  13.733  37.392  13.458
63903W        W32233   5.268   3.923  14.892
63904W        W32234  14.808  38.405   3.828
63905W        W32235  29.167  39.355   0.866
63906W        W32236  11.156  36.077  12.455
63907W        W32237   4.208  22.529   1.883
63908W        W32238  29.034  31.618   4.191
63909W        W32239   8.355  23.081  10.896
63910W        W32240  43.446  11.267   2.180
63911W        W32241  23.647  36.553   1.842
63912W        W32242  34.046  27.021   3.728
63913W        W32243  43.432   9.299  12.503
63914W        W32244  31.637  36.093  12.552
63915W        W32245   7.685  21.246  11.482
63916W        W32246   0.396  34.517  11.483
63917W        W32247   9.206   7.810   2.391
63918W        W32248  37.560  17.606   0.264
63919W        W32249  10.158  27.078   2.874
63920W        W32250  44.814  28.106  13.400
63921W        W32251  30.533  11.709   1.281
63922W        W32252   2.777  19.050  10.565
63923W        W32253   9.751  43.972   3.839
63924W        W32254  40.963  28.529   4.144
63925W        W32255  20.073  10.857  14.816
63926W        W32256  27.166   7.249   3.354
63927W        W32257  35.391  33.027   0.299
63928W        W32258  19.534  13.253   2.281
63929W        W32259  11.629  21.119  12.937
63930W        W32260   1.907  29.169  13.975
63931W        W32261  25.046  12.277  14.396
63932W        W32262  17.772  35.427  11.588
63933W        W32263  40.380  26.016  11.576
63934W        W32264  33.978  38.072  13.464
63935W        W32265  22.724   1.262  14.516
63936W        W32266  32.530   7.861  10.948
63937W        W32267  27.483  34.109  14.867
63938W        W32268  14.162   0.470   0.851
63939W        W32269  31.962   3.398   4.183
63940W        W32270  12.621   3.759  11.518
63941W        W32271   9.322  34.524   4.648
63942W        W32272  16.189  35.046   2.679
63943W        W32273  37.389  38.507  12.452
63944W        W32274   0.433  35.416  14.297
63945W        W32275  31.084   8.876   0.866
63946W        W32276  35.969  24.501   4.152
63947W        W32277  41.320  43.895  11.593
63948W        W32278  21.611  24.660  11.494
63949W        W32279   3.902   0.773  12.497
63950W        W32280   3.386  14.672   0.883
63951W        W32281  11.825  42.348  13.381
63952W        W32282   0.301   0.968  11.033
63953W        W32283  38.436  24.577  11.877
63954W        W32284   8.894   3.823   0.826
63955W        W32285  35.857  35.903  11.586
63956W        W32286   8.361   4.338  10.895
63957W        W32287  33.446   9.706  14.879
63958W        W32288  30.511  34.555  11.403
63959W        W32289   6.821  13.807  14.398
63960W        W32290  32.048  33.120   1.714
63961W        W32291  32.541  35.516  11.053
63962W        W32292  21.653  12.819  13.412
63963W        W32293  39.432   8.784  12.840
63964W        W32294  21.258  16.282   2.866
63965W        W32295  11.268  36.580  13.035
63966W        W32296  34.023  23.583   0.444
63967W        W32297  23.712  27.028  12.553
63968W        W32298  10.288  32.902  10.105
63969W        W32299  42.309  23.624  14.304
63970W        W32300  23.151   9.888   5.718
63971W        W32301   3.246  43.446  13.451
63972W        W32302  11.157  39.348   0.397
63973W        W32303   7.856  33.978   2.373
63974W        W32304  18.250  28.443   1.412
63975W        W32305  29.048  19.561   4.354
63976W        W32306  25.486  38.478   2.738
63977W        W32307   9.730  33.382   3.310
63978W        W32308  18.590  31.587   4.676
63979W        W32309   5.337  33.007   4.243
63980W        W32310  13.239  36.389   1.333
63981W        W32311  24.153  39.040  10.640
63982W        W32312  12.774  40.376  10.959
63983W        W32313  38.882  36.920  14.361
63984W        W32314  33.981  24.172  13.525
63985W        W32315  22.676   7.244   0.785
63986W        W32316  26.977  20.597   4.185
63987W        W32317  36.541  29.174   1.333
63988W        W32318   1.913   1.269  10.568
63989W        W32319  41.294  27.053   0.325
63990W        W32320  11.328  15.136   3.286
63991W        W32321  31.594  27.537   3.334
63992W        W32322  36.433  16.168  14.012
63993W        W32323   6.241   5.328  11.941
63994W        W32324  23.046  44.353   0.918
63995W        W32325  13.149   3.225   3.256
63996W        W32326  38.077  33.584  11.592
63997W        W32327  21.172   0.475  12.836
63998W        W32328   0.467  21.550   0.429
63999W        W32329  25.100   8.891   4.237
64000W        W32330   9.386  33.387   4.113
64001W        W32331   8.257   0.427   2.744
64002W        W32332  17.075   5.362   2.232
64003W        W32333  28.464  28.158  10.628
64004W        W32334  37.972  16.269  12.524
64005W        W32335   1.873  19.065  12.004
64006W        W32336  28.947  29.488   2.256
64007W        W32337  27.481  35.409   2.201
64008W        W32338  36.917  12.127   3.168
64009W        W32339  23.530   0.333  10.510
64010W        W32340   8.340  42.976  14.837
64011W        W32341  20.649   7.271   2.324
64012W        W32342  39.558  34.448   1.426
64013W        W32343   1.327   8.690  13.854
64014W        W32344   0.869  22.592   3.362
64015W        W32345  24.973  13.131  12.907
64016W        W32346   6.799  42.809  12.870
64017W        W32347   5.695  37.993   2.792
64018W        W32348  10.697  37.004  13.443
64019W        W32349  18.581  17.591  12.855
64020W        W32350   9.393  25.543   4.350
64021W        W32351   8.296  25.026  12.968
64022W        W32352  35.099  25.687  12.903
64023W        W32353   7.778  39.905  14.774
64024W        W32354  18.582   4.756   2.227
64025W        W32355  26.606  40.975  12.910
64026W        W32356  16.235  43.369   3.857
64027W        W32357  44.434  44.269   0.303
64028W        W32358   8.752  25.041  14.323
64029W        W32359  34.909  28.151  10.114
64030W        W32360  21.072  15.136  12.828
64031W        W32361  26.656  19.616   2.214
64032W        W32362  15.754  26.065   0.807
64033W        W32363  39.902  23.527   2.237
64034W        W32364   7.743   3.902   2.815
64035W        W32365  24.480  35.099  14.508
64036W        W32366  17.240   4.744  13.408
64037W        W32367  18.617  44.852  11.979
64038W        W32368  25.532  27.043   1.873
64039W        W32369   7.686  38.325  11.422
64040W        W32370  19.569  21.126   2.812
64041W        W32371  11.848   1.837   0.429
64042W        W32372  44.311  42.340   3.814
64043W        W32373  20.060   7.713   9.921
64044W        W32374  38.494  17.099  14.976
64045W        W32375  30.535   7.879   2.317
64046W        W32376  16.181  11.628  12.921
64047W        W32377  39.473  20.029   1.756
64048W        W32378   5.849   1.898  11.451
64049W        W32379   0.326  19.217  12.573
64050W        W32380  20.068  16.244  12.859
64051W        W32381  28.973  43.482  12.377
64052W        W32382   1.875   7.390   1.359
64053W        W32383  27.164  21.125   3.332
64054W        W32384  27.099  14.633  11.883
64055W        W32385  18.246   9.324  13.833
64056W        W32386   7.323  42.961   3.850
64057W        W32387   2.920  13.714  12.460
64058W        W32388  23.162   5.212  12.395
64059W        W32389  39.899  12.649  11.105
64060W        W32390  35.368  36.428  13.808
64061W        W32391   2.962  19.227   2.736
64062W        W32392  12.635  26.702   2.305
64063W        W32393  33.120  11.831  11.507
64064W        W32394  27.137  12.697   2.406
64065W        W32395  23.142  14.641   2.865
64066W        W32396  12.850  28.530  12.085
64067W        W32397  35.939  25.548  10.977
64068W        W32398  12.309   3.742  13.346
64069W        W32399  23.052  41.330  14.416
64070W        W32400  28.503  39.423   1.393
64071W        W32401  38.498  43.407   0.281
64072W        W32402  26.524   5.343  13.867
64073W        W32403   8.704  26.463   2.349
64074W        W32404   7.251  33.570   0.756
64075W        W32405   1.446  19.620  14.765
64076W        W32406  35.420  15.227  12.490
64077W        W32407   9.327   0.959   1.236
64078W        W32408  14.833  20.094   4.699
64079W        W32409  15.787  35.875  14.839
64080W        W32410   3.347  41.812  14.025
64081W        W32411  41.979  36.990   3.816
64082W        W32412  40.813  28.438   2.187
64083W        W32413  31.107   4.241   2.792
64084W        W32414  25.536  29.136   3.315
64085W        W32415  40.864   7.752   2.692
64086W        W32416   4.303  30.007   2.718
64087W        W32417  39.314  13.742   2.249
64088W        W32418   9.775  32.528   4.732
64089W        W32419  20.208  22.038   3.642
64090W        W32420  24.196  42.818   5.305
64091W        W32421  42.810  30.116  11.954
64092W        W32422  34.492  15.648  14.277
64093W        W32423  11.717   6.735   2.734
64094W        W32424  42.342  44.948  12.515
64095W        W32425  28.562  10.739   1.880
64096W        W32426  42.987  43.488   0.299
64097W        W32427  21.639  40.379   1.838
64098W        W32428  15.145  16.209   2.313
64099W        W32429  37.944  19.197   1.931
64100W        W32430  16.269  29.158   4.338
64101W        W32431  36.548   7.353   2.890
64102W        W32432   1.867  18.145  14.901
64103W        W32433   1.920   9.862  10.577
64104W        W32434  39.481  26.952   4.827
64105W        W32435  20.659  16.194   2.696
64106W        W32436  42.002  11.847  14.415
64107W        W32437   8.400  11.139  12.061
64108W        W32438  24.011  43.513  10.554
64109W        W32439  23.112  30.010  12.433
64110W        W32440  20.198  40.977   0.322
64111W        W32441  16.110  34.485   2.209
64112W        W32442  34.966  20.554  13.433
64113W        W32443  37.541  12.191   1.829
64114W        W32444   8.393  21.140  11.083
64115W        W32445  33.413  14.636  12.514
64116W        W32446  34.607  29.653  13.819
64117W        W32447  35.533  29.575   3.196
64118W        W32448  23.504  14.712  10.634
64119W        W32449  17.170   7.761  10.514
64120W        W32450   8.253  13.176   1.254
64121W        W32451   4.424  21.511  13.804
64122W        W32452  19.148  14.238   0.472
64123W        W32453  10.252   9.798   0.278
64124W        W32454  22.144  26.606  11.950
64125W        W32455  43.785  14.303  10.919
64126W        W32456  31.095  19.145  14.381
64127W        W32457   6.765  29.048  11.093
64128W        W32458  43.461  23.575   2.692
64129W        W32459  36.877  15.601  12.340
64130W        W32460   6.350  24.527  10.520
64131W        W32461  34.593   6.292   3.743
64132W        W32462  29.535  37.011  13.800
64133W        W32463  43.443  37.390   4.756
64134W        W32464  21.062  35.984   3.733
64135W        W32465  12.168  43.806   4.799
64136W        W32466  19.214  39.347  13.312
64137W        W32467   7.254  27.607   4.618
64138W        W32468  25.113  24.594  10.567
64139W        W32469  35.077  37.059  13.898
64140W        W32470  24.061  37.504  10.508
64141W        W32471  37.878  27.598  12.971
64142W        W32472   7.353   0.983  14.405
64143W        W32473  33.388  20.268  14.488
64144W        W32474  10.302   0.398   4.623
64145W        W32475  41.357  26.055  13.022
64146W        W32476  29.439   4.323  12.926
64147W        W32477  14.101  42.892  14.512
64148W        W32478  37.088  35.447   0.395
64149W        W32479   8.333  42.458   4.208
64150W        W32480   9.208  44.946  11.605
64151W        W32481  20.556  44.368   4.830
64152W        W32482  37.389  20.612   4.812
64153W        W32483  43.347  21.244   4.622
64154W        W32484  42.395  41.442   0.872
64155W        W32485  36.353  24.654   0.426
64156W        W32486   9.253   4.235   0.905
64157W        W32487  28.016  13.711  13.030
64158W        W32488   5.362  32.483  11.599
64159W        W32489  36.519  40.390  10.583
64160W        W32490  38.539  13.194   0.382
64161W        W32491  17.767  32.915  12.065
64162W        W32492  40.933  12.187  14.355
64163W        W32493  30.927  43.001  12.341
64164W        W32494  42.311  35.382  14.849
64165W        W32495   2.937  26.522  13.791
64166W        W32496   1.756   5.716   0.727
64167W        W32497  32.108  25.711  13.506
64168W        W32498  25.187  31.007   1.403
64169W        W32499  13.814  22.009   1.372
64170W        W32500  26.524   9.249   2.696
64171W        W32501  36.036   1.896  13.524
64172W        W32502   5.421  42.464  12.995
64173W        W32503   2.429   0.846   2.355
64174W        W32504  22.607  23.094   0.872
64175W        W32505  34.403  38.822   3.830
64176W        W32506   8.205  42.791   1.397
64177W        W32507  18.643  43.002   2.326
64178W        W32508  36.875  34.473   3.243
64179W        W32509  11.205  40.867   4.232
64180W        W32510  43.809  14.641  13.950
64181W        W32511  23.676  31.000   3.777
64182W        W32512  23.588  10.668  13.522
64183W        W32513  13.128  22.239   2.752
64184W        W32514  13.755   5.850  12.842
64185W        W32515  23.040  15.106  13.880
64186W        W32516  41.388  44.281  14.785
64187W        W32517  43.830   5.913  12.019
64188W        W32518  29.497  11.858   4.340
64189W        W32519  22.012   4.856   1.234
64190W        W32520   4.232   0.291  11.607
64191W        W32521  25.584   8.228  12.076
64192W        W32522  36.463  23.023  12.484
64193W        W32523  23.688  35.964   2.765
64194W        W32524  20.271  32.449   4.744
64195W        W32525   8.180  16.107   3.175
64196W        W32526  25.689  35.036   2.219
64197W        W32527  39.535  12.176   1.720
64198W        W32528  28.008  19.265  10.502
64199W        W32529   5.435   9.854   3.220
64200W        W32530  37.412   0.977  11.590
64201W        W32531  35.866  21.036  14.886
64202W        W32532   9.863   2.457   3.230
64203W        W32533   4.792  12.786   1.876
64204W        W32534   3.949  16.701   3.184
64205W        W32535  17.217  11.207   0.766
64206W        W32536  11.235   5.826  12.418
64207W        W32537  23.533   7.258  12.042
64208W        W32538   0.888  26.563   0.866
64209W        W32539  20.608   2.751   0.315
64210W        W32540  33.980  44.868  14.500
64211W        W32541   3.280  33.032   2.812
64212W        W32542  38.392   4.914  14.780
64213W        W32543   8.309   7.767  14.907
64214W        W32544  28.055  37.483  10.134
64215W        W32545  32.469  18.692   2.722
64216W        W32546  41.035  34.988  14.886
64217W        W32547  22.609  23.114   2.678
64218W        W32548   3.420   4.321  14.887
64219W        W32549  37.841   3.851   1.266
64220W        W32550   1.250   2.328  13.388
64221W        W32551   3.282  22.191   4.194
64222W        W32552   9.784  10.374  14.955
64223W        W32553   5.212   4.240  12.351
64224W        W32554  34.068  17.269   0.875
64225W        W32555  17.678   1.430   1.708
64226W        W32556  38.893  31.487  12.850
64227W        W32557  43.378   5.907   2.217
64228W        W32558  25.118  33.541  11.001
64229W        W32559  43.869  44.963   1.245
64230W        W32560  38.043  18.295  10.617
64231W        W32561  31.925  12.271  14.389
64232W        W32562  12.655  35.543  11.886
64233W        W32563  29.094   6.263   0.315
64234W        W32564   2.786  29.568   1.902
64235W        W32565  25.546  34.097  11.021
64236W        W32566  35.932  35.538   1.775
64237W        W32567  40.964   4.386   2.732
64238W        W32568  33.472  44.334  10.452
64239W        W32569  42.437  11.829   3.210
64240W        W32570  26.562  41.823  14.829
64241W        W32571  14.167  35.421  14.340
64242W        W32572  35.099  44.011  12.971
64243W        W32573   9.311  20.072  11.440
64244W        W32574  38.482   6.372   2.251
64245W        W32575  37.926  13.630  13.409
64246W        W32576  27.941  18.554   1.360
64247W        W32577   8.741  43.821   2.232
64248W        W32578   5.303  35.039   3.869
64249W        W32579   9.824  15.747   3.847
64250W        W32580   9.366  31.451  13.316
64251W        W32581  24.536  44.888   1.400
64252W        W32582  17.800  39.417  11.405
64253W        W32583  21.036  23.601  12.463
64254W        W32584  29.112  31.048  13.912
64255W        W32585  22.037  31.526   2.763
64256W        W32586  44.380  38.050   1.342
64257W        W32587   6.373  27.946   0.279
64258W        W32588  30.543  32.412   1.710
64259W        W32589  23.492  39.054   4.156
64260W        W32590  43.313  11.182   4.726
64261W        W32591  43.013  35.088  14.995
64262W        W32592   4.441  11.682  12.479
64263W        W32593  27.166  12.325   4.137
64264W        W32594  34.013  18.598   2.240
64265W        W32595  18.617  13.602   4.609
64266W        W32596  18.133  33.005   3.760
64267W        W32597   4.826  35.905  10.507
64268W        W32598  10.226   2.887  14.799
64269W        W32599   6.770  34.381  13.423
64270W        W32600   7.343   5.370  12.866
64271W        W32601  26.619  42.423  14.785
64272W        W32602   8.178  20.060   2.704
64273W        W32603  31.018  32.070   3.348
64274W        W32604  33.887   1.285   2.345
64275W        W32605  35.924  23.713  11.575
64276W        W32606  41.303  35.953   0.373
64277W        W32607   7.306   8.751   1.316
64278W        W32608  31.443  37.455  13.896
64279W        W32609  23.226  43.016  10.913
64280W        W32610  28.972  11.308   1.317
64281W        W32611  19.535  11.260  13.815
64282W        W32612  23.691  29.968   2.409
64283W        W32613  11.348  22.169   2.283
64284W        W32614  33.525  13.841   3.156
64285W        W32615  17.575  23.154   4.318
64286W        W32616  39.389  31.465  12.531
64287W        W32617   2.896   4.407  10.479
64288W        W32618   1.874  33.006   0.816
64289W        W32619  40.306  23.195  13.950
64290W        W32620  33.535  38.074   1.251
64291W        W32621  13.684  38.397   0.484
64292W        W32622  12.733   8.698  11.084
64293W        W32623  34.979  10.152  11.397
64294W        W32624  44.877  15.241   0.909
64295W        W32625   1.240  24.068  10.563
64296W        W32626   3.740  38.543   4.654
64297W        W32627  13.163  22.058   4.273
64298W        W32628  30.609   1.887  13.359
64299W        W32629  13.616  25.662   3.666
64300W        W32630  25.709  28.023   2.866
64301W        W32631  27.147  23.056   4.720
64302W        W32632  10.635   3.331  14.768
64303W        W32633  10.205  28.151   1.770
64304W        W32634  35.515  18.135   2.249
64305W        W32635  38.325  14.787  10.891
64306W        W32636  16.684  25.072  13.887
64307W        W32637   5.347  27.498  10.438
64308W        W32638  44.312  41.843   4.661
64309W        W32639  31.041  44.260   4.679
64310W        W32640   2.794  18.777  14.488
64311W        W32641  39.460  41.414   0.814
64312W        W32642  23.612   8.703   4.800
64313W        W32643  16.808  28.450  13.805
64314W        W32644  39.351   0.947  14.979
64315W        W32645  38.399  27.170  12.942
64316W        W32646  18.727  30.456   2.900
64317W        W32647  40.324  35.051   1.285
64318W        W32648   1.892  36.506   4.142
64319W        W32649  16.183  14.731  11.972
64320W        W32650  24.594  20.061  13.940
64321W        W32651  44.294  30.627   4.682
64322W        W32652  15.685  20.230   3.297
64323W        W32653  34.532  28.662  13.904
64324W        W32654  11.192  41.823   3.215
64325W        W32655  14.098  28.619  14.290
64326W        W32656  36.854  12.612  10.939
64327W        W32657   6.262  16.786  12.034
64328W        W32658  24.020   4.806   5.295
64329W        W32659  43.330  28.486  13.501
64330W        W32660  36.556  24.208   4.310
64331W        W32661  37.908  18.184   4.351
64332W        W32662  27.477   8.345   1.806
64333W        W32663  40.031  27.098   0.871
64334W        W32664  10.860  16.159   0.934
64335W        W32665  37.942   1.459   4.212
64336W        W32666   7.254  28.446   1.856
64337W        W32667   5.256  22.510   2.279
64338W        W32668  38.934  25.017  13.365
64339W        W32669  34.496  29.457  13.431
64340W        W32670  34.956  34.019   4.214
64341W        W32671  37.835  42.478   4.773
64342W        W32672  23.083  26.165  13.502
64343W        W32673  28.471  12.746  12.566
64344W        W32674  42.454  24.522  11.478
64345W        W32675  28.083  26.669  13.334
64346W        W32676   1.474  40.832  14.881
64347W        W32677   4.778  29.586  14.500
64348W        W32678  31.908   2.302  10.530
64349W        W32679  41.444  27.185   4.825
64350W        W32680  15.726  11.174   1.915
64351W        W32681   3.906  43.467  13.381
64352W        W32682  26.106  29.436   3.702
64353W        W32683   1.829  16.609  14.946
64354W        W32684  16.165  16.201   0.944
64355W        W32685   5.232  15.784  10.505
64356W        W32686  21.160  29.606  14.425
64357W        W32687  35.595  28.067  14.816
64358W        W32688   9.367   9.651   3.764
64359W        W32689  39.919  34.074   0.475
64360W        W32690  43.466  37.031  12.894
64361W        W32691  40.355  39.399  10.495
64362W        W32692  39.814  33.402   4.262
64363W        W32693   7.890  26.579  13.830
64364W        W32694  27.152  41.488   1.220
64365W        W32695  24.980  30.510   4.829
64366W        W32696  44.358   9.203  13.036
64367W        W32697  19.718   9.888  12.080
64368W        W32698  38.453  40.877   1.792
64369W        W32699  16.079  36.393   3.725
64370W        W32700  29.945  32.517   4.217
64371W        W32701  32.450  25.110  12.925
64372W        W32702  42.991  16.151   1.238
64373W        W32703  15.212  15.692  13.367
64374W        W32704  30.588  10.158  12.496
64375W        W32705  23.545  15.786  11.972
64376W        W32706  26.998   2.756   1.916
64377W        W32707  38.486  28.149   1.809
64378W        W32708  38.963  15.742   3.866
64379W        W32709  12.659   6.878  12.541
64380W        W32710  20.752  16.795   1.873
64381W        W32711   1.483  17.285   4.773
64382W        W32712  23.614  28.542  14.024
64383W        W32713   9.225  31.647  11.593
64384W        W32714  16.661  15.103  13.022
64385W        W32715   2.900  12.307  12.522
64386W        W32716  34.886  26.555  10.917
64387W        W32717  22.999   9.783   0.459
64388W        W32718  19.682  26.187   0.309
64389W        W32719  21.544  10.710  13.001
64390W        W32720  28.180  15.124  12.416
64391W        W32721  25.023  40.405  12.418
64392W        W32722   4.929  19.630   5.277
64393W        W32723  44.309  25.124  12.514
64394W        W32724  34.503  35.900  10.437
64395W        W32725  26.540  30.437   3.791
64396W        W32726   6.261  15.603   4.193
64397W        W32727   2.794  32.547  13.359
64398W        W32728  19.700  37.355   1.773
64399W        W32729   7.772  15.588  12.057
64400W        W32730  18.077  24.603   1.373
64401W        W32731  44.767   0.358   3.650
64402W        W32732  41.825  23.083   1.391
64403W        W32733   3.862   8.261  11.517
64404W        W32734  27.006  29.631  13.544
64405W        W32735  25.669  29.036  10.968
64406W        W32736  14.259  10.679  14.377
64407W        W32737  21.066   5.738  10.112
64408W        W32738  43.998  16.577   3.171
64409W        W32739   7.348  32.885  12.430
64410W        W32740   9.230   9.224  11.525
64411W        W32741  21.618  35.857   2.321
64412W        W32742  26.506  43.309   0.337
64413W        W32743  21.027  14.768  12.096
64414W        W32744   0.953  41.373   5.274
64415W        W32745  33.385  36.008  12.369
64416W        W32746  25.171  22.561   4.337
64417W        W32747  13.617  43.435  13.058
64418W        W32748   8.858   3.316   4.644
64419W        W32749   1.467  21.642  11.047
64420W        W32750  40.385  38.492  14.320
64421W        W32751  27.609  19.250  14.318
64422W        W32752  34.398  39.822   4.200
64423W        W32753   5.758  14.655   1.243
64424W        W32754  38.909  32.906  14.479
64425W        W32755   6.422  37.860   3.356
64426W        W32756   6.913  26.459   0.891
64427W        W32757  43.014  10.302   1.306
64428W        W32758  19.633  38.066   0.758
64429W        W32759  32.891  32.571  14.858
64430W        W32760  41.795   0.948   0.288
64431W        W32761   8.240  30.565   2.196
64432W        W32762  35.048  18.289   4.289
64433W        W32763  33.103   2.402  12.559
64434W        W32764   6.858  44.985  10.612
64435W        W32765   2.423  14.666   4.160
64436W        W32766  12.198  28.039   2.859
64437W        W32767  18.657  27.538   2.203
64438W        W32768   2.809  40.310  12.004
64439W        W32769  20.643   1.481   3.807
64440W        W32770  30.453  32.942  12.563
64441W        W32771  36.480   1.957  11.010
64442W        W32772  38.009  32.542   1.708
64443W        W32773   9.323  36.927  10.498
64444W        W32774  35.996  30.935  12.575
64445W        W32775   9.743   3.917  13.339
64446W        W32776  23.052  29.605   0.734
64447W        W32777  21.639  34.102   4.760
64448W        W32778  40.333  39.541  12.362
64449W        W32779  30.626   1.756  12.826
64450W        W32780  44.994  18.167   2.825
64451W        W32781  35.462  29.611  14.774
64452W        W32782  14.094  35.908  14.937
64453W        W32783  40.352  25.587  11.919
64454W        W32784  20.679  42.436   2.849
64455W        W32785   2.743  30.043  13.393
64456W        W32786  34.535  32.493   3.386
64457W        W32787  21.126  23.678  14.374
64458W        W32788   1.834   1.743  11.953
64459W        W32789   4.400  23.728   2.365
64460W        W32790   4.743   4.783  11.891
64461W        W32791  38.442  17.114  13.483
64462W        W32792   1.262  13.783  12.872
64463W        W32793   4.886  18.673   4.302
64464W        W32794  17.175  36.426  10.476
64465W        W32795  30.927  33.400  14.436
64466W        W32796  11.700  19.645   0.960
64467W        W32797  29.441  25.713   4.147
64468W        W32798  33.107  30.576  12.463
64469W        W32799  40.498  19.273   2.846
64470W        W32800  39.991   1.264   1.933
64471W        W32801  33.596  33.600  11.036
64472W        W32802  11.821   1.776  14.288
64473W        W32803  29.486  34.108  14.386
64474W        W32804  42.891  19.086  12.922
64475W        W32805   1.379   3.322  14.416
64476W        W32806  25.508  31.547  12.402
64477W        W32807  28.945  40.803   0.811
64478W        W32808  12.812  15.199  13.034
64479W        W32809  43.279   4.337  14.896
64480W        W32810  37.429  12.768   2.415
64481W        W32811  32.552   0.336  13.027
64482W        W32812   1.937  10.663  10.956
64483W        W32813   1.807  37.567   2.184
64484W        W32814  21.069  27.187  14.931
64485W        W32815  31.591  26.464  12.015
64486W        W32816   0.270  41.040  10.411
64487W        W32817   9.717  24.540   2.393
64488W        W32818  18.759  39.921  13.378
64489W        W32819  44.443  31.002  13.956
64490W        W32820  36.957   2.755  10.412
64491W        W32821  21.035  22.191   3.190
64492W        W32822  29.486   0.865  11.566
64493W        W32823   0.856  30.083   3.328
64494W        W32824  26.197  13.629   1.235
64495W        W32825   7.880   0.304   0.729
64496W        W32826   4.374  42.489   0.773
64497W        W32827  11.129  19.552  13.322
64498W        W32828   3.780  43.989   1.305
64499W        W32829  12.673   8.685   3.816
64500W        W32830   0.895  34.054  11.924
64501W        W32831  13.842  40.809   4.272
64502W        W32832  19.749  37.985  10.990
64503W        W32833  25.547  26.954  14.433
64504W        W32834  14.100  17.080  11.982
64505W        W32835   8.200   4.848   4.281
64506W        W32836  26.634  15.661  12.471
64507W        W32837  40.483  32.408  13.000
64508W        W32838  16.246  34.019  11.442
64509W        W32839  19.260  21.026   3.749
64510W        W32840  41.993  13.650   2.296
64511W        W32841  29.955   8.394  12.372
64512W        W32842  30.440  41.959  10.533
64513W        W32843  18.560  10.285  11.377
64514W        W32844   3.340  23.705   0.251
64515W        W32845  41.904  38.327  11.101
64516W        W32846   8.799  34.403   0.914
64517W        W32847  26.460  34.527   4.764
64518W        W32848   6.772  15.110   1.926
64519W        W32849  30.007  22.012  12.354
64520W        W32850  29.643  44.776  12.946
64521W        W32851   0.403  44.859  14.514
64522W        W32852  36.375  37.482   2.823
64523W        W32853  43.766  37.933  10.996
64524W        W32854   7.780   0.832   5.152
64525W        W32855  15.765  29.494  14.407
64526W        W32856   1.773   4.346  13.909
64527W        W32857   9.860   2.830  11.966
64528W        W32858  39.504  30.126   4.267
64529W        W32859  14.717  30.628  11.464
64530W        W32860  23.514  23.140  14.773
64531W        W32861  22.131  29.076   1.214
64532W        W32862   7.773  21.694   2.329
64533W        W32863  21.758   9.728  13.832
64534W        W32864  36.465  17.221  11.116
64535W        W32865  43.877  14.199   3.638
64536W        W32866  33.518  11.635  14.413
64537W        W32867  41.956  39.891  13.024
64538W        W32868  22.172  19.683  14.776
64539W        W32869  44.809  14.193   1.933
64540W        W32870  22.214  16.299  11.016
64541W        W32871  28.079  22.713  14.817
64542W        W32872  24.650  22.537  13.378
64543W        W32873  16.307  20.243  11.947
64544W        W32874  44.833   5.424   3.149
64545W        W32875  16.646  29.936   4.122
64546W        W32876  22.119  14.795  14.441
64547W        W32877  13.835  14.185  14.339
64548W        W32878  30.429   8.298   1.759
64549W        W32879  34.474  35.376   0.748
64550W        W32880  24.141  10.773   4.310
64551W        W32881  32.919  42.793  11.396
64552W        W32882  22.682  30.025   3.299
64553W        W32883  29.454  14.620  14.763
64554W        W32884  24.115  24.127  12.522
64555W        W32885  29.444  16.571  11.066
64556W        W32886  28.168  20.040  14.957
64557W        W32887  20.252   2.459  14.021
64558W        W32888  34.084  25.180  11.856
64559W        W32889  37.581  20.120  11.015
64560W        W32890   0.385  41.826  14.383
64561W        W32891  22.597  44.417  13.033
64562W        W32892  38.554  37.834   0.407
64563W        W32893  17.170  17.293   2.704
64564W        W32894  19.692   7.821  11.532
64565W        W32895   6.411   9.817  11.429
64566W        W32896  27.560   1.929  13.313
64567W        W32897  37.041  35.898   0.292
64568W        W32898  33.913  31.062   2.709
64569W        W32899  27.524  10.331   1.925
64570W        W32900  19.565  41.392   0.385
64571W        W32901  26.123  41.016   1.770
64572W        W32902   1.962   9.196  12.476
64573W        W32903  27.973  19.624  10.066
64574W        W32904  27.958  36.515  12.548
64575W        W32905  40.534  20.079   0.859
64576W        W32906   0.453  10.219   1.697
64577W        W32907  14.735  24.538  11.045
64578W        W32908  38.896  27.510  14.765
64579W        W32909  16.757  39.544  11.505
64580W        W32910  16.313  44.345   9.960
64581W        W32911  25.650  19.273   2.346
64582W        W32912  37.337  41.294   3.862
64583W        W32913  16.745  18.603  13.389
64584W        W32914  42.411  11.294  11.111
64585W        W32915  39.977   9.271   4.143
64586W        W32916  32.632  16.177   2.277
64587W        W32917  25.669  17.746  14.486
64588W        W32918  30.105   8.403   4.604
64589W        W32919  35.583  36.961   1.404
64590W        W32920   6.802  19.213  13.920
64591W        W32921  33.099  26.584  11.911
64592W        W32922   6.746  42.951  11.862
64593W        W32923  40.889  28.624  13.394
64594W        W32924  32.096   7.289  14.372
64595W        W32925   4.226   1.269   1.293
64596W        W32926  26.470   3.245  14.352
64597W        W32927  24.136  32.528  10.544
64598W        W32928   4.892   8.348   1.861
64599W        W32929  38.871  26.592  13.357
64600W        W32930  30.426  22.081  11.030
64601W        W32931   7.702  39.328  14.937
64602W        W32932  43.343  24.510  11.093
64603W        W32933  16.723  32.462  13.366
64604W        W32934  31.547  19.668  12.019
64605W        W32935  17.743   9.858   2.870
64606W        W32936  18.059  32.991   4.187
64607W        W32937  37.057   3.846   4.328
64608W        W32938   5.213   3.782   1.220
64609W        W32939  25.545  23.703   0.748
64610W        W32940  42.022  32.565   4.684
64611W        W32941  20.592   2.441   3.313
64612W        W32942  41.954  44.317   4.754
64613W        W32943  23.047   0.269   4.229
64614W        W32944  39.820   4.870  14.351
64615W        W32945  41.365  22.145  12.453
64616W        W32946  16.738  36.586  13.867
64617W        W32947  31.021  33.548   4.651
64618W        W32948  40.350   8.883  14.963
64619W        W32949   4.287  16.730  14.303
64620W        W32950  28.977   1.257   0.253
64621W        W32951   4.430  20.220   2.872
64622W        W32952  19.666  23.490  13.813
64623W        W32953  15.730  33.025  12.399
64624W        W32954  42.386  21.215   4.337
64625W        W32955   7.891  19.054  11.992
64626W        W32956   7.412  26.475   1.789
64627W        W32957  43.815  41.524  13.004
64628W        W32958  32.443   7.903  14.942
64629W        W32959  16.120  41.385   1.348
64630W        W32960   7.261  21.684  14.510
64631W        W32961  13.721  28.546  13.899
64632W        W32962  37.900  10.777  12.555
64633W        W32963  26.052  28.147  12.437
64634W        W32964   0.985  39.384  12.489
64635W        W32965   8.223  38.544   4.609
64636W        W32966  42.487  40.925  12.424
64637W        W32967  32.005  27.459   0.355
64638W        W32968  16.800  16.076   3.780
64639W        W32969   1.415  27.553   1.322
64640W        W32970  33.045  18.791   2.870
64641W        W32971  41.482  29.074  13.991
64642W        W32972   8.330  26.180   1.347
64643W        W32973  16.790  18.286   3.847
64644W        W32974  12.202  42.987   3.157
64645W        W32975   4.308  28.648   3.802
64646W        W32976  11.751  22.210   4.332
64647W        W32977   0.292  10.161  11.533
64648W        W32978  26.078   2.862   0.915
64649W        W32979  29.546  28.141  11.587
64650W        W32980  34.920  29.513  13.342
64651W        W32981  26.966   4.358   1.899
64652W        W32982  36.978  21.745  13.452
64653W        W32983   2.914   0.399   1.862
64654W        W32984  31.085  39.841   3.823
64655W        W32985  16.701  36.073  10.125
64656W        W32986  39.469  29.961  12.010
64657W        W32987  28.155  21.673   1.703
64658W        W32988  18.680  22.576   1.724
64659W        W32989  30.641   9.833  14.003
64660W        W32990  29.609  44.795  10.464
64661W        W32991  36.400  38.513   0.247
64662W        W32992  17.724  20.036   4.286
64663W        W32993  42.972  37.929   1.328
64664W        W32994   9.709   0.325  11.915
64665W        W32995  14.644  17.563   3.687
64666W        W32996  37.368   1.921  13.928
64667W        W32997   3.355  20.742  11.974
64668W        W32998  32.021   3.282   5.127
64669W        W32999  21.263  42.380  13.354
64670W        W33000  40.909  26.090  13.906
64671W        W33001  44.970  24.687  10.554
64672W        W33002  16.709  11.290  12.996
64673W        W33003  26.103   6.358  12.553
64674W        W33004  24.612   1.929  12.984
64675W        W33005  10.149  44.476   4.771
64676W        W33006   1.922  35.977  13.415
64677W        W33007   1.960  11.305  10.952
64678W        W33008  18.276   7.803  11.007
64679W        W33009  28.436  23.003  14.848
64680W        W33010  10.772  11.632  13.444
64681W        W33011  21.135  44.934  13.356
64682W        W33012   0.755  12.323  12.416
64683W        W33013  38.465   2.791  13.841
64684W        W33014  14.180  40.048  12.910
64685W        W33015  16.788  23.643   5.092
64686W        W33016  42.819  39.539   3.195
64687W        W33017  15.810  34.879   1.321
64688W        W33018  33.555  40.509  11.945
64689W        W33019  40.965  36.511  14.972
64690W        W33020  41.976  23.623   1.281
64691W        W33021  37.523   7.713   4.793
64692W        W33022   3.756  32.583   4.694
64693W        W33023  34.442  40.523   4.753
64694W        W33024  10.721  25.014   2.799
64695W        W33025  30.053   7.767  14.353
64696W        W33026  44.338   9.372  11.598
64697W        W33027  33.590   2.287   3.866
64698W        W33028  38.444   4.386   3.324
64699W        W33029  14.801  44.782  13.344
64700W        W33030  28.435   0.287  11.419
64701W        W33031  26.575  19.133  12.977
64702W        W33032  40.017  37.581  14.294
64703W        W33033  37.550  14.105  12.552
64704W        W33034  23.984  25.629   2.181
64705W        W33035  15.654   6.727  11.031
64706W        W33036  41.488   5.885  11.075
64707W        W33037  18.733  21.046  13.326
64708W        W33038  23.536   8.760   3.860
64709W        W33039   8.794  18.263  13.800
64710W        W33040   9.678  10.639  12.980
64711W        W33041   9.841  16.242   4.673
64712W        W33042   3.249  37.875  12.453
64713W        W33043  43.864  44.004  11.123
64714W        W33044  23.690  24.518  11.896
64715W        W33045  13.793  31.634  11.555
64716W        W33046  19.177  24.148  13.802
64717W        W33047  31.949  19.581   1.759
64718W        W33048  17.746  20.667  13.434
64719W        W33049  26.977  29.044   2.289
64720W        W33050   6.858  16.204   2.353
64721W        W33051  28.994  11.639   0.853
64722W        W33052  22.681   7.796  14.785
64723W        W33053  44.359   9.153  14.965
64724W        W33054   0.745  32.486  13.881
64725W        W33055  36.022  23.203   3.846
64726W        W33056  33.446   3.755  14.400
64727W        W33057  15.824  39.505   4.132
64728W        W33058  33.884  20.758  10.964
64729W        W33059  30.415  34.561   1.911
64730W        W33060  21.254   9.169   1.847
64731W        W33061  14.730  10.863  11.868
64732W        W33062  21.056  41.292   4.634
64733W        W33063  32.954   1.907  13.494
64734W        W33064  44.853  25.010  11.525
64735W        W33065  28.075   8.376   3.334
64736W        W33066  25.989   9.327  13.922
64737W        W33067  24.544   2.317  12.413
64738W        W33068  28.450  22.694  11.986
64739W        W33069  28.674   3.280   0.269
64740W        W33070  31.409  36.578   0.829
64741W        W33071   9.667  39.495   4.799
64742W        W33072  17.298  19.251   2.730
64743W        W33073  15.686  33.047   0.373
64744W        W33074  20.268  29.631  11.129
64745W        W33075   1.478  36.083   1.213
64746W        W33076  33.014   5.717  14.427
64747W        W33077  16.099  42.870  12.941
64748W        W33078  13.251  16.295   2.280
64749W        W33079   0.956  31.469   3.840
64750W        W33080  32.631  31.907  13.914
64751W        W33081  39.954  17.776  14.389
64752W        W33082  31.514   7.797  13.802
64753W        W33083   8.730  22.031  11.006
64754W        W33084  36.003  35.951  12.088
64755W        W33085   1.476  30.043  12.983
64756W        W33086  33.106  16.712  11.983
64757W        W33087  11.325  44.809   3.631
64758W        W33088  25.523   7.792  12.368
64759W        W33089   8.709  21.246  13.833
64760W        W33090  23.195  16.694   4.799
64761W        W33091  43.323  12.299   4.730
64762W        W33092   7.178  15.323   3.646
64763W        W33093  16.153  30.503  11.106
64764W        W33094  16.252  27.638   4.227
64765W        W33095  20.236  10.266  12.441
64766W        W33096  41.495  14.700  12.969
64767W        W33097  27.548  24.072  12.949
64768W        W33098  13.346  37.911   1.874
64769W        W33099  11.808  22.626  10.605
64770W        W33100  32.995   9.334  12.568
64771W        W33101  24.646   7.806  12.059
64772W        W33102  22.702  23.648   0.815
64773W        W33103   7.757  27.495   0.835
64774W        W33104  23.490   5.841  12.976
64775W        W33105  24.197  34.504   2.701
64776W        W33106  15.220   4.379   0.467
64777W        W33107  20.180  38.336  14.801
64778W        W33108  42.946  44.981   0.308
64779W        W33109  25.006  44.480   1.787
64780W        W33110   8.765  31.564   2.306
64781W        W33111  27.054   8.845   1.747
64782W        W33112  11.254  26.100   3.770
64783W        W33113  25.965  28.985   3.351
64784W        W33114   7.764   9.821   0.934
64785W        W33115  43.972  32.996  12.919
64786W        W33116   1.317  24.108   3.657
64787W        W33117  44.435   0.463   4.333
64788W        W33118  33.464  37.476   2.178
64789W        W33119  30.414  20.753  13.813
64790W        W33120  41.894  15.140   3.283
64791W        W33121  37.530  14.763   1.442
64792W        W33122  10.191  36.091   4.646
64793W        W33123  10.332   6.798  10.927
64794W        W33124  30.583  24.487   3.805
64795W        W33125  31.107   4.924   4.734
64796W        W33126  27.049   2.918  10.426
64797W        W33127  17.140  35.404  11.389
64798W        W33128  17.159  12.343   3.263
64799W        W33129  12.283  14.214  12.854
64800W        W33130   6.871  13.625   3.861
64801W        W33131  17.709   6.810  11.389
64802W        W33132  14.291  18.196  12.339
64803W        W33133  40.835  22.047   2.768
64804W        W33134  41.027  28.034   3.337
64805W        W33135  33.043  15.644  14.515
64806W        W33136  36.954  28.538   0.242
64807W        W33137  28.679   3.312  12.501
64808W        W33138  35.083  18.201  12.879
64809W        W33139  30.523  13.616  11.465
64810W        W33140  44.288   8.826   4.311
64811W        W33141  23.700  33.050   0.885
64812W        W33142   0.273  42.915  14.311
64813W        W33143  44.821  22.719  11.890
64814W        W33144  34.018  40.543  10.564
64815W        W33145  19.239  21.138   4.322
64816W        W33146   3.867   8.693   2.214
64817W        W33147   8.212  12.674  13.990
64818W        W33148  41.377  15.636  11.967
64819W        W33149  41.388  25.168  12.831
64820W        W33150  10.205  28.092   2.770
64821W        W33151   6.361  11.779   3.808
64822W        W33152   7.880  27.519  14.335
64823W        W33153  16.087  12.129  11.899
64824W        W33154  38.554  36.526  11.413
64825W        W33155  27.124   8.290  12.389
64826W        W33156  12.140  19.608   4.160
64827W        W33157  26.126  15.311   1.340
64828W        W33158  41.820  30.430  10.619
64829W        W33159  36.063  19.687   2.335
64830W        W33160  38.899  31.130  12.576
64831W        W33161  18.249  23.527   3.169
64832W        W33162  44.456   9.165  11.071
64833W        W33163   7.390   8.874   4.830
64834W        W33164  40.944  29.631   1.932
64835W        W33165  18.193  42.871   0.422
64836W        W33166  39.909  40.433   4.322
64837W        W33167  24.130   8.250  11.585
64838W        W33168  29.657  17.796  12.551
64839W        W33169  35.376  20.132   4.759
64840W        W33170  22.226  38.545   3.309
64841W        W33171  37.950  25.016  13.038
64842W        W33172  36.461  32.608  13.879
64843W        W33173  35.472   7.383  11.067
64844W        W33174  30.949   1.466   3.843
64845W        W33175  40.036  11.726  14.895
64846W        W33176  16.147  39.820  13.039
64847W        W33177  11.307  27.688  12.080
64848W        W33178  18.694  21.248   1.856
64849W        W33179  33.952  15.216   4.705
64850W        W33180  24.632  23.104   3.707
64851W        W33181  26.029  26.951   0.294
64852W        W33182  13.204  12.828  12.943
64853W        W33183  31.104  24.666   0.285
64854W        W33184  28.091  36.052   4.218
64855W        W33185  32.081   0.986  14.816
64856W        W33186  16.606  37.049  14.917
64857W        W33187   3.449  12.628  14.973
64858W        W33188   1.785  17.139  13.893
64859W        W33189  36.977  43.494   4.148
64860W        W33190  21.519  44.428   3.244
64861W        W33191  23.109  16.723   1.830
64862W        W33192   5.791  12.145   2.250
64863W        W33193  32.555  23.557  13.538
64864W        W33194   8.216  26.633  10.425
64865W        W33195  10.708  22.020   3.739
64866W        W33196  13.291  16.568  11.112
64867W        W33197  38.871  36.078  10.482
64868W        W33198   3.886  28.150   3.864
64869W        W33199  37.429  38.831  10.079
64870W        W33200  23.096  17.156   9.944
64871W        W33201  29.525  38.549  10.621
64872W        W33202  25.112  36.949  12.848
64873W        W33203  41.951   9.342  14.424
64874W        W33204  38.353  28.576   4.760
64875W        W33205   0.949  30.030   1.909
64876W        W33206   7.858  39.808   1.226
64877W        W33207  15.696  26.166  12.033
64878W        W33208   3.386  13.266  14.281
64879W        W33209  39.531  22.159   0.394
64880W        W33210  34.059  14.174   0.931
64881W        W33211   4.309  10.686   0.927
64882W        W33212  29.662  12.643  11.966
64883W        W33213  32.019   5.704   1.750
64884W        W33214  42.338   9.250   2.859
64885W        W33215  38.477  34.570   4.641
64886W        W33216   0.847  41.353  11.067
64887W        W33217  32.132  28.119   4.726
64888W        W33218   6.726  15.577   9.928
64889W        W33219  40.354   7.838   5.633
64890W        W33220  30.006  42.375  14.326
64891W        W33221  12.291   0.833  11.572
64892W        W33222  39.431  21.662  14.850
64893W        W33223  16.258  28.619   1.282
64894W        W33224  19.770  30.912   1.934
64895W        W33225   9.774  28.590  12.063
64896W        W33226  36.510   1.410  10.952
64897W        W33227  14.303  40.421  12.407
64898W        W33228  29.624   0.431   4.189
64899W        W33229  25.024   3.391  14.428
64900W        W33230  22.735  26.562  13.005
64901W        W33231   1.343   0.449   2.879
64902W        W33232  14.199  41.952  13.417
64903W        W33233  36.585  19.241   2.802
64904W        W33234  27.603  38.350   4.786
64905W        W33235  40.901  37.845   0.786
64906W        W33236  29.139  17.555  12.869
64907W        W33237  41.964  32.539   2.249
64908W        W33238  27.020  40.829   0.957
64909W        W33239  33.912  17.154   1.772
64910W        W33240  33.565  30.607   4.801
64911W        W33241   6.232  25.603  11.114
64912W        W33242   4.900  21.151  10.003
64913W        W33243   2.782  40.432   0.761
64914W        W33244  23.121  35.964   0.948
64915W        W33245  15.633  40.967  13.495
64916W        W33246  28.953  17.137  13.834
64917W        W33247  16.671   6.820   3.741
64918W        W33248  13.263  42.406  10.890
64919W        W33249  29.950  33.025   4.234
64920W        W33250  38.555  39.809   3.147
64921W        W33251   5.369  33.586   1.356
64922W        W33252   3.226   5.370  13.908
64923W        W33253  35.106  13.739   3.159
64924W        W33254   6.372  14.596  13.878
64925W        W33255  11.643   6.352  11.014
64926W        W33256  31.627  29.166  10.502
64927W        W33257  41.378   6.330   2.867
64928W        W33258   4.803  37.351   2.238
64929W        W33259  44.375  13.727  12.513
64930W        W33260  28.676  19.055  14.322
64931W        W33261   1.778  43.462   3.778
64932W        W33262  34.868  10.878  12.570
64933W        W33263  39.992   2.370   2.843
64934W        W33264   3.330   2.911  12.922
64935W        W33265  38.958  25.009  12.936
64936W        W33266  25.613  22.174  11.558
64937W        W33267  32.065  29.485   1.903
64938W        W33268  29.597  14.096   4.757
64939W        W33269  15.731  30.916  13.915
64940W        W33270   5.911   0.934   1.831
64941W        W33271  18.712   4.338   4.810
64942W        W33272  15.809   5.423  14.916
64943W        W33273  19.067  12.200   3.337
64944W        W33274  31.594  40.415  13.447
64945W        W33275  22.726  12.733   0.728
64946W        W33276  14.284  12.169  14.833
64947W        W33277  21.230  37.940   2.704
64948W        W33278  15.229  31.049  11.066
64949W        W33279  31.124  44.974  12.948
64950W        W33280   5.249  28.976   4.773
64951W        W33281   2.462   1.305  13.806
64952W        W33282  12.765  38.001   1.912
64953W        W33283  17.229  34.400  11.553
64954W        W33284  40.409   5.310  13.958
64955W        W33285  43.016  38.001  14.825
64956W        W33286  37.514   4.302  13.462
64957W        W33287  41.925  35.878   0.756
64958W        W33288  35.983  34.904  10.489
64959W        W33289  33.559   3.430   1.888
64960W        W33290   4.706  17.147   3.268
64961W        W33291   9.734  32.031   3.209
64962W        W33292  25.483  19.595   0.949
64963W        W33293  41.460  35.055   3.163
64964W        W33294  34.384  28.973   0.364
64965W        W33295   1.310  43.493  10.902
64966W        W33296  30.948  40.874  12.514
64967W        W33297  31.441  26.687   3.245
64968W        W33298  35.596  44.837   0.870
64969W        W33299  36.894  12.280  13.923
64970W        W33300  38.555  22.729   2.194
64971W        W33301  41.981  26.584   1.419
64972W        W33302  27.985  26.686  11.889
64973W        W33303  39.551  27.049   3.652
64974W        W33304   3.735   7.263  10.976
64975W        W33305   0.344   8.276   3.362
64976W        W33306   1.904  31.134   1.413
64977W        W33307   3.225   3.344  11.420
64978W        W33308  12.321  22.675   0.255
64979W        W33309  32.937  35.360   3.265
64980W        W33310  30.102   6.397   0.484
64981W        W33311   8.821  18.571   2.867
64982W        W33312  41.806  31.988  11.085
64983W        W33313  32.122  34.923  11.922
64984W        W33314  40.365  27.560  13.520
64985W        W33315  28.100  31.008   3.385
64986W        W33316  39.329  41.854   2.728
64987W        W33317  10.766   1.949  13.539
64988W        W33318  41.791  15.321   0.267
64989W        W33319  28.962   0.416  14.382
64990W        W33320  15.175  29.103  14.453
64991W        W33321  37.846  19.191  11.589
64992W        W33322   9.177   8.315  12.847
64993W        W33323  41.515  16.202   1.313
64994W        W33324  32.575  18.680   1.269
64995W        W33325  26.132   0.248   1.894
64996W        W33326  19.268  36.050  10.898
64997W        W33327  14.297  18.173   2.823
64998W        W33328   4.214  28.549   2.209
64999W        W33329  43.352  32.548   3.684
65000W        W33330  14.636   5.848   1.822
65001W        W33331  37.363  30.503  12.088
65002W        W33332  44.861  25.112   4.627
65003W        W33333  14.774  38.471  11.610
65004W        W33334   4.865   2.753   4.784
65005W        W33335  22.187  30.463   3.239
65006W        W33336  33.583   6.850  13.313
65007W        W33337   7.330  43.000  14.920
65008W        W33338  11.223  22.104   4.160
65009W        W33339  44.453  42.853   1.210
65010W        W33340   6.339  12.125  13.839
65011W        W33341  24.592  22.233  12.362
65012W        W33342  24.038  17.304  12.928
65013W        W33343   9.363  15.584   4.332
65014W        W33344  35.380  35.907  12.520
65015W        W33345   1.932  16.754  14.309
65016W        W33346  14.288   0.322   3.194
65017W        W33347  29.636  19.698  11.601
65018W        W33348  21.640  28.575  14.453
65019W        W33349   3.942  25.973   3.197
65020W        W33350  37.479   8.274   4.733
65021W        W33351  37.562   5.265  13.428
65022W        W33352  23.630  43.277  12.473
65023W        W33353  25.477  44.346   0.275
65024W        W33354  31.098  15.731   1.216
65025W        W33355   2.274  25.468   1.882
65026W        W33356  21.224  29.136   9.987
65027W        W33357  44.443   9.854  13.507
65028W        W33358  22.743  25.555   4.211
65029W        W33359  28.041  11.643  10.948
65030W        W33360  15.769   2.339  14.326
65031W        W33361   1.945  43.922  12.079
65032W        W33362  22.509   4.436   1.813
65033W        W33363  25.700  32.437   3.828
65034W        W33364  26.017   4.754  11.425
65035W        W33365  25.492  10.806  10.561
65036W        W33366  41.902  17.240  11.491
65037W        W33367  37.946  26.581  11.891
65038W        W33368  29.027  38.916   3.183
65039W        W33369  43.002  41.975  11.429
65040W        W33370  24.643  23.128   2.296
65041W        W33371  29.595  28.003  13.842
65042W        W33372   5.877  25.487   1.881
65043W        W33373  42.858  43.833  10.556
65044W        W33374  38.996  27.557   1.356
65045W        W33375  27.127   2.262  10.628
65046W        W33376  10.635  41.399   2.704
65047W        W33377  30.078   8.361   2.779
65048W        W33378   3.381  27.105   3.825
65049W        W33379   7.859   4.315  10.615
65050W        W33380  21.188  38.328   0.893
65051W        W33381  15.188  25.635  14.458
65052W        W33382  41.790  38.418  14.500
65053W        W33383   4.374   2.417  14.986
65054W        W33384   3.955  29.034   1.440
65055W        W33385  20.731  12.174   2.342
65056W        W33386  35.870  16.111   4.189
65057W        W33387  42.449  12.673  13.310
65058W        W33388  38.467  17.603  14.421
65059W        W33389   2.344  31.146  14.786
65060W        W33390  13.287   7.696  14.849
65061W        W33391   2.299   5.878   0.408
65062W        W33392  28.603  38.846  13.371
65063W        W33393  32.970  15.697   3.387
65064W        W33394   1.429  42.478   1.836
65065W        W33395   6.311  30.486   4.181
65066W        W33396  15.646  11.282  10.981
65067W        W33397  18.709  25.539   0.897
65068W        W33398  19.045   0.306  13.046
65069W        W33399   6.817  39.515   2.224
65070W        W33400  14.228  24.205   2.731
65071W        W33401  27.646  16.113   3.359
65072W        W33402  44.471  20.050  12.037
65073W        W33403  20.536  12.341  12.926
65074W        W33404  27.595  12.720   2.662
65075W        W33405   2.767  24.518   4.133
65076W        W33406   9.290  18.055  10.897
65077W        W33407  18.555  28.947  13.316
65078W        W33408  18.734  14.166  11.863
65079W        W33409  13.717  10.225   1.269
65080W        W33410   2.337  14.725  13.381
65081W        W33411   7.318   5.422   0.853
65082W        W33412  25.028  44.341  12.384
65083W        W33413  39.321  34.408  10.920
65084W        W33414  40.406  44.945  14.315
65085W        W33415  10.201  30.019   4.275
65086W        W33416   9.847  17.686   3.653
65087W        W33417  11.646  19.115  11.885
65088W        W33418  32.605   4.734   3.318
65089W        W33419  20.754  42.320  13.508
65090W        W33420  10.677  26.684   3.158
65091W        W33421  26.037  19.742  10.410
65092W        W33422   9.847  28.154  11.486
65093W        W33423  17.079   0.267   2.198
65094W        W33424  17.071   1.256  14.941
65095W        W33425   2.721   3.841   3.818
65096W        W33426   0.357  31.619   2.220
65097W        W33427   2.331  18.625   4.661
65098W        W33428  44.946   0.903   2.364
65099W        W33429  14.336  11.279   1.255
65100W        W33430  37.889  41.383   5.323
65101W        W33431  12.198  32.936  10.887
65102W        W33432  25.055  44.291  14.288
65103W        W33433  15.085   0.457   3.193
65104W        W33434  37.537  10.301  10.521
65105W        W33435  39.357  25.167  14.872
65106W        W33436  33.988  33.413  14.362
65107W        W33437  44.910  14.672   4.626
65108W        W33438  30.152  21.536  13.898
65109W        W33439  20.110  29.024  12.485
65110W        W33440   9.169   2.919  13.873
65111W        W33441   2.748  18.712  12.484
65112W        W33442   2.348  15.128  13.480
65113W        W33443   0.277  25.165   4.220
65114W        W33444  30.626  26.125   0.364
65115W        W33445  40.853  33.119   3.755
65116W        W33446  19.590  26.051   4.233
65117W        W33447   4.214  38.953  12.374
65118W        W33448  34.508  34.093   3.291
65119W        W33449   6.373  19.228   0.816
65120W        W33450  39.947  10.326  14.877
65121W        W33451  43.790  15.106   1.787
65122W        W33452  23.563  20.094   1.860
65123W        W33453  39.476  11.642  12.908
65124W        W33454  37.426  35.872   0.341
65125W        W33455  40.391   1.776  10.433
65126W        W33456  18.673  36.968   4.130
65127W        W33457   9.219  36.494  13.345
65128W        W33458  16.678  20.543  11.555
65129W        W33459  14.668  16.081   2.812
65130W        W33460   4.798  33.420   2.765
65131W        W33461  11.134  17.187  12.404
65132W        W33462  22.186  41.433   0.891
65133W        W33463  21.707   5.345   1.921
65134W        W33464  10.774  33.605   0.305
65135W        W33465  21.557   4.807  14.500
65136W        W33466  21.582  22.078   1.222
65137W        W33467   5.309  42.987   0.950
65138W        W33468  42.386   8.288   0.363
65139W        W33469  20.652  11.733   3.320
65140W        W33470  43.315   8.699   3.855
65141W        W33471  42.524  25.694   0.244
65142W        W33472  36.527   7.673   3.851
65143W        W33473  38.011   0.949  13.457
65144W        W33474  25.999  13.240  13.320
65145W        W33475   7.207  29.932   2.335
65146W        W33476  17.081  16.195   3.663
65147W        W33477  31.528  35.906  11.871
65148W        W33478  22.701  40.441  11.856
65149W        W33479  25.198  43.839   3.267
65150W        W33480   5.293   9.649   1.847
65151W        W33481  41.325  11.755  11.454
65152W        W33482   3.271  15.240   4.354
65153W        W33483  38.999  30.935   0.358
65154W        W33484  26.494  21.717  14.916
65155W        W33485  10.756  18.222  11.920
65156W        W33486  36.573  43.513   0.798
65157W        W33487  25.140  13.116  14.871
65158W        W33488   2.796  37.013  13.826
65159W        W33489   5.253  18.754   2.852
65160W        W33490  21.173   2.308  13.035
65161W        W33491   8.189  18.113   3.760
65162W        W33492  33.387   1.261  12.042
65163W        W33493  35.873  41.470   4.671
65164W        W33494  24.662   1.264   0.856
65165W        W33495  16.736  33.403   4.617
65166W        W33496  26.651  31.054   1.735
65167W        W33497  28.054  20.575  14.288
65168W        W33498  38.022  14.642   3.251
65169W        W33499  15.693  17.083   0.731
65170W        W33500   8.370  35.552  14.867
65171W        W33501   0.292  40.321  14.339
65172W        W33502  17.768  23.566  13.985
65173W        W33503   7.337  37.581   4.343
65174W        W33504  19.187   9.844  11.114
65175W        W33505   5.784  38.348   2.679
65176W        W33506  35.947  36.584   0.394
65177W        W33507  20.741  24.515  14.024
65178W        W33508  40.819  15.696  12.969
65179W        W33509  24.484   1.445   1.715
65180W        W33510   5.221   5.359   0.437
65181W        W33511   7.406  29.642   1.383
65182W        W33512  32.055  31.598  10.543
65183W        W33513  30.445  38.943   4.828
65184W        W33514  35.491  20.602  14.348
65185W        W33515   2.325   6.326   4.285
65186W        W33516   8.658  10.828  13.900
65187W        W33517  38.009  13.208  13.540
65188W        W33518   3.444  23.535  11.598
65189W        W33519  22.673  38.558  14.280
65190W        W33520  23.052  21.211  14.769
65191W        W33521  30.464  31.047   2.747
65192W        W33522   0.814   1.810   2.236
65193W        W33523  23.024  33.877   3.291
65194W        W33524  16.116  21.692   4.771
65195W        W33525  44.300  32.076  12.901
65196W        W33526  30.515  38.538  12.969
65197W        W33527  44.412  25.992   1.325
65198W        W33528  32.484  29.919   3.281
65199W        W33529  13.115  17.197  14.882
65200W        W33530  30.931  43.478   2.790
65201W        W33531  34.076  23.582  14.009
65202W        W33532  36.961  42.482   4.155
65203W        W33533  13.668  32.967   1.297
65204W        W33534  23.141  14.156   0.871
65205W        W33535  36.390   1.264  14.861
65206W        W33536  41.342  12.356   4.695
65207W        W33537  38.396  32.895   3.343
65208W        W33538  11.294  41.389  11.560
65209W        W33539   8.787  36.388   2.404
65210W        W33540   6.242  14.293   4.166
65211W        W33541  20.070   8.383  12.383
65212W        W33542  33.618  14.701   4.235
65213W        W33543  35.424  24.487  10.926
65214W        W33544  40.547  12.193   2.742
65215W        W33545  37.450  19.711  10.049
65216W        W33546  12.310  31.002   4.222
65217W        W33547  24.720  10.744  10.433
65218W        W33548  21.048  32.035   2.374
65219W        W33549  27.189  34.056  13.829
65220W        W33550   2.836  39.992  11.884
65221W        W33551  31.617  22.636   3.755
65222W        W33552  39.427  34.868   1.370
65223W        W33553  34.397  25.620   1.222
65224W        W33554   5.862  19.570  12.551
65225W        W33555  36.500   0.883  14.778
65226W        W33556  39.051  34.531  12.924
65227W        W33557  26.069  34.430   2.255
65228W        W33558  39.363  18.093  11.123
65229W        W33559  15.156  28.075  12.023
65230W        W33560  34.043  13.721  11.475
65231W        W33561  20.705  32.573   4.212
65232W        W33562  34.954  38.864   0.949
65233W        W33563  30.036  33.590  14.337
65234W        W33564  20.646  30.998  11.537
65235W        W33565  27.140  16.775   0.272
65236W        W33566  37.033  17.773   0.848
65237W        W33567  23.659  37.368  10.479
65238W        W33568  22.636  26.182   0.934
65239W        W33569   8.833  36.381   4.314
65240W        W33570  12.327   8.727   0.315
65241W        W33571  37.051   9.778   0.278
65242W        W33572  34.980  44.929   2.835
65243W        W33573  21.703  27.041   1.759
65244W        W33574  42.992   7.847  12.390
65245W        W33575  31.975  28.994  10.058
65246W        W33576  19.088  21.018   1.225
65247W        W33577  43.339  20.624  13.922
65248W        W33578  28.999  27.149   2.825
65249W        W33579  33.565  30.561  14.908
65250W        W33580  21.139  39.823   4.690
65251W        W33581  34.884  36.065  13.056
65252W        W33582   8.221  27.451  14.791
65253W        W33583  24.060  37.352   4.717
65254W        W33584  16.779  37.439  10.040
65255W        W33585  42.912  32.571  10.616
65256W        W33586   2.946  38.915   2.227
65257W        W33587  27.645  33.064  11.868
65258W        W33588  11.136   5.241   3.765
65259W        W33589   4.897  13.639  10.645
65260W        W33590  44.808  21.098   3.748
65261W        W33591  32.104  40.510  11.480
65262W        W33592  18.116   8.307   1.704
65263W        W33593  29.135  39.814   1.805
65264W        W33594  24.066   8.856   4.259
65265W        W33595   4.240  13.629   0.339
65266W        W33596  42.786  22.699  14.897
65267W        W33597   0.838  20.059  10.448
65268W        W33598  25.571   6.898  12.925
65269W        W33599  43.774  28.131   4.132
65270W        W33600  29.051  11.328  13.880
65271W        W33601  34.464  18.619  12.485
65272W        W33602   8.778  31.408   3.240
65273W        W33603   1.397  43.445   4.345
65274W        W33604  32.417  11.724   1.318
65275W        W33605  26.625   9.782  12.443
65276W        W33606  43.292   7.847   4.718
65277W        W33607  17.093  26.607   1.839
65278W        W33608  43.919  37.977   1.393
65279W        W33609   8.346  14.642  10.968
65280W        W33610  14.809   9.192   4.315
65281W        W33611  44.459  29.166   3.662
65282W        W33612   4.332  26.167  10.561
65283W        W33613  23.629   4.723  11.470
65284W        W33614  20.114  21.613  12.545
65285W        W33615  40.951  21.027   2.691
65286W        W33616  22.532   8.861   0.313
65287W        W33617  34.105  39.934  12.451
65288W        W33618  21.588  18.704  13.033
65289W        W33619  42.989   6.733   0.349
65290W        W33620  28.437  10.635   5.137
65291W        W33621  41.397  14.709   0.369
65292W        W33622  43.398   1.324   0.791
65293W        W33623  10.377  15.329  13.412
65294W        W33624  19.280  28.549  12.062
65295W        W33625  11.155  10.851   1.372
65296W        W33626  41.485   7.798  11.946
65297W        W33627  18.185  30.045   4.297
65298W        W33628  11.637  37.347  13.514
65299W        W33629   3.361  39.973  13.514
65300W        W33630  17.773  32.004  10.570
65301W        W33631  44.822  39.342  12.935
65302W        W33632  27.089  43.354  13.040
65303W        W33633  34.017  31.911  11.910
65304W        W33634   2.379  25.607   3.665
65305W        W33635   2.403  23.599   1.357
65306W        W33636   4.703   1.276   1.852
65307W        W33637  29.964   3.254   4.772
65308W        W33638  21.611   8.882   1.237
65309W        W33639  12.314  22.734   4.202
65310W        W33640   2.720  21.669  14.976
65311W        W33641  19.747  37.857  12.357
65312W        W33642  44.416  15.759  10.911
65313W        W33643   1.340   0.254   3.260
65314W        W33644   9.690  31.905   2.867
65315W        W33645  16.124   8.238  13.932
65316W        W33646  36.431   5.808  12.960
65317W        W33647   8.362  27.648  10.485
65318W        W33648  19.578  27.088   1.419
65319W        W33649  38.383  20.161   0.948
65320W        W33650   8.778  12.177  11.585
65321W        W33651  31.625   3.459  14.349
65322W        W33652  12.617  20.143   1.727
65323W        W33653  27.180   9.790  11.594
65324W        W33654  32.631  37.891   4.681
65325W        W33655  30.969  39.439  11.092
65326W        W33656  18.113  21.688   3.215
65327W        W33657   5.356  30.455   1.290
65328W        W33658   3.733  12.347  11.477
65329W        W33659  38.871  26.534   0.894
65330W        W33660  39.534  38.059   1.853
65331W        W33661  44.858  34.509   4.148
65332W        W33662  27.522  33.929  12.062
65333W        W33663  12.356  39.477   2.852
65334W        W33664  44.453   3.461   1.739
65335W        W33665  22.634  22.641  12.424
65336W        W33666  35.007  21.543  14.899
65337W        W33667  28.930  26.032  13.311
65338W        W33668  36.908  30.050  11.567
65339W        W33669  35.483  14.826   0.739
65340W        W33670   7.811  37.540  12.473
65341W        W33671  28.572  16.620   1.417
65342W        W33672  41.990  21.666   4.803
65343W        W33673  28.647  42.353   1.392
65344W        W33674  40.500  24.175  11.125
65345W        W33675   9.226  41.373  13.028
65346W        W33676  26.631  25.120   5.200
65347W        W33677   1.844  33.915   0.341
65348W        W33678  36.406  25.670   3.226
65349W        W33679  32.946  33.905   3.246
65350W        W33680   9.783  37.915   2.765
65351W        W33681   6.380  31.418  14.853
65352W        W33682  18.555  37.845   4.326
65353W        W33683  11.206  22.524   3.753
65354W        W33684  28.615  29.986  14.873
65355W        W33685  32.562   6.920  11.921
65356W        W33686  35.029   8.393   2.350
65357W        W33687  44.934  21.639   0.356
65358W        W33688  14.677  37.037   1.325
65359W        W33689  22.246  16.764   5.767
65360W        W33690   5.780  40.907  11.878
65361W        W33691   0.823  20.527  12.943
65362W        W33692  39.908  33.383   0.460
65363W        W33693   4.943  34.016   3.342
65364W        W33694   4.926  27.168  14.022
65365W        W33695  35.988  10.808  13.441
65366W        W33696  35.523  29.510  10.434
65367W        W33697  35.066   4.309   1.442
65368W        W33698  17.645  21.172  12.009
65369W        W33699  36.928   8.875  11.989
65370W        W33700   0.365   3.399   1.230
65371W        W33701  44.426  41.363   2.312
65372W        W33702  21.195  16.270  13.356
65373W        W33703  24.655  24.010   2.818
65374W        W33704  19.621  30.541  12.545
65375W        W33705  34.581  18.749   0.929
65376W        W33706  40.972   2.919  11.915
65377W        W33707   9.211  26.991  12.904
65378W        W33708  21.196  29.919   1.368
65379W        W33709   3.285  36.992   3.655
65380W        W33710  36.369   1.476   1.828
65381W        W33711   8.365   7.189   1.701
65382W        W33712  27.969  31.939   3.265
65383W        W33713  38.021  40.363  13.435
65384W        W33714  41.834  38.958   0.448
65385W        W33715  16.261   1.829  10.587
65386W        W33716   9.702   4.910  11.435
65387W        W33717  33.397  18.558   5.308
65388W        W33718  39.890   0.269  12.546
65389W        W33719   1.865   4.272   2.353
65390W        W33720  29.424  36.518   4.231
65391W        W33721  13.288  40.417   2.414
65392W        W33722   1.284  33.496  13.528
65393W        W33723  19.104   5.236  11.410
65394W        W33724   5.931  25.482  11.419
65395W        W33725  24.054   8.710  10.994
65396W        W33726   5.783   8.745  10.432
65397W        W33727  34.399  26.967  14.506
65398W        W33728  16.274  43.473  14.303
65399W        W33729  29.538  20.704   1.832
65400W        W33730  10.294  16.789  13.854
65401W        W33731  36.073  11.739  13.959
65402W        W33732   7.288  18.570   3.272
65403W        W33733   7.711  23.728  12.441
65404W        W33734  32.418   8.395   4.607
65405W        W33735  23.556  27.946  11.120
65406W        W33736  13.753  21.515   2.243
65407W        W33737  31.639  26.689  13.431
65408W        W33738  27.115   6.395   0.330
65409W        W33739   0.403   7.907   3.838
65410W        W33740   9.668  13.234   3.654
65411W        W33741  31.920  34.913  14.321
65412W        W33742  19.647  33.393   0.405
65413W        W33743  36.947  28.982   2.886
65414W        W33744  18.640  37.930  10.918
65415W        W33745  44.899  42.794   0.373
65416W        W33746   5.248  11.199  11.505
65417W        W33747   9.202  16.221   1.287
65418W        W33748  24.169  29.046  11.125
65419W        W33749  42.435  10.264   0.750
65420W        W33750  12.704  31.019  12.365
65421W        W33751   3.306  15.581  12.015
65422W        W33752  26.469  22.570   0.753
65423W        W33753   3.947  32.617   3.789
65424W        W33754  12.268  40.882  10.622
65425W        W33755   8.206  20.769  11.856
65426W        W33756  25.106  18.566   2.283
65427W        W33757  11.210   3.711   4.645
65428W        W33758  11.233  10.760   3.363
65429W        W33759  28.998  33.543   1.909
65430W        W33760  41.371  33.968   1.770
65431W        W33761  32.047  31.897  11.005
65432W        W33762  25.059  35.089   2.678
65433W        W33763  34.114   8.289  12.358
65434W        W33764  14.117   6.248   1.300
65435W        W33765   5.342  13.141   2.739
65436W        W33766  34.921  27.665   0.787
65437W        W33767   4.778  10.700   2.845
65438W        W33768  11.147   5.818  14.404
65439W        W33769  39.020  18.775   1.818
65440W        W33770   5.363  13.219   3.170
65441W        W33771  36.936   0.954   2.693
65442W        W33772  31.113  15.090   1.329
65443W        W33773  17.790  28.604   3.147
65444W        W33774  15.125  27.531   2.780
65445W        W33775  19.194  12.139  14.476
65446W        W33776   7.340   0.946  10.579
65447W        W33777  20.593   0.471   1.276
65448W        W33778  44.816   0.419   0.961
65449W        W33779  23.674  27.023  12.056
65450W        W33780  34.984  10.225  14.906
65451W        W33781  32.013  25.468  12.084
65452W        W33782  20.577  31.954  10.049
65453W        W33783  10.384   2.346  10.934
65454W        W33784  35.580   4.212   1.337
65455W        W33785  31.520  17.273   4.139
65456W        W33786   9.865  21.127  12.946
65457W        W33787  24.592  31.581   3.767
65458W        W33788  19.536   0.402   2.720
65459W        W33789  29.028  39.328  11.997
65460W        W33790  40.465  19.269  14.318
65461W        W33791  20.746   3.359   1.860
65462W        W33792   0.984  18.654   3.270
65463W        W33793  28.125  39.950   2.868
65464W        W33794  15.597  18.548   1.262
65465W        W33795  40.946   2.892  10.592
65466W        W33796  13.285   2.471   4.668
65467W        W33797   9.339  34.104   3.328
65468W        W33798  32.491  37.011   0.264
65469W        W33799  29.158   3.360   1.244
65470W        W33800  44.409   5.866  10.538
65471W        W33801  22.635   7.910   1.885
65472W        W33802  27.112   6.250  12.970
65473W        W33803  35.859  43.350  14.501
65474W        W33804  43.512  30.001   0.262
65475W        W33805  12.696  22.723  12.009
65476W        W33806  26.499   8.881  14.021
65477W        W33807  29.639  22.079  13.503
65478W        W33808  23.206  22.134   0.319
65479W        W33809  19.278   2.869  12.874
65480W        W33810  15.209  19.774  10.518
65481W        W33811  30.474  25.693  12.008
65482W        W33812  17.187  42.841   3.632
65483W        W33813   0.388   0.294   4.733
65484W        W33814  25.626  30.521   4.741
65485W        W33815  23.650  34.542  12.054
65486W        W33816   1.814   1.257  13.935
65487W        W33817  18.081   0.295   2.348
65488W        W33818   1.304  11.827  12.835
65489W        W33819  42.525  44.496  11.612
65490W        W33820   7.330  30.513  12.492
65491W        W33821  33.912  12.362   2.667
65492W        W33822  13.199  11.291   0.365
65493W        W33823  36.365  21.681  13.051
65494W        W33824  37.403   7.292   4.650
65495W        W33825  14.824  16.746  14.777
65496W        W33826   8.871  32.013   0.349
65497W        W33827   0.830  18.696   0.775
65498W        W33828  26.634  44.816  12.906
65499W        W33829  39.812  41.516   0.883
65500W        W33830   0.403  40.853   0.967
65501W        W33831  18.204   0.399   3.196
65502W        W33832  42.825  24.028  10.914
65503W        W33833  15.298  28.465  11.938
65504W        W33834  15.226   9.857  11.454
65505W        W33835  14.114  10.705  13.064
65506W        W33836  29.921  36.937  14.850
65507W        W33837  35.928  35.603   3.718
65508W        W33838  22.091   9.392   0.838
65509W        W33839  15.734  43.391   3.232
65510W        W33840  19.707  15.582  13.992
65511W        W33841   6.865  16.220   0.866
65512W        W33842  21.078  10.295  13.949
65513W        W33843  26.695  39.852  13.363
65514W        W33844  11.255  34.049  10.526
65515W        W33845  38.838  29.105   1.218
65516W        W33846  27.490   9.156   2.673
65517W        W33847  11.660  15.282   9.978
65518W        W33848  32.593  24.587   3.634
65519W        W33849   2.376  34.044   4.781
65520W        W33850  43.891  15.598   1.262
65521W        W33851  35.531  16.799   1.337
65522W        W33852   9.703  14.271   3.819
65523W        W33853  41.011  31.405  11.925
65524W        W33854  29.919  31.121  10.460
65525W        W33855  35.103  27.537   4.649
65526W        W33856  12.847  24.990   3.229
65527W        W33857   5.849  32.030   4.259
65528W        W33858  37.571  18.266   4.346
65529W        W33859  31.929  16.622  12.512
65530W        W33860  25.967  31.567   3.328
65531W        W33861  15.318  17.581   3.219
65532W        W33862  20.561   2.447  12.477
65533W        W33863  39.986  34.944   0.849
65534W        W33864   4.843  19.763   4.662
65535W        W33865  14.253  19.590  11.042
65536W        W33866  27.069  36.012  12.960
65537W        W33867  28.647  42.476  11.012
65538W        W33868   7.216   8.751  13.973
65539W        W33869  22.556   5.410  14.876
65540W        W33870  22.167  38.899   0.289
65541W        W33871  38.366  26.486  10.979
65542W        W33872  16.752  22.739  13.028
65543W        W33873   6.308  42.010   0.911
65544W        W33874  14.323  25.185  11.025
65545W        W33875  40.399   8.823   3.782
65546W        W33876  32.504   6.883   4.787
65547W        W33877  14.746  39.026  11.587
65548W        W33878  12.714  33.524   3.342
65549W        W33879   0.890  24.144  10.464
65550W        W33880  24.033  28.641   0.415
65551W        W33881  41.000  33.995   4.149
65552W        W33882  41.036   8.250   3.736
65553W        W33883  14.801   1.287   1.886
65554W        W33884   7.298  42.006   1.862
65555W        W33885   9.158  32.602  13.933
65556W        W33886  28.662  26.995  13.831
65557W        W33887  39.015  16.119   0.345
65558W        W33888  32.130  39.957   2.349
65559W        W33889  20.555  20.097  14.030
65560W        W33890  26.127  29.584   1.887
65561W        W33891  35.427  17.151   1.285
65562W        W33892  10.876  21.729   3.683
65563W        W33893  36.510  32.433   2.713
65564W        W33894   7.843  39.935  12.414
65565W        W33895  11.308  16.718  11.002
65566W        W33896  31.049  19.219  10.533
65567W        W33897  38.447   5.336   2.181
65568W        W33898   3.252  15.214  12.850
65569W        W33899  30.479  28.523  12.453
65570W        W33900  33.996  30.641  11.519
65571W        W33901  43.002  26.118  10.505
65572W        W33902  16.731  21.528   0.803
65573W        W33903  26.208  30.928   2.228
65574W        W33904  35.515  43.785   4.286
65575W        W33905   5.318   0.267  14.338
65576W        W33906  16.781   2.413   4.267
65577W        W33907  27.194  12.798  11.512
65578W        W33908  35.946   9.779  12.859
65579W        W33909   9.702  32.621  14.918
65580W        W33910  24.212  18.569  11.463
65581W        W33911  28.173  32.593   3.241
65582W        W33912  43.875  36.921  11.005
65583W        W33913  22.172  42.397   1.331
65584W        W33914  23.498  22.021   4.829
65585W        W33915   4.716  23.118   3.232
65586W        W33916   9.172  43.500   0.798
65587W        W33917   7.744  18.141  14.766
65588W        W33918  25.684   8.705   5.209
65589W        W33919  42.945   2.322  12.078
65590W        W33920  12.666  22.186  13.475
65591W        W33921  32.108  20.094  14.443
65592W        W33922  11.645  40.340  12.963
65593W        W33923  14.265   6.859  13.852
65594W        W33924  38.021  12.282  11.025
65595W        W33925  38.331  44.438  11.407
65596W        W33926  26.516  10.234   4.617
65597W        W33927  21.605  27.628  10.604
65598W        W33928  25.165  17.768   1.722
65599W        W33929   6.406  31.151   3.823
65600W        W33930   5.194   5.877  13.328
65601W        W33931   5.310   9.714  14.909
65602W        W33932  23.607  35.862   3.843
65603W        W33933  27.657  39.934  11.378
65604W        W33934  12.301  18.626  11.544
65605W        W33935   1.305  23.677  11.893
65606W        W33936  20.204   0.954   2.414
65607W        W33937  22.520  17.747   3.636
65608W        W33938  28.073  26.166  12.998
65609W        W33939  28.067   9.358  13.000
65610W        W33940  35.934  29.547  14.973
65611W        W33941  13.184  39.009   3.753
65612W        W33942  14.638   7.905   2.243
65613W        W33943  34.909  22.614  10.947
65614W        W33944  18.100   1.365  13.366
65615W        W33945  24.065  27.522   2.695
65616W        W33946  36.459  15.737   2.381
65617W        W33947   2.923  33.556  13.343
65618W        W33948   7.253  13.198   3.693
65619W        W33949  27.049  40.820  14.339
65620W        W33950   6.903  11.264  12.420
65621W        W33951  19.644  37.082  14.997
65622W        W33952  10.204  13.786  13.042
65623W        W33953  29.971  11.713   2.247
65624W        W33954   2.889  32.917  11.961
65625W        W33955  24.025  24.154  12.865
65626W        W33956  16.138   0.298  13.857
65627W        W33957  31.118  29.504  10.961
65628W        W33958  33.537   0.932   5.203
65629W        W33959  29.927  24.041  10.894
65630W        W33960  36.534   4.872   0.746
65631W        W33961  19.045  36.589   2.724
65632W        W33962  44.301  17.721   4.128
65633W        W33963  42.417   3.920  13.871
65634W        W33964   5.740   8.164   4.134
65635W        W33965   0.317  34.535  13.506
65636W        W33966   9.694  26.127   4.742
65637W        W33967  41.368   8.277  13.851
65638W        W33968  16.663  19.141   0.777
65639W        W33969  16.724  43.333  13.798
65640W        W33970  14.803  14.327  12.066
65641W        W33971   0.888  25.000  12.371
65642W        W33972  29.137  21.247   3.206
65643W        W33973  38.434   1.927   2.321
65644W        W33974  27.096  10.653   1.769
65645W        W33975  12.749  40.392  10.573
65646W        W33976  40.489  36.088   4.288
65647W        W33977  36.888  34.918  11.885
65648W        W33978  26.029  44.813   0.866
65649W        W33979  21.544  14.322   4.331
65650W        W33980  13.143  19.705  14.834
65651W        W33981   0.821   8.815  13.478
65652W        W33982   8.714  26.000  10.887
65653W        W33983   0.855  41.294  13.885
65654W        W33984   3.885  37.062   2.732
65655W        W33985  37.078  13.231  11.953
65656W        W33986  27.057   2.765  10.968
65657W        W33987  13.294  34.475  10.990
65658W        W33988  27.449  29.485  13.003
65659W        W33989  34.038  38.393  12.556
65660W        W33990  22.623  32.096  14.911
65661W        W33991  12.726  13.206   2.706
65662W        W33992  22.017  10.269   4.646
65663W        W33993   5.386  41.966   0.852
65664W        W33994  16.651   9.330  10.558
65665W        W33995   1.821  14.727   0.950
65666W        W33996  29.032  16.667   2.207
65667W        W33997  32.140  15.270  10.577
65668W        W33998  17.717  16.570   2.378
65669W        W33999   0.832  18.664   2.342
65670W        W34000   4.212  17.674  11.080
65671W        W34001  15.137  30.056  11.450
65672W        W34002  26.153  32.126   2.260
65673W        W34003  40.340   1.822   4.838
65674W        W34004   4.242   3.430  11.608
65675W        W34005  40.442  37.510   0.966
65676W        W34006  32.581  27.477   2.386
65677W        W34007  19.550   5.298  14.028
65678W        W34008  34.970  14.276  11.465
65679W        W34009  26.963   3.849  13.543
65680W        W34010  31.405  16.808   1.314
65681W        W34011   7.871   8.796   1.788
65682W        W34012  27.096  26.190  11.533
65683W        W34013  25.082  38.498  14.769
65684W        W34014  26.181  42.422  13.425
65685W        W34015   4.319  42.799   0.253
65686W        W34016   4.246   7.717   4.786
65687W        W34017   5.762  38.550  11.500
65688W        W34018  18.689  30.083  11.053
65689W        W34019   1.877  26.515   3.657
65690W        W34020  28.572  31.010   2.767
65691W        W34021  16.792  44.835   3.368
65692W        W34022  20.093  34.088   3.221
65693W        W34023  41.518  35.532   1.853
65694W        W34024  26.056   2.304   2.181
65695W        W34025  17.620  31.457   3.642
65696W        W34026   3.710  36.967  14.351
65697W        W34027  26.553  25.576   2.181
65698W        W34028  39.959  15.291  14.478
65699W        W34029  21.175  40.000   3.681
65700W        W34030  20.103  25.000   0.827
65701W        W34031  33.101  28.477   3.164
65702W        W34032  29.089   0.362  12.436
65703W        W34033   8.759  12.683  13.380
65704W        W34034  36.021  16.694   3.146
65705W        W34035  12.663  19.171   4.809
65706W        W34036  18.206  31.107  10.621
65707W        W34037   3.908  13.105  11.441
65708W        W34038   9.708  32.518  14.015
65709W        W34039   2.305  29.117  10.917
65710W        W34040  29.611  20.156  12.851
65711W        W34041  19.742  25.570   5.081
65712W        W34042  20.606  28.451   4.717
65713W        W34043  10.797  23.075  11.398
65714W        W34044  37.887  20.248   0.254
65715W        W34045  17.683  17.155  14.310
65716W        W34046  13.319  35.000   3.342
65717W        W34047   9.319  26.045   1.372
65718W        W34048  19.256   3.322   4.285
65719W        W34049  22.118  17.097  14.343
65720W        W34050   1.375  36.549  13.917
65721W        W34051  34.110  42.284   2.264
65722W        W34052  42.307   4.423  10.436
65723W        W34053  20.271  12.194   0.951
65724W        W34054  40.022   0.869   1.852
65725W        W34055   9.261  36.480  10.961
65726W        W34056  37.036   9.206   3.657
65727W        W34057  29.613  42.032  13.922
65728W        W34058  38.936  14.338   9.926
65729W        W34059  41.947   8.858  12.016
65730W        W34060  23.692  33.967   1.259
65731W        W34061  11.149  22.999   0.823
65732W        W34062  26.495  27.623  14.507
65733W        W34063   5.402   1.964   4.794
65734W        W34064   7.289   6.679  12.067
65735W        W34065  38.561  32.085  14.776
65736W        W34066   3.728  29.628   3.161
65737W        W34067  27.122  43.812  14.364
65738W        W34068   1.268  37.509  14.492
65739W        W34069  10.174   6.426   3.235
65740W        W34070  21.631   9.165  10.541
65741W        W34071  33.478  41.002   1.891
65742W        W34072  34.563  13.732   4.597
65743W        W34073  14.595  36.909  10.635
65744W        W34074  11.128  33.423  14.287
65745W        W34075  40.815   1.331  13.352
65746W        W34076  24.171  23.626   3.827
65747W        W34077  10.817   8.322   0.744
65748W        W34078  44.880  26.087  11.860
65749W        W34079  10.673  43.496   3.305
65750W        W34080  43.973   8.378   3.773
65751W        W34081  43.426   8.171  13.872
65752W        W34082  10.263  26.163  13.352
65753W        W34083  12.843  16.299  11.119
65754W        W34084  15.236  13.213  10.945
65755W        W34085  35.006  38.489   0.778
65756W        W34086  15.235  21.095   4.759
65757W        W34087  44.787  41.985  12.043
65758W        W34088  43.922  32.072  11.437
65759W        W34089  11.191  14.752  14.469
65760W        W34090  36.561  41.015   0.912
65761W        W34091  34.432  35.363   0.355
65762W        W34092  41.960  34.557  10.624
65763W        W34093  12.616  33.595   0.270
65764W        W34094  17.631  12.187  13.986
65765W        W34095   1.732  22.606   0.329
65766W        W34096  25.576  19.569  11.432
65767W        W34097   9.826  35.389  12.828
65768W        W34098  28.627  42.340   4.148
65769W        W34099  34.985   4.204  14.433
65770W        W34100  27.666  23.712  12.580
65771W        W34101  31.915  11.806   2.285
65772W        W34102  29.451  28.565   3.372
65773W        W34103  14.291  14.276   0.356
65774W        W34104  35.526   2.944  11.571
65775W        W34105  15.688   6.756   0.941
65776W        W34106   7.280  34.918   3.248
65777W        W34107  44.482   5.268   3.658
65778W        W34108  19.055  25.148  14.949
65779W        W34109  38.364  41.428   3.822
65780W        W34110  29.170   9.763   1.819
65781W        W34111  20.056  40.312   0.368
65782W        W34112  18.199  32.406   4.188
65783W        W34113   7.238  38.385   0.875
65784W        W34114   1.747  24.559   2.898
65785W        W34115  20.717   3.458   2.282
65786W        W34116  10.335   5.391  11.478
65787W        W34117  40.395  22.210  12.893
65788W        W34118   9.755  32.110   1.757
65789W        W34119   8.765  28.012   1.451
65790W        W34120  42.409  12.262  13.370
65791W        W34121  37.336  35.880   4.199
65792W        W34122  10.850   1.377   4.131
65793W        W34123  42.903  31.978  12.835
65794W        W34124  31.904   7.731   4.600
65795W        W34125  34.905  24.200  14.507
65796W        W34126  12.849  37.949  14.491
65797W        W34127   6.882  40.367  12.924
65798W        W34128  28.153  29.552   0.964
65799W        W34129  34.936  20.056  12.836
65800W        W34130  28.071  23.239  11.010
65801W        W34131  14.700  10.280   4.294
65802W        W34132  35.964   7.829   0.263
65803W        W34133  36.034  27.108   1.703
65804W        W34134  38.379  41.489   2.341
65805W        W34135  27.139  42.853  12.514
65806W        W34136  35.888  19.569  14.338
65807W        W34137  20.562  21.650  14.423
65808W        W34138   2.281   5.852   1.894
65809W        W34139  44.800  39.345   1.714
65810W        W34140  30.655  25.565  11.529
65811W        W34141  13.788  22.998   2.683
65812W        W34142  14.673   8.808   1.784
65813W        W34143   5.301   1.311  13.025
65814W        W34144   5.815  14.325  10.460
65815W        W34145  42.925  37.409   2.192
65816W        W34146  31.604  25.969   0.319
65817W        W34147  32.585  15.805   1.418
65818W        W34148  17.798  30.967  14.387
65819W        W34149  44.778  44.985   1.367
65820W        W34150   4.340  42.827  11.029
65821W        W34151   7.780  23.555   4.763
65822W        W34152  42.829  13.671  10.895
65823W        W34153  17.302  42.792   2.356
65824W        W34154  34.089   6.778  13.430
65825W        W34155  13.141   7.711   2.295
65826W        W34156  37.021  23.135   2.216
65827W        W34157  25.214  14.698  13.470
65828W        W34158  19.233  13.649  11.974
65829W        W34159  44.453  13.801   2.709
65830W        W34160  25.169  15.296   2.341
65831W        W34161  32.503  40.538   2.182
65832W        W34162  37.860   4.839   4.289
65833W        W34163  20.222  19.127   0.444
65834W        W34164   0.924  27.071  11.551
65835W        W34165  39.352  28.080  13.023
65836W        W34166  39.545   4.443  13.899
65837W        W34167  44.350  13.171  11.503
65838W        W34168  22.601  29.007   2.831
65839W        W34169  38.837  29.439  13.937
65840W        W34170  27.481  40.027  13.449
65841W        W34171  11.848  14.608  14.369
65842W        W34172  30.054  28.949   4.748
65843W        W34173   7.697  11.860   3.219
65844W        W34174   1.808  35.978   2.303
65845W        W34175   6.763  42.499  14.938
65846W        W34176  31.491  40.810   0.916
65847W        W34177  44.832  22.713  12.919
65848W        W34178  19.114  30.632   1.320
65849W        W34179  26.465  21.078  11.048
65850W        W34180  14.714  31.004  14.884
65851W        W34181  22.589  40.354  14.941
65852W        W34182  13.119  19.555  11.086
65853W        W34183  34.911  20.644  14.935
65854W        W34184  21.563   7.369  10.894
65855W        W34185  16.214  42.287   2.692
65856W        W34186  13.602  18.726   3.855
65857W        W34187  13.213  37.946  12.960
65858W        W34188  38.457  22.219  14.822
65859W        W34189  23.583   1.242  10.968
65860W        W34190   5.307  13.123  12.932
65861W        W34191   4.944  17.621   3.223
65862W        W34192  20.751  11.648   4.646
65863W        W34193  28.057  24.129   4.346
65864W        W34194  26.694  18.721  11.383
65865W        W34195   5.801   1.326   0.267
65866W        W34196   4.251  22.199  12.878
65867W        W34197  18.106  20.522  12.095
65868W        W34198  37.933  17.570  13.822
65869W        W34199  12.846   1.733   2.392
65870W        W34200  28.545  15.676  10.597
65871W        W34201  31.962  13.211  13.886
65872W        W34202   9.215  35.570   4.788
65873W        W34203   7.794  44.450   1.437
65874W        W34204  27.609  27.028  14.895
65875W        W34205  41.345  32.080  11.467
65876W        W34206  22.740   7.307   9.611
65877W        W34207   3.926  22.698  10.583
65878W        W34208  27.159   1.475  14.816
65879W        W34209  17.207   9.339  14.027
65880W        W34210  27.543  38.025  10.642
65881W        W34211  41.344   2.915   1.408
65882W        W34212  13.677  19.681  14.399
65883W        W34213  41.788  25.482  13.988
65884W        W34214  21.745  18.278  11.514
65885W        W34215  22.125  40.451  11.601
65886W        W34216  30.544  37.946   0.937
65887W        W34217  23.627  19.240  13.911
65888W        W34218  31.550  31.603  13.838
65889W        W34219  36.999   8.678  11.467
65890W        W34220  32.916  26.530  11.465
65891W        W34221  29.076  19.663   0.246
65892W        W34222  23.607  10.735   2.341
65893W        W34223   9.648  37.035   2.345
65894W        W34224  44.322  43.322  13.039
65895W        W34225  12.667  24.495   3.709
65896W        W34226   0.842   7.327   4.732
65897W        W34227  21.228  19.181  12.530
65898W        W34228  32.910  38.823   4.662
65899W        W34229  19.283   1.888   1.272
65900W        W34230  23.496  20.682   1.699
65901W        W34231  38.481  31.023   2.828
65902W        W34232  11.781   2.322   1.894
65903W        W34233  27.599  10.142   9.512
65904W        W34234  21.182  18.646  12.379
65905W        W34235  33.580  20.738   4.294
65906W        W34236   2.379   4.445   2.749
65907W        W34237   9.234  14.127   5.086
65908W        W34238  16.172  28.167   1.418
65909W        W34239  34.076   8.841   4.808
65910W        W34240  10.180  16.243   0.932
65911W        W34241  11.328  40.854   3.788
65912W        W34242  39.472  30.603  12.950
65913W        W34243  15.599   5.881  11.598
65914W        W34244  41.902  16.682   1.294
65915W        W34245  27.613  43.771  11.597
65916W        W34246  41.843  29.089   3.325
65917W        W34247  12.841  24.498  14.887
65918W        W34248  33.904   7.211   0.303
65919W        W34249  34.489   2.346   2.368
65920W        W34250  24.229  22.650   0.875
65921W        W34251  25.699  29.027  11.548
65922W        W34252  31.091  44.462   2.849
65923W        W34253  18.097  21.676  13.353
65924W        W34254  42.287  41.328  12.404
65925W        W34255  14.315  34.975  11.932
65926W        W34256  18.249   8.782  11.577
65927W        W34257   5.335  34.080   3.197
65928W        W34258  25.111   6.202  11.001
65929W        W34259  39.442  29.646  12.543
65930W        W34260  14.140  39.521   3.253
65931W        W34261  23.030  23.582   3.640
65932W        W34262   9.834   1.761   0.817
65933W        W34263  16.671  43.917  10.607
65934W        W34264   6.752  35.441   3.297
65935W        W34265  17.221  43.424   1.760
65936W        W34266  27.522  26.193  12.854
65937W        W34267  12.804  37.002   2.225
65938W        W34268  13.635  21.022  14.761
65939W        W34269   1.774   7.302  12.975
65940W        W34270  11.634   3.783  10.467
65941W        W34271  43.513  23.188   4.344
65942W        W34272  16.226   0.897   1.295
65943W        W34273  17.113  13.146  12.532
65944W        W34274  12.259   4.397  11.387
65945W        W34275  40.998  26.590  10.913
65946W        W34276  21.074  41.525  12.523
65947W        W34277  33.128  30.643   2.682
65948W        W34278  35.109  17.226  13.498
65949W        W34279  32.435  29.475   3.266
65950W        W34280  14.635   9.653   0.420
65951W        W34281   8.760   5.372  13.014
65952W        W34282   7.833  32.984   4.791
65953W        W34283  36.472  18.569   3.705
65954W        W34284  30.910  27.642   4.301
65955W        W34285  38.533  40.371   1.427
65956W        W34286  16.175   3.833   4.230
65957W        W34287  18.624  30.948  14.853
65958W        W34288  41.476  40.879  11.419
65959W        W34289  23.001  24.082   0.775
65960W        W34290   3.749  31.907   0.453
65961W        W34291  31.914   5.245   0.732
65962W        W34292  19.777   7.677  11.964
65963W        W34293  28.533  34.987   1.711
65964W        W34294  23.557  39.030  12.344
65965W        W34295   7.254  24.118   1.431
65966W        W34296  44.785   3.370   3.350
65967W        W34297   0.901  32.063  12.490
65968W        W34298  25.139   3.748  11.868
65969W        W34299  38.881   0.864   3.834
65970W        W34300   4.768  22.088   2.221
65971W        W34301  13.684  28.040   4.132
65972W        W34302  37.377  28.168   3.860
65973W        W34303  38.424  16.666  13.957
65974W        W34304  41.899  24.141   4.185
65975W        W34305  31.515  25.608  10.635
65976W        W34306  12.849  16.806   4.288
65977W        W34307  32.126  38.885   3.678
65978W        W34308  17.789  14.255   2.831
65979W        W34309  32.584  13.243   4.704
65980W        W34310  24.989  37.995   0.376
65981W        W34311  11.714   4.755  10.580
65982W        W34312  28.653  21.617   0.787
65983W        W34313  41.465  43.292   3.160
65984W        W34314  20.256  36.955  11.928
65985W        W34315  23.637  19.161   1.804
65986W        W34316  29.456  42.897   2.848
65987W        W34317  22.703   9.231   9.524
65988W        W34318   7.888   1.479  11.928
65989W        W34319  26.599   5.362   1.450
65990W        W34320  10.348  35.417   3.637
65991W        W34321  29.591  30.114   4.177
65992W        W34322  30.563  12.223  14.789
65993W        W34323  29.565   7.800  12.828
65994W        W34324   5.706   1.420  14.854
65995W        W34325  19.535  17.739   4.767
65996W        W34326  43.503  39.319   1.244
65997W        W34327  12.853  17.206  10.479
65998W        W34328  11.783  13.719  12.898
65999W        W34329   6.418   2.366  10.514
66000W        W34330  33.065  37.926   1.867
66001W        W34331   3.286   4.449   2.895
66002W        W34332  27.586   6.790   0.960
66003W        W34333  41.868  38.045  12.948
66004W        W34334  26.997  34.871  12.850
66005W        W34335  39.835  41.385  14.977
66006W        W34336   1.891  30.135   2.666
66007W        W34337   9.260  16.316  11.510
66008W        W34338   1.834  23.524   3.369
66009W        W34339   0.911  32.071   1.847
66010W        W34340  38.375  35.367   0.333
66011W        W34341  29.043  35.467  13.871
66012W        W34342  25.577  12.248  14.808
66013W        W34343  26.975   7.370   1.797
66014W        W34344  10.280  27.617   4.255
66015W        W34345   3.404  15.260   3.196
66016W        W34346  22.579   9.293   3.346
66017W        W34347  30.644  15.258   0.442
66018W        W34348   6.366  13.770   4.202
66019W        W34349   5.209  29.668  11.515
66020W        W34350  43.898  21.694  12.865
66021W        W34351   2.381  23.037  13.370
66022W        W34352  27.600  25.474  13.914
66023W        W34353  38.900  32.997  11.374
66024W        W34354  36.499  24.644   1.411
66025W        W34355  42.007  13.278  10.967
66026W        W34356  39.974   0.795   2.820
66027W        W34357  20.053  41.862   1.809
66028W        W34358  12.789  16.720  10.615
66029W        W34359   2.426  17.637   3.751
66030W        W34360  12.194   7.812   0.482
66031W        W34361  32.472  42.934  14.021
66032W        W34362  43.872  21.113  13.859
66033W        W34363  32.549   7.755   1.875
66034W        W34364  39.961  37.446   9.922
66035W        W34365  28.104  12.232  11.525
66036W        W34366  12.701   1.309   2.679
66037W        W34367  42.952  19.623  14.468
66038W        W34368   7.208  44.806  13.061
66039W        W34369  40.849  10.741   2.229
66040W        W34370   9.195  36.874  13.055
66041W        W34371  20.523  32.529  14.775
66042W        W34372  29.060  39.553   3.805
66043W        W34373  19.561  23.632  12.494
66044W        W34374  32.891  25.004   2.234
66045W        W34375  20.075  13.719   3.303
66046W        W34376   5.383   8.209   4.714
66047W        W34377   3.298  18.747  12.889
66048W        W34378  23.681  35.917  12.561
66049W        W34379   5.902  29.076  14.007
66050W        W34380   9.264  33.559   0.260
66051W        W34381  40.976  41.017  10.631
66052W        W34382  27.006  25.713   2.371
66053W        W34383  43.932   9.861  11.080
66054W        W34384  17.281  32.633  10.943
66055W        W34385  22.672   3.327   0.460
66056W        W34386  18.625  19.778   3.728
66057W        W34387  21.170  15.791  14.025
66058W        W34388  44.322  35.600   0.849
66059W        W34389  32.414  26.066   4.129
66060W        W34390  24.048  31.938  10.596
66061W        W34391   0.902  31.966   3.200
66062W        W34392  10.823   1.927  10.953
66063W        W34393  23.986  38.450   3.322
66064W        W34394  29.637  10.168  12.548
66065W        W34395   1.750  39.399  13.058
66066W        W34396  36.914   3.230  12.373
66067W        W34397  13.168  29.463   0.265
66068W        W34398   2.466  43.287  11.994
66069W        W34399   2.240  28.542  11.512
66070W        W34400   7.854   3.215  12.855
66071W        W34401   0.759  17.077  13.362
66072W        W34402   2.363   1.353  13.431
66073W        W34403  34.552  14.763  13.353
66074W        W34404   2.878  29.608   2.679
66075W        W34405  31.935  43.341  13.427
66076W        W34406  41.038  26.624   1.774
66077W        W34407  31.027  44.401  14.908
66078W        W34408  20.223  21.571  10.481
66079W        W34409   0.970  10.784  14.421
66080W        W34410  11.796  13.711   1.430
66081W        W34411  33.924  38.363  11.515
66082W        W34412   2.348  34.120  14.924
66083W        W34413  28.672  26.636   3.377
66084W        W34414  24.211  12.359   3.297
66085W        W34415  44.969   2.802   2.859
66086W        W34416  13.307  11.290  10.907
66087W        W34417  14.334   2.873   3.712
66088W        W34418  39.926  44.370  13.394
66089W        W34419  20.554  37.995   1.245
66090W        W34420  36.068   7.859   3.650
66091W        W34421  32.406  28.636  12.386
66092W        W34422  13.310  36.002   3.321
66093W        W34423  15.663  40.323   2.227
66094W        W34424  37.533   6.717   2.773
66095W        W34425   1.294  13.714  11.910
66096W        W34426  21.611   8.386  14.337
66097W        W34427   0.954  34.112  14.459
66098W        W34428   0.377  44.318  13.032
66099W        W34429  19.160  34.595  13.399
66100W        W34430  17.701  12.348  13.047
66101W        W34431  39.476   0.289   4.605
66102W        W34432  29.548  40.978  10.432
66103W        W34433  19.593  36.551  12.072
66104W        W34434  44.883  35.089   3.761
66105W        W34435  18.198  29.096   0.263
66106W        W34436  35.555  30.559  12.865
66107W        W34437  27.091  17.120   3.148
66108W        W34438  20.638  37.558   1.246
66109W        W34439  29.921  14.257  11.566
66110W        W34440  32.133  44.889  11.006
66111W        W34441  22.222  13.642   0.282
66112W        W34442  24.982  17.596  12.829
66113W        W34443  18.622  39.061   1.426
66114W        W34444  36.998  39.865   1.904
66115W        W34445  20.028   3.788  14.841
66116W        W34446  12.314  41.415  12.536
66117W        W34447  38.378  29.020  12.993
66118W        W34448  40.391  17.303   0.361
66119W        W34449  24.484  13.210   3.842
66120W        W34450  10.248  44.875   1.767
66121W        W34451  12.164  25.094   0.309
66122W        W34452  11.645  11.654  13.052
66123W        W34453  29.033  40.356   1.828
66124W        W34454  31.988   1.860   1.330
66125W        W34455  28.062  41.009  11.587
66126W        W34456  26.689  25.078  13.804
66127W        W34457   7.757  14.107  14.905
66128W        W34458  30.417   6.811  11.991
66129W        W34459  41.788  44.983   0.872
66130W        W34460  17.148   0.886  12.403
66131W        W34461  42.304   6.824  13.809
66132W        W34462  14.293  43.346  14.285
66133W        W34463  15.228  13.663  13.992
66134W        W34464  18.223  13.720  13.540
66135W        W34465  30.132  21.739   1.885
66136W        W34466  10.809  35.526  14.869
66137W        W34467  31.476  38.933   1.221
66138W        W34468  24.526  42.417   0.267
66139W        W34469  12.753  23.578  14.873
66140W        W34470  12.234  41.833  11.938
66141W        W34471  11.301  17.721  12.044
66142W        W34472   7.804  29.463  13.456
66143W        W34473  34.383  11.785  10.928
66144W        W34474  30.064  34.950  12.499
66145W        W34475  35.460  44.979  12.857
66146W        W34476  21.637   4.326   4.174
66147W        W34477  19.643  42.897  11.948
66148W        W34478  10.298   0.880  14.016
66149W        W34479  34.117  18.620   0.787
66150W        W34480   1.734  38.417  10.412
66151W        W34481   7.907  37.541   0.746
66152W        W34482  35.504  31.904   1.239
66153W        W34483  44.811  16.575   4.816
66154W        W34484  29.014  39.498   2.183
66155W        W34485  22.212   6.826   4.214
66156W        W34486   7.190  34.413  14.412
66157W        W34487  27.522  22.535   3.740
66158W        W34488  40.914   0.967  13.360
66159W        W34489  14.791  39.346   0.341
66160W        W34490  16.273  32.920  14.423
66161W        W34491  36.489  36.916  10.638
66162W        W34492  29.967   1.915  13.322
66163W        W34493  38.850  11.342  13.466
66164W        W34494  30.085  17.645   1.766
66165W        W34495  43.836  38.860  11.908
66166W        W34496  21.209  36.419   1.892
66167W        W34497  16.758   7.353  14.504
66168W        W34498   7.717   4.438   3.222
66169W        W34499   1.263  40.960   3.751
66170W        W34500  33.456   8.746   0.877
66171W        W34501  35.097  27.183  10.441
66172W        W34502  15.278   9.887   3.800
66173W        W34503   2.892   7.311   2.239
66174W        W34504  40.936  32.467  11.882
66175W        W34505   6.696  32.554  11.481
66176W        W34506  21.735  30.988  10.634
66177W        W34507  35.560  22.556  10.978
66178W        W34508  16.635  26.614   3.270
66179W        W34509  12.240   7.800   0.963
66180W        W34510  33.024  15.309   4.794
66181W        W34511  32.896  42.784   3.270
66182W        W34512  13.648  16.106  12.843
66183W        W34513  21.528  24.632  13.941
66184W        W34514  36.070  10.669  11.534
66185W        W34515  40.461  16.152  10.601
66186W        W34516  21.627  27.195  14.515
66187W        W34517   1.974  28.086   3.364
66188W        W34518  35.856   4.932   3.699
66189W        W34519   4.910  17.656  13.513
66190W        W34520  22.134  35.996  14.399
66191W        W34521   0.892  28.126   0.748
66192W        W34522  30.960  21.066  13.961
66193W        W34523  27.621   5.291  14.892
66194W        W34524  29.559   8.369   2.286
66195W        W34525  38.875  34.395   1.425
66196W        W34526  19.536  30.125   4.306
66197W        W34527  26.163  19.730   4.197
66198W        W34528  26.059  10.702  13.998
66199W        W34529   8.737   6.816  11.486
66200W        W34530  28.515  29.616   1.411
66201W        W34531   7.350  37.953   0.257
66202W        W34532  13.256  20.044  14.490
66203W        W34533   1.263  23.670  13.034
66204W        W34534  35.852  13.613   4.702
66205W        W34535  43.934  37.945  13.016
66206W        W34536   1.409   6.794  13.846
66207W        W34537  37.930  42.010   0.302
66208W        W34538  13.261  32.477  13.308
66209W        W34539  41.959  13.818   0.843
66210W        W34540  17.574  20.643  10.990
66211W        W34541  24.541  16.616   1.771
66212W        W34542   2.237  11.644  14.322
66213W        W34543  38.533  24.075   1.407
66214W        W34544  42.956  31.126  14.461
66215W        W34545   5.886  13.325  13.410
66216W        W34546   3.775  14.632  14.767
66217W        W34547   7.196  34.872   4.131
66218W        W34548  26.185  34.403  12.862
66219W        W34549  26.973   6.872   4.611
66220W        W34550  44.463  23.638  14.287
66221W        W34551  35.406  16.149   0.342
66222W        W34552   8.174   8.722  13.419
66223W        W34553  41.461  36.356  14.451
66224W        W34554  39.060  22.207  13.356
66225W        W34555  20.201  39.477  12.922
66226W        W34556  26.043  11.677  10.461
66227W        W34557  29.615  22.128  14.880
66228W        W34558   7.868  18.744  12.028
66229W        W34559  32.500  34.410  13.536
66230W        W34560  18.086  16.157   3.669
66231W        W34561  42.993  35.373  14.439
66232W        W34562  27.510  15.698  11.506
66233W        W34563  28.967  33.576   4.151
66234W        W34564  41.899  14.195  11.597
66235W        W34565  31.020  19.646   3.726
66236W        W34566  36.877   8.239   4.203
66237W        W34567  34.610   8.850  12.422
66238W        W34568  34.896   3.737   1.293
66239W        W34569  36.072  17.705  13.414
66240W        W34570  21.711  30.112  11.104
66241W        W34571  28.952  13.146   0.932
66242W        W34572  19.632  15.259   2.898
66243W        W34573  20.754  24.064  12.023
66244W        W34574  17.768  18.695   4.279
66245W        W34575  26.070  18.060   4.825
66246W        W34576  24.682  31.141  10.476
66247W        W34577  43.934  34.070  14.769
66248W        W34578  16.174  14.100  13.322
66249W        W34579  43.797  22.210   4.752
66250W        W34580  30.534  20.248  11.388
66251W        W34581  19.149  14.779   4.259
66252W        W34582   1.294  24.034  13.845
66253W        W34583  15.598  25.020   1.933
66254W        W34584   5.764   7.345  13.864
66255W        W34585  26.061  36.459  14.989
66256W        W34586  10.275  36.002   1.255
66257W        W34587  30.927   3.375   4.792
66258W        W34588  19.761  15.649   2.756
66259W        W34589  25.004  34.057   2.820
66260W        W34590  12.781  27.012  13.796
66261W        W34591  19.574  10.160   0.298
66262W        W34592  20.030   5.439   2.339
66263W        W34593  27.468   2.471   0.328
66264W        W34594  21.089   9.657   1.767
66265W        W34595   7.233  42.318   4.288
66266W        W34596  20.679  37.073  14.777
66267W        W34597  34.509  20.087  12.990
66268W        W34598  29.942  37.949   4.257
66269W        W34599  34.468  40.961   1.299
66270W        W34600  20.709  42.314  12.446
66271W        W34601  20.708  31.565  14.350
66272W        W34602  27.473  40.506  10.640
66273W        W34603  13.128   6.762   0.832
66274W        W34604  21.518  10.726   4.284
66275W        W34605  30.572  25.558   4.179
66276W        W34606  42.517  18.141  13.441
66277W        W34607   8.277  17.601   1.756
66278W        W34608  37.513  44.794   2.243
66279W        W34609  15.319  36.415  11.948
66280W        W34610   7.703  10.639  11.564
66281W        W34611  43.290  28.109  10.422
66282W        W34612  13.303  26.601   3.738
66283W        W34613  25.660  24.554   1.227
66284W        W34614  26.518   4.867   0.426
66285W        W34615  11.689  35.574  10.644
66286W        W34616   9.289   6.254   4.799
66287W        W34617  25.569  21.207   1.921
66288W        W34618  25.013  44.356   4.664
66289W        W34619  14.754   1.412   3.339
66290W        W34620  37.375  29.031  12.830
66291W        W34621   2.877  23.694   4.604
66292W        W34622  29.999  15.643  10.409
66293W        W34623  36.403  18.774  10.631
66294W        W34624  25.680  30.638  14.512
66295W        W34625  34.611  14.172   3.194
66296W        W34626  42.943   5.882  12.393
66297W        W34627  19.155  42.480   3.754
66298W        W34628  25.027  10.343   4.320
66299W        W34629  19.629  26.594   0.801
66300W        W34630  43.884  22.250  14.844
66301W        W34631  20.673  16.688   3.312
66302W        W34632  25.985  44.960   3.675
66303W        W34633   9.223  43.804   4.766
66304W        W34634  25.190  19.110   3.641
66305W        W34635  39.927  13.605   1.256
66306W        W34636  28.633  10.182   2.894
66307W        W34637  10.327   4.708  13.859
66308W        W34638  34.590  32.953  11.408
66309W        W34639  11.858  32.475   3.824
66310W        W34640  34.577  30.508   4.769
66311W        W34641   3.398  11.819   0.750
66312W        W34642   8.323  36.477  14.371
66313W        W34643  42.425  40.503   2.344
66314W        W34644   6.701   7.309   0.382
66315W        W34645  40.941  29.158  13.839
66316W        W34646  39.818   4.812   2.802
66317W        W34647  37.840  42.896  12.492
66318W        W34648  21.153  17.659   3.282
66319W        W34649  42.383  11.349   4.303
66320W        W34650  23.509  28.479   2.235
66321W        W34651  35.920  27.145  13.324
66322W        W34652   3.221  25.098  13.809
66323W        W34653   2.948  20.662  10.602
66324W        W34654  14.812  32.084  13.859
66325W        W34655  13.816   9.365  10.973
66326W        W34656   1.871  25.986  12.471
66327W        W34657  33.010  37.898  11.384
66328W        W34658  11.710  11.851  10.524
66329W        W34659  22.602  32.071  11.550
66330W        W34660  12.142  14.280   3.234
66331W        W34661  36.363   2.418  11.388
66332W        W34662  37.546  26.170  14.316
66333W        W34663   1.816  43.897   4.741
66334W        W34664   7.340  28.154   3.681
66335W        W34665  32.026  10.244   1.778
66336W        W34666  11.278   1.842  10.891
66337W        W34667  34.596  40.392  14.514
66338W        W34668  12.813   9.785   1.794
66339W        W34669  26.529   8.727  12.565
66340W        W34670  29.064  44.964  14.437
66341W        W34671  10.774  17.663   0.738
66342W        W34672  19.642  29.502   1.763
66343W        W34673  18.570  23.604  11.427
66344W        W34674   3.216  11.156  13.313
66345W        W34675  14.137  10.723  13.941
66346W        W34676  18.754   8.231   2.215
66347W        W34677  30.091  30.529  12.961
66348W        W34678  24.030  22.237  13.925
66349W        W34679   0.438   9.288  12.888
66350W        W34680  32.011  32.475   1.444
66351W        W34681  21.518  28.540  12.506
66352W        W34682  33.598   0.780  14.907
66353W        W34683  24.134   7.902  14.381
66354W        W34684   5.316   6.260  13.953
66355W        W34685   5.711  42.776  13.468
66356W        W34686  27.106  33.465   0.848
66357W        W34687  25.966  32.433   1.706
66358W        W34688  30.153  19.553   2.857
66359W        W34689  24.061  38.055  10.478
66360W        W34690  42.866   2.267  13.467
66361W        W34691   1.905  22.168   1.352
66362W        W34692   3.799   9.377   4.654
66363W        W34693  31.485  28.549   0.965
66364W        W34694  16.304  14.175   2.385
66365W        W34695   1.948  41.038  13.906
66366W        W34696   5.793   0.454  11.129
66367W        W34697   3.733   0.965   3.843
66368W        W34698  32.576  34.369   0.821
66369W        W34699  26.183  27.013  13.329
66370W        W34700   9.819  10.202   2.666
66371W        W34701  36.426   5.202   3.804
66372W        W34702  33.964  22.624  12.366
66373W        W34703  26.539   9.291   4.738
66374W        W34704  43.960  27.549  12.945
66375W        W34705  28.999  24.661   3.635
66376W        W34706  14.720  37.086  11.857
66377W        W34707   4.770  13.824  10.996
66378W        W34708  42.841  11.688  14.344
66379W        W34709   2.438  43.393   0.807
66380W        W34710  10.860  11.349  11.373
66381W        W34711   0.772  24.687  12.063
66382W        W34712   5.334  21.216   4.703
66383W        W34713  39.553  24.704   2.719
66384W        W34714  38.494  42.888  12.490
66385W        W34715  33.997   6.875   0.942
66386W        W34716  38.067   9.735  13.343
66387W        W34717   5.897  25.983  13.847
66388W        W34718  21.051  32.612   4.727
66389W        W34719  34.930  35.061  10.933
66390W        W34720  26.543  39.362   1.241
66391W        W34721  24.530  36.861   2.819
66392W        W34722  14.120  40.408   5.267
66393W        W34723  11.766   3.853   4.197
66394W        W34724  22.626  44.273  11.919
66395W        W34725  23.504  36.412   0.778
66396W        W34726  20.181  22.158  13.862
66397W        W34727  29.543  41.944  11.932
66398W        W34728  22.695  27.173  12.378
66399W        W34729   4.931  39.005   3.692
66400W        W34730   7.417  16.574  13.921
66401W        W34731  37.017  11.237  10.449
66402W        W34732  34.531  30.535   2.389
66403W        W34733  24.717   0.287  13.856
66404W        W34734  36.508  12.784   2.352
66405W        W34735  39.458  16.157  12.380
66406W        W34736  42.013   8.864   1.245
66407W        W34737  26.603   2.876  14.937
66408W        W34738   5.383   5.234  14.467
66409W        W34739  36.924  29.003  12.846
66410W        W34740  19.659  18.672  14.837
66411W        W34741  25.008   7.322  13.541
66412W        W34742   0.322  31.618   4.220
66413W        W34743  21.723  16.268  10.136
66414W        W34744  27.666  28.942   1.394
66415W        W34745   8.675  17.609  11.037
66416W        W34746  18.231   7.170  13.843
66417W        W34747  43.919  43.442  14.805
66418W        W34748  31.577  32.488  13.905
66419W        W34749  41.506  31.093  13.439
66420W        W34750   3.229  39.487   3.703
66421W        W34751  31.403  31.418   4.123
66422W        W34752  34.060  43.286  14.923
66423W        W34753  36.579  33.492   3.211
66424W        W34754  20.246  14.219  14.292
66425W        W34755  11.804  10.242  13.526
66426W        W34756  38.036  35.386  10.460
66427W        W34757  26.971  23.555   1.791
66428W        W34758  41.818  37.543  10.635
66429W        W34759   9.259  43.364  12.378
66430W        W34760  35.510  37.403  11.441
66431W        W34761  15.316  38.491  14.019
66432W        W34762  23.215  18.707   0.802
66433W        W34763  40.425  14.211  13.889
66434W        W34764   5.342  41.364  10.478
66435W        W34765  36.559  31.037   1.372
66436W        W34766  43.903  29.630   1.719
66437W        W34767  36.079  25.570  13.935
66438W        W34768  34.523   0.455   1.394
66439W        W34769  32.497  15.316   1.902
66440W        W34770   4.319   5.342   3.204
66441W        W34771  43.766  12.748  13.323
66442W        W34772  38.510  16.625   2.318
66443W        W34773  43.427  44.830   0.243
66444W        W34774  21.559  32.046   0.789
66445W        W34775  43.776  11.638  11.973
66446W        W34776   0.454  13.671  12.942
66447W        W34777   0.915  37.464   2.749
66448W        W34778  27.584  11.657  12.089
66449W        W34779  16.112  41.010  12.461
66450W        W34780   4.885  31.443  12.882
66451W        W34781  12.635   6.243  12.554
66452W        W34782  17.088  32.465  11.867
66453W        W34783  21.081  25.644  12.922
66454W        W34784   0.358  19.187  11.975
66455W        W34785  25.001  34.119  12.352
66456W        W34786  17.207  28.455   4.629
66457W        W34787  36.086  32.910   0.246
66458W        W34788  40.546  19.639  10.511
66459W        W34789  34.518   8.762   4.795
66460W        W34790  38.848  35.919   2.780
66461W        W34791  40.822  27.599   0.945
66462W        W34792  13.184  23.660  14.383
66463W        W34793  15.207  20.688  11.443
66464W        W34794  14.279  23.089   1.870
66465W        W34795  27.691  42.419  12.356
66466W        W34796  12.277   0.335  11.897
66467W        W34797  11.370  15.701   1.220
66468W        W34798   1.759  12.146   3.328
66469W        W34799  17.184   5.931   3.293
66470W        W34800   0.912  24.547   0.927
66471W        W34801  11.766   7.813   4.712
66472W        W34802   1.853   9.797  12.840
66473W        W34803   5.361   3.720   0.757
66474W        W34804  30.164  20.066   5.093
66475W        W34805   0.781  19.675  10.417
66476W        W34806  28.051  10.164  10.412
66477W        W34807  32.500  39.045  14.796
66478W        W34808  10.328  33.125  14.799
66479W        W34809  11.364  22.121   0.412
66480W        W34810   6.910   3.398   1.250
66481W        W34811  43.897   3.440  10.586
66482W        W34812  33.953  35.869  14.980
66483W        W34813  42.419  29.134  13.336
66484W        W34814  38.859  42.378  14.933
66485W        W34815  32.124  34.025   2.842
66486W        W34816  10.655  14.129  11.399
66487W        W34817  13.258   7.348  11.974
66488W        W34818   7.333  12.801  14.480
66489W        W34819  30.000  24.176  11.561
66490W        W34820  17.779  25.608  10.419
66491W        W34821  15.197  14.126  12.924
66492W        W34822  21.067  35.450   3.749
66493W        W34823   2.301  17.307  10.898
66494W        W34824  31.896  20.205  14.964
66495W        W34825  11.244  41.880  11.597
66496W        W34826  33.941  23.490   4.245
66497W        W34827  14.745   8.871   2.788
66498W        W34828  27.477  18.249  12.389
66499W        W34829   6.883  26.982  12.424
66500W        W34830  33.443  17.766   2.665
66501W        W34831  15.208  43.402  13.541
66502W        W34832  34.527   4.797  13.405
66503W        W34833   7.776  14.812  11.866
66504W        W34834  40.519  21.019   1.761
66505W        W34835  38.828  13.682   0.302
66506W        W34836  43.458   1.966  11.920
66507W        W34837   9.205  37.470   5.258
66508W        W34838  14.130  26.197  11.907
66509W        W34839   3.818  39.997  14.367
66510W        W34840  37.050   4.926   0.428
66511W        W34841  18.788   6.679  14.492
66512W        W34842   1.832   0.285  11.453
66513W        W34843   6.307  38.907   4.137
66514W        W34844  26.470  19.696   2.806
66515W        W34845  34.470  26.058   0.252
66516W        W34846  17.238  11.677   2.242
66517W        W34847  10.791  38.391  11.027
66518W        W34848  36.918   6.273  13.851
66519W        W34849   2.273   9.305  14.859
66520W        W34850  44.986  30.068   2.310
66521W        W34851  12.684  32.609   3.724
66522W        W34852   8.808   4.884  10.941
66523W        W34853  16.651  10.246   0.276
66524W        W34854  31.119   2.739  13.992
66525W        W34855  39.324  26.980  14.332
66526W        W34856  43.945  18.142   1.930
66527W        W34857  10.232  29.955  13.911
66528W        W34858   8.264   0.395  11.127
66529W        W34859  21.107  32.112   0.477
66530W        W34860  20.532  27.491   4.643
66531W        W34861  36.360  10.670  11.946
66532W        W34862  35.988  28.047   1.307
66533W        W34863  43.906   8.663   0.804
66534W        W34864  14.756   1.951  10.946
66535W        W34865   0.808  18.671  10.439
66536W        W34866  27.997  35.852  11.585
66537W        W34867  35.888  31.481   0.959
66538W        W34868  21.614  27.616   9.598
66539W        W34869  21.225   9.871   3.356
66540W        W34870   0.399  21.166  12.988
66541W        W34871  34.943  41.861   2.318
66542W        W34872  11.296  16.267  11.099
66543W        W34873  28.985  44.325  13.063
66544W        W34874  32.909   1.905   2.327
66545W        W34875  26.207  22.140   4.615
66546W        W34876  20.552  35.059  11.866
66547W        W34877  12.816  15.699  11.979
66548W        W34878  30.125  43.939   4.677
66549W        W34879   4.898  24.205  10.500
66550W        W34880  13.260  10.344   4.343
66551W        W34881  11.258  44.485   2.716
66552W        W34882   6.900   7.671   2.259
66553W        W34883   7.781   1.784   2.798
66554W        W34884  13.629  43.852  13.318
66555W        W34885  41.882  22.727   4.646
66556W        W34886  17.196  37.483   1.716
66557W        W34887  22.054  34.597   1.449
66558W        W34888  16.303  17.737   2.399
66559W        W34889  15.763  19.596   3.637
66560W        W34890   6.824  19.695   2.861
66561W        W34891  23.626  32.133   0.948
66562W        W34892  15.760   1.899   3.848
66563W        W34893  31.152   0.293   4.634
66564W        W34894  38.915  16.568  14.472
66565W        W34895  41.370  25.098   3.210
66566W        W34896   9.669  17.099   3.334
66567W        W34897   1.367  38.399  12.041
66568W        W34898  40.443  28.139   0.462
66569W        W34899  21.163  40.509  13.892
66570W        W34900  18.789  44.360  11.973
66571W        W34901   3.814  31.950   1.223
66572W        W34902  23.635   0.963   3.300
66573W        W34903   1.813  20.149  14.310
66574W        W34904   7.778  44.314  13.956
66575W        W34905   9.172  15.706   3.319
66576W        W34906   2.920  24.695   0.879
66577W        W34907  20.171   8.273   3.335
66578W        W34908  30.641   5.277  14.011
66579W        W34909  11.176   7.734   2.730
66580W        W34910  34.040  35.950  14.332
66581W        W34911  18.069  43.366   4.262
66582W        W34912  15.705  44.308   2.373
66583W        W34913  22.688  21.128   5.202
66584W        W34914  42.879  29.511   0.275
66585W        W34915  18.133  30.977   3.209
66586W        W34916  11.295  11.815  12.878
66587W        W34917  20.117  26.667   0.733
66588W        W34918  33.520   9.693  13.838
66589W        W34919  22.194  15.692   0.962
66590W        W34920   9.868  11.183   2.895
66591W        W34921  35.404   3.931   3.730
66592W        W34922  31.516   6.903   2.684
66593W        W34923  19.206  19.121   2.807
66594W        W34924  37.386  41.383   4.670
66595W        W34925  25.544  14.610   2.682
66596W        W34926   1.977   3.733  13.489
66597W        W34927  40.009  15.326  13.948
66598W        W34928  44.334  16.257   1.868
66599W        W34929  16.236  14.676  12.849
66600W        W34930  24.566  26.105  11.958
66601W        W34931  42.318  11.359  14.875
66602W        W34932  21.082  27.103  13.440
66603W        W34933  17.736   9.805  13.866
66604W        W34934  41.469   3.924   4.657
66605W        W34935  14.749   2.427  13.802
66606W        W34936  31.447   8.813  13.985
66607W        W34937  29.435  24.715  12.526
66608W        W34938  41.870   9.723  13.051
66609W        W34939  21.178  22.666  12.893
66610W        W34940  19.046  13.652   1.406
66611W        W34941   1.350  31.473   4.721
66612W        W34942   2.461  24.664   3.373
66613W        W34943  19.117   4.376   3.380
66614W        W34944  37.083   5.399   4.163
66615W        W34945  21.035   0.488   2.386
66616W        W34946  34.038  10.765  10.912
66617W        W34947  11.136  14.650   3.819
66618W        W34948   1.271  39.315  10.424
66619W        W34949  43.441  12.734   1.700
66620W        W34950  22.205  28.986  14.837
66621W        W34951   0.393  27.634   4.807
66622W        W34952  13.828  25.072  11.978
66623W        W34953  24.659  10.769   2.287
66624W        W34954  31.421  15.086  11.072
66625W        W34955  37.869   8.733   0.946
66626W        W34956  12.248   8.332   0.474
66627W        W34957  42.952   3.828   0.965
66628W        W34958  30.927  22.191   0.768
66629W        W34959   4.386   9.390  11.883
66630W        W34960  19.650  22.250  10.924
66631W        W34961  14.165  18.585   0.461
66632W        W34962  30.101   3.740  11.953
66633W        W34963  12.242  19.240  14.907
66634W        W34964   7.708  27.191  13.337
66635W        W34965  28.063  19.666   0.928
66636W        W34966  11.369   9.874   3.692
66637W        W34967   7.891  13.196  14.888
66638W        W34968  10.684   6.281   2.810
66639W        W34969  16.613  15.583  11.434
66640W        W34970  21.687  41.519  14.333
66641W        W34971  43.404   8.254   4.261
66642W        W34972  39.893  31.488  13.813
66643W        W34973   2.468  39.869   2.779
66644W        W34974  38.406  36.395   4.602
66645W        W34975  22.160  10.855  13.513
66646W        W34976  17.255   0.409   4.303
66647W        W34977   6.318  30.090  12.980
66648W        W34978  39.522  14.683  12.871
66649W        W34979   6.264  44.960  13.826
66650W        W34980  37.865  22.145  12.370
66651W        W34981  21.644  19.112  11.033
66652W        W34982  28.500  10.854  11.007
66653W        W34983   2.797  31.951  14.866
66654W        W34984  10.250  23.512  11.383
66655W        W34985  43.311  31.129  13.801
66656W        W34986   9.657  31.603   4.123
66657W        W34987  28.937  23.071  14.299
66658W        W34988  14.745  25.574  13.804
66659W        W34989  42.307  21.204  10.540
66660W        W34990  11.139   1.878   1.428
66661W        W34991  28.128  21.175  13.357
66662W        W34992  28.518   5.754   0.848
66663W        W34993  26.104  35.065  11.492
66664W        W34994   8.321  18.126  13.320
66665W        W34995   8.198  26.502  12.481
66666W        W34996  14.750  40.984  14.477
66667W        W34997  20.178  12.287  10.577
66668W        W34998  30.583  16.689  14.468
66669W        W34999  28.002   3.340  14.337
66670W        W35000  20.245  39.983   3.190
66671W        W35001  20.158   0.315   4.253
66672W        W35002  37.557  43.500  12.044
66673W        W35003  35.555  33.505  11.105
66674W        W35004  43.788   3.720   4.769
66675W        W35005  35.919  28.999  10.938
66676W        W35006  11.351   8.780  10.473
66677W        W35007   0.743   4.855   5.189
66678W        W35008   5.307  31.103  14.776
66679W        W35009  38.529   4.255  13.017
66680W        W35010  21.657   0.465   4.317
66681W        W35011  11.304  19.257   2.310
66682W        W35012  19.276  40.914   4.243
66683W        W35013  16.294  27.618  12.532
66684W        W35014  27.036  12.170   5.696
66685W        W35015  44.920  42.972   5.164
66686W        W35016   8.402  28.062  14.912
66687W        W35017   1.884  13.799  11.574
66688W        W35018  22.148  44.445   3.375
66689W        W35019  30.954  14.655   3.806
66690W        W35020  39.448  29.513  14.951
66691W        W35021   9.174  36.007  13.961
66692W        W35022   2.300  27.636   0.270
66693W        W35023   4.701  34.902  13.326
66694W        W35024  38.343   3.724  12.967
66695W        W35025  12.260   3.446   3.803
66696W        W35026   7.337  13.231   1.309
66697W        W35027  43.308  29.995  12.852
66698W        W35028  13.198  11.347  11.873
66699W        W35029  10.270  12.783  11.101
66700W        W35030  12.213  43.502  14.987
66701W        W35031   3.811  15.724   1.266
66702W        W35032  10.766  32.044  12.055
66703W        W35033  37.049  34.444  12.425
66704W        W35034   3.351  12.637  13.461
66705W        W35035  30.034  24.041   1.867
66706W        W35036  19.258  35.582  14.983
66707W        W35037  41.367  31.131  12.991
66708W        W35038   5.257  43.971  13.945
66709W        W35039  30.140   1.401   4.722
66710W        W35040  32.494  14.166   4.240
66711W        W35041  42.943  30.028  11.583
66712W        W35042  38.511  34.407   3.806
66713W        W35043  14.680   0.975  12.934
66714W        W35044  16.681   3.258   0.740
66715W        W35045  33.092   0.455   2.224
66716W        W35046  29.641   2.778  13.905
66717W        W35047   4.753  17.082   2.829
66718W        W35048  31.991  35.507  11.101
66719W        W35049  10.380  11.359   1.386
66720W        W35050  27.489  44.317  10.942
66721W        W35051   2.331  17.580   0.464
66722W        W35052  25.546  31.150   1.386
66723W        W35053  42.379  23.101  11.566
66724W        W35054  25.170  28.162  13.903
66725W        W35055  39.381  28.489   0.957
66726W        W35056  25.114  35.083  11.531
66727W        W35057  23.001  19.696  12.897
66728W        W35058  31.958  23.196  12.460
66729W        W35059  31.510   0.464   1.425
66730W        W35060  20.629  12.299   3.275
66731W        W35061  24.519   2.317  12.827
66732W        W35062  16.743  29.638   4.333
66733W        W35063  37.007  25.178   1.846
66734W        W35064  27.148  40.836   3.264
66735W        W35065  28.596  35.443  10.510
66736W        W35066  39.432  31.964  11.013
66737W        W35067  16.636  14.734   4.722
66738W        W35068  11.622  24.052  13.023
66739W        W35069  14.306  34.371  13.418
66740W        W35070  21.113  29.428  14.852
66741W        W35071   7.711  31.573   0.847
66742W        W35072  38.474  24.591   1.840
66743W        W35073  22.198  23.614  13.976
66744W        W35074  32.105  29.141  13.491
66745W        W35075  43.431  25.112  12.890
66746W        W35076  14.753  15.703  12.971
66747W        W35077  19.138   7.306   0.315
66748W        W35078  20.248   8.287   3.669
66749W        W35079  43.804  15.645  14.474
66750W        W35080  15.235  20.272   0.376
66751W        W35081   3.933  23.111   2.837
66752W        W35082  37.572  41.442  13.853
66753W        W35083  19.062  34.025  14.855
66754W        W35084  35.069  38.539  13.430
66755W        W35085  16.789  35.510  12.459
66756W        W35086   4.336  11.303  14.372
66757W        W35087   5.203   3.248  12.018
66758W        W35088  38.858  42.939   1.333
66759W        W35089  39.917  43.378  13.032
66760W        W35090   8.332  18.261   4.718
66761W        W35091  35.069  16.171   0.879
66762W        W35092  43.442  39.925  10.524
66763W        W35093  17.717  30.631   4.680
66764W        W35094   2.457   7.864   1.871
66765W        W35095  16.074  28.043  11.550
66766W        W35096   5.262   9.352  10.463
66767W        W35097  19.744  35.421   4.820
66768W        W35098  32.560  28.107   1.870
66769W        W35099  36.098   5.920  10.609
66770W        W35100  43.425  15.732   2.389
66771W        W35101  39.017  43.792   2.698
66772W        W35102  43.869  16.620   4.676
66773W        W35103  18.073  23.497  14.779
66774W        W35104  21.592  26.605  12.405
66775W        W35105  15.743   6.752  12.913
66776W        W35106  22.613   7.668  10.936
66777W        W35107  28.007  42.978   1.377
66778W        W35108  17.302  12.611   3.810
66779W        W35109  44.344  16.629   2.815
66780W        W35110  26.109   8.849   0.404
66781W        W35111  19.094  35.007   4.159
66782W        W35112  20.565   8.193  14.887
66783W        W35113   5.750   9.393   0.857
66784W        W35114  16.668   5.709  12.448
66785W        W35115   4.782   1.259  14.945
66786W        W35116  19.649   8.711  10.455
66787W        W35117   4.328   8.882   1.218
66788W        W35118  36.033  44.981   0.911
66789W        W35119  25.965  44.472  13.034
66790W        W35120  28.099  24.597   4.651
66791W        W35121  41.355  42.997  14.906
66792W        W35122  25.525  34.544   3.795
66793W        W35123  37.570   4.783  11.877
66794W        W35124  11.295   1.265  13.519
66795W        W35125   9.839  19.639  13.036
66796W        W35126  21.547  10.183  14.489
66797W        W35127  23.995  12.128   2.849
66798W        W35128  39.965  29.456   3.737
66799W        W35129  39.060  40.979  12.044
66800W        W35130   2.244   6.356  13.429
66801W        W35131  15.649  22.506   0.888
66802W        W35132  15.625  24.025   1.418
66803W        W35133   9.744   8.864   1.232
66804W        W35134   6.266  35.447   3.258
66805W        W35135  10.674  12.242  11.898
66806W        W35136   8.726  39.482   3.237
66807W        W35137  31.575  14.639   1.707
66808W        W35138  32.487  11.655  10.031
66809W        W35139  17.132  28.104  14.799
66810W        W35140  31.036  36.415   1.749
66811W        W35141   6.354  25.047  13.407
66812W        W35142  25.702  15.803   3.221
66813W        W35143  32.534  25.030   2.263
66814W        W35144   9.246   2.849   2.400
66815W        W35145   9.343   7.876   2.808
66816W        W35146  13.238  34.886  13.331
66817W        W35147  13.627  12.346   2.213
66818W        W35148   2.295  38.901  12.357
66819W        W35149  32.591   1.429   0.276
66820W        W35150  40.811  15.708  10.014
66821W        W35151  41.792  17.587  11.480
66822W        W35152  27.024  44.769   1.349
66823W        W35153   9.866   7.190   2.805
66824W        W35154  12.258  22.557   1.374
66825W        W35155   4.283  16.094   0.274
66826W        W35156  23.032  41.409   3.340
66827W        W35157  38.819  29.028   2.416
66828W        W35158   6.229   9.303  10.968
66829W        W35159  27.457  38.867   4.278
66830W        W35160   4.338   8.380  14.946
66831W        W35161  24.222  26.163   0.321
66832W        W35162  39.399  24.113   3.146
66833W        W35163   1.973  38.448   3.850
66834W        W35164  43.842  38.463  13.031
66835W        W35165  23.497   4.233  11.024
66836W        W35166   4.830  21.624   3.297
66837W        W35167  39.550  32.898  12.477
66838W        W35168   1.429  39.042   3.271
66839W        W35169   1.886  34.952   2.264
66840W        W35170  23.721  39.902  12.890
66841W        W35171  11.827  10.840   4.716
66842W        W35172   1.460   8.785  13.037
66843W        W35173  13.201  11.862  14.297
66844W        W35174   9.224  41.459  10.531
66845W        W35175  37.437  44.316   3.380
66846W        W35176   4.855  22.171   3.224
66847W        W35177  40.456  33.498   4.702
66848W        W35178   7.253  21.147   4.224
66849W        W35179   7.898   4.829  11.003
66850W        W35180   9.691  38.436   2.218
66851W        W35181  31.533  20.167  14.392
66852W        W35182  17.763  44.401   0.958
66853W        W35183  12.214  13.190  10.494
66854W        W35184  26.581  29.584   4.231
66855W        W35185  28.952  19.279  11.395
66856W        W35186  42.013  10.372   2.800
66857W        W35187   5.762  36.002   3.198
66858W        W35188  43.771  20.672  14.389
66859W        W35189   0.469   7.172  14.817
66860W        W35190  35.596  26.531   1.248
66861W        W35191  16.105  26.696  14.326
66862W        W35192  35.417  27.177   1.325
66863W        W35193  37.521  16.287   2.271
66864W        W35194  27.094   4.744   9.980
66865W        W35195  39.426  29.106   0.280
66866W        W35196  23.994  43.312  14.847
66867W        W35197  43.929  38.428   1.405
66868W        W35198  17.064   8.268   0.790
66869W        W35199  12.642  10.765  12.053
66870W        W35200   7.373  14.332   3.213
66871W        W35201  12.323  17.746   3.708
66872W        W35202  17.651  37.449   1.781
66873W        W35203  17.203  32.613   1.332
66874W        W35204   3.732  38.342  10.601
66875W        W35205   3.331  39.341  13.424
66876W        W35206  16.274  32.585   0.888
66877W        W35207   6.834   6.837  12.972
66878W        W35208  37.043  39.931   0.309
66879W        W35209  31.109  13.819   4.794
66880W        W35210  15.228   4.889  11.081
66881W        W35211  24.155  13.220  14.883
66882W        W35212  44.261  19.603   4.293
66883W        W35213  31.908   7.338   4.625
66884W        W35214  13.337   0.493   3.254
66885W        W35215  14.161  15.727   2.896
66886W        W35216  35.019  39.841  13.329
66887W        W35217  22.021   5.765  11.010
66888W        W35218   5.703  20.119   2.399
66889W        W35219  30.654  29.127   1.865
66890W        W35220   2.788  22.052   2.862
66891W        W35221  24.209  30.624  11.879
66892W        W35222  18.067  37.514   1.443
66893W        W35223   1.461  20.198  10.959
66894W        W35224  41.312   3.367   2.783
66895W        W35225  21.593  14.297  14.393
66896W        W35226  27.085  14.799   3.252
66897W        W35227   4.364  34.951  12.504
66898W        W35228  13.823   0.336   4.199
66899W        W35229  31.997  16.656  14.404
66900W        W35230  28.651   3.788  14.819
66901W        W35231  22.236  22.569   0.365
66902W        W35232   4.320  18.727  14.463
66903W        W35233  19.647   8.838   1.332
66904W        W35234  10.140   5.871  14.854
66905W        W35235  37.929   4.897   1.241
66906W        W35236  21.564  42.479  14.942
66907W        W35237  27.948  10.801   1.807
66908W        W35238  44.423  39.329  12.845
66909W        W35239  38.048  15.303  13.456
66910W        W35240  39.063  44.932   2.891
66911W        W35241   8.759  10.632  11.951
66912W        W35242  23.990  32.061   2.835
66913W        W35243  31.108  21.620   3.300
66914W        W35244  39.810  12.257   1.318
66915W        W35245   3.727  41.523   0.481
66916W        W35246  39.391  23.713  10.973
66917W        W35247  43.985   6.340   2.297
66918W        W35248  27.989  13.184  10.448
66919W        W35249   4.409  22.522   3.289
66920W        W35250   1.433  34.065  12.909
66921W        W35251  26.617   3.711  14.381
66922W        W35252   7.343   2.226   3.301
66923W        W35253  42.431   6.353  10.976
66924W        W35254  37.908  38.353   3.197
66925W        W35255  28.629  19.225   4.792
66926W        W35256   9.876   0.473   3.207
66927W        W35257  23.190  15.742   4.326
66928W        W35258  35.083   5.238   2.698
66929W        W35259  26.469  28.456  14.363
66930W        W35260  14.798   7.860  12.367
66931W        W35261  12.233  17.237   0.936
66932W        W35262  26.539  10.300  11.023
66933W        W35263  36.988  23.701  10.542
66934W        W35264  26.572  44.804  13.917
66935W        W35265   9.344  20.077   1.299
66936W        W35266   1.369  32.553   1.888
66937W        W35267  18.696  13.741  11.011
66938W        W35268  34.593  43.835  12.051
66939W        W35269  17.236  26.203   4.633
66940W        W35270  22.106  19.146  10.924
66941W        W35271  16.210  35.934  13.831
66942W        W35272  38.401   5.353   9.657
66943W        W35273  14.681  41.533  13.473
66944W        W35274   1.735  16.118   2.186
66945W        W35275  33.507   2.911  14.914
66946W        W35276  41.420  31.943  12.537
66947W        W35277   3.918   1.421   2.361
66948W        W35278  32.593  20.146   5.798
66949W        W35279   7.789  30.416   9.933
66950W        W35280  29.140  17.580   4.731
66951W        W35281  42.363  40.333   3.372
66952W        W35282  13.191  41.423  11.937
66953W        W35283   1.948  39.508  12.546
66954W        W35284  22.153   9.246   2.732
66955W        W35285  38.046   0.895   4.637
66956W        W35286  20.598  22.133  13.397
66957W        W35287  26.482  24.588  13.949
66958W        W35288  44.388   0.371   2.294
66959W        W35289  28.661  34.382  10.416
66960W        W35290  34.950  38.501   3.643
66961W        W35291  31.472  32.072  12.423
66962W        W35292   2.304   8.387   3.813
66963W        W35293  20.759  27.496  13.923
66964W        W35294  29.592  19.583  13.941
66965W        W35295  28.934  23.669   1.297
66966W        W35296   4.289  36.412   4.724
66967W        W35297  35.105  18.549  12.854
66968W        W35298  25.610  43.464   2.331
66969W        W35299  41.831  16.578  11.389
66970W        W35300  10.328  38.883  11.915
66971W        W35301   1.836  30.458   0.889
66972W        W35302  39.319  27.517  11.476
66973W        W35303   1.976  20.540  14.777
66974W        W35304  34.929  44.317   1.431
66975W        W35305  16.685  10.232  13.967
66976W        W35306   7.796  44.416  13.523
66977W        W35307  27.183   6.421  13.792
66978W        W35308  33.885  37.013  13.313
66979W        W35309  34.386   7.869  12.401
66980W        W35310  24.189   0.837  14.992
66981W        W35311  11.364  21.254  14.972
66982W        W35312  38.932  10.822   4.604
66983W        W35313  42.295  17.620   2.870
66984W        W35314  41.944  30.988  14.767
66985W        W35315  27.638  28.075  10.461
66986W        W35316  26.656   4.829   1.826
66987W        W35317  27.650  24.556  14.995
66988W        W35318  20.054  10.659  11.036
66989W        W35319  43.402  36.965  12.447
66990W        W35320  21.673  17.233  13.368
66991W        W35321  42.464  37.953  12.044
66992W        W35322  29.520  37.528  14.910
66993W        W35323  33.016   1.444  10.979
66994W        W35324  19.266  23.158   5.738
66995W        W35325   8.178  39.383   4.801
66996W        W35326  44.973  24.638   3.150
66997W        W35327  35.948  38.828  14.354
66998W        W35328  37.476  12.195  11.505
66999W        W35329  33.500  34.481  11.047
67000W        W35330  33.063  19.727  13.391
67001W        W35331  40.893  27.018   4.253
67002W        W35332  16.084   0.298   2.734
67003W        W35333  42.797  19.617   0.443
67004W        W35334  14.247  32.060   1.911
67005W        W35335  11.770  11.367   4.280
67006W        W35336  30.932  19.572   5.243
67007W        W35337   0.390  41.435  11.073
67008W        W35338  12.748   7.719   2.745
67009W        W35339  35.053  43.271  12.901
67010W        W35340  20.548   4.417  12.867
67011W        W35341  17.298  10.867   1.228
67012W        W35342  15.083  44.408  13.807
67013W        W35343  28.606  20.598  14.902
67014W        W35344  12.721  20.693  13.884
67015W        W35345   3.782  35.039   3.677
67016W        W35346  11.722  28.072  10.490
67017W        W35347  37.968  11.663   1.760
67018W        W35348  11.188  42.828   0.456
67019W        W35349  34.930  11.220   2.294
67020W        W35350  40.882  26.974  13.811
67021W        W35351  39.556   9.721  11.375
67022W        W35352  11.196  28.634  11.029
67023W        W35353  23.492  22.664   0.345
67024W        W35354  28.146  27.671   2.187
67025W        W35355  15.813  37.357   3.235
67026W        W35356  22.167  35.092  10.999
67027W        W35357  33.399  27.139  14.403
67028W        W35358  10.365  23.683   4.145
67029W        W35359   1.462  31.566  11.381
67030W        W35360  41.858  10.779  14.498
67031W        W35361  26.053  27.078   1.815
67032W        W35362  32.996  19.197  11.595
67033W        W35363  20.073  33.069   2.324
67034W        W35364  27.527  39.433   4.192
67035W        W35365   3.327  31.504  13.462
67036W        W35366  33.535   0.826  12.512
67037W        W35367  41.812  16.212  11.872
67038W        W35368  22.208  20.254  10.519
67039W        W35369  36.520  21.568   4.222
67040W        W35370  38.022  34.079  13.906
67041W        W35371  22.505  39.482   0.409
67042W        W35372  39.341  23.066   3.237
67043W        W35373  30.984  22.249  10.581
67044W        W35374  14.139   9.171   5.099
67045W        W35375   4.895  32.896   2.738
67046W        W35376  10.713  17.298  14.337
67047W        W35377  27.504  20.163  12.529
67048W        W35378  40.313   1.465   4.288
67049W        W35379  40.844   0.356  14.813
67050W        W35380  42.518  36.399   4.234
67051W        W35381   2.406  29.513  14.424
67052W        W35382  32.412  43.935   3.379
67053W        W35383  33.476  25.706  11.378
67054W        W35384  35.027   6.245  11.440
67055W        W35385  44.468  33.411   4.154
67056W        W35386  22.675  17.802   0.751
67057W        W35387  41.988  16.685  12.988
67058W        W35388  43.767  42.458  12.052
67059W        W35389  40.815  41.974   1.237
67060W        W35390   9.682  13.681   0.814
67061W        W35391  15.655  37.420   2.865
67062W        W35392  42.019  39.357  14.989
67063W        W35393  19.046  43.326  14.999
67064W        W35394  20.263  12.778   4.307
67065W        W35395  33.000  17.062  12.559
67066W        W35396   1.779   2.392  14.919
67067W        W35397  18.239  16.177  13.036
67068W        W35398  12.692  39.961  13.988
67069W        W35399  18.136  20.711  12.976
67070W        W35400  31.896  38.524  10.114
67071W        W35401  34.586  17.175  14.468
67072W        W35402  26.121  43.423  14.446
67073W        W35403  37.342   7.375  12.469
67074W        W35404   4.378  41.031   4.241
67075W        W35405  43.820  44.438   1.786
67076W        W35406  11.209  40.969  13.419
67077W        W35407  17.703   7.195  14.937
67078W        W35408  29.938  38.986  14.900
67079W        W35409  30.125   9.783  11.480
67080W        W35410  23.677   5.912  12.496
67081W        W35411   8.852   3.948  12.931
67082W        W35412  33.560  18.604  12.865
67083W        W35413  28.641  29.583   2.874
67084W        W35414  39.429  12.699  13.542
67085W        W35415  26.977  42.827  10.979
67086W        W35416  37.379  10.184  12.393
67087W        W35417  10.207   7.328  14.463
67088W        W35418  17.751  16.605  11.582
67089W        W35419  24.556  18.706  10.643
67090W        W35420  35.999  30.944  14.955
67091W        W35421  12.648  29.964  11.117
67092W        W35422  41.323  17.148   4.727
67093W        W35423  38.859  40.903  13.862
67094W        W35424   1.469  41.436  14.794
67095W        W35425  27.570  32.928   1.420
67096W        W35426   9.651  18.777  12.403
67097W        W35427   9.252  24.029  14.982
67098W        W35428  37.365  28.014   2.201
67099W        W35429  18.593  23.658   1.745
67100W        W35430  14.098  22.659   4.332
67101W        W35431  31.055   3.866   1.773
67102W        W35432  43.966   7.899   0.762
67103W        W35433  36.937   1.353  13.963
67104W        W35434  35.526   6.827  13.991
67105W        W35435  12.636  39.501  12.981
67106W        W35436  37.545  32.616   0.398
67107W        W35437  16.101   4.440   4.282
67108W        W35438  25.183  32.617  13.343
67109W        W35439   5.695  24.524  14.860
67110W        W35440  32.917   6.342  11.408
67111W        W35441  43.871  33.123   2.867
67112W        W35442  36.087   1.370   3.334
67113W        W35443   7.319   0.949  11.953
67114W        W35444   9.308  40.424   4.773
67115W        W35445  15.625   1.325  14.877
67116W        W35446  22.160  43.770   0.286
67117W        W35447  10.364  29.495  14.975
67118W        W35448  22.036  19.760  10.142
67119W        W35449  19.190  30.128  13.540
67120W        W35450   0.761  35.005   1.217
67121W        W35451  28.152  13.183   3.699
67122W        W35452  12.203  11.736   3.284
67123W        W35453  42.813  38.488  11.550
67124W        W35454   5.734  21.148  13.373
67125W        W35455  26.522  18.619  13.439
67126W        W35456  22.628  22.116  14.332
67127W        W35457  36.072  40.359  10.493
67128W        W35458  18.105  19.224  12.559
67129W        W35459  15.664  16.597   1.406
67130W        W35460  17.226  43.422   0.414
67131W        W35461  30.054  33.573  13.385
67132W        W35462  28.008  43.379   0.338
67133W        W35463  32.468  35.945  10.547
67134W        W35464  10.220  17.215   4.719
67135W        W35465  21.147  28.637   0.339
67136W        W35466  20.218  28.031  10.118
67137W        W35467   7.859  24.070   1.794
67138W        W35468  31.626  30.054   2.775
67139W        W35469  14.094   8.772  11.433
67140W        W35470  41.308   9.224   0.349
67141W        W35471  17.680   1.359  13.016
67142W        W35472  30.523  18.269   0.422
67143W        W35473  29.433  15.329   2.860
67144W        W35474  30.135   1.779  10.465
67145W        W35475  22.124   7.749   0.901
67146W        W35476  34.614  14.694  14.906
67147W        W35477   0.338  24.060   4.279
67148W        W35478  19.690  20.058   5.114
67149W        W35479  28.673  25.653   2.282
67150W        W35480  18.738   2.342   4.168
67151W        W35481  17.780  19.710  14.815
67152W        W35482  41.038  32.121   9.972
67153W        W35483  15.673  44.831   1.923
67154W        W35484  33.455  28.454  14.828
67155W        W35485  15.815  16.630  13.873
67156W        W35486   8.248  28.548  14.987
67157W        W35487  27.073  20.147   1.326
67158W        W35488  33.499   8.208  10.601
67159W        W35489  41.338  11.713  10.479
67160W        W35490  38.510   7.290   1.724
67161W        W35491  20.630  25.106  14.797
67162W        W35492   9.889  30.956  14.477
67163W        W35493  17.728   0.798   1.887
67164W        W35494  39.941   4.431  10.933
67165W        W35495   1.237   0.758  14.413
67166W        W35496  25.697  42.910   3.157
67167W        W35497  40.984  41.889  12.505
67168W        W35498   2.903  20.177  14.292
67169W        W35499   9.279   2.860   4.816
67170W        W35500   1.845  10.162   0.912
67171W        W35501  15.210  12.730  10.507
67172W        W35502  12.117  43.270   3.685
67173W        W35503  37.349  10.641  13.332
67174W        W35504  12.129  31.061  13.401
67175W        W35505  31.066   5.268  14.502
67176W        W35506  14.269  40.881  10.564
67177W        W35507   3.235  38.460   2.900
67178W        W35508  31.048  22.731   1.853
67179W        W35509  28.075  37.977   0.764
67180W        W35510   4.368  15.751   3.262
67181W        W35511  26.031  16.319   4.173
67182W        W35512  34.393  23.688  12.092
67183W        W35513  18.603   6.314   1.720
67184W        W35514  34.046   2.227   1.313
67185W        W35515  24.558  27.682   4.276
67186W        W35516  32.485  44.398  11.604
67187W        W35517  41.026  29.939   1.794
67188W        W35518  44.892  37.017  12.484
67189W        W35519  25.675  39.397   2.190
67190W        W35520  33.939  35.414   2.687
67191W        W35521  19.169   4.364  10.989
67192W        W35522   6.290  17.652  13.317
67193W        W35523   9.243   3.452   5.171
67194W        W35524  31.557  44.001   4.271
67195W        W35525  21.673  12.808  14.822
67196W        W35526  36.399  32.506  13.370
67197W        W35527   1.282   6.213  14.988
67198W        W35528  41.304  26.095   1.728
67199W        W35529  17.245  44.342   4.318
67200W        W35530  44.929  44.480   3.740
67201W        W35531  29.138  26.640  11.058
67202W        W35532   9.367  12.635   5.229
67203W        W35533   6.424  36.554   2.403
67204W        W35534  38.328  24.606   4.304
67205W        W35535   8.327  24.518   1.883
67206W        W35536  20.527   7.904  13.837
67207W        W35537  33.610  31.476   1.390
67208W        W35538  13.318   8.663  12.847
67209W        W35539  25.567   7.295   4.220
67210W        W35540  17.714  14.608  11.953
67211W        W35541  21.038  16.606   0.350
67212W        W35542  42.884  38.884  11.516
67213W        W35543  42.778  14.657  14.443
67214W        W35544   5.359  12.241  11.434
67215W        W35545  28.131  32.090   4.701
67216W        W35546  28.493   8.216  12.044
67217W        W35547  16.108  22.676  10.451
67218W        W35548  25.186  11.709   1.770
67219W        W35549  27.583   5.291   2.330
67220W        W35550  37.507  32.086  14.802
67221W        W35551  31.440   3.428   3.381
67222W        W35552  39.419  17.206   0.728
67223W        W35553  15.771  25.714   0.458
67224W        W35554  42.410   5.277  13.021
67225W        W35555  31.925   9.765   1.752
67226W        W35556   2.805   6.263  11.489
67227W        W35557  30.649  15.642   4.117
67228W        W35558  43.940  11.250  10.962
67229W        W35559  34.914   3.935   3.312
67230W        W35560  22.727  36.023  12.995
67231W        W35561  19.715  40.851  14.976
67232W        W35562  18.102   2.241   3.798
67233W        W35563  20.028  11.232   4.144
67234W        W35564  34.483  35.406   4.718
67235W        W35565  42.469  33.875  13.467
67236W        W35566  30.432  33.093  14.355
67237W        W35567   6.758  33.566   1.900
67238W        W35568  38.412   5.423  11.089
67239W        W35569  38.838  43.355   1.905
67240W        W35570  41.966  26.160  10.902
67241W        W35571  16.779   2.826   2.796
67242W        W35572  21.027  36.383   5.195
67243W        W35573  10.200  34.371  11.553
67244W        W35574   5.240   2.437   3.841
67245W        W35575  17.232  33.014   1.391
67246W        W35576  13.152  16.129   4.224
67247W        W35577  36.400  43.923   1.318
67248W        W35578  16.597  18.114   0.866
67249W        W35579   8.298  12.729  10.953
67250W        W35580   2.934  16.613   2.774
67251W        W35581  24.026  15.688  12.451
67252W        W35582   9.737   6.247   0.923
67253W        W35583  30.620  13.259  11.594
67254W        W35584   1.247  25.074   4.137
67255W        W35585   9.348   1.968   2.889
67256W        W35586  15.821  27.182   0.405
67257W        W35587  11.132  13.321  12.074
67258W        W35588  19.101  36.882  11.392
67259W        W35589  34.558   4.931   4.266
67260W        W35590  21.137   6.361   2.839
67261W        W35591  43.489  34.876   1.824
67262W        W35592  44.997  13.259  11.108
67263W        W35593   6.253  29.529   3.738
67264W        W35594  43.344  32.976  13.341
67265W        W35595   6.805  20.699   4.709
67266W        W35596  21.719  42.841   4.640
67267W        W35597   8.743  36.943  11.551
67268W        W35598  30.018   6.354  11.412
67269W        W35599  34.400  11.676   2.274
67270W        W35600  38.547  39.815  11.452
67271W        W35601  27.940  11.833   0.837
67272W        W35602  25.646  44.318  10.991
67273W        W35603  22.693  39.978  11.462
67274W        W35604   8.232  44.824  13.468
67275W        W35605  25.480  43.276   2.729
67276W        W35606  12.307  22.029  14.839
67277W        W35607  25.648  10.638  13.467
67278W        W35608  24.190  16.766   1.858
67279W        W35609  43.510   8.871  11.952
67280W        W35610  27.007  31.540   1.285
67281W        W35611  22.502  41.377   0.942
67282W        W35612  43.920  30.991  10.509
67283W        W35613  19.122  12.314  11.096
67284W        W35614   1.383   3.920   2.835
67285W        W35615  23.989  10.321  12.374
67286W        W35616   6.830  10.167   1.300
67287W        W35617  14.263  28.031   4.147
67288W        W35618  33.108  33.070   3.362
67289W        W35619  40.912  12.758  14.922
67290W        W35620  39.471  24.514  12.551
67291W        W35621  19.080   8.809  14.351
67292W        W35622  27.152   9.223   0.950
67293W        W35623  27.166  14.173  11.980
67294W        W35624  32.119  17.179  14.820
67295W        W35625  11.316  33.478   0.829
67296W        W35626  22.560   2.229   3.267
67297W        W35627  10.159  16.569  11.495
67298W        W35628  42.828   6.795   1.367
67299W        W35629   5.895  12.131  11.123
67300W        W35630  41.901  22.123   0.931
67301W        W35631  13.145  11.857   4.675
67302W        W35632  36.847   6.862  11.381
67303W        W35633  28.569   0.438  12.354
67304W        W35634   5.826  38.479  11.030
67305W        W35635  33.886   1.874  10.590
67306W        W35636  38.556  37.474  12.830
67307W        W35637  36.008  16.746   4.755
67308W        W35638  14.742   8.825  12.076
67309W        W35639   7.188  28.434  14.841
67310W        W35640   3.226   2.356  13.798
67311W        W35641  28.108  12.650   0.849
67312W        W35642  30.645  37.006   4.833
67313W        W35643  32.432  19.202   0.797
67314W        W35644  21.712  27.556  13.810
67315W        W35645   6.791  40.886   2.741
67316W        W35646  30.103  40.406   4.668
67317W        W35647  29.548   1.977  10.447
67318W        W35648   6.229  12.761   3.305
67319W        W35649   0.448  15.104  12.350
67320W        W35650   7.765  39.015  10.013
67321W        W35651   1.238  38.502  12.827
67322W        W35652   4.332  23.209   3.378
67323W        W35653   9.248  32.028  11.023
67324W        W35654  14.786  37.994  10.418
67325W        W35655   4.808  26.632   1.897
67326W        W35656   0.491  14.226  10.919
67327W        W35657   1.295  31.404  14.837
67328W        W35658  37.559   3.790   1.717
67329W        W35659   3.221  43.834   0.312
67330W        W35660  39.843  36.037  14.367
67331W        W35661  37.337  10.254  11.886
67332W        W35662   4.777  43.415  12.082
67333W        W35663  24.605  10.872  13.471
67334W        W35664  38.461   2.954   0.478
67335W        W35665   3.460  26.200   1.796
67336W        W35666  10.772   7.700  14.784
67337W        W35667   2.254  44.815  10.418
67338W        W35668  28.562  22.663   1.429
67339W        W35669   0.457  26.991   2.371
67340W        W35670  13.797  21.708   1.291
67341W        W35671  25.970  11.634   3.304
67342W        W35672  35.444   1.309   1.879
67343W        W35673   1.799   5.291  14.359
67344W        W35674  28.681  39.486   0.403
67345W        W35675   3.346  13.227   3.713
67346W        W35676  22.516  38.972   4.723
67347W        W35677  20.532  25.064   3.279
67348W        W35678  16.690  41.945  14.405
67349W        W35679  35.856  15.648  14.509
67350W        W35680  40.368  25.050   4.619
67351W        W35681   0.849  30.462  12.889
67352W        W35682   1.304  11.307  11.886
67353W        W35683  28.114  23.135   1.416
67354W        W35684  33.974  42.009  13.003
67355W        W35685  23.651  12.836  13.476
67356W        W35686   2.803  26.693  10.549
67357W        W35687   2.848  28.145  11.062
67358W        W35688  24.586  31.910  13.416
67359W        W35689  40.050  34.385   0.257
67360W        W35690  15.198  16.134   0.438
67361W        W35691   2.347  26.107  10.995
67362W        W35692  33.932  12.130   3.219
67363W        W35693  34.902  36.907   0.875
67364W        W35694   6.913  19.111  13.383
67365W        W35695   7.870  36.091  11.392
67366W        W35696  35.475  43.354  13.885
67367W        W35697  16.141   4.442  14.972
67368W        W35698  20.749  30.915   0.757
67369W        W35699  15.285  26.622   2.267
67370W        W35700  10.774  44.350   0.253
67371W        W35701  38.422  33.996  13.925
67372W        W35702  32.004  22.213  10.995
67373W        W35703  19.585  31.092   4.297
67374W        W35704  30.138  28.987  11.087
67375W        W35705  20.163  40.411  13.530
67376W        W35706   1.795  13.833   2.320
67377W        W35707  40.055  24.143   3.742
67378W        W35708  22.637  25.107   3.831
67379W        W35709  27.182  22.624  14.981
67380W        W35710  28.952  40.045  11.429
67381W        W35711  29.965   2.313  14.986
67382W        W35712  43.013  16.128   2.316
67383W        W35713   6.342   8.326  14.992
67384W        W35714  13.761  29.044  12.000
67385W        W35715  30.150  17.665  13.491
67386W        W35716  19.218   2.728   2.750
67387W        W35717   4.827  20.216  12.833
67388W        W35718   2.274  33.976   4.171
67389W        W35719  24.543  25.991  12.922
67390W        W35720  44.269  30.070   1.929
67391W        W35721  42.789   3.936  14.766
67392W        W35722   8.834  16.642  10.915
67393W        W35723  10.201   8.227  13.837
67394W        W35724  14.774  14.296  13.002
67395W        W35725  39.995   0.849   4.744
67396W        W35726   1.791  39.890   2.344
67397W        W35727  24.667   3.367   0.364
67398W        W35728  41.914  22.505   0.404
67399W        W35729  44.918   1.381   2.903
67400W        W35730  43.295  34.978   2.339
67401W        W35731  43.010  23.100  11.968
67402W        W35732  35.428  26.597  11.535
67403W        W35733  18.099  18.568  14.851
67404W        W35734  43.954  14.270  11.991
67405W        W35735  37.970  34.507  10.606
67406W        W35736  34.486  22.079   0.781
67407W        W35737  16.299  15.292  13.933
67408W        W35738   3.376  34.454  13.532
67409W        W35739  44.756  41.916  12.345
67410W        W35740  35.377  39.982  14.453
67411W        W35741  30.113  42.418   3.843
67412W        W35742  10.332   5.698   4.301
67413W        W35743  22.728  16.619  14.958
67414W        W35744  27.017  43.371   2.880
67415W        W35745  18.585  32.085   4.196
67416W        W35746  25.062  27.164  12.086
67417W        W35747  18.266  20.062   0.919
67418W        W35748  11.178  14.769  14.873
67419W        W35749   8.765  13.119   5.224
67420W        W35750  24.709   5.896   2.370
67421W        W35751  10.292  40.357  11.481
67422W        W35752  29.454  12.223   3.160
67423W        W35753  27.491   9.232   0.319
67424W        W35754  35.548  13.213   4.838
67425W        W35755  21.210  15.269  12.500
67426W        W35756  19.669  34.581  14.763
67427W        W35757   8.750  31.915   5.100
67428W        W35758  29.493   2.756  14.317
67429W        W35759   9.199  40.525   3.664
67430W        W35760  34.962  35.406   2.181
67431W        W35761  37.986  36.882  10.415
67432W        W35762  22.718  35.474  14.031
67433W        W35763   1.450   6.281   2.379
67434W        W35764  27.562   3.452  13.903
67435W        W35765   0.949  32.447   1.310
67436W        W35766  28.620  18.555   2.204
67437W        W35767   3.930   5.218  10.995
67438W        W35768  39.530  30.978  14.396
67439W        W35769  22.228   5.904  10.514
67440W        W35770  22.503  13.163   2.330
67441W        W35771  43.936  44.972  14.886
67442W        W35772  25.651  14.122  11.872
67443W        W35773   5.431  40.866  14.361
67444W        W35774  19.229  28.567   0.893
67445W        W35775  42.500  10.208  14.892
67446W        W35776   1.243   6.250   4.618
67447W        W35777  44.954  15.161  13.959
67448W        W35778  30.093  25.140   1.367
67449W        W35779  38.988   2.269   1.307
67450W        W35780  30.025  31.901   2.786
67451W        W35781  42.522  38.868  11.541
67452W        W35782  36.426  44.269  13.853
67453W        W35783   9.215  14.702   1.845
67454W        W35784  31.531  19.536  13.050
67455W        W35785  41.862   9.259   0.954
67456W        W35786  43.383  23.013   2.667
67457W        W35787  21.131  21.167   4.161
67458W        W35788  39.414   6.253  12.985
67459W        W35789   3.886  25.554   4.343
67460W        W35790   4.320  14.252   1.900
67461W        W35791  41.866   1.261  10.953
67462W        W35792  22.068  26.148   0.753
67463W        W35793  13.651   1.956   2.364
67464W        W35794   1.385  22.728   1.407
67465W        W35795  42.471  12.611   3.833
67466W        W35796  38.990  16.277  11.955
67467W        W35797  35.385  17.180   1.713
67468W        W35798   5.309  24.627  12.903
67469W        W35799  36.943   3.442  11.022
67470W        W35800  15.119  14.630   4.331
67471W        W35801  15.252   7.287  13.411
67472W        W35802  21.622  10.309   4.147
67473W        W35803  39.367  26.000   2.847
67474W        W35804  10.763  25.591   1.352
67475W        W35805  25.601  31.971   3.171
67476W        W35806   8.341  22.184  14.275
67477W        W35807  14.696  24.508   4.715
67478W        W35808  26.983  19.628   5.134
67479W        W35809  23.132   9.828  10.613
67480W        W35810  35.032  10.180  13.838
67481W        W35811  14.255  26.951  12.965
67482W        W35812   3.881   2.736   1.797
67483W        W35813   4.280  12.786   2.181
67484W        W35814  27.164  36.502   0.382
67485W        W35815  37.991  31.065   2.186
67486W        W35816  31.545  17.261  11.051
67487W        W35817  32.897  31.574  13.060
67488W        W35818  42.450  35.876  12.940
67489W        W35819   4.396  15.119  12.494
67490W        W35820  16.243  27.133   3.691
67491W        W35821  44.914  17.607  14.910
67492W        W35822   2.339  28.053  13.389
67493W        W35823  40.518  10.181  14.843
67494W        W35824  29.617  14.241   1.749
67495W        W35825  19.227  34.602   2.298
67496W        W35826  38.888  19.248   4.156
67497W        W35827  44.854   3.377   1.222
67498W        W35828  13.164  39.360  12.934
67499W        W35829  10.641  17.749  12.359
67500W        W35830  42.455  30.037  12.909
67501W        W35831   7.829  13.144   1.298
67502W        W35832  11.325  36.358  11.498
67503W        W35833  28.956   8.893  11.563
67504W        W35834  17.243  30.509   4.237
67505W        W35835   8.237  16.684   0.291
67506W        W35836  43.405  27.564  12.087
67507W        W35837  10.718  27.512  12.825
67508W        W35838  33.892  43.957  13.815
67509W        W35839   1.297  21.221  11.975
67510W        W35840  23.019   9.202   0.788
67511W        W35841  23.202  15.820  11.060
67512W        W35842   1.908  34.115   1.703
67513W        W35843  43.777  17.196  13.490
67514W        W35844  32.919  14.251  12.900
67515W        W35845  20.731   1.806   1.753
67516W        W35846  44.795   8.696  10.598
67517W        W35847  42.938  19.570   3.680
67518W        W35848   6.345  20.260   0.898
67519W        W35849  21.195  28.435   2.774
67520W        W35850  39.343  38.855  10.458
67521W        W35851  17.780  42.838   4.226
67522W        W35852  38.503  16.738   0.884
67523W        W35853  36.429  26.147  14.973
67524W        W35854  35.018  26.980  10.984
67525W        W35855  36.536  33.095  10.888
67526W        W35856  27.582  11.626   3.199
67527W        W35857  16.598   2.884  13.889
67528W        W35858  31.647  38.451  11.916
67529W        W35859  18.155  33.517   4.302
67530W        W35860   6.425  31.989   1.807
67531W        W35861  12.153  36.490   0.767
67532W        W35862   5.829  42.781  11.895
67533W        W35863  43.371  15.784  10.584
67534W        W35864   3.739   2.850   4.190
67535W        W35865  42.391  32.906   1.412
67536W        W35866  44.824  22.622   1.441
67537W        W35867  16.618  27.633  10.532
67538W        W35868  35.004  36.913   3.654
67539W        W35869   4.714  34.993  10.959
67540W        W35870   3.906  24.991  10.064
67541W        W35871  12.817  24.042  12.563
67542W        W35872  34.531   1.439  11.064
67543W        W35873   4.879   5.798  13.863
67544W        W35874  24.646  44.824  14.343
67545W        W35875   9.662  40.432   0.772
67546W        W35876  30.498  43.993  11.089
67547W        W35877  20.202  14.222  14.760
67548W        W35878  42.940  21.697   2.731
67549W        W35879  16.138   1.379   2.889
67550W        W35880  37.369  23.653   3.296
67551W        W35881  30.083  13.831   0.794
67552W        W35882  12.750  15.111  14.389
67553W        W35883  39.444   1.480  10.505
67554W        W35884  21.683  36.095   3.362
67555W        W35885   9.742  42.814  14.803
67556W        W35886  25.698  43.455   1.449
67557W        W35887  41.441  11.150   4.805
67558W        W35888   7.694  34.554  10.027
67559W        W35889  30.583  32.552  14.386
67560W        W35890   7.870   9.802   3.869
67561W        W35891   9.287  37.016   2.682
67562W        W35892  44.994  12.743  12.476
67563W        W35893  15.102  27.098   2.374
67564W        W35894   9.830  25.517   3.716
67565W        W35895   2.340  31.440  14.364
67566W        W35896  14.796  20.126  11.949
67567W        W35897  27.620  39.028  14.397
67568W        W35898   1.957   2.411   3.189
67569W        W35899  12.837  12.741  13.852
67570W        W35900  27.575  19.718   2.243
67571W        W35901  35.391  37.043  13.802
67572W        W35902  23.574   8.716  14.886
67573W        W35903   5.820  10.369  13.534
67574W        W35904  19.257  35.435  12.928
67575W        W35905  13.155  22.030   3.295
67576W        W35906  29.493  16.796   2.767
67577W        W35907  17.114  17.248  14.463
67578W        W35908  41.523  42.433   4.232
67579W        W35909   5.799  36.040  12.957
67580W        W35910  23.076  43.875   3.229
67581W        W35911  24.694  29.636  11.997
67582W        W35912  34.998  20.682   0.923
67583W        W35913  28.090  41.810   1.253
67584W        W35914  19.155  28.551   3.235
67585W        W35915  44.874  17.656  10.917
67586W        W35916  32.565   8.161  12.530
67587W        W35917   1.402   0.962   4.771
67588W        W35918  17.278  42.399   3.671
67589W        W35919  28.536  25.068  14.302
67590W        W35920  27.503  22.183  13.358
67591W        W35921   2.394  42.822  13.820
67592W        W35922  34.109  37.944  12.039
67593W        W35923  15.238  38.331  11.551
67594W        W35924  13.627   1.915  12.514
67595W        W35925  16.117  34.477   4.719
67596W        W35926  18.087  11.292   2.769
67597W        W35927   8.799  41.792   4.703
67598W        W35928   7.239   7.695   4.677
67599W        W35929  28.599  37.977  14.296
67600W        W35930  16.230  26.553  10.502
67601W        W35931   4.275   6.358   1.746
67602W        W35932  38.991  19.184   5.226
67603W        W35933  37.460  12.331   3.368
67604W        W35934   6.843  13.289   1.245
67605W        W35935  36.029   4.289  10.455
67606W        W35936  14.719   4.205  11.902
67607W        W35937   6.237  38.039   2.312
67608W        W35938   0.415  42.324   0.875
67609W        W35939   3.747  32.990  12.876
67610W        W35940  40.938  26.165  12.823
67611W        W35941  32.111  30.015   0.283
67612W        W35942   1.915  41.474   0.471
67613W        W35943  18.780  26.511   9.939
67614W        W35944  22.563   6.274  10.145
67615W        W35945   2.460  26.534  12.576
67616W        W35946  16.226  40.924  13.486
67617W        W35947  28.132  44.798   3.644
67618W        W35948  42.480   7.910   1.778
67619W        W35949  13.152  18.563   2.770
67620W        W35950  19.709   6.690  13.875
67621W        W35951  10.167  34.045  10.504
67622W        W35952  32.067  39.950   0.963
67623W        W35953  23.207  26.556  12.459
67624W        W35954  18.740  35.018   0.895
67625W        W35955  38.459   8.286  10.503
67626W        W35956  25.613  21.242  12.506
67627W        W35957  10.693  40.535   4.700
67628W        W35958  17.135   8.295   0.301
67629W        W35959  10.166  10.336  12.522
67630W        W35960  10.380  32.112  13.018
67631W        W35961  32.112  11.689  12.365
67632W        W35962  10.727   8.799   2.385
67633W        W35963  31.412  14.340   4.708
67634W        W35964  36.351  10.652   0.810
67635W        W35965   5.806  17.781   3.280
67636W        W35966  27.120   6.394  14.508
67637W        W35967  43.337  42.967  11.465
67638W        W35968  26.171   1.381   0.928
67639W        W35969  39.419  39.441  12.904
67640W        W35970   4.374  25.607  12.906
67641W        W35971  23.209  25.478  13.840
67642W        W35972  39.937   1.315  11.449
67643W        W35973  17.757  18.673  11.883
67644W        W35974   0.407  40.514   4.826
67645W        W35975  15.272   5.824   3.696
67646W        W35976  13.784   7.284   3.245
67647W        W35977  28.657   4.346  11.070
67648W        W35978  12.212  34.057  13.537
67649W        W35979  43.321  16.091  12.461
67650W        W35980  21.059  42.403   2.360
67651W        W35981  38.025  18.611   2.225
67652W        W35982  22.099  20.609  14.767
67653W        W35983  25.687  15.267  14.991
67654W        W35984   5.818  40.894  10.545
67655W        W35985  24.621  33.500   4.754
67656W        W35986   8.752  28.540   4.339
67657W        W35987   2.724   0.831  12.979
67658W        W35988  44.404  30.150  11.948
67659W        W35989  27.522  26.478  13.325
67660W        W35990  25.688  24.169   3.300
67661W        W35991  23.212  12.288   2.682
67662W        W35992   9.708  11.708  13.455
67663W        W35993  16.702   8.376  14.490
67664W        W35994  25.202  27.089   1.900
67665W        W35995  12.343  42.309   4.739
67666W        W35996  12.782  26.056   1.920
67667W        W35997  25.653  41.537   2.374
67668W        W35998  19.106  11.161   1.444
67669W        W35999  10.790  19.156   0.412
67670W        W36000  36.060  13.639   4.117
67671W        W36001   6.718  18.112  11.528
67672W        W36002  22.212  37.982   0.482
67673W        W36003  10.654   6.754   0.873
67674W        W36004  25.108  16.300  13.901
67675W        W36005  32.118  13.845   1.887
67676W        W36006  10.172  42.421  13.346
67677W        W36007  44.476   0.959  13.793
67678W        W36008  17.797  14.667  13.444
67679W        W36009  44.356  14.145   0.869
67680W        W36010  40.831  24.497  12.024
67681W        W36011  40.517  40.967   2.714
67682W        W36012  17.222   7.909  14.966
67683W        W36013  28.578   7.668   3.294
67684W        W36014  43.379  15.808   1.783
67685W        W36015  29.020   6.417  13.388
67686W        W36016  15.139   6.819  12.097
67687W        W36017  24.686   1.739  14.901
67688W        W36018  16.706  35.461   4.700
67689W        W36019  44.410   0.347   3.828
67690W        W36020   2.237  21.153  12.495
67691W        W36021   0.294   5.240  13.441
67692W        W36022  34.590  26.956   3.365
67693W        W36023  34.047   9.682   4.298
67694W        W36024  35.381  20.069   1.393
67695W        W36025  13.760  24.082  14.774
67696W        W36026  29.086  36.534   4.286
67697W        W36027  15.157  39.943   0.390
67698W        W36028  31.573  44.978   2.364
67699W        W36029  42.346  11.817  12.904
67700W        W36030   1.365  16.732   4.299
67701W        W36031  30.471  13.348   4.770
67702W        W36032  34.051   5.291  14.341
67703W        W36033  28.648  34.446  12.360
67704W        W36034  13.208  19.190   0.824
67705W        W36035  42.525  27.181  11.021
67706W        W36036  10.788  41.035  12.390
67707W        W36037  28.076  16.573   3.737
67708W        W36038   2.293  26.574  14.411
67709W        W36039  43.369  30.515   4.335
67710W        W36040  21.140  27.446  10.456
67711W        W36041  29.008  12.722   2.274
67712W        W36042  20.727  16.724  13.354
67713W        W36043   6.258  35.943   3.736
67714W        W36044  15.652  18.151  10.085
67715W        W36045  41.912  39.018   4.820
67716W        W36046  32.633  30.484  13.438
67717W        W36047  35.039  31.148   0.474
67718W        W36048  28.026  13.299  13.372
67719W        W36049  18.635  11.704  10.052
67720W        W36050  25.641  43.810  13.805
67721W        W36051  29.927  28.511   3.738
67722W        W36052  42.896   0.848   4.325
67723W        W36053  27.679  43.492  14.823
67724W        W36054  29.995  10.318  12.031
67725W        W36055  31.148   9.245   3.257
67726W        W36056   7.412   3.285  14.317
67727W        W36057  26.961  19.045  14.447
67728W        W36058  19.733  19.671   0.771
67729W        W36059  22.042  13.821   0.810
67730W        W36060  31.496  30.148   1.734
67731W        W36061  26.038   1.854   2.296
67732W        W36062  36.884  10.316  13.816
67733W        W36063  16.116  43.921  13.921
67734W        W36064   0.254   8.343  14.991
67735W        W36065  36.406  17.684   4.269
67736W        W36066  22.695  26.993   0.446
67737W        W36067  39.851  21.155   3.383
67738W        W36068  31.078  38.026   3.368
67739W        W36069  35.552  28.595  11.116
67740W        W36070   7.889  38.825   5.304
67741W        W36071   0.974  32.897   1.411
67742W        W36072   7.706  29.461  12.047
67743W        W36073   6.316  37.489  11.954
67744W        W36074  39.863  38.504  13.537
67745W        W36075  34.865  31.024   2.268
67746W        W36076  20.153  18.600   0.419
67747W        W36077  40.979   1.775  14.337
67748W        W36078   6.302  24.521   1.913
67749W        W36079  32.064  33.130   2.406
67750W        W36080  21.213  33.542   4.709
67751W        W36081  33.400  12.615   1.397
67752W        W36082   9.680  35.072  12.425
67753W        W36083  19.605  30.495   2.373
67754W        W36084  26.007  39.338  14.899
67755W        W36085  23.071  38.427  10.921
67756W        W36086  17.687  42.896   2.273
67757W        W36087   0.439  39.943   2.221
67758W        W36088   9.258  22.253   1.752
67759W        W36089  17.772   6.782  11.076
67760W        W36090  25.041  26.689  12.396
67761W        W36091  25.512  15.673  11.507
67762W        W36092   7.842  17.723  12.554
67763W        W36093  25.520  38.353   0.281
67764W        W36094  39.322  32.039   4.345
67765W        W36095  12.712  42.798  12.372
67766W        W36096  18.231  14.285   4.128
67767W        W36097  36.387   2.783   2.698
67768W        W36098  37.936  13.722  10.479
67769W        W36099  27.613   1.432  10.954
67770W        W36100  38.485   4.885  11.914
67771W        W36101  10.677  13.215  12.553
67772W        W36102  30.598   1.743   2.282
67773W        W36103   7.249  39.428   1.317
67774W        W36104  19.271  39.853   4.670
67775W        W36105  19.053   2.252  11.077
67776W        W36106  44.788   1.775  10.512
67777W        W36107  42.974  39.829   0.856
67778W        W36108   2.836  22.686  12.958
67779W        W36109  17.064  24.483   1.898
67780W        W36110  19.283  11.784  11.006
67781W        W36111  22.513  24.606  11.900
67782W        W36112   0.457  36.958  13.969
67783W        W36113  25.008  22.015  12.573
67784W        W36114   7.308  43.380  14.359
67785W        W36115  43.956   1.389   0.852
67786W        W36116  29.092  36.553  11.921
67787W        W36117  27.949  29.477   1.912
67788W        W36118  42.523  22.216  12.899
67789W        W36119   4.334  22.741  11.946
67790W        W36120  27.674  27.692  14.423
67791W        W36121  13.705  33.006  14.876
67792W        W36122  16.288  29.537   0.881
67793W        W36123  15.090  18.757   4.124
67794W        W36124  25.059   0.302   0.361
67795W        W36125  40.859  25.653  14.499
67796W        W36126  38.004   9.854   3.710
67797W        W36127   5.762  37.570   1.275
67798W        W36128  44.490  11.156  11.487
67799W        W36129  38.897  32.068   1.843
67800W        W36130   9.329   1.861  10.939
67801W        W36131  37.948  10.680   2.409
67802W        W36132  36.552   6.717   1.765
67803W        W36133  13.604  38.540  13.019
67804W        W36134  18.100  41.531  11.985
67805W        W36135   8.268  39.423  11.583
67806W        W36136  16.624   0.364   4.160
67807W        W36137  18.760  19.643  14.013
67808W        W36138   0.450  23.134   3.725
67809W        W36139  27.638   3.322  14.809
67810W        W36140   5.897  41.392   0.867
67811W        W36141   1.427   4.302  13.544
67812W        W36142  24.574  39.928   0.443
67813W        W36143  41.307  11.673   4.732
67814W        W36144   1.828   1.360   4.633
67815W        W36145  21.576  37.070  14.313
67816W        W36146  35.091  27.557  13.330
67817W        W36147   2.902  21.623  10.412
67818W        W36148  28.624  11.804   0.836
67819W        W36149  44.314  14.305   4.119
67820W        W36150  42.874  18.551  10.606
67821W        W36151  23.718  21.041   3.362
67822W        W36152  31.528   9.683  14.903
67823W        W36153  11.166  41.437   3.261
67824W        W36154  21.019   6.821   5.161
67825W        W36155  39.810  13.108  10.574
67826W        W36156  40.889  18.117   0.297
67827W        W36157  39.047   6.889   2.771
67828W        W36158   4.892  18.076  14.981
67829W        W36159  43.497  40.926   1.378
67830W        W36160  43.975   2.910  14.328
67831W        W36161  30.054  25.608  12.076
67832W        W36162   8.369  42.335  12.863
67833W        W36163  35.509   3.845   3.244
67834W        W36164   8.335  17.185  12.835
67835W        W36165   9.333  31.944  11.882
67836W        W36166   3.817  39.033   5.656
67837W        W36167  41.363   2.249  14.396
67838W        W36168  21.152  42.297   4.228
67839W        W36169   6.397  41.854   2.665
67840W        W36170  12.219  40.367   3.334
67841W        W36171  26.017  34.593   0.936
67842W        W36172  42.308  19.265   0.797
67843W        W36173  29.066  25.582   2.330
67844W        W36174  11.165   3.860   3.726
67845W        W36175   4.836   6.366   4.600
67846W        W36176  13.192   1.958   4.170
67847W        W36177  15.172   5.882   4.748
67848W        W36178  33.511   7.390   9.999
67849W        W36179  33.549  25.651   3.824
67850W        W36180   7.670   3.457  13.922
67851W        W36181  19.145  17.090  14.977
67852W        W36182  27.505  17.571  12.536
67853W        W36183   2.786  27.581  11.050
67854W        W36184  21.514  37.928   0.924
67855W        W36185  11.138   5.703   1.259
67856W        W36186   9.844  14.310   2.879
67857W        W36187  44.926  24.175  14.817
67858W        W36188  21.576   2.372   0.354
67859W        W36189  27.191  32.082  13.964
67860W        W36190  44.346  14.235   3.343
67861W        W36191  21.746   0.861  13.461
67862W        W36192  11.722  13.348  13.977
67863W        W36193  39.484  21.542  11.857
67864W        W36194   9.212  24.559  12.838
67865W        W36195  42.936   5.227   1.730
67866W        W36196  43.463  15.602  11.423
67867W        W36197  28.942   9.208   2.399
67868W        W36198  43.843  30.040   4.118
67869W        W36199  41.820  30.428  10.087
67870W        W36200   3.840  14.184   4.713
67871W        W36201   8.393  42.363  10.554
67872W        W36202   9.685  13.251  14.391
67873W        W36203  42.472   2.932  14.891
67874W        W36204  24.021  28.033  12.070
67875W        W36205  33.115   8.204  13.371
67876W        W36206  29.159  14.635  11.432
67877W        W36207   2.433  26.632   0.307
67878W        W36208  25.098   4.729   0.342
67879W        W36209  20.567  43.950   0.243
67880W        W36210  17.115  27.591  10.520
67881W        W36211  21.201  40.502  14.773
67882W        W36212  11.857   6.282  14.765
67883W        W36213  22.536  22.216   1.249
67884W        W36214  40.344   2.414   4.801
67885W        W36215  36.962  44.419  12.503
67886W        W36216  31.114  20.216  14.790
67887W        W36217  26.464  42.523   2.902
67888W        W36218   0.487  31.603   0.856
67889W        W36219  37.513  36.419  10.903
67890W        W36220   2.862  22.017   3.305
67891W        W36221   6.419  32.410   2.687
67892W        W36222  31.920  32.082  12.883
67893W        W36223  30.562   7.313   0.800
67894W        W36224   3.380  12.640   2.691
67895W        W36225  23.559  25.088  13.533
67896W        W36226   8.865  21.107   0.838
67897W        W36227  21.634  42.806  11.961
67898W        W36228   5.338   8.677  10.916
67899W        W36229  37.044  37.931   0.318
67900W        W36230  28.676   6.270   3.236
67901W        W36231  24.159  20.547   2.812
67902W        W36232  10.185  41.887   4.805
67903W        W36233  37.516  33.488   0.774
67904W        W36234  27.028  39.470   3.275
67905W        W36235  11.254  10.201  11.487
67906W        W36236  40.931   2.256   0.332
67907W        W36237  15.104  34.099  12.030
67908W        W36238   4.386  20.662   1.752
67909W        W36239   8.825  14.311  10.027
67910W        W36240  29.618   3.710  11.125
67911W        W36241   2.379  22.705   5.209
67912W        W36242  38.025  28.159  14.418
67913W        W36243  17.291  29.502  13.857
67914W        W36244   8.306  27.955  10.991
67915W        W36245  38.853  21.716  13.951
67916W        W36246   8.753  28.143  11.923
67917W        W36247  14.272  41.936   5.180
67918W        W36248  39.456   8.197  14.401
67919W        W36249   7.690  43.294  11.899
67920W        W36250  32.923  19.687  10.025
67921W        W36251  24.493  10.730  14.340
67922W        W36252   6.342  26.594  10.121
67923W        W36253  32.908  11.808   1.394
67924W        W36254  21.579  16.283  10.434
67925W        W36255  23.066  20.131  12.500
67926W        W36256  13.305  36.365  14.355
67927W        W36257   2.311  13.841   4.632
67928W        W36258  21.598   8.845  10.042
67929W        W36259   6.770  13.171  14.771
67930W        W36260   0.373  37.984   1.699
67931W        W36261  42.824  26.458   3.329
67932W        W36262  17.559  37.391  13.014
67933W        W36263  29.489  16.190  12.973
67934W        W36264  18.115  28.647  14.962
67935W        W36265  32.967  36.899  12.929
67936W        W36266  26.578   4.926   1.437
67937W        W36267  15.212  24.995  10.535
67938W        W36268  15.801  39.031  12.425
67939W        W36269  26.475  31.481  10.948
67940W        W36270  40.476   5.770   3.810
67941W        W36271   5.352  16.316   3.317
67942W        W36272  11.646  40.423  13.414
67943W        W36273   5.896   4.420  13.507
67944W        W36274  26.172   0.450   3.756
67945W        W36275  14.768  20.184   3.195
67946W        W36276  38.439  40.462   4.620
67947W        W36277  32.896  43.430   2.234
67948W        W36278  13.173  43.360  12.094
67949W        W36279  37.876   8.301   1.714
67950W        W36280  29.598  39.815  10.141
67951W        W36281  28.493  43.765  13.540
67952W        W36282  20.099  33.893   1.340
67953W        W36283  34.977  26.110  11.006
67954W        W36284  34.470   7.400  10.584
67955W        W36285  34.482  18.183  14.779
67956W        W36286  38.878  12.666   4.803
67957W        W36287  35.460  39.428  10.909
67958W        W36288   0.345  43.854  13.370
67959W        W36289  25.019   6.686   4.210
67960W        W36290  34.909   1.321   3.384
67961W        W36291   1.833  38.337   5.236
67962W        W36292  31.078  26.997  14.784
67963W        W36293  33.007  27.962  10.930
67964W        W36294  44.864  17.766   0.359
67965W        W36295  23.056  44.420   0.425
67966W        W36296  23.000  22.095  14.871
67967W        W36297  11.850  38.374   2.669
67968W        W36298  15.739  27.962  12.057
67969W        W36299   6.221   5.202  13.481
67970W        W36300  33.500  39.350  10.903
67971W        W36301  15.682  32.462  14.330
67972W        W36302  32.962  31.507   2.848
67973W        W36303  13.113  24.567  10.404
67974W        W36304  16.271  17.102  13.420
67975W        W36305  36.994  22.170  12.965
67976W        W36306  41.030  20.244   3.678
67977W        W36307  20.615  11.368  12.057
67978W        W36308   9.207  41.389  12.018
67979W        W36309  44.895   5.813  14.813
67980W        W36310  12.676  14.682  13.429
67981W        W36311  39.985  28.573   2.669
67982W        W36312  10.208  10.208  10.101
67983W        W36313  23.007  17.731  14.457
67984W        W36314   0.463  39.378   2.816
67985W        W36315  26.011  27.575  12.882
67986W        W36316  28.981  43.999  10.525
67987W        W36317   5.381   7.353   1.433
67988W        W36318  37.007  40.503   2.753
67989W        W36319  15.728  21.164   1.326
67990W        W36320  39.442  26.610   5.239
67991W        W36321  16.226  33.383  12.092
67992W        W36322   0.363  19.673   5.221
67993W        W36323   0.457  33.072  12.546
67994W        W36324  22.565  30.996  12.843
67995W        W36325  24.587   4.293   4.342
67996W        W36326   4.446  13.325   3.681
67997W        W36327   8.792   1.333   3.662
67998W        W36328  43.301  16.139   2.256
67999W        W36329  26.675   1.337  13.973
68000W        W36330  28.548  14.769  13.357
68001W        W36331  36.931  34.015  11.080
68002W        W36332  27.942  23.611   1.225
68003W        W36333  16.212  22.560  14.343
68004W        W36334  10.205  42.456   3.374
68005W        W36335  24.495  23.017  13.992
68006W        W36336   1.848  16.131   1.931
68007W        W36337  11.771  38.043   0.952
68008W        W36338   2.852  18.563  13.513
68009W        W36339  41.440  32.909  11.406
68010W        W36340  28.488  24.176  12.407
68011W        W36341  16.122  18.216  12.923
68012W        W36342   3.280  35.870  12.461
68013W        W36343   7.361  12.124  11.410
68014W        W36344  31.436  15.679   2.886
68015W        W36345  33.509  22.739  14.759
68016W        W36346  15.240  24.171   0.370
68017W        W36347  30.911  14.258   0.468
68018W        W36348  35.458  24.694  11.572
68019W        W36349  37.486  44.334  10.546
68020W        W36350  24.508  24.053   2.186
68021W        W36351  23.538  42.428  10.461
68022W        W36352  27.539  17.304  10.404
68023W        W36353   6.272  22.180  12.094
68024W        W36354  44.948  28.056   3.152
68025W        W36355   1.356  38.004  11.960
68026W        W36356  33.116  33.497   0.322
68027W        W36357  40.385  32.075   2.213
68028W        W36358   9.770  25.655   4.807
68029W        W36359  27.566  37.949  13.897
68030W        W36360  25.558  41.865  13.307
68031W        W36361  17.748  40.997  13.800
68032W        W36362  14.141   2.433  14.283
68033W        W36363   4.225  14.662  11.454
68034W        W36364  23.562  19.625  11.404
68035W        W36365  32.069  27.054   0.844
68036W        W36366  37.989  41.409   1.429
68037W        W36367  42.395  37.956   2.241
68038W        W36368  35.493  35.575   0.949
68039W        W36369  33.092   4.248   2.350
68040W        W36370  21.656  27.645   0.380
68041W        W36371  33.614  18.602  14.325
68042W        W36372   8.680   1.732  12.846
68043W        W36373  10.289  34.444  12.091
68044W        W36374  32.975  28.543  10.562
68045W        W36375  39.379  26.510   1.402
68046W        W36376  28.467   2.253  12.465
68047W        W36377  19.140  44.771  12.014
68048W        W36378  18.714  18.604  14.955
68049W        W36379  16.625  25.052  10.995
68050W        W36380   4.284  24.030   3.299
68051W        W36381  41.974  26.468  14.423
68052W        W36382  12.742   6.868   2.217
68053W        W36383  21.580  14.170   1.911
68054W        W36384  27.671  20.234  11.908
68055W        W36385  41.296  24.662  10.561
68056W        W36386  24.208   3.831   4.622
68057W        W36387  25.205  26.070  14.484
68058W        W36388  19.238  44.993  12.412
68059W        W36389  10.730   0.784  10.579
68060W        W36390   0.304  23.175  12.523
68061W        W36391   3.737  43.282   1.242
68062W        W36392  15.646  34.491  12.567
68063W        W36393  23.017   8.670   2.844
68064W        W36394  24.177  38.494   1.860
68065W        W36395  43.990  28.112  11.398
68066W        W36396  28.605   9.801  13.858
68067W        W36397  12.263  31.520   3.381
68068W        W36398  37.555  31.506   0.873
68069W        W36399  13.176   9.150   0.896
68070W        W36400   0.937  36.059   0.892
68071W        W36401   5.200  33.457  13.891
68072W        W36402  21.082  39.448   4.642
68073W        W36403  34.424  34.396   4.252
68074W        W36404  16.312   2.317  12.000
68075W        W36405  18.700  28.536   2.713
68076W        W36406   4.361  44.901  12.075
68077W        W36407   1.303  42.912  12.980
68078W        W36408   0.406  18.098   2.340
68079W        W36409  19.041  30.946   4.606
68080W        W36410  13.303   4.328   0.416
68081W        W36411  43.813  32.551   3.630
68082W        W36412  22.111  15.192  14.883
68083W        W36413   8.334   2.367   3.705
68084W        W36414  27.660  28.012   2.730
68085W        W36415  42.867  14.632  11.978
68086W        W36416  17.713  41.480  11.963
68087W        W36417  20.068   2.229   1.824
68088W        W36418   0.452   0.340   1.895
68089W        W36419   6.694  34.074  14.458
68090W        W36420  42.911  17.108   3.727
68091W        W36421  35.469  35.455   4.282
68092W        W36422  31.578  33.073  14.911
68093W        W36423  25.076  22.253   1.790
68094W        W36424   4.801   9.336  11.894
68095W        W36425   1.378  23.037   3.755
68096W        W36426   6.695  36.418   3.215
68097W        W36427  30.572   9.217  13.508
68098W        W36428  22.147  11.358  10.408
68099W        W36429  24.138  29.523   4.775
68100W        W36430  14.200  28.550   3.334
68101W        W36431  12.278  11.814   0.879
68102W        W36432   4.266  25.588   4.272
68103W        W36433  33.588   5.332  13.904
68104W        W36434   6.883  36.445  14.508
68105W        W36435  39.425  13.343  14.850
68106W        W36436  38.007  43.512  12.861
68107W        W36437  22.614  10.210  14.768
68108W        W36438  25.581   9.260   3.211
68109W        W36439  13.608  28.936   3.344
68110W        W36440  21.683  38.923   2.321
68111W        W36441  19.709  10.188   3.811
68112W        W36442  42.351  23.598  13.423
68113W        W36443   8.216  15.728  13.992
68114W        W36444   7.823  18.277   5.083
68115W        W36445  41.824  12.638   0.387
68116W        W36446  35.917  40.524   4.258
68117W        W36447  21.039  35.590   0.757
68118W        W36448  36.895   2.263  11.077
68119W        W36449  14.278  15.164   3.145
68120W        W36450  10.225  27.690   3.208
68121W        W36451   8.889   4.790   3.196
68122W        W36452  31.496  36.888  12.554
68123W        W36453  43.909  24.685   2.766
68124W        W36454  19.770  35.452   0.752
68125W        W36455  33.080  20.592   2.344
68126W        W36456  40.945   9.837  13.483
68127W        W36457  28.491   0.924   0.845
68128W        W36458  23.143  17.735  12.959
68129W        W36459  13.656  42.859   0.336
68130W        W36460  30.460   9.697   0.355
68131W        W36461  22.555  24.125  11.588
68132W        W36462   7.209   3.894   4.795
68133W        W36463   4.824  42.318  14.318
68134W        W36464   9.310   2.471   1.800
68135W        W36465  39.852  43.920  10.993
68136W        W36466  13.267   6.879  14.789
68137W        W36467  39.912   1.284  11.998
68138W        W36468  19.258  19.156  11.901
68139W        W36469  42.958  14.199   2.395
68140W        W36470  11.344  12.288   2.683
68141W        W36471  21.708   3.452  12.902
68142W        W36472  42.963  11.672   4.781
68143W        W36473  24.182  36.409  10.933
68144W        W36474   4.714   2.406   4.214
68145W        W36475  43.820  14.140  12.982
68146W        W36476   4.283  11.186   3.377
68147W        W36477  36.533   8.673   4.254
68148W        W36478  31.112  12.117   0.756
68149W        W36479   0.829  43.841  14.779
68150W        W36480  27.951  27.076  13.791
68151W        W36481  11.668  13.245   4.606
68152W        W36482  44.436  38.028  11.861
68153W        W36483  19.189  42.958   2.767
68154W        W36484  43.306  28.957   4.189
68155W        W36485   0.870  31.507   1.337
68156W        W36486  41.861  22.517   3.202
68157W        W36487   2.760   2.844   2.858
68158W        W36488  27.557  23.719   3.715
68159W        W36489  22.719  35.075   2.277
68160W        W36490  28.458  38.524   1.444
68161W        W36491  24.974   9.884  13.415
68162W        W36492  10.230  23.647  12.836
68163W        W36493  33.885  15.203   1.804
68164W        W36494  24.064  36.982  10.519
68165W        W36495  36.912  32.440  14.436
68166W        W36496  17.704  21.177  10.950
68167W        W36497  20.655   6.742   9.972
68168W        W36498  36.935  34.885   0.305
68169W        W36499   3.234  10.682   3.296
68170W        W36500   3.281   4.706   2.391
68171W        W36501   2.359  20.194  13.944
68172W        W36502  10.372  37.032   4.654
68173W        W36503  18.706  19.629   2.332
68174W        W36504  33.058  43.950  12.024
68175W        W36505  24.043  16.740  11.100
68176W        W36506  30.949   2.884  11.393
68177W        W36507  42.435  26.687   3.815
68178W        W36508  35.959   2.432   1.225
68179W        W36509   2.901   2.909   4.598
68180W        W36510  20.601  32.605   2.182
68181W        W36511  39.874  15.722   4.645
68182W        W36512  32.545  25.503   1.869
68183W        W36513  22.563  22.655   0.962
68184W        W36514  33.586   3.768  11.054
68185W        W36515   7.899  29.425   0.291
68186W        W36516  12.223  16.285  13.415
68187W        W36517   0.883  15.265  11.545
68188W        W36518  23.619   4.245  13.441
68189W        W36519  43.286  32.050   3.238
68190W        W36520  44.884  20.757   3.780
68191W        W36521  44.269  38.457  13.367
68192W        W36522   9.664  28.638  12.391
68193W        W36523  43.272  31.896  11.376
68194W        W36524  42.380  21.743  13.353
68195W        W36525   4.378   4.420   1.788
68196W        W36526   6.736  29.659  10.516
68197W        W36527  13.825  28.142  13.368
68198W        W36528  30.556  18.187  13.521
68199W        W36529  41.450   9.384   3.825
68200W        W36530   4.932  28.582  11.060
68201W        W36531   8.841  16.229  11.391
68202W        W36532  44.860  36.000   4.781
68203W        W36533  42.425  35.016   3.822
68204W        W36534   6.733  15.813   3.660
68205W        W36535  39.442   1.467   0.762
68206W        W36536   6.285  32.941  11.409
68207W        W36537   2.819   7.271  14.784
68208W        W36538   4.790  16.182   0.852
68209W        W36539  17.125  39.529   2.343
68210W        W36540   2.877  15.740   4.333
68211W        W36541  16.593  31.020  14.905
68212W        W36542   2.732  30.583   2.270
68213W        W36543  29.477   1.802   5.089
68214W        W36544  19.245   8.837  11.521
68215W        W36545   5.863  24.152  13.440
68216W        W36546  23.001  45.000  11.037
68217W        W36547  26.064   1.828  14.776
68218W        W36548  40.054  19.763   2.715
68219W        W36549  18.560  30.618  11.972
68220W        W36550  30.412  43.328   4.603
68221W        W36551  19.140  29.540   0.848
68222W        W36552  25.963   4.417   4.302
68223W        W36553  27.456   6.724   4.162
68224W        W36554  40.874  40.854   3.732
68225W        W36555  34.411   4.288  14.460
68226W        W36556   8.799  15.244  12.441
68227W        W36557  25.599   9.832  14.825
68228W        W36558  43.010  44.862  14.283
68229W        W36559  41.026  23.723  13.343
68230W        W36560  13.733  29.998  11.974
68231W        W36561  32.529  21.257  11.986
68232W        W36562  21.564  19.633  13.473
68233W        W36563  25.484  30.917  12.976
68234W        W36564  25.003  40.361   4.598
68235W        W36565   1.800  23.504  13.004
68236W        W36566  31.094  42.287   4.312
68237W        W36567   6.204  28.434   9.970
68238W        W36568  42.889  34.029   0.404
68239W        W36569  32.444  21.580   4.686
68240W        W36570   1.360   7.897   4.236
68241W        W36571   2.771  41.410  10.937
68242W        W36572  19.185  17.769   9.551
68243W        W36573  30.153  24.179  14.903
68244W        W36574  33.914  32.589  14.799
68245W        W36575  17.622  42.481  10.953
68246W        W36576  19.559  25.024  12.987
68247W        W36577  33.518  33.877  11.552
68248W        W36578  10.832  31.529  12.503
68249W        W36579   4.931  21.749   0.451
68250W        W36580  43.879  27.035   1.850
68251W        W36581   8.682  15.108  12.961
68252W        W36582  43.376  18.266  11.541
68253W        W36583  35.992  16.578  13.387
68254W        W36584  43.480  11.820  14.384
68255W        W36585   1.377  44.309   2.392
68256W        W36586   2.754  34.867  11.019
68257W        W36587   9.330  13.257  11.371
68258W        W36588  26.579  30.022   1.273
68259W        W36589  33.895   8.199   2.398
68260W        W36590  37.563  16.672   2.295
68261W        W36591  33.383  15.327  13.039
68262W        W36592  38.413  40.822   0.731
68263W        W36593   2.848   9.337  10.986
68264W        W36594   6.742  21.163  12.094
68265W        W36595  28.935  21.161   2.858
68266W        W36596  26.662  15.117  10.918
68267W        W36597  23.579   2.302   1.445
68268W        W36598  28.579  19.569   2.768
68269W        W36599  40.953  18.272  12.438
68270W        W36600  22.091   5.247   4.342
68271W        W36601  17.698  22.134   5.161
68272W        W36602   3.302  22.153  12.472
68273W        W36603  23.552  27.158  11.538
68274W        W36604  10.307  33.922   2.215
68275W        W36605  15.118   8.291   1.899
68276W        W36606  23.515  35.069   0.840
68277W        W36607  39.900  24.608  13.815
68278W        W36608  40.463   0.306  10.889
68279W        W36609   9.233   3.284  14.992
68280W        W36610   6.341  11.364   0.727
68281W        W36611  25.036   6.809  11.049
68282W        W36612  24.560  44.940   2.900
68283W        W36613  43.872  44.943   1.705
68284W        W36614  35.098  12.321  14.374
68285W        W36615  34.088  12.685   2.389
68286W        W36616   3.931  42.788   0.832
68287W        W36617  35.913  12.758   3.852
68288W        W36618  26.653  33.946  13.352
68289W        W36619   7.721  41.913   0.470
68290W        W36620  18.051  39.041   3.825
68291W        W36621  14.166  30.595  10.079
68292W        W36622  10.253  29.165  13.892
68293W        W36623   9.889   9.814  14.296
68294W        W36624  22.205  28.491   2.239
68295W        W36625  11.204  15.653   1.887
68296W        W36626  39.938  32.141  13.355
68297W        W36627  34.101  25.651  13.811
68298W        W36628  26.954  10.684  11.537
68299W        W36629  23.634   5.239  14.021
68300W        W36630  35.538   1.380  13.452
68301W        W36631  35.386  32.445   3.711
68302W        W36632  13.271  10.797  14.329
68303W        W36633   3.846  41.396  14.775
68304W        W36634   4.876  13.759  13.465
68305W        W36635  38.857  38.479  11.415
68306W        W36636   3.826   7.365  10.490
68307W        W36637   5.872  21.593  11.578
68308W        W36638  16.264   2.360  11.054
68309W        W36639  18.713   6.678  10.932
68310W        W36640   9.722  11.236  14.803
68311W        W36641  39.383  17.776   1.310
68312W        W36642  25.663   3.242  10.585
68313W        W36643   6.858  18.742  14.381
68314W        W36644  19.581  18.281   3.666
68315W        W36645  22.224   2.867   0.327
68316W        W36646  23.219  18.272  11.408
68317W        W36647   6.199  15.258   3.319
68318W        W36648  31.955   6.368   1.429
68319W        W36649   0.925  39.415  10.894
68320W        W36650  21.743  29.497  10.463
68321W        W36651  20.078   7.879   4.168
68322W        W36652  34.871  31.012   4.142
68323W        W36653  19.631   0.380  11.502
68324W        W36654  39.435  17.796  11.002
68325W        W36655  28.010  28.537   1.278
68326W        W36656  42.974   9.857  10.454
68327W        W36657   7.289   0.846   3.819
68328W        W36658  28.528  40.529  14.025
68329W        W36659  44.267   2.377   2.300
68330W        W36660  19.575  17.136  13.004
68331W        W36661  12.614  29.617   0.344
68332W        W36662  44.794   0.394  14.288
68333W        W36663   7.892  24.592   0.398
68334W        W36664  20.194  43.793  12.880
68335W        W36665  12.308  39.929   2.781
68336W        W36666  21.566  31.025   3.857
68337W        W36667  12.797  22.572   2.778
68338W        W36668  36.089  21.101   1.762
68339W        W36669   1.321  30.012  11.116
68340W        W36670  31.102  30.123  12.529
68341W        W36671  39.518   5.402   1.288
68342W        W36672   5.793  39.439  10.530
68343W        W36673  27.448   6.680  11.506
68344W        W36674  15.216   2.926   1.337
68345W        W36675  25.005  32.115   4.764
68346W        W36676   1.413  27.957   0.266
68347W        W36677   0.869   0.864  10.448
68348W        W36678   5.321   4.942   3.351
68349W        W36679   2.440   7.786  12.918
68350W        W36680  36.090  13.640   1.811
68351W        W36681  13.731  42.980  11.551
68352W        W36682   2.330  33.116   3.232
68353W        W36683  40.918  20.572  10.910
68354W        W36684  16.744  12.847   0.792
68355W        W36685  33.558   4.226   3.835
68356W        W36686  34.485  10.246   4.832
68357W        W36687   5.281  21.179  13.036
68358W        W36688  20.078  14.277  11.093
68359W        W36689  34.451  29.154  12.411
68360W        W36690   2.413  40.934  11.093
68361W        W36691  33.104   7.383   2.378
68362W        W36692  40.377  23.526  10.570
68363W        W36693  10.209  19.278  12.061
68364W        W36694  14.256  42.897   3.166
68365W        W36695  15.083   3.720   4.303
68366W        W36696  17.061   2.782  14.385
68367W        W36697  14.340  37.571  10.907
68368W        W36698  12.731   1.958  12.557
68369W        W36699  30.975  40.862  13.393
68370W        W36700  27.047  16.086   1.211
68371W        W36701  13.610   6.393   2.749
68372W        W36702   1.275  14.305   0.441
68373W        W36703   6.816  21.189  12.431
68374W        W36704  17.782   2.312  11.460
68375W        W36705  10.866  38.842   3.633
68376W        W36706  28.140  19.769   3.782
68377W        W36707  30.106  25.502  12.955
68378W        W36708  29.493   9.770  14.413
68379W        W36709   0.845   1.932   2.788
68380W        W36710  38.527   9.324   3.643
68381W        W36711   7.331  22.145  14.024
68382W        W36712  24.722  21.160  12.452
68383W        W36713  17.142  28.128   1.274
68384W        W36714  37.531   6.407  10.560
68385W        W36715  29.998  39.869  13.958
68386W        W36716  23.231  28.482  11.447
68387W        W36717  39.916  39.935  12.884
68388W        W36718  39.915  25.040   1.710
68389W        W36719  33.571  44.912  10.522
68390W        W36720  31.955  11.215   1.916
68391W        W36721  38.436  15.595   4.679
68392W        W36722   0.926  19.119  11.929
68393W        W36723  30.434   5.880   2.812
68394W        W36724  17.730  13.151  12.348
68395W        W36725  18.671  16.277   2.682
68396W        W36726  14.654  42.964   4.316
68397W        W36727  37.990  39.471  11.051
68398W        W36728  21.672  29.977  14.915
68399W        W36729  34.060  32.543   4.341
68400W        W36730  34.998  37.491   2.216
68401W        W36731  19.697  26.979  12.356
68402W        W36732  43.510  12.853  14.801
68403W        W36733  40.488  44.495  14.954
68404W        W36734  18.739  39.959  10.966
68405W        W36735  35.052  42.289   1.839
68406W        W36736   1.788   0.801  13.898
68407W        W36737   9.783  14.106  14.829
68408W        W36738   9.281   4.310  14.445
68409W        W36739  40.927  16.297  14.808
68410W        W36740   9.827  34.594  11.969
68411W        W36741  28.159  14.811  14.028
68412W        W36742   8.791  17.663   3.243
68413W        W36743  31.442  24.171  11.937
68414W        W36744   7.322   1.241   4.258
68415W        W36745  16.222  30.509   3.261
68416W        W36746   6.767   1.974  13.487
68417W        W36747  21.623  35.102  11.930
68418W        W36748  24.070  24.983   2.792
68419W        W36749  25.001  36.990   0.302
68420W        W36750  19.597   9.654   4.771
68421W        W36751  32.599  28.150  11.470
68422W        W36752  12.648  44.844   2.819
68423W        W36753   6.396  18.254   3.801
68424W        W36754  14.824  11.178  14.806
68425W        W36755  42.867  26.673  13.003
68426W        W36756  36.887   3.891   3.178
68427W        W36757  11.734   2.953  10.128
68428W        W36758  18.786  26.620   1.262
68429W        W36759   4.803   3.413   3.166
68430W        W36760  26.468   0.804   1.921
68431W        W36761   0.484   7.687  10.985
68432W        W36762  15.133  40.951  12.387
68433W        W36763  17.745  28.017   1.820
68434W        W36764  27.587   8.888   0.381
68435W        W36765  31.128  37.556  13.927
68436W        W36766  16.713   7.228   1.432
68437W        W36767   3.745  23.566   1.835
68438W        W36768   4.363  33.479   0.374
68439W        W36769   4.753  43.402  13.924
68440W        W36770   6.824  14.107   0.930
68441W        W36771  16.105  42.353  13.409
68442W        W36772  28.486  44.914  14.365
68443W        W36773   6.755  23.658  11.947
68444W        W36774  32.960  10.185   0.351
68445W        W36775   8.876   7.855   4.304
68446W        W36776   4.791  35.890  14.762
68447W        W36777  17.701  15.819   2.304
68448W        W36778  34.603  32.597   3.690
68449W        W36779  28.517  20.674  13.539
68450W        W36780  16.619  18.080   1.440
68451W        W36781  32.890  15.288   2.662
68452W        W36782   4.874  10.736   2.295
68453W        W36783  17.600  38.881  13.868
68454W        W36784  24.590  42.445  13.899
68455W        W36785  12.256  24.521   4.786
68456W        W36786  22.109  33.012   3.844
68457W        W36787   2.317  32.030   4.350
68458W        W36788  42.815  28.622   0.921
68459W        W36789  29.008  12.198  10.438
68460W        W36790  32.550  27.165   3.684
68461W        W36791   5.748  20.244   4.787
68462W        W36792  41.834   6.862   3.818
68463W        W36793   4.350  43.316  13.329
68464W        W36794  38.853  11.677  10.959
68465W        W36795   4.366  12.735  12.365
68466W        W36796  41.842  36.361   1.346
68467W        W36797  42.516  33.936   2.220
68468W        W36798  30.132   6.416  12.386
68469W        W36799  23.141  16.307  14.011
68470W        W36800  36.407   8.710   1.423
68471W        W36801  20.523  35.069   0.410
68472W        W36802  37.561  30.084   1.218
68473W        W36803  17.113   3.311  10.577
68474W        W36804   9.890  17.176   2.195
68475W        W36805  42.952  38.985  10.134
68476W        W36806  17.704  19.115  11.468
68477W        W36807  28.551  17.756  13.486
68478W        W36808  16.711  10.856  11.057
68479W        W36809  12.287   6.339  12.429
68480W        W36810  38.996  14.277   1.337
68481W        W36811  10.660  18.155  11.576
68482W        W36812  36.517   1.285   3.692
68483W        W36813   6.718  14.297  12.890
68484W        W36814  23.671  40.479   4.311
68485W        W36815   3.948  29.015   5.127
68486W        W36816   6.214  29.621  12.953
68487W        W36817  35.361  11.856  12.055
68488W        W36818  23.217  21.672  14.773
68489W        W36819  43.287  18.729   0.966
68490W        W36820  34.912  15.220  11.856
68491W        W36821   2.937  29.651  10.629
68492W        W36822  14.741  17.117  11.487
68493W        W36823  20.250  23.615  10.144
68494W        W36824   8.771  20.232   4.713
68495W        W36825  42.955  23.148  10.935
68496W        W36826  25.476  39.893  11.971
68497W        W36827  32.079  23.513  12.512
68498W        W36828   0.378  24.157   2.316
68499W        W36829   6.193  32.936  13.019
68500W        W36830  15.219   9.266  12.082
68501W        W36831  28.064  10.693  14.840
68502W        W36832  36.087  42.371   3.636
68503W        W36833  19.536  21.164  13.939
68504W        W36834  32.916  40.977   2.309
68505W        W36835   7.698  17.651   3.278
68506W        W36836  31.636  41.832   1.222
68507W        W36837  25.584  24.080   4.818
68508W        W36838   6.883  39.971  13.813
68509W        W36839  31.536   2.753  14.305
68510W        W36840  32.479   7.821  12.844
68511W        W36841   5.705  21.119  14.435
68512W        W36842  23.678   8.314  11.115
68513W        W36843  33.605   3.260   1.312
68514W        W36844  27.131   7.223  13.478
68515W        W36845  15.612  39.368  11.388
68516W        W36846  37.465  38.365  10.546
68517W        W36847   0.972  40.452   5.206
68518W        W36848  23.993  38.386  12.048
68519W        W36849   9.393  41.842   3.219
68520W        W36850  16.627  18.632  11.576
68521W        W36851  34.038  22.716   1.389
68522W        W36852  39.908  13.798  13.865
68523W        W36853  29.652  26.014   1.426
68524W        W36854  35.535  22.640   1.813
68525W        W36855  41.013  29.476  11.513
68526W        W36856  15.800   8.767   3.266
68527W        W36857  31.593   0.761  13.545
68528W        W36858  18.682  10.343  12.579
68529W        W36859   0.980  41.335   4.661
68530W        W36860  35.016   0.975  13.922
68531W        W36861  18.172   5.220   1.450
68532W        W36862  37.409   4.357   0.929
68533W        W36863  29.931  37.916  10.500
68534W        W36864  39.942  35.584  12.450
68535W        W36865  39.430  17.618  11.886
68536W        W36866  28.177  40.358  12.080
68537W        W36867   5.339  17.784   3.717
68538W        W36868  38.445  36.441  13.474
68539W        W36869  29.631  26.170   2.891
68540W        W36870  16.164  11.659   4.797
68541W        W36871  39.046  24.590   3.750
68542W        W36872   6.684  25.632   0.283
68543W        W36873  19.142  33.874   4.628
68544W        W36874   1.849  33.475   2.354
68545W        W36875   5.363  17.296   2.268
68546W        W36876  12.813  44.828  10.902
68547W        W36877  26.053  19.188  14.351
68548W        W36878  35.004   6.282  13.934
68549W        W36879  36.570  42.799  13.467
68550W        W36880  21.085   7.838  13.376
68551W        W36881  22.150  26.566  12.514
68552W        W36882   4.835  24.516   2.675
68553W        W36883  12.638  18.689  13.814
68554W        W36884  30.966  36.505  10.996
68555W        W36885  28.460   4.915   0.258
68556W        W36886  43.806  43.922  12.062
68557W        W36887  37.974  36.437   1.398
68558W        W36888   8.256  24.196   2.863
68559W        W36889   7.196  12.825   1.722
68560W        W36890  10.356   0.784   3.637
68561W        W36891  19.678  29.042  10.447
68562W        W36892   3.233   4.713  11.017
68563W        W36893  31.436  34.550  12.389
68564W        W36894  29.011  32.402  10.918
68565W        W36895   2.816  20.182  10.561
68566W        W36896  12.207  24.724  14.411
68567W        W36897   6.268  24.681   0.785
68568W        W36898  13.153  39.331  14.318
68569W        W36899  38.845  29.473   3.204
68570W        W36900  36.030  21.158  11.553
68571W        W36901  28.635  33.502  12.868
68572W        W36902  34.975  28.483   0.902
68573W        W36903  38.858   2.759  10.929
68574W        W36904  31.947   8.849   4.750
68575W        W36905  19.271  29.042   3.350
68576W        W36906  25.526  10.215  10.585
68577W        W36907  35.484   7.896   4.305
68578W        W36908   1.286  41.309  12.891
68579W        W36909  33.556   8.659  13.388
68580W        W36910   1.891  13.711  13.978
68581W        W36911  33.581  17.735  10.940
68582W        W36912  44.453  42.314   2.354
68583W        W36913  29.584  32.932  12.938
68584W        W36914  35.001  17.727  14.931
68585W        W36915  25.642   3.833   3.381
68586W        W36916  35.492  44.873   3.166
68587W        W36917  24.638  23.199  11.065
68588W        W36918   1.927  15.621  13.439
68589W        W36919  23.642  31.544  14.376
68590W        W36920  40.487  42.498  11.378
68591W        W36921  34.575   6.909  14.393
68592W        W36922  44.382   6.903   1.914
68593W        W36923  24.514   9.806  12.363
68594W        W36924  17.653  16.197   1.418
68595W        W36925  31.614  43.366  11.014
68596W        W36926   0.897  35.857  13.381
68597W        W36927  21.751  44.791  10.576
68598W        W36928  34.577   2.782  13.945
68599W        W36929  28.026  43.840  11.003
68600W        W36930   2.369  13.619   1.333
68601W        W36931  37.924  35.396  14.350
68602W        W36932   6.371  20.154  10.530
68603W        W36933   6.383  38.842   2.226
68604W        W36934  25.008  30.657   1.255
68605W        W36935  40.516  16.687  12.964
68606W        W36936  42.889  24.711  11.591
68607W        W36937  24.127  40.959   2.719
68608W        W36938   3.834  39.524   2.896
68609W        W36939   8.750   8.788   1.302
68610W        W36940  26.533  42.867  12.443
68611W        W36941  30.954   1.732  13.416
68612W        W36942  33.974   8.769  10.556
68613W        W36943  38.562  22.525   1.821
68614W        W36944  26.060  26.083   2.352
68615W        W36945   6.199   3.300   2.728
68616W        W36946   0.890   1.245   0.414
68617W        W36947  40.810  43.432   0.890
68618W        W36948  21.756  32.117   4.277
68619W        W36949   0.929  32.422  11.384
68620W        W36950  39.910   2.297   4.150
68621W        W36951  20.062  27.520  11.083
68622W        W36952  24.625  24.976  13.886
68623W        W36953   8.226  30.924  12.504
68624W        W36954  42.365  35.052  11.376
68625W        W36955  34.891  20.095  11.604
68626W        W36956   7.835  14.280  12.055
68627W        W36957   9.393  15.252  14.415
68628W        W36958  23.671  44.365   0.388
68629W        W36959   9.772  42.985  12.061
68630W        W36960  34.546  33.012   3.853
68631W        W36961   3.377  20.050   4.353
68632W        W36962   3.290  22.540   4.659
68633W        W36963  10.347  19.671  10.481
68634W        W36964  44.339  27.461   3.235
68635W        W36965  33.115  36.494  10.578
68636W        W36966  21.645  28.029  10.921
68637W        W36967  33.994  19.597   0.315
68638W        W36968  18.122   3.244   2.674
68639W        W36969  31.068  26.072   1.416
68640W        W36970  27.084  15.783   1.789
68641W        W36971  23.114  28.959   5.705
68642W        W36972  33.464  28.545  11.073
68643W        W36973  22.722  22.626   3.711
68644W        W36974  25.010   1.358   0.435
68645W        W36975  18.296   1.846  14.884
68646W        W36976  17.657  41.806   4.338
68647W        W36977  12.828  44.947  11.930
68648W        W36978  27.971  12.796  13.371
68649W        W36979  21.205   6.831  13.451
68650W        W36980  22.212  42.333  13.363
68651W        W36981   4.719  40.003   4.761
68652W        W36982  21.173  35.485   1.829
68653W        W36983   2.869   2.728   2.258
68654W        W36984  38.995   1.438   4.351
68655W        W36985  42.914  15.688  10.411
68656W        W36986  24.626  10.296  14.315
68657W        W36987   4.885  43.472   1.724
68658W        W36988   1.274   4.747   1.281
68659W        W36989  35.556  44.294  10.977
68660W        W36990  37.401   1.883  14.788
68661W        W36991  24.616  41.314  10.557
68662W        W36992  29.640  35.053   1.783
68663W        W36993   0.953  21.042  14.327
68664W        W36994  11.700  22.216  12.053
68665W        W36995  26.176  27.575  14.387
68666W        W36996  17.789   9.207  14.302
68667W        W36997  21.217  23.016  13.539
68668W        W36998  38.555   7.705  12.068
68669W        W36999  18.610  16.258   4.262
68670W        W37000  41.940  29.458   2.733
68671W        W37001  39.478  13.197  11.480
68672W        W37002  35.471  37.370   3.228
68673W        W37003  30.928  35.080  11.546
68674W        W37004  16.202   8.830   2.352
68675W        W37005  30.150  40.527   3.744
68676W        W37006  34.531   7.278   3.315
68677W        W37007   8.299  35.037   3.340
68678W        W37008  17.732  35.056  10.432
68679W        W37009  14.111  14.609   0.289
68680W        W37010  20.197  41.338  10.022
68681W        W37011  39.906  39.345   2.677
68682W        W37012  25.579  12.848  14.826
68683W        W37013  38.026  24.098  12.949
68684W        W37014  14.334  15.749   0.772
68685W        W37015  36.062  24.715  12.934
68686W        W37016  40.497  12.199   2.266
68687W        W37017   4.832  17.774   4.131
68688W        W37018  13.670  10.784  14.928
68689W        W37019  18.671  17.164  11.064
68690W        W37020  26.171  17.760   2.897
68691W        W37021  10.643  41.301   2.237
68692W        W37022   1.957  27.483  14.941
68693W        W37023  12.826   1.367  11.438
68694W        W37024  13.227  43.283   0.761
68695W        W37025  43.017  10.768   1.923
68696W        W37026  29.959   1.369   2.344
68697W        W37027   7.862  27.043   4.703
68698W        W37028  31.932  16.278  11.981
68699W        W37029  44.876  17.672  13.366
68700W        W37030  33.896   3.320   1.253
68701W        W37031  38.421  43.923  11.597
68702W        W37032   5.238  44.964  10.519
68703W        W37033  32.060  31.541   1.866
68704W        W37034  23.613  10.323  10.614
68705W        W37035  39.436  32.066  12.382
68706W        W37036  44.258  15.700  14.510
68707W        W37037  14.732  27.026  14.909
68708W        W37038  41.450  27.963  14.784
68709W        W37039  35.081  15.268   2.702
68710W        W37040  39.059  31.958   4.612
68711W        W37041  31.000  43.816  11.004
68712W        W37042  25.194  12.645  13.347
68713W        W37043  36.895  20.565  13.433
68714W        W37044  28.102  10.824  10.091
68715W        W37045   3.794   1.412   3.742
68716W        W37046  34.898  17.580   0.386
68717W        W37047  23.704  35.979  12.871
68718W        W37048  23.648  23.694   4.138
68719W        W37049  14.294  41.013   2.709
68720W        W37050  11.262   2.240  10.414
68721W        W37051  26.158   0.829   0.757
68722W        W37052   6.392   1.965  12.463
68723W        W37053  31.003   2.279  13.402
68724W        W37054  28.122   8.869  11.911
68725W        W37055  17.676  24.090  10.530
68726W        W37056   8.376  28.972   2.309
68727W        W37057  17.137  16.306   0.403
68728W        W37058  16.655  12.119   3.343
68729W        W37059  42.365   6.415   1.368
68730W        W37060  36.485  39.494   1.840
68731W        W37061  28.559   9.261   0.895
68732W        W37062  41.817   7.715   0.292
68733W        W37063  16.680  33.959  11.033
68734W        W37064  43.273   1.823  14.481
68735W        W37065  29.978  18.561  13.321
68736W        W37066  35.392  34.435  14.878
68737W        W37067   6.308  29.604   0.754
68738W        W37068  14.326  36.516  10.451
68739W        W37069  38.546  23.210  13.048
68740W        W37070   4.927  28.462  12.036
68741W        W37071  40.806  11.860   1.801
68742W        W37072  29.524  44.397   0.834
68743W        W37073  34.480  24.229   2.769
68744W        W37074  11.219  40.390   3.784
68745W        W37075  28.085  24.707  12.359
68746W        W37076  14.160  25.094   1.815
68747W        W37077  40.900   7.205  11.004
68748W        W37078  19.258  35.538  13.876
68749W        W37079  42.521  11.828   2.714
68750W        W37080  18.208  39.343   0.764
68751W        W37081  27.519  43.020  10.488
68752W        W37082  30.464  34.597  10.996
68753W        W37083  32.408  21.210   3.707
68754W        W37084  31.984  16.243   2.688
68755W        W37085   1.818  10.347  10.498
68756W        W37086  41.458  23.179   2.201
68757W        W37087  24.118  29.482   0.407
68758W        W37088   8.281   0.403  11.956
68759W        W37089  34.432  33.571  12.372
68760W        W37090  42.427   7.851   0.765
68761W        W37091   1.813  19.668  13.544
68762W        W37092   8.241  17.120   3.257
68763W        W37093  14.656  35.540  14.413
68764W        W37094  27.582  15.267   0.771
68765W        W37095  22.664  37.965   0.405
68766W        W37096  20.155  23.543  12.038
68767W        W37097  18.633  23.040   0.787
68768W        W37098  30.556  18.126   2.661
68769W        W37099  41.497  42.938  12.511
68770W        W37100  20.648  35.987  12.859
68771W        W37101  41.990  20.735   4.621
68772W        W37102   2.756  33.930  14.472
68773W        W37103  10.225  28.146   0.943
68774W        W37104  22.665  42.380   2.836
68775W        W37105  38.821  16.611   3.726
68776W        W37106  37.427  44.972  10.900
68777W        W37107  22.211   3.218   0.848
68778W        W37108  12.643  20.563   0.456
68779W        W37109  19.621  16.704  13.837
68780W        W37110   7.264   6.801  11.607
68781W        W37111  27.527  43.491   0.279
68782W        W37112  44.366  29.083   4.736
68783W        W37113  33.890  11.161   1.315
68784W        W37114  35.459  11.785   4.810
68785W        W37115   3.851  22.614  12.947
68786W        W37116  29.564  43.436   2.857
68787W        W37117  23.103  36.592   2.713
68788W        W37118   8.217  32.914   2.695
68789W        W37119  42.467  43.288   2.889
68790W        W37120  27.050  43.512  12.017
68791W        W37121  30.089  24.629  14.863
68792W        W37122   6.779  20.543   1.718
68793W        W37123  39.019  31.128  10.551
68794W        W37124   5.310  29.983  12.884
68795W        W37125   9.769  18.149   0.872
68796W        W37126   7.842  15.648  14.413
68797W        W37127  25.683  38.012   2.838
68798W        W37128   0.959   1.939  13.841
68799W        W37129  32.487  42.332  12.000
68800W        W37130  39.400   9.252   0.399
68801W        W37131  33.399  37.953   3.301
68802W        W37132  26.631  11.163  13.964
68803W        W37133  15.733  31.003  11.553
68804W        W37134  42.462   4.342  13.998
68805W        W37135   3.810  37.015  12.414
68806W        W37136  33.410   3.801  12.042
68807W        W37137  38.388  15.188   1.696
68808W        W37138  17.077  30.438  14.996
68809W        W37139  12.639   7.900  10.408
68810W        W37140   1.816  34.369  13.532
68811W        W37141   4.423  31.910  12.824
68812W        W37142   0.389  15.224   3.159
68813W        W37143  27.665  38.332   3.634
68814W        W37144  37.841  31.460  13.384
68815W        W37145  14.138  39.009  13.910
68816W        W37146  21.173   2.955   4.798
68817W        W37147  35.566   2.812  11.120
68818W        W37148  19.686  40.439  13.363
68819W        W37149   2.247   3.441  13.476
68820W        W37150  37.413  25.038  10.627
68821W        W37151   2.721   2.466   0.929
68822W        W37152  39.403  34.613  13.476
68823W        W37153  41.351  12.803   0.868
68824W        W37154   6.198   5.848   3.334
68825W        W37155  39.938  39.372  12.901
68826W        W37156  37.990  40.813  13.419
68827W        W37157  26.587  41.021  10.493
68828W        W37158   4.238   6.894   3.362
68829W        W37159  10.301  35.007   1.391
68830W        W37160  41.926  43.863   4.693
68831W        W37161  11.849   0.474   2.245
68832W        W37162  36.459  18.234  13.455
68833W        W37163  29.172  13.803  11.511
68834W        W37164  37.446   9.174   5.262
68835W        W37165   7.393  14.239   0.793
68836W        W37166  32.618  21.745  10.645
68837W        W37167  20.222  17.593   1.914
68838W        W37168   5.407  38.973   3.253
68839W        W37169  21.089  23.605   2.200
68840W        W37170  28.952  15.630  14.445
68841W        W37171   0.310   2.442  14.893
68842W        W37172  38.960  18.717  14.429
68843W        W37173  17.106   3.216  14.886
68844W        W37174  37.860  34.559   0.468
68845W        W37175   8.795  41.835   1.923
68846W        W37176  16.652   9.821  14.387
68847W        W37177  41.296  10.200  12.461
68848W        W37178  22.649  28.180   4.698
68849W        W37179  35.106  43.340  10.425
68850W        W37180   1.396  32.142  11.880
68851W        W37181  22.191  42.026   4.227
68852W        W37182   0.753  37.497   3.227
68853W        W37183   1.871  31.981   1.230
68854W        W37184   9.198  25.217   3.374
68855W        W37185   0.844  16.639   0.797
68856W        W37186  41.987  15.307  10.626
68857W        W37187   5.708  21.149   1.882
68858W        W37188  35.364   1.843  14.514
68859W        W37189  39.013   6.355   2.886
68860W        W37190  11.693  27.166   3.649
68861W        W37191  31.635  29.599  10.417
68862W        W37192  11.785  28.642  14.335
68863W        W37193   4.303  41.929  11.005
68864W        W37194  29.543  10.819   2.273
68865W        W37195  32.583  36.415  13.464
68866W        W37196  40.319  32.400   4.350
68867W        W37197  44.439  30.499  10.925
68868W        W37198  26.671   2.422  14.892
68869W        W37199  13.787  41.819   2.713
68870W        W37200  39.048  10.877   4.142
68871W        W37201  17.625  21.718  10.563
68872W        W37202  11.181   1.899  14.889
68873W        W37203  37.950  31.487   2.233
68874W        W37204  17.202   4.411  13.000
68875W        W37205  38.841  35.448  10.526
68876W        W37206   9.779  29.162  14.336
68877W        W37207  35.961  28.954   4.641
68878W        W37208  33.395  13.290   2.401
68879W        W37209  34.106  39.459   3.306
68880W        W37210  38.330  29.159  13.991
68881W        W37211  12.751  26.149  13.863
68882W        W37212  10.346  43.944   0.348
68883W        W37213   7.845  24.616  12.355
68884W        W37214  12.243  35.019  13.505
68885W        W37215  24.684  41.919   0.407
68886W        W37216  35.947   3.328  13.792
68887W        W37217  19.549  33.528  14.446
68888W        W37218   8.299  39.375  14.811
68889W        W37219  43.935  42.326   4.145
68890W        W37220  22.711   6.314  11.908
68891W        W37221  31.929  27.185  14.920
68892W        W37222  42.381  16.673  11.428
68893W        W37223  19.222  36.568  11.878
68894W        W37224  41.936   7.252   0.437
68895W        W37225  33.096  32.888  11.104
68896W        W37226  38.455  42.389  13.973
68897W        W37227  17.651  26.135   4.341
68898W        W37228  19.689  23.693   1.769
68899W        W37229  14.616   0.965  11.890
68900W        W37230   5.405  26.196  10.602
68901W        W37231  10.224  44.888   2.355
68902W        W37232  42.937  16.807  11.537
68903W        W37233  10.724   0.445  10.594
68904W        W37234   0.344  26.987  11.419
68905W        W37235  26.702  43.996  11.373
68906W        W37236   4.769  21.139   0.882
68907W        W37237   6.876   9.333  11.925
68908W        W37238  38.929  43.963   4.744
68909W        W37239  14.685   6.235   2.325
68910W        W37240  15.598  22.651  11.575
68911W        W37241  30.550  19.677  14.505
68912W        W37242  31.644  34.582  12.992
68913W        W37243  26.602  15.279   0.852
68914W        W37244  26.035  17.281   1.872
68915W        W37245  13.601   8.340  10.634
68916W        W37246  17.206   2.437   1.254
68917W        W37247  18.126   7.206  14.335
68918W        W37248  30.998  33.929   3.160
68919W        W37249  23.033  30.608  11.525
68920W        W37250  19.046  35.920  14.500
68921W        W37251  32.555  26.182   1.373
68922W        W37252  11.623  38.892   4.764
68923W        W37253  19.705  43.309   4.779
68924W        W37254   9.882  37.060   0.945
68925W        W37255  41.444   3.913  14.948
68926W        W37256   3.887  37.872   0.441
68927W        W37257  21.568  13.688  10.909
68928W        W37258  35.930  29.122   1.794
68929W        W37259  15.600  40.503  14.380
68930W        W37260   3.827  17.697  11.392
68931W        W37261  23.999  39.956   2.206
68932W        W37262  34.046   1.966   4.221
68933W        W37263   1.879  13.177   3.656
68934W        W37264  21.120  36.003  11.890
68935W        W37265  20.565  10.827  11.016
68936W        W37266  14.198  40.901   0.354
68937W        W37267  31.032  30.907   1.337
68938W        W37268  13.817  29.000  12.881
68939W        W37269   3.853  17.104  12.510
68940W        W37270  27.130  18.196  13.419
68941W        W37271  13.111  44.967  10.458
68942W        W37272  25.547  41.420   1.334
68943W        W37273  28.952  30.584  12.531
68944W        W37274  26.174  30.542   4.246
68945W        W37275  25.602  37.872  10.462
68946W        W37276  15.101  23.095  12.555
68947W        W37277  27.083  10.325   4.141
68948W        W37278   6.313  29.602  10.575
68949W        W37279  33.939   2.399  13.455
68950W        W37280  23.685  24.567   0.315
68951W        W37281  10.310  39.536   4.824
68952W        W37282   1.865   3.850  14.010
68953W        W37283  43.889  22.031   1.235
68954W        W37284   7.304  40.371   1.414
68955W        W37285   0.463  44.365  12.039
68956W        W37286  43.918  21.018   1.268
68957W        W37287   8.700  16.197  13.416
68958W        W37288  37.497  33.608   2.325
68959W        W37289  11.687   0.271   0.311
68960W        W37290   9.644  26.084   0.406
68961W        W37291  38.436  38.068   2.828
68962W        W37292  29.025  43.281   4.265
68963W        W37293  14.603   9.172  11.879
68964W        W37294  38.862  29.487   0.933
68965W        W37295  44.863  38.329   4.737
68966W        W37296  30.164  36.450  11.092
68967W        W37297  15.709   8.371   1.306
68968W        W37298  25.066  28.603   2.694
68969W        W37299  33.460  20.624   0.745
68970W        W37300   1.889  43.356  12.416
68971W        W37301  24.720   0.892   2.706
68972W        W37302  25.534  21.112   2.192
68973W        W37303  27.968  39.879  12.580
68974W        W37304  17.077  19.648   1.835
68975W        W37305   7.668  28.158   3.313
68976W        W37306   4.755  16.285  13.051
68977W        W37307   9.815   3.943   1.809
68978W        W37308  42.511  42.489  11.024
68979W        W37309  40.004  27.970  14.945
68980W        W37310  43.495  13.709  12.005
68981W        W37311  34.504  16.645  13.893
68982W        W37312  39.839  33.596  11.050
68983W        W37313  32.996  40.494   1.705
68984W        W37314  18.727  25.533   3.337
68985W        W37315  20.561   4.225  13.872
68986W        W37316  28.943  32.585  11.432
68987W        W37317  32.991  23.057  12.510
68988W        W37318   9.693   6.699  14.893
68989W        W37319  12.777  12.241   1.428
68990W        W37320  37.989  41.519   0.424
68991W        W37321  29.506  36.902   0.796
68992W        W37322  15.292  42.889   4.616
68993W        W37323  33.060   0.860   2.701
68994W        W37324  32.597  16.695   4.185
68995W        W37325  12.649  11.139  10.637
68996W        W37326  12.715  37.547  12.970
68997W        W37327  14.162  24.625  12.946
68998W        W37328   3.414  42.900  13.430
68999W        W37329   4.719  42.851   4.686
69000W        W37330  41.512  29.155   2.794
69001W        W37331   4.328  18.632  14.864
69002W        W37332  34.515  13.194  14.842
69003W        W37333  36.880   1.322  10.439
69004W        W37334  31.986  12.228  12.004
69005W        W37335  43.839  26.161  13.818
69006W        W37336  10.295  26.028   3.853
69007W        W37337   2.414  29.111  11.384
69008W        W37338  20.675  33.101   4.236
69009W        W37339   9.230  12.681   4.266
69010W        W37340  35.110  42.850   3.230
69011W        W37341  26.670   4.385   3.831
69012W        W37342  26.046  21.147   4.283
69013W        W37343  41.889  34.863  12.015
69014W        W37344  26.500  40.886  11.567
69015W        W37345  13.140  41.882  14.412
69016W        W37346  20.660  27.545  12.430
69017W        W37347  17.245   5.395   4.318
69018W        W37348  38.478  37.374   3.775
69019W        W37349  14.146  22.648  10.947
69020W        W37350  33.544  44.399   2.739
69021W        W37351  16.584  35.932  13.333
69022W        W37352  35.510  35.361   1.708
69023W        W37353   9.718  25.107  14.850
69024W        W37354  41.399  16.141   0.819
69025W        W37355   1.770  33.478   1.222
69026W        W37356  25.569  16.299   3.653
69027W        W37357  10.374  29.931   3.336
69028W        W37358  43.995  18.725  11.424
69029W        W37359  36.852  11.318   1.232
69030W        W37360  33.433  36.987  11.876
69031W        W37361  12.217   6.860   0.920
69032W        W37362  23.212  21.536  13.849
69033W        W37363  21.519  16.091   2.859
69034W        W37364  23.636   5.814   2.380
69035W        W37365  19.196  28.060   1.370
69036W        W37366  23.185  40.508  14.924
69037W        W37367   3.416  23.657  14.904
69038W        W37368  20.564  22.151  12.931
69039W        W37369  11.711  10.673   0.858
69040W        W37370  24.522  34.393   1.787
69041W        W37371  38.883  36.523   3.752
69042W        W37372  26.062  25.571  12.012
69043W        W37373  34.446  29.077  12.053
69044W        W37374  14.718   1.318  12.076
69045W        W37375   1.972  11.206  13.389
69046W        W37376  37.076  17.565  13.799
69047W        W37377  39.323  16.266   1.892
69048W        W37378  18.091  16.112   4.755
69049W        W37379   0.375  23.158  10.561
69050W        W37380  14.207  33.103  12.435
69051W        W37381  28.076  21.085  14.960
69052W        W37382   7.785   4.747   2.316
69053W        W37383  20.555   0.956   3.870
69054W        W37384  32.473  19.179  11.502
69055W        W37385  36.550  39.031   4.162
69056W        W37386  15.256  42.469   2.283
69057W        W37387  28.629  11.283  12.450
69058W        W37388  11.180  28.652   2.850
69059W        W37389   1.404  14.834   2.333
69060W        W37390   1.244  38.854   3.693
69061W        W37391  15.177  11.640  10.604
69062W        W37392  38.054   5.848   3.736
69063W        W37393  39.424  19.206   2.341
69064W        W37394  18.722  39.900  13.875
69065W        W37395   9.765   6.183  14.789
69066W        W37396  36.538  10.231  10.039
69067W        W37397  10.754   7.390  13.794
69068W        W37398  44.005  29.035   1.802
69069W        W37399   6.789  37.895  14.931
69070W        W37400  36.523   1.285   3.209
69071W        W37401  23.212  22.232  11.862
69072W        W37402  41.522   2.777   4.328
69073W        W37403  44.393  36.379   0.338
69074W        W37404  28.573  26.147   1.835
69075W        W37405   2.798  34.426  12.475
69076W        W37406   7.757  14.238  10.066
69077W        W37407  38.869  24.547  14.784
69078W        W37408  27.599  21.204   1.728
69079W        W37409   6.749  33.939   1.708
69080W        W37410  17.307  43.306  12.074
69081W        W37411  10.702  15.314  14.379
69082W        W37412   9.277  16.609   2.310
69083W        W37413  35.022   5.785  11.928
69084W        W37414  26.507   8.214   3.281
69085W        W37415   3.457  35.383   9.557
69086W        W37416  22.182  42.952  11.902
69087W        W37417  10.684  17.717  14.867
69088W        W37418  10.328  16.199   0.439
69089W        W37419  14.147  21.671  13.997
69090W        W37420  13.340  22.184  12.557
69091W        W37421  23.118  39.508   3.858
69092W        W37422  27.192  19.684   4.143
69093W        W37423   3.360  16.672  10.969
69094W        W37424  12.150  16.806  13.381
69095W        W37425  40.011  30.130   3.754
69096W        W37426  43.312  36.991   3.841
69097W        W37427  37.938  14.815  14.914
69098W        W37428  39.965  12.175  10.474
69099W        W37429  15.217   8.871   2.768
69100W        W37430  40.399   6.777   3.831
69101W        W37431  32.017   3.758  12.381
69102W        W37432  10.166  44.480   2.277
69103W        W37433  35.434   3.367  10.455
69104W        W37434  24.076  30.558   9.997
69105W        W37435   9.782   1.403   3.843
69106W        W37436  32.042  44.494  10.541
69107W        W37437  29.000  28.112  11.991
69108W        W37438   8.167   0.893   0.450
69109W        W37439   3.944  34.572  12.912
69110W        W37440  10.771  37.480  11.591
69111W        W37441  21.515  22.087  12.503
69112W        W37442   0.428  38.904  12.088
69113W        W37443  38.464  20.039  11.867
69114W        W37444   6.700  19.602  14.787
69115W        W37445   3.355  24.100   1.320
69116W        W37446  32.403  27.601   2.753
69117W        W37447  17.074  28.467   2.250
69118W        W37448   9.298  36.954   3.864
69119W        W37449  23.065  11.706   4.706
69120W        W37450  34.927   9.717  14.435
69121W        W37451  11.816  23.683   2.827
69122W        W37452   1.276  27.070  14.769
69123W        W37453  32.054  44.963   0.950
69124W        W37454  41.473  36.006  11.984
69125W        W37455  44.294  29.626   2.339
69126W        W37456  10.363   9.673  13.030
69127W        W37457  22.159  32.557   2.261
69128W        W37458  16.778  16.301  12.475
69129W        W37459  25.498   5.292  12.431
69130W        W37460  40.807  28.594   1.221
69131W        W37461  17.572  13.205   3.726
69132W        W37462   8.714   2.854   0.405
69133W        W37463  25.967  23.665   2.723
69134W        W37464  33.387   7.875   3.270
69135W        W37465   7.254  19.681  11.453
69136W        W37466  41.462  21.744   0.781
69137W        W37467  22.996  42.778  14.378
69138W        W37468   4.812  29.668   2.316
69139W        W37469  34.500   5.216   3.326
69140W        W37470  41.317  12.230   2.266
69141W        W37471   1.792   2.270  11.046
69142W        W37472  30.573  12.661  11.606
69143W        W37473   1.394  23.144   0.962
69144W        W37474  38.826  38.465   0.946
69145W        W37475  33.921  11.333  13.900
69146W        W37476  28.493  33.563  14.947
69147W        W37477   7.330   1.847   3.702
69148W        W37478   9.857   5.695  13.983
69149W        W37479  27.647  21.607   2.865
69150W        W37480  39.546  15.683  13.378
69151W        W37481   9.293   4.370  10.987
69152W        W37482  27.076  31.897   5.640
69153W        W37483   5.841   5.222  11.872
69154W        W37484  43.411  21.152   2.718
69155W        W37485   6.705  24.666  12.992
69156W        W37486  24.711  20.031   3.751
69157W        W37487   3.308   4.310  13.319
69158W        W37488  31.599  13.143   2.739
69159W        W37489  23.648  36.433  10.977
69160W        W37490  33.914  29.540   3.814
69161W        W37491  23.115   6.326   0.244
69162W        W37492   2.453  24.578  14.394
69163W        W37493   0.299  13.752  13.499
69164W        W37494  24.122  41.458   4.770
69165W        W37495   7.702  38.871   0.475
69166W        W37496   2.792  19.096  13.348
69167W        W37497   1.894  42.941  14.849
69168W        W37498  32.905  18.189  12.489
69169W        W37499   0.749  32.479  14.976
69170W        W37500  40.946  23.722   2.342
69171W        W37501  28.670  11.185  13.452
69172W        W37502   4.904  27.544  14.859
69173W        W37503   2.393  16.098  12.918
69174W        W37504   6.705  17.609   1.859
69175W        W37505   0.464  33.520   3.787
69176W        W37506  42.858   2.865   0.416
69177W        W37507  22.593  25.021   4.813
69178W        W37508  43.826  40.391  14.299
69179W        W37509   1.351  25.105  12.874
69180W        W37510  28.570  17.212   3.648
69181W        W37511  34.455   0.376   4.306
69182W        W37512  20.611   0.751   0.730
69183W        W37513  29.034   7.898  13.937
69184W        W37514   8.348  20.098   3.853
69185W        W37515  25.011  25.983  11.876
69186W        W37516   5.282  32.980   2.404
69187W        W37517  25.091  40.049  12.911
69188W        W37518   4.216  11.857   2.892
69189W        W37519   5.743  11.236   2.300
69190W        W37520   1.896  29.978   4.222
69191W        W37521  33.554  26.505   0.773
69192W        W37522  44.871  38.910   2.663
69193W        W37523  34.051  23.570  11.037
69194W        W37524  24.561  35.883  12.414
69195W        W37525  26.524  26.109   4.702
69196W        W37526  39.363  37.052   4.285
69197W        W37527   8.287  13.671  12.575
69198W        W37528   9.372  29.119  13.816
69199W        W37529  25.184   2.309  13.459
69200W        W37530  16.708   8.741  13.420
69201W        W37531   0.953   7.329  13.351
69202W        W37532   7.391  31.945  13.958
69203W        W37533  35.502   7.187  14.903
69204W        W37534  28.957  13.831  12.050
69205W        W37535  23.532  21.057   2.309
69206W        W37536  29.041  19.687   5.311
69207W        W37537  22.519   7.832  14.502
69208W        W37538  44.373  44.956   0.881
69209W        W37539  33.460   2.752  13.544
69210W        W37540   0.745  27.578  12.839
69211W        W37541  22.105  30.460   2.221
69212W        W37542  36.963  16.144  14.342
69213W        W37543  25.554   1.243  13.917
69214W        W37544  30.463  26.194  13.048
69215W        W37545  19.596  40.473  12.547
69216W        W37546  18.645  39.531   1.742
69217W        W37547  22.026  18.254  11.008
69218W        W37548  24.611  23.649   2.394
69219W        W37549  39.934  34.500  12.915
69220W        W37550   1.839  16.286  12.470
69221W        W37551  30.033   1.268  10.447
69222W        W37552  19.195  33.914   1.324
69223W        W37553   5.693  25.179  12.920
69224W        W37554  36.504   9.169  10.565
69225W        W37555  27.626  25.701   3.259
69226W        W37556  36.078  11.306   1.267
69227W        W37557  28.622  24.093  10.139
69228W        W37558  26.182   1.297  11.501
69229W        W37559  10.652  31.989  10.465
69230W        W37560  27.131  39.992  13.821
69231W        W37561   7.810  36.989   4.142
69232W        W37562  22.014  24.211   2.826
69233W        W37563   1.427   7.342   2.686
69234W        W37564   3.333  21.143  14.302
69235W        W37565   6.808  21.677   4.132
69236W        W37566   8.368   1.381   0.314
69237W        W37567  12.192  13.332  12.368
69238W        W37568  25.689  35.935  14.294
69239W        W37569  29.153   4.767   3.709
69240W        W37570  26.081  38.424  11.057
69241W        W37571  32.048  16.629   9.955
69242W        W37572  30.912   8.312  12.972
69243W        W37573  27.180  16.194  11.044
69244W        W37574  29.668   7.830   3.263
69245W        W37575  12.282  41.324   0.735
69246W        W37576  16.620   1.376   0.274
69247W        W37577  13.158  41.477   3.756
69248W        W37578  14.817   3.805  12.489
69249W        W37579  17.096  36.034   0.410
69250W        W37580   6.208  17.086  13.514
69251W        W37581  42.948  41.498   0.790
69252W        W37582  32.013  35.532  14.454
69253W        W37583   3.939  10.769  12.912
69254W        W37584  30.981  38.360  10.904
69255W        W37585  20.655  37.858  12.495
69256W        W37586   6.198  15.696  11.092
69257W        W37587  40.833   2.835   1.705
69258W        W37588  29.159   2.784  10.453
69259W        W37589   8.730  17.695  12.833
69260W        W37590  21.113  35.023   2.353
69261W        W37591  23.112  19.104  13.503
69262W        W37592  23.013  23.020   0.350
69263W        W37593  21.070   9.201   5.124
69264W        W37594  31.146  18.261   3.856
69265W        W37595  44.265  43.839   4.117
69266W        W37596  36.567   2.375   3.220
69267W        W37597  20.156  38.897   0.299
69268W        W37598  28.053  15.236  14.826
69269W        W37599  15.246  15.084   4.274
69270W        W37600  39.808  13.664   2.719
69271W        W37601  38.390  32.051   2.756
69272W        W37602   3.437   3.712   0.743
69273W        W37603  35.585  25.073  10.955
69274W        W37604  31.471  37.080   4.776
69275W        W37605  31.094  20.540  11.555
69276W        W37606  34.076  27.189  14.474
69277W        W37607  42.469   8.340   4.355
69278W        W37608  43.318  14.693   0.787
69279W        W37609  28.659   3.363   2.692
69280W        W37610  11.368  35.995   4.318
69281W        W37611  21.239   6.247  14.888
69282W        W37612  33.067  26.462  10.959
69283W        W37613   2.382   9.391  14.299
69284W        W37614  24.050   0.280   2.315
69285W        W37615  16.632   2.374   0.759
69286W        W37616  22.730  22.023   0.375
69287W        W37617   3.804  32.907   2.688
69288W        W37618  12.664  30.427   1.396
69289W        W37619  21.702  30.972   9.515
69290W        W37620  35.460   5.815   4.274
69291W        W37621   8.384   3.342  12.936
69292W        W37622   3.925  38.021   3.699
69293W        W37623  13.743   5.417  13.993
69294W        W37624  42.469  43.347  12.950
69295W        W37625  10.670  28.115  12.420
69296W        W37626  14.779  33.984  12.367
69297W        W37627  39.969  33.620   2.826
69298W        W37628  43.399  18.663   3.696
69299W        W37629  35.375  43.983   1.335
69300W        W37630  43.510  29.650   2.406
69301W        W37631  18.612   1.281  12.378
69302W        W37632  14.795  14.142  14.434
69303W        W37633  18.719  15.312   0.482
69304W        W37634  21.216  25.468   4.711
69305W        W37635  37.083  13.199   3.849
69306W        W37636  12.202  26.021  12.896
69307W        W37637  22.169   8.678  14.786
69308W        W37638  35.375  27.972  11.927
69309W        W37639   5.812  37.380   2.274
69310W        W37640  17.569  15.609   4.268
69311W        W37641   0.321  15.249   0.313
69312W        W37642  33.900   1.265   0.434
69313W        W37643  26.534   7.290  14.305
69314W        W37644  37.059  24.643  11.860
69315W        W37645  19.071   8.764   4.713
69316W        W37646  38.824  22.667   1.251
69317W        W37647  26.090  18.760   3.200
69318W        W37648   0.893   5.398  11.860
69319W        W37649  24.701  18.118  11.961
69320W        W37650   7.873  29.660   1.302
69321W        W37651  18.091  42.871   1.444
69322W        W37652  20.260  40.424   0.863
69323W        W37653  34.570   6.285   4.809
69324W        W37654  15.120  14.189  11.547
69325W        W37655  36.045   4.289  14.389
69326W        W37656  19.774  17.132   3.851
69327W        W37657  13.690  43.973   4.778
69328W        W37658  22.198  27.662  12.405
69329W        W37659   1.885  21.527  13.016
69330W        W37660  25.156   1.314  13.527
69331W        W37661   4.295  17.306  13.319
69332W        W37662  12.168  15.256  10.914
69333W        W37663  36.945  39.994   2.189
69334W        W37664  29.058  22.541  13.534
69335W        W37665  15.668  23.569  13.459
69336W        W37666  33.098  12.651  13.445
69337W        W37667  37.473  28.105  14.882
69338W        W37668  38.332  35.462  14.319
69339W        W37669  38.547  18.282  13.064
69340W        W37670  31.931  40.954  13.058
69341W        W37671  23.210  22.037  11.609
69342W        W37672   0.401  28.106  11.062
69343W        W37673  21.064  16.159   2.315
69344W        W37674  42.474   6.283   4.264
69345W        W37675   2.927  16.088  12.382
69346W        W37676  36.572   6.742  10.516
69347W        W37677  33.610  26.014   4.304
69348W        W37678   1.904  26.041  13.309
69349W        W37679  28.099  39.885  13.023
69350W        W37680  22.165   6.210   0.315
69351W        W37681  34.572  11.314   4.718
69352W        W37682  41.807  19.737   4.755
69353W        W37683  27.006  43.510  13.528
69354W        W37684  36.885  28.678  12.469
69355W        W37685  28.035  39.556   0.405
69356W        W37686  29.991  16.077   0.873
69357W        W37687  44.457  40.967  13.875
69358W        W37688  13.644  12.681  11.086
69359W        W37689  38.328  27.469  14.373
69360W        W37690   0.263   2.857  14.452
69361W        W37691  19.627   9.336   2.874
69362W        W37692  21.709  19.640   2.341
69363W        W37693  15.778  24.720  13.894
69364W        W37694   1.739  38.542  11.389
69365W        W37695  37.366  18.552   1.739
69366W        W37696   9.814   5.387  13.877
69367W        W37697  14.635  18.639   3.680
69368W        W37698  19.549  37.432  10.016
69369W        W37699   9.853  44.260  13.897
69370W        W37700  30.603   3.747   2.837
69371W        W37701  21.663  13.772   4.823
69372W        W37702   6.353  39.904  12.066
69373W        W37703   5.719   9.878   2.679
69374W        W37704  23.645  19.673   4.192
69375W        W37705  21.165  40.408  13.481
69376W        W37706  26.618  10.701   3.281
69377W        W37707   6.353  43.484   1.765
69378W        W37708  37.546  20.603   2.277
69379W        W37709  33.023  23.495   2.871
69380W        W37710  22.590  36.029  10.991
69381W        W37711  23.129   4.279  13.915
69382W        W37712  20.541  24.020  10.556
69383W        W37713  14.635  25.157   4.217
69384W        W37714  34.457  12.272  10.592
69385W        W37715  37.020  43.471  12.826
69386W        W37716  13.314  40.424   1.749
69387W        W37717  39.872  28.937   3.735
69388W        W37718  32.459  42.426   0.907
69389W        W37719   1.367  44.374   2.820
69390W        W37720  30.534  40.521   1.912
69391W        W37721  25.013  22.575  13.314
69392W        W37722  40.961  14.228   4.690
69393W        W37723  44.420  19.597   1.764
69394W        W37724  38.567  27.559  14.799
69395W        W37725  22.614   1.834  11.988
69396W        W37726  11.775   3.309  13.494
69397W        W37727  22.688   4.727  13.969
69398W        W37728  23.161  40.016   4.831
69399W        W37729  11.853  36.028   2.183
69400W        W37730  43.339  41.039   0.875
69401W        W37731  30.131  24.090  14.368
69402W        W37732  44.378  13.217   3.223
69403W        W37733   1.732  22.712   0.831
69404W        W37734  28.950  41.803  12.025
69405W        W37735  25.006  43.383  12.856
69406W        W37736  29.464  28.497  13.018
69407W        W37737  31.520  32.072   9.977
69408W        W37738   0.278  13.260  13.060
69409W        W37739  16.690   5.327  14.015
69410W        W37740   8.291  23.539   4.151
69411W        W37741   5.703  23.526   1.759
69412W        W37742  12.130  21.568  14.948
69413W        W37743  19.120   8.810   3.841
69414W        W37744  15.726  15.716  14.320
69415W        W37745   1.830  16.226  14.469
69416W        W37746  12.259  36.885  11.054
69417W        W37747  24.653  29.491   2.221
69418W        W37748   0.951  29.482  13.963
69419W        W37749  39.848  24.223  14.852
69420W        W37750  31.540   8.877   2.335
69421W        W37751  10.819  43.306  13.887
69422W        W37752   4.286  28.010   3.294
69423W        W37753  34.051  42.780   2.807
69424W        W37754  43.777  24.661  11.075
69425W        W37755  16.220  21.083  13.840
69426W        W37756  20.542  11.318  13.349
69427W        W37757   5.739   0.432  11.532
69428W        W37758  23.188  16.657   0.429
69429W        W37759  13.174  31.136  10.551
69430W        W37760   6.715  19.066  10.562
69431W        W37761   5.412  12.218  14.324
69432W        W37762  16.083  41.024  14.856
69433W        W37763  33.473  35.604   3.188
69434W        W37764   6.351   7.750  12.475
69435W        W37765  24.086  22.126   3.351
69436W        W37766  24.200  24.038  10.927
69437W        W37767   2.238  36.890   9.946
69438W        W37768  43.012   9.775   2.342
69439W        W37769   2.463  23.089   0.450
69440W        W37770  32.397   2.821  13.424
69441W        W37771  19.672  29.167   1.769
69442W        W37772  14.176   0.967   4.235
69443W        W37773  41.019  10.290  12.542
69444W        W37774   2.828   2.327   1.421
69445W        W37775  39.056  15.265  14.360
69446W        W37776   6.698   4.245  12.505
69447W        W37777  35.488  34.911   1.350
69448W        W37778   8.882  35.897   4.232
69449W        W37779  20.246  17.694   2.314
69450W        W37780  34.514  24.689  11.906
69451W        W37781  32.057  36.536  13.825
69452W        W37782  26.533  33.457   2.817
69453W        W37783  41.300  10.870  12.437
69454W        W37784  10.864  35.475  11.030
69455W        W37785  40.951  33.601  14.380
69456W        W37786  16.626  15.718  10.575
69457W        W37787  10.656  15.749  13.443
69458W        W37788  42.941  35.068  10.630
69459W        W37789  28.948  20.698  14.333
69460W        W37790  20.630  17.557   0.423
69461W        W37791  16.271   5.860  13.951
69462W        W37792  12.341  27.488  11.935
69463W        W37793  19.724  40.971   4.164
69464W        W37794   1.416  43.000  10.031
69465W        W37795  38.863  30.560   2.776
69466W        W37796  14.216   4.829   5.218
69467W        W37797  10.322  38.570  11.557
69468W        W37798   6.299   9.225  14.465
69469W        W37799  27.017  21.196  14.031
69470W        W37800  37.390  22.589   1.290
69471W        W37801  28.666  33.516   1.710
69472W        W37802  17.187  38.399   4.737
69473W        W37803  34.465   7.316  11.069
69474W        W37804   1.391  10.372  11.451
69475W        W37805  16.744  33.466   0.818
69476W        W37806  12.694   0.356  13.962
69477W        W37807  37.017  23.116   4.712
69478W        W37808  27.028  43.846   2.786
69479W        W37809  26.012   8.662  11.877
69480W        W37810   6.265  32.448  14.457
69481W        W37811   2.948  29.568  11.109
69482W        W37812  43.389  22.150  12.514
69483W        W37813  40.467  28.953   1.815
69484W        W37814  14.136  44.451  11.605
69485W        W37815  26.144   5.283  10.984
69486W        W37816   8.284  15.577  10.973
69487W        W37817   1.796  33.102  11.609
69488W        W37818  16.106   4.407   3.344
69489W        W37819  26.007   9.324  14.990
69490W        W37820  26.157  27.627   2.892
69491W        W37821   2.396  40.847   0.274
69492W        W37822  27.030  13.659   2.712
69493W        W37823  28.657  34.870  14.985
69494W        W37824  23.507   6.711  12.869
69495W        W37825  10.648  40.874   4.604
69496W        W37826  36.534  41.007   0.410
69497W        W37827  20.591  19.547  12.552
69498W        W37828  24.520  26.011   1.881
69499W        W37829  19.740   9.367   3.682
69500W        W37830  32.565  23.028  13.892
69501W        W37831  29.977  31.912   9.626
69502W        W37832  35.071   9.652  11.374
69503W        W37833  25.567  36.943   3.187
69504W        W37834  29.487   7.809   4.639
69505W        W37835  31.536   2.367   2.859
69506W        W37836  25.040  16.641   3.741
69507W        W37837   3.751  38.335  12.947
69508W        W37838   0.367  10.859  14.411
69509W        W37839  29.961  16.130  11.554
69510W        W37840  26.055   3.268  13.973
69511W        W37841   0.826  13.201   0.933
69512W        W37842  38.561  37.051  13.025
69513W        W37843  39.990  23.617   4.181
69514W        W37844  19.741  13.229   4.598
69515W        W37845  32.420  23.159   0.277
69516W        W37846   0.874  31.975   2.769
69517W        W37847   2.897  23.630  14.001
69518W        W37848   8.222  13.347  13.050
69519W        W37849   2.915  43.867  11.027
69520W        W37850  19.256  34.483  12.927
69521W        W37851  28.081   5.246  14.967
69522W        W37852  24.636  38.509   4.206
69523W        W37853  41.356  27.662   4.349
69524W        W37854   6.861  24.643   1.284
69525W        W37855   1.804  40.398   3.709
69526W        W37856  18.715  27.993  11.951
69527W        W37857   4.209  16.165   4.648
69528W        W37858  42.484  19.716   0.811
69529W        W37859  16.682   9.745   2.789
69530W        W37860   9.312  43.987   3.176
69531W        W37861  32.919  44.002   2.742
69532W        W37862  25.105  35.595   4.715
69533W        W37863   6.198  27.954   2.873
69534W        W37864  38.063  20.713  12.542
69535W        W37865  43.325  35.039  12.878
69536W        W37866   2.781  43.896  12.857
69537W        W37867  30.141  34.514  13.986
69538W        W37868  15.590   0.256  10.929
69539W        W37869  16.795  24.536  13.996
69540W        W37870   6.267  10.149  11.035
69541W        W37871  25.531   6.310  10.136
69542W        W37872  17.653  43.313  14.440
69543W        W37873  44.990  24.222  11.861
69544W        W37874   1.754   6.328   2.753
69545W        W37875   1.264  30.987   3.362
69546W        W37876  11.331  29.505  11.434
69547W        W37877  44.976  27.050   2.827
69548W        W37878   8.701   9.192  14.878
69549W        W37879  43.275  31.037  14.321
69550W        W37880  39.857  11.746   1.897
69551W        W37881  32.037  36.860   4.335
69552W        W37882  42.022  26.461  14.793
69553W        W37883  22.727  12.699   4.702
69554W        W37884   1.475  40.929   1.791
69555W        W37885  31.025  19.544  12.059
69556W        W37886   2.228  11.280  14.806
69557W        W37887  38.558  43.470  14.922
69558W        W37888  27.672  25.566   0.966
69559W        W37889  25.713  40.036   1.279
69560W        W37890  36.096  30.465   4.750
69561W        W37891  42.840   0.325  13.500
69562W        W37892  23.566  24.210   0.289
69563W        W37893  42.378  23.062   1.832
69564W        W37894  39.933   3.733  10.544
69565W        W37895  30.453  43.850  11.394
69566W        W37896   5.238  18.054  11.418
69567W        W37897  35.521  29.619   1.273
69568W        W37898  26.028   1.279   1.836
69569W        W37899  22.054  13.155  11.570
69570W        W37900   8.314   2.470  14.773
69571W        W37901   8.719  14.291  14.295
69572W        W37902  12.217  15.586  11.525
69573W        W37903  21.087  28.475  10.440
69574W        W37904  41.986   6.326  12.897
69575W        W37905   1.386  16.700  11.546
69576W        W37906  10.375  22.594  11.597
69577W        W37907  43.995  18.197  12.917
69578W        W37908  23.029  41.457   0.816
69579W        W37909   2.353  32.932   2.244
69580W        W37910  29.976  22.539  13.791
69581W        W37911  27.527  16.669   0.401
69582W        W37912  26.106  39.408  13.933
69583W        W37913  18.115  23.041  12.445
69584W        W37914  44.493   6.320   0.894
69585W        W37915  30.110   8.830   3.669
69586W        W37916  14.772  23.024   1.754
69587W        W37917  43.889  31.405  14.504
69588W        W37918  23.619  26.998  13.455
69589W        W37919  10.378  38.512   3.281
69590W        W37920  14.703  36.440  12.479
69591W        W37921  24.621  10.846   1.718
69592W        W37922   3.240   0.813  10.958
69593W        W37923  25.551  38.019  13.417
69594W        W37924  44.425  35.426   3.212
69595W        W37925  14.288  44.801  14.493
69596W        W37926  18.672   8.854   0.935
69597W        W37927   5.318  14.094   5.181
69598W        W37928  35.580  38.464   3.651
69599W        W37929   2.360  35.886  13.882
69600W        W37930  28.679  12.157  12.094
69601W        W37931  34.090  18.741   3.176
69602W        W37932   5.901   3.864  14.322
69603W        W37933  13.232   2.888  12.089
69604W        W37934  41.468  19.744  10.581
69605W        W37935  12.128  23.993  10.937
69606W        W37936  24.619   3.845  12.887
69607W        W37937  26.622   0.847   3.295
69608W        W37938  44.259   7.883   0.294
69609W        W37939  10.789  41.914  13.973
69610W        W37940   4.727  43.966  14.312
69611W        W37941   5.845  29.438   3.852
69612W        W37942   1.373  44.866  14.448
69613W        W37943  28.456  34.558  10.098
69614W        W37944  25.554  34.055  12.941
69615W        W37945   3.447  36.460   1.224
69616W        W37946   3.908  25.076   2.419
69617W        W37947   9.206  22.064   3.368
69618W        W37948  40.876  43.347   0.417
69619W        W37949  38.500   5.259   1.346
69620W        W37950  18.094  26.576   0.433
69621W        W37951   8.800  24.664   3.220
69622W        W37952  25.054  43.412  11.027
69623W        W37953  19.694  31.428  14.890
69624W        W37954  29.591   1.835  11.375
69625W        W37955  29.059   2.912   1.382
69626W        W37956  37.489  30.011   0.276
69627W        W37957   2.328  27.964  13.858
69628W        W37958   3.409  37.504  13.902
69629W        W37959  19.615  42.956  11.506
69630W        W37960  14.264  19.210   3.193
69631W        W37961  19.583  33.481   2.665
69632W        W37962  26.116  42.007   3.825
69633W        W37963  15.639  26.029   1.731
69634W        W37964  28.155  27.508   1.331
69635W        W37965   8.697   3.278   0.419
69636W        W37966   8.315  12.716  11.484
69637W        W37967  38.064  31.993  14.330
69638W        W37968  43.973  18.700  14.825
69639W        W37969  28.472  24.107  13.988
69640W        W37970  30.099  11.254  13.539
69641W        W37971  38.019  18.750   3.678
69642W        W37972  18.739  24.492   2.292
69643W        W37973   4.793   3.320  12.080
69644W        W37974  39.024  13.815  11.445
69645W        W37975  21.094  13.212   1.832
69646W        W37976  16.796  24.133   1.235
69647W        W37977   3.816   8.835  12.091
69648W        W37978  30.620   3.250   3.330
69649W        W37979  28.101  20.044   2.866
69650W        W37980  35.982  24.177   4.815
69651W        W37981   7.233  23.061  14.827
69652W        W37982  33.882  40.413   2.741
69653W        W37983  35.603  43.770  14.029
69654W        W37984  27.034  32.490  14.485
69655W        W37985  15.599  38.886   2.227
69656W        W37986   0.252  27.013   0.441
69657W        W37987  44.884   8.660  13.986
69658W        W37988  17.770  41.330   1.779
69659W        W37989  39.836  27.605   4.610
69660W        W37990  26.130  35.990   0.753
69661W        W37991  19.536  41.823  13.407
69662W        W37992  27.081  23.493   3.157
69663W        W37993  30.473  28.651   4.681
69664W        W37994  10.146  19.115   0.727
69665W        W37995  22.024  40.545  10.642
69666W        W37996  36.988  22.170   4.831
69667W        W37997  33.093  12.743   0.418
69668W        W37998  25.483  39.488  12.477
69669W        W37999   9.798  26.013  13.993
69670W        W38000  14.211  18.100  12.070
69671W        W38001  28.948  26.469   4.315
69672W        W38002  27.690   3.431   3.764
69673W        W38003  44.388  35.391   2.777
69674W        W38004  13.239  29.097  13.503
69675W        W38005   1.755  36.500  10.928
69676W        W38006  34.418  19.172   1.225
69677W        W38007  28.957  34.464   4.290
69678W        W38008  44.983   2.790  11.492
69679W        W38009  39.395   2.864   2.795
69680W        W38010  17.729  14.169  13.880
69681W        W38011  43.497   1.862   4.166
69682W        W38012  41.468  12.350   0.916
69683W        W38013  38.980   5.208  14.022
69684W        W38014  37.420  10.288   1.906
69685W        W38015  10.784  29.005   1.330
69686W        W38016   8.857  23.046  12.559
69687W        W38017  10.288  31.537  10.948
69688W        W38018   3.875  33.065   1.386
69689W        W38019   6.748  32.541  14.885
69690W        W38020  33.526   5.788   3.773
69691W        W38021  42.342  35.060   3.312
69692W        W38022  17.201   4.899   0.306
69693W        W38023  38.888  30.058   0.912
69694W        W38024  27.519  25.682   1.873
69695W        W38025   9.818  13.707  14.347
69696W        W38026  11.255  32.139  10.521
69697W        W38027  27.627  12.630  14.024
69698W        W38028  36.446  12.322  12.869
69699W        W38029  11.662  41.355  13.461
69700W        W38030  38.971   7.754  14.355
69701W        W38031  14.722  11.839  12.401
69702W        W38032  37.005  14.698   4.761
69703W        W38033  10.381  36.369   3.791
69704W        W38034   5.928  22.110  11.583
69705W        W38035  32.598  26.616  14.964
69706W        W38036  11.721  17.127   3.708
69707W        W38037  44.408  22.680  14.509
69708W        W38038  29.469  30.456  11.098
69709W        W38039  25.100  10.157  12.542
69710W        W38040  20.226  30.056  10.968
69711W        W38041  27.624  40.945  10.984
69712W        W38042  36.557  27.680  10.507
69713W        W38043  39.537  32.558   2.343
69714W        W38044  32.488   1.354   2.897
69715W        W38045  11.740  34.039  12.093
69716W        W38046  24.212  30.012  12.845
69717W        W38047  28.101  14.781  10.419
69718W        W38048   3.843  32.587  14.834
69719W        W38049   3.344  36.423  12.976
69720W        W38050  24.167  27.470  12.020
69721W        W38051  14.711   7.740  11.544
69722W        W38052  27.553  32.906  14.330
69723W        W38053   8.404  29.531   3.796
69724W        W38054  14.298  11.862   0.759
69725W        W38055   6.843  15.584   0.934
69726W        W38056   6.815  25.106   4.811
69727W        W38057  28.586  25.526  13.943
69728W        W38058   1.814   3.848   4.157
69729W        W38059   5.864  17.646   4.277
69730W        W38060  28.500   5.766  12.926
69731W        W38061  16.146   1.760  13.009
69732W        W38062  36.054  28.186   3.276
69733W        W38063  18.151  29.982  13.882
69734W        W38064   9.697  28.023   0.373
69735W        W38065  32.947  15.580  13.914
69736W        W38066  11.784  41.868  11.499
69737W        W38067  27.042  15.630  12.452
69738W        W38068  42.292   4.366   4.814
69739W        W38069  26.127  29.156   3.643
69740W        W38070  17.307  30.069  14.283
69741W        W38071  41.486   2.308  12.913
69742W        W38072  29.046  40.828   3.364
69743W        W38073  10.856  40.310   4.187
69744W        W38074  32.463  20.675  13.037
69745W        W38075   0.847  41.950   3.381
69746W        W38076   4.824  10.646  11.986
69747W        W38077  40.541   9.644  14.841
69748W        W38078  33.920  41.382  11.126
69749W        W38079   5.822  23.069   2.302
69750W        W38080   3.242  20.044   0.751
69751W        W38081  31.480  30.459   4.619
69752W        W38082  16.804   7.199  12.835
69753W        W38083   5.423   5.794   4.599
69754W        W38084  28.502  37.446  10.590
69755W        W38085   6.425   3.741   0.806
69756W        W38086   8.340  24.585  13.820
69757W        W38087  29.666  25.071  14.909
69758W        W38088  42.989  19.585   2.259
69759W        W38089   9.746  44.443  10.540
69760W        W38090  20.562  39.509  14.792
69761W        W38091  13.732  16.211  13.506
69762W        W38092  20.061  30.085   4.611
69763W        W38093   8.775  33.092   2.894
69764W        W38094  35.899   9.149  13.542
69765W        W38095   3.727  15.585   0.939
69766W        W38096  27.604   4.348  11.903
69767W        W38097  33.535  20.620  14.277
69768W        W38098  35.593  28.596  12.953
69769W        W38099   3.401  27.050   4.734
69770W        W38100   0.970  12.716   5.138
69771W        W38101   8.894   5.795   4.773
69772W        W38102  28.453  29.581   1.791
69773W        W38103  33.028  40.403  11.939
69774W        W38104   9.694  27.576   4.185
69775W        W38105  15.724  37.967   2.847
69776W        W38106  32.046  10.331  12.531
69777W        W38107  18.744  29.448   4.165
69778W        W38108   8.835   6.263  13.972
69779W        W38109   4.800  12.232  13.478
69780W        W38110  44.975  27.490  14.326
69781W        W38111   9.270  42.973   1.787
69782W        W38112  22.512  33.612  10.967
69783W        W38113  28.055  25.077  10.138
69784W        W38114  32.564  25.993  11.858
69785W        W38115  24.993  10.693  13.972
69786W        W38116  42.965  24.543   1.327
69787W        W38117  20.087   4.734   2.675
69788W        W38118  42.391  27.141   3.722
69789W        W38119  16.785  33.108  13.489
69790W        W38120  42.300  19.174  14.338
69791W        W38121  34.088  36.573   3.276
69792W        W38122  17.198  30.056   4.806
69793W        W38123  10.253  31.512   1.935
69794W        W38124   1.850  23.520  13.977
69795W        W38125  44.355  10.830   1.374
69796W        W38126  31.072  44.854  11.004
69797W        W38127  14.312  25.485  13.867
69798W        W38128  30.529  16.275  10.638
69799W        W38129   1.264  18.709   1.731
69800W        W38130  43.856  15.673   4.324
69801W        W38131  23.548  42.890  13.887
69802W        W38132  33.983   3.806  11.930
69803W        W38133   1.968  30.939   3.633
69804W        W38134  31.516  31.054  10.434
69805W        W38135   7.690  40.408   0.883
69806W        W38136  34.437  23.709  13.863
69807W        W38137   3.806   4.443   4.820
69808W        W38138   7.851  15.299   0.944
69809W        W38139  17.062  28.478  13.943
69810W        W38140   6.391  40.468   1.446
69811W        W38141  43.804  31.084  11.544
69812W        W38142  36.938  29.135   1.304
69813W        W38143  19.192  44.476  14.779
69814W        W38144  30.655  16.786  13.537
69815W        W38145  31.121   8.663   4.250
69816W        W38146  37.058   7.701   3.318
69817W        W38147  13.771  16.111   1.925
69818W        W38148  36.457  40.026   0.323
69819W        W38149  22.249  13.714  13.047
69820W        W38150   1.890  43.966   0.435
69821W        W38151  37.018  12.849  14.312
69822W        W38152  17.628   7.826   1.312
69823W        W38153  19.719  35.413   4.151
69824W        W38154   3.796  36.370  11.055
69825W        W38155   5.330  34.416  10.518
69826W        W38156   3.370  23.094   1.842
69827W        W38157  28.662  38.372  12.906
69828W        W38158  15.197  36.961  11.973
69829W        W38159   5.856  11.737  10.448
69830W        W38160  10.278  29.101  10.100
69831W        W38161   0.281  16.811   3.779
69832W        W38162  15.225   8.883  10.997
69833W        W38163  44.490  33.877   1.698
69834W        W38164  22.248  11.635  11.958
69835W        W38165  23.192  33.482   0.941
69836W        W38166   8.251  21.020   4.132
69837W        W38167  19.572  25.978  11.045
69838W        W38168  32.484  23.992   1.249
69839W        W38169   1.477  36.578  11.457
69840W        W38170  25.611  43.330  11.006
69841W        W38171  25.667  40.528  10.461
69842W        W38172  14.723  19.192  14.303
69843W        W38173   8.766  36.921  12.430
69844W        W38174   5.333   6.410   2.281
69845W        W38175   9.326  22.604  12.398
69846W        W38176  29.113  43.511  14.807
69847W        W38177  24.679  12.273   4.793
69848W        W38178  12.750   9.677  13.396
69849W        W38179  38.885  21.042   5.300
69850W        W38180   3.813  10.294  14.871
69851W        W38181   4.391  38.351  13.967
69852W        W38182  33.010  10.838  13.494
69853W        W38183  18.052  28.057  11.066
69854W        W38184  28.072  38.071  12.562
69855W        W38185   4.230  11.706   2.254
69856W        W38186  14.135  14.803  12.008
69857W        W38187  16.755  39.497   1.376
69858W        W38188  20.062  41.426  12.579
69859W        W38189  31.973  21.744   2.832
69860W        W38190  28.560   7.800  12.347
69861W        W38191  33.030   5.844  12.386
69862W        W38192  12.234  39.905  14.409
69863W        W38193   9.867  22.604  11.112
69864W        W38194  11.796  42.514  14.874
69865W        W38195  33.507  34.886   0.366
69866W        W38196  16.596  26.175   4.143
69867W        W38197  33.958  22.022   0.311
69868W        W38198  31.527  41.516  13.022
69869W        W38199  22.224  35.958   0.399
69870W        W38200  43.836  18.213   3.725
69871W        W38201  36.483   3.895  13.472
69872W        W38202  14.096  39.394   2.211
69873W        W38203  41.891  21.066   1.815
69874W        W38204  28.975  16.115   3.163
69875W        W38205   6.398  17.249  12.469
69876W        W38206  24.667  14.306  13.519
69877W        W38207  27.969  28.000   2.251
69878W        W38208   5.297  14.192  12.566
69879W        W38209  27.161   3.268   0.816
69880W        W38210  21.172  33.911   0.384
69881W        W38211   1.868  43.972  10.470
69882W        W38212  42.356  22.538  13.543
69883W        W38213  36.949  41.452   3.664
69884W        W38214  40.023   7.682  14.922
69885W        W38215   7.402  24.651   1.728
69886W        W38216  23.096   9.189   9.469
69887W        W38217  37.486  41.850  13.928
69888W        W38218   2.323  42.964  11.975
69889W        W38219   8.739  13.145   1.263
69890W        W38220  22.221  43.844   2.406
69891W        W38221   3.406  14.798  13.903
69892W        W38222  30.150  31.902   4.611
69893W        W38223  14.283   1.428  12.465
69894W        W38224  25.083  35.377  11.953
69895W        W38225  20.721  35.073  14.405
69896W        W38226  15.635  44.380  14.435
69897W        W38227  38.025  25.154   1.776
69898W        W38228  18.726  30.065  14.299
69899W        W38229   0.357   3.242  11.533
69900W        W38230  41.500  27.178   1.922
69901W        W38231  41.997  27.550  11.911
69902W        W38232  37.451   2.909   1.264
69903W        W38233   0.810  32.990   4.332
69904W        W38234  31.054  30.069  10.641
69905W        W38235  24.495  39.012  13.464
69906W        W38236  16.793  13.631  11.018
69907W        W38237  40.823  22.156   4.305
69908W        W38238  31.059   8.839  10.602
69909W        W38239  11.750   7.860  10.896
69910W        W38240  22.047  11.753  11.055
69911W        W38241  24.575   7.196   3.865
69912W        W38242   0.477   3.320   3.653
69913W        W38243   1.863  36.468  11.904
69914W        W38244  14.818  20.600  11.919
69915W        W38245   3.440  41.922  12.933
69916W        W38246  23.513   6.822  11.060
69917W        W38247  19.082  32.619   4.780
69918W        W38248   6.334  42.935  12.834
69919W        W38249  37.520  38.556   2.283
69920W        W38250  28.514   1.971  10.892
69921W        W38251  10.849  13.112  13.954
69922W        W38252   1.762  10.374   2.801
69923W        W38253  20.031  17.077  13.050
69924W        W38254  22.076  43.910   4.229
69925W        W38255   1.466  16.639  13.987
69926W        W38256  27.055  37.447   1.329
69927W        W38257  38.993  24.099  13.389
69928W        W38258  25.141  16.631   4.196
69929W        W38259  27.941  21.211  11.940
69930W        W38260   2.918  24.228   4.680
69931W        W38261  23.203  31.580   2.700
69932W        W38262  43.483  20.240  11.449
69933W        W38263  18.547  44.362  13.870
69934W        W38264   3.274  42.999   0.762
69935W        W38265   4.764   8.739  14.942
69936W        W38266  24.094  36.074  14.758
69937W        W38267   9.156   1.755  11.399
69938W        W38268  40.406   6.270  11.541
69939W        W38269  10.832  26.494  11.890
69940W        W38270   8.686  13.212  12.572
69941W        W38271   6.272  22.639  14.398
69942W        W38272   7.283  11.741   0.311
69943W        W38273   3.332  43.492  14.453
69944W        W38274  40.547   8.320  13.320
69945W        W38275  19.275  10.825   4.627
69946W        W38276  12.220  18.585  14.893
69947W        W38277  20.569  15.151  11.499
69948W        W38278  16.722  36.438   2.318
69949W        W38279   0.404  13.600   0.459
69950W        W38280   8.199  10.776  13.843
69951W        W38281   6.263  27.961   0.905
69952W        W38282   1.435  41.534   0.262
69953W        W38283  37.996  33.450  10.117
69954W        W38284  19.251  30.416  11.511
69955W        W38285  21.754   1.863   5.095
69956W        W38286  14.214  44.476  14.981
69957W        W38287  12.774  12.802   1.874
69958W        W38288  18.279  33.441  13.419
69959W        W38289  14.719  30.948  13.030
69960W        W38290  29.430  40.417  11.984
69961W        W38291  35.582  23.096   3.784
69962W        W38292  25.711  41.908  12.842
69963W        W38293  40.018  43.309   1.323
69964W        W38294  40.857  31.906   4.611
69965W        W38295  36.862  15.313  12.551
69966W        W38296  30.958  32.898  12.977
69967W        W38297  16.229  25.521   2.304
69968W        W38298   1.766  10.188   1.764
69969W        W38299  38.070  15.615   2.203
69970W        W38300  28.103  29.058  12.528
69971W        W38301  20.524   5.819   3.735
69972W        W38302  22.179   4.769   1.858
69973W        W38303  20.044  15.190   4.290
69974W        W38304  18.564   5.269  11.957
69975W        W38305  13.320   2.405  10.964
69976W        W38306  25.209  11.310   0.853
69977W        W38307   0.933  26.200  10.443
69978W        W38308  31.923  44.338  13.338
69979W        W38309  24.155   6.308  13.832
69980W        W38310  43.343  31.486  14.340
69981W        W38311   4.699  23.576  13.324
69982W        W38312  30.160  33.063   3.340
69983W        W38313  44.856  14.729  10.889
69984W        W38314   1.311   3.816   0.456
69985W        W38315  36.917  40.828  10.990
69986W        W38316   3.254   5.344   1.908
69987W        W38317  25.193  32.561   2.363
69988W        W38318  21.222   4.359  10.534
69989W        W38319  28.012  16.599  12.095
69990W        W38320  23.516  12.217  10.465
69991W        W38321  43.349  41.423   4.666
69992W        W38322  12.172  28.169  11.464
69993W        W38323   0.485  28.581  14.775
69994W        W38324  23.651  11.284   4.700
69995W        W38325  17.603   4.248  13.524
69996W        W38326  19.235  38.967   3.744
69997W        W38327   3.911  43.814  10.644
69998W        W38328  29.044   6.361   3.852
69999W        W38329  44.446   7.367  10.418
70000W        W38330  18.073  15.808  11.450
70001W        W38331  10.263  15.672   0.772
70002W        W38332   6.313  34.534  14.360
70003W        W38333  28.139  18.053  13.835
70004W        W38334  28.671  16.812  10.623
70005W        W38335  18.585  36.585   3.245
70006W        W38336  39.829   4.756  12.058
70007W        W38337  18.297  15.094  14.763
70008W        W38338   0.848  38.955  12.076
70009W        W38339  11.761  18.221   4.691
70010W        W38340   2.748   7.839  12.395
70011W        W38341  30.521  35.486   0.936
70012W        W38342  17.234  30.571  11.881
70013W        W38343  40.363   4.750   2.233
70014W        W38344  23.599  25.515  13.938
70015W        W38345  10.149   4.272   3.194
70016W        W38346  26.198  31.626  13.988
70017W        W38347  32.523  27.025   2.294
70018W        W38348  38.495  12.150   2.822
70019W        W38349  21.098  21.629  13.338
70020W        W38350   7.698  41.043  10.552
70021W        W38351  36.019  34.426  14.991
70022W        W38352  24.060   8.749   0.952
70023W        W38353  13.188   1.933   3.836
70024W        W38354  28.644   5.885   1.246
70025W        W38355  42.932  25.643   4.612
70026W        W38356  35.081   1.255  10.639
70027W        W38357   7.854  33.929  10.444
70028W        W38358  26.963  11.190   3.662
70029W        W38359  30.581  38.960  13.396
70030W        W38360  36.970   5.885   1.218
70031W        W38361   8.274  17.588  10.911
70032W        W38362  13.639  30.499  11.897
70033W        W38363  17.696  40.308   3.241
70034W        W38364  30.092  17.570   0.343
70035W        W38365  12.796  40.907  12.908
70036W        W38366  35.086  44.872  14.386
70037W        W38367  31.557  22.171   3.671
70038W        W38368  43.816  17.787   2.235
70039W        W38369   8.168  36.369   3.674
70040W        W38370  16.159   9.341  11.001
70041W        W38371   5.407  15.620   3.169
70042W        W38372   9.383  25.487   4.616
70043W        W38373  19.128  10.330  10.959
70044W        W38374  27.944  44.967   0.313
70045W        W38375  20.753   6.861   4.745
70046W        W38376  21.645   0.312  10.621
70047W        W38377  12.625  31.022  14.410
70048W        W38378  30.993  23.159   2.897
70049W        W38379  20.695   3.867   3.776
70050W        W38380  19.642   4.780   3.331
70051W        W38381  20.661  11.262  10.913
70052W        W38382  40.000   9.162   3.780
70053W        W38383   8.398   1.326  11.860
70054W        W38384   8.168  35.106   0.731
70055W        W38385   9.371  39.492  13.542
70056W        W38386  43.959  21.742   0.456
70057W        W38387  25.497  13.200   4.256
70058W        W38388  24.626  23.695  14.875
70059W        W38389  23.118  44.436  12.500
70060W        W38390  10.355  17.150   0.882
70061W        W38391  37.408  14.165   1.709
70062W        W38392  38.368  29.630   4.687
70063W        W38393   1.446  31.973  13.830
70064W        W38394  13.756   2.288  10.947
70065W        W38395  17.580  12.685  11.855
70066W        W38396  24.643  19.553  11.915
70067W        W38397  42.982  43.882  12.423
70068W        W38398  28.476  40.430  14.876
70069W        W38399   4.808  14.599   1.252
70070W        W38400  13.239  36.070  12.869
70071W        W38401  29.588  25.108   0.840
70072W        W38402   8.169  29.012   4.153
70073W        W38403  27.517  39.046  14.788
70074W        W38404   0.929  29.921  12.560
70075W        W38405  22.546  37.977  14.994
70076W        W38406  38.471  24.112   1.791
70077W        W38407  44.472  10.370   3.224
70078W        W38408   3.358  30.533   4.194
70079W        W38409  35.101   5.332   0.277
70080W        W38410  41.371  32.054   2.862
70081W        W38411   9.664  30.589   0.847
70082W        W38412  10.632  16.315  11.096
70083W        W38413  21.208   0.398  11.856
70084W        W38414  18.647  40.032   9.924
70085W        W38415  26.959  33.124   4.169
70086W        W38416  35.896  15.295  12.965
70087W        W38417  32.410  23.714   3.307
70088W        W38418  15.779  43.298   2.884
70089W        W38419  25.551  42.896  12.577
70090W        W38420   8.873   9.852  14.798
70091W        W38421  34.393  34.582   4.699
70092W        W38422  13.606   9.150  13.917
70093W        W38423  37.428   8.386  11.026
70094W        W38424   9.337   4.744   4.152
70095W        W38425  22.029   1.935  10.975
70096W        W38426  32.907  44.952   4.212
70097W        W38427  15.269  44.344  10.626
70098W        W38428  17.222  37.364   3.658
70099W        W38429  43.485   9.865  14.347
70100W        W38430  22.631  26.988  12.824
70101W        W38431  36.516   8.659  12.889
70102W        W38432   4.331  14.164   2.857
70103W        W38433  21.211   7.348  12.959
70104W        W38434  25.601  19.640   1.357
70105W        W38435  28.493   4.826   4.764
70106W        W38436  16.614  20.766   4.798
70107W        W38437  40.003  18.155  12.376
70108W        W38438  42.972  26.137   1.265
70109W        W38439  12.235  36.561  13.505
70110W        W38440  43.853  39.521   3.262
70111W        W38441   0.795  36.585   0.306
70112W        W38442  32.983  33.887   4.748
70113W        W38443  21.216   4.801  14.836
70114W        W38444  35.500  29.611  10.992
70115W        W38445  20.245  26.081   3.182
70116W        W38446  13.170   1.405   1.804
70117W        W38447   1.956  43.297  14.788
70118W        W38448  21.663  43.457  12.005
70119W        W38449  32.578  43.949  13.866
70120W        W38450  12.684  25.040   4.610
70121W        W38451  10.861   7.842   4.281
70122W        W38452  27.953  41.367  13.394
70123W        W38453  44.454  19.283   3.694
70124W        W38454  17.623  14.154   0.347
70125W        W38455   7.216  29.969  11.973
70126W        W38456  22.024  18.624  12.397
70127W        W38457  18.610  33.469   4.147
70128W        W38458  31.913  15.321   0.877
70129W        W38459   8.242  18.771  10.637
70130W        W38460  32.404  32.938   0.805
70131W        W38461  13.184   9.364  13.982
70132W        W38462  40.374   7.399   3.806
70133W        W38463  13.107  28.949  10.577
70134W        W38464  35.462  34.890  12.569
70135W        W38465  22.660  40.015   3.801
70136W        W38466  20.126  44.261  10.467
70137W        W38467  26.666   1.845  13.014
70138W        W38468  22.633   9.162  10.017
70139W        W38469  32.088  31.908   3.270
70140W        W38470  22.619   1.442   4.785
70141W        W38471  15.627  33.546   0.367
70142W        W38472  35.902  33.517   1.864
70143W        W38473   9.723  18.707  14.454
70144W        W38474  40.898   7.865  12.092
70145W        W38475  41.997  34.442  12.901
70146W        W38476  25.049  25.030   5.167
70147W        W38477  41.499   2.279  10.943
70148W        W38478  44.297  10.193  12.057
70149W        W38479  14.151  16.788  12.526
70150W        W38480  28.125  16.149  14.918
70151W        W38481  25.064   5.792   0.299
70152W        W38482  18.131  33.944  11.892
70153W        W38483  10.138   9.700   3.788
70154W        W38484  34.919  30.581   3.282
70155W        W38485  15.682   8.368   0.348
70156W        W38486  43.490  28.504  11.556
70157W        W38487  30.002   0.755   3.146
70158W        W38488  18.668  26.647   0.392
70159W        W38489  43.412   1.758  10.482
70160W        W38490  30.931   0.884   1.237
70161W        W38491  25.198  29.995   3.833
70162W        W38492  31.635  27.647   0.896
70163W        W38493   8.254   1.429   0.794
70164W        W38494   6.410  10.339   0.814
70165W        W38495  10.298   5.393   3.307
70166W        W38496   3.271  36.034   4.151
70167W        W38497  14.208   3.357   4.251
70168W        W38498  39.860  29.940  11.079
70169W        W38499  28.032  26.019  11.439
70170W        W38500  32.923  38.551   2.401
70171W        W38501  24.086  13.146   3.258
70172W        W38502  26.611   6.195   1.785
70173W        W38503  36.073   3.819   3.317
70174W        W38504  21.091  31.004  12.825
70175W        W38505  31.487   1.297  11.880
70176W        W38506  44.971  13.694  14.319
70177W        W38507   9.356  16.073  13.309
70178W        W38508  35.954  36.491   4.158
70179W        W38509  22.519  14.835  10.621
70180W        W38510   9.149  44.806  14.857
70181W        W38511  34.444   9.718  11.540
70182W        W38512  25.196  27.481  14.806
70183W        W38513  31.943  32.041  14.982
70184W        W38514  14.273  23.112  14.983
70185W        W38515  24.487  37.915   1.348
70186W        W38516   3.926   7.824  14.975
70187W        W38517  16.230  41.030   4.662
70188W        W38518  23.655  44.855   3.828
70189W        W38519  29.534   4.764  14.771
70190W        W38520   9.392  25.065  13.809
70191W        W38521  33.003   4.288   1.340
70192W        W38522  16.802  26.016  10.595
70193W        W38523  40.024  41.294  12.339
70194W        W38524  39.415  39.424   2.268
70195W        W38525   1.896  25.619  14.335
70196W        W38526  17.160  12.662   2.337
70197W        W38527  34.025   5.432  12.841
70198W        W38528   6.869  36.530   1.284
70199W        W38529  15.779  38.024   9.522
70200W        W38530   2.261  23.223  10.944
70201W        W38531  25.602  10.244   1.366
70202W        W38532  35.487  40.837   4.335
70203W        W38533  42.967   5.755  10.910
70204W        W38534  14.214  10.299   2.415
70205W        W38535  28.627  22.595   1.935
70206W        W38536   6.243  25.646  13.876
70207W        W38537  41.911   2.758  13.405
70208W        W38538  13.244  10.752   4.597
70209W        W38539  36.098  37.013  13.878
70210W        W38540  30.525  38.822   0.917
70211W        W38541  14.592  28.958   3.853
70212W        W38542  19.182  33.949  12.579
70213W        W38543  37.854  18.056  13.988
70214W        W38544  17.686  39.925  11.562
70215W        W38545  25.070   5.376  13.443
70216W        W38546  28.947  21.065  13.057
70217W        W38547  38.831  24.143   1.212
70218W        W38548  28.013   3.461  11.079
70219W        W38549  13.681  10.140  13.317
70220W        W38550  39.991   4.920   4.160
70221W        W38551  18.679  32.110  14.319
70222W        W38552  28.463   9.706  12.091
70223W        W38553  33.480   8.685   0.406
70224W        W38554  27.563   9.198  12.909
70225W        W38555  31.948  40.500  11.027
70226W        W38556  26.003   2.437  10.429
70227W        W38557   0.458   0.448  10.505
70228W        W38558  23.736  39.949  10.463
70229W        W38559   8.316  22.507   4.682
70230W        W38560   4.832  23.109  11.481
70231W        W38561   4.381   5.416   2.758
70232W        W38562  32.087  13.127   2.780
70233W        W38563  27.121   0.804   0.848
70234W        W38564  43.935  40.513   0.963
70235W        W38565  36.489  37.512   3.850
70236W        W38566   0.757   1.456  11.436
70237W        W38567   7.827  34.864   4.626
70238W        W38568  35.960  34.480   0.802
70239W        W38569  20.271  15.197  10.910
70240W        W38570  40.505  37.049   2.877
70241W        W38571  12.688  40.962   4.800
70242W        W38572  44.499  30.532   0.879
70243W        W38573  22.744  12.322   3.246
70244W        W38574  29.435   7.211   4.763
70245W        W38575  42.462   7.832   0.290
70246W        W38576  30.031  43.962  14.377
70247W        W38577   0.259  15.790   0.395
70248W        W38578  19.248  34.884  12.549
70249W        W38579  24.137  30.517  10.933
70250W        W38580  38.380  41.337   0.802
70251W        W38581  19.704  23.723   9.573
70252W        W38582  31.547  20.074  13.941
70253W        W38583  36.512  13.825   1.402
70254W        W38584   5.896  10.199  11.381
70255W        W38585  42.427  20.733   3.639
70256W        W38586  20.250   5.272  11.072
70257W        W38587  42.448  10.230  10.078
70258W        W38588  17.200  24.109   0.782
70259W        W38589   7.743  38.841   2.689
70260W        W38590  41.897  20.543  14.813
70261W        W38591   0.260  44.414   0.432
70262W        W38592  42.371  28.008  11.428
70263W        W38593  34.429  37.526  12.459
70264W        W38594  38.050  37.361   3.669
70265W        W38595  21.248   4.877   0.809
70266W        W38596  43.515  34.387   2.721
70267W        W38597  24.702  15.260  11.568
70268W        W38598  40.036  11.762  14.434
70269W        W38599   5.851  37.066   1.281
70270W        W38600   1.401  27.130  12.888
70271W        W38601  25.205   4.744  14.371
70272W        W38602  37.078  10.875   0.274
70273W        W38603   4.340   9.260  13.033
70274W        W38604  37.470  37.424   1.324
70275W        W38605  18.568  37.496  11.492
70276W        W38606  43.875  33.890  13.453
70277W        W38607  17.762   7.395  13.924
70278W        W38608   4.248  31.059  14.789
70279W        W38609   1.896  15.211   2.231
70280W        W38610  22.657  23.489   2.347
70281W        W38611  10.324  20.688  13.908
70282W        W38612   1.948  19.675   1.337
70283W        W38613  39.922   1.939  14.434
70284W        W38614  44.909  11.672  14.458
70285W        W38615   5.812  44.410   3.340
70286W        W38616  25.064   7.374   3.664
70287W        W38617  13.625  36.387   0.289
70288W        W38618  29.635  39.451   0.395
70289W        W38619  38.394  44.916  14.879
70290W        W38620  44.329  38.983   3.385
70291W        W38621  37.400  42.341  14.923
70292W        W38622  27.468  44.266   4.249
70293W        W38623  13.279  27.946   1.900
70294W        W38624   8.275  29.634   3.280
70295W        W38625  14.729  34.399   4.693
70296W        W38626  30.055  30.544  10.578
70297W        W38627   3.399  36.570   3.797
70298W        W38628   9.308  33.087  13.420
70299W        W38629  43.846   1.409   4.738
70300W        W38630  20.675  33.425  11.004
70301W        W38631   3.830  39.056   2.683
70302W        W38632   1.807  21.042  11.580
70303W        W38633   7.312  20.763  12.386
70304W        W38634  34.484   6.698  11.497
70305W        W38635   4.864  23.626  10.608
70306W        W38636  31.519  27.087   0.826
70307W        W38637  42.800  43.274  13.980
70308W        W38638  25.581  21.601  11.587
70309W        W38639  13.224  26.465   1.315
70310W        W38640   6.833   8.853  14.321
70311W        W38641  33.566  36.451  14.866
70312W        W38642  18.235  30.556   4.709
70313W        W38643  41.953   1.376   2.345
70314W        W38644  13.194  34.107  12.938
70315W        W38645  39.358  13.279   4.261
70316W        W38646  39.480  27.986   3.638
70317W        W38647  36.031  10.292   3.370
70318W        W38648  30.071   9.824   3.701
70319W        W38649  24.065  40.395  14.358
70320W        W38650  29.472  44.797   4.336
70321W        W38651  40.441   4.288   1.879
70322W        W38652   9.208  39.059   3.343
70323W        W38653  39.975   3.412   4.321
70324W        W38654  25.504  42.281  13.041
70325W        W38655   1.389  41.514   1.403
70326W        W38656  10.202   0.309  10.463
70327W        W38657  34.513  16.772  12.391
70328W        W38658   0.822  37.005  10.522
70329W        W38659  29.967  34.101  12.956
70330W        W38660  13.677  25.094  14.777
70331W        W38661   2.401  38.392   0.247
70332W        W38662  35.454  17.248   4.760
70333W        W38663   9.847  17.784   0.480
70334W        W38664   9.294  35.079  12.405
70335W        W38665  10.256   7.413  13.959
70336W        W38666   5.755  23.674   2.217
70337W        W38667  41.460  36.841  14.991
70338W        W38668  10.183   3.435   1.216
70339W        W38669  31.145  15.201  13.526
70340W        W38670  12.252  11.792   0.310
70341W        W38671  13.127   5.247  10.528
70342W        W38672  11.630  20.092  13.484
70343W        W38673  10.309  14.792   1.443
70344W        W38674   5.856   4.450  11.047
70345W        W38675  17.700  19.248  12.898
70346W        W38676  38.369  16.126   0.302
70347W        W38677  37.076  29.019   1.917
70348W        W38678  28.642  26.081  10.896
70349W        W38679   0.486  38.493   4.752
70350W        W38680   3.273  28.635   1.877
70351W        W38681   7.703   8.286  10.628
70352W        W38682  28.641  21.110   3.830
70353W        W38683  44.315  15.239  11.981
70354W        W38684  38.032   0.919   3.820
70355W        W38685   3.254  34.884   2.882
70356W        W38686  38.066   9.806   0.791
70357W        W38687   2.824  21.627   4.702
70358W        W38688  21.175   8.823   1.211
70359W        W38689   3.730  11.212  14.964
70360W        W38690  11.785  28.121  13.423
70361W        W38691   4.366   6.366   0.278
70362W        W38692   8.195   5.411  13.838
70363W        W38693  43.013  26.114   3.745
70364W        W38694   0.446   4.773   3.190
70365W        W38695  17.202   0.314  11.872
70366W        W38696  44.821  22.023  13.384
70367W        W38697  16.210  26.555  13.508
70368W        W38698   3.332  24.131   3.258
70369W        W38699  44.773  10.719   1.714
70370W        W38700   7.909  17.615  14.929
70371W        W38701  18.549  24.071  13.827
70372W        W38702   4.828  14.226  13.796
70373W        W38703  29.653  11.370  12.469
70374W        W38704  36.845  38.039   3.757
70375W        W38705   1.449  22.082   4.662
70376W        W38706   0.803   0.988   2.310
70377W        W38707  11.625  36.449   1.843
70378W        W38708  20.752  16.276   4.145
70379W        W38709  26.529  26.012  14.409
70380W        W38710  23.195   2.307  13.989
70381W        W38711  16.664  44.450   4.336
70382W        W38712  36.358  12.716  11.540
70383W        W38713  14.701  33.030  14.773
70384W        W38714  19.604  37.573   0.397
70385W        W38715  34.907  43.904  13.946
70386W        W38716  25.628  16.262   1.756
70387W        W38717  36.039  33.987  13.929
70388W        W38718  24.721  32.517   0.454
70389W        W38719  36.518  39.993   2.178
70390W        W38720  29.532  11.718  10.460
70391W        W38721  19.635   8.234  14.005
70392W        W38722  38.852  18.638   0.448
70393W        W38723  43.302   7.194  14.005
70394W        W38724   5.788  35.997  11.493
70395W        W38725  41.391  35.876   2.667
70396W        W38726   8.803  40.960  12.052
70397W        W38727  42.005  44.271  10.576
70398W        W38728   1.287  13.793  10.484
70399W        W38729  14.598  10.190  11.474
70400W        W38730   1.750  28.934   1.364
70401W        W38731  33.575  31.412  14.945
70402W        W38732  35.045   2.741  13.933
70403W        W38733  35.592  40.522  12.933
70404W        W38734  41.937  17.095  11.052
70405W        W38735  12.175   6.356   3.731
70406W        W38736  24.150   1.395  11.856
70407W        W38737  27.947   2.723   4.694
70408W        W38738   1.767  39.550  14.981
70409W        W38739  41.476  35.942   4.682
70410W        W38740  22.581  29.948   1.215
70411W        W38741  21.676   8.370   1.907
70412W        W38742   3.742   5.838  10.545
70413W        W38743  24.038  43.883  13.025
70414W        W38744  34.464  17.154   4.808
70415W        W38745  17.709   6.200  11.487
70416W        W38746  27.182  28.481  12.460
70417W        W38747  17.792  25.624  14.333
70418W        W38748  35.565  34.453   3.177
70419W        W38749  28.666   4.887   3.333
70420W        W38750  40.459  10.806  12.369
70421W        W38751  23.664  19.780  13.471
70422W        W38752  11.300  17.215   1.802
70423W        W38753   6.205  14.106   3.695
70424W        W38754  39.332   6.248  13.393
70425W        W38755  39.853   8.185   1.371
70426W        W38756   4.906  19.579   0.274
70427W        W38757  38.043  26.523   1.910
70428W        W38758  11.354  42.382   0.778
70429W        W38759  41.875  41.427  14.277
70430W        W38760  15.229  34.929  13.810
70431W        W38761   0.926  24.555   3.368
70432W        W38762  38.972  37.363   1.213
70433W        W38763  10.783  38.942  11.596
70434W        W38764  44.927  28.442  12.504
70435W        W38765  39.840   4.289  10.445
70436W        W38766  16.311  24.168  11.530
70437W        W38767  34.582   2.799   3.674
70438W        W38768  34.870  31.082   1.427
70439W        W38769  19.691  23.551   1.336
70440W        W38770  39.923  29.095  11.866
70441W        W38771  38.842  27.502   4.295
70442W        W38772  14.160  37.864  13.416
70443W        W38773  35.498   0.390   0.357
70444W        W38774  35.876  34.549   2.238
70445W        W38775  19.167  43.473  14.336
70446W        W38776  31.104  36.054  13.483
70447W        W38777  32.498   9.149  11.462
70448W        W38778  20.256  27.090  10.462
70449W        W38779   0.432  26.588  13.828
70450W        W38780   1.374  33.909   2.727
70451W        W38781   6.739  37.000   3.382
70452W        W38782  42.311  24.523  13.456
70453W        W38783  22.046  35.509  10.519
70454W        W38784  25.101  36.993  14.958
70455W        W38785  23.184  28.956  14.848
70456W        W38786  43.390   2.282   0.734
70457W        W38787  22.648  31.992   0.398
70458W        W38788   8.667  41.300  11.917
70459W        W38789   2.929   6.306  12.051
70460W        W38790  20.764  20.710   3.646
70461W        W38791   8.320   3.420  11.099
70462W        W38792   0.898  37.945   0.400
70463W        W38793  16.592  10.772  13.967
70464W        W38794  29.522  33.039   2.246
70465W        W38795  24.609  32.461  13.916
70466W        W38796   2.862  42.405  12.067
70467W        W38797  14.762   6.188  10.989
70468W        W38798  38.325  18.187   2.240
70469W        W38799  16.695  14.184  12.523
70470W        W38800  11.738  34.970   0.470
70471W        W38801  42.959  28.944   3.712
70472W        W38802  29.051   3.244  11.006
70473W        W38803  42.921  40.518   2.257
70474W        W38804  24.202  17.242  11.391
70475W        W38805  27.989   8.383   4.122
70476W        W38806  29.537   8.235  10.973
70477W        W38807   7.694   1.377  13.962
70478W        W38808  29.153  26.596  12.971
70479W        W38809   8.673   6.294   3.278
70480W        W38810  15.277  41.535   4.819
70481W        W38811   6.781  12.832  14.809
70482W        W38812  20.032  37.999   1.890
70483W        W38813  12.246  31.595  13.389
70484W        W38814  21.224  44.450  11.975
70485W        W38815  20.115  37.987  14.939
70486W        W38816   4.762  13.726   0.795
70487W        W38817  13.609  37.522  11.433
70488W        W38818  43.283   5.747  14.445
70489W        W38819  33.998  40.854   2.352
70490W        W38820   6.797  28.139  13.008
70491W        W38821  19.647  29.111  11.018
70492W        W38822  44.862   6.243   3.224
70493W        W38823  43.433  28.447  12.962
70494W        W38824  20.272  22.693   3.199
70495W        W38825   1.749   1.391  12.395
70496W        W38826  24.596  16.658  11.017
70497W        W38827  15.084  12.730   2.200
70498W        W38828  25.604  29.104   0.365
70499W        W38829  26.087   1.325   2.741
70500W        W38830  40.859  19.114  14.810
70501W        W38831  29.617   0.492   3.866
70502W        W38832  27.949   2.450  10.619
70503W        W38833   7.781   5.213   4.291
70504W        W38834  31.148  13.620  11.925
70505W        W38835   2.303  11.168   2.709
70506W        W38836   5.291  17.717   3.361
70507W        W38837  43.452  23.233   3.692
70508W        W38838  20.262  27.109   4.648
70509W        W38839  41.371  26.588   1.867
70510W        W38840  35.468  35.949  12.010
70511W        W38841  12.623  19.075  14.381
70512W        W38842   5.763   0.291  12.905
70513W        W38843  42.286  11.746   0.277
70514W        W38844  38.921  14.334  14.314
70515W        W38845  30.152  25.211  12.390
70516W        W38846  41.498   8.232   4.148
70517W        W38847  17.269  25.653  10.054
70518W        W38848  10.671  23.575  14.314
70519W        W38849  18.584  28.598   0.840
70520W        W38850  25.626  20.169  11.476
70521W        W38851  17.128   6.315   2.279
70522W        W38852  22.715  21.754   2.254
70523W        W38853  31.904  27.633  11.508
70524W        W38854  16.804   7.416  13.951
70525W        W38855  15.629  11.222  14.289
70526W        W38856  44.376  22.006   3.331
70527W        W38857  38.497  35.412   3.685
70528W        W38858  15.787  16.076  10.094
70529W        W38859  21.552   2.238  12.393
70530W        W38860  17.233  21.622   1.249
70531W        W38861  22.706  10.269  11.037
70532W        W38862  23.577  24.174  10.465
70533W        W38863   4.839  24.631  13.829
70534W        W38864   8.280   3.825   3.696
70535W        W38865  15.096  22.556   1.733
70536W        W38866  34.963   1.963  12.473
70537W        W38867  26.180  36.038  13.838
70538W        W38868  41.446  21.599  11.048
70539W        W38869   7.751  40.977   0.729
70540W        W38870  16.626  36.348  11.120
70541W        W38871   6.770   2.272   0.349
70542W        W38872  26.656  33.056   3.182
70543W        W38873  43.352  25.681   4.662
70544W        W38874  30.156  23.039   2.386
70545W        W38875  23.637  19.654  12.059
70546W        W38876  21.691  17.706  12.078
70547W        W38877  27.630  39.972  11.864
70548W        W38878  23.085  37.554  12.540
70549W        W38879  29.036  18.075  13.919
70550W        W38880  44.822  35.426   1.249
70551W        W38881   2.416  27.515  11.508
70552W        W38882  11.168  44.861  12.844
70553W        W38883  42.431  34.885   1.739
70554W        W38884  23.993  22.183   2.389
70555W        W38885  16.291   9.152   3.656
70556W        W38886  34.480  29.962   1.910
70557W        W38887  15.295  16.254  12.456
70558W        W38888  43.770   7.911  14.963
70559W        W38889  30.964   7.327  12.891
70560W        W38890  34.499  12.841   0.957
70561W        W38891   4.368  33.525   1.211
70562W        W38892   8.232   8.807   2.188
70563W        W38893   6.778  39.520   1.744
70564W        W38894  41.919  37.946   0.457
70565W        W38895  38.014   6.719   3.216
70566W        W38896   6.351  23.221   1.841
70567W        W38897  14.164  20.636  11.997
70568W        W38898   0.439  12.845   0.362
70569W        W38899  28.032  16.180  14.428
70570W        W38900  22.108  37.525  14.011
70571W        W38901  33.626  35.900   2.711
70572W        W38902   9.843  14.819  13.040
70573W        W38903  13.172  37.507   5.165
70574W        W38904  19.120  43.415  12.863
70575W        W38905  15.305  41.496  14.914
70576W        W38906  43.819   1.861  13.484
70577W        W38907  14.714  31.072  14.466
70578W        W38908  10.261   4.845  12.416
70579W        W38909  22.031  14.263  10.486
70580W        W38910  39.024  39.476  10.007
70581W        W38911  14.616  22.111  11.575
70582W        W38912  32.439  27.994   4.694
70583W        W38913  26.167  18.289  12.347
70584W        W38914  21.233  12.757   1.737
70585W        W38915  23.190   2.233   3.822
70586W        W38916  12.744  41.851  10.486
70587W        W38917  38.355  19.571  11.012
70588W        W38918  18.205  44.864  10.944
70589W        W38919   7.703  23.725   3.860
70590W        W38920  33.611   9.312   0.410
70591W        W38921   9.868  30.031  14.006
70592W        W38922  16.603  25.982  12.434
70593W        W38923  33.451  17.258   3.375
70594W        W38924  15.322  17.640  14.832
70595W        W38925  18.626  34.446   1.319
70596W        W38926  36.950  35.922   3.341
70597W        W38927   1.423  36.913   2.401
70598W        W38928  41.018  35.863   0.475
70599W        W38929  16.753  42.919  14.014
70600W        W38930  38.838  26.111  12.373
70601W        W38931  26.572  23.001   3.337
70602W        W38932  28.617  18.069   3.219
70603W        W38933  13.660  37.418   3.803
70604W        W38934   5.320   3.785  13.826
70605W        W38935  43.900  19.780  12.537
70606W        W38936   1.923  44.308   3.763
70607W        W38937   8.380  23.156  10.538
70608W        W38938  20.560  20.171   9.967
70609W        W38939  20.162  21.636   2.810
70610W        W38940   6.373   5.310  12.498
70611W        W38941  15.615  10.786  10.469
70612W        W38942   8.284  23.603   4.798
70613W        W38943  39.882  33.021  14.307
70614W        W38944  42.891  35.920   4.670
70615W        W38945  30.581   2.776  10.956
70616W        W38946   9.771  21.742   0.900
70617W        W38947   2.282  10.172   9.990
70618W        W38948  29.024  10.632  14.310
70619W        W38949  15.811  21.214  12.858
70620W        W38950   9.861   9.298   1.699
70621W        W38951  15.242   5.394  12.523
70622W        W38952   2.937  28.033  13.049
70623W        W38953   2.350  20.630   0.254
70624W        W38954  44.925  40.954   2.343
70625W        W38955  16.711  26.543   2.845
70626W        W38956  23.140  40.420   0.841
70627W        W38957  29.620  31.446   9.507
70628W        W38958  31.427  39.808   2.836
70629W        W38959  40.875   5.908   0.786
70630W        W38960  43.998  30.505  13.435
70631W        W38961  11.169  42.905  13.510
70632W        W38962  32.018  23.621   4.818
70633W        W38963  29.991  17.638   0.883
70634W        W38964   8.380  35.389  12.474
70635W        W38965  25.107  27.480   4.194
70636W        W38966  38.544  25.536  13.927
70637W        W38967   4.939   6.812  13.470
70638W        W38968  39.490  15.159   0.246
70639W        W38969   1.392  22.616  10.966
70640W        W38970   2.962   1.307  13.962
70641W        W38971  16.799  17.116   3.248
70642W        W38972  21.027  28.970  11.510
70643W        W38973   2.354  20.055  10.974
70644W        W38974  20.675  38.325  12.935
70645W        W38975  17.704  43.930   4.725
70646W        W38976  35.506  24.090   3.704
70647W        W38977  23.527   2.810   4.286
70648W        W38978   8.379  44.965  11.448
70649W        W38979   1.395  31.957   3.148
70650W        W38980  29.022  30.942   4.124
70651W        W38981  30.460  18.559  11.504
70652W        W38982  33.560   3.774  13.332
70653W        W38983  16.143  15.201   2.901
70654W        W38984  37.961  26.593   2.743
70655W        W38985  14.705  20.609  14.900
70656W        W38986  37.344  37.846   4.825
70657W        W38987  31.459   8.690   3.376
70658W        W38988  36.907  25.599  11.920
70659W        W38989  42.859   7.740  10.948
70660W        W38990  35.574  21.023   2.762
70661W        W38991  40.822   9.252   0.902
70662W        W38992  38.065  36.354   3.322
70663W        W38993  31.967  32.431   3.719
70664W        W38994  39.330  17.174  12.912
70665W        W38995  19.121  33.927   2.787
70666W        W38996  11.322  39.941   3.661
70667W        W38997  24.513  42.805  12.836
70668W        W38998  27.044  31.980  10.615
70669W        W38999  10.354  21.060  11.989
70670W        W39000  22.160  22.641  14.385
70671W        W39001   9.849  33.095   0.947
70672W        W39002  42.784  21.725  10.971
70673W        W39003  19.215  21.151  10.597
70674W        W39004  10.288   2.307   0.481
70675W        W39005   8.370  40.827   0.420
70676W        W39006  29.106  28.185  11.572
70677W        W39007  36.083  13.137  11.971
70678W        W39008   4.858   8.858  13.497
70679W        W39009  10.860  18.059  13.030
70680W        W39010   0.441  28.439   4.175
70681W        W39011  42.355  44.374   1.338
70682W        W39012  13.726  18.051  10.948
70683W        W39013  36.070   6.421  13.953
70684W        W39014  11.314   3.250  14.867
70685W        W39015   7.222   3.872   4.253
70686W        W39016  24.203   0.979  14.500
70687W        W39017   5.248   1.770  13.978
70688W        W39018  18.097  19.136   1.246
70689W        W39019  21.168  34.948   4.286
70690W        W39020  15.596  26.533   3.204
70691W        W39021  32.628   9.839  14.305
70692W        W39022  40.992  36.010   0.768
70693W        W39023  28.534  35.974  11.935
70694W        W39024  18.080  26.597   2.812
70695W        W39025  25.962  41.862   4.752
70696W        W39026  32.056  32.624  12.346
70697W        W39027  24.077   1.880   1.767
70698W        W39028  29.924  15.679  13.995
70699W        W39029  32.927  32.107   4.216
70700W        W39030  28.086  14.759  14.290
70701W        W39031  31.945   6.293   1.903
70702W        W39032   0.352  32.895  12.943
70703W        W39033  17.758  35.383   3.236
70704W        W39034  40.923   8.337  12.995
70705W        W39035   9.239   7.681   0.744
70706W        W39036  18.689  17.665  11.071
70707W        W39037  23.093   5.213   3.367
70708W        W39038   8.373  30.469  14.820
70709W        W39039  19.127  44.469   0.323
70710W        W39040   1.923  39.992  10.462
70711W        W39041  12.752  15.635  14.367
70712W        W39042  12.826  28.086   4.629
70713W        W39043  20.147   2.774   0.939
70714W        W39044  40.375  32.990   0.482
70715W        W39045   7.669  16.090  13.830
70716W        W39046  27.467  39.445   0.440
70717W        W39047  11.652  31.931   5.283
70718W        W39048   8.404  38.888   3.249
70719W        W39049  28.542  40.942   0.459
70720W        W39050  33.520  16.267  13.791
70721W        W39051  38.058  42.867   3.858
70722W        W39052   6.725  16.743   3.821
70723W        W39053   0.844  19.670  13.798
70724W        W39054   8.729  14.312   3.271
70725W        W39055  25.123  14.593  10.464
70726W        W39056  20.068  12.824   0.428
70727W        W39057   5.251  36.533   1.916
70728W        W39058  26.198  20.607  11.401
70729W        W39059  21.614   8.845  13.320
70730W        W39060  42.303  28.960   1.792
70731W        W39061  30.074   4.709  13.809
70732W        W39062   0.485  21.575   3.306
70733W        W39063  38.570   0.361   1.369
70734W        W39064  33.895  16.117  10.538
70735W        W39065  21.619  33.601   0.909
70736W        W39066  31.154  19.269  13.943
70737W        W39067   5.210  27.503   4.123
70738W        W39068  34.468  10.355  13.511
70739W        W39069  17.102   5.366  13.405
70740W        W39070  13.239  22.226   1.836
70741W        W39071  30.155  22.638   3.738
70742W        W39072  39.347  17.173   4.296
70743W        W39073  26.177  16.106  13.515
70744W        W39074  35.395   1.927   3.336
70745W        W39075  38.967  40.314  14.316
70746W        W39076  41.381  20.565  10.538
70747W        W39077  38.348  24.994  14.281
70748W        W39078  44.465   5.341   2.179
70749W        W39079  14.752  25.713  12.090
70750W        W39080   9.880  41.510   1.726
70751W        W39081  44.758  42.434   1.240
70752W        W39082  17.098  24.028  11.399
70753W        W39083   4.875  20.109  14.797
70754W        W39084  29.528  10.359  11.451
70755W        W39085  41.353   8.759  12.501
70756W        W39086   5.265  15.176  10.967
70757W        W39087  25.582   4.759  14.277
70758W        W39088   6.295   2.347  14.785
70759W        W39089  30.636  35.105  13.872
70760W        W39090  18.783  10.769  10.489
70761W        W39091  43.868  40.336   2.689
70762W        W39092  17.299  43.863   0.469
70763W        W39093  16.793  35.390   9.652
70764W        W39094  21.187  29.043   4.610
70765W        W39095  25.151   8.901  14.348
70766W        W39096  39.834  27.014  14.998
70767W        W39097   8.220  13.184  13.883
70768W        W39098  26.529  44.930  14.804
70769W        W39099  24.650   9.675   3.197
70770W        W39100  35.915  35.884   1.935
70771W        W39101  18.747  39.975  12.845
70772W        W39102   4.901  32.524   4.130
70773W        W39103  34.893  10.681   0.886
70774W        W39104  28.591   7.199  10.957
70775W        W39105  26.519  42.821  10.566
70776W        W39106  17.267   4.426   2.746
70777W        W39107  14.281   9.217   1.424
70778W        W39108  33.574  32.952   0.819
70779W        W39109  15.088   1.479  12.867
70780W        W39110  11.296  24.501  13.050
70781W        W39111   4.801   5.831   1.421
70782W        W39112  13.817  29.510  11.461
70783W        W39113  36.464  32.956  13.944
70784W        W39114  17.227  39.818  14.359
70785W        W39115   6.815  24.092   0.773
70786W        W39116  11.840   6.363   0.845
70787W        W39117  42.325  32.560  13.366
70788W        W39118  33.615  24.718   1.276
70789W        W39119  20.224  33.394   1.264
70790W        W39120  30.589   1.910   4.233
70791W        W39121  10.782  19.052   0.757
70792W        W39122  37.897  39.947  13.049
70793W        W39123  41.989  32.490  14.775
70794W        W39124  29.511  33.897  14.029
70795W        W39125  36.488  15.295  11.006
70796W        W39126  27.112   4.797   3.203
70797W        W39127  16.580  19.649   4.172
70798W        W39128   8.880  18.570  13.442
70799W        W39129  41.499   2.909  12.374
70800W        W39130  20.155  24.529   9.931
70801W        W39131  40.487  39.535  13.038
70802W        W39132  27.081   0.901   1.696
70803W        W39133  29.010  21.694  11.602
70804W        W39134  37.419  12.852   1.708
70805W        W39135  24.690  19.711   1.256
70806W        W39136   8.185  27.051  11.032
70807W        W39137  42.779  17.193  12.017
70808W        W39138  25.651  31.083   1.703
70809W        W39139  16.268   6.769  13.469
70810W        W39140  18.661  21.564  11.554
70811W        W39141  13.221   9.761   1.352
70812W        W39142   6.358  32.602  10.416
70813W        W39143   9.246  40.890  12.026
70814W        W39144   4.210  19.669   1.316
70815W        W39145   2.790  19.126   4.241
70816W        W39146  30.479  16.260  14.340
70817W        W39147  13.823  36.973   9.520
70818W        W39148   5.925  43.958  14.281
70819W        W39149  25.963  13.711   1.863
70820W        W39150  16.785  13.668  12.487
70821W        W39151   8.847  42.944   1.416
70822W        W39152  20.672   3.939  14.980
70823W        W39153  12.251  23.598  12.514
70824W        W39154  26.984  28.996   3.823
70825W        W39155  18.060   5.743  12.027
70826W        W39156  14.594   6.347  14.424
70827W        W39157  40.500  43.948   4.304
70828W        W39158   6.250  35.371  13.494
70829W        W39159   4.239  20.103   4.350
70830W        W39160   2.365  36.896  10.559
70831W        W39161  27.159  39.828   2.184
70832W        W39162  31.502   8.210   3.278
70833W        W39163  39.925  13.266  13.807
70834W        W39164  32.069  40.053   0.267
70835W        W39165  36.357   6.349  10.637
70836W        W39166  19.699   3.233   0.966
70837W        W39167  18.173  25.089   0.385
70838W        W39168  40.954  35.534  13.963
70839W        W39169  20.663  29.127   5.250
70840W        W39170   8.700  43.414  12.057
70841W        W39171  43.499  36.926  13.796
70842W        W39172   5.740   5.879  13.355
70843W        W39173  33.471  18.166  10.466
70844W        W39174  28.585  30.524   1.211
70845W        W39175  37.532  25.653   1.311
70846W        W39176  23.678  18.762  11.084
70847W        W39177   6.865  24.081  11.891
70848W        W39178  43.369  18.703  13.823
70849W        W39179  33.003   3.284   4.759
70850W        W39180  39.004  17.800  12.926
70851W        W39181   0.299  11.795   1.763
70852W        W39182  25.156  25.178  10.424
70853W        W39183  34.933  21.593  12.028
70854W        W39184   4.845  29.932  14.951
70855W        W39185  23.650  11.833  14.320
70856W        W39186  21.741  43.952   1.255
70857W        W39187   6.370  18.262   4.668
70858W        W39188  38.926  21.606   0.263
70859W        W39189  25.706  19.560   3.162
70860W        W39190   6.721  40.329   0.409
70861W        W39191  43.791  23.057  10.420
70862W        W39192   7.227  28.648  13.860
70863W        W39193   6.262  24.143   2.231
70864W        W39194  28.036  17.609  14.426
70865W        W39195  34.580   5.199   4.784
70866W        W39196   2.308  23.705  10.077
70867W        W39197   5.780  34.395   0.960
70868W        W39198  32.072   6.214   0.370
70869W        W39199  13.121  42.973  11.946
70870W        W39200  31.052   3.791   2.735
70871W        W39201  28.668  25.098  14.891
70872W        W39202  25.046  10.185  12.006
70873W        W39203  41.013   3.781  11.582
70874W        W39204  20.759  30.569   1.876
70875W        W39205  36.366  20.628   3.674
70876W        W39206   5.285  42.502  11.458
70877W        W39207   5.921  34.414  13.378
70878W        W39208   8.661  20.559   2.726
70879W        W39209  19.584   0.761  14.801
70880W        W39210   5.334  22.174   3.294
70881W        W39211  29.055   7.672  11.387
70882W        W39212  11.802   9.752  14.322
70883W        W39213  29.497  21.722   5.632
70884W        W39214  16.723  29.661   0.325
70885W        W39215  40.355  29.630  12.895
70886W        W39216  16.620  35.599   0.454
70887W        W39217  10.313  18.226  12.564
70888W        W39218  13.169  30.915  14.916
70889W        W39219  38.066  40.011  11.910
70890W        W39220  43.289  16.251  10.636
70891W        W39221  35.968  41.418   3.350
70892W        W39222   8.221   4.774  10.620
70893W        W39223   5.759   9.292  13.889
70894W        W39224  19.553  29.931  14.983
70895W        W39225   0.824  42.474   1.215
70896W        W39226  33.465  28.435  13.895
70897W        W39227   7.784  36.537  11.975
70898W        W39228  42.779  22.572   3.181
70899W        W39229  37.513  32.028   2.765
70900W        W39230   9.372  39.983  12.901
70901W        W39231  24.646   2.764  12.390
70902W        W39232   2.814  40.332   0.409
70903W        W39233  10.677  34.454  13.387
70904W        W39234  23.600  15.262   2.764
70905W        W39235  28.125  27.994   4.667
70906W        W39236  11.824  37.423   2.326
70907W        W39237  30.929  22.107   2.700
70908W        W39238  18.767  37.549  14.415
70909W        W39239  19.769   3.930   2.359
70910W        W39240   3.747  40.980   2.295
70911W        W39241  43.371   9.837   1.747
70912W        W39242   6.230   5.775  11.497
70913W        W39243  32.419  38.060  12.889
70914W        W39244   4.930   0.950   0.897
70915W        W39245  38.843  14.102  13.001
70916W        W39246   5.717   8.801   2.723
70917W        W39247  42.342   1.462   4.651
70918W        W39248  41.954  33.500   3.809
70919W        W39249  15.698  26.652   2.702
70920W        W39250   3.785  40.510   0.260
70921W        W39251  14.709  33.959  11.560
70922W        W39252  14.154   9.282   1.904
70923W        W39253  40.863  28.082   2.206
70924W        W39254  16.660  19.117   3.260
70925W        W39255  16.571  31.446   0.259
70926W        W39256  17.125  31.152   3.284
70927W        W39257   4.311   3.720  12.828
70928W        W39258  20.674   6.762   3.346
70929W        W39259  23.612  30.554   4.246
70930W        W39260  29.490  27.585   4.775
70931W        W39261  29.075  44.789   2.398
70932W        W39262  27.656  32.987   1.783
70933W        W39263  13.211  40.938   3.636
70934W        W39264  13.250  24.537   2.318
70935W        W39265  35.014   9.830  14.853
70936W        W39266  39.005  18.658   2.821
70937W        W39267  39.948  18.553  14.862
70938W        W39268  19.710  22.096  11.931
70939W        W39269  24.994  39.465   2.400
70940W        W39270   3.318  22.555  14.999
70941W        W39271   3.296  22.641  11.577
70942W        W39272  18.212  10.824   1.234
70943W        W39273   5.416  13.317  14.842
70944W        W39274  32.950  20.745  14.029
70945W        W39275  39.827  13.819   3.192
70946W        W39276  13.670   1.753  12.931
70947W        W39277  34.612  18.605   2.208
70948W        W39278   9.387  16.769   4.702
70949W        W39279  43.983  43.812   3.699
70950W        W39280  44.409  36.433   1.412
70951W        W39281  43.345  42.998  10.503
70952W        W39282  21.521   0.358  14.995
70953W        W39283  30.136  36.566   1.779
70954W        W39284  25.154   1.414  11.110
70955W        W39285  11.769  25.146  12.573
70956W        W39286  35.981   2.468   4.810
70957W        W39287  12.186   2.724  12.345
70958W        W39288  20.116  37.415  12.495
70959W        W39289  31.933  34.076   0.484
70960W        W39290  33.899  30.418  11.011
70961W        W39291   5.426  28.588   2.689
70962W        W39292  40.948  10.776   2.806
70963W        W39293  25.970  33.610  14.913
70964W        W39294   6.897  40.809   4.728
70965W        W39295  20.071  26.169  14.331
70966W        W39296   7.822   3.328   2.255
70967W        W39297   8.673   0.964   3.777
70968W        W39298  26.573  32.577  12.995
70969W        W39299  34.102  38.381  11.092
70970W        W39300  35.017  40.032  10.940
70971W        W39301  21.030  12.326  11.506
70972W        W39302  39.353  42.294  13.533
70973W        W39303  24.213  42.951   4.808
70974W        W39304   2.401  41.891  11.381
70975W        W39305  18.104   8.759  10.462
70976W        W39306  35.945  40.319   1.319
70977W        W39307  32.981  31.912  13.906
70978W        W39308   6.275   3.748   1.842
70979W        W39309  10.241  43.288  14.760
70980W        W39310  16.695   4.884   0.817
70981W        W39311  37.959  28.999  12.556
70982W        W39312   4.699  29.576   3.214
70983W        W39313  32.428  40.330  14.506
70984W        W39314   0.957  13.340   0.242
70985W        W39315  11.802   0.953   4.829
70986W        W39316  14.229  28.058   0.779
70987W        W39317  41.983  16.788   4.674
70988W        W39318  10.636  33.970   3.375
70989W        W39319  11.229  17.611   3.182
70990W        W39320   8.323  29.156  10.478
70991W        W39321  15.123  38.546  11.954
70992W        W39322  44.833  27.504  12.866
70993W        W39323  15.697  44.347   2.793
70994W        W39324  43.992  10.643   4.759
70995W        W39325  19.657  44.872   2.778
70996W        W39326  38.027  12.189   1.819
70997W        W39327  36.532   6.796   2.198
70998W        W39328   5.379   8.340   3.870
70999W        W39329   7.301  44.976  13.917
71000W        W39330   1.811   5.791  10.492
71001W        W39331  30.947  16.184   4.828
71002W        W39332  28.569  10.778  13.944
71003W        W39333   8.681  18.629  12.552
71004W        W39334  38.916  38.821  13.354
71005W        W39335  44.904  34.546   1.813
71006W        W39336  27.488   8.194  10.458
71007W        W39337   1.840  26.569   2.367
71008W        W39338  40.358   3.248  12.419
71009W        W39339   9.645  10.378   4.172
71010W        W39340  37.437  11.823  14.846
71011W        W39341  29.961  10.264  13.021
71012W        W39342  36.977  31.108  14.974
71013W        W39343  18.576   9.766  14.837
71014W        W39344   2.324  10.232  11.375
71015W        W39345  20.666  42.927  12.074
71016W        W39346  18.162  14.614  14.925
71017W        W39347  23.191   9.322  14.507
71018W        W39348  29.574   0.800   1.371
71019W        W39349  35.077  37.081  12.913
71020W        W39350  24.715  17.227   2.815
71021W        W39351  28.160  15.151  14.406
71022W        W39352  27.650   0.970   2.830
71023W        W39353  30.963  35.084   0.320
71024W        W39354  30.994  17.254  14.305
71025W        W39355  38.983  29.533  11.038
71026W        W39356   2.743  21.261   1.287
71027W        W39357  12.738  41.355  12.415
71028W        W39358  37.058  23.070   0.848
71029W        W39359  29.928   2.955   3.145
71030W        W39360  19.264  18.550   3.631
71031W        W39361   4.918  11.808  13.311
71032W        W39362  41.496  32.630  14.896
71033W        W39363  43.815  21.106   3.227
71034W        W39364  24.015  11.160  11.513
71035W        W39365  20.553  28.634   2.777
71036W        W39366   4.859  32.455  11.481
71037W        W39367  42.327  15.637  10.123
71038W        W39368  26.640  29.000  10.614
71039W        W39369  42.031   2.822   1.775
71040W        W39370   5.722  36.953   4.754
71041W        W39371   6.721  41.821   2.796
71042W        W39372  44.447  28.524   3.195
71043W        W39373  29.931   0.777   3.756
71044W        W39374  25.480  35.524   3.345
71045W        W39375  31.570  38.967  14.474
71046W        W39376  13.727   2.919  12.346
71047W        W39377  26.127   5.244  13.953
71048W        W39378  44.875  20.660   2.702
71049W        W39379   1.965   2.767   1.388
71050W        W39380  29.483  12.675  14.018
71051W        W39381  17.292  27.042   9.933
71052W        W39382   3.459  44.357  11.525
71053W        W39383   5.721   1.371   4.681
71054W        W39384   9.853  10.149  11.550
71055W        W39385  40.334   5.393  12.007
71056W        W39386  40.481   4.874   1.707
71057W        W39387   1.901  35.547   0.863
71058W        W39388  27.654  33.892  11.540
71059W        W39389   4.411   5.786  13.901
71060W        W39390  14.201  42.464  11.056
71061W        W39391   4.936  16.131  12.071
71062W        W39392  43.490  17.683  11.387
71063W        W39393  25.199   1.863  13.490
71064W        W39394  23.206   1.777  13.962
71065W        W39395  43.449  43.947   1.840
71066W        W39396  21.248  10.331   1.753
71067W        W39397  42.830   1.926  14.347
71068W        W39398  36.913   5.709  11.019
71069W        W39399  13.665  42.811  11.073
71070W        W39400  26.167  28.505   3.637
71071W        W39401  18.101  22.540  10.588
71072W        W39402  28.613  26.555   9.971
71073W        W39403  37.906  23.029  11.108
71074W        W39404   1.902   6.251   3.758
71075W        W39405  33.109  12.215  13.459
71076W        W39406  37.858  13.711  12.982
71077W        W39407  27.471  15.265   4.764
71078W        W39408  37.877   9.356   4.344
71079W        W39409   2.328  35.880   2.290
71080W        W39410   6.412  35.914   1.223
71081W        W39411  31.410  44.352  12.364
71082W        W39412  39.875  27.978   2.693
71083W        W39413  44.448  37.418  11.590
71084W        W39414   5.308  27.128  13.851
71085W        W39415  30.427  41.321  14.336
71086W        W39416  44.983  22.502   0.743
71087W        W39417  10.712  26.984  13.039
71088W        W39418   7.351  33.020  14.296
71089W        W39419   8.277  20.627  13.048
71090W        W39420   3.329  28.675  14.341
71091W        W39421  43.292  28.999  13.896
71092W        W39422  34.528  43.361  14.381
71093W        W39423  21.716   4.379   3.750
71094W        W39424  20.187  21.049  12.526
71095W        W39425   1.429  34.502   0.926
71096W        W39426   7.803  33.429  11.604
71097W        W39427  24.051  41.534  12.392
71098W        W39428  31.491  17.190   1.731
71099W        W39429  34.053  36.923  14.445
71100W        W39430  32.957   0.874  14.486
71101W        W39431  33.925  40.953  12.957
71102W        W39432  39.474   1.294  12.019
71103W        W39433  43.873   9.701   3.689
71104W        W39434   0.457   9.809  11.378
71105W        W39435   5.920  38.518   4.181
71106W        W39436  23.631  39.554   1.698
71107W        W39437   1.325  13.341  12.506
71108W        W39438  24.626   1.831   0.947
71109W        W39439  35.098  26.163  13.841
71110W        W39440   9.176  24.522   1.752
71111W        W39441  31.628  26.092  12.560
71112W        W39442  17.573  25.646   4.684
71113W        W39443   5.281  21.706  10.616
71114W        W39444   1.927  30.022  11.010
71115W        W39445  25.523  23.490   3.321
71116W        W39446  11.327  35.970  14.314
71117W        W39447  11.771  38.554   1.928
71118W        W39448  30.657  14.812   1.760
71119W        W39449  23.060  14.225   3.162
71120W        W39450  28.160  10.828   1.358
71121W        W39451   9.824  32.141  14.822
71122W        W39452  10.666  33.503   0.763
71123W        W39453   8.363   1.407   2.307
71124W        W39454  15.246  11.221   0.360
71125W        W39455  11.725  19.733   0.436
71126W        W39456  37.898  34.462   3.212
71127W        W39457  32.094   3.771   5.192
71128W        W39458  33.063   0.441  12.514
71129W        W39459   4.744  17.255  14.323
71130W        W39460   5.214  32.495   4.155
71131W        W39461  10.183   7.175  10.418
71132W        W39462  14.807   0.770  10.151
71133W        W39463  15.253  22.631   4.727
71134W        W39464  26.176  11.214   2.280
71135W        W39465  27.093  42.889   1.727
71136W        W39466  37.507   6.692   1.400
71137W        W39467  13.230  19.066  13.890
71138W        W39468  33.115  42.020   1.259
71139W        W39469   4.893   0.460  12.432
71140W        W39470  10.375  31.538   3.283
71141W        W39471  31.617  20.721   2.365
71142W        W39472  18.716  29.524  13.998
71143W        W39473   8.262  18.677   0.268
71144W        W39474  39.975  35.908   1.269
71145W        W39475  19.555  41.532  13.358
71146W        W39476  17.139  28.138  13.808
71147W        W39477   1.784   8.256  13.998
71148W        W39478  39.040  29.594   3.735
71149W        W39479  41.528  24.092  12.536
71150W        W39480   1.336   6.315   3.337
71151W        W39481  18.126  12.720   0.341
71152W        W39482  15.647  21.089   0.834
71153W        W39483  42.406  12.342  14.343
71154W        W39484  18.614  13.835  13.808
71155W        W39485   2.350  22.087   4.713
71156W        W39486  28.944  41.877   2.321
71157W        W39487   3.237  26.484   9.969
71158W        W39488  29.426  36.885  11.493
71159W        W39489   8.802  36.493   3.828
71160W        W39490  41.332  16.082  14.976
71161W        W39491  27.480  35.082  14.279
71162W        W39492  12.828  10.309   0.954
71163W        W39493  37.360   5.902   3.806
71164W        W39494  14.817  34.472   1.404
71165W        W39495  41.964   6.871   1.445
71166W        W39496  23.999  13.108  13.318
71167W        W39497   0.467  25.639  12.953
71168W        W39498   7.360   8.784  14.817
71169W        W39499   0.773   6.793  10.431
71170W        W39500  28.988  30.515  11.000
71171W        W39501  27.940  37.356  14.299
71172W        W39502  20.562  37.552   4.291
71173W        W39503  14.799   8.233  14.795
71174W        W39504  20.739   2.814  11.508
71175W        W39505  20.197  44.377  12.484
71176W        W39506   3.728  16.297  10.444
71177W        W39507   6.340   1.903   3.178
71178W        W39508  34.408   3.391  10.492
71179W        W39509  30.470   8.772   0.928
71180W        W39510   5.724  42.815   4.791
71181W        W39511  41.425  10.660   4.202
71182W        W39512  17.701  23.593  14.295
71183W        W39513   8.873   8.240   2.223
71184W        W39514   1.970  39.327  10.102
71185W        W39515  33.063  11.751   3.185
71186W        W39516   9.859  29.020  12.972
71187W        W39517  33.617  36.350   2.761
71188W        W39518  19.747  41.401  10.435
71189W        W39519  15.660  43.440  12.555
71190W        W39520  11.775  33.388   4.287
71191W        W39521  14.211  41.835   3.221
71192W        W39522  38.866  37.425   1.829
71193W        W39523   2.786  10.286   3.861
71194W        W39524  33.959  23.619   1.902
71195W        W39525   7.171  21.735  11.963
71196W        W39526  20.197   2.897  12.435
71197W        W39527  29.158   9.669  13.790
71198W        W39528  26.658  26.631  11.099
71199W        W39529   9.390  34.058  12.941
71200W        W39530  25.587  44.425   0.885
71201W        W39531  23.122  19.203   1.894
71202W        W39532   7.676  15.774   0.481
71203W        W39533   4.735  27.002   0.815
71204W        W39534   8.877  14.735   4.645
71205W        W39535  33.564   6.412   0.872
71206W        W39536   4.298  28.169  12.917
71207W        W39537  10.796  19.279   1.285
71208W        W39538  41.862  17.092  12.996
71209W        W39539  36.503   6.353   1.883
71210W        W39540  25.029   2.260   4.631
71211W        W39541  32.959   5.918  11.011
71212W        W39542  36.072  43.964   2.786
71213W        W39543  40.889  24.717  14.400
71214W        W39544  14.796  16.702   4.613
71215W        W39545  40.319  10.296  10.153
71216W        W39546  17.164  32.098   0.356
71217W        W39547  34.042  11.720  11.006
71218W        W39548  30.093  26.587   3.669
71219W        W39549   1.869   1.271   1.842
71220W        W39550   3.253  36.392   0.332
71221W        W39551  22.186  13.159   2.257
71222W        W39552   2.349  28.152   0.302
71223W        W39553  12.737  15.214  14.962
71224W        W39554  17.210  26.038   9.967
71225W        W39555   5.869  24.607  11.565
71226W        W39556  28.566  37.486   0.740
71227W        W39557  41.891  27.191   4.731
71228W        W39558  10.749  17.273   0.364
71229W        W39559  33.582  39.348  13.472
71230W        W39560   5.355  35.491  10.546
71231W        W39561   4.272  34.427  12.402
71232W        W39562   1.345  31.457   1.852
71233W        W39563  34.370  44.405   1.892
71234W        W39564  44.782  18.548  12.950
71235W        W39565  39.366  39.321   1.230
71236W        W39566  12.654  12.764  12.090
71237W        W39567  15.106  18.678   0.954
71238W        W39568   1.739  44.913   3.166
71239W        W39569  22.113  44.303  13.328
71240W        W39570  35.896  20.699  11.553
71241W        W39571  18.687  34.457  14.451
71242W        W39572  35.396   3.280   4.228
71243W        W39573   4.880   7.334   4.753
71244W        W39574  20.230   0.949   1.697
71245W        W39575  23.073  40.314  12.572
71246W        W39576  19.558  41.822   3.228
71247W        W39577  16.691  10.224   3.205
71248W        W39578  20.591  29.604   1.270
71249W        W39579  44.964  24.002  11.577
71250W        W39580  22.511  23.621   1.341
71251W        W39581  17.707  27.196  13.458
71252W        W39582  18.141  22.081   2.324
71253W        W39583  15.320  37.568   1.349
71254W        W39584  20.619   8.898   3.163
71255W        W39585  24.715  15.740   4.770
71256W        W39586  23.559  40.525  10.562
71257W        W39587   5.408  31.516   0.830
71258W        W39588  16.610   4.323  10.967
71259W        W39589   3.863  22.674   2.364
71260W        W39590  41.985   4.874  14.476
71261W        W39591  40.459   4.295   0.891
71262W        W39592  27.091  39.956   4.131
71263W        W39593  39.840  16.150  10.594
71264W        W39594  26.966  40.976   4.749
71265W        W39595  12.767  21.189   4.321
71266W        W39596   7.234  26.513   0.431
71267W        W39597  19.272   0.313   2.286
71268W        W39598  16.792  41.041  10.482
71269W        W39599   9.707  13.287   0.803
71270W        W39600  29.631  29.139   3.715
71271W        W39601  20.205  35.494   0.854
71272W        W39602   9.238  25.480   0.404
71273W        W39603   3.869  13.301   4.707
71274W        W39604  10.837   5.264  11.439
71275W        W39605  18.073  34.997   0.394
71276W        W39606   3.835  39.059   4.702
71277W        W39607  38.339  36.565   2.392
71278W        W39608  13.821  14.796   3.781
71279W        W39609  34.112   7.225   0.782
71280W        W39610  16.156  27.607   2.729
71281W        W39611  19.762  42.466  12.472
71282W        W39612  11.653  16.661   4.698
71283W        W39613  38.905  37.358  11.470
71284W        W39614  42.374   5.295   0.386
71285W        W39615  14.685  12.256  11.478
71286W        W39616  29.543  15.299   0.920
71287W        W39617  10.314  44.434   0.771
71288W        W39618  18.738  11.277  14.836
71289W        W39619  15.731  25.143  12.846
71290W        W39620  31.955  11.268  10.485
71291W        W39621  15.618   3.278  12.572
71292W        W39622  35.512  10.836   0.387
71293W        W39623   0.329   6.763  14.956
71294W        W39624   8.188  19.148  14.276
71295W        W39625  15.593  30.420   1.931
71296W        W39626  42.282  40.873   0.483
71297W        W39627  29.637  20.568   3.696
71298W        W39628  27.522   0.844  12.922
71299W        W39629  18.088  11.663   1.325
71300W        W39630  25.540   4.233   0.440
71301W        W39631   2.780   5.909  10.411
71302W        W39632  23.222  38.931  11.552
71303W        W39633   3.252  23.571   4.271
71304W        W39634   9.364  31.469  10.540
71305W        W39635  34.048   8.188   4.263
71306W        W39636  37.004   6.838   3.693
71307W        W39637  38.823  25.706  10.643
71308W        W39638  21.163  27.677   5.250
71309W        W39639  44.911  13.211   4.217
71310W        W39640   1.826   0.806   5.181
71311W        W39641  36.042  41.831  13.011
71312W        W39642  34.952  43.397  11.928
71313W        W39643  34.952  35.414  14.857
71314W        W39644  19.601   1.910   2.710
71315W        W39645  10.764  21.080  12.581
71316W        W39646  11.353  37.029   2.381
71317W        W39647  23.148  33.116  10.459
71318W        W39648  11.750  43.375   3.662
71319W        W39649  33.056  36.450   0.834
71320W        W39650   2.957   9.678   0.323
71321W        W39651  44.786  34.879  14.364
71322W        W39652  44.269  13.610  12.040
71323W        W39653  40.407   2.733  11.987
71324W        W39654  44.383  39.344  10.412
71325W        W39655  15.695  14.332   1.721
71326W        W39656  13.804   1.333   3.260
71327W        W39657  23.537  38.870  14.425
71328W        W39658   2.249   0.825   3.331
71329W        W39659   5.352  28.077   0.821
71330W        W39660  44.381  30.961   3.673
71331W        W39661   3.847  19.646   0.420
71332W        W39662   5.861  22.578   1.297
71333W        W39663  36.090  31.076   4.763
71334W        W39664   9.197  41.507  10.093
71335W        W39665   1.373  26.005  14.810
71336W        W39666  33.006   4.298   3.664
71337W        W39667  16.244  44.002   3.655
71338W        W39668  33.893  22.626  11.992
71339W        W39669  34.949  28.548   1.434
71340W        W39670   5.282   5.782  14.933
71341W        W39671   0.441  15.608   2.772
71342W        W39672  41.475  42.029  11.021
71343W        W39673   2.412  28.508   0.250
71344W        W39674  17.784  43.916   1.301
71345W        W39675   3.907  27.013  11.971
71346W        W39676  39.394   5.889  12.351
71347W        W39677  23.713  15.644  11.104
71348W        W39678  24.042  35.437  11.471
71349W        W39679  24.640   7.328   1.924
71350W        W39680  10.733  34.383   1.256
71351W        W39681  13.334  30.636   5.220
71352W        W39682   4.260  39.009   4.797
71353W        W39683   8.868  28.596  11.019
71354W        W39684  17.166  22.226  14.285
71355W        W39685   8.395  40.866  13.932
71356W        W39686  17.157  23.062  13.816
71357W        W39687  37.517  15.664   1.332
71358W        W39688   3.829  11.704  10.407
71359W        W39689  25.014  44.803  14.809
71360W        W39690  40.981   2.472   2.398
71361W        W39691  21.079   8.812  10.556
71362W        W39692   5.886  33.448  10.537
71363W        W39693  14.642  31.627   3.296
71364W        W39694  15.105  24.630  14.445
71365W        W39695   9.230  33.885  12.439
71366W        W39696  14.760   1.751  12.498
71367W        W39697  31.900   2.763  13.963
71368W        W39698  35.506  14.123  11.064
71369W        W39699  14.743   0.768   1.770
71370W        W39700  11.211  34.106   3.338
71371W        W39701  16.173  25.010   1.355
71372W        W39702  11.780  19.568  10.130
71373W        W39703  30.459  34.968   4.724
71374W        W39704  39.039  13.710   4.316
71375W        W39705  14.225  24.227  14.510
71376W        W39706  16.652  37.896  14.338
71377W        W39707  18.127  44.480   3.202
71378W        W39708   5.411  17.243  14.808
71379W        W39709  16.317  25.076   9.950
71380W        W39710  25.520  40.813  14.281
71381W        W39711  34.868  37.361  12.827
71382W        W39712  36.872  44.458  14.412
71383W        W39713   1.431  13.814  13.948
71384W        W39714  19.121  44.371   2.851
71385W        W39715  25.026   6.418   3.235
71386W        W39716   6.355   1.436   4.331
71387W        W39717   8.809  36.921  13.836
71388W        W39718  24.026   1.834  11.110
71389W        W39719   9.354  35.574   1.338
71390W        W39720  44.927   6.241   3.700
71391W        W39721  10.772  16.281  12.968
71392W        W39722  37.366  27.074   1.807
71393W        W39723  10.143   7.902   0.342
71394W        W39724   0.966  37.837   1.695
71395W        W39725  20.715  41.867  14.838
71396W        W39726   7.843  18.608  12.362
71397W        W39727  14.275  20.187  12.001
71398W        W39728  35.498  29.129   0.250
71399W        W39729  15.330  44.803  14.890
71400W        W39730  17.758  32.407   0.329
71401W        W39731  19.194  42.933  14.988
71402W        W39732   0.816  14.805   3.270
71403W        W39733  32.081   3.316  11.515
71404W        W39734  23.622  26.155  13.375
71405W        W39735  26.962  36.558  14.391
71406W        W39736  29.155  13.838   3.233
71407W        W39737   4.813  37.082  13.974
71408W        W39738   3.929  11.337  11.037
71409W        W39739  16.285  23.070   0.461
71410W        W39740   4.907   1.342   3.249
71411W        W39741  20.111  44.785  12.475
71412W        W39742  15.775   6.387   5.188
71413W        W39743  20.034  38.547   0.254
71414W        W39744  17.123   3.389   3.345
71415W        W39745  24.196  44.300  10.598
71416W        W39746  29.603  43.474  14.910
71417W        W39747  24.061   6.724  12.015
71418W        W39748  38.492   6.263  13.947
71419W        W39749  29.053   9.659  14.342
71420W        W39750   6.263  36.870  10.525
71421W        W39751   4.330  16.307   2.779
71422W        W39752  30.116  30.082  14.286
71423W        W39753  10.662  33.881  14.466
71424W        W39754  10.288  31.110  11.890
71425W        W39755  34.991   9.290  13.396
71426W        W39756  26.461  35.380  10.617
71427W        W39757  20.570  17.127   2.775
71428W        W39758  22.529   4.932  12.998
71429W        W39759  38.966  39.354  14.472
71430W        W39760   3.718  34.907  10.905
71431W        W39761  29.939  36.023  10.599
71432W        W39762  16.259   8.302  10.950
71433W        W39763  34.938  23.608   0.739
71434W        W39764   7.802  26.593   1.761
71435W        W39765  18.207  22.111  13.379
71436W        W39766   2.912  41.318   4.720
71437W        W39767  40.037  26.631  13.052
71438W        W39768   9.788  29.451  14.325
71439W        W39769   9.274  31.931  14.311
71440W        W39770  41.511   9.763  14.838
71441W        W39771  39.403  10.741   2.690
71442W        W39772   3.256  15.674  14.456
71443W        W39773  28.537  30.005   2.243
71444W        W39774  20.108  28.665  14.921
71445W        W39775  19.686  33.485   0.733
71446W        W39776   7.361   0.424  10.897
71447W        W39777  34.050  16.134   1.767
71448W        W39778  26.700  36.351   5.146
71449W        W39779  25.981  21.529   0.364
71450W        W39780  11.225  13.761  11.926
71451W        W39781  34.028  20.567   2.298
71452W        W39782  13.710  25.703   1.853
71453W        W39783  26.696   6.197  13.975
71454W        W39784   5.809  42.338  14.314
71455W        W39785  44.320  34.575   1.734
71456W        W39786  19.252  41.957  10.959
71457W        W39787   0.780   2.363  11.910
71458W        W39788  36.407  42.352   1.271
71459W        W39789  12.734  34.487   3.165
71460W        W39790  23.703  15.777  10.543
71461W        W39791  39.833   1.297   3.221
71462W        W39792  34.893  29.923   0.932
71463W        W39793  36.860  26.631  11.588
71464W        W39794  14.216  13.825   1.891
71465W        W39795  43.368  37.509  11.612
71466W        W39796  33.555  36.861   0.441
71467W        W39797  33.117  31.595   4.120
71468W        W39798  14.733  24.993   0.894
71469W        W39799  42.008  21.570   4.164
71470W        W39800  17.590  41.469   2.213
71471W        W39801  22.554  20.653  11.029
71472W        W39802  43.269  17.193   4.114
71473W        W39803  34.502   5.361  13.444
71474W        W39804  44.381   0.298  14.791
71475W        W39805  17.135   1.758   1.807
71476W        W39806  20.687  41.341  12.043
71477W        W39807   1.343  25.530  13.823
71478W        W39808   5.363   0.788  11.891
71479W        W39809  38.554  27.079  10.622
71480W        W39810  34.517  22.717  11.488
71481W        W39811  36.894  41.872   4.606
71482W        W39812  38.474  38.366  13.514
71483W        W39813  23.994   0.860   1.855
71484W        W39814  18.630  23.042  11.580
71485W        W39815  43.873   5.896  13.049
71486W        W39816   5.408   9.815   1.321
71487W        W39817  28.957  35.939   0.284
71488W        W39818  34.466  32.126   2.812
71489W        W39819   3.345  38.403   0.441
71490W        W39820   9.726  14.606  11.962
71491W        W39821  29.427   4.859  14.281
71492W        W39822  18.069  35.515  11.963
71493W        W39823  27.154   3.846  12.580
71494W        W39824  42.404  35.439   0.772
71495W        W39825  15.235  31.503  13.330
71496W        W39826   9.195  10.228  11.414
71497W        W39827  40.054  15.729  10.157
71498W        W39828  17.172  20.219  10.487
71499W        W39829  30.652  21.570   1.847
71500W        W39830   4.326  40.003  12.375
71501W        W39831  20.688   4.727   3.631
71502W        W39832  17.218  31.152  11.378
71503W        W39833  18.050  36.037  13.924
71504W        W39834   7.177  44.365   1.440
71505W        W39835  16.151  23.021  13.819
71506W        W39836  13.217  43.804  12.921
71507W        W39837   6.807  40.433  12.080
71508W        W39838  32.600  23.704   3.665
71509W        W39839  37.929  37.937   4.248
71510W        W39840  25.476  15.129   0.247
71511W        W39841  22.686  29.534   0.459
71512W        W39842   2.375   6.281   2.299
71513W        W39843   9.686   0.926  13.435
71514W        W39844  30.627  17.772  11.488
71515W        W39845  13.788  34.580   3.798
71516W        W39846  19.682  38.477   1.240
71517W        W39847   0.262  40.403   1.930
71518W        W39848  18.181   2.796  10.633
71519W        W39849  12.124   6.803  11.402
71520W        W39850  16.758  29.136   1.817
71521W        W39851  34.538  26.090   3.331
71522W        W39852   6.827   4.743   3.355
71523W        W39853  22.119  41.317  13.307
71524W        W39854  37.937  42.016   0.866
71525W        W39855  33.542   0.956  13.843
71526W        W39856  43.843  42.453  13.429
71527W        W39857  34.451  32.138   1.922
71528W        W39858   9.306  16.760   3.241
71529W        W39859   5.285   2.793  13.544
71530W        W39860   0.779  32.433   2.762
71531W        W39861  13.732  39.961  13.988
71532W        W39862  37.873  14.620  13.997
71533W        W39863  21.593   5.802  14.858
71534W        W39864  25.689   8.732  13.463
71535W        W39865  27.187  29.512   2.765
71536W        W39866   6.842  21.236   0.452
71537W        W39867  39.483  28.038  12.417
71538W        W39868   6.310   3.437  14.779
71539W        W39869  23.043  14.659  13.930
71540W        W39870   0.485  29.990  12.469
71541W        W39871   2.230  35.084  11.967
71542W        W39872  31.106   2.838   0.779
71543W        W39873  15.100  15.184   2.706
71544W        W39874  28.059  28.132   1.351
71545W        W39875  11.635  16.648  13.949
71546W        W39876  26.573   2.360   3.641
71547W        W39877  35.410  18.206   1.786
71548W        W39878  43.860   9.174   1.296
71549W        W39879   4.737  34.599  13.849
71550W        W39880   3.948  10.871   2.379
71551W        W39881  18.592  15.130  11.110
71552W        W39882  30.986   6.377   4.673
71553W        W39883  35.482  15.797  11.003
71554W        W39884  30.957   6.905   1.793
71555W        W39885   9.291  39.019   4.654
71556W        W39886   5.921  44.294   1.875
71557W        W39887  26.168  28.612  10.570
71558W        W39888  18.772  22.745   3.738
71559W        W39889  35.512  18.679   2.886
71560W        W39890   4.424  34.080   0.803
71561W        W39891  16.152  11.706   4.303
71562W        W39892  38.995  33.607  12.095
71563W        W39893  23.194  22.606  14.372
71564W        W39894   0.364  14.788  13.983
71565W        W39895  28.524  16.605  14.468
71566W        W39896  38.947   3.415   4.262
71567W        W39897  43.007   3.442   3.746
71568W        W39898  21.577  21.197   4.306
71569W        W39899  42.358  39.912   0.929
71570W        W39900  18.647  29.597  11.480
71571W        W39901   3.258  35.109  13.937
71572W        W39902  36.874  33.456  14.467
71573W        W39903  23.132  21.615   3.842
71574W        W39904  38.399  18.071   3.643
71575W        W39905  39.892  29.577   4.272
71576W        W39906  37.953   2.348   3.871
71577W        W39907   4.904  29.934   1.389
71578W        W39908  35.526   4.862  12.021
71579W        W39909   6.714  34.917  12.009
71580W        W39910   6.676  29.013   3.786
71581W        W39911   3.330  34.915  13.028
71582W        W39912   3.840  34.052  10.890
71583W        W39913  31.106  23.526   3.805
71584W        W39914   4.902  20.150   4.809
71585W        W39915   3.268  30.986  10.643
71586W        W39916  18.199  29.632   0.453
71587W        W39917  20.557   5.743  13.449
71588W        W39918   2.927  35.961   0.856
71589W        W39919  40.939  24.056   1.925
71590W        W39920  35.921  31.500   2.835
71591W        W39921  24.697  25.969   2.205
71592W        W39922  12.360   9.721   3.734
71593W        W39923  38.922  44.824  13.965
71594W        W39924  21.748  11.635   0.794
71595W        W39925  10.788  13.626  12.067
71596W        W39926   8.324  43.495   0.311
71597W        W39927  41.833  14.340   0.847
71598W        W39928   1.408  32.934   4.232
71599W        W39929  41.859  41.343   4.314
71600W        W39930  18.776  24.009   3.380
71601W        W39931  28.486   4.395  11.896
71602W        W39932  15.714  21.064  13.399
71603W        W39933   1.378  13.171   3.358
71604W        W39934  10.660  19.094   1.697
71605W        W39935   3.276  35.924   5.181
71606W        W39936  37.373   7.882  11.906
71607W        W39937  37.883   5.221   0.453
71608W        W39938  36.048   0.766  14.025
71609W        W39939  16.772  40.386  12.362
71610W        W39940  27.629  31.014   3.820
71611W        W39941  10.279   4.260   4.716
71612W        W39942   5.306   6.875  11.944
71613W        W39943  10.859  31.574  13.792
71614W        W39944  12.283  29.127   0.922
71615W        W39945   7.749  32.553  12.891
71616W        W39946   9.714   0.795   3.649
71617W        W39947   3.388  25.153   0.951
71618W        W39948  23.050  20.706   1.405
71619W        W39949  36.959  40.014  14.297
71620W        W39950  25.535  21.176  10.039
71621W        W39951   4.809  20.040  12.028
71622W        W39952  15.218   5.203   3.322
71623W        W39953  13.720  37.037   0.344
71624W        W39954   7.797  40.488   9.946
71625W        W39955   2.226  39.526   3.307
71626W        W39956  39.878  22.615  10.587
71627W        W39957  18.223  13.614   3.807
71628W        W39958   2.268  28.503  11.008
71629W        W39959  38.005  42.319  13.802
71630W        W39960   0.828   8.341   1.866
71631W        W39961  26.622  11.839  13.963
71632W        W39962  19.771   3.223  11.963
71633W        W39963  24.071   9.750  13.425
71634W        W39964  40.894  41.488   3.167
71635W        W39965   6.795   1.835  12.449
71636W        W39966   9.272   2.936   1.344
71637W        W39967   1.382  27.593  12.094
71638W        W39968  43.387  29.440   0.461
71639W        W39969  42.884  23.733  14.391
71640W        W39970  19.132   1.968   4.266
71641W        W39971  18.136  38.869   0.895
71642W        W39972  37.509  39.364  10.990
71643W        W39973  25.507   8.268   3.318
71644W        W39974  36.045  26.186  12.537
71645W        W39975  25.021  37.535  10.955
71646W        W39976  32.490  16.081   2.862
71647W        W39977  44.404  15.231   3.301
71648W        W39978  30.980  33.995   2.890
71649W        W39979  12.844  22.523   2.337
71650W        W39980  25.557  10.371  11.000
71651W        W39981  26.569  29.072   0.792
71652W        W39982  26.157  21.235  13.824
71653W        W39983  15.697  22.201   2.366
71654W        W39984   3.743  17.103  13.867
71655W        W39985   2.769  26.643  13.313
71656W        W39986   6.742   4.934  12.992
71657W        W39987  42.375   2.247  11.018
71658W        W39988  11.643  26.961  12.404
71659W        W39989  31.489  30.056  12.545
71660W        W39990  15.211  38.399   1.299
71661W        W39991  15.137  38.069   0.295
71662W        W39992  29.650   0.847   5.127
71663W        W39993  41.409  31.905   3.247
71664W        W39994   7.820  14.338   1.424
71665W        W39995  42.986   3.260  10.440
71666W        W39996  36.957  26.194   4.139
71667W        W39997  15.765  39.968  12.529
71668W        W39998   1.875  40.427  11.493
71669W        W39999  18.205  24.030   4.836
71670W        W40000  11.827  43.774   4.658
71671W        W40001  38.952  16.248   0.900
71672W        W40002  36.450  13.261  11.515
71673W        W40003  41.481  32.524  12.495
71674W        W40004  42.527  41.320  14.510
71675W        W40005  25.011  17.060  12.371
71676W        W40006  19.704  23.516   4.183
71677W        W40007   0.443  11.244  12.024
71678W        W40008  31.146   2.887  11.876
71679W        W40009  28.053   3.335  12.933
71680W        W40010  43.347  20.612  13.368
71681W        W40011  43.896  27.475   0.735
71682W        W40012   7.190  27.482   0.389
71683W        W40013  11.656  19.768   3.777
71684W        W40014   3.320  22.581  13.889
71685W        W40015  25.509   1.965  11.024
71686W        W40016  33.908  24.611   0.905
71687W        W40017  24.196  31.424   3.151
71688W        W40018   7.698  10.158   0.772
71689W        W40019  44.891   1.734   2.283
71690W        W40020  25.552  18.094   4.264
71691W        W40021  25.714  33.067  14.462
71692W        W40022  18.725  20.151   2.225
71693W        W40023  28.044  16.783  12.978
71694W        W40024  12.168  13.702   4.666
71695W        W40025   7.837  33.070  12.351
71696W        W40026  41.824  31.582  13.521
71697W        W40027  42.008  29.961   1.294
71698W        W40028  34.436  42.286  14.432
71699W        W40029  33.525  21.018   4.689
71700W        W40030  30.607  15.658  14.505
71701W        W40031  44.312  22.654   4.223
71702W        W40032  27.684  26.967   0.444
71703W        W40033  43.429  27.630  13.536
71704W        W40034  33.124  16.777  14.827
71705W        W40035   5.822  15.133   1.406
71706W        W40036   0.750  34.978  12.999
71707W        W40037   5.376  20.531  14.840
71708W        W40038   7.686  20.135  14.962
71709W        W40039  31.604  13.753  11.857
71710W        W40040   0.257  27.146  12.072
71711W        W40041  18.774   0.861  11.496
71712W        W40042   5.906  25.483  14.850
71713W        W40043   5.907   6.768  13.888
71714W        W40044  14.761  32.895  12.417
71715W        W40045  20.718   5.327  10.429
71716W        W40046   8.825  36.888   2.863
71717W        W40047  36.419   3.357   1.344
71718W        W40048  24.535  44.958  13.807
71719W        W40049  21.215  25.473  14.438
71720W        W40050  39.961   2.753  14.795
71721W        W40051  26.147  23.225   4.659
71722W        W40052  31.036  31.587   0.732
71723W        W40053   4.771   4.293   2.261
71724W        W40054   5.912  43.914  13.387
71725W        W40055   3.773  33.531   1.233
71726W        W40056  37.884   4.720  14.288
71727W        W40057   7.814  43.998   3.192
71728W        W40058  20.555  17.742  11.086
71729W        W40059   0.767  25.679  12.406
71730W        W40060  24.564  35.954  13.917
71731W        W40061  12.725  10.354   4.760
71732W        W40062   1.747  40.344  14.380
71733W        W40063  30.123  29.669  12.450
71734W        W40064  18.714   0.747   3.257
71735W        W40065   1.937  39.048  13.441
71736W        W40066  24.195  11.859   1.879
71737W        W40067  30.433  17.718   0.290
71738W        W40068  17.745  32.982  12.546
71739W        W40069  21.757   9.236  12.957
71740W        W40070  33.516   1.468   0.909
71741W        W40071  40.524  37.556  14.767
71742W        W40072  25.624  27.094   1.246
71743W        W40073  28.637  13.245   1.288
71744W        W40074  41.386   0.809  14.899
71745W        W40075  14.697   2.799  13.335
71746W        W40076  10.171   6.861  11.531
71747W        W40077  32.411  20.126  14.999
71748W        W40078  21.139   6.872   0.260
71749W        W40079  15.714  21.189   3.257
71750W        W40080  33.092   1.924   3.712
71751W        W40081  27.079  17.284  12.352
71752W        W40082   0.343  28.005  14.926
71753W        W40083  17.087  14.202  10.437
71754W        W40084  36.865  20.675   1.830
71755W        W40085  40.882  23.567   1.886
71756W        W40086   6.821   9.839   0.746
71757W        W40087  34.119  26.660   0.372
71758W        W40088  25.470   4.415   1.876
71759W        W40089   8.862   8.782   2.209
71760W        W40090   4.769  39.536   0.429
71761W        W40091   5.913   7.759  14.785
71762W        W40092  35.455   7.349   2.315
71763W        W40093  40.445  32.032  11.092
71764W        W40094  20.758  27.012  13.899
71765W        W40095  34.437  42.998   0.375
71766W        W40096  14.650  16.146  13.462
71767W        W40097  40.363  40.411   3.379
71768W        W40098  26.014  36.457   0.399
71769W        W40099  20.269  32.090   4.687
71770W        W40100  30.619  44.490   0.402
71771W        W40101  24.999  28.966  12.038
71772W        W40102  38.070  37.062   4.770
71773W        W40103  39.554  10.771  14.504
71774W        W40104  37.432  43.477   1.398
71775W        W40105   6.237  15.324   9.924
71776W        W40106  37.890  16.123   0.799
71777W        W40107  35.039   6.821  13.344
71778W        W40108  39.051  15.738   1.817
71779W        W40109  19.695   8.697   0.933
71780W        W40110  40.374  21.141  14.899
71781W        W40111  26.983  29.079   1.233
71782W        W40112   0.977  42.428  10.921
71783W        W40113   1.926  36.420  11.511
71784W        W40114  31.081  30.494  12.476
71785W        W40115  18.075  14.175   3.232
71786W        W40116   7.711   6.336   3.328
71787W        W40117  33.427  42.975  13.472
71788W        W40118   4.367  35.522  14.000
71789W        W40119  17.164  17.801  14.884
71790W        W40120  10.749  20.642   4.704
71791W        W40121  27.502  17.196  13.811
71792W        W40122  23.496  18.150  13.930
71793W        W40123   7.738  17.193   1.755
71794W        W40124   7.246   2.235  12.404
71795W        W40125  18.592  21.185   3.652
71796W        W40126   1.966  33.516  13.853
71797W        W40127   4.284  25.138  10.989
71798W        W40128  32.106  40.038  13.032
71799W        W40129  25.056  19.120   1.747
71800W        W40130  37.341  32.890  12.557
71801W        W40131  44.345   7.909  11.428
71802W        W40132  16.767   8.265   3.639
71803W        W40133  39.381  43.958  12.969
71804W        W40134  30.965  30.513  13.339
71805W        W40135  43.882   9.184   4.602
71806W        W40136  37.447  35.855  13.482
71807W        W40137  16.737  40.844  12.396
71808W        W40138  39.339   5.421   9.561
71809W        W40139  38.955  39.031   0.478
71810W        W40140  35.531  38.859   3.731
71811W        W40141  44.343  36.399   4.229
71812W        W40142  23.205   9.186  12.567
71813W        W40143   7.861  19.654   4.602
71814W        W40144  14.683  17.662  12.394
71815W        W40145   1.953  41.533  10.904
71816W        W40146  24.153   9.722   1.319
71817W        W40147  42.376  13.321  10.559
71818W        W40148  23.022  12.224   4.712
71819W        W40149  28.607  26.499   1.371
71820W        W40150  11.263  30.944   3.186
71821W        W40151  19.240  33.622  12.946
71822W        W40152   4.857  11.751  14.805
71823W        W40153  41.034   1.246   3.699
71824W        W40154  30.537  33.908  13.389
71825W        W40155  12.180  14.207  10.530
71826W        W40156  16.311  27.561  10.531
71827W        W40157  35.467  43.898  11.551
71828W        W40158  40.849   6.216  13.831
71829W        W40159  30.583  11.801  12.515
71830W        W40160  32.565  18.590  14.920
71831W        W40161  13.802  37.077   2.778
71832W        W40162  17.569  13.723   0.743
71833W        W40163   8.320  16.227   3.687
71834W        W40164  24.105   5.786   3.792
71835W        W40165  26.556  38.980  12.987
71836W        W40166   0.355  41.934   1.705
71837W        W40167  18.294  44.368  11.373
71838W        W40168   9.280  21.027   1.884
71839W        W40169  36.941  25.666   2.874
71840W        W40170  27.136  31.944  13.465
71841W        W40171   1.759  42.476  12.001
71842W        W40172  23.506  25.551   2.307
71843W        W40173  39.926  32.920   3.743
71844W        W40174  12.120  38.478  11.421
71845W        W40175  16.191   3.859  12.351
71846W        W40176  27.197  34.390   4.203
71847W        W40177  43.369  41.382   5.100
71848W        W40178  25.039  37.354   5.257
71849W        W40179  22.042  28.561   5.203
71850W        W40180   1.930  38.057  14.823
71851W        W40181   7.775   1.302   2.831
71852W        W40182  11.289  43.423   4.221
71853W        W40183  22.577  43.452   0.366
71854W        W40184   6.687  16.287  14.960
71855W        W40185  26.459  28.957   0.243
71856W        W40186  38.973  17.286  10.910
71857W        W40187  15.581  20.208   2.782
71858W        W40188  17.640  22.231   2.361
71859W        W40189  21.194  21.203  12.407
71860W        W40190   9.788  26.172   0.880
71861W        W40191   0.335  36.586  14.869
71862W        W40192  33.958  24.160  11.952
71863W        W40193  44.800  25.193   0.953
71864W        W40194  24.105  39.532  13.493
71865W        W40195   7.374  39.026  11.971
71866W        W40196  14.777  24.643  12.880
71867W        W40197  42.294  26.067   3.271
71868W        W40198   8.741  22.535   5.081
71869W        W40199  40.409  37.035  12.889
71870W        W40200  40.872  28.599  14.816
71871W        W40201   9.650  19.168  10.617
71872W        W40202  43.460  35.043   4.733
71873W        W40203  15.673  11.721  13.461
71874W        W40204  13.131  28.438   3.821
71875W        W40205  22.063  15.248   4.703
71876W        W40206  14.627  18.289   0.408
71877W        W40207   8.217  32.572  14.307
71878W        W40208  10.758   0.399  12.823
71879W        W40209  37.953  23.091   4.135
71880W        W40210  10.686  42.365  13.380
71881W        W40211   2.318  33.959   0.361
71882W        W40212   1.285  31.490   1.327
71883W        W40213  13.273  15.215   1.797
71884W        W40214  19.678  17.091   0.417
71885W        W40215  10.713  11.847   2.662
71886W        W40216  25.558  36.542   0.480
71887W        W40217  40.339  42.019   2.190
71888W        W40218  36.872  14.621   4.294
71889W        W40219  26.168  32.588  14.885
71890W        W40220  39.063   7.788  11.010
71891W        W40221  27.638   3.907   0.482
71892W        W40222  15.652  32.430   1.353
71893W        W40223  14.661  32.510   0.294
71894W        W40224  12.197  22.573  13.390
71895W        W40225   0.251  42.782  10.902
71896W        W40226  28.138  22.625   2.725
71897W        W40227  14.782  14.327   4.631
71898W        W40228  28.623  30.655  13.956
71899W        W40229  38.945  15.172  13.054
71900W        W40230  16.087  21.245   0.252
71901W        W40231  27.550  13.602   0.742
71902W        W40232  28.101  22.055  12.876
71903W        W40233  11.778   3.337  14.304
71904W        W40234  13.681  10.243   0.787
71905W        W40235  17.580  31.059  13.824
71906W        W40236   4.830  32.103   2.384
71907W        W40237   1.274  31.148   0.955
71908W        W40238   8.288   3.303  10.476
71909W        W40239  27.101  24.504   1.746
71910W        W40240  30.007   6.731   0.447
71911W        W40241   7.202  11.284  13.009
71912W        W40242  27.083  24.563   0.738
71913W        W40243   0.986  21.611   2.734
71914W        W40244   7.684  11.316  11.592
71915W        W40245  15.157  36.530  14.420
71916W        W40246  30.466  37.974   2.900
71917W        W40247  33.883  32.438   2.365
71918W        W40248   6.338  44.801   1.812
71919W        W40249  10.170  39.468  12.028
71920W        W40250  13.194  39.545   3.160
71921W        W40251  27.625  14.251   5.101
71922W        W40252  40.889  37.580  11.040
71923W        W40253  10.779  12.119   2.752
71924W        W40254  40.532  39.359  13.827
71925W        W40255   6.843  27.036  10.619
71926W        W40256   2.385  27.619  10.591
71927W        W40257  38.961  44.351   4.651
71928W        W40258  38.023  14.647   0.392
71929W        W40259  35.578  14.731   4.700
71930W        W40260  21.226  27.981   5.693
71931W        W40261  16.281  20.652   4.715
71932W        W40262  29.612  33.125   0.370
71933W        W40263  44.002  30.445   0.849
71934W        W40264   0.457  21.660   1.371
71935W        W40265  18.724  30.968   1.784
71936W        W40266  39.557  10.207  12.965
71937W        W40267   0.285  35.883  12.522
71938W        W40268   4.916  36.991  13.414
71939W        W40269  12.623  28.482   2.803
71940W        W40270  44.861  17.639   4.747
71941W        W40271  20.642   7.359  13.866
71942W        W40272  17.577   0.482  14.391
71943W        W40273  42.432   9.798   2.179
71944W        W40274  15.157  18.661  12.898
71945W        W40275  36.047  38.377  13.523
71946W        W40276   6.296  36.953  14.984
71947W        W40277  44.439  43.834   0.940
71948W        W40278  24.037   7.360  13.030
71949W        W40279  10.698  19.188   2.671
71950W        W40280  16.726  15.314   4.244
71951W        W40281  13.788   2.870  14.915
71952W        W40282   1.406  22.501   2.839
71953W        W40283   6.197  18.125  11.099
71954W        W40284  13.256  12.719   3.797
71955W        W40285   1.911  40.516  12.827
71956W        W40286   8.301   5.346   2.887
71957W        W40287  10.199  11.850   4.678
71958W        W40288  22.674   2.240   0.736
71959W        W40289  37.405  31.927  10.410
71960W        W40290  28.586  28.637   0.429
71961W        W40291  41.020  42.401   2.208
71962W        W40292  11.219  26.663  10.979
71963W        W40293  27.550  39.032   3.723
71964W        W40294   8.369  14.193  10.919
71965W        W40295   8.816  37.582  11.041
71966W        W40296  26.478   5.929   4.764
71967W        W40297  31.501  26.533   2.248
71968W        W40298  41.385  11.344  10.619
71969W        W40299  24.681  27.548   1.242
71970W        W40300  23.702  22.245  13.880
71971W        W40301   4.358  30.096   0.902
71972W        W40302  25.158  35.000  13.883
71973W        W40303  24.997  33.015   0.336
71974W        W40304  24.077  10.819   1.880
71975W        W40305  14.651   1.436   0.845
71976W        W40306   7.852  20.678  14.000
71977W        W40307  13.805   3.461  10.925
71978W        W40308  22.082  10.832  14.462
71979W        W40309   8.806   0.847   5.250
71980W        W40310  36.488  44.342  11.995
71981W        W40311   0.288   8.226  12.453
71982W        W40312  34.999  14.183   2.380
71983W        W40313  42.366  44.383  12.981
71984W        W40314  37.495  15.690  11.385
71985W        W40315  28.137  42.993   0.744
71986W        W40316  42.009   5.824  10.521
71987W        W40317  26.690  26.082   1.731
71988W        W40318   0.940  43.389  11.129
71989W        W40319  35.925   3.797   1.704
71990W        W40320   9.872   3.245   1.275
71991W        W40321  42.889  21.029  14.498
71992W        W40322  21.135   6.881   2.360
71993W        W40323  18.764  25.030   3.756
71994W        W40324  17.069  12.628  14.798
71995W        W40325  12.274  39.831  12.933
71996W        W40326  18.745  13.278   4.753
71997W        W40327  13.241  39.042   5.171
71998W        W40328  44.474   4.787   0.406
71999W        W40329  11.621  26.569   0.774
72000W        W40330  32.595  39.364   4.829
72001W        W40331  44.918  20.142  14.439
72002W        W40332  25.511  27.613  10.469
72003W        W40333  11.271  34.906   1.737
72004W        W40334  39.887  36.014  13.365
72005W        W40335  23.134  11.294   1.766
72006W        W40336   4.847   7.818  14.344
72007W        W40337   8.261  34.887   0.267
72008W        W40338  24.077   1.303   2.393
72009W        W40339  28.554  36.474   1.404
72010W        W40340  13.728   4.882   1.932
72011W        W40341  21.668   8.791   3.244
72012W        W40342  17.775  28.143   4.147
72013W        W40343   1.739   5.342   1.232
72014W        W40344  17.600   1.860  14.435
72015W        W40345  31.534  18.119  12.385
72016W        W40346  34.550  27.633  11.384
72017W        W40347   5.755  19.246   2.810
72018W        W40348   4.247  42.470  13.419
72019W        W40349  44.007   0.877  10.523
72020W        W40350  14.634   0.369   3.747
72021W        W40351   1.342   9.175  10.417
72022W        W40352  40.492  35.957   0.358
72023W        W40353  11.637   7.231   5.144
72024W        W40354  26.570  28.441   3.765
72025W        W40355  33.999  24.225   3.209
72026W        W40356  26.070  39.506  12.435
72027W        W40357  11.157  24.503  11.380
72028W        W40358  13.169   6.422   2.901
72029W        W40359  27.607   6.776   1.362
72030W        W40360   2.445  15.173   4.229
72031W        W40361   4.857  28.133  12.349
72032W        W40362  25.129   7.410   2.850
72033W        W40363  33.997  36.869  10.483
72034W        W40364   5.886   0.282   1.449
72035W        W40365   7.771  20.727   0.820
72036W        W40366  36.068  28.087  12.850
72037W        W40367  11.666  14.704  12.422
72038W        W40368  22.087  36.348   3.747
72039W        W40369  10.772  40.988   0.282
72040W        W40370   4.756  13.601   2.817
72041W        W40371  13.329  34.384  11.539
72042W        W40372  38.479  39.946  14.787
72043W        W40373  43.956  38.341  14.949
72044W        W40374   1.475  27.639   4.124
72045W        W40375   1.732  14.696   1.381
72046W        W40376  18.739  22.998   0.385
72047W        W40377   0.285   3.946  12.919
72048W        W40378  26.462   1.469  14.893
72049W        W40379  39.453  10.142   3.637
72050W        W40380  41.503  28.971   2.229
72051W        W40381  33.930   1.411   4.838
72052W        W40382  11.795  22.594  12.404
72053W        W40383  18.188  16.684   0.932
72054W        W40384  17.103  16.714   2.857
72055W        W40385  24.585  11.740  11.058
72056W        W40386   7.198  26.573   2.742
72057W        W40387  15.807   1.803  11.864
72058W        W40388   6.845  39.397  13.063
72059W        W40389  18.579   6.368   0.798
72060W        W40390  33.558   3.377   4.662
72061W        W40391  41.379  36.373  11.507
72062W        W40392   2.410  25.001   2.225
72063W        W40393  17.656   5.858  10.429
72064W        W40394  22.223  30.437  12.569
72065W        W40395   4.742  41.819  11.987
72066W        W40396  28.634   8.882  13.398
72067W        W40397   8.234  25.211  12.573
72068W        W40398  27.954  24.190  13.436
72069W        W40399   5.866  10.752  12.973
72070W        W40400   6.821  27.153   1.900
72071W        W40401   9.155  17.294   4.665
72072W        W40402   5.894  33.494  11.951
72073W        W40403  33.006  29.432  12.029
72074W        W40404  42.415   7.260   1.425
72075W        W40405   6.338   8.179  11.922
72076W        W40406  11.256  10.645  10.491
72077W        W40407  10.822   6.367  12.374
72078W        W40408   9.673  36.905   3.678
72079W        W40409  22.192   4.794  11.468
72080W        W40410  19.542  26.030  14.507
72081W        W40411   2.954  25.124   1.378
72082W        W40412   6.256  42.805  13.548
72083W        W40413  37.424   6.355   0.318
72084W        W40414  27.963  12.269   2.684
72085W        W40415  17.151  42.309   4.339
72086W        W40416   7.408  37.415   3.796
72087W        W40417  34.876  22.629  12.423
72088W        W40418  43.390   7.389  12.535
72089W        W40419  13.182  18.059   4.203
72090W        W40420  10.764  41.957   0.265
72091W        W40421  28.527  19.715  10.984
72092W        W40422  35.876  23.236   2.205
72093W        W40423  32.479  44.780  14.444
72094W        W40424  22.631  21.072  10.030
72095W        W40425   8.347  29.042  14.420
72096W        W40426   6.319  32.590  13.323
72097W        W40427  27.158  18.756   3.775
72098W        W40428  36.033  41.511   1.414
72099W        W40429  34.093  44.870   4.698
72100W        W40430  14.194  11.242   2.811
72101W        W40431  43.461   1.875  13.877
72102W        W40432  44.363  42.881   3.349
72103W        W40433   5.434  42.417  13.923
72104W        W40434  13.218  14.636   3.631
72105W        W40435  38.021  17.706  14.931
72106W        W40436  24.084  26.554  13.374
72107W        W40437  36.466   8.666  11.491
72108W        W40438  29.578  17.064  14.764
72109W        W40439  41.892  13.641  12.973
72110W        W40440  24.165  31.147   0.462
72111W        W40441  23.522   4.723  11.856
72112W        W40442  11.218   0.260   2.317
72113W        W40443  22.663  31.464  14.422
72114W        W40444  18.746  16.720  10.589
72115W        W40445  32.545  41.875  13.927
72116W        W40446  22.020  37.961  11.070
72117W        W40447  43.391  30.472  10.526
72118W        W40448   4.882   1.282  11.483
72119W        W40449  22.590  32.441  13.935
72120W        W40450  18.544  36.003  10.461
72121W        W40451  23.710  12.792  14.332
72122W        W40452  44.476  21.033  14.428
72123W        W40453   6.294  42.296  11.400
72124W        W40454   2.832   8.880   4.276
72125W        W40455  25.505  35.895  11.487
72126W        W40456  22.710  14.811   1.852
72127W        W40457   3.427  26.964  11.097
72128W        W40458  24.009   9.727   1.749
72129W        W40459  44.844  23.206   1.428
72130W        W40460  21.672  35.883   3.792
72131W        W40461  27.494  42.958   0.883
72132W        W40462  36.588  17.790   1.265
72133W        W40463  44.267  28.669   4.182
72134W        W40464  19.779  17.199  14.788
72135W        W40465  14.249  25.181   1.291
72136W        W40466  40.340   3.926   0.403
72137W        W40467  35.068  28.647  14.462
72138W        W40468  22.578   3.267   1.773
72139W        W40469  21.713  30.582  13.004
72140W        W40470  33.112  17.685  13.501
72141W        W40471  10.322  24.201   0.946
72142W        W40472  12.647  31.542   4.755
72143W        W40473  35.091  31.440   4.736
72144W        W40474  24.577  34.007  10.577
72145W        W40475  24.651   3.767  13.400
72146W        W40476  10.798  20.234   0.833
72147W        W40477  14.607  17.612  11.558
72148W        W40478  36.931  28.518  12.873
72149W        W40479  23.126  16.259  14.936
72150W        W40480  20.115   6.923   0.733
72151W        W40481  24.519   1.345  10.894
72152W        W40482  27.651  12.616  10.543
72153W        W40483  41.385  34.044   0.865
72154W        W40484  43.363  44.765   1.910
72155W        W40485  30.043   3.432   0.748
72156W        W40486  33.523  24.555  14.501
72157W        W40487  33.960  14.669  11.992
72158W        W40488  36.927   7.690   2.686
72159W        W40489   1.251  42.286  11.996
72160W        W40490  38.537  24.535   2.824
72161W        W40491   2.349  43.389   0.263
72162W        W40492  18.654  34.935   0.457
72163W        W40493  37.542  40.387  12.856
72164W        W40494  10.752  25.593  11.004
72165W        W40495   6.901  29.562  14.824
72166W        W40496  23.100   4.698  13.940
72167W        W40497  26.617  14.130   2.207
72168W        W40498   2.260  23.170  14.375
72169W        W40499  15.293  39.045   3.180
72170W        W40500   8.185  10.222  12.889
72171W        W40501  14.641   2.928   3.845
72172W        W40502  12.783  14.153   0.375
72173W        W40503  13.797  43.498   4.740
72174W        W40504  26.647  21.173   5.090
72175W        W40505  17.247   1.936  11.590
72176W        W40506  25.180  15.754  13.911
72177W        W40507  10.646  22.067  13.002
72178W        W40508  41.817  41.366  11.954
72179W        W40509  19.184  39.850   2.329
72180W        W40510  35.510  11.715  14.969
72181W        W40511  42.794  19.767  14.867
72182W        W40512  34.007  34.478  13.021
72183W        W40513   6.290   9.776  10.909
72184W        W40514  25.152  17.111  14.764
72185W        W40515  36.990  16.726  13.389
72186W        W40516   8.707  14.236  13.036
72187W        W40517  29.576  31.138  10.583
72188W        W40518  36.982  13.831  10.434
72189W        W40519  29.082  11.627   2.883
72190W        W40520   0.406   6.280   1.867
72191W        W40521   2.351  31.626   4.262
72192W        W40522  26.154  11.793  12.387
72193W        W40523   6.768  38.997  12.346
72194W        W40524  23.051  15.776   1.786
72195W        W40525  14.305   8.265   3.387
72196W        W40526  33.059  33.616  10.427
72197W        W40527  32.933  22.529  11.881
72198W        W40528  16.676  30.061  11.528
72199W        W40529  28.155  27.988   3.869
72200W        W40530  36.962  32.929  14.945
72201W        W40531   6.396  14.779  11.583
72202W        W40532   9.261  41.312  13.804
72203W        W40533   5.774  44.879   1.831
72204W        W40534  13.345  14.176   1.709
72205W        W40535  19.095  29.973  11.602
72206W        W40536  21.192  44.369   4.255
72207W        W40537  28.468  33.011   2.291
72208W        W40538   6.702  17.300   2.358
72209W        W40539  15.747  20.638   2.888
72210W        W40540  33.079  43.393  11.569
72211W        W40541   4.437   6.864  10.984
72212W        W40542  14.284  35.105   1.297
72213W        W40543   0.263  32.575  13.316
72214W        W40544   7.755  31.053   2.825
72215W        W40545  32.578  14.178   0.784
72216W        W40546   3.373  32.591   3.745
72217W        W40547   2.283  34.463   2.208
72218W        W40548  23.042  13.191   0.387
72219W        W40549  41.329   0.430   1.913
72220W        W40550  23.578   3.856  13.370
72221W        W40551  29.079  26.104  12.935
72222W        W40552  22.058   2.856   1.332
72223W        W40553  31.926   4.317   4.713
72224W        W40554   3.456  17.726  10.512
72225W        W40555  32.989   9.804  14.424
72226W        W40556  17.077  16.220   3.187
72227W        W40557  12.179  22.246   0.394
72228W        W40558  20.550  24.130   0.851
72229W        W40559  23.010  12.633  13.972
72230W        W40560  25.475   3.368  13.813
72231W        W40561  23.195   2.798   1.265
72232W        W40562  33.427   3.262  14.310
72233W        W40563  27.194  23.576  12.543
72234W        W40564  30.959  34.920  10.959
72235W        W40565  38.922  10.324  13.527
72236W        W40566   8.386  17.626  14.504
72237W        W40567  42.025   7.337   3.803
72238W        W40568  31.911   1.787   0.284
72239W        W40569  33.978  34.541  11.993
72240W        W40570  20.098  15.304   0.875
72241W        W40571  41.031  15.146   0.288
72242W        W40572   9.357  24.030   1.857
72243W        W40573  27.139   4.338   2.329
72244W        W40574  19.666  30.107   5.751
72245W        W40575  27.132  17.677   1.758
72246W        W40576  23.113   9.351  11.542
72247W        W40577  40.850  40.926  13.056
72248W        W40578  27.130  12.179   0.352
72249W        W40579  18.152  29.619  14.962
72250W        W40580  18.718  11.263  12.047
72251W        W40581   8.383  40.312   4.327
72252W        W40582  24.660  18.568  12.062
72253W        W40583  43.847  40.800  10.927
72254W        W40584  31.125  27.989   5.279
72255W        W40585  32.990  12.118   3.785
72256W        W40586   2.956  12.854   2.408
72257W        W40587  37.955   8.660  14.488
72258W        W40588  44.366  16.580   3.340
72259W        W40589  43.981   5.382   4.603
72260W        W40590  28.599  25.629   0.883
72261W        W40591  18.166  25.515   2.267
72262W        W40592  18.193  13.805   1.298
72263W        W40593  14.132  15.116  12.083
72264W        W40594  43.352  18.695  11.496
72265W        W40595  25.532  19.151  14.789
72266W        W40596  10.382  41.414  12.495
72267W        W40597  42.837   3.950   2.801
72268W        W40598  20.657  32.534   0.361
72269W        W40599  12.216   6.247  10.906
72270W        W40600  35.941  35.857  10.992
72271W        W40601  23.648  40.977   3.695
72272W        W40602  39.329  44.272  10.042
72273W        W40603  17.073  43.818  11.478
72274W        W40604  35.089  15.123   0.407
72275W        W40605  20.732  23.589  14.296
72276W        W40606  22.130  27.451   4.191
72277W        W40607  18.067  24.149  13.039
72278W        W40608  13.622   3.808   3.311
72279W        W40609  39.894  10.821  12.042
72280W        W40610  29.974   0.964  11.996
72281W        W40611  24.655  14.229  13.864
72282W        W40612  36.917  15.774   3.291
72283W        W40613  22.510  40.032   1.716
72284W        W40614  12.266  25.632  10.414
72285W        W40615  40.859  22.630  11.934
72286W        W40616   1.278  34.911   0.888
72287W        W40617  41.893  27.997   0.295
72288W        W40618  36.863  35.506   0.952
72289W        W40619  16.682  16.214   0.252
72290W        W40620  32.998  40.411   2.759
72291W        W40621   7.385  30.653  13.357
72292W        W40622   8.828  43.875  13.792
72293W        W40623  16.313   4.222   2.238
72294W        W40624  27.086  12.629   4.776
72295W        W40625  42.295   5.777  14.842
72296W        W40626   4.246  29.056  11.375
72297W        W40627   3.716  27.470  11.022
72298W        W40628  23.657  16.585   0.415
72299W        W40629  11.282  15.806   3.169
72300W        W40630  21.544  17.114  13.991
72301W        W40631  11.233   0.276  10.449
72302W        W40632  31.929  12.277  12.460
72303W        W40633   0.366  23.145   4.793
72304W        W40634  35.460  20.700   3.857
72305W        W40635  21.678  27.085   3.381
72306W        W40636  20.599  35.420   2.217
72307W        W40637   0.408  29.528  12.938
72308W        W40638  14.257  12.332   0.301
72309W        W40639  11.254  21.742   2.247
72310W        W40640   9.166  44.465  13.842
72311W        W40641  31.420  11.254  14.374
72312W        W40642  14.159  33.961   1.859
72313W        W40643  33.382  38.446  12.863
72314W        W40644  38.900  21.097  14.447
72315W        W40645  25.500  22.031   4.156
72316W        W40646  36.068  21.716  12.853
72317W        W40647  17.762  10.369  12.344
72318W        W40648   2.351   5.251  13.492
72319W        W40649  13.235  31.084   3.282
72320W        W40650  30.635  23.192  10.984
72321W        W40651  42.918  37.989  10.464
72322W        W40652  25.125  15.630   3.272
72323W        W40653  17.203  28.996  14.413
72324W        W40654   2.450  43.437   3.233
72325W        W40655  16.762  10.854   1.361
72326W        W40656  40.489   8.265   1.378
72327W        W40657  22.040  29.982  11.523
72328W        W40658  42.294  10.322   2.672
72329W        W40659  19.182  44.845   2.876
72330W        W40660  31.562  33.044   4.795
72331W        W40661  15.777  16.180  14.811
72332W        W40662  26.688   4.760  14.005
72333W        W40663  22.163  15.206  13.328
72334W        W40664   6.376  30.158  12.073
72335W        W40665  36.913   4.766  11.049
72336W        W40666  24.608  34.930  13.541
72337W        W40667   1.449  43.502  13.443
72338W        W40668  44.273  41.314   0.276
72339W        W40669  17.170  12.631  11.126
72340W        W40670  42.332   9.207   0.437
72341W        W40671  26.050   0.354   0.771
72342W        W40672  10.201   0.929  10.900
72343W        W40673  30.005  25.143   0.808
72344W        W40674  25.534  37.372  14.015
72345W        W40675  30.519  33.509   0.799
72346W        W40676  26.158   9.723   3.367
72347W        W40677  44.483   5.906  14.973
72348W        W40678   2.379  28.121   1.411
72349W        W40679  40.934  14.640  14.399
72350W        W40680  38.416   1.780  10.961
72351W        W40681  39.922  25.682  11.063
72352W        W40682  20.724  41.404   1.444
72353W        W40683  37.450  31.932  13.939
72354W        W40684  33.584   4.424   2.255
72355W        W40685  13.324  36.524   0.296
72356W        W40686  26.613  25.134   2.864
72357W        W40687  36.429  22.529  10.113
72358W        W40688  19.094  20.556   3.638
72359W        W40689  14.188  20.611  13.445
72360W        W40690  24.042  15.811   4.749
72361W        W40691  33.991  44.309   3.168
72362W        W40692   0.875   4.796   3.188
72363W        W40693   1.734  29.966  14.911
72364W        W40694  16.686  22.563   4.619
72365W        W40695   2.904  28.494  12.893
72366W        W40696  10.704  22.713  12.091
72367W        W40697  29.981  30.567   3.262
72368W        W40698   2.912  27.070  12.493
72369W        W40699  21.255  11.647   4.289
72370W        W40700  28.513  23.099   4.803
72371W        W40701  15.671  43.396  10.564
72372W        W40702  18.742  10.741  11.007
72373W        W40703  24.215  27.571  12.941
72374W        W40704  11.741  19.778  13.900
72375W        W40705  44.848  27.595   2.244
72376W        W40706  20.069  39.045   3.383
72377W        W40707  12.627  11.139   2.755
72378W        W40708  20.086  20.754   3.863
72379W        W40709  27.514   7.795   2.386
72380W        W40710  16.082   3.717   0.833
72381W        W40711  36.581  36.017  11.052
72382W        W40712   5.926  40.420  14.297
72383W        W40713  16.128  42.014   2.870
72384W        W40714  29.087  33.412  14.349
72385W        W40715  24.154   1.974  12.069
72386W        W40716  37.479   5.760   9.975
72387W        W40717   6.769  28.626   3.177
72388W        W40718  43.851  36.030  12.899
72389W        W40719  39.345   4.216  14.822
72390W        W40720  25.566   2.225   2.408
72391W        W40721   8.700  29.157   1.875
72392W        W40722   7.887   0.310  11.597
72393W        W40723  27.657  18.189  13.002
72394W        W40724  17.714  44.007  13.046
72395W        W40725  20.715  28.645  12.508
72396W        W40726   2.804  22.530  12.462
72397W        W40727  29.610  26.627  14.304
72398W        W40728  25.204  31.917   4.127
72399W        W40729   2.285   2.236   4.720
72400W        W40730  36.904  39.858  14.859
72401W        W40731   4.385   2.916   3.864
72402W        W40732  14.132  18.207  14.430
72403W        W40733  35.533  37.891  10.434
72404W        W40734   5.372   2.854  13.000
72405W        W40735  40.875   3.744  10.478
72406W        W40736  14.628  24.581   3.224
72407W        W40737  32.915  30.992  10.466
72408W        W40738   2.817  16.739   1.736
72409W        W40739  12.811  18.162   2.284
72410W        W40740   5.217  36.355   2.265
72411W        W40741  40.008  14.639  12.951
72412W        W40742  21.678  29.552  12.426
72413W        W40743  30.441   6.718  13.893
72414W        W40744  38.048  40.880  14.442
72415W        W40745  42.414  44.776   4.338
72416W        W40746   1.373   9.150  13.047
72417W        W40747  36.955  25.698  13.835
72418W        W40748  15.099  43.799   2.773
72419W        W40749  33.519  39.429   0.833
72420W        W40750  10.748  41.442   3.824
72421W        W40751   1.361  23.546   3.737
72422W        W40752  11.722  14.782   3.352
72423W        W40753   2.238  17.651   2.788
72424W        W40754  11.338  19.139  12.425
72425W        W40755  31.946  25.625  11.612
72426W        W40756  16.232   2.330   2.896
72427W        W40757  39.385   3.845   3.205
72428W        W40758  16.173  29.517   4.241
72429W        W40759  40.048  16.806  12.932
72430W        W40760   4.814  31.413   3.852
72431W        W40761   8.708  14.629  11.485
72432W        W40762  20.590  40.443   4.690
72433W        W40763  18.730   1.374   1.243
72434W        W40764  41.870  18.684   3.299
72435W        W40765  10.210  41.920  13.887
72436W        W40766   6.300  27.574   3.691
72437W        W40767  19.598  30.919   5.685
72438W        W40768  23.575  19.163   2.309
72439W        W40769  35.910   5.923   3.295
72440W        W40770  44.953  31.541  11.438
72441W        W40771  38.824  22.627  12.357
72442W        W40772  29.470   7.764   1.924
72443W        W40773  27.088  37.416   4.834
72444W        W40774  37.830  20.752  10.534
72445W        W40775  13.145  21.163   1.730
72446W        W40776   4.449  41.464   0.426
72447W        W40777  11.843  17.175   1.928
72448W        W40778  15.648  30.609  13.515
72449W        W40779  36.013   0.451   0.939
72450W        W40780  43.417  28.132  11.472
72451W        W40781   1.947   7.734  11.481
72452W        W40782  24.721  16.304   4.825
72453W        W40783   6.786  24.677  11.384
72454W        W40784  14.731  33.524  14.798
72455W        W40785  18.661   0.791   1.822
72456W        W40786  16.678  25.162   1.354
72457W        W40787  10.140   2.754   1.317
72458W        W40788  40.456  34.867   4.156
72459W        W40789  15.771  41.945  12.915
72460W        W40790  40.938  41.445   2.387
72461W        W40791   0.798  10.354  14.463
72462W        W40792   0.310  34.408   1.403
72463W        W40793  38.434  16.309  12.345
72464W        W40794  34.928  19.138  11.986
72465W        W40795   5.353   1.380   4.136
72466W        W40796   7.885  16.318   2.840
72467W        W40797  27.952  44.385   4.113
72468W        W40798  19.048   0.807  13.862
72469W        W40799  40.362  10.684  14.839
72470W        W40800  17.202  37.933  13.019
72471W        W40801  32.980  22.647   4.311
72472W        W40802  17.581  16.315   3.772
72473W        W40803  41.370  25.601   2.720
72474W        W40804  42.915  28.626   1.738
72475W        W40805   6.408  29.594  13.992
72476W        W40806  38.356  18.564  11.498
72477W        W40807  30.468  42.362  13.365
72478W        W40808  39.013  13.240   0.756
72479W        W40809  10.380   5.408  13.796
72480W        W40810  37.081  20.691  12.849
72481W        W40811  20.130  24.647   3.338
72482W        W40812  18.296   0.336   1.354
72483W        W40813  43.774   6.324  14.382
72484W        W40814  13.796  34.111   3.672
72485W        W40815   9.191  33.905  14.834
72486W        W40816  27.067  12.835   0.903
72487W        W40817   4.218  36.849  12.508
72488W        W40818  22.506  14.294  10.411
72489W        W40819   3.767  20.101  12.395
72490W        W40820  36.481  33.468  12.912
72491W        W40821  15.743  30.457   1.304
72492W        W40822  36.051  44.799   4.224
72493W        W40823  42.838  29.169   4.613
72494W        W40824  17.239  34.953  14.966
72495W        W40825   7.276  42.304   1.883
72496W        W40826  29.668  12.632   4.300
72497W        W40827  17.198  35.011   0.457
72498W        W40828   4.716  33.057  14.760
72499W        W40829  12.362  22.146   1.822
72500W        W40830  18.583   7.912   3.347
72501W        W40831   2.757  11.734  14.886
72502W        W40832  30.945  19.583   2.188
72503W        W40833   9.767  25.030   2.890
72504W        W40834  40.834  14.256  11.393
72505W        W40835   0.262  16.240  10.419
72506W        W40836   8.269  13.659   3.361
72507W        W40837  17.265  41.490   1.894
72508W        W40838  31.573  15.088  14.925
72509W        W40839  27.985  27.066   1.757
72510W        W40840  16.255  25.123  11.069
72511W        W40841  28.128  26.523   2.821
72512W        W40842  24.979   1.301  13.039
72513W        W40843  28.161   3.916   2.782
72514W        W40844  38.952  33.979  10.903
72515W        W40845  24.567  10.258   0.455
72516W        W40846  20.551  21.144  13.369
72517W        W40847  40.000  29.166   4.746
72518W        W40848  12.263  39.043  13.836
72519W        W40849  21.076  20.148   1.784
72520W        W40850  12.755  40.871   2.303
72521W        W40851  20.532  35.365  10.916
72522W        W40852  43.343  34.956   0.296
72523W        W40853   2.928  18.617   2.412
72524W        W40854  33.918   2.258  11.445
72525W        W40855  12.853   7.686   0.945
72526W        W40856   7.676  25.678   1.873
72527W        W40857  25.135  20.677  11.496
72528W        W40858  44.422   3.233  12.535
72529W        W40859  21.037  24.658   5.122
72530W        W40860  11.149   7.749   0.900
72531W        W40861  21.604  27.466   5.127
72532W        W40862  19.240  29.149  14.842
72533W        W40863  16.684  37.063  14.465
72534W        W40864  43.012  39.926  12.030
72535W        W40865  17.152  21.145  12.578
72536W        W40866  10.147  11.224   0.815
72537W        W40867  12.344  16.185  14.985
72538W        W40868  25.219  21.646   4.145
72539W        W40869  19.107  23.569   4.636
72540W        W40870   7.674   5.726   3.714
72541W        W40871  28.064  23.676   4.320
72542W        W40872  36.938  11.808  14.970
72543W        W40873  31.088  34.584  12.528
72544W        W40874  31.406  40.454   4.347
72545W        W40875  15.229  37.386  11.094
72546W        W40876   6.210  31.475   3.686
72547W        W40877  11.249  44.292  11.991
72548W        W40878  10.349  11.850   3.271
72549W        W40879  34.952  29.126   3.156
72550W        W40880  16.102  30.919  10.935
72551W        W40881  15.805  29.170  14.781
72552W        W40882   4.223  34.396  11.548
72553W        W40883   6.332  36.879   4.326
72554W        W40884  38.958   6.782  13.053
72555W        W40885  37.042  15.667  13.476
72556W        W40886  24.097   8.209  11.118
72557W        W40887  43.764  40.903  12.918
72558W        W40888  16.791  38.074  14.969
72559W        W40889  30.542  42.891   4.760
72560W        W40890  28.482  16.309  14.819
72561W        W40891  36.555   7.283  10.994
72562W        W40892   4.900  41.790  14.342
72563W        W40893  17.162  13.840   1.840
72564W        W40894  37.576   4.401   2.391
72565W        W40895  18.651  21.093  12.433
72566W        W40896  42.367  28.520   1.220
72567W        W40897   4.769   7.722   0.467
72568W        W40898  28.450  16.136  10.593
72569W        W40899  33.960  30.555   3.301
72570W        W40900   9.803  36.423   3.744
72571W        W40901  43.368  30.602   3.700
72572W        W40902  18.221  15.270  14.444
72573W        W40903  15.697  25.215   5.094
72574W        W40904  10.382  36.953  12.912
72575W        W40905  37.993  41.325   2.702
72576W        W40906   8.304  13.242   4.656
72577W        W40907  29.112  42.779  13.034
72578W        W40908  26.110  24.553   1.269
72579W        W40909  44.312  41.381  12.879
72580W        W40910   7.829  36.893   1.835
72581W        W40911  16.287   6.238   0.324
72582W        W40912  43.357  14.634   2.179
72583W        W40913  31.941   4.817  12.363
72584W        W40914   4.917  38.941  10.644
72585W        W40915  22.167  31.515  14.031
72586W        W40916  26.970   6.851  11.449
72587W        W40917   0.848  30.061  12.019
72588W        W40918   0.261  42.780   3.759
72589W        W40919  28.527  14.098  11.001
72590W        W40920   3.945  29.486   2.776
72591W        W40921   8.670   2.312   2.381
72592W        W40922  33.891  34.979  12.088
72593W        W40923  37.482   9.859   0.926
72594W        W40924  13.799  19.755   3.330
72595W        W40925  17.298   0.268   1.820
72596W        W40926  10.856  20.264   3.775
72597W        W40927  38.368  34.970   0.866
72598W        W40928  35.967  43.420  12.445
72599W        W40929  26.491  19.054   1.342
72600W        W40930  25.633  36.429   0.932
72601W        W40931   3.930  25.059  10.609
72602W        W40932   1.354   2.821   3.328
72603W        W40933  22.581  19.071  14.858
72604W        W40934  23.164  27.021   2.333
72605W        W40935  20.034  13.121   3.359
72606W        W40936  32.627  34.461  12.527
72607W        W40937  21.069   5.385  12.973
72608W        W40938  26.480  36.958  11.059
72609W        W40939   5.881  28.649  11.010
72610W        W40940   9.189  28.185  12.387
72611W        W40941  33.960  10.670   3.228
72612W        W40942  10.180  29.648  12.047
72613W        W40943  15.261   2.362  14.299
72614W        W40944  13.283  35.572  11.873
72615W        W40945  22.097  12.343  14.885
72616W        W40946  14.756  11.782   2.408
72617W        W40947   1.272  11.752  13.376
72618W        W40948  20.084  21.653   4.781
72619W        W40949  38.380  20.101  11.459
72620W        W40950  25.990  15.788  14.516
72621W        W40951   3.914  23.672   2.864
72622W        W40952  19.058  37.850  11.975
72623W        W40953  38.474  21.675  13.384
72624W        W40954   9.759   6.349  13.932
72625W        W40955   3.419  34.907   3.730
72626W        W40956   3.873   1.313  12.575
72627W        W40957  29.103  18.210   2.808
72628W        W40958  23.119  14.104   1.227
72629W        W40959  31.110  43.368  11.570
72630W        W40960  12.621   6.696  11.116
72631W        W40961  33.977  26.162  14.880
72632W        W40962  41.794  28.155  12.877
72633W        W40963  34.518  39.379   2.349
72634W        W40964  42.969  36.557   1.804
72635W        W40965  41.828  21.573   2.418
72636W        W40966  39.545   8.192  13.460
72637W        W40967  29.040  37.994  13.454
72638W        W40968  30.497  38.532   3.332
72639W        W40969  39.865  15.201  14.924
72640W        W40970   3.814  42.970   2.187
72641W        W40971   5.693  40.336   3.205
72642W        W40972  39.317   5.276   0.736
72643W        W40973  42.984  21.522  13.542
72644W        W40974  14.154  11.283   2.331
72645W        W40975   1.376  21.685  12.850
72646W        W40976  43.826  30.412  11.426
72647W        W40977  41.914   8.727  14.402
72648W        W40978  18.586  38.988  11.378
72649W        W40979  24.716  15.304  10.890
72650W        W40980  21.117   7.246   5.626
72651W        W40981  44.326  31.956   1.210
72652W        W40982  22.120  35.591  14.768
72653W        W40983  40.867  37.429   4.672
72654W        W40984  34.580   8.668  11.009
72655W        W40985  12.637  14.689  10.971
72656W        W40986  10.816  21.674  14.907
72657W        W40987   7.326  44.363   4.816
72658W        W40988  34.369   6.882  13.009
72659W        W40989   4.760  30.493   3.740
72660W        W40990  39.444   2.396   4.777
72661W        W40991  23.623  22.668  11.038
72662W        W40992  27.961  31.550   3.676
72663W        W40993  33.049  11.696   4.617
72664W        W40994  42.801   5.783   1.213
72665W        W40995  10.717  27.485  10.445
72666W        W40996  30.936  30.517   1.903
72667W        W40997  44.425   5.700   9.951
72668W        W40998  20.699  19.205   1.764
72669W        W40999  33.051   3.413  13.491
72670W        W41000  29.970  41.789   3.729
72671W        W41001  31.021   4.737   2.791
72672W        W41002   2.326  44.848  11.591
72673W        W41003  30.624  17.797  12.340
72674W        W41004   6.888  37.397  13.904
72675W        W41005   5.862  16.604  10.930
72676W        W41006   2.857   8.342  12.941
72677W        W41007  39.027  16.130   2.402
72678W        W41008  35.511  34.963   0.753
72679W        W41009  31.138  29.496  10.628
72680W        W41010   9.749  36.036   2.237
72681W        W41011  40.843  10.757  11.539
72682W        W41012  22.545  26.550   0.960
72683W        W41013  23.511  44.937  13.422
72684W        W41014   8.371  30.144  11.923
72685W        W41015  24.226  36.950  11.030
72686W        W41016  37.429  37.376   3.294
72687W        W41017  37.005   1.365   1.874
72688W        W41018  32.539  19.068  12.533
72689W        W41019  19.197   8.661   4.212
72690W        W41020  27.687  25.033  10.540
72691W        W41021  27.592   0.482   2.322
72692W        W41022  20.525   4.428  11.538
72693W        W41023  30.081  10.368   0.859
72694W        W41024  34.915  26.144   0.274
72695W        W41025  20.061  20.639  14.336
72696W        W41026  35.073  18.237  14.448
72697W        W41027   6.768  25.214  13.984
72698W        W41028   6.421  35.009   2.383
72699W        W41029  30.009  36.358   3.264
72700W        W41030  40.482  26.160   0.934
72701W        W41031  29.460  27.645  10.642
72702W        W41032  23.144  18.219  12.860
72703W        W41033  14.835  20.056   0.814
72704W        W41034  15.713  24.558   4.680
72705W        W41035  17.733  19.098  10.904
72706W        W41036  14.291  36.841  13.957
72707W        W41037  33.396   5.220  11.972
72708W        W41038  27.612  32.605   3.221
72709W        W41039  19.551  44.470   1.819
72710W        W41040  43.831  41.291   0.848
72711W        W41041  14.744  29.166  10.420
72712W        W41042  38.334  11.128   1.803
72713W        W41043  14.262  13.660   2.345
72714W        W41044   9.196  34.498  10.429
72715W        W41045  14.254  14.308  14.777
72716W        W41046   7.812   1.830   4.338
72717W        W41047  44.504  37.456   4.197
72718W        W41048  17.798  31.627  11.029
72719W        W41049  31.951   6.840  13.542
72720W        W41050  26.009  42.810  12.531
72721W        W41051  20.689  29.072   3.727
72722W        W41052   0.311  33.561  10.961
72723W        W41053  13.128  20.603  14.942
72724W        W41054  31.960  22.015   3.157
72725W        W41055  31.048  27.004   2.208
72726W        W41056  25.561  21.075  13.499
72727W        W41057  24.707  17.194   0.351
72728W        W41058  36.964  18.174  11.378
72729W        W41059   2.814  15.720  11.117
72730W        W41060  39.541   4.259   3.194
72731W        W41061  24.198  31.112  13.935
72732W        W41062  23.211   1.339   2.307
72733W        W41063  32.396  11.278  12.909
72734W        W41064  21.176  37.907  12.365
72735W        W41065  28.167  24.046  12.468
72736W        W41066  18.284   8.721   0.298
72737W        W41067  16.578  40.463   0.759
72738W        W41068  31.611  42.901   4.792
72739W        W41069  30.578   1.830   0.403
72740W        W41070  22.221  30.134   2.789
72741W        W41071  33.414  20.224   1.215
72742W        W41072  16.599  43.514   4.347
72743W        W41073   7.188  41.380   0.372
72744W        W41074  43.780  21.625   2.821
72745W        W41075   6.368  13.634  13.471
72746W        W41076   8.324  34.540   1.253
72747W        W41077  14.210   9.347  14.823
72748W        W41078  28.643  43.490   2.738
72749W        W41079  43.429  25.137   4.757
72750W        W41080  21.717   1.814  14.905
72751W        W41081  22.726  13.787   4.685
72752W        W41082   6.832  39.884   2.407
72753W        W41083   8.818  22.647   3.218
72754W        W41084  44.755  23.177   4.669
72755W        W41085  38.012  21.691  12.922
72756W        W41086  21.219  30.963  14.947
72757W        W41087  17.070  36.445   4.676
72758W        W41088  18.075  19.140  12.912
72759W        W41089  37.022  15.149   3.219
72760W        W41090  44.321  43.412   3.770
72761W        W41091  26.700  26.998   3.372
72762W        W41092  33.055  21.569  10.074
72763W        W41093  37.454  17.753   3.380
72764W        W41094  32.516  16.686  14.515
72765W        W41095  34.891  13.335  11.867
72766W        W41096  37.361   7.853  10.462
72767W        W41097  27.177   4.439  12.374
72768W        W41098  44.789  20.163  13.547
72769W        W41099  22.519  18.721  10.640
72770W        W41100  23.640  15.686   1.847
72771W        W41101   6.238  22.153  11.055
72772W        W41102  36.477   6.799  11.115
72773W        W41103  28.986   2.312  11.537
72774W        W41104   3.219   2.860   4.294
72775W        W41105  10.330   5.880  12.849
72776W        W41106  35.422  39.471   0.939
72777W        W41107  42.864   8.285   1.369
72778W        W41108  34.118   9.843   3.817
72779W        W41109  43.959  32.513  13.391
72780W        W41110  42.316  25.150   1.879
72781W        W41111   1.419  29.049  13.988
72782W        W41112  25.074  17.775   0.922
72783W        W41113   4.911  43.932   2.395
72784W        W41114  36.876  15.291  11.058
72785W        W41115  38.927  37.875  13.367
72786W        W41116  41.355  32.408   1.869
72787W        W41117  26.646  13.290   1.799
72788W        W41118   1.392  28.134  11.389
72789W        W41119   0.302  23.705   2.312
72790W        W41120  12.853  38.960  12.529
72791W        W41121   4.799  23.715  14.011
72792W        W41122  14.097  43.834   3.330
72793W        W41123  34.030  15.708   2.213
72794W        W41124  40.039  22.102   2.373
72795W        W41125  36.096  33.072  13.989
72796W        W41126  37.374   3.234  11.392
72797W        W41127  43.349   4.411  10.953
72798W        W41128  22.536  35.473  14.506
72799W        W41129  25.076  40.933   1.717
72800W        W41130   9.269  17.203   2.859
72801W        W41131  35.948   7.821   3.156
72802W        W41132   5.356   3.832   3.730
72803W        W41133  40.549   1.918  12.040
72804W        W41134  27.101   6.687   2.392
72805W        W41135  24.545  19.204  12.549
72806W        W41136  13.188  13.742  14.777
72807W        W41137  14.239  11.359   0.909
72808W        W41138  26.509  15.143   4.184
72809W        W41139  43.953  36.475  13.370
72810W        W41140  42.834  39.966   2.303
72811W        W41141  13.306  31.953   0.384
72812W        W41142  39.376  27.986  13.990
72813W        W41143  35.385   9.709  10.992
72814W        W41144  25.660  28.079  11.921
72815W        W41145  14.109  36.895   9.591
72816W        W41146  20.716   6.738  11.101
72817W        W41147   4.215  11.231  10.615
72818W        W41148  16.105  14.728   0.245
72819W        W41149  17.225  32.608   4.638
72820W        W41150  31.442  18.206   3.795
72821W        W41151  11.836  32.125  14.382
72822W        W41152  21.637   6.824   3.223
72823W        W41153  40.510  16.728   0.426
72824W        W41154  27.008  19.650   2.674
72825W        W41155  14.650  39.414  14.023
72826W        W41156  19.261   8.751  13.490
72827W        W41157   3.791  42.982   4.613
72828W        W41158   6.834  33.876   2.225
72829W        W41159  34.468  22.681   2.832
72830W        W41160  38.031   4.293  10.919
72831W        W41161   5.251  44.821   2.722
72832W        W41162  11.742  19.585  11.580
72833W        W41163   7.302  33.418   0.422
72834W        W41164  10.774  40.043  11.408
72835W        W41165  41.308  20.600  13.488
72836W        W41166   8.708   9.794   0.278
72837W        W41167  13.190  35.952   2.694
72838W        W41168  29.031  30.554   5.246
72839W        W41169  27.984  23.992  10.427
72840W        W41170  25.120  38.839   2.742
72841W        W41171  38.555   8.777   2.195
72842W        W41172  35.489  12.832   2.790
72843W        W41173  42.347  20.130  10.939
72844W        W41174  11.707   8.837  12.096
72845W        W41175  36.034  44.762   2.377
72846W        W41176  23.716   3.253   1.876
72847W        W41177  43.956  15.120  14.926
72848W        W41178  12.187  18.150  13.982
72849W        W41179  32.561  28.558   4.777
72850W        W41180   3.760  38.528  10.025
72851W        W41181  18.670   7.843   4.230
72852W        W41182  30.656  30.056  11.872
72853W        W41183  26.596  12.182   0.749
72854W        W41184  13.674  26.024  10.988
72855W        W41185   8.816  12.728   4.231
72856W        W41186  27.611  14.145   3.742
72857W        W41187  25.478  32.033   4.658
72858W        W41188  14.653  18.173  10.031
72859W        W41189  12.804  10.303   3.773
72860W        W41190  10.724  18.683  13.942
72861W        W41191  15.734  33.119   1.216
72862W        W41192  13.175   3.295   2.827
72863W        W41193  13.710   9.885   4.296
72864W        W41194  16.613  22.163  10.967
72865W        W41195  23.066   0.875  12.973
72866W        W41196  23.659  37.831   4.325
72867W        W41197  34.935   3.438   5.152
72868W        W41198   5.388  26.526  13.010
72869W        W41199  42.899  15.619  12.990
72870W        W41200  15.788   8.767   1.928
72871W        W41201  12.711  34.956  11.858
72872W        W41202  30.053  32.440   0.304
72873W        W41203  40.363  30.476  13.899
72874W        W41204  29.931  34.963   1.393
72875W        W41205  37.398   9.362   2.281
72876W        W41206   0.799  28.156   2.209
72877W        W41207  38.506  10.221  11.559
72878W        W41208  12.772  27.048   1.844
72879W        W41209  43.909   9.303   0.885
72880W        W41210   9.754  26.190  13.536
72881W        W41211  39.055  44.466  14.765
72882W        W41212  35.423   0.932   4.234
72883W        W41213   5.884  30.061   0.290
72884W        W41214  26.492  38.884   0.341
72885W        W41215  18.556   5.351   2.333
72886W        W41216  18.136   3.254  13.359
72887W        W41217  41.889  24.718   3.159
72888W        W41218  11.346  25.192  12.568
72889W        W41219  31.479  24.684   4.753
72890W        W41220  36.987   3.275   4.623
72891W        W41221  16.636  38.529  13.497
72892W        W41222  14.114  30.612  13.433
72893W        W41223  33.540  19.046  11.386
72894W        W41224  37.959  18.777   4.672
72895W        W41225  14.122  19.201  13.449
72896W        W41226  13.119   9.732   1.760
72897W        W41227  18.581  17.205  10.636
72898W        W41228  14.760  35.032  14.317
72899W        W41229  28.994  10.654  13.028
72900W        W41230  44.412   6.280   5.108
72901W        W41231  20.150  39.430   2.806
72902W        W41232  40.938  29.594   3.760
72903W        W41233   9.392  43.871  11.025
72904W        W41234  29.516   9.194  13.859
72905W        W41235  44.362   1.437   2.258
72906W        W41236  20.654  39.008   2.279
72907W        W41237   5.218  40.993   1.870
72908W        W41238   2.966   7.731  11.961
72909W        W41239   2.868   5.221   3.679
72910W        W41240  40.864   4.319   1.905
72911W        W41241   7.762  31.932   3.781
72912W        W41242  37.990   5.328  12.938
72913W        W41243  40.364  16.181   3.308
72914W        W41244  26.165   9.152   9.956
72915W        W41245  26.966   3.716   1.420
72916W        W41246  37.833   7.310  10.545
72917W        W41247  42.875  23.710  11.889
72918W        W41248  33.097  37.479  10.076
72919W        W41249  29.617  43.997  13.926
72920W        W41250  14.820  19.271  11.390
72921W        W41251  32.393  35.940   4.341
72922W        W41252  28.541  36.912   4.755
72923W        W41253  28.513  23.230  13.515
72924W        W41254  16.725  35.005  10.943
72925W        W41255  18.172  27.069  13.479
72926W        W41256  39.008  12.840   1.737
72927W        W41257   6.913  34.975   4.752
72928W        W41258  20.653  22.725   1.877
72929W        W41259  38.374  41.359  11.507
72930W        W41260  27.153  23.165   0.840
72931W        W41261  10.805   3.365  13.358
72932W        W41262  12.696  27.519  14.464
72933W        W41263  30.995   6.715  12.477
72934W        W41264  18.254   6.237  10.490
72935W        W41265   7.847  37.499   3.329
72936W        W41266  22.192  43.828  10.950
72937W        W41267  13.659  38.897   2.784
72938W        W41268  32.113  22.677   5.201
72939W        W41269  26.542   3.222   4.720
72940W        W41270   0.950  37.836   4.281
72941W        W41271  28.135  41.810  12.428
72942W        W41272  31.152  15.124   2.188
72943W        W41273   3.294  29.613   5.185
72944W        W41274  40.004  17.265  11.002
72945W        W41275   9.275  43.834  14.820
72946W        W41276  11.281  12.839  14.491
72947W        W41277  30.613  28.997   0.878
72948W        W41278  30.536   8.831  12.923
72949W        W41279  34.454  37.531   2.277
72950W        W41280  25.576  35.571   4.697
72951W        W41281   8.847  24.095   3.674
72952W        W41282  12.271  28.155  13.931
72953W        W41283  37.359  38.467   3.691
72954W        W41284  29.002  38.942  13.331
72955W        W41285  33.113  19.540  11.543
72956W        W41286   0.965  21.140   1.807
72957W        W41287  14.795  12.753  13.874
72958W        W41288  11.723  23.207  13.440
72959W        W41289  16.598  21.546   3.210
72960W        W41290   3.822   4.792   4.316
72961W        W41291  23.686   7.776  11.039
72962W        W41292   7.201  41.430   1.285
72963W        W41293  34.930  11.621  14.477
72964W        W41294  11.219  30.414  14.793
72965W        W41295  27.582  37.894   3.768
72966W        W41296  10.801  38.969  14.351
72967W        W41297  18.128  24.714  13.061
72968W        W41298  36.856  30.640   4.190
72969W        W41299  30.540  10.359   1.294
72970W        W41300  25.068  24.629   1.422
72971W        W41301  13.701  32.895  14.328
72972W        W41302  11.367  15.101   1.772
72973W        W41303  16.642  34.462   1.355
72974W        W41304  22.065   0.480  14.512
72975W        W41305   1.946  39.940  12.454
72976W        W41306  27.984  11.328  11.000
72977W        W41307   3.281  31.644  12.421
72978W        W41308  24.171  19.631   5.130
72979W        W41309   4.379  23.493   4.330
72980W        W41310   4.207   6.349  13.945
72981W        W41311  27.177  43.954   3.258
72982W        W41312  12.794  36.575  13.380
72983W        W41313  38.485   7.728  10.059
72984W        W41314  33.444  18.113  13.954
72985W        W41315  35.852  40.484   0.820
72986W        W41316  36.473  40.908   3.726
72987W        W41317  37.464   1.916   2.269
72988W        W41318  25.129   4.932   3.644
72989W        W41319  39.364   5.827   9.577
72990W        W41320  30.648  41.859   4.310
72991W        W41321  37.982  12.344   3.275
72992W        W41322  36.870   5.931  14.763
72993W        W41323  42.406   3.398   1.239
72994W        W41324  17.773  19.251  13.999
72995W        W41325  10.316  14.804   3.190
72996W        W41326  10.352  17.183   3.767
72997W        W41327  11.639  37.867   4.159
72998W        W41328  33.412  34.607   4.694
72999W        W41329   9.244  41.442   3.322
73000W        W41330  42.502  16.105   2.222
73001W        W41331  28.545  24.026   1.368
73002W        W41332  22.628  14.827   2.720
73003W        W41333  19.176  32.516   4.116
73004W        W41334  20.703  36.872   2.260
73005W        W41335  15.643  16.117  12.392
73006W        W41336  37.404  19.594   3.646
73007W        W41337   6.803   9.263  12.914
73008W        W41338  38.913  30.460  11.433
73009W        W41339  40.030  38.419  13.984
73010W        W41340  17.615  22.061  12.447
73011W        W41341  42.916  40.850   4.812
73012W        W41342  20.648  40.042   0.944
73013W        W41343  11.697  12.630   2.846
73014W        W41344  25.531  37.026   3.658
73015W        W41345  26.978  25.559   3.219
73016W        W41346  17.229  26.057   2.402
73017W        W41347  40.419   7.400   5.205
73018W        W41348  11.864  23.660   1.350
73019W        W41349  18.180  18.611   4.719
73020W        W41350  40.435  31.906   2.773
73021W        W41351  22.158  42.428  11.083
73022W        W41352   8.768  35.987   3.205
73023W        W41353   5.276  35.059   0.956
73024W        W41354  29.031  37.960   2.698
73025W        W41355   5.434  33.962  12.881
73026W        W41356  43.801  40.342  13.829
73027W        W41357  15.681  27.083  12.386
73028W        W41358  30.059  36.567   1.382
73029W        W41359  23.059  43.456  13.809
73030W        W41360  16.631  12.164   2.307
73031W        W41361  19.588  32.477   2.242
73032W        W41362   0.988  30.498  11.444
73033W        W41363  24.179  17.074  10.981
73034W        W41364  21.535  13.764  11.409
73035W        W41365  31.449  40.944   4.672
73036W        W41366   7.704  21.677   1.375
73037W        W41367  38.972  20.566   1.443
73038W        W41368  20.522  31.987  12.498
73039W        W41369   6.207  34.402   2.375
73040W        W41370  15.784   8.363   0.796
73041W        W41371  36.411   0.403   0.463
73042W        W41372   8.829  13.617  11.582
73043W        W41373  13.640  26.020   4.734
73044W        W41374   3.333   0.279  11.076
73045W        W41375  40.862  42.792   4.354
73046W        W41376  24.098  16.127  12.835
73047W        W41377  19.280  18.074   3.148
73048W        W41378  42.439  36.061   2.395
73049W        W41379   8.773  15.320  11.440
73050W        W41380  29.050   8.785  13.333
73051W        W41381  12.837  40.338   1.747
73052W        W41382   8.172  17.610  11.498
73053W        W41383  43.990  26.164  13.343
73054W        W41384  43.843  34.611   4.334
73055W        W41385  37.892   4.789   0.939
73056W        W41386  40.885  20.576  13.328
73057W        W41387  21.207   5.265   5.145
73058W        W41388   5.413  32.082  11.901
73059W        W41389  32.405   1.737  13.893
73060W        W41390  29.474  32.553  12.908
73061W        W41391  27.615  11.694  10.980
73062W        W41392  30.983  43.978  13.382
73063W        W41393  10.262   9.321   4.660
73064W        W41394   7.376  37.925   4.248
73065W        W41395  29.559  30.456   3.326
73066W        W41396  13.715   8.779   2.293
73067W        W41397  30.577  19.121  12.861
73068W        W41398   8.887  23.680  10.117
73069W        W41399  41.503  29.494  10.985
73070W        W41400  18.742  23.705  12.851
73071W        W41401   8.320   5.436  14.928
73072W        W41402  10.332  32.940  11.486
73073W        W41403  11.371  25.113   4.784
73074W        W41404  37.446  35.025   5.187
73075W        W41405  20.546  17.745   1.841
73076W        W41406   4.213  40.440   0.386
73077W        W41407  17.680  34.385  13.453
73078W        W41408  40.375  24.683  12.875
73079W        W41409   0.791   4.754   0.303
73080W        W41410  13.314  35.535  10.597
73081W        W41411  43.882  39.045  14.353
73082W        W41412  42.922  15.600   4.646
73083W        W41413  35.387  33.624  12.943
73084W        W41414  23.505  22.725  12.090
73085W        W41415  28.179   8.822  13.453
73086W        W41416  29.657  19.063   1.285
73087W        W41417  41.429  22.570  13.463
73088W        W41418   2.861  11.232   1.850
73089W        W41419  31.534   8.189  10.619
73090W        W41420  42.457   1.436   3.767
73091W        W41421  11.809  15.234   1.396
73092W        W41422   8.855  25.034   4.776
73093W        W41423  39.944   9.864   2.385
73094W        W41424  37.420   3.875   0.807
73095W        W41425  41.029  36.036  14.801
73096W        W41426  17.699  34.605  12.525
73097W        W41427  26.122  10.642  13.029
73098W        W41428   9.340   5.793  12.394
73099W        W41429   4.843  29.480   1.438
73100W        W41430   4.328  10.192  14.800
73101W        W41431   3.340  30.484  13.473
73102W        W41432  17.647  10.220  13.855
73103W        W41433  29.471  41.842  12.522
73104W        W41434  32.035   7.795   3.326
73105W        W41435  31.425  31.038   2.302
73106W        W41436  29.429   4.806   1.732
73107W        W41437   4.838  12.286  12.014
73108W        W41438  29.530   2.760  11.504
73109W        W41439  26.208   9.888  13.964
73110W        W41440  42.398  39.915   1.321
73111W        W41441  11.264  37.438   4.663
73112W        W41442  13.712  22.700   2.358
73113W        W41443  27.643  34.462  11.472
73114W        W41444  21.679  18.175   3.710
73115W        W41445  19.682  39.397   0.812
73116W        W41446   2.357  40.548  13.903
73117W        W41447  27.126  43.796  12.072
73118W        W41448  38.432  34.964   2.760
73119W        W41449  18.205   4.925   1.754
73120W        W41450  38.898  35.958   0.839
73121W        W41451   9.221   3.342   4.179
73122W        W41452  21.742   1.238   0.920
73123W        W41453  39.880   4.429   2.380
73124W        W41454   1.873  40.522  14.984
73125W        W41455  35.095   2.949   4.760
73126W        W41456   8.341   4.751   4.717
73127W        W41457  44.816  29.621   1.343
73128W        W41458  23.090  16.662   3.178
73129W        W41459  24.685   2.407  14.792
73130W        W41460  30.438  44.986   4.821
73131W        W41461  32.035  35.980  12.863
73132W        W41462  19.201  18.083  11.606
73133W        W41463  14.591  17.278   3.255
73134W        W41464   0.480  20.745  10.440
73135W        W41465  42.411  11.284   0.953
73136W        W41466  24.097  12.165  12.513
73137W        W41467  32.075  30.963   1.428
73138W        W41468  27.456   3.395   4.781
73139W        W41469  10.341  31.999   1.437
73140W        W41470  27.090  22.162   3.800
73141W        W41471   7.668  17.176  14.995
73142W        W41472  19.607  18.656   2.200
73143W        W41473  26.603  26.143   3.199
73144W        W41474   0.492  20.746  11.419
73145W        W41475   2.832  25.505  14.946
73146W        W41476  44.445   7.400   1.237
73147W        W41477  16.246  25.468   1.852
73148W        W41478  40.013  44.308   2.849
73149W        W41479  24.529  14.594  10.494
73150W        W41480  39.365  34.549  12.840
73151W        W41481  33.110  37.444   2.797
73152W        W41482  26.981   3.448   3.836
73153W        W41483  13.657   3.393  13.879
73154W        W41484  22.098  28.502   1.697
73155W        W41485  14.674  26.671  10.966
73156W        W41486  39.910  38.872  11.925
73157W        W41487  26.030  38.487  13.017
73158W        W41488  34.994  32.062  12.858
73159W        W41489  37.021   3.867   2.393
73160W        W41490  12.733  41.342  11.371
73161W        W41491  15.750  39.443   1.316
73162W        W41492  28.575  42.509   2.831
73163W        W41493  40.814  40.512  13.055
73164W        W41494   8.737   8.710   1.872
73165W        W41495  40.323  44.887  14.971
73166W        W41496   5.809  43.413  12.570
73167W        W41497  28.457   1.807   0.341
73168W        W41498   0.340  30.428  13.369
73169W        W41499   7.757  14.227   1.707
73170W        W41500  42.890  37.398   1.750
73171W        W41501  37.517  16.765  10.938
73172W        W41502  16.134  34.428  12.363
73173W        W41503   9.753  15.197   0.915
73174W        W41504  37.013  35.047   3.830
73175W        W41505  41.039  22.094   0.372
73176W        W41506  18.562  17.210  13.973
73177W        W41507  43.917   7.398   4.224
73178W        W41508  24.144   9.765  10.611
73179W        W41509  32.016  36.372   5.266
73180W        W41510  38.033  11.717   1.274
73181W        W41511  16.697  20.524   2.191
73182W        W41512  25.062  14.105   1.756
73183W        W41513  26.603   6.355  12.401
73184W        W41514  14.214  34.952   2.401
73185W        W41515  21.659  24.532   1.795
73186W        W41516   8.702  27.692  12.983
73187W        W41517  32.056  29.113   1.833
73188W        W41518  12.148  42.346   2.898
73189W        W41519  42.001  35.386   1.348
73190W        W41520   9.746  12.810  13.387
73191W        W41521  11.862  25.169  13.983
73192W        W41522  10.327  15.316  10.536
73193W        W41523  44.262  26.497  11.447
73194W        W41524  27.133  37.021   1.920
73195W        W41525   4.263  43.502   4.599
73196W        W41526  22.522  17.283  14.368
73197W        W41527  34.507  34.569   1.451
73198W        W41528   1.399  36.370   1.918
73199W        W41529  32.074  39.811  12.095
73200W        W41530  13.196   5.924  10.487
73201W        W41531  40.353  33.533   4.250
73202W        W41532  41.969  16.772   3.868
73203W        W41533  28.590  38.914   1.273
73204W        W41534   8.330  37.412  12.384
73205W        W41535  25.150  13.116  13.356
73206W        W41536  37.832  34.876   1.706
73207W        W41537  19.109   7.222  11.520
73208W        W41538  26.155  32.524  10.510
73209W        W41539  37.557  20.619   4.303
73210W        W41540  44.279  20.553   4.662
73211W        W41541  27.664  30.521   5.114
73212W        W41542  36.440  15.270  11.526
73213W        W41543  21.638  42.804  10.549
73214W        W41544  32.064  36.000   4.287
73215W        W41545  21.237  21.095  11.945
73216W        W41546  36.945   0.482   1.378
73217W        W41547  24.224   0.488  14.913
73218W        W41548   1.853   0.380   0.439
73219W        W41549  21.741  16.608   0.873
73220W        W41550   4.823  12.703   2.372
73221W        W41551  21.661  43.793  10.542
73222W        W41552  39.988  40.364   1.791
73223W        W41553  17.226   8.886  14.885
73224W        W41554   4.276   7.266   4.301
73225W        W41555  22.111  43.282  13.060
73226W        W41556  14.102  44.976  12.393
73227W        W41557   4.712   1.819   2.801
73228W        W41558  27.997  37.374   5.287
73229W        W41559  44.005  25.641  12.041
73230W        W41560  14.159  27.944  12.573
73231W        W41561   6.247   3.781   2.773
73232W        W41562  12.255  41.919  14.929
73233W        W41563  21.603  41.380   1.344
73234W        W41564   4.436   8.333  11.372
73235W        W41565  24.203  37.985   2.875
73236W        W41566   5.296  44.929  14.493
73237W        W41567  36.997  34.036   4.247
73238W        W41568  23.541  43.470   4.320
73239W        W41569  44.803   9.678   4.175
73240W        W41570  26.956  41.337   2.817
73241W        W41571   9.751   5.240  14.320
73242W        W41572  21.590   2.803  12.005
73243W        W41573  44.380  26.978  13.492
73244W        W41574  13.721  35.021  14.879
73245W        W41575  18.598  19.171  12.048
73246W        W41576  14.681  11.166  11.034
73247W        W41577  20.619  30.948  14.819
73248W        W41578  25.998  37.478   2.232
73249W        W41579  23.057  14.636  11.089
73250W        W41580  21.053  16.091  14.477
73251W        W41581   6.768   3.767  10.437
73252W        W41582  42.838  37.554  13.057
73253W        W41583  43.864   0.904  11.597
73254W        W41584  40.369  25.116  13.350
73255W        W41585  17.123  28.113   2.676
73256W        W41586  40.927  26.029   0.443
73257W        W41587  37.403   3.905   2.366
73258W        W41588  16.313  35.077   3.231
73259W        W41589  12.201  35.579   1.431
73260W        W41590  20.556   2.906   3.341
73261W        W41591   4.770  36.894   5.246
73262W        W41592  13.341   1.836   2.763
73263W        W41593  35.383   6.690  13.516
73264W        W41594  12.327   5.756   2.716
73265W        W41595  40.923  12.195  11.612
73266W        W41596  35.591  14.589  11.512
73267W        W41597  15.640   7.387   3.356
73268W        W41598  20.232  24.669  11.860
73269W        W41599  18.606  30.042   0.295
73270W        W41600   5.399  25.604  14.772
73271W        W41601  16.277  44.461  11.871
73272W        W41602  32.012   5.906   1.332
73273W        W41603  43.778  13.348   1.858
73274W        W41604  36.376  30.566  13.339
73275W        W41605   7.320  36.417   2.416
73276W        W41606  35.901  15.641  11.087
73277W        W41607  44.350  21.679  10.614
73278W        W41608  44.858  19.097   2.771
73279W        W41609  36.862   7.222   3.682
73280W        W41610   8.201  27.608   1.292
73281W        W41611  11.368  18.161   1.834
73282W        W41612   4.786  13.272   1.836
73283W        W41613  32.973   5.428  12.464
73284W        W41614  26.963   5.225   1.820
73285W        W41615   6.198  10.250  10.528
73286W        W41616  31.970  26.952   4.833
73287W        W41617   0.945   6.860   3.785
73288W        W41618  25.034  20.572  14.936
73289W        W41619  38.547  10.271   1.398
73290W        W41620  34.949   0.927   2.310
73291W        W41621   2.358   4.446  12.047
73292W        W41622   1.975  40.026   3.194
73293W        W41623  12.725   2.841  10.636
73294W        W41624   4.841  26.171  14.294
73295W        W41625   8.262  24.699   3.654
73296W        W41626  12.810   7.868   0.281
73297W        W41627  15.632  18.660  13.839
73298W        W41628  31.982  19.168   1.788
73299W        W41629  40.443  31.489  14.378
73300W        W41630   8.357  17.197  14.895
73301W        W41631  27.083  32.487  13.483
73302W        W41632  31.474  37.563   4.732
73303W        W41633  18.074   1.467  11.600
73304W        W41634   3.315  31.534   0.330
73305W        W41635  35.096  12.305   4.259
73306W        W41636   6.335  43.452   0.478
73307W        W41637  17.656  31.419   4.652
73308W        W41638  38.851  34.113   2.292
73309W        W41639  26.495  35.524   1.309
73310W        W41640  10.812  33.044   3.375
73311W        W41641  42.410  35.905   3.192
73312W        W41642  16.175  25.604  10.141
73313W        W41643  18.571  23.137   9.983
73314W        W41644   7.331   3.404   4.759
73315W        W41645  16.254  44.929   4.753
73316W        W41646   2.893  11.129   0.742
73317W        W41647   2.803   8.292   3.381
73318W        W41648  30.120  35.984  14.027
73319W        W41649  38.059   3.797   0.841
73320W        W41650  22.135   1.849  11.856
73321W        W41651   3.942  38.921   1.905
73322W        W41652   3.254  40.361   3.734
73323W        W41653  23.036  42.312   4.805
73324W        W41654  31.110  28.566  12.573
73325W        W41655  18.083  11.278   3.212
73326W        W41656  35.507  13.747   0.877
73327W        W41657  11.756   4.762  12.865
73328W        W41658  17.706  24.982   3.220
73329W        W41659  44.462   4.317  10.528
73330W        W41660  27.961  38.478  11.052
73331W        W41661  26.086   0.804   0.364
73332W        W41662  22.611  33.946   0.937
73333W        W41663  13.629  37.429   0.862
73334W        W41664  44.430  27.949  14.481
73335W        W41665   9.792  11.853   1.294
73336W        W41666  14.806  16.770   3.694
73337W        W41667  30.110  42.021  11.095
73338W        W41668  18.126  24.083  14.916
73339W        W41669  22.206  32.112  13.499
73340W        W41670   6.767  18.740   2.835
73341W        W41671  24.046   2.295   5.127
73342W        W41672   9.345  40.535   2.360
73343W        W41673  38.488   0.970  14.416
73344W        W41674   3.282  38.932   2.338
73345W        W41675  24.612  31.604   4.304
73346W        W41676  20.168  11.823  13.033
73347W        W41677  37.435  40.818   4.119
73348W        W41678  25.643  25.108   0.412
73349W        W41679  23.606  27.482   1.756
73350W        W41680  13.241  24.663  12.393
73351W        W41681   3.446  20.664  10.483
73352W        W41682  39.963  41.995  13.493
73353W        W41683  13.614  17.667  12.409
73354W        W41684  27.175  18.267  12.078
73355W        W41685  37.540  34.887  13.809
73356W        W41686  10.866  20.106   4.218
73357W        W41687  31.520  20.757  12.945
73358W        W41688  37.858  32.420   4.248
73359W        W41689  40.332  31.493  11.981
73360W        W41690  11.791  19.581  12.983
73361W        W41691  11.345  35.032   3.206
73362W        W41692  25.189  37.846  11.442
73363W        W41693  39.317   5.774   4.319
73364W        W41694  36.589  11.290  11.417
73365W        W41695   6.783  30.586   3.730
73366W        W41696  15.134  28.041  14.945
73367W        W41697  33.131  19.070   4.751
73368W        W41698  31.017   9.884   2.403
73369W        W41699  11.287  32.925  14.822
73370W        W41700  29.513   8.193   1.807
73371W        W41701  28.932  44.320   1.702
73372W        W41702  24.711  13.136   1.818
73373W        W41703  27.579  20.130   3.310
73374W        W41704  15.675  18.747   0.913
73375W        W41705  16.279  35.938   2.682
73376W        W41706  21.244  38.466  11.909
73377W        W41707  23.623  14.132  14.838
73378W        W41708  10.779  14.117   0.358
73379W        W41709  21.054  31.643  11.028
73380W        W41710   4.300  33.879   0.303
73381W        W41711  20.569  16.582   9.984
73382W        W41712   4.754  43.952   0.932
73383W        W41713  23.526  27.517   2.341
73384W        W41714  44.378   0.253  13.510
73385W        W41715  24.194  32.630   1.370
73386W        W41716  20.175  12.725   2.759
73387W        W41717  44.822  39.812   4.771
73388W        W41718  14.622  17.077  10.937
73389W        W41719   1.341  24.065  11.941
73390W        W41720  41.453  13.322   3.240
73391W        W41721   4.761   5.868  11.377
73392W        W41722   5.209   4.350  11.939
73393W        W41723  36.027  28.032   5.301
73394W        W41724  42.357  43.357  13.523
73395W        W41725  34.944  33.916  12.580
73396W        W41726  26.019  29.447   4.141
73397W        W41727  41.885  14.604  13.836
73398W        W41728   3.895   5.251   3.369
73399W        W41729   5.425  37.886  14.024
73400W        W41730   1.251  35.450   1.326
73401W        W41731  32.486  17.164  14.938
73402W        W41732  42.783  20.150  12.834
73403W        W41733  10.855  27.667  13.919
73404W        W41734  37.537   1.241   3.679
73405W        W41735   7.266  13.760   4.354
73406W        W41736  34.447  23.512   2.820
73407W        W41737  30.453   2.450  11.547
73408W        W41738  18.732  28.521  13.408
73409W        W41739  38.483  21.086  11.022
73410W        W41740  26.489  31.925   4.221
73411W        W41741   4.933  10.683  10.560
73412W        W41742  29.423   3.933  11.900
73413W        W41743   2.371  23.019   1.323
73414W        W41744  31.495  42.790   3.655
73415W        W41745  19.075  15.319  10.903
73416W        W41746   6.373  14.211  10.587
73417W        W41747  36.906  42.436   0.939
73418W        W41748  20.265  44.267  13.953
73419W        W41749  23.076  36.089  10.493
73420W        W41750   2.296  39.522   2.243
73421W        W41751  18.274  39.499  11.986
73422W        W41752  12.354  15.293  13.902
73423W        W41753  34.445   7.381   4.680
73424W        W41754  11.246  33.583   1.773
73425W        W41755  38.422  10.773  13.428
73426W        W41756  39.418  41.444  11.587
73427W        W41757  23.654  29.539   1.824
73428W        W41758  10.331  23.205   1.899
73429W        W41759  18.255  10.772   4.134
73430W        W41760   3.836  44.442  14.370
73431W        W41761  30.561  23.072   0.817
73432W        W41762   9.155  18.739  12.064
73433W        W41763  37.403  28.437  12.503
73434W        W41764   4.786  44.896   1.776
73435W        W41765  32.080  17.616   4.612
73436W        W41766  15.240  38.401   3.867
73437W        W41767   2.756  34.400   4.267
73438W        W41768  19.734   1.469   1.281
73439W        W41769  22.714  41.425   3.669
73440W        W41770  13.628  11.851  11.476
73441W        W41771  30.653  14.188   2.246
73442W        W41772  22.120  39.480  10.920
73443W        W41773  40.839  22.650   0.954
73444W        W41774  44.404  28.940  13.453
73445W        W41775  26.033  19.227  11.018
73446W        W41776   5.730  17.745   0.757
73447W        W41777  14.210  24.596  13.817
73448W        W41778  32.432   2.751  11.118
73449W        W41779  14.293   8.290  11.526
73450W        W41780  40.011   5.338  14.370
73451W        W41781  34.059  13.831   3.684
73452W        W41782  40.538   4.388   4.117
73453W        W41783   9.719  18.123   3.773
73454W        W41784  36.012   1.294  10.633
73455W        W41785  32.597  19.553   4.137
73456W        W41786  42.995  39.005   0.302
73457W        W41787   4.403  10.777  14.961
73458W        W41788  16.300  26.044  14.343
73459W        W41789  36.369  40.861   2.785
73460W        W41790   2.935  11.701   3.769
73461W        W41791  40.965  32.089  12.935
73462W        W41792  19.597  26.535  12.378
73463W        W41793  28.671   4.291  13.388
73464W        W41794  37.982  44.273   2.250
73465W        W41795  34.902  20.674   2.312
73466W        W41796   1.796  14.611   1.739
73467W        W41797  26.491  10.737   2.208
73468W        W41798  42.359  33.095   3.823
73469W        W41799  16.155  26.574   1.926
73470W        W41800  11.174  24.528   4.661
73471W        W41801  43.994  32.551   4.253
73472W        W41802  28.621   1.473   4.278
73473W        W41803  32.582   1.790  11.920
73474W        W41804  40.954  16.696   3.865
73475W        W41805   7.698  43.441   4.790
73476W        W41806  19.237  23.096   5.140
73477W        W41807  11.645  11.177  13.995
73478W        W41808   6.337  24.187   3.205
73479W        W41809  13.251  32.520   0.885
73480W        W41810  36.543   0.820   5.215
73481W        W41811  31.506  33.071  14.018
73482W        W41812   8.689  20.540   4.230
73483W        W41813  21.535  19.091   3.196
73484W        W41814  18.274   2.266   2.793
73485W        W41815  25.524  15.151   3.803
73486W        W41816  17.163   6.380  12.929
73487W        W41817  28.597   0.485   2.369
73488W        W41818  29.631   2.363   4.707
73489W        W41819   5.775  14.124  12.498
73490W        W41820  32.024   0.877  13.992
73491W        W41821   4.730  10.789  12.384
73492W        W41822  32.499  22.240  11.044
73493W        W41823  29.532  15.299   4.324
73494W        W41824   4.903  27.535   1.914
73495W        W41825  21.258   7.880   3.826
73496W        W41826   1.349  36.530  12.559
73497W        W41827  39.494  43.334  12.550
73498W        W41828  12.334  43.360  13.914
73499W        W41829  37.900  10.188  14.838
73500W        W41830  17.144  15.638  11.587
73501W        W41831  16.257  25.094  12.838
73502W        W41832  25.142  39.438  11.487
73503W        W41833  14.790  41.437   0.863
73504W        W41834  43.400  17.750   0.271
73505W        W41835  43.481  29.514  12.017
73506W        W41836  26.594   6.273   4.209
73507W        W41837   9.728  26.039  12.361
73508W        W41838   0.751   7.770   2.355
73509W        W41839   7.908  26.110   4.129
73510W        W41840   0.356  42.463   0.289
73511W        W41841   9.769  41.534  10.955
73512W        W41842  41.340  42.317  13.390
73513W        W41843  26.171  12.240   4.165
73514W        W41844  22.726   4.313  11.564
73515W        W41845  20.663  44.433   0.361
73516W        W41846  39.901   9.342   1.835
73517W        W41847  21.193  12.318  12.432
73518W        W41848   6.204   9.254   0.384
73519W        W41849  35.458  42.343  13.014
73520W        W41850  15.776   5.745   3.178
73521W        W41851  25.106   7.296   3.214
73522W        W41852  26.156  38.046  12.522
73523W        W41853   8.393  33.016  11.880
73524W        W41854  33.617  30.088  14.991
73525W        W41855  32.408  42.866  14.469
73526W        W41856   0.433  28.452  13.902
73527W        W41857   3.247  24.662  11.476
73528W        W41858  44.798  27.587  14.010
73529W        W41859   8.816  32.542  13.031
73530W        W41860  36.885  43.995  12.519
73531W        W41861  19.176  42.973  11.989
73532W        W41862   2.442   4.910  11.898
73533W        W41863  36.453  15.784   3.296
73534W        W41864  18.749   9.354  13.834
73535W        W41865  23.237   5.343   0.941
73536W        W41866   5.240  40.409   4.218
73537W        W41867  38.913  30.918  14.843
73538W        W41868  20.737  40.381   3.821
73539W        W41869   0.886  34.884  13.414
73540W        W41870  33.479  33.955   3.315
73541W        W41871  31.446  19.145   2.902
73542W        W41872   9.719   5.236  10.491
73543W        W41873   0.873  30.571  14.361
73544W        W41874  38.343  31.077  14.798
73545W        W41875  35.459  10.306   3.759
73546W        W41876  38.400  24.224   0.952
73547W        W41877   8.339   0.258   2.355
73548W        W41878  23.578  36.020  14.412
73549W        W41879  22.161  28.442   3.362
73550W        W41880   2.733  37.439   1.863
73551W        W41881   1.411  10.342  12.092
73552W        W41882  39.447   0.288   3.760
73553W        W41883  13.170  14.640   1.276
73554W        W41884  38.872   9.392   4.756
73555W        W41885  32.007  28.153   3.855
73556W        W41886  10.281  36.512  10.500
73557W        W41887  20.099  30.930   0.877
73558W        W41888   9.332  20.582   0.338
73559W        W41889  31.402  18.279   2.831
73560W        W41890  11.128  27.613  12.392
73561W        W41891   4.769  29.170  13.533
73562W        W41892  23.157  43.417  14.942
73563W        W41893  18.658  38.372  12.993
73564W        W41894  36.427  24.020  12.490
73565W        W41895  11.659  20.224  10.969
73566W        W41896  36.364  30.106   3.817
73567W        W41897  27.090  15.709   3.856
73568W        W41898  35.929  34.450  11.386
73569W        W41899  43.381   9.724  10.518
73570W        W41900  22.183   8.662  11.089
73571W        W41901   7.784  42.439   4.824
73572W        W41902  22.560  14.593   4.682
73573W        W41903  42.437  37.461   5.221
73574W        W41904  11.691  10.336   2.221
73575W        W41905   4.353  25.060   1.324
73576W        W41906  35.006  20.546  14.378
73577W        W41907  20.138  17.677   3.777
73578W        W41908   8.330   9.333  14.401
73579W        W41909  35.855   3.857   5.206
73580W        W41910  12.743   7.375   3.292
73581W        W41911  25.036  21.181  10.591
73582W        W41912  39.458  30.030   2.865
73583W        W41913  17.708  33.981   0.263
73584W        W41914   2.883   6.338   1.363
73585W        W41915  11.833  26.087   2.761
73586W        W41916  35.043  24.664   4.663
73587W        W41917  21.697  32.451   3.843
73588W        W41918  40.330   0.843  12.487
73589W        W41919  27.985  35.956  13.931
73590W        W41920  12.673  44.768   1.776
73591W        W41921  24.007  32.523   0.301
73592W        W41922  34.904  32.504  13.339
73593W        W41923  13.242  26.556   4.744
73594W        W41924  42.384  12.239   4.731
73595W        W41925  31.010  12.780  10.503
73596W        W41926  33.111   8.707  10.957
73597W        W41927  29.923  13.292  11.004
73598W        W41928   4.259   4.835   3.783
73599W        W41929  37.868  15.686  11.599
73600W        W41930  36.856   8.856  11.009
73601W        W41931   0.981  29.516  14.951
73602W        W41932  44.794  37.020  14.952
73603W        W41933  16.244   7.671   4.144
73604W        W41934  37.038  31.642  13.502
73605W        W41935   0.387  38.839  13.017
73606W        W41936  40.802  25.218   2.799
73607W        W41937  20.038  22.157   2.319
73608W        W41938  31.944  29.125  14.805
73609W        W41939  21.735  21.121  12.828
73610W        W41940  18.649  22.195  10.039
73611W        W41941  26.520   7.303  12.040
73612W        W41942  40.431  23.191  10.609
73613W        W41943   1.785   4.909  10.936
73614W        W41944  10.878   6.378   1.801
73615W        W41945  21.065  33.544   2.419
73616W        W41946  29.078  40.512  13.348
73617W        W41947  23.133  26.551   3.770
73618W        W41948   2.379  37.438   4.640
73619W        W41949  11.823  30.444   1.762
73620W        W41950  28.003   7.732  12.974
73621W        W41951   6.850  11.244   4.121
73622W        W41952  32.006   4.762   3.651
73623W        W41953  20.240  28.106   4.257
73624W        W41954  37.038  41.319   4.628
73625W        W41955  31.478  11.364   2.749
73626W        W41956  33.483   9.822   0.881
73627W        W41957  41.803  24.168  13.504
73628W        W41958  44.408  31.138  11.516
73629W        W41959  36.560  43.015  11.917
73630W        W41960  40.414  37.532   3.795
73631W        W41961  16.136  36.017  11.473
73632W        W41962  17.797   8.325  14.408
73633W        W41963   3.937  18.608  11.594
73634W        W41964  32.122   1.426  11.519
73635W        W41965  35.959  35.936   3.231
73636W        W41966  30.951  27.517   1.888
73637W        W41967  13.697   5.339   2.331
73638W        W41968  44.275   4.420  12.904
73639W        W41969  11.767  39.888  11.966
73640W        W41970  25.597   8.727   4.803
73641W        W41971  35.897  22.630   3.195
73642W        W41972  41.423  27.112  11.563
73643W        W41973  23.685  36.454   4.342
73644W        W41974  24.111  38.961   0.852
73645W        W41975  22.252   3.831   4.731
73646W        W41976   8.260   1.300   3.194
73647W        W41977  15.127  40.464  13.411
73648W        W41978  22.211  12.295   0.797
73649W        W41979  39.440  14.800   3.846
73650W        W41980  25.636  33.390   0.940
73651W        W41981  14.589  23.575  10.415
73652W        W41982  10.214  27.479  11.441
73653W        W41983  37.535  11.340   1.377
73654W        W41984  36.485  23.181   1.259
73655W        W41985   2.270  20.623  12.411
73656W        W41986   4.776  21.078  12.434
73657W        W41987  23.618   7.279  10.551
73658W        W41988  27.478  37.531  13.325
73659W        W41989  10.190  15.150  14.428
73660W        W41990  14.118  44.975  11.593
73661W        W41991  18.615  33.537  14.308
73662W        W41992   2.852   4.872   1.920
73663W        W41993  43.807  35.372   2.759
73664W        W41994  31.405  17.619  13.054
73665W        W41995  13.604  44.906   1.766
73666W        W41996  23.218  28.470   5.181
73667W        W41997  25.038  22.599  12.908
73668W        W41998  39.048  13.348  13.032
73669W        W41999  24.097  41.436   2.272
73670W        W42000  34.564   4.321  13.816
73671W        W42001  20.147  22.560   2.369
73672W        W42002   4.786  42.482  12.975
73673W        W42003  32.097  37.566  11.033
73674W        W42004  34.002   0.385   4.691
73675W        W42005   2.781  42.006  11.514
73676W        W42006  44.452  40.021  13.377
73677W        W42007  29.920  36.972  11.409
73678W        W42008   9.667  40.446  11.554
73679W        W42009  32.420  26.497  12.011
73680W        W42010  13.127  14.101  14.851
73681W        W42011  38.411   6.270  12.007
73682W        W42012  20.204  15.801   4.772
73683W        W42013   9.253  13.222  11.968
73684W        W42014  22.663  27.456   9.922
73685W        W42015  17.186  43.875  14.900
73686W        W42016  16.153  17.288   4.815
73687W        W42017  23.023   0.345  11.434
73688W        W42018  27.685   5.333  13.515
73689W        W42019  21.582   9.262   3.865
73690W        W42020  41.959  23.013   4.659
73691W        W42021  17.176  16.235   4.264
73692W        W42022  29.049  12.795  12.907
73693W        W42023  38.422  34.495  14.761
73694W        W42024   2.849  12.199  10.460
73695W        W42025  29.977  35.601  13.374
73696W        W42026  28.054  33.408  13.545
73697W        W42027   9.213  31.127  13.391
73698W        W42028   8.780   4.248   1.849
73699W        W42029  23.100  43.975   4.756
73700W        W42030  21.182   6.861   3.189
73701W        W42031  31.099  23.735  14.953
73702W        W42032  11.684  12.273   3.290
73703W        W42033   3.240  33.887  13.477
73704W        W42034  23.138  29.928   2.777
73705W        W42035  31.038   6.392  14.364
73706W        W42036  42.973   8.384  11.501
73707W        W42037  40.806  40.456  14.768
73708W        W42038   8.834   5.287  14.772
73709W        W42039  26.142  14.119   0.857
73710W        W42040   0.413  44.856   0.426
73711W        W42041   6.392  41.329  12.425
73712W        W42042  10.202  15.182  14.917
73713W        W42043   7.343  28.013  11.036
73714W        W42044   7.299  31.959   2.186
73715W        W42045   3.424  16.698  10.605
73716W        W42046  26.955  44.849  10.507
73717W        W42047  41.384  24.230   5.235
73718W        W42048  35.560  18.095   1.226
73719W        W42049  39.881  15.593   0.741
73720W        W42050   2.944  37.472  10.440
73721W        W42051  15.213  43.478   3.181
73722W        W42052  29.669  16.155  12.388
73723W        W42053  29.522  15.818   5.213
73724W        W42054  21.165  42.924  11.472
73725W        W42055  33.984  23.525  11.532
73726W        W42056  12.712   2.384   1.810
73727W        W42057  22.180  30.000   0.941
73728W        W42058  16.731  22.738   3.294
73729W        W42059   3.934   9.765  11.101
73730W        W42060  38.393  32.595   1.894
73731W        W42061  11.845  25.061  10.467
73732W        W42062   2.365  12.214   0.458
73733W        W42063  27.454  10.181   5.267
73734W        W42064   0.967  14.729  10.976
73735W        W42065   1.753  44.405  14.944
73736W        W42066  38.457  10.232  14.403
73737W        W42067  21.563  22.173  13.424
73738W        W42068  35.531  23.629  13.892
73739W        W42069  17.635  22.067  11.020
73740W        W42070  44.921   4.773  12.877
73741W        W42071  23.044   3.256  11.435
73742W        W42072   7.830  40.977  11.403
73743W        W42073   4.888  41.518   4.276
73744W        W42074   7.772  21.581  10.510
73745W        W42075  24.548  13.187   1.267
73746W        W42076  31.933  23.684  11.897
73747W        W42077   3.287  11.133   9.997
73748W        W42078   0.965  22.670  13.359
73749W        W42079  27.169  30.435   2.786
73750W        W42080  26.664  14.265  11.118
73751W        W42081  37.889  42.366   3.151
73752W        W42082  34.383  27.080  12.957
73753W        W42083  38.920  29.088  13.325
73754W        W42084  35.408  28.481   0.456
73755W        W42085   2.740  31.501   3.817
73756W        W42086   6.792  44.913  13.972
73757W        W42087   6.720  38.361  13.948
73758W        W42088   1.399  26.556   0.295
73759W        W42089  33.519  19.599   0.800
73760W        W42090  16.318  29.651   2.889
73761W        W42091  30.485  29.616  14.950
73762W        W42092  19.228  23.706   5.650
73763W        W42093  44.849  10.252   2.353
73764W        W42094  34.504  40.955   4.231
73765W        W42095  37.466  17.659   2.339
73766W        W42096  22.547  30.950  11.493
73767W        W42097  22.105  19.680   1.265
73768W        W42098  33.428  27.951  12.382
73769W        W42099  26.693  33.956  14.294
73770W        W42100  28.637  27.550   4.769
73771W        W42101   0.833  27.605   3.773
73772W        W42102  13.128   4.255  12.900
73773W        W42103   6.229  27.080  10.575
73774W        W42104  42.508  10.205  12.895
73775W        W42105  35.103  23.676  14.348
73776W        W42106   7.254  15.287   1.741
73777W        W42107  34.551  15.638  14.942
73778W        W42108  14.323  13.117   4.733
73779W        W42109  19.255  43.795   2.242
73780W        W42110  38.886  39.841  12.563
73781W        W42111  36.999  21.690  10.414
73782W        W42112  19.156  25.586   1.842
73783W        W42113  10.187  16.623  13.316
73784W        W42114  27.618  31.127  14.964
73785W        W42115  21.586  28.126  11.572
73786W        W42116  19.245  34.893   3.654
73787W        W42117  12.116  27.502   0.788
73788W        W42118   6.679  23.989   0.250
73789W        W42119   3.404  44.294   4.253
73790W        W42120  42.929  37.927  11.430
73791W        W42121  38.353  44.927   2.356
73792W        W42122   5.924  26.140  13.036
73793W        W42123  14.112  20.768  13.809
73794W        W42124  19.587  26.667  14.285
73795W        W42125  39.960  42.973   3.172
73796W        W42126  36.408   2.321   2.199
73797W        W42127  33.554   2.300  12.997
73798W        W42128  38.995  11.779   2.378
73799W        W42129  22.162   0.436   4.201
73800W        W42130  11.248   1.832  11.441
73801W        W42131  35.566  11.209   1.708
73802W        W42132  20.169  44.436   1.336
73803W        W42133  21.169  41.860   3.267
73804W        W42134  36.359  16.244  11.938
73805W        W42135  21.124   9.795   4.124
73806W        W42136  17.134  36.356   5.259
73807W        W42137  30.135  20.135  13.442
73808W        W42138  36.542  34.372  10.432
73809W        W42139  42.865  43.407   3.370
73810W        W42140  40.472   8.868   3.205
73811W        W42141  23.591  11.351   2.705
73812W        W42142  30.580  35.360  13.520
73813W        W42143   3.855   4.310   3.789
73814W        W42144   7.721  13.838   0.274
73815W        W42145  39.544  10.707  11.945
73816W        W42146   6.806   7.251   3.839
73817W        W42147  31.955   3.804  14.951
73818W        W42148  18.687  22.200   0.748
73819W        W42149  25.066  11.206  10.493
73820W        W42150  34.960   7.235   4.266
73821W        W42151  18.786   5.866  12.087
73822W        W42152  24.611  20.586  10.944
73823W        W42153  30.536   9.395  11.889
73824W        W42154   2.363  12.673   2.685
73825W        W42155   4.711  24.718   0.344
73826W        W42156  23.635  41.922   0.316
73827W        W42157  26.653  41.382  11.972
73828W        W42158  33.930   2.418  14.008
73829W        W42159   4.709  15.698  13.375
73830W        W42160  42.833   7.848  14.848
73831W        W42161   2.298   6.742   2.395
73832W        W42162  19.596  24.998  13.823
73833W        W42163  33.883  41.919  11.107
73834W        W42164   5.271  14.183   2.865
73835W        W42165  19.676  15.729   4.206
73836W        W42166   4.811  24.015   5.183
73837W        W42167  22.608   0.266  13.457
73838W        W42168  39.318  18.233   4.238
73839W        W42169  20.583  35.941  11.602
73840W        W42170  39.015  34.390  11.557
73841W        W42171  34.891  40.809   0.910
73842W        W42172  16.661  35.880  10.469
73843W        W42173  21.698  20.704   0.735
73844W        W42174  10.716  33.428  12.449
73845W        W42175   7.735   1.842  12.501
73846W        W42176  40.502   4.443   3.649
73847W        W42177  39.044  14.704   4.743
73848W        W42178   2.891   2.295   4.635
73849W        W42179   9.372  32.062  12.864
73850W        W42180  38.552   4.791   2.214
73851W        W42181  26.620  14.750  13.042
73852W        W42182  11.629  11.281   0.357
73853W        W42183  44.418   7.260  12.545
73854W        W42184  41.354   1.449  12.060
73855W        W42185  43.284  32.634   0.827
73856W        W42186  37.873  10.237   1.421
73857W        W42187  37.971  35.067   3.832
73858W        W42188  25.694  38.378   4.693
73859W        W42189  24.479  31.149   0.350
73860W        W42190  19.657   8.184   1.875
73861W        W42191  26.470  29.593   3.802
73862W        W42192  38.854  23.684  13.007
73863W        W42193   2.276  44.353   3.661
73864W        W42194  42.818   4.934  12.067
73865W        W42195  24.710  16.246  12.376
73866W        W42196  38.000   1.817  14.458
73867W        W42197  29.037  22.693   2.217
73868W        W42198  27.553  15.710  14.470
73869W        W42199  39.360  31.435   2.875
73870W        W42200  10.714   8.803  10.465
73871W        W42201   0.785  31.086   0.791
73872W        W42202   6.775  13.834  10.568
73873W        W42203  28.587  13.254  12.851
73874W        W42204  34.388  30.032   0.303
73875W        W42205  10.774   8.353  11.059
73876W        W42206   3.791   0.364  10.497
73877W        W42207  27.492  43.971  14.989
73878W        W42208   3.257  23.520   0.824
73879W        W42209  30.011  37.526   0.462
73880W        W42210  28.952  44.464   4.160
73881W        W42211  23.731  37.983  11.420
73882W        W42212  30.612  20.667   2.798
73883W        W42213  26.118  35.074   3.817
73884W        W42214  12.754   9.749  12.096
73885W        W42215   1.765  21.224  14.026
73886W        W42216  37.922   6.189   0.795
73887W        W42217  28.948  37.568  12.902
73888W        W42218   2.370  22.186   3.676
73889W        W42219  15.597   2.888   4.250
73890W        W42220  39.504  42.913  11.408
73891W        W42221   7.859  16.090  12.356
73892W        W42222  33.919  21.041   0.851
73893W        W42223  30.995  21.133   3.745
73894W        W42224  23.001  36.919  11.047
73895W        W42225  41.788   3.833  14.419
73896W        W42226  12.159  32.005  11.515
73897W        W42227  42.994   6.769  14.291
73898W        W42228  21.026   7.834  13.835
73899W        W42229   7.303   5.917   2.878
73900W        W42230  25.074  44.998   0.933
73901W        W42231   9.357  41.472   0.782
73902W        W42232  15.120  39.436   0.794
73903W        W42233  35.066  12.226  12.076
73904W        W42234   9.393  42.450  11.530
73905W        W42235  36.524   6.318  11.409
73906W        W42236   2.277  23.519   0.852
73907W        W42237   3.412  36.407   5.753
73908W        W42238  35.895  30.137   4.254
73909W        W42239   8.790  41.033   4.239
73910W        W42240  15.754  38.531   4.118
73911W        W42241  15.780  29.985   4.115
73912W        W42242  29.435  44.386  12.827
73913W        W42243  30.427  40.417   4.299
73914W        W42244  44.971  42.506  14.800
73915W        W42245  12.739   2.243  14.780
73916W        W42246   3.284   4.878   4.725
73917W        W42247   0.804   5.710  11.562
73918W        W42248   0.456  32.920   4.183
73919W        W42249  20.686   3.929  14.481
73920W        W42250  36.871  10.829  13.874
73921W        W42251  30.994  29.171   2.257
73922W        W42252  35.903  10.722  14.346
73923W        W42253  14.756  20.170  11.487
73924W        W42254  29.593  11.704   1.223
73925W        W42255  43.007  37.970  11.858
73926W        W42256  37.956   9.295   1.351
73927W        W42257  38.463  29.113   1.292
73928W        W42258  21.665  28.053  14.461
73929W        W42259   4.264  24.015   2.284
73930W        W42260  15.759  25.188  13.313
73931W        W42261  17.713  24.045  12.891
73932W        W42262  37.002  35.584  13.540
73933W        W42263  27.618  44.975  14.877
73934W        W42264   0.964  12.211   4.338
73935W        W42265  28.086  21.549  10.998
73936W        W42266  21.560  40.838  14.366
73937W        W42267  24.994  15.793   4.804
73938W        W42268  37.380   4.715   3.703
73939W        W42269  39.520  38.387   0.293
73940W        W42270  43.808  35.447  13.349
73941W        W42271   7.849  33.983  13.807
73942W        W42272  42.440   4.904   0.270
73943W        W42273  32.528   1.400  11.517
73944W        W42274  30.595   9.735  11.567
73945W        W42275   7.709  11.143   4.699
73946W        W42276  31.983  38.534   2.322
73947W        W42277  40.341  44.298   3.162
73948W        W42278  27.576   4.902  13.397
73949W        W42279   6.204  23.671   2.695
73950W        W42280  20.752  20.114   1.265
73951W        W42281  26.122  36.929  13.336
73952W        W42282   2.839   3.834   4.128
73953W        W42283  30.650  15.239  14.355
73954W        W42284  15.816  31.580  12.003
73955W        W42285  43.315  37.881   4.674
73956W        W42286   8.364  10.677   2.418
73957W        W42287  20.213  35.071   1.749
73958W        W42288   7.386   6.202  12.566
73959W        W42289  39.487   4.733   1.924
73960W        W42290  14.743  28.002  12.472
73961W        W42291  21.696  41.955   1.249
73962W        W42292  12.803   5.799  12.850
73963W        W42293   0.877   0.789   4.135
73964W        W42294  20.226  20.673   0.264
73965W        W42295  25.011  13.646  10.938
73966W        W42296   0.483  23.520   4.130
73967W        W42297  10.144   8.802   4.151
73968W        W42298   2.306  22.714   4.164
73969W        W42299   4.748   8.657  12.563
73970W        W42300  28.969  24.088  13.047
73971W        W42301  24.714   6.904   2.182
73972W        W42302  21.624   5.218  10.547
73973W        W42303  14.216  34.486   1.934
73974W        W42304  22.633  37.357  10.505
73975W        W42305  15.726  36.865  12.440
73976W        W42306  16.636   1.460   2.237
73977W        W42307   6.238  22.746   4.661
73978W        W42308  38.473  32.943   2.757
73979W        W42309  43.840  21.086   0.744
73980W        W42310   6.190   7.353  14.977
73981W        W42311  36.004  22.105  10.466
73982W        W42312   3.884  15.587  11.992
73983W        W42313  31.623  29.518  12.473
73984W        W42314  44.385  30.012   4.246
73985W        W42315  27.505  20.165  12.894
73986W        W42316   2.338  12.840   0.814
73987W        W42317   2.416  24.981  12.359
73988W        W42318  25.998  15.243  11.971
73989W        W42319  40.951  42.848  13.966
73990W        W42320   9.240  34.943   2.220
73991W        W42321  35.567  44.399   3.723
73992W        W42322  21.544   1.968   4.704
73993W        W42323  27.612   4.874  10.981
73994W        W42324  25.537  31.137  12.054
73995W        W42325  31.149  42.001  12.509
73996W        W42326  24.509  22.608   4.740
73997W        W42327  16.192  24.013  13.946
73998W        W42328  10.260  32.434   0.304
73999W        W42329  27.049  14.650   4.726
74000W        W42330   3.261  40.357   0.905
74001W        W42331   7.852  35.486   3.733
74002W        W42332  22.714  22.124  11.416
74003W        W42333  40.021  27.528  12.415
74004W        W42334  10.752  32.142   0.794
74005W        W42335  23.151  15.210   3.664
74006W        W42336  24.626  28.625   0.774
74007W        W42337  21.625  13.128   3.660
74008W        W42338  42.938   4.934   1.867
74009W        W42339   9.215  20.664   0.967
74010W        W42340  33.100  15.741   4.697
74011W        W42341   5.775  37.451   3.168
74012W        W42342  42.313  15.193  13.009
74013W        W42343  19.078  24.191   9.927
74014W        W42344  31.114   6.907   2.893
74015W        W42345  12.634  14.312  13.940
74016W        W42346  24.210  35.946   3.215
74017W        W42347  16.654  35.413   5.310
74018W        W42348  19.283   4.856  12.096
74019W        W42349   0.866   7.724   0.393
74020W        W42350  37.857  11.341   3.634
74021W        W42351  34.937  40.966   1.363
74022W        W42352  28.023   1.793  10.099
74023W        W42353  13.732  25.172  14.515
74024W        W42354  21.594  12.693  11.486
74025W        W42355  29.574  38.847  10.940
74026W        W42356  19.706  14.778   0.424
74027W        W42357   2.802  44.818  10.927
74028W        W42358  13.118   0.271  11.933
74029W        W42359  18.617  11.720   2.844
74030W        W42360  15.614  18.108  14.987
74031W        W42361  27.955  16.303   2.721
74032W        W42362  38.494  32.583   3.771
74033W        W42363  33.884   2.947   2.217
74034W        W42364  27.613  24.030  12.341
74035W        W42365  21.607  43.282   3.641
74036W        W42366  41.980   1.800  13.373
74037W        W42367  23.714  22.605   4.243
74038W        W42368  40.799   7.872  14.279
74039W        W42369  37.372   0.450   4.692
74040W        W42370  13.170  10.209  12.567
74041W        W42371  12.611  22.098  14.476
74042W        W42372  40.019  33.087  13.985
74043W        W42373  13.730  24.048   0.770
74044W        W42374  35.556   0.960  11.063
74045W        W42375  18.653  31.970   5.253
74046W        W42376  32.113  15.177   2.749
74047W        W42377  11.791  32.947   3.823
74048W        W42378  36.065  10.733   3.337
74049W        W42379   3.714  32.968   2.352
74050W        W42380  40.389  28.011   2.227
74051W        W42381  35.478  44.865  10.510
74052W        W42382  38.882   2.810  14.323
74053W        W42383  10.199  21.043   3.328
74054W        W42384   2.916  40.455  13.962
74055W        W42385  40.485  22.012   2.395
74056W        W42386  10.712   2.903   3.263
74057W        W42387  31.099  36.465   1.349
74058W        W42388  11.660   9.239   1.377
74059W        W42389  17.113  34.034  11.028
74060W        W42390  34.050  20.247   2.219
74061W        W42391  10.346  23.522  12.452
74062W        W42392  42.455  25.573  14.396
74063W        W42393  32.986  44.282  11.086
74064W        W42394  43.324  28.993  10.590
74065W        W42395  43.795  31.426   0.393
74066W        W42396  37.021  12.361   3.756
74067W        W42397  44.991  21.591  12.580
74068W        W42398  22.135  31.923   4.803
74069W        W42399   7.759   2.310   4.835
74070W        W42400  27.957  28.053   5.232
74071W        W42401  12.627  27.055  11.985
74072W        W42402  25.524  40.470   3.349
74073W        W42403  42.982  38.448  12.963
74074W        W42404  41.376  30.624   4.185
74075W        W42405  31.113  30.983  13.473
74076W        W42406  42.027  44.795  10.532
74077W        W42407   9.393  40.942   0.887
74078W        W42408  27.970  33.909   2.365
74079W        W42409  17.186  17.704   2.749
74080W        W42410  39.973   9.274  14.288
74081W        W42411  19.772  40.942   4.631
74082W        W42412  42.007  37.352   1.819
74083W        W42413  42.810   3.447  12.906
74084W        W42414  28.500  31.018   2.243
74085W        W42415  25.071  15.702  12.483
74086W        W42416   9.663  30.959  12.384
74087W        W42417  28.077  39.985  13.428
74088W        W42418  30.494  10.660  13.856
74089W        W42419  17.200  15.178   4.748
74090W        W42420  29.625   8.710  10.602
74091W        W42421  34.450  29.600   4.224
74092W        W42422  27.997  15.760  11.544
74093W        W42423  34.375  27.499  12.041
74094W        W42424  27.993  34.969   3.171
74095W        W42425  10.265  16.587   2.178
74096W        W42426  20.061  22.161  14.275
74097W        W42427   2.295  16.113  11.070
74098W        W42428  13.111  44.299   0.939
74099W        W42429  35.443  13.340  13.799
74100W        W42430  22.116   4.242   4.701
74101W        W42431  34.519   9.732   0.316
74102W        W42432  33.419  20.754   3.854
74103W        W42433  28.578  27.170  11.491
74104W        W42434  25.654  16.803  10.986
74105W        W42435  42.321  28.094  14.339
74106W        W42436  27.140  14.591  14.909
74107W        W42437  16.781  39.431   2.233
74108W        W42438  11.790  16.239  11.879
74109W        W42439   7.839  28.616  11.064
74110W        W42440   6.412  44.279   2.405
74111W        W42441   8.879  24.007  11.402
74112W        W42442  16.702  37.385  13.368
74113W        W42443  18.246  34.099   4.215
74114W        W42444  22.584  41.949  13.354
74115W        W42445   0.431  28.447   1.893
74116W        W42446  16.568  12.815  12.549
74117W        W42447  39.459  38.861   1.374
74118W        W42448  28.586  25.150   1.928
74119W        W42449  18.568  20.587   2.894
74120W        W42450  27.135   4.727   0.962
74121W        W42451  39.441  23.108  11.980
74122W        W42452   1.464  28.023   3.336
74123W        W42453   6.902   4.741  11.914
74124W        W42454  12.354  14.229   1.247
74125W        W42455  11.853  28.036   2.230
74126W        W42456  42.349  42.967   0.955
74127W        W42457   5.831  20.230  14.761
74128W        W42458   0.250  25.082  11.410
74129W        W42459  30.017   3.859   0.932
74130W        W42460  18.056  38.909   2.723
74131W        W42461  14.295   8.299  12.075
74132W        W42462  41.470   5.797   3.377
74133W        W42463  16.204  14.746   0.844
74134W        W42464  31.954  11.848  11.894
74135W        W42465  26.029  15.156  11.567
74136W        W42466  21.524  32.419   4.704
74137W        W42467  20.134  23.111   4.162
74138W        W42468  30.484  16.145  11.128
74139W        W42469   4.843  33.393   2.333
74140W        W42470   4.236   6.732  14.832
74141W        W42471  22.090  10.780   5.753
74142W        W42472  23.682  13.169  13.826
74143W        W42473  23.174  18.718   3.373
74144W        W42474   9.247  21.656  12.449
74145W        W42475  42.345  28.444  11.983
74146W        W42476  24.495  31.059  13.936
74147W        W42477  16.251   7.321  14.344
74148W        W42478  13.189  19.146   2.857
74149W        W42479  22.173  39.448   4.312
74150W        W42480  14.191   5.318  14.991
74151W        W42481  26.169  28.556  14.896
74152W        W42482  31.955  20.081  11.004
74153W        W42483  39.975  39.824   4.207
74154W        W42484   3.312   1.782  10.972
74155W        W42485   9.699   8.196  12.920
74156W        W42486  30.111  33.921  11.120
74157W        W42487   7.337   2.948  11.586
74158W        W42488  41.827  24.571   4.334
74159W        W42489  36.582  15.178  12.344
74160W        W42490  17.621   7.706  11.101
74161W        W42491  17.118   5.881  12.536
74162W        W42492  26.050   2.389   0.753
74163W        W42493  36.528  14.335  12.481
74164W        W42494  26.591  15.733   3.236
74165W        W42495  22.683   3.266   3.638
74166W        W42496  20.577  35.526  12.922
74167W        W42497   1.426  38.965   4.197
74168W        W42498  12.632  38.476   3.639
74169W        W42499  38.011  34.587  13.471
74170W        W42500  26.671  11.305  14.992
74171W        W42501  43.822   5.787   1.931
74172W        W42502  32.524  40.946   4.168
74173W        W42503  22.238  38.444  14.897
74174W        W42504  41.527  43.504  13.544
74175W        W42505  41.003  33.905   0.260
74176W        W42506  42.470   1.355   4.170
74177W        W42507  23.008  41.313   2.248
74178W        W42508  43.841  36.574   3.348
74179W        W42509  17.122   3.396  14.391
74180W        W42510   8.402  42.458  14.474
74181W        W42511   0.811  22.699  10.933
74182W        W42512  34.923  41.788  14.894
74183W        W42513  19.569   5.384  10.520
74184W        W42514  14.225  18.107  14.951
74185W        W42515   8.211  10.356   3.289
74186W        W42516  22.556  17.197   2.765
74187W        W42517  41.798  34.055   4.796
74188W        W42518  17.579  26.053   2.869
74189W        W42519  17.269  23.512  14.017
74190W        W42520  16.588  15.791   2.214
74191W        W42521  36.946  36.483  14.879
74192W        W42522  40.829  32.597   2.388
74193W        W42523  12.774   5.390  14.275
74194W        W42524  36.422   4.811  11.073
74195W        W42525   4.851   9.317   2.839
74196W        W42526   5.904  16.681   1.709
74197W        W42527  35.959  40.871  11.404
74198W        W42528  42.370   3.329  12.421
74199W        W42529  26.674  39.395  14.330
74200W        W42530  25.031  33.597   2.259
74201W        W42531  24.503   2.806   2.820
74202W        W42532   7.218  40.829   1.413
74203W        W42533   0.924  44.775  12.402
74204W        W42534  19.240   7.677   1.799
74205W        W42535  32.887  35.583  14.876
74206W        W42536  16.139  25.632  13.438
74207W        W42537  29.425  26.142   3.329
74208W        W42538  43.865  31.538  11.475
74209W        W42539  37.483  41.524  12.000
74210W        W42540  40.334  43.859  13.894
74211W        W42541  15.615  42.423   0.246
74212W        W42542  17.153  22.567  11.927
74213W        W42543   4.275  36.577  13.462
74214W        W42544  19.758  17.739  14.286
74215W        W42545  35.003  17.168   2.343
74216W        W42546  20.610  19.128  13.965
74217W        W42547  39.832  30.542  13.791
74218W        W42548  26.681  18.755  10.977
74219W        W42549   7.370   1.840  14.011
74220W        W42550   3.419  16.136   4.118
74221W        W42551  14.328   3.337  10.927
74222W        W42552  30.999  25.645  13.358
74223W        W42553  27.686  18.720   1.327
74224W        W42554  34.112  36.883   0.243
74225W        W42555  27.662   3.784  11.443
74226W        W42556   9.751  20.638   1.735
74227W        W42557  33.010  22.524  12.869
74228W        W42558  15.610  15.171   0.963
74229W        W42559  21.742  26.490   2.883
74230W        W42560  20.232   2.428  10.983
74231W        W42561  22.050  23.008   4.664
74232W        W42562  23.720  44.775   1.352
74233W        W42563  29.955  24.650   2.220
74234W        W42564  32.590  24.685  12.840
74235W        W42565  41.300  26.592  12.507
74236W        W42566  31.974  37.952  14.499
74237W        W42567  37.361  19.123  12.990
74238W        W42568  44.806  19.763  11.509
74239W        W42569  41.447  32.919   0.955
74240W        W42570  38.335   3.794   2.741
74241W        W42571   1.408  29.649   2.284
74242W        W42572  36.400  38.393  11.115
74243W        W42573  19.741  10.865  12.845
74244W        W42574  41.026  36.525  11.884
74245W        W42575  17.800  23.711  11.555
74246W        W42576  24.021  14.826   1.450
74247W        W42577  32.055  36.491  11.537
74248W        W42578   2.821  42.505   3.784
74249W        W42579   2.303  42.875   2.291
74250W        W42580  15.664   2.832  11.544
74251W        W42581   5.731  15.226   4.281
74252W        W42582  30.468  39.820  11.113
74253W        W42583  22.996   7.270   4.127
74254W        W42584  14.739   8.323  11.575
74255W        W42585   0.988  33.457  14.920
74256W        W42586  18.571  29.101  14.781
74257W        W42587   1.304   0.416  11.502
74258W        W42588  15.673  33.961  13.971
74259W        W42589  26.067  21.146  11.608
74260W        W42590  13.105  18.191   4.637
74261W        W42591   3.888  24.149   1.771
74262W        W42592   4.406  40.340  10.985
74263W        W42593  18.100  43.816  11.469
74264W        W42594  35.053  33.490  10.920
74265W        W42595   4.879  28.437   0.262
74266W        W42596   6.708  34.373  12.452
74267W        W42597  10.695  31.065  12.454
74268W        W42598  25.671  13.829   3.290
74269W        W42599   8.766  40.978   4.652
74270W        W42600  10.324   6.400   2.817
74271W        W42601  16.622  15.114  10.507
74272W        W42602  30.126  21.753  12.078
74273W        W42603  26.207   0.932  10.635
74274W        W42604  35.096  31.593   3.796
74275W        W42605   1.428  19.230  12.408
74276W        W42606  19.728   4.344  12.579
74277W        W42607   7.221  33.614  10.546
74278W        W42608  15.088  18.757   1.380
74279W        W42609  20.234  35.923  13.014
74280W        W42610  33.130   1.241  14.943
74281W        W42611   8.717   7.762   5.305
74282W        W42612  35.413  30.981  12.356
74283W        W42613  35.963  37.502   0.742
74284W        W42614  30.624   6.226  11.531
74285W        W42615  27.000   1.760   0.830
74286W        W42616  27.949  16.170  10.624
74287W        W42617  33.021  23.019  10.987
74288W        W42618  22.543   7.416   5.728
74289W        W42619   9.886  33.104   1.816
74290W        W42620  23.733  15.101  10.500
74291W        W42621   8.208  21.144  10.568
74292W        W42622   9.286   2.404   3.379
74293W        W42623  32.986   5.933  11.933
74294W        W42624  21.590  18.687   1.387
74295W        W42625  39.027   1.940  10.434
74296W        W42626  41.536  20.665  12.467
74297W        W42627  42.520  27.449  14.983
74298W        W42628   6.301  41.443  10.936
74299W        W42629  33.046  24.545   0.349
74300W        W42630  35.536  18.723  13.385
74301W        W42631  34.606  13.747   0.402
74302W        W42632  35.416  24.681   1.366
74303W        W42633  32.969   4.385  13.354
74304W        W42634  28.016   4.236   4.820
74305W        W42635  36.446  32.533   1.361
74306W        W42636  24.695  32.503  14.803
74307W        W42637  11.203  42.905  14.975
74308W        W42638   8.698  26.102  14.915
74309W        W42639  28.123  28.033  14.759
74310W        W42640  33.938   3.239   5.137
74311W        W42641   1.272  34.896  13.820
74312W        W42642   0.922  26.994  14.378
74313W        W42643  15.618  38.066  11.512
74314W        W42644  19.776   4.317  14.380
74315W        W42645   1.969  17.789  12.970
74316W        W42646  21.192  12.236   1.742
74317W        W42647  22.532  27.095  14.806
74318W        W42648  38.489   6.872  12.449
74319W        W42649  40.954  41.912   4.148
74320W        W42650  41.874  24.523   4.624
74321W        W42651  15.211  44.310   0.392
74322W        W42652  21.241  34.434  14.873
74323W        W42653  20.597   3.421   4.154
74324W        W42654  13.294  26.069  10.574
74325W        W42655   2.345  42.907   5.268
74326W        W42656   9.795  36.371  13.796
74327W        W42657  15.753  28.067   1.320
74328W        W42658  40.041  16.746  13.966
74329W        W42659  40.018  31.926  12.088
74330W        W42660  15.751   9.780   3.848
74331W        W42661   6.293  41.514  14.872
74332W        W42662  11.854   6.386   3.322
74333W        W42663  39.521  34.546   3.236
74334W        W42664  27.621  13.313   0.282
74335W        W42665  20.192  38.956   2.833
74336W        W42666  15.599  20.164  14.423
74337W        W42667  12.230  12.310  13.810
74338W        W42668  30.505   5.372   2.804
74339W        W42669  13.836  36.565  12.896
74340W        W42670   4.914  28.129  12.912
74341W        W42671  17.099  22.179  13.433
74342W        W42672  24.218  33.040   2.779
74343W        W42673  21.721   9.814   3.150
74344W        W42674  29.500  15.109  13.451
74345W        W42675  38.366  44.938  12.977
74346W        W42676  41.839  43.462  11.016
74347W        W42677  37.936  35.996  11.442
74348W        W42678   6.753  14.256  14.785
74349W        W42679  38.563  22.720  13.382
74350W        W42680  37.577   1.833  13.507
74351W        W42681  25.988   2.756  10.616
74352W        W42682  27.165  27.623  11.004
74353W        W42683  37.352  31.000  12.471
74354W        W42684  28.149   0.281   1.298
74355W        W42685  21.065  20.699   0.331
74356W        W42686  13.719  29.072   1.713
74357W        W42687  11.849  16.234   4.262
74358W        W42688  20.764  22.151  10.582
74359W        W42689  18.076  38.868   2.308
74360W        W42690   7.818  29.932   3.691
74361W        W42691  36.377  42.310   3.844
74362W        W42692  26.661   5.700  10.142
74363W        W42693   4.303  39.349   2.250
74364W        W42694  12.224  44.335   2.336
74365W        W42695   4.424   8.860  11.117
74366W        W42696  18.676  11.627   0.355
74367W        W42697  44.754  26.697  11.444
74368W        W42698  27.107   5.910  13.345
74369W        W42699  23.154  23.151  12.984
74370W        W42700  33.977  42.994  14.428
74371W        W42701  30.513   8.790   1.832
74372W        W42702  21.070  39.015   1.427
74373W        W42703  42.436  41.301   4.620
74374W        W42704  19.245  40.864   0.300
74375W        W42705  31.097  30.141  14.478
74376W        W42706  39.043   5.223   0.245
74377W        W42707  41.801  40.014  14.887
74378W        W42708  11.727   5.278  11.486
74379W        W42709  32.512  34.102   2.388
74380W        W42710  44.420  41.034   0.885
74381W        W42711   9.750  36.070  11.099
74382W        W42712  41.525  33.960  14.418
74383W        W42713   6.274  35.954   3.169
74384W        W42714  10.849  24.670  13.473
74385W        W42715   9.155  32.062  14.928
74386W        W42716  28.549   0.940   1.324
74387W        W42717  21.101   9.303  13.543
74388W        W42718   6.306  13.316  14.967
74389W        W42719  38.878  23.552   5.297
74390W        W42720  17.222  34.455  13.421
74391W        W42721  27.122  35.481   1.409
74392W        W42722  12.285   9.306   0.916
74393W        W42723  27.141  43.984  12.971
74394W        W42724  37.877  23.495  12.495
74395W        W42725   6.752  32.921  14.891
74396W        W42726  16.091  16.109  10.967
74397W        W42727  12.631  31.438  11.925
74398W        W42728   7.334  25.702   2.356
74399W        W42729  31.428  31.644  10.554
74400W        W42730  34.458  33.097  10.961
74401W        W42731  17.728  22.116   5.751
74402W        W42732  36.530  14.277   2.293
74403W        W42733  30.128   5.838   3.718
74404W        W42734   4.871  40.382   3.290
74405W        W42735  35.931  17.713   1.311
74406W        W42736  12.769  32.561  13.030
74407W        W42737  44.440  26.649  14.978
74408W        W42738  18.278   6.903  11.510
74409W        W42739  26.959   3.752   2.347
74410W        W42740  32.448  32.421   4.345
74411W        W42741   5.387  39.862  12.030
74412W        W42742   6.872   2.757  11.486
74413W        W42743  25.628  16.661   4.285
74414W        W42744   5.794  15.806  10.476
74415W        W42745  37.037  36.508   1.785
74416W        W42746  38.005  13.765   2.822
74417W        W42747  25.075   8.845   2.282
74418W        W42748  41.331  11.835  11.930
74419W        W42749   7.311  18.713   0.319
74420W        W42750   4.895  20.652  12.951
74421W        W42751   1.297   5.849  13.805
74422W        W42752  15.766   3.452  13.413
74423W        W42753  31.971   5.199   5.164
74424W        W42754  39.812   4.793   4.605
74425W        W42755  36.080  33.504  12.975
74426W        W42756  32.453  30.439   4.291
74427W        W42757  18.228  29.509   4.239
74428W        W42758   6.876  34.095  13.918
74429W        W42759  13.191  16.586  14.494
74430W        W42760  22.586  18.552  12.389
74431W        W42761  12.125  29.542  11.116
74432W        W42762  35.548   3.723  13.881
74433W        W42763   4.244  22.112  11.573
74434W        W42764  20.120  28.110   0.339
74435W        W42765  20.706  30.965   1.709
74436W        W42766  18.685  15.802  14.905
74437W        W42767   6.267  39.522  13.892
74438W        W42768  33.568  29.083  14.908
74439W        W42769  16.088  37.384   9.487
74440W        W42770  44.868   9.711   1.378
74441W        W42771  21.664  43.979  13.836
74442W        W42772  16.588  25.597  13.927
74443W        W42773   8.792  30.921   1.785
74444W        W42774   1.823  36.414  14.455
74445W        W42775  41.032   5.220  11.609
74446W        W42776  19.692   8.740   2.898
74447W        W42777  17.216  27.604  12.009
74448W        W42778  15.680  42.499   2.351
74449W        W42779  16.735   3.332  11.512
74450W        W42780   8.718  31.923  11.489
74451W        W42781   7.313  18.686  10.419
74452W        W42782  20.687  35.501   2.751
74453W        W42783  36.034  11.283   2.814
74454W        W42784   7.351   9.358  10.412
74455W        W42785  15.158   2.398  11.900
74456W        W42786  32.555  38.971   0.747
74457W        W42787  14.650   7.338   9.930
74458W        W42788  11.169   6.253  14.824
74459W        W42789   2.737  16.086   2.297
74460W        W42790   3.443   7.225  14.284
74461W        W42791  37.375  17.235   1.897
74462W        W42792  23.104  44.917   3.814
74463W        W42793  13.708  26.457   0.301
74464W        W42794   1.422  36.412  10.569
74465W        W42795  14.797  31.495   1.402
74466W        W42796   1.421   7.400  13.050
74467W        W42797  23.225  41.357  12.983
74468W        W42798  17.163  25.217  14.356
74469W        W42799  28.045  10.775   4.608
74470W        W42800   5.810  23.185   3.646
74471W        W42801  27.487   3.878   2.836
74472W        W42802  26.516  32.132   5.240
74473W        W42803  13.821  22.567  12.435
74474W        W42804  30.477  24.696  12.516
74475W        W42805  26.684  44.313  11.886
74476W        W42806  21.706  20.098  13.971
74477W        W42807   4.796   8.385   0.383
74478W        W42808  21.254   7.910   1.362
74479W        W42809  28.663   6.715  13.364
74480W        W42810   5.381  29.546  14.879
74481W        W42811   0.269  26.643  10.617
74482W        W42812  21.646   3.424  10.636
74483W        W42813  41.502  26.985   2.261
74484W        W42814  39.870  14.113   4.295
74485W        W42815  33.930  12.266   1.232
74486W        W42816  41.018  35.578   3.661
74487W        W42817  40.363  11.683  12.495
74488W        W42818  24.203  28.093  14.373
74489W        W42819   4.917  10.361  13.408
74490W        W42820   1.460  35.919  12.429
74491W        W42821  28.494  11.834   5.114
74492W        W42822  30.161  16.676   1.307
74493W        W42823  40.450  11.711  11.583
74494W        W42824   1.276  18.751   2.352
74495W        W42825  36.545  26.086  11.985
74496W        W42826  28.663   6.871  13.994
74497W        W42827  16.271  43.373  13.860
74498W        W42828  35.358  27.493   0.447
74499W        W42829  11.785  12.281   2.853
74500W        W42830  19.662  40.362   1.391
74501W        W42831   0.951  36.496  12.919
74502W        W42832  33.542   6.370   3.773
74503W        W42833  12.802  36.539  12.918
74504W        W42834  42.444   4.787   3.183
74505W        W42835   1.843  11.129  12.393
74506W        W42836  37.429  37.434  14.819
74507W        W42837  33.601  27.168  14.908
74508W        W42838  16.293  29.553   4.777
74509W        W42839  32.106  13.329   4.675
74510W        W42840  28.108  36.455   1.866
74511W        W42841  16.678  33.481  14.347
74512W        W42842   7.381   9.220  11.922
74513W        W42843  29.592  40.934  14.965
74514W        W42844   1.836  17.638  14.763
74515W        W42845  37.571  24.569   2.372
74516W        W42846  33.452   6.805   3.868
74517W        W42847  41.941   1.413  12.488
74518W        W42848  14.831  14.141   5.094
74519W        W42849   2.877  11.209   2.677
74520W        W42850  13.630   7.296  13.036
74521W        W42851  25.489  31.025  14.984
74522W        W42852  24.980  19.101  11.434
74523W        W42853  35.536  22.089   1.739
74524W        W42854  26.661   5.856   1.394
74525W        W42855   8.275   7.195   4.656
74526W        W42856   1.446  11.142  12.956
74527W        W42857  10.288   6.833  12.388
74528W        W42858  43.896   7.299  10.544
74529W        W42859  30.415  44.914  10.917
74530W        W42860  43.339  17.749   3.850
74531W        W42861  44.859  36.917   4.765
74532W        W42862  36.039  26.663  13.845
74533W        W42863   7.876   5.390  12.081
74534W        W42864   2.368  24.152   4.207
74535W        W42865  22.092  33.534   1.392
74536W        W42866   3.377  32.524  14.414
74537W        W42867  14.642  24.622   0.256
74538W        W42868  15.304  10.867  14.415
74539W        W42869  20.146  25.974   1.316
74540W        W42870  29.104  39.352  10.472
74541W        W42871  24.499  10.869  12.409
74542W        W42872   7.715  27.144   4.253
74543W        W42873   7.249  43.507  11.383
74544W        W42874   0.372  26.617  12.489
74545W        W42875  13.614  20.693   3.190
74546W        W42876  19.716   8.365  12.041
74547W        W42877  33.960  25.540   3.814
74548W        W42878   6.351  13.641  14.487
74549W        W42879  20.662  34.943  14.815
74550W        W42880  12.733   1.948  13.021
74551W        W42881   1.311  22.166   2.414
74552W        W42882  30.604  18.156   1.402
74553W        W42883  43.447  25.484   1.301
74554W        W42884  29.601  12.290   1.892
74555W        W42885   4.393  14.691   3.780
74556W        W42886  18.248  42.456  13.057
74557W        W42887  41.863  11.624   0.843
74558W        W42888  28.653  24.713  13.935
74559W        W42889  37.470  36.934  12.074
74560W        W42890  18.755   5.763  12.942
74561W        W42891  32.506   1.395   4.181
74562W        W42892  43.901  27.558  14.408
74563W        W42893  17.180  26.066  10.624
74564W        W42894  34.041  20.109  10.975
74565W        W42895  44.466  31.517  13.325
74566W        W42896   5.753  35.968   4.146
74567W        W42897   4.735  34.386  10.009
74568W        W42898  18.102  18.603   1.853
74569W        W42899  22.998   0.839  11.378
74570W        W42900  10.652  28.558   0.831
74571W        W42901   9.686   1.381   1.260
74572W        W42902  44.436  21.541  13.821
74573W        W42903  30.140  29.517   0.896
74574W        W42904  13.666  18.642  14.354
74575W        W42905  36.351  35.438   2.826
74576W        W42906  35.364  27.006  13.931
74577W        W42907  33.475  10.333   2.707
74578W        W42908  40.949  41.359   4.609
74579W        W42909  13.670  29.557  13.052
74580W        W42910  23.183  37.027   4.207
74581W        W42911  10.718  16.277   3.360
74582W        W42912   2.237  40.895   2.773
74583W        W42913  41.900  33.039  12.874
74584W        W42914  14.296   0.313   0.418
74585W        W42915  38.928  35.386  13.989
74586W        W42916  19.271  42.891  14.455
74587W        W42917  31.910  24.007   4.352
74588W        W42918   0.361  41.953  14.980
74589W        W42919  30.432   9.679  10.434
74590W        W42920  10.239  10.666   1.441
74591W        W42921  24.611  12.239  11.566
74592W        W42922  18.641  33.620   1.419
74593W        W42923  24.684  30.518  11.537
74594W        W42924  27.030   7.705  14.859
74595W        W42925  21.602  36.444   0.409
74596W        W42926   8.223   3.383  12.090
74597W        W42927  29.468   6.380  13.910
74598W        W42928  19.247  24.204  11.948
74599W        W42929  31.647  33.928   2.679
74600W        W42930  36.393  37.854   1.774
74601W        W42931  20.039   9.156   3.286
74602W        W42932  17.123  41.375   4.625
74603W        W42933  33.438  16.687  11.975
74604W        W42934   1.469   8.803  11.554
74605W        W42935  36.478  38.506   2.382
74606W        W42936  16.791  22.137   3.850
74607W        W42937  27.990  44.834  13.874
74608W        W42938  19.277  40.892   0.861
74609W        W42939  34.575   0.404   4.683
74610W        W42940   2.311  29.513   0.854
74611W        W42941  41.389  29.175  13.478
74612W        W42942  21.673  11.752  11.471
74613W        W42943  25.535   4.261  14.807
74614W        W42944   7.390   8.785  12.008
74615W        W42945  23.666  41.456  13.443
74616W        W42946  17.091  10.208  14.500
74617W        W42947  26.484  20.556   4.197
74618W        W42948   8.861  36.540  14.001
74619W        W42949  36.447  34.544   0.300
74620W        W42950  12.626  40.331   1.359
74621W        W42951  10.251  31.963  11.898
74622W        W42952   4.840  31.913   3.364
74623W        W42953   6.344  39.374   3.788
74624W        W42954  22.092  43.452  13.415
74625W        W42955  12.812   5.223  12.516
74626W        W42956  19.239  23.127   0.808
74627W        W42957  26.049  38.934   3.262
74628W        W42958  27.053  28.017  14.916
74629W        W42959   4.430  32.579   2.886
74630W        W42960  27.544  15.246   1.425
74631W        W42961  31.601   0.918   4.204
74632W        W42962  22.710   4.370  12.090
74633W        W42963  30.440  35.085  10.527
74634W        W42964  24.609  29.583   4.727
74635W        W42965  36.913  24.714   4.833
74636W        W42966   9.297   2.748   3.700
74637W        W42967  22.698  20.620  10.621
74638W        W42968  12.653  10.878   1.792
74639W        W42969  25.002  39.532   4.603
74640W        W42970  27.573  37.542   4.731
74641W        W42971  37.409   8.197   0.452
74642W        W42972  17.557  20.042  10.545
74643W        W42973  24.497  38.861  13.876
74644W        W42974  36.402  29.118   2.796
74645W        W42975  25.140  44.846  13.316
74646W        W42976  15.142   4.437   2.822
74647W        W42977  44.966  38.906  13.378
74648W        W42978   2.815   1.341   1.860
74649W        W42979  11.202  26.181   1.854
74650W        W42980  44.454  16.777  14.327
74651W        W42981  39.525  29.496  13.334
74652W        W42982  28.518  12.782   0.877
74653W        W42983  25.046  22.728   5.148
74654W        W42984   5.886  33.024   0.932
74655W        W42985  30.543  28.537   1.908
74656W        W42986  34.983   8.342   4.644
74657W        W42987   7.904  25.082   9.994
74658W        W42988   2.451   2.251  11.416
74659W        W42989  23.733  18.182  11.988
74660W        W42990  16.173  12.844   3.338
74661W        W42991  35.011   7.319  12.476
74662W        W42992  44.431  41.900  13.011
74663W        W42993  14.147  22.080  11.896
74664W        W42994  35.543  42.830  12.986
74665W        W42995  32.076  28.976   2.679
74666W        W42996  39.527  28.600  12.491
74667W        W42997   4.259  22.130  14.777
74668W        W42998   8.722  44.309  11.410
74669W        W42999  33.407  43.357   2.280
74670W        W43000  28.464  23.082   4.285
74671W        W43001  26.651  22.550  10.906
74672W        W43002  32.057  15.273   4.211
74673W        W43003  11.323   9.303  13.494
74674W        W43004  31.067  14.230  12.067
74675W        W43005  15.737  22.189   1.362
74676W        W43006  43.491   3.882  11.406
74677W        W43007   3.768  26.116   0.478
74678W        W43008  17.234  20.744  10.967
74679W        W43009   6.426  27.144   3.335
74680W        W43010   7.195   9.646  11.511
74681W        W43011  43.368  36.953  14.959
74682W        W43012  25.624  32.025  13.900
74683W        W43013  32.572  36.028  13.977
74684W        W43014  10.807  42.291  12.993
74685W        W43015  33.547  29.562   4.284
74686W        W43016  40.993  30.639  10.546
74687W        W43017  39.868   3.805  11.510
74688W        W43018   7.220  42.862   4.645
74689W        W43019  13.281  14.272   5.181
74690W        W43020  24.536   5.899   4.822
74691W        W43021  12.125  43.274   1.850
74692W        W43022  32.977  18.128   3.816
74693W        W43023  19.693   6.313   3.831
74694W        W43024  19.537  40.816  10.554
74695W        W43025   8.188  17.213   3.703
74696W        W43026   9.263  37.568   0.248
74697W        W43027  13.629  39.368  14.785
74698W        W43028  13.800   5.696  10.632
74699W        W43029  30.973  31.130   2.726
74700W        W43030  38.466   4.389  12.079
74701W        W43031  37.578   3.248   0.842
74702W        W43032  12.141  33.885  14.423
74703W        W43033  12.754   3.868   2.258
74704W        W43034  12.126   4.265  10.628
74705W        W43035  32.403  19.160   4.657
74706W        W43036  23.007  23.612   0.880
74707W        W43037  17.154  41.317   0.483
74708W        W43038   6.753  44.998   4.139
74709W        W43039  44.916  20.613   4.317
74710W        W43040  12.647  32.520   4.223
74711W        W43041  43.918  16.805   0.288
74712W        W43042  30.631  42.806  14.881
74713W        W43043   6.697  16.670   1.843
74714W        W43044  29.588  41.513   4.248
74715W        W43045  27.947  40.931   1.921
74716W        W43046   4.902  25.199  14.802
74717W        W43047   8.702   5.816   4.181
74718W        W43048  13.116   4.727  12.539
74719W        W43049  10.830  18.286  12.510
74720W        W43050  17.302  23.640  10.101
74721W        W43051  27.049  43.397  10.910
74722W        W43052  44.286   0.422   1.451
74723W        W43053  18.138  36.413  13.476
74724W        W43054  21.563  28.119   3.167
74725W        W43055  15.217  26.619   0.335
74726W        W43056  39.479  14.702   1.440
74727W        W43057  19.205  10.296  11.381
74728W        W43058  38.425   0.815   3.190
74729W        W43059   4.936   6.830   1.409
74730W        W43060  38.399  33.530  12.039
74731W        W43061   3.811   5.918   3.158
74732W        W43062  35.872   0.810   4.324
74733W        W43063   6.427   6.829   0.914
74734W        W43064  36.476  38.040  13.024
74735W        W43065  25.535  34.951  11.398
74736W        W43066  26.638   7.854   1.877
74737W        W43067  29.956  22.040   3.812
74738W        W43068   1.942  41.517   3.663
74739W        W43069  18.181   7.747   4.290
74740W        W43070   6.685  15.599   0.457
74741W        W43071  18.563  15.612  10.144
74742W        W43072   3.861  37.494  12.516
74743W        W43073  38.942  40.865   2.411
74744W        W43074  38.069  41.301  11.105
74745W        W43075  31.917   6.256  12.008
74746W        W43076   6.228   5.712   0.779
74747W        W43077  26.057   1.852  13.513
74748W        W43078   8.221   3.454   2.811
74749W        W43079  26.174  38.028   2.813
74750W        W43080  32.897  38.044   0.847
74751W        W43081  21.263  33.970   0.864
74752W        W43082  21.616  22.561  14.344
74753W        W43083  12.749  21.614  10.614
74754W        W43084  39.049  42.460  10.450
74755W        W43085  16.232   8.742   1.286
74756W        W43086   2.807  21.073   2.887
74757W        W43087  18.051  26.120   1.284
74758W        W43088  20.166  36.941  13.486
74759W        W43089  27.593  35.967  10.983
74760W        W43090  35.434  39.028  14.818
74761W        W43091  44.261  39.489   2.724
74762W        W43092   9.342  17.281  13.008
74763W        W43093  44.468  36.501  11.025
74764W        W43094   7.708  42.926   9.982
74765W        W43095  29.542  37.514   2.737
74766W        W43096   0.418  14.797   0.375
74767W        W43097   4.435  33.575   3.820
74768W        W43098  21.083  39.834   1.721
74769W        W43099  25.505  12.298   0.332
74770W        W43100  11.202  22.623  11.951
74771W        W43101  19.702   2.766  12.040
74772W        W43102  31.643  34.071   1.242
74773W        W43103   0.350  12.273  11.606
74774W        W43104  18.183  16.674  11.105
74775W        W43105  31.506   0.357  14.346
74776W        W43106  41.384  26.125   2.860
74777W        W43107  22.669  37.408   3.732
74778W        W43108  21.028   3.295  10.554
74779W        W43109   8.811  24.689  14.338
74780W        W43110  43.891  13.140   1.419
74781W        W43111  40.008  44.886  10.491
74782W        W43112  36.863  11.336   2.289
74783W        W43113   4.334  36.883   5.234
74784W        W43114  21.605  39.890   5.274
74785W        W43115  30.067   3.333   2.273
74786W        W43116  40.324  34.509  14.863
74787W        W43117   8.867   0.459  13.797
74788W        W43118  14.714  40.039   1.749
74789W        W43119  12.214  28.442   2.843
74790W        W43120  36.373  28.549   2.368
74791W        W43121  10.738  29.127  13.526
74792W        W43122  20.128   5.758  11.032
74793W        W43123  35.492  13.699   3.259
74794W        W43124  20.550  43.279   2.856
74795W        W43125  25.709  30.497  12.857
74796W        W43126   4.907  22.559   1.288
74797W        W43127   0.344  39.940  13.488
74798W        W43128  41.953  38.859  14.954
74799W        W43129  20.106   3.329   3.844
74800W        W43130  35.066  14.646   1.400
74801W        W43131  12.652  30.492  11.983
74802W        W43132  33.129  43.415   1.877
74803W        W43133  20.558  28.940  13.404
74804W        W43134  24.157  22.032   1.270
74805W        W43135  39.056  10.679  14.944
74806W        W43136  29.519  28.118   5.304
74807W        W43137  27.603  30.943   5.141
74808W        W43138  29.604  25.139   4.167
74809W        W43139  41.929  34.474  14.385
74810W        W43140   8.192  44.441  11.034
74811W        W43141  27.510  31.011   0.880
74812W        W43142  16.212  29.592  12.092
74813W        W43143  14.707  41.523   0.248
74814W        W43144  44.858  31.019   4.328
74815W        W43145  24.032  30.934   3.267
74816W        W43146  13.829  15.319  13.892
74817W        W43147  31.931   6.323  14.892
74818W        W43148  14.254  43.810   1.752
74819W        W43149  19.677  21.039  14.389
74820W        W43150  30.079   6.691   4.138
74821W        W43151  14.781  34.953   2.757
74822W        W43152  20.720   6.719   3.705
74823W        W43153  16.745   0.396  10.576
74824W        W43154  20.218  28.569   2.224
74825W        W43155  27.082  41.901  12.378
74826W        W43156  26.172  16.129   2.235
74827W        W43157  11.856  27.535  13.410
74828W        W43158   2.232  23.138  12.345
74829W        W43159  12.753  30.974   4.709
74830W        W43160  35.906   5.220   0.285
74831W        W43161  32.572  27.587  14.870
74832W        W43162  11.724  22.551  11.515
74833W        W43163  21.731  41.326  11.494
74834W        W43164  35.485  16.570   2.394
74835W        W43165  35.556  13.621  12.095
74836W        W43166  25.701   9.207   1.757
74837W        W43167   5.782  19.164   2.278
74838W        W43168  40.851  33.389  10.996
74839W        W43169  20.709  34.998   2.870
74840W        W43170  28.466  16.318  14.031
74841W        W43171  15.245  15.165  11.977
74842W        W43172  13.222  37.045  13.379
74843W        W43173  41.400  14.767  14.410
74844W        W43174   5.818   6.913  10.461
74845W        W43175  18.734  30.122  12.441
74846W        W43176  20.062   7.242   0.257
74847W        W43177  16.080  11.174   4.660
74848W        W43178  24.199  10.202   4.637
74849W        W43179  27.570  36.433  11.993
74850W        W43180   8.309  36.575   0.822
74851W        W43181   4.234  37.415   4.670
74852W        W43182  24.680  16.292   3.642
74853W        W43183  37.469  44.010   4.671
74854W        W43184  41.043   8.761   5.304
74855W        W43185  25.648  26.557   0.883
74856W        W43186  21.604  18.100   0.909
74857W        W43187  17.784  30.466   0.442
74858W        W43188  18.776  14.206   1.300
74859W        W43189  35.036   8.663   2.188
74860W        W43190  27.647  20.689  14.838
74861W        W43191  40.318   1.919   2.370
74862W        W43192   9.258   1.237  11.419
74863W        W43193  22.633   4.878  10.110
74864W        W43194  19.205  22.560  14.395
74865W        W43195  44.806  27.571   3.819
74866W        W43196  34.394  18.151   1.804
74867W        W43197  20.528   4.238   2.822
74868W        W43198  12.222  31.480   4.745
74869W        W43199  42.298   1.242   1.227
74870W        W43200  15.802   9.221   4.720
74871W        W43201  25.010  29.994  12.479
74872W        W43202  39.920  35.425   2.270
74873W        W43203  26.044  42.934  13.007
74874W        W43204  29.562  39.335   1.920
74875W        W43205  23.576  39.809  14.439
74876W        W43206   2.786  11.627   4.253
74877W        W43207  24.590  21.589  11.046
74878W        W43208   8.179  15.091   4.627
74879W        W43209   7.410   5.749  13.830
74880W        W43210  44.892  33.090  10.550
74881W        W43211  12.727  31.986   3.738
74882W        W43212   1.305  44.401  13.951
74883W        W43213  24.690  14.182  12.043
74884W        W43214   1.962  12.662  10.485
74885W        W43215  30.479  38.935   3.347
74886W        W43216  35.001   3.868   2.794
74887W        W43217  33.384  21.550  13.329
74888W        W43218  30.577  31.937  14.368
74889W        W43219  39.363  19.096   4.618
74890W        W43220   4.792  31.049   5.312
74891W        W43221  31.110  13.639   2.874
74892W        W43222  15.109  33.933   2.744
74893W        W43223  14.202  10.730  10.594
74894W        W43224  20.701  29.994   2.327
74895W        W43225  14.610  37.381   5.268
74896W        W43226  38.345  16.797   3.325
74897W        W43227  12.185   3.365   1.836
74898W        W43228   1.907  22.588  10.520
74899W        W43229   9.391  39.870  11.924
74900W        W43230   9.809   2.926   3.724
74901W        W43231   0.922  43.479  14.970
74902W        W43232  37.087   7.226   1.373
74903W        W43233  25.204   4.310   4.735
74904W        W43234  15.687  27.570   2.200
74905W        W43235  29.577  35.443  14.453
74906W        W43236   2.266  43.801   3.257
74907W        W43237   5.339  16.158  13.435
74908W        W43238  14.796   6.724   1.297
74909W        W43239  37.499  14.222  12.015
74910W        W43240  40.832  36.931  13.938
74911W        W43241  43.299  31.417   2.868
74912W        W43242  20.651  13.621   0.268
74913W        W43243  33.976  32.471   0.912
74914W        W43244  33.098  27.452   2.268
74915W        W43245  33.975  17.588   4.231
74916W        W43246  44.295   7.871   4.124
74917W        W43247  35.045  37.458  13.464
74918W        W43248   0.828  30.605  14.020
74919W        W43249  27.116  11.747  10.923
74920W        W43250  14.817  13.777   1.227
74921W        W43251  14.647  37.832   3.303
74922W        W43252  36.402   3.415   4.352
74923W        W43253  28.096  31.082   2.193
74924W        W43254  41.827  29.159   3.656
74925W        W43255  43.290  36.086   4.655
74926W        W43256  19.769  39.376  14.943
74927W        W43257  41.877   1.270   4.198
74928W        W43258   3.228   5.255  11.501
74929W        W43259  20.710  29.443  14.890
74930W        W43260  30.649  22.140   4.682
74931W        W43261   3.335  28.003  11.983
74932W        W43262  28.507  33.007   3.239
74933W        W43263   7.276  44.794  11.495
74934W        W43264   5.755  23.165   3.336
74935W        W43265   0.356  27.518  11.534
74936W        W43266  31.620  26.649   2.893
74937W        W43267   6.847  14.707  10.543
74938W        W43268  20.699   0.247  10.938
74939W        W43269  22.242   7.365   2.328
74940W        W43270  41.858  11.275   3.823
74941W        W43271  42.947  32.520   4.310
74942W        W43272  19.733   5.691  11.437
74943W        W43273   6.375  26.180   3.754
74944W        W43274  43.432  22.567   0.462
74945W        W43275  34.896  37.019   4.194
74946W        W43276  15.091   0.430  13.860
74947W        W43277  31.924  39.423   3.793
74948W        W43278  17.162  28.150   3.147
74949W        W43279  14.190   5.687   1.369
74950W        W43280  15.238   0.781   2.181
74951W        W43281   0.378  30.525   4.217
74952W        W43282  29.625   1.827   3.188
74953W        W43283  26.997  11.729   3.800
74954W        W43284  28.185  18.169  13.493
74955W        W43285  11.674  26.159  13.428
74956W        W43286  41.427   9.768   2.268
74957W        W43287  39.362  22.675   1.709
74958W        W43288  34.493  10.663  12.830
74959W        W43289  12.707  44.493   5.110
74960W        W43290  26.514   6.251   0.927
74961W        W43291  42.976  22.699  14.512
74962W        W43292   3.786  43.907  12.362
74963W        W43293  13.773   4.439  13.059
74964W        W43294  21.541  34.607  12.039
74965W        W43295  38.983   4.290   1.712
74966W        W43296  25.625  33.426  10.126
74967W        W43297   2.367  25.629   4.717
74968W        W43298  29.104   3.746   3.807
74969W        W43299  16.308  41.400   3.237
74970W        W43300  39.874  23.184  11.120
74971W        W43301  37.474  17.230  10.962
74972W        W43302   5.438  33.928  14.934
74973W        W43303  21.755   1.804   3.325
74974W        W43304  13.693   6.786   2.797
74975W        W43305  40.907   4.865  10.988
74976W        W43306   7.413   5.292  13.834
74977W        W43307  39.363  33.097  10.439
74978W        W43308  38.040  19.120  13.988
74979W        W43309  29.157  36.440   2.409
74980W        W43310  13.347  30.972  12.845
74981W        W43311   9.834  32.471   1.756
74982W        W43312  32.938   3.848   2.226
74983W        W43313   8.696  15.731   2.333
74984W        W43314  28.998   6.373   1.261
74985W        W43315  13.726  26.148  12.472
74986W        W43316  16.174  12.124   3.705
74987W        W43317  13.106  36.975   0.326
74988W        W43318  19.568  24.552  12.352
74989W        W43319  23.678  16.616  13.386
74990W        W43320  43.880  24.559  11.581
74991W        W43321  27.481  14.635  12.061
74992W        W43322  42.896  19.161   1.864
74993W        W43323  26.509  31.446   9.992
74994W        W43324  25.645  28.681   3.382
74995W        W43325  40.433   2.830  13.360
74996W        W43326   4.402  34.916  11.440
74997W        W43327  43.287  36.853   4.223
74998W        W43328  39.346   9.315   2.346
74999W        W43329  27.966  43.387  12.414
75000W        W43330  36.490  25.133   2.805
75001W        W43331  10.663   4.873   4.702
75002W        W43332  36.521  22.618   0.339
75003W        W43333  20.082  36.010  12.425
75004W        W43334  27.570  44.484   2.859
75005W        W43335  39.471  32.001   4.692
75006W        W43336  18.761   1.822   1.425
75007W        W43337  44.786  38.952   3.201
75008W        W43338  27.142  18.701  10.048
75009W        W43339  39.002   9.167  12.384
75010W        W43340  30.095  23.680  14.350
75011W        W43341  15.155  10.272   4.615
75012W        W43342  18.788   3.444   4.678
75013W        W43343  21.511  40.046  12.423
75014W        W43344   7.894  27.035  11.938
75015W        W43345  27.606  43.386  14.375
75016W        W43346  32.607   8.686   1.733
75017W        W43347  27.502  35.456  13.370
75018W        W43348  39.425  21.120  10.522
75019W        W43349  38.863  35.037  13.805
75020W        W43350  39.313  18.686   3.236
75021W        W43351  25.008  42.498  13.800
75022W        W43352  44.009   2.835  13.408
75023W        W43353  33.032   5.697   0.835
75024W        W43354   0.322  17.742   2.877
75025W        W43355  39.844  23.132   2.192
75026W        W43356  11.656   8.833  11.382
75027W        W43357  32.143  27.589   1.782
75028W        W43358  38.931  24.150   3.629
75029W        W43359  19.666  20.212   3.196
75030W        W43360   4.408   9.829   1.250
75031W        W43361  35.389  26.508  14.414
75032W        W43362  20.071  30.569   0.319
75033W        W43363  22.238  29.428   0.473
75034W        W43364  15.643  29.049  12.017
75035W        W43365  17.683  29.147  11.060
75036W        W43366  19.767  26.482   4.291
75037W        W43367   2.854  12.826  12.825
75038W        W43368  21.233  11.627   2.337
75039W        W43369  42.441  17.135   3.782
75040W        W43370  41.836  18.138  10.090
75041W        W43371  26.965  38.569   3.744
75042W        W43372  12.268  35.579   3.645
75043W        W43373  38.964  38.489  13.470
75044W        W43374  34.395   4.707   1.702
75045W        W43375  41.423  20.260  12.895
75046W        W43376  26.508  23.541  12.506
75047W        W43377  17.269  18.159   3.319
75048W        W43378  34.370  24.146  13.935
75049W        W43379   6.726  32.502  12.005
75050W        W43380  44.322  36.908   0.947
75051W        W43381  18.170  16.246  11.102
75052W        W43382  24.543  15.132  12.465
75053W        W43383  38.875  21.672   4.735
75054W        W43384  23.680  31.125  12.453
75055W        W43385  22.505  23.051  11.589
75056W        W43386  33.583   5.362  13.397
75057W        W43387  42.954  40.904  11.477
75058W        W43388  34.042  33.993  10.409
75059W        W43389  35.540  35.873  11.536
75060W        W43390  34.503  24.684   4.334
75061W        W43391   5.841   1.792  12.884
75062W        W43392  13.164  34.482   3.711
75063W        W43393  28.003   7.891  10.407
75064W        W43394   1.370  26.101   3.324
75065W        W43395  37.453  23.231  10.417
75066W        W43396  29.037  40.875   1.748
75067W        W43397  37.559  34.607   0.768
75068W        W43398  25.596  26.058  11.900
75069W        W43399  12.768  36.077   1.237
75070W        W43400  13.766  25.607  11.432
75071W        W43401  10.753  41.346   0.482
75072W        W43402   7.389  14.096  12.410
75073W        W43403  27.036  21.593   4.113
75074W        W43404  44.831  11.743  13.364
75075W        W43405   4.328  22.200   4.801
75076W        W43406  30.550  31.498   4.345
75077W        W43407  11.155   2.405  14.381
75078W        W43408   1.920  21.090  10.459
75079W        W43409  25.672   8.387   4.228
75080W        W43410  25.681  12.226   2.181
75081W        W43411  17.587  36.402  11.917
75082W        W43412   5.439  15.282   0.946
75083W        W43413  27.622  28.964   0.321
75084W        W43414   1.909  20.631  11.958
75085W        W43415  33.427  24.517  10.435
75086W        W43416  35.940   5.435   0.927
75087W        W43417   5.245  23.648   3.835
75088W        W43418  13.273  22.557  13.356
75089W        W43419  26.624  15.225  12.956
75090W        W43420   0.455   7.298  14.500
75091W        W43421  43.287  20.551   4.181
75092W        W43422  30.455   9.177   2.796
75093W        W43423  30.038  32.526   3.816
75094W        W43424  44.309  21.082   0.378
75095W        W43425   4.353  14.203  13.311
75096W        W43426  43.971  41.903   3.171
75097W        W43427  16.792  12.709   2.408
75098W        W43428  14.215  37.369  14.286
75099W        W43429  43.896  11.718  10.453
75100W        W43430  31.454  11.772   1.725
75101W        W43431  37.061  28.025   0.909
75102W        W43432  36.841  17.675   4.247
75103W        W43433   4.385  19.276   3.652
75104W        W43434  15.666  36.401   2.839
75105W        W43435   4.819  15.735   5.278
75106W        W43436  23.640  29.088   0.249
75107W        W43437  22.026  32.000   0.310
75108W        W43438   1.941  23.082   0.824
75109W        W43439  26.141   8.829  13.491
75110W        W43440  14.769   7.415   3.241
75111W        W43441  33.099  41.324   4.627
75112W        W43442  42.919   0.393   4.268
75113W        W43443  37.374  26.467  12.431
75114W        W43444  39.469  35.101   1.846
75115W        W43445  14.283   7.187  12.394
75116W        W43446   6.903  34.509  12.030
75117W        W43447   8.244   7.373  12.446
75118W        W43448  44.302  16.237  11.473
75119W        W43449  16.638  27.603   0.254
75120W        W43450  36.452  19.722   1.434
75121W        W43451  16.756  37.369  14.815
75122W        W43452  28.653  40.054  13.828
75123W        W43453  17.748  41.305   2.798
75124W        W43454   7.753  35.090   2.710
75125W        W43455  18.227  34.964   2.791
75126W        W43456   7.284   3.840  12.363
75127W        W43457   7.367  44.955   2.251
75128W        W43458  22.531  27.075   1.894
75129W        W43459  30.513  13.815   0.964
75130W        W43460  15.600  39.549  13.981
75131W        W43461  26.592  13.809  13.898
75132W        W43462  23.004   0.277  11.942
75133W        W43463  26.533  26.652   3.198
75134W        W43464  37.530  19.561  11.019
75135W        W43465  11.234  28.111  14.903
75136W        W43466  31.457  43.366  14.499
75137W        W43467  42.440  16.197  12.407
75138W        W43468   5.202  10.851   4.635
75139W        W43469  23.624  23.104  10.514
75140W        W43470  35.480   5.843  13.382
75141W        W43471  24.627   8.304  11.527
75142W        W43472  41.334  33.964  11.900
75143W        W43473   5.695  24.628  10.498
75144W        W43474  23.038  10.766   1.700
75145W        W43475  38.377  17.766  11.398
75146W        W43476   7.757  12.701  13.535
75147W        W43477  27.178  24.605  14.289
75148W        W43478  12.797  24.130   4.809
75149W        W43479  42.958  43.361  11.906
75150W        W43480  20.586  43.420   4.352
75151W        W43481   1.786  24.229   3.631
75152W        W43482   6.320  11.866   0.807
75153W        W43483  38.392  22.173  14.407
75154W        W43484  29.919   0.338   2.862
75155W        W43485  23.607  31.598  13.951
75156W        W43486  14.258  34.527   5.282
75157W        W43487  15.767  35.539  13.042
75158W        W43488  37.059  24.516  13.503
75159W        W43489  37.443  28.138  12.967
75160W        W43490  18.783   5.352   4.605
75161W        W43491  27.009  44.341  13.375
75162W        W43492  24.484  36.924  10.901
75163W        W43493  37.496  40.815   3.274
75164W        W43494   1.412  21.255  12.846
75165W        W43495  21.223  22.745  12.348
75166W        W43496  15.699  16.677   2.834
75167W        W43497  12.157   9.382  13.837
75168W        W43498  18.732  29.962   2.838
75169W        W43499  26.458  35.495   4.349
75170W        W43500   1.285   8.200   1.884
75171W        W43501   5.778   3.459   2.305
75172W        W43502   0.772  43.816  12.012
75173W        W43503  18.181  30.523   3.706
75174W        W43504  40.858  33.410   1.760
75175W        W43505  36.586  27.123  11.055
75176W        W43506  37.944  35.010  11.411
75177W        W43507  38.942   8.795  12.406
75178W        W43508  28.007  10.651   5.303
75179W        W43509  28.560  32.002   3.178
75180W        W43510  27.487  29.589   0.348
75181W        W43511  14.784  22.701   4.163
75182W        W43512  35.381  26.962  11.992
75183W        W43513   5.875  13.723  13.936
75184W        W43514  19.562  31.964   1.836
75185W        W43515   8.162  27.457  12.542
75186W        W43516  21.561  18.612   4.832
75187W        W43517  13.762  31.536   3.319
75188W        W43518  44.999  26.547   4.648
75189W        W43519  31.046  13.657  11.037
75190W        W43520  31.105  18.617   0.915
75191W        W43521  28.079  31.403  13.811
75192W        W43522  41.996   6.244  12.546
75193W        W43523  19.281   6.371  11.000
75194W        W43524  20.037  39.494  13.928
75195W        W43525   2.392  29.093   1.815
75196W        W43526  10.831   3.248   4.662
75197W        W43527   2.808  13.753  11.942
75198W        W43528  41.907  18.622  13.989
75199W        W43529  36.581  23.595   0.773
75200W        W43530  41.964  22.605  13.895
75201W        W43531   7.172  27.103   1.871
75202W        W43532  43.791  10.221  14.989
75203W        W43533  10.782  13.181   1.710
75204W        W43534   7.735   5.370   3.374
75205W        W43535   2.396  26.603  12.063
75206W        W43536  27.454  29.471   0.814
75207W        W43537  27.582  27.106   2.742
75208W        W43538  42.374  13.767   4.193
75209W        W43539  36.572   7.408  10.470
75210W        W43540  40.031   3.238   1.884
75211W        W43541  33.519   2.767   2.788
75212W        W43542  28.130  43.978  13.844
75213W        W43543  25.155  13.713   4.650
75214W        W43544   3.948  23.119  10.560
75215W        W43545  28.651  24.639  10.630
75216W        W43546   9.324  32.517  12.928
75217W        W43547  25.038  10.670   2.281
75218W        W43548  43.971  40.007  14.948
75219W        W43549  18.121  26.680  11.451
75220W        W43550  17.138  31.967   5.123
75221W        W43551  37.467  29.456   4.300
75222W        W43552  29.091   7.371   0.270
75223W        W43553  35.041  18.654   1.864
75224W        W43554  42.789  27.614  12.358
75225W        W43555   4.299  44.888  11.452
75226W        W43556   7.871  35.105  11.966
75227W        W43557  20.085   3.945  13.955
75228W        W43558  25.628  44.380  13.864
75229W        W43559  23.624  32.480   3.147
75230W        W43560  24.053  35.886   0.274
75231W        W43561  36.978   7.827  13.913
75232W        W43562  28.632  36.067  12.846
75233W        W43563  13.201  17.559  13.049
75234W        W43564  39.020  14.244  11.039
75235W        W43565  28.129  39.405   3.830
75236W        W43566   9.253  15.311   3.306
75237W        W43567   8.191  35.536   1.719
75238W        W43568   3.338  16.807  10.134
75239W        W43569  30.928  29.495   1.274
75240W        W43570   1.413  23.226  10.941
75241W        W43571  22.160  38.045  12.365
75242W        W43572  26.661   0.357   9.942
75243W        W43573  42.012  21.104   3.346
75244W        W43574  28.602  40.415  12.962
75245W        W43575  39.529  29.514   1.296
75246W        W43576  43.975  26.682   3.216
75247W        W43577  39.009  21.741   2.272
75248W        W43578  42.802  36.550  14.456
75249W        W43579  28.586  42.348  14.460
75250W        W43580  26.501  24.563   3.815
75251W        W43581  33.016   6.288  13.952
75252W        W43582  39.005  29.501   1.451
75253W        W43583   1.933  33.118   3.204
75254W        W43584  12.362  10.855   3.662
75255W        W43585  18.142  23.494   2.193
75256W        W43586  13.671   9.149   1.215
75257W        W43587  43.501  22.241   0.292
75258W        W43588   9.834  21.041  12.372
75259W        W43589   9.195  30.952  14.795
75260W        W43590  29.459  10.779  11.525
75261W        W43591  18.732  25.620  12.354
75262W        W43592   9.871  40.945  10.892
75263W        W43593  14.176  19.688   4.757
75264W        W43594  21.524   7.299  14.322
75265W        W43595   4.750  33.440   4.805
75266W        W43596  14.635  17.800  12.954
75267W        W43597  25.683  35.022  14.439
75268W        W43598  31.585  19.164  10.428
75269W        W43599   5.716  42.860   0.792
75270W        W43600  23.604  40.312   2.673
75271W        W43601  44.924  37.399   4.628
75272W        W43602   5.706   2.372   3.858
75273W        W43603  16.599  27.530  13.042
75274W        W43604   8.337  35.884  13.843
75275W        W43605  44.375  10.857  14.459
75276W        W43606   5.816  27.001   0.350
75277W        W43607  25.047  25.187  12.937
75278W        W43608  19.056  16.294   1.923
75279W        W43609  14.226  44.000  13.021
75280W        W43610  12.773  33.625  12.570
75281W        W43611   6.247  11.366  13.914
75282W        W43612  37.372   9.334  10.475
75283W        W43613  39.047  21.744   3.365
75284W        W43614   8.327  24.117   2.198
75285W        W43615  13.730  21.151   1.351
75286W        W43616  11.290   9.379   0.742
75287W        W43617  39.318   7.293  11.520
75288W        W43618  18.676  12.232   1.916
75289W        W43619  17.641   8.248  12.996
75290W        W43620  27.013  11.693   2.260
75291W        W43621  29.639  21.142  13.380
75292W        W43622  20.556  41.822  12.864
75293W        W43623  27.676   1.922   4.814
75294W        W43624  39.808   6.411   5.116
75295W        W43625  10.764   9.242   1.870
75296W        W43626   3.355  10.666   4.675
75297W        W43627  30.154  16.621  13.947
75298W        W43628  36.498   3.445   4.740
75299W        W43629  12.827  36.995  14.480
75300W        W43630  38.381   2.900  11.916
75301W        W43631  43.844  29.934   3.731
75302W        W43632  11.250  30.922   0.802
75303W        W43633  12.679  14.237   4.270
75304W        W43634  10.201   8.345   1.834
75305W        W43635  10.675  15.774  14.423
75306W        W43636   4.448   0.891  12.550
75307W        W43637  20.236   3.307  10.123
75308W        W43638  13.346   9.157  14.985
75309W        W43639  26.495   0.969   0.264
75310W        W43640  13.775  25.517  13.428
75311W        W43641  25.496   9.190  14.487
75312W        W43642  26.462   9.878  10.441
75313W        W43643  11.163  34.945  13.954
75314W        W43644  37.552  29.597   1.745
75315W        W43645  31.555  24.634  12.006
75316W        W43646  32.001  33.435   5.095
75317W        W43647  42.395  42.493   0.483
75318W        W43648  33.032  16.604   3.308
75319W        W43649  12.702  44.495   2.879
75320W        W43650  17.680  22.736   1.932
75321W        W43651  33.596  20.671   1.856
75322W        W43652   0.900   7.319  14.375
75323W        W43653  28.986  25.172   0.414
75324W        W43654  22.693  40.349  13.484
75325W        W43655  10.371   5.786  13.527
75326W        W43656  17.137  32.569   0.759
75327W        W43657  17.162   6.363  10.435
75328W        W43658  22.215  10.268  13.852
75329W        W43659   1.810   4.848  14.293
75330W        W43660  19.254  38.986   1.445
75331W        W43661  38.979  38.547  10.612
75332W        W43662   2.379  44.262   2.742
75333W        W43663  40.907  35.070   0.371
75334W        W43664  11.324  39.828  11.435
75335W        W43665   1.447  21.032  12.434
75336W        W43666  40.843   6.896  12.392
75337W        W43667  29.959   7.869   3.840
75338W        W43668  21.154  32.560   1.372
75339W        W43669  42.824  11.329  12.864
75340W        W43670  19.118  24.004   0.392
75341W        W43671  23.589  18.181   1.356
75342W        W43672   8.860  39.455  10.554
75343W        W43673  29.971  19.176  13.842
75344W        W43674  43.925  22.656  12.908
75345W        W43675  11.866  35.926  13.001
75346W        W43676  22.182  30.617  10.524
75347W        W43677  25.188  29.151   2.196
75348W        W43678  19.117  44.905  13.385
75349W        W43679  10.687  36.556  11.386
75350W        W43680   2.366  33.448   3.331
75351W        W43681  37.048  41.330  14.806
75352W        W43682  31.922  32.451   5.108
75353W        W43683  32.434  27.095  12.391
75354W        W43684  33.527  32.498   4.650
75355W        W43685  24.676  30.083   2.665
75356W        W43686  27.618  35.106   0.373
75357W        W43687  41.858   0.871  12.564
75358W        W43688   3.341   4.870  13.364
75359W        W43689  24.593  32.442  12.508
75360W        W43690  19.693  15.162   4.650
75361W        W43691   6.268  36.445  12.342
75362W        W43692  35.918   9.194  12.507
75363W        W43693  14.157  22.707   1.332
75364W        W43694  15.622  29.541   3.297
75365W        W43695  21.205  15.194  13.923
75366W        W43696  17.760   3.363  11.520
75367W        W43697   3.420  42.944   4.234
75368W        W43698  15.177   4.794  10.537
75369W        W43699  41.341  39.548   1.406
75370W        W43700  22.236  16.080  13.329
75371W        W43701   5.316  19.640  11.879
75372W        W43702  26.703  19.188  12.495
75373W        W43703  40.511  23.513  14.841
75374W        W43704   3.436  20.616   2.792
75375W        W43705   1.931  20.225  11.022
75376W        W43706   7.880   1.864  10.154
75377W        W43707  31.606  23.682  12.960
75378W        W43708  14.726   5.237   2.900
75379W        W43709  37.007  12.116   4.232
75380W        W43710  11.673   1.358   0.374
75381W        W43711  32.462  41.468   4.183
75382W        W43712  21.104  18.134  10.151
75383W        W43713  10.327   3.843  11.490
75384W        W43714   2.871  10.227  13.499
75385W        W43715  15.726  24.029   0.481
75386W        W43716  42.977  22.674   3.702
75387W        W43717   9.786  19.773  10.548
75388W        W43718  33.944  29.634  14.004
75389W        W43719  14.291  10.182   4.608
75390W        W43720  16.103  37.867  11.531
75391W        W43721  21.032  39.891  14.819
75392W        W43722  20.604  34.521  14.474
75393W        W43723  21.629  20.655  14.965
75394W        W43724  22.182  44.335   4.730
75395W        W43725  42.982  28.113  12.975
75396W        W43726   9.792  29.654   0.905
75397W        W43727  16.262  14.129  14.892
75398W        W43728  28.968   1.441   4.803
75399W        W43729  14.659  34.385   0.731
75400W        W43730  26.995   4.295   3.258
75401W        W43731  32.043   9.343  12.937
75402W        W43732  38.000  20.109  11.521
75403W        W43733  18.149  33.129   3.181
75404W        W43734  39.327  44.859  12.488
75405W        W43735  31.437  14.706   0.810
75406W        W43736  25.104  17.626   0.422
75407W        W43737  19.049   7.830  10.481
75408W        W43738  30.028  35.075   4.771
75409W        W43739  10.758   2.405   1.828
75410W        W43740  30.996  36.019   1.820
75411W        W43741  17.710   1.295  14.016
75412W        W43742  26.083   8.737   4.325
75413W        W43743  10.774   7.806  13.895
75414W        W43744  24.664  17.169  14.876
75415W        W43745  41.899   3.250  13.946
75416W        W43746  36.492   2.782  14.497
75417W        W43747  19.685  43.392  10.426
75418W        W43748  40.412  23.190   2.692
75419W        W43749   3.407  15.803   3.157
75420W        W43750  15.124  17.132  10.938
75421W        W43751   2.264  22.501   4.813
75422W        W43752   5.805   0.462  14.332
75423W        W43753  30.943  18.062  12.902
75424W        W43754   0.279   0.438   3.293
75425W        W43755  20.036  41.982   4.264
75426W        W43756   5.793  24.653   0.436
75427W        W43757  36.456  24.587   3.156
75428W        W43758  34.976  21.042   3.343
75429W        W43759  11.339  34.461  12.888
75430W        W43760  23.236  44.011  14.423
75431W        W43761  23.057  30.007  10.995
75432W        W43762  31.050  37.838  11.993
75433W        W43763  44.907   0.985   0.866
75434W        W43764  32.942   3.446  13.898
75435W        W43765  11.674   9.385  12.934
75436W        W43766  39.406   5.203  13.062
75437W        W43767  21.080  42.780   4.716
75438W        W43768  31.578  21.665   1.879
75439W        W43769  25.210  36.879   3.787
75440W        W43770  13.143  30.530   3.650
75441W        W43771   7.363  25.093   3.778
75442W        W43772  10.733  37.539   0.798
75443W        W43773  34.432  39.316   3.808
75444W        W43774  10.822  16.769  14.291
75445W        W43775  39.824  26.678   1.227
75446W        W43776  22.744  37.537   1.720
75447W        W43777  19.755  36.442  13.979
75448W        W43778  41.976  42.954  13.398
75449W        W43779  28.511   5.227  11.943
75450W        W43780  34.092   0.329   2.810
75451W        W43781  37.953   1.421  13.062
75452W        W43782  31.576  42.972  12.438
75453W        W43783  11.860  13.736   1.850
75454W        W43784  40.910  10.657  14.366
75455W        W43785   6.907  21.102  13.421
75456W        W43786  39.979   8.815   2.762
75457W        W43787  14.205  31.426  13.014
75458W        W43788  23.656  12.838  12.931
75459W        W43789  38.875  38.876   2.707
75460W        W43790   6.783  14.598  12.966
75461W        W43791  24.638  10.180   3.299
75462W        W43792  23.689  21.614   3.204
75463W        W43793   5.731  21.062   0.907
75464W        W43794  36.549  42.006  14.996
75465W        W43795  40.448  10.873  10.626
75466W        W43796  34.437   6.274   2.202
75467W        W43797  42.402  26.115  12.942
75468W        W43798  40.345  28.475  11.440
75469W        W43799  23.495  29.960   3.829
75470W        W43800  31.899  43.300  12.934
75471W        W43801  28.017  26.104   4.213
75472W        W43802  44.297  43.818  14.830
75473W        W43803  34.586  14.114  10.561
75474W        W43804  40.465  10.733   0.835
75475W        W43805   0.769  14.646   1.899
75476W        W43806  29.436   6.372   2.719
75477W        W43807  16.624  18.229  11.506
75478W        W43808  24.712  40.406  13.409
75479W        W43809  41.315   8.668   4.235
75480W        W43810   1.278   8.772  12.029
75481W        W43811  34.410  37.036   1.890
75482W        W43812  10.213  40.370   0.965
75483W        W43813  32.931  34.444  13.864
75484W        W43814  11.264  17.742  14.396
75485W        W43815  27.595  28.532   4.247
75486W        W43816   8.186  29.012   0.333
75487W        W43817  30.438  15.669  14.910
75488W        W43818  38.386  28.060  10.477
75489W        W43819  34.912  22.151  11.453
75490W        W43820  22.598  37.849  11.928
75491W        W43821  40.963  20.220  12.093
75492W        W43822  20.264  19.691  11.592
75493W        W43823  22.013   6.775   5.628
75494W        W43824   4.803   2.733   4.114
75495W        W43825  31.018  39.335  10.642
75496W        W43826   2.326  11.358   2.395
75497W        W43827   2.296  35.555  14.293
75498W        W43828  16.181   1.794  12.525
75499W        W43829  41.970  29.097   1.902
75500W        W43830  37.480  33.399  12.404
75501W        W43831  30.947  11.706   4.210
75502W        W43832   2.928  29.009   0.800
75503W        W43833  17.250   1.877   5.138
75504W        W43834  14.739   1.407   2.882
75505W        W43835  40.869  43.384  10.623
75506W        W43836  42.405   0.871   4.691
75507W        W43837  11.152  42.436  11.387
75508W        W43838   2.772   1.797   4.194
75509W        W43839   7.711  28.560  14.803
75510W        W43840  33.113  21.221  12.395
75511W        W43841   9.780  18.553   3.367
75512W        W43842  43.449  33.425   0.310
75513W        W43843  41.501  29.111   4.691
75514W        W43844  30.448   7.775   1.811
75515W        W43845  34.437  31.030   1.733
75516W        W43846  39.854  41.537  13.810
75517W        W43847  26.655   7.877  14.905
75518W        W43848  11.662   8.222   1.715
75519W        W43849  33.052  10.838   0.920
75520W        W43850  11.286  38.883   3.273
75521W        W43851   1.466  14.266  13.372
75522W        W43852   1.439  43.782  13.396
75523W        W43853  10.868  28.611   3.641
75524W        W43854   5.353  36.494  13.403
75525W        W43855  23.014   5.197   2.214
75526W        W43856  29.948  36.921   0.879
75527W        W43857  41.327  28.445   1.292
75528W        W43858  40.039   2.805   0.459
75529W        W43859  34.551  19.261   3.729
75530W        W43860  40.909   7.358   3.372
75531W        W43861   9.314   6.847   4.203
75532W        W43862  27.949  43.776  11.606
75533W        W43863  15.221  12.226  10.513
75534W        W43864  37.945   6.719   4.764
75535W        W43865  33.084  42.005   3.187
75536W        W43866  41.789  26.177  13.434
75537W        W43867  23.597   6.377  13.507
75538W        W43868  37.492  44.316   4.157
75539W        W43869  16.770  10.230   3.690
75540W        W43870  27.947  40.519  11.595
75541W        W43871   3.461  44.989  14.354
75542W        W43872  37.893  27.457  11.430
75543W        W43873   1.877   4.891  12.384
75544W        W43874   1.838  22.246  10.956
75545W        W43875  25.628  12.639   3.323
75546W        W43876   8.831  20.650   0.380
75547W        W43877  27.997   1.828   1.235
75548W        W43878  40.827  30.618   4.618
75549W        W43879  18.183   0.310   1.812
75550W        W43880  32.112  26.112   0.766
75551W        W43881  16.176  26.485  10.960
75552W        W43882  41.025  13.194  13.830
75553W        W43883  25.513  27.466   3.856
75554W        W43884  28.667   9.278   1.423
75555W        W43885  39.982  41.349   3.844
75556W        W43886  41.004  31.104   3.667
75557W        W43887  11.148  35.535   2.788
75558W        W43888   9.378  11.720  12.019
75559W        W43889   8.262  20.245   3.213
75560W        W43890  28.495   4.898  13.946
75561W        W43891   9.370  32.403  14.806
75562W        W43892  12.757   5.200   3.634
75563W        W43893  42.879  31.406  14.941
75564W        W43894  28.545  25.701  11.393
75565W        W43895  13.190   6.370  11.427
75566W        W43896  36.044  42.883   2.813
75567W        W43897  38.968  42.425   2.701
75568W        W43898  11.677  44.823  13.824
75569W        W43899  42.890  29.447   3.342
75570W        W43900  17.702   6.292  13.002
75571W        W43901  33.526  38.931  10.970
75572W        W43902  25.474  24.543   2.830
75573W        W43903  32.065  21.123   4.598
75574W        W43904  26.159  39.422  11.009
75575W        W43905  42.408  30.101   1.797
75576W        W43906  40.537   6.200  10.645
75577W        W43907  35.424  29.510   4.709
75578W        W43908  34.017  21.106  10.448
75579W        W43909  20.229  33.896   1.910
75580W        W43910   9.707  15.157  14.995
75581W        W43911  44.890  23.139  11.413
75582W        W43912   8.714  12.691  10.431
75583W        W43913  19.249  31.483  12.466
75584W        W43914  21.684  42.516  12.559
75585W        W43915  40.014  22.667  12.409
75586W        W43916   3.324  23.544  13.460
75587W        W43917  41.437   5.265   4.714
75588W        W43918  14.630   0.761  10.438
75589W        W43919  23.084  15.624   2.772
75590W        W43920  23.158   8.808   0.932
75591W        W43921  10.209  35.472  10.892
75592W        W43922  32.468  17.239  10.901
75593W        W43923  18.733  28.471  14.494
75594W        W43924   8.874   8.247  11.544
75595W        W43925  33.453  12.137   2.673
75596W        W43926  20.149   9.705   2.847
75597W        W43927  10.228  26.121  12.968
75598W        W43928   6.290  14.134  12.033
75599W        W43929   8.711  34.478  11.516
75600W        W43930  27.169  27.056  10.445
75601W        W43931  33.065  20.575  11.457
75602W        W43932  19.634   9.277   5.116
75603W        W43933  34.522   0.463   0.349
75604W        W43934  28.636  32.426   1.909
75605W        W43935  18.551  37.536  13.343
75606W        W43936  18.158   5.315  13.511
75607W        W43937  27.682  40.514  11.387
75608W        W43938  10.276  41.305   1.301
75609W        W43939  42.328  44.867   3.350
75610W        W43940   4.348  44.415   3.856
75611W        W43941  24.677   2.451  13.913
75612W        W43942  40.474  29.453  13.439
75613W        W43943  10.719  34.441   0.329
75614W        W43944  21.618  36.349   2.762
75615W        W43945   6.268  40.999  11.443
75616W        W43946   0.789  24.112   3.363
75617W        W43947  24.193  22.058   4.254
75618W        W43948  23.671   0.490   0.849
75619W        W43949  20.101  16.642   4.613
75620W        W43950  20.527  16.661   3.789
75621W        W43951   7.869  24.558   3.826
75622W        W43952  36.557  36.476  12.458
75623W        W43953  10.793  33.058  11.922
75624W        W43954  42.946  17.139  12.491
75625W        W43955  29.641  23.059   1.213
75626W        W43956  14.260  21.570  11.125
75627W        W43957   7.854  36.407  13.053
75628W        W43958  25.074  22.501  10.897
75629W        W43959   4.325  36.362  10.482
75630W        W43960   9.272  14.263  14.989
75631W        W43961  26.153  23.505  10.482
75632W        W43962  43.364  44.476  12.913
75633W        W43963  13.145  40.526  13.828
75634W        W43964   6.738   3.730   2.809
75635W        W43965   2.437  40.332   2.326
75636W        W43966  42.961  27.096   4.230
75637W        W43967  32.004  39.958  14.465
75638W        W43968  26.465  29.099  13.311
75639W        W43969  30.056  30.514  13.385
75640W        W43970  35.862  21.604   1.821
75641W        W43971  37.913   5.769  13.479
75642W        W43972  22.602   0.910  11.941
75643W        W43973  30.035  29.439   2.310
75644W        W43974  10.668  12.711  11.535
75645W        W43975  41.337  34.560  14.022
75646W        W43976  16.161  33.898   9.925
75647W        W43977  20.671  11.283   2.293
75648W        W43978  35.951  30.952  14.497
75649W        W43979  14.595  19.074   3.340
75650W        W43980  19.737  24.104   0.293
75651W        W43981  23.732   3.261   1.295
75652W        W43982   6.333   5.418  13.842
75653W        W43983   8.774  21.241   0.463
75654W        W43984  33.024  23.221  14.984
75655W        W43985  19.628  17.150  12.541
75656W        W43986  37.475  36.519   1.319
75657W        W43987   8.891  35.485  13.480
75658W        W43988  11.303  32.019   4.607
75659W        W43989  24.530   1.757  11.475
75660W        W43990  13.618  24.996  11.409
75661W        W43991  28.497  40.934   3.242
75662W        W43992  40.831   0.847  12.490
75663W        W43993  37.453   6.398   9.997
75664W        W43994  17.630  22.998   2.360
75665W        W43995  36.909  20.768   4.280
75666W        W43996  34.581  33.107   3.223
75667W        W43997  10.843  37.971  14.312
75668W        W43998  18.238  39.972   3.784
75669W        W43999  37.929  21.119   4.720
75670W        W44000   8.782  34.432  11.966
75671W        W44001  43.478  30.133   3.205
75672W        W44002  28.959  23.003   1.429
75673W        W44003  38.437  26.968  14.825
75674W        W44004   3.343  13.802   4.317
75675W        W44005  26.962  34.119   1.894
75676W        W44006  37.346  21.688   2.186
75677W        W44007  24.026  29.479   2.831
75678W        W44008  40.506  34.060   1.424
75679W        W44009  14.210  18.273   0.873
75680W        W44010   9.319  30.580   1.287
75681W        W44011  33.077  23.005  11.977
75682W        W44012  33.625  42.379  12.458
75683W        W44013  31.016  23.572  10.987
75684W        W44014  27.136  33.091  13.489
75685W        W44015  33.390   9.671   1.783
75686W        W44016  41.463  16.132  13.405
75687W        W44017  22.626  17.653   9.661
75688W        W44018  37.581  26.024   2.724
75689W        W44019  33.502  44.453   4.124
75690W        W44020  40.403  37.352   2.769
75691W        W44021  15.146  12.294   1.918
75692W        W44022   5.218   9.646  14.008
75693W        W44023  43.922   8.864   3.285
75694W        W44024  18.637  40.350   1.866
75695W        W44025  15.133  32.409   2.362
75696W        W44026  33.616   1.255   1.361
75697W        W44027  17.212  24.715  14.913
75698W        W44028  38.980   6.825  13.449
75699W        W44029  33.615   7.674   1.394
75700W        W44030  41.442  42.490  14.997
75701W        W44031  29.520  26.147   4.667
75702W        W44032  35.567  34.992   1.926
75703W        W44033  22.707  33.390   1.219
75704W        W44034  14.792  28.981  13.061
75705W        W44035  30.614  39.382  14.387
75706W        W44036  39.897  26.982   2.772
75707W        W44037  24.644  32.399   2.223
75708W        W44038   0.761   3.327  11.973
75709W        W44039  19.625  34.439  10.418
75710W        W44040  26.032   2.463   2.739
75711W        W44041  17.791  22.175  11.955
75712W        W44042  44.844  42.354   4.766
75713W        W44043   5.310  23.567   2.315
75714W        W44044  27.451  17.728   4.336
75715W        W44045   6.256  40.535  13.473
75716W        W44046  36.477   1.257  13.859
75717W        W44047  22.191  16.632   1.397
75718W        W44048  41.372  13.747   2.722
75719W        W44049  44.864  28.628   0.453
75720W        W44050  31.072  20.060   2.902
75721W        W44051   8.779  39.850   0.472
75722W        W44052  27.513  43.794  14.376
75723W        W44053   4.379  21.617   2.834
75724W        W44054  25.616   9.361   3.820
75725W        W44055   5.810  40.329  12.400
75726W        W44056  13.795  20.034   4.335
75727W        W44057  39.474  42.400   1.214
75728W        W44058   5.425  39.364   1.353
75729W        W44059   3.312  12.286   1.388
75730W        W44060  26.178  11.724  12.849
75731W        W44061  11.673  28.472  14.937
75732W        W44062   4.889  17.666  10.139
75733W        W44063  14.184   2.924   2.230
75734W        W44064  21.057  38.400  12.506
75735W        W44065  20.668  21.206  11.065
75736W        W44066  22.581  31.007   3.672
75737W        W44067  30.914  24.624  12.884
75738W        W44068  26.614  44.757   1.831
75739W        W44069   0.485  11.839   0.263
75740W        W44070  37.873   0.947   1.887
75741W        W44071   3.774  10.693  10.976
75742W        W44072  13.203   7.668   2.837
75743W        W44073  25.034  14.152   2.247
75744W        W44074   8.367  13.111   1.813
75745W        W44075  33.461  27.534   0.891
75746W        W44076  24.003  40.412  10.409
75747W        W44077  40.486  19.147  14.832
75748W        W44078   7.296  32.114   2.722
75749W        W44079   5.260  25.467   2.885
75750W        W44080   3.805  22.707   3.361
75751W        W44081  19.632  43.944  14.438
75752W        W44082  23.623  30.927  13.977
75753W        W44083  27.185   1.854  10.933
75754W        W44084  43.423  28.010  12.575
75755W        W44085  44.322  25.199   4.754
75756W        W44086  22.058   9.877   1.369
75757W        W44087  32.617   7.888  11.408
75758W        W44088  24.545   2.741   1.254
75759W        W44089  26.618  13.139   4.828
75760W        W44090  21.701  11.252   3.341
75761W        W44091  43.846   2.924   0.966
75762W        W44092  16.178  28.556  13.307
75763W        W44093  33.384  19.660   5.200
75764W        W44094   0.973   9.864   0.349
75765W        W44095  41.468   1.924   0.256
75766W        W44096   9.213   1.252   2.852
75767W        W44097  19.647  35.563   3.637
75768W        W44098  34.997  29.092   1.834
75769W        W44099  40.824  17.673  11.507
75770W        W44100   3.808   6.770  14.854
75771W        W44101  23.600  29.950  11.070
75772W        W44102   3.238  10.807   3.836
75773W        W44103  31.516  33.106  13.369
75774W        W44104  36.860  43.850  13.841
75775W        W44105  10.832   2.815  10.576
75776W        W44106  29.011  26.175  10.644
75777W        W44107  35.886  40.045   0.307
75778W        W44108  29.434  34.539   1.779
75779W        W44109  26.175   8.318   4.740
75780W        W44110  20.555   8.691   4.799
75781W        W44111   3.946  40.048   2.746
75782W        W44112   7.826  17.205  13.378
75783W        W44113  13.334  11.673   3.156
75784W        W44114  30.063   6.801  11.493
75785W        W44115  30.962  17.675  12.834
75786W        W44116   9.290   5.930   1.855
75787W        W44117  18.067  26.162  12.460
75788W        W44118  18.228  19.083  11.400
75789W        W44119  27.984   6.274   4.753
75790W        W44120   9.652   7.213   3.186
75791W        W44121  36.943   6.240  12.544
75792W        W44122   7.900  25.529   1.403
75793W        W44123  39.512  12.155   0.762
75794W        W44124  23.087   9.275  10.920
75795W        W44125   1.888  27.118   3.640
75796W        W44126  32.090  44.285   2.273
75797W        W44127  23.037  18.601   3.660
75798W        W44128  35.080  34.418   3.283
75799W        W44129  20.691  28.477   3.285
75800W        W44130  13.227   2.902   4.654
75801W        W44131   5.851  32.448   0.727
75802W        W44132  43.851  32.137   4.223
75803W        W44133  13.794  25.525  12.419
75804W        W44134  11.703  39.409   2.783
75805W        W44135   6.223  22.177   0.753
75806W        W44136  13.709  37.847   1.807
75807W        W44137   3.823   4.748   0.443
75808W        W44138  25.581  10.247   0.345
75809W        W44139  37.979  40.831   2.374
75810W        W44140  42.881  19.651   4.658
75811W        W44141  18.545  38.007  14.431
75812W        W44142  17.665  21.212  14.417
75813W        W44143  23.037  35.978   3.284
75814W        W44144  25.158  25.120   4.830
75815W        W44145   9.356  44.401  14.511
75816W        W44146  24.167  40.413   2.195
75817W        W44147  43.999   3.844  11.402
75818W        W44148  29.992  26.604   2.673
75819W        W44149  40.920  35.110  12.889
75820W        W44150  26.048  42.931   5.117
75821W        W44151   0.986   2.931  12.405
75822W        W44152   1.276  24.593  12.387
75823W        W44153   7.887   5.921   0.929
75824W        W44154  17.707  29.440  11.565
75825W        W44155  23.212  19.725   3.353
75826W        W44156   0.967  12.843  13.455
75827W        W44157  11.366  31.026  12.493
75828W        W44158  13.621   0.355  10.994
75829W        W44159   2.897  23.656  13.461
75830W        W44160   3.315  28.580   1.298
75831W        W44161  23.997   6.901  12.972
75832W        W44162  33.548  32.439  14.999
75833W        W44163  28.163  30.609   0.483
75834W        W44164  18.053  26.475   3.641
75835W        W44165  39.517   8.398  12.349
75836W        W44166   4.933   8.800  14.026
75837W        W44167  20.191  42.948   4.267
75838W        W44168  21.132  10.254  12.948
75839W        W44169   8.663  22.740   4.341
75840W        W44170   8.783  11.746   4.138
75841W        W44171  41.510  25.123   1.341
75842W        W44172  15.106   7.852  10.522
75843W        W44173   8.243   2.302   1.894
75844W        W44174  18.658  32.982  12.416
75845W        W44175   5.776   9.161   3.697
75846W        W44176  18.218  37.959   2.792
75847W        W44177   9.327  30.597   2.343
75848W        W44178  13.195  32.035   3.190
75849W        W44179  11.764  38.073   1.418
75850W        W44180   2.414  42.503  13.528
75851W        W44181  36.499  12.181   3.217
75852W        W44182  10.700  10.659   3.279
75853W        W44183  34.866   1.789   4.798
75854W        W44184  40.864  40.858   4.660
75855W        W44185  31.419  30.413   1.443
75856W        W44186  24.582  26.476  13.032
75857W        W44187   4.929  16.813  10.613
75858W        W44188  27.662  13.138   3.214
75859W        W44189   6.366  44.798  10.612
75860W        W44190  38.051  42.897   4.657
75861W        W44191   2.472  35.941  13.509
75862W        W44192  27.692  31.091   1.210
75863W        W44193   7.757  14.286   5.276
75864W        W44194  14.255  37.858  12.475
75865W        W44195  23.185  40.413  10.406
75866W        W44196   9.774  15.173   0.454
75867W        W44197  15.159  19.275   2.177
75868W        W44198   3.924  33.600   1.774
75869W        W44199  35.972   1.247  11.072
75870W        W44200  17.116  30.631  11.394
75871W        W44201  25.531  17.597  11.523
75872W        W44202   3.324  34.112  11.582
75873W        W44203  15.768  25.159   9.929
75874W        W44204  15.811  14.126   5.291
75875W        W44205  32.625  28.036  11.884
75876W        W44206  41.043  15.306   3.797
75877W        W44207   9.809  17.072   0.327
75878W        W44208  23.611  14.593   0.847
75879W        W44209  28.980  43.863   0.394
75880W        W44210  30.999   0.972   2.801
75881W        W44211  28.084  30.506   2.268
75882W        W44212   8.339  44.813  10.581
75883W        W44213  14.307  42.846   5.239
75884W        W44214  38.046  36.849  12.992
75885W        W44215  37.860  38.343   4.714
75886W        W44216   6.728  23.115   1.259
75887W        W44217  43.487  17.280   0.739
75888W        W44218  26.200   2.817   0.365
75889W        W44219  33.421   7.834   2.898
75890W        W44220  43.919   9.283   3.225
75891W        W44221  23.105   5.256   3.677
75892W        W44222  20.658  42.913   1.346
75893W        W44223  11.769   2.954  13.064
75894W        W44224  26.116   9.732  10.425
75895W        W44225  15.624  22.649   2.295
75896W        W44226  35.476  44.757  10.916
75897W        W44227  21.095  14.104  14.796
75898W        W44228  25.061  12.259  11.575
75899W        W44229  18.721   5.797   4.143
75900W        W44230  20.247  29.480   0.340
75901W        W44231  32.924  12.228  10.480
75902W        W44232   4.270  16.757  11.920
75903W        W44233  35.100  37.477   0.886
75904W        W44234  30.519  10.298  12.061
75905W        W44235  24.182  29.579  12.015
75906W        W44236   8.850  10.199  14.325
75907W        W44237  19.269   2.844  11.018
75908W        W44238  44.953  25.984   2.878
75909W        W44239  32.072  19.625  10.983
75910W        W44240   4.746  15.084  10.407
75911W        W44241   7.196  29.551  13.380
75912W        W44242  43.331  26.577  12.436
75913W        W44243  37.994  19.632   2.374
75914W        W44244   7.759  28.485  13.327
75915W        W44245  22.030  42.012   1.696
75916W        W44246  34.421  19.726   1.222
75917W        W44247  23.651  42.335   0.775
75918W        W44248   7.244  38.352   1.851
75919W        W44249  36.527  43.270   4.310
75920W        W44250  25.178  43.946   1.705
75921W        W44251   7.235  28.968   0.281
75922W        W44252  12.209  38.382   1.426
75923W        W44253  17.154  26.170  11.522
75924W        W44254   7.186   8.249  10.586
75925W        W44255   6.406  40.935   4.212
75926W        W44256  31.478  33.387  12.445
75927W        W44257  20.642  42.325  11.856
75928W        W44258  23.733   2.895  10.592
75929W        W44259  26.133  13.703  12.489
75930W        W44260   6.678  42.473  11.032
75931W        W44261  42.345  10.679   0.357
75932W        W44262  12.740  44.501   1.827
75933W        W44263  35.039  17.700   0.936
75934W        W44264  12.228   1.883  13.949
75935W        W44265   4.905  29.967  13.898
75936W        W44266   7.260  26.636  12.486
75937W        W44267  43.375  44.004   3.190
75938W        W44268  31.623  13.619   4.742
75939W        W44269  41.413  33.567  10.958
75940W        W44270  24.689  30.598  10.425
75941W        W44271  19.757  11.169   4.193
75942NA+    NA+44272  37.867  43.985   3.369
75943NA+    NA+44273  41.321  39.928  12.963
75944NA+    NA+44274   2.439  21.740   2.190
75945NA+    NA+44275  30.075  41.456  13.818
75946NA+    NA+44276   1.432  21.596   1.761
75947NA+    NA+44277  25.093  31.572   0.830
75948NA+    NA+44278  34.511   1.940  13.052
75949NA+    NA+44279  40.875   8.797   3.686
75950NA+    NA+44280   9.764  13.757  11.008
75951NA+    NA+44281  37.083   4.408  11.579
75952NA+    NA+44282  10.855  14.222  10.633
75953NA+    NA+44283  29.425   3.428  14.922
75954NA+    NA+44284  18.569  35.095  13.855
75955NA+    NA+44285   4.718  17.276   5.257
75956NA+    NA+44286  32.540  37.403  10.551
75957NA+    NA+44287  41.489  11.155   0.914
75958NA+    NA+44288  44.003  35.908   4.644
75959NA+    NA+44289  27.655  28.184   1.700
75960NA+    NA+44290  33.407  10.748   3.756
75961NA+    NA+44291  11.753   8.810   2.346
75962NA+    NA+44292   1.349  35.968   4.756
75963NA+    NA+44293  43.501  17.677   0.903
75964NA+    NA+44294  26.525   7.269   3.376
75965NA+    NA+44295  25.063  20.205  10.502
75966NA+    NA+44296  12.146  26.639  14.909
75967NA+    NA+44297  18.547  32.899  13.420
75968NA+    NA+44298  40.897   4.380   4.267
75969NA+    NA+44299   8.231  43.482  11.024
75970NA+    NA+44300  37.998   5.337   4.121
75971NA+    NA+44301  39.892  39.402   0.903
75972NA+    NA+44302  33.475  13.664  11.578
75973NA+    NA+44303  10.721  43.509   1.332
75974NA+    NA+44304  15.107  33.037  11.920
75975NA+    NA+44305  16.291  15.329   0.873
75976NA+    NA+44306  32.916  40.435  11.015
75977NA+    NA+44307  40.530  17.628   1.230
75978NA+    NA+44308  19.577  16.289  10.941
75979NA+    NA+44309  35.430  25.030   0.285
75980NA+    NA+44310  33.953  41.459  13.417
75981NA+    NA+44311  19.097  37.417   3.659
75982NA+    NA+44312  15.143  24.524   2.807
75983NA+    NA+44313   5.831  36.060  10.561
75984NA+    NA+44314  31.594  37.930  10.639
75985NA+    NA+44315  36.450  37.029   2.838
75986NA+    NA+44316  40.478  14.729   4.330
75987NA+    NA+44317   8.305  38.395   2.262
75988NA+    NA+44318  27.627   2.354  13.930
75989NA+    NA+44319  36.398  14.324   3.221
75990NA+    NA+44320  35.015  44.785  12.949
75991NA+    NA+44321  44.791  33.026  12.999
75992NA+    NA+44322  11.798  42.928   2.713
75993NA+    NA+44323  20.553  29.581   2.681
75994NA+    NA+44324  41.953  26.624   5.239
75995NA+    NA+44325  24.115   3.446  14.773
75996NA+    NA+44326  19.761   1.356   3.319
75997NA+    NA+44327  30.147   7.732  14.838
75998NA+    NA+44328  21.099  24.172  13.815
75999NA+    NA+44329  33.044  19.209   2.759
76000NA+    NA+44330   8.686  29.609   2.220
76001NA+    NA+44331  15.715  41.925   3.702
76002NA+    NA+44332   8.371  14.129   1.435
76003NA+    NA+44333  10.783  13.660  12.383
76004NA+    NA+44334  43.019  38.548  14.292
76005NA+    NA+44335  14.138  22.172   2.804
76006NA+    NA+44336  32.566   4.407  12.850
76007NA+    NA+44337  17.657  42.409  13.031
76008NA+    NA+44338   8.355  34.476  12.540
76009NA+    NA+44339  43.012  16.687   3.809
76010NA+    NA+44340  24.633  30.560   4.750
76011NA+    NA+44341  28.948  31.953  13.513
76012NA+    NA+44342  24.524  40.935   1.369
76013NA+    NA+44343  21.725  16.202   3.732
76014NA+    NA+44344  16.235  16.283  11.875
76015NA+    NA+44345  40.329  30.956   1.710
76016NA+    NA+44346  15.132  41.430  12.560
76017NA+    NA+44347  34.436  30.919  14.336
76018NA+    NA+44348  17.764   7.805   1.779
76019NA+    NA+44349  28.473  38.059   3.372
76020NA+    NA+44350  18.767  32.510   4.793
76021NA+    NA+44351  18.771  29.561  10.027
76022NA+    NA+44352  17.787  24.067  10.955
76023NA+    NA+44353  29.514  41.510  10.517
76024NA+    NA+44354   1.749  41.496   2.378
76025NA+    NA+44355  21.019  32.594  10.550
76026NA+    NA+44356  24.156   7.222  11.890
76027NA+    NA+44357  42.868  26.571  10.906
76028NA+    NA+44358  20.134  42.031  12.369
76029NA+    NA+44359  42.000  24.010  14.950
76030NA+    NA+44360  22.077  19.198  14.024
76031NA+    NA+44361   5.314  14.750   1.360
76032NA+    NA+44362  40.310   0.347  10.110
76033NA+    NA+44363  10.760  36.091  11.900
76034NA+    NA+44364  35.955  25.998  13.471
76035NA+    NA+44365  36.073   8.215  13.506
76036NA+    NA+44366  33.874  38.949   0.920
76037NA+    NA+44367  36.087  16.254  13.889
76038NA+    NA+44368  34.385  16.779  10.452
76039NA+    NA+44369   4.404  33.914  10.957
76040NA+    NA+44370  20.152  27.481   3.705
76041NA+    NA+44371   3.922  19.568  12.346
76042NA+    NA+44372  33.494  11.665  12.423
76043NA+    NA+44373  22.526   4.909  11.492
76044NA+    NA+44374  19.729   5.879   4.224
76045NA+    NA+44375   8.722  41.888  14.967
76046NA+    NA+44376  25.643  43.426   4.225
76047NA+    NA+44377  39.366  14.256   4.170
76048NA+    NA+44378  35.495  21.165   2.211
76049NA+    NA+44379  15.146  38.828   2.715
76050NA+    NA+44380  35.895   8.324   4.249
76051NA+    NA+44381  40.032  18.757  13.822
76052NA+    NA+44382  19.650   4.285  11.878
76053NA+    NA+44383  37.066  19.689   3.750
76054NA+    NA+44384  39.016  22.048  13.797
76055NA+    NA+44385   3.840   5.384  14.297
76056NA+    NA+44386  35.378  21.535  10.508
76057NA+    NA+44387  15.308  24.974  12.500
76058NA+    NA+44388  15.116  22.110  10.898
76059NA+    NA+44389  11.795  23.622   3.313
76060NA+    NA+44390  16.582  25.710   5.171
76061NA+    NA+44391  11.173   7.331  10.598
76062NA+    NA+44392   8.863  10.778  11.074
76063NA+    NA+44393  24.111  31.110   1.918
76064NA+    NA+44394   4.795  38.371  14.857
76065NA+    NA+44395  41.797  37.562  12.858
76066NA+    NA+44396  33.511  23.585   3.361
76067NA+    NA+44397  20.221  41.823   0.766
76068NA+    NA+44398  44.454  40.328   1.258
76069NA+    NA+44399  22.013   0.383  14.761
76070NA+    NA+44400  29.068  25.985  11.007
76071NA+    NA+44401  37.506  38.836   1.743
76072NA+    NA+44402   7.728  25.702  12.390
76073NA+    NA+44403   8.272  37.529  13.334
76074NA+    NA+44404  11.678  25.100   4.271
76075NA+    NA+44405  16.646  10.865   3.177
76076NA+    NA+44406  29.441   6.741   0.813
76077NA+    NA+44407  28.524  11.830   0.395
76078NA+    NA+44408  17.615  24.977  12.492
76079NA+    NA+44409  39.372  40.434   3.283
76080NA+    NA+44410  26.184   1.819  10.578
76081NA+    NA+44411  27.082  24.035  12.981
76082NA+    NA+44412  11.310  31.942  13.317
76083NA+    NA+44413   3.366   3.392  10.008
76084NA+    NA+44414  17.800  15.086  13.531
76085NA+    NA+44415   2.770  35.565  12.415
76086NA+    NA+44416  24.511   5.296   2.806
76087NA+    NA+44417  22.197   9.335  12.411
76088NA+    NA+44418  32.620  15.297  13.837
76089NA+    NA+44419   0.304   5.424   1.904
76090NA+    NA+44420  18.168  25.167   2.330
76091NA+    NA+44421  15.245  23.636  10.453
76092NA+    NA+44422  23.042   8.738   3.191
76093NA+    NA+44423  44.472  13.317  13.512
76094NA+    NA+44424  19.591  43.354  13.978
76095NA+    NA+44425  32.015  16.674   0.773
76096NA+    NA+44426  19.203   8.390   3.303
76097NA+    NA+44427  35.598   1.369  11.113
76098NA+    NA+44428   9.725  32.143  10.617
76099NA+    NA+44429  15.664   0.988   3.161
76100NA+    NA+44430  21.193  34.437  11.542
76101NA+    NA+44431  28.165  16.086   3.839
76102NA+    NA+44432  30.025  42.806  13.508
76103NA+    NA+44433  38.015  40.045   1.400
76104NA+    NA+44434   0.968   3.938  10.961
76105NA+    NA+44435   6.830   0.969  11.944
76106NA+    NA+44436   5.709  31.938  13.333
76107NA+    NA+44437  28.500  26.588   4.340
76108NA+    NA+44438   4.888   6.877  11.113
76109NA+    NA+44439  18.117  42.882   2.852
76110NA+    NA+44440  39.943   0.390  14.881
76111NA+    NA+44441   2.943  39.466  13.811
76112NA+    NA+44442  37.557  33.938   0.911
76113NA+    NA+44443  26.509  25.672  14.940
76114NA+    NA+44444  12.623  25.017  10.558
76115NA+    NA+44445  21.026  26.006   1.907
76116NA+    NA+44446  11.258  19.607  14.801
76117NA+    NA+44447  17.799   9.775  10.573
76118NA+    NA+44448   6.849  13.643   4.123
76119NA+    NA+44449  28.491  16.119  13.498
76120NA+    NA+44450   9.820  10.676   0.473
76121NA+    NA+44451   7.209  43.871  13.472
76122NA+    NA+44452  15.766  16.611   4.650
76123NA+    NA+44453  44.356  36.085   0.261
76124NA+    NA+44454  23.084  35.376  13.023
76125NA+    NA+44455  29.527  34.544  11.575
76126NA+    NA+44456   8.797  21.708   3.864
76127NA+    NA+44457   2.876  15.646   0.438
76128NA+    NA+44458  39.992  26.086   2.332
76129NA+    NA+44459  10.224  35.858   3.285
76130NA+    NA+44460   7.892  29.020  13.401
76131NA+    NA+44461  30.983  41.457   4.199
76132NA+    NA+44462  38.372  37.513   3.322
76133NA+    NA+44463  33.126  33.456   1.829
76134NA+    NA+44464  33.894  29.524  10.549
76135NA+    NA+44465  35.388  37.902  13.527
76136NA+    NA+44466   4.826   7.204   4.233
76137NA+    NA+44467   7.786  39.006  13.818
76138NA+    NA+44468  30.949   9.806  11.456
76139NA+    NA+44469  43.802   9.739  14.814
76140NA+    NA+44470  33.917  28.616   1.846
76141NA+    NA+44471  36.091  34.557  10.525
76142NA+    NA+44472   2.963  41.038   0.794
76143NA+    NA+44473   9.246  24.700   4.771
76144NA+    NA+44474  14.165  40.490   0.358
76145NA+    NA+44475  19.193   6.244  10.425
76146NA+    NA+44476  32.077  12.626   4.721
76147NA+    NA+44477  35.928  44.304   0.476
76148NA+    NA+44478  44.313  35.591  11.424
76149NA+    NA+44479   7.291  33.989  11.450
76150NA+    NA+44480   0.330  16.251   2.247
76151NA+    NA+44481  19.077  29.148  12.455
76152NA+    NA+44482  33.975  11.763  14.808
76153NA+    NA+44483  22.557   4.242  14.880
76154NA+    NA+44484  33.410  43.836   0.468
76155NA+    NA+44485   7.722  26.675  14.820
76156NA+    NA+44486  40.849   8.817   1.787
76157NA+    NA+44487   7.219  27.479  14.333
76158NA+    NA+44488  21.685  10.752  10.127
76159NA+    NA+44489  20.254  19.199   2.809
76160NA+    NA+44490  34.520   2.861  11.413
76161NA+    NA+44491  30.433  15.704  10.449
76162NA+    NA+44492  41.454   0.859  13.321
76163NA+    NA+44493  40.022  27.080  10.518
76164NA+    NA+44494  33.443   7.310  10.630
76165NA+    NA+44495  21.584  37.997  10.457
76166NA+    NA+44496  19.619  25.488  10.427
76167NA+    NA+44497   4.869  36.082   1.934
76168NA+    NA+44498   4.763  29.146   0.728
76169NA+    NA+44499  41.447  29.994   1.844
76170NA+    NA+44500  33.065  14.242  10.473
76171NA+    NA+44501   0.870   1.918  11.964
76172NA+    NA+44502  39.357  35.402   1.849
76173NA+    NA+44503  35.969   7.813   2.805
76174NA+    NA+44504  31.927  13.204  11.057
76175NA+    NA+44505  22.695   1.395   0.255
76176NA+    NA+44506   8.350  44.959  12.887
76177NA+    NA+44507  17.621   2.296  13.311
76178NA+    NA+44508   0.279  32.011  10.906
76179NA+    NA+44509  31.479   9.228   1.393
76180NA+    NA+44510  39.938  16.111  13.381
76181NA+    NA+44511  10.180  19.684   5.216
76182NA+    NA+44512  28.496  32.472   2.208
76183NA+    NA+44513  11.734   9.803   1.730
76184NA+    NA+44514  15.627  25.703  13.939
76185NA+    NA+44515  27.169  20.048   3.725
76186NA+    NA+44516   9.209  44.474  13.519
76187NA+    NA+44517  22.518   1.466   1.241
76188NA+    NA+44518  16.790   6.832   3.218
76189NA+    NA+44519  38.031  15.636  14.945
76190NA+    NA+44520  44.921  19.050   1.422
76191NA+    NA+44521  34.042  31.480  12.510
76192NA+    NA+44522  15.676  14.330   3.297
76193NA+    NA+44523   4.839  16.147  10.630
76194NA+    NA+44524  30.997  20.611  12.467
76195NA+    NA+44525   5.771  19.734  11.381
76196NA+    NA+44526  21.222   0.823  14.423
76197NA+    NA+44527  10.220  38.390   1.770
76198NA+    NA+44528   0.767   2.351  11.091
76199NA+    NA+44529   0.377  13.240   1.705
76200NA+    NA+44530  36.400  15.219   0.726
76201NA+    NA+44531  20.157  30.442  12.376
76202NA+    NA+44532  31.534  33.093   0.866
76203NA+    NA+44533  40.468  14.278  12.460
76204NA+    NA+44534  28.954  34.895  14.428
76205NA+    NA+44535  34.584  35.374  14.782
76206NA+    NA+44536  28.051   5.202  13.985
76207NA+    NA+44537  21.022  34.098  14.772
76208NA+    NA+44538  23.031   0.310   4.664
76209NA+    NA+44539   4.842  26.154   3.743
76210NA+    NA+44540  25.476   7.235  12.839
76211NA+    NA+44541  21.087  13.144  12.483
76212NA+    NA+44542   4.391  40.976  12.067
76213NA+    NA+44543  38.881  22.572   0.388
76214NA+    NA+44544  40.916  32.025   3.283
76215NA+    NA+44545   1.797  12.737   2.782
76216NA+    NA+44546  25.213   4.750  13.818
76217NA+    NA+44547  14.136  29.608   2.265
76218NA+    NA+44548  44.767   7.278  13.419
76219NA+    NA+44549  40.798  38.007   1.316
76220NA+    NA+44550  31.435  35.540  11.612
76221NA+    NA+44551  23.092  33.913   2.673
76222NA+    NA+44552  35.096  13.727  12.020
76223NA+    NA+44553  39.549  22.740   0.825
76224NA+    NA+44554  12.826  26.010  14.463
76225NA+    NA+44555  40.539  32.468  10.472
76226NA+    NA+44556  12.329  13.248   0.805
76227NA+    NA+44557  43.416  40.861  13.505
76228NA+    NA+44558  19.600  18.083  11.426
76229NA+    NA+44559  32.950  40.995  10.490
76230NA+    NA+44560  18.273  29.033  11.439
76231NA+    NA+44561  23.652  29.039  11.874
76232NA+    NA+44562  34.397  37.893  12.904
76233NA+    NA+44563  17.655   8.679   0.939
76234NA+    NA+44564  16.312  42.398   0.468
76235NA+    NA+44565  11.816  44.342   3.360
76236NA+    NA+44566  27.072  31.934   4.350
76237NA+    NA+44567  43.995  14.281  12.505
76238NA+    NA+44568  12.781  19.602   3.714
76239NA+    NA+44569  17.768   2.393   2.800
76240NA+    NA+44570  31.121   8.168  12.465
76241NA+    NA+44571  43.015   6.263   0.369
76242NA+    NA+44572  20.764   4.344   1.725
76243NA+    NA+44573  29.918   8.226  10.596
76244NA+    NA+44574  32.095   4.255  14.340
76245NA+    NA+44575  24.194  30.140  12.549
76246NA+    NA+44576   4.333  29.563   1.741
76247NA+    NA+44577  30.532  18.738  11.933
76248NA+    NA+44578   5.772  23.999   4.602
76249NA+    NA+44579  11.797  32.530  12.025
76250NA+    NA+44580  19.062  35.883   4.801
76251NA+    NA+44581  28.183  32.926  10.998
76252NA+    NA+44582  29.111  10.322   0.459
76253NA+    NA+44583   2.341   1.449   1.363
76254NA+    NA+44584  24.098  20.145   4.290
76255NA+    NA+44585  18.071  38.020  11.596
76256NA+    NA+44586  23.539   7.711   0.328
76257NA+    NA+44587  41.372  13.664   3.180
76258NA+    NA+44588  12.183  40.455  10.587
76259NA+    NA+44589   7.873  27.092   2.404
76260NA+    NA+44590  13.642  27.024   0.482
76261NA+    NA+44591   5.882  29.506  11.454
76262NA+    NA+44592  37.946   0.388  10.898
76263NA+    NA+44593  22.044   7.372   5.797
76264NA+    NA+44594  12.705  33.930  12.407
76265NA+    NA+44595  13.317   4.438   3.305
76266NA+    NA+44596  19.079  39.377  12.559
76267NA+    NA+44597  40.016   3.367   4.617
76268NA+    NA+44598  22.735  25.673  10.587
76269NA+    NA+44599  37.432  25.494   2.302
76270NA+    NA+44600  14.211   2.912  11.520
76271NA+    NA+44601   2.778   8.178  10.462
76272NA+    NA+44602  16.286  17.792   2.860
76273NA+    NA+44603  18.575  19.279  11.466
76274NA+    NA+44604  11.761  38.862  14.028
76275NA+    NA+44605  14.804  30.061  10.549
76276NA+    NA+44606  41.401   7.836   1.371
76277NA+    NA+44607  31.036   3.752   0.914
76278NA+    NA+44608  23.995  25.027  12.833
76279NA+    NA+44609  19.260  20.562  11.447
76280NA+    NA+44610  39.817   8.674  13.510
76281NA+    NA+44611  10.142   2.862   2.255
76282NA+    NA+44612  43.463  24.590  12.521
76283NA+    NA+44613  37.345  28.045  10.491
76284NA+    NA+44614  37.424   3.402  12.515
76285NA+    NA+44615  22.646  22.639   4.293
76286NA+    NA+44616  29.488  26.989   3.700
76287NA+    NA+44617  38.464  37.868   4.603
76288NA+    NA+44618  38.821  33.408  13.852
76289NA+    NA+44619  20.200  41.317   2.758
76290NA+    NA+44620  17.756  15.592  10.409
76291NA+    NA+44621   0.435   9.847  13.340
76292NA+    NA+44622  11.143  37.513   1.836
76293NA+    NA+44623  32.890  32.528   2.243
76294NA+    NA+44624  29.475   0.490  12.474
76295NA+    NA+44625  39.925  33.898  10.473
76296NA+    NA+44626  41.882  24.115  10.619
76297NA+    NA+44627   6.364  18.055   2.226
76298NA+    NA+44628  11.773   7.679   4.130
76299NA+    NA+44629  13.258  41.810  10.988
76300NA+    NA+44630  44.907  39.924  12.439
76301NA+    NA+44631  29.645  19.093  14.325
76302NA+    NA+44632  11.766   9.675  11.374
76303NA+    NA+44633   6.287   1.971  11.078
76304NA+    NA+44634  16.290  25.580  10.514
76305NA+    NA+44635   5.687  35.034   2.217
76306NA+    NA+44636  37.024  28.165   4.608
76307NA+    NA+44637   9.327   7.309  13.371
76308NA+    NA+44638  13.149   4.837  10.898
76309NA+    NA+44639  35.435  11.327   3.203
76310NA+    NA+44640   3.909  27.965  14.319
76311NA+    NA+44641  42.815   7.374   0.479
76312NA+    NA+44642  28.980  13.166  10.467
76313NA+    NA+44643  15.817   3.313   5.121
76314NA+    NA+44644  21.711   0.484   0.963
76315NA+    NA+44645  38.856   2.814   1.726
76316NA+    NA+44646  26.116  20.573  12.824
76317NA+    NA+44647  25.080  25.217  11.546
76318NA+    NA+44648  12.197  10.665   0.908
76319NA+    NA+44649  16.605  31.444  12.447
76320NA+    NA+44650  28.978  27.952  14.389
76321NA+    NA+44651   3.430  16.150   1.807
76322NA+    NA+44652   7.806  17.145  10.592
76323NA+    NA+44653   2.935  40.407   3.716
76324NA+    NA+44654  23.089   0.914   3.746
76325NA+    NA+44655  25.586  31.038  12.358
76326NA+    NA+44656  30.451  18.632   2.218
76327NA+    NA+44657  13.832   6.371  12.067
76328NA+    NA+44658  24.535  36.592  13.929
76329NA+    NA+44659  18.621  43.989   1.758
76330NA+    NA+44660   1.931   2.371   1.268
76331NA+    NA+44661  12.730   2.847   4.286
76332NA+    NA+44662  37.451  10.679   1.695
76333NA+    NA+44663  23.125  35.925   0.478
76334NA+    NA+44664  10.170   1.754  11.493
76335NA+    NA+44665  38.866  21.175   4.169
76336NA+    NA+44666  27.946  20.690  11.904
76337NA+    NA+44667  28.032  25.099   2.319
76338NA+    NA+44668  40.847  14.185  11.873
76339NA+    NA+44669  24.702  23.582   3.817
76340NA+    NA+44670   4.216   2.899  13.987
76341NA+    NA+44671   6.240  12.710   0.805
76342NA+    NA+44672   9.689  29.950   1.320
76343NA+    NA+44673  23.061   8.678  11.108
76344NA+    NA+44674  41.033  39.458   3.187
76345NA+    NA+44675  23.033  42.822   0.796
76346NA+    NA+44676  25.624  39.966  13.875
76347NA+    NA+44677  13.816  15.799  12.050
76348NA+    NA+44678  33.576  24.068  13.924
76349NA+    NA+44679   5.429  26.981  13.441
76350NA+    NA+44680  37.054  36.942   0.280
76351NA+    NA+44681  26.547  16.641   4.770
76352NA+    NA+44682  19.218  43.870  13.860
76353NA+    NA+44683  40.032  33.951   0.792
76354NA+    NA+44684  20.531  33.562   0.282
76355NA+    NA+44685  29.973  22.512  13.409
76356NA+    NA+44686  13.342  32.609  12.534
76357NA+    NA+44687  15.319  39.471   4.347
76358NA+    NA+44688  31.490  43.824   0.751
76359NA+    NA+44689   4.917   5.715  10.536
76360NA+    NA+44690  44.911   7.268   2.374
76361NA+    NA+44691  42.876   4.847   4.300
76362NA+    NA+44692  14.212   1.842  14.434
76363NA+    NA+44693   3.711  13.725   4.240
76364NA+    NA+44694  36.994  34.987  11.396
76365NA+    NA+44695   5.206  25.134  14.879
76366NA+    NA+44696   3.354  39.868   4.353
76367NA+    NA+44697   0.861  35.593  14.866
76368NA+    NA+44698  39.893   9.300   3.228
76369NA+    NA+44699  17.691   1.439  11.518
76370NA+    NA+44700  38.340  19.551   0.890
76371NA+    NA+44701   5.288  34.051   2.761
76372NA+    NA+44702   7.877  36.957  13.980
76373NA+    NA+44703  31.050   0.863  14.413
76374NA+    NA+44704  12.738  40.826   1.695
76375NA+    NA+44705  28.466  30.633  10.042
76376NA+    NA+44706   2.244  36.470  11.885
76377NA+    NA+44707  31.408  41.942   0.458
76378NA+    NA+44708   2.278  38.911  13.404
76379NA+    NA+44709   5.845  43.377   0.322
76380NA+    NA+44710  40.390   6.223   3.269
76381NA+    NA+44711  26.567  12.666  10.581
76382NA+    NA+44712  18.096  34.899  14.442
76383NA+    NA+44713   8.876   8.316  12.444
76384NA+    NA+44714  17.654  15.290   3.260
76385NA+    NA+44715  24.633  35.422  14.802
76386NA+    NA+44716   6.700  24.070   1.413
76387NA+    NA+44717   4.426  25.041  13.880
76388NA+    NA+44718   9.764   7.790   2.201
76389NA+    NA+44719  19.581  26.069   0.912
76390NA+    NA+44720  31.578  25.707   3.230
76391NA+    NA+44721  43.426   6.893  13.494
76392NA+    NA+44722  35.568  25.179  14.379
76393NA+    NA+44723  19.666  15.671   5.090
76394NA+    NA+44724   3.416  34.913   4.695
76395NA+    NA+44725   1.806  15.602  12.354
76396NA+    NA+44726  27.993  35.103   2.758
76397NA+    NA+44727  24.048  29.662   1.380
76398NA+    NA+44728  17.736   1.944  13.545
76399NA+    NA+44729  19.263  11.295   0.815
76400NA+    NA+44730   1.290  12.793   3.279
76401NA+    NA+44731  30.983  13.215   4.182
76402NA+    NA+44732   6.406  32.464  14.874
76403NA+    NA+44733  35.911  17.658   0.266
76404NA+    NA+44734  16.595   5.230   3.713
76405NA+    NA+44735  42.895  31.586   4.700
76406NA+    NA+44736  28.453  35.358   1.327
76407NA+    NA+44737  15.697  41.425   1.924
76408NA+    NA+44738  39.958   4.703  11.034
76409NA+    NA+44739  21.057  13.815  13.804
76410NA+    NA+44740  39.037  42.374   0.774
76411NA+    NA+44741  35.882  11.330  13.921
76412NA+    NA+44742  12.704  35.894  12.396
76413NA+    NA+44743  41.880  20.733  12.920
76414NA+    NA+44744  15.166  34.504  10.018
76415NA+    NA+44745   4.374  24.995   0.776
76416NA+    NA+44746  43.841   0.456  14.869
76417NA+    NA+44747   9.707   8.846   0.764
76418NA+    NA+44748   7.740   6.257  13.333
76419NA+    NA+44749   6.767  20.180  12.067
76420NA+    NA+44750  31.100  37.035  10.592
76421NA+    NA+44751  32.098   7.814  10.558
76422NA+    NA+44752  10.300  29.577   5.122
76423NA+    NA+44753  43.876  25.525  14.020
76424NA+    NA+44754   1.835  37.359   3.720
76425NA+    NA+44755   8.830  38.067  12.976
76426NA+    NA+44756  28.176   8.812   3.244
76427NA+    NA+44757  19.742   7.232  13.421
76428NA+    NA+44758  29.968   1.340   4.325
76429NA+    NA+44759  25.154   6.865   2.694
76430NA+    NA+44760  35.004  24.604   0.885
76431NA+    NA+44761  15.750   5.926  13.063
76432NA+    NA+44762  43.363   3.908  14.374
76433NA+    NA+44763   0.489  31.059  10.418
76434NA+    NA+44764  39.900   3.740   2.293
76435NA+    NA+44765  24.700  13.800  14.892
76436NA+    NA+44766  21.101  27.955   5.199
76437NA+    NA+44767  23.684   6.380   3.847
76438NA+    NA+44768  10.876   1.791   2.783
76439NA+    NA+44769  40.925  20.702   0.960
76440NA+    NA+44770  36.423  34.873  13.922
76441NA+    NA+44771  38.525   0.810   1.850
76442NA+    NA+44772  38.013  22.672   3.865
76443NA+    NA+44773  11.315  12.168   4.313
76444NA+    NA+44774   6.774   4.418   3.797
76445NA+    NA+44775  20.202  14.209   0.473
76446NA+    NA+44776   6.355  35.567   4.179
76447NA+    NA+44777   8.786  29.535   1.802
76448NA+    NA+44778   1.882  20.687   2.230
76449NA+    NA+44779  26.640  25.182  13.504
76450NA+    NA+44780  25.198  37.855  14.829
76451NA+    NA+44781   4.755  18.296  10.118
76452NA+    NA+44782  23.216  33.453   3.858
76453NA+    NA+44783   9.787  10.219  13.831
76454NA+    NA+44784   1.740   5.237  12.857
76455NA+    NA+44785  18.670  30.610  14.821
76456NA+    NA+44786  24.714  29.110   2.333
76457NA+    NA+44787  42.007   9.647   2.848
76458NA+    NA+44788  44.343  26.473  13.041
76459NA+    NA+44789   8.287  31.452  13.825
76460NA+    NA+44790  41.335  42.792  12.074
76461NA+    NA+44791  39.858   1.859   0.263
76462NA+    NA+44792  36.353  30.131  11.439
76463NA+    NA+44793  17.185  18.177   4.188
76464NA+    NA+44794  10.796  23.126   3.813
76465NA+    NA+44795  40.004  39.480   1.329
76466NA+    NA+44796  43.949  22.110  13.804
76467NA+    NA+44797  28.513   4.832   2.709
76468NA+    NA+44798  32.473  19.128  13.474
76469NA+    NA+44799   7.341  33.965   4.288
76470NA+    NA+44800  37.504  22.012  14.767
76471NA+    NA+44801  41.961  10.809   4.339
76472NA+    NA+44802  44.755  23.557   0.850
76473NA+    NA+44803  37.498  18.673   1.264
76474NA+    NA+44804  20.054  34.460  14.283
76475NA+    NA+44805  18.218  16.193   0.871
76476NA+    NA+44806   1.359  42.423   4.691
76477NA+    NA+44807  18.253   1.812  13.381
76478NA+    NA+44808  12.636  26.684  12.026
76479NA+    NA+44809  30.002  18.288  12.951
76480NA+    NA+44810  25.973  41.463  13.464
76481NA+    NA+44811   8.317  23.650   1.926
76482NA+    NA+44812  12.362  19.667   1.342
76483NA+    NA+44813   1.404  12.232  12.464
76484NA+    NA+44814  33.602  41.863   1.259
76485NA+    NA+44815  26.034  27.674   3.328
76486NA+    NA+44816   7.359  33.511  14.328
76487NA+    NA+44817  20.632  11.365  12.436
76488NA+    NA+44818  32.462  11.841   0.819
76489NA+    NA+44819  29.948  15.291  13.027
76490NA+    NA+44820   9.821  37.860  11.125
76491NA+    NA+44821  32.957  24.152   1.926
76492NA+    NA+44822  25.480  30.914   2.393
76493NA+    NA+44823  18.717  35.535   1.258
76494NA+    NA+44824  24.596  38.550  13.814
76495NA+    NA+44825  37.457  17.204  14.981
76496NA+    NA+44826  35.445  18.610   1.905
76497NA+    NA+44827   3.925  17.207   4.643
76498NA+    NA+44828   4.425  31.945  14.363
76499NA+    NA+44829  38.827   1.285  13.957
76500NA+    NA+44830  33.981  29.461  11.004
76501NA+    NA+44831   2.874  29.172  13.393
76502NA+    NA+44832  30.503  12.634   0.867
76503NA+    NA+44833  27.064  25.070   1.887
76504NA+    NA+44834  40.407   7.319  12.071
76505NA+    NA+44835  37.931  17.635   0.783
76506NA+    NA+44836   6.844  42.283  13.442
76507NA+    NA+44837  22.616  26.981   3.366
76508NA+    NA+44838   2.942   5.702   1.885
76509NA+    NA+44839  10.724  28.615  14.457
76510NA+    NA+44840  39.886  12.134  14.976
76511NA+    NA+44841  23.650   6.792   4.777
76512NA+    NA+44842  37.979  18.713  12.577
76513NA+    NA+44843  18.580   9.715   1.740
76514NA+    NA+44844  11.207  44.442   3.289
76515NA+    NA+44845  19.090  38.066  13.944
76516NA+    NA+44846   7.256   6.259   1.750
76517NA+    NA+44847  25.972  23.509  12.842
76518NA+    NA+44848  21.175  17.720   5.161
76519NA+    NA+44849  17.689   5.222  12.031
76520NA+    NA+44850  31.116  31.003   2.371
76521NA+    NA+44851   3.405  22.642   1.892
76522NA+    NA+44852  14.617  20.095   1.373
76523NA+    NA+44853  43.851   1.239   2.737
76524NA+    NA+44854  33.888  41.944   3.860
76525NA+    NA+44855  26.572  21.117   2.786
76526NA+    NA+44856  19.678  41.802   3.681
76527NA+    NA+44857  43.470  24.987   9.920
76528NA+    NA+44858  20.043  21.213   3.164
76529NA+    NA+44859   4.393  33.022  14.021
76530NA+    NA+44860  23.204  13.705   1.746
76531NA+    NA+44861  17.188  31.950   3.212
76532NA+    NA+44862   5.706  25.523   2.383
76533NA+    NA+44863   3.387  23.107   4.130
76534NA+    NA+44864   6.918  36.899   1.419
76535NA+    NA+44865  27.131  19.125   4.210
76536NA+    NA+44866  28.142  14.335   2.213
76537NA+    NA+44867   3.364  31.956   1.832
76538NA+    NA+44868  19.143   6.428   4.226
76539NA+    NA+44869  11.293  29.603   4.176
76540NA+    NA+44870  25.634   5.231   2.833
76541NA+    NA+44871  39.031  41.502   1.767
76542NA+    NA+44872  40.018  44.830   3.252
76543NA+    NA+44873  39.494  14.660   1.935
76544NA+    NA+44874   1.454  12.636  11.522
76545NA+    NA+44875  27.512  17.163  12.892
76546NA+    NA+44876  21.184  36.521  13.422
76547NA+    NA+44877  40.882  12.774   1.783
76548NA+    NA+44878  41.845  20.203   0.247
76549NA+    NA+44879  44.287  23.115  12.996
76550NA+    NA+44880  34.068  12.719   4.293
76551NA+    NA+44881  29.971  19.231  11.918
76552NA+    NA+44882  37.910  16.247  13.808
76553NA+    NA+44883  13.324   1.812  13.905
76554NA+    NA+44884   5.325   7.824  13.882
76555NA+    NA+44885  26.518   7.680  10.536
76556NA+    NA+44886  19.768  38.327   4.123
76557NA+    NA+44887  18.166  28.036  13.054
76558NA+    NA+44888  44.268  11.229   1.812
76559NA+    NA+44889  19.043   4.756   2.313
76560NA+    NA+44890  21.641  30.651  11.599
76561NA+    NA+44891  18.219  12.661   3.700
76562NA+    NA+44892  27.981  12.316   5.188
76563NA+    NA+44893  24.540  22.540  11.430
76564NA+    NA+44894  39.039  40.051  14.426
76565NA+    NA+44895  44.792  24.217   0.350
76566NA+    NA+44896   4.883  13.304  13.476
76567NA+    NA+44897   6.407  44.772  14.356
76568NA+    NA+44898  34.097  36.985   4.194
76569NA+    NA+44899  40.490  32.084  13.003
76570NA+    NA+44900  19.180  28.634  14.782
76571NA+    NA+44901  33.054  43.009  14.860
76572NA+    NA+44902  19.229  33.440   2.331
76573NA+    NA+44903  41.330  39.454   0.933
76574NA+    NA+44904   0.785  14.187   0.414
76575NA+    NA+44905  31.609  24.675   3.387
76576NA+    NA+44906  15.126  23.062  14.802
76577NA+    NA+44907  28.465  15.268   4.142
76578NA+    NA+44908  32.123  43.774  11.929
76579NA+    NA+44909  20.550  40.901   1.832
76580NA+    NA+44910  33.405  33.004   4.800
76581NA+    NA+44911  13.119   9.249  14.356
76582NA+    NA+44912   0.844  37.500   4.608
76583NA+    NA+44913  26.176  18.267  10.574
76584NA+    NA+44914  41.462  37.561  12.880
76585NA+    NA+44915  32.914   3.786  10.569
76586NA+    NA+44916  41.032   8.321   5.641
76587NA+    NA+44917  33.115  28.664   3.676
76588NA+    NA+44918  30.143   6.251  14.800
76589NA+    NA+44919  35.598  10.237   0.336
76590NA+    NA+44920  11.184  22.196  11.580
76591NA+    NA+44921   4.855  41.870   2.845
76592NA+    NA+44922   8.740  26.558  13.400
76593NA+    NA+44923  14.183  33.517  13.330
76594NA+    NA+44924  15.115   1.812   2.897
76595NA+    NA+44925  11.196  19.079   0.782
76596NA+    NA+44926  44.814  42.421  14.420
76597NA+    NA+44927  25.490  22.695   3.373
76598NA+    NA+44928  12.660  14.306  10.937
76599NA+    NA+44929  10.841  30.122   0.899
76600NA+    NA+44930   4.754   0.815  11.409
76601NA+    NA+44931   3.334  33.483  11.061
76602NA+    NA+44932  29.524  17.113   2.769
76603NA+    NA+44933  40.325  26.163  13.030
76604NA+    NA+44934  35.920  32.463   1.325
76605NA+    NA+44935  18.635  42.503  10.965
76606NA+    NA+44936   2.227  38.066   3.146
76607NA+    NA+44937  18.714  11.364   2.771
76608NA+    NA+44938  18.670  11.759  11.382
76609NA+    NA+44939   2.395   2.822  11.044
76610NA+    NA+44940  15.639  36.390   2.259
76611NA+    NA+44941   4.835   0.780  13.854
76612NA+    NA+44942  28.989  27.594   0.844
76613NA+    NA+44943  44.917  27.004  10.422
76614NA+    NA+44944  42.351  20.749   1.737
76615NA+    NA+44945  31.549   8.851  11.417
76616NA+    NA+44946  40.845   2.782  12.941
76617NA+    NA+44947  13.333   1.305  11.060
76618NA+    NA+44948  34.935  27.064   3.227
76619NA+    NA+44949   4.284  38.409   1.904
76620NA+    NA+44950   3.272  30.491  13.035
76621NA+    NA+44951   2.448  36.056  10.044
76622NA+    NA+44952  13.601   7.766   0.782
76623NA+    NA+44953  43.481  22.560  13.441
76624NA+    NA+44954  15.302  18.696  12.077
76625NA+    NA+44955  44.488  21.749  12.437
76626NA+    NA+44956  10.810  44.278   2.401
76627NA+    NA+44957  36.423  10.793  14.318
76628NA+    NA+44958   9.755   6.730  11.057
76629NA+    NA+44959  43.780   1.923  11.515
76630NA+    NA+44960  44.279  44.404   2.694
76631NA+    NA+44961  40.989  31.456  13.366
76632NA+    NA+44962   4.421  36.923   0.747
76633NA+    NA+44963   3.300  17.764  12.869
76634NA+    NA+44964  13.110   7.181  14.978
76635NA+    NA+44965  44.278  40.322   2.901
76636NA+    NA+44966  11.350   5.214  11.044
76637NA+    NA+44967  26.603  31.026   2.674
76638NA+    NA+44968   2.420  22.008   4.169
76639NA+    NA+44969  38.836  17.732   0.886
76640NA+    NA+44970   1.816  39.502  14.385
76641NA+    NA+44971  39.065   1.453  12.566
76642NA+    NA+44972  19.576  26.035  13.839
76643NA+    NA+44973  29.038  28.972  11.947
76644NA+    NA+44974  13.266  27.976  12.497
76645NA+    NA+44975  10.284  10.689  14.775
76646NA+    NA+44976   8.346  27.006   4.259
76647NA+    NA+44977  22.561  25.498  11.510
76648NA+    NA+44978   7.185  10.347  12.942
76649NA+    NA+44979  39.414  18.731   4.696
76650NA+    NA+44980  28.444  25.146  13.491
76651NA+    NA+44981  24.200  17.754  12.983
76652NA+    NA+44982  40.376  10.207   1.849
76653NA+    NA+44983  33.552  30.067  10.974
76654NA+    NA+44984  12.690  18.667   4.298
76655NA+    NA+44985  15.095   5.382  10.982
76656NA+    NA+44986   7.291   5.793  14.308
76657NA+    NA+44987  17.685  11.696   1.239
76658NA+    NA+44988  27.962   8.392  12.441
76659NA+    NA+44989  40.501  39.507  11.538
76660NA+    NA+44990  28.656  29.637   4.165
76661NA+    NA+44991  43.395  38.515  10.441
76662NA+    NA+44992  11.296  23.543  11.547
76663NA+    NA+44993  33.030  34.563   1.820
76664NA+    NA+44994  31.960  35.968   2.844
76665NA+    NA+44995  26.553  19.550  10.028
76666NA+    NA+44996   7.726  33.564  12.570
76667NA+    NA+44997  13.121   5.199  12.478
76668NA+    NA+44998   6.235  14.768   0.833
76669NA+    NA+44999  20.037  35.484  10.571
76670NA+    NA+45000   2.360  23.001  10.582
76671NA+    NA+45001  14.320  14.243  10.417
76672NA+    NA+45002  22.211  37.850  12.080
76673NA+    NA+45003  26.136   4.766   2.879
76674NA+    NA+45004  20.234  25.514   1.750
76675NA+    NA+45005  36.446  33.904  10.943
76676NA+    NA+45006  30.436  30.078  13.899
76677NA+    NA+45007  28.173  28.136  10.636
76678NA+    NA+45008  24.201  14.650   4.811
76679NA+    NA+45009  21.659  32.034   3.364
76680NA+    NA+45010  41.989  13.195  14.998
76681NA+    NA+45011  35.576  36.933  13.469
76682NA+    NA+45012  41.486   2.954  13.472
76683NA+    NA+45013  28.032  12.851   2.227
76684NA+    NA+45014   2.726  29.111   2.240
76685NA+    NA+45015  33.576  25.634   4.795
76686NA+    NA+45016   1.241   3.954  11.900
76687NA+    NA+45017  17.193  30.647  14.491
76688NA+    NA+45018  20.714  22.618   2.704
76689NA+    NA+45019  11.820   9.815   1.328
76690NA+    NA+45020   6.845   4.745  14.478
76691NA+    NA+45021  12.611  36.558   4.319
76692NA+    NA+45022  24.027  34.917   4.148
76693NA+    NA+45023  34.875  16.137   0.301
76694NA+    NA+45024  38.547  20.138  13.542
76695NA+    NA+45025  31.562  44.768  11.953
76696NA+    NA+45026   7.413  34.963   1.738
76697NA+    NA+45027  26.149  38.022  11.003
76698NA+    NA+45028  11.217  32.517  13.970
76699NA+    NA+45029   6.822  22.700  14.391
76700NA+    NA+45030  25.996  38.844  14.964
76701NA+    NA+45031  35.514  36.894   3.798
76702NA+    NA+45032   8.305  37.959  13.001
76703NA+    NA+45033  30.536  10.345  14.441
76704NA+    NA+45034   1.750   6.272  11.048
76705NA+    NA+45035  15.181   6.423   0.773
76706NA+    NA+45036   3.302  27.082  14.380
76707NA+    NA+45037  34.087  33.898   2.266
76708NA+    NA+45038  30.928   6.224   1.359
76709NA+    NA+45039  11.757  40.396   1.887
76710NA+    NA+45040   5.849   9.299  14.444
76711NA+    NA+45041  11.710  37.557  14.786
76712NA+    NA+45042  42.780  37.484  12.413
76713NA+    NA+45043  20.675   2.934   4.283
76714NA+    NA+45044  44.885  38.499  11.022
76715NA+    NA+45045  37.045  20.185  11.492
76716NA+    NA+45046  28.489  20.220  11.571
76717NA+    NA+45047  15.236  22.629  12.955
76718NA+    NA+45048  23.148   5.869  14.322
76719NA+    NA+45049  34.433  29.535   3.338
76720NA+    NA+45050  31.149   5.270  10.931
76721NA+    NA+45051  11.744  10.296  12.849
76722NA+    NA+45052  18.622  10.772   3.356
76723NA+    NA+45053  38.880  38.510  11.956
76724NA+    NA+45054  20.630  33.997  11.972
76725NA+    NA+45055  40.446  19.222   3.766
76726NA+    NA+45056   4.781  36.561  14.471
76727NA+    NA+45057  20.672  37.553  11.535
76728NA+    NA+45058   3.388   8.166   4.328
76729NA+    NA+45059  12.764   2.863  14.865
76730NA+    NA+45060  29.624  32.958   3.867
76731NA+    NA+45061   9.308  17.607  11.045
76732NA+    NA+45062  22.628  44.359   4.723
76733NA+    NA+45063  13.314  22.553  10.911
76734NA+    NA+45064  22.168  27.604   9.600
76735NA+    NA+45065  11.790  41.792  12.061
76736NA+    NA+45066  22.147  33.957   4.329
76737NA+    NA+45067  29.970   2.833   3.840
76738NA+    NA+45068  13.813   1.296   1.771
76739NA+    NA+45069   7.322  23.704   4.782
76740NA+    NA+45070  12.627  39.343   0.836
76741NA+    NA+45071  34.373  42.895  11.480
76742NA+    NA+45072   6.857  23.701  14.863
76743NA+    NA+45073  29.597  25.076   2.680
76744NA+    NA+45074   2.236  12.175   1.725
76745NA+    NA+45075   9.851  42.383  14.499
76746NA+    NA+45076  22.161   9.385   4.352
76747NA+    NA+45077  16.784  10.759   2.229
76748NA+    NA+45078   8.812  13.799   2.234
76749NA+    NA+45079  31.410  15.795   1.387
76750NA+    NA+45080  35.049  10.224   1.705
76751NA+    NA+45081  42.812   3.748  13.961
76752NA+    NA+45082  29.089  44.804  11.417
76753NA+    NA+45083  23.125  44.771  14.996
76754NA+    NA+45084  26.560  22.062  13.421
76755NA+    NA+45085   5.713  24.209   0.959
76756NA+    NA+45086  20.554  22.248   0.741
76757NA+    NA+45087  20.677   4.238  14.345
76758NA+    NA+45088  19.196  13.792  10.911
76759NA+    NA+45089  37.933  28.136   0.258
76760NA+    NA+45090   6.323   9.375  13.417
76761NA+    NA+45091  43.875  32.909   4.757
76762NA+    NA+45092  11.835  11.141  12.046
76763NA+    NA+45093   7.814  23.041   0.304
76764NA+    NA+45094   9.802  20.125  13.910
76765NA+    NA+45095   7.200  15.748  10.425
76766NA+    NA+45096  30.505  32.997  10.957
76767NA+    NA+45097  11.211  38.528  13.865
76768NA+    NA+45098   3.955  23.622  10.563
76769NA+    NA+45099  12.680  32.494  11.931
76770NA+    NA+45100   2.805  14.761  11.970
76771NA+    NA+45101  13.287  39.025   4.705
76772NA+    NA+45102  22.556  44.270   1.740
76773NA+    NA+45103  20.528   9.713  13.337
76774NA+    NA+45104  36.880  13.313  12.988
76775NA+    NA+45105  33.387  43.390   1.730
76776NA+    NA+45106  20.049  25.171   1.722
76777NA+    NA+45107  34.444  39.527  11.439
76778NA+    NA+45108  33.411  31.036  14.979
76779NA+    NA+45109  17.229  21.258   0.964
76780NA+    NA+45110   5.758   5.806   1.401
76781NA+    NA+45111  35.430  20.130   2.860
76782NA+    NA+45112  25.213  23.222   3.241
76783NA+    NA+45113  33.025  31.015  14.447
76784NA+    NA+45114   1.931   9.779   1.733
76785NA+    NA+45115  12.617  40.025   4.202
76786NA+    NA+45116  36.452  37.956   1.289
76787NA+    NA+45117  44.263  35.541   2.283
76788NA+    NA+45118  33.517   5.777  11.108
76789NA+    NA+45119  38.400  33.589  13.943
76790NA+    NA+45120  21.757  22.686   1.416
76791NA+    NA+45121   1.845  17.091  10.988
76792NA+    NA+45122  43.379  42.823  14.928
76793NA+    NA+45123  12.637  40.001  14.799
76794NA+    NA+45124  16.207  11.267   1.848
76795NA+    NA+45125  21.535   4.322  14.025
76796NA+    NA+45126  23.127  30.034  11.958
76797NA+    NA+45127  44.863  18.232  13.477
76798NA+    NA+45128   7.394  37.029  11.461
76799NA+    NA+45129  43.343  44.755  12.545
76800NA+    NA+45130  16.662   6.819   1.821
76801NA+    NA+45131  31.608   8.167   3.791
76802NA+    NA+45132  44.795  23.683  12.552
76803NA+    NA+45133  15.284  37.547   5.136
76804NA+    NA+45134  24.214  17.137   3.272
76805NA+    NA+45135  19.224  18.226  13.928
76806NA+    NA+45136  30.496  21.574  13.917
76807NA+    NA+45137  26.630  11.167   2.710
76808NA+    NA+45138  23.736  22.019  13.311
76809NA+    NA+45139  22.551  44.467  12.544
76810NA+    NA+45140  38.998  33.086   2.305
76811NA+    NA+45141  20.553  41.921   0.890
76812NA+    NA+45142  40.932  26.085   0.805
76813NA+    NA+45143  17.086  23.493   0.802
76814NA+    NA+45144  23.111  15.196  12.888
76815NA+    NA+45145   3.419  36.004   4.751
76816NA+    NA+45146   0.475   7.240   0.336
76817NA+    NA+45147  43.797  17.786  12.084
76818NA+    NA+45148  24.193  36.385  11.973
76819NA+    NA+45149  18.625  25.639   3.684
76820NA+    NA+45150  41.008  42.335  12.922
76821NA+    NA+45151  11.257  18.666   2.278
76822NA+    NA+45152  42.334  22.049  12.471
76823NA+    NA+45153  43.296  35.387   2.220
76824NA+    NA+45154  44.335  22.618  13.520
76825NA+    NA+45155  40.453   9.329  14.924
76826NA+    NA+45156  44.785  21.653  12.087
76827NA+    NA+45157   4.215   2.837  14.330
76828NA+    NA+45158  30.099  15.199  13.869
76829NA+    NA+45159   9.647  32.426   0.405
76830NA+    NA+45160  24.540   8.337   2.382
76831NA+    NA+45161  35.087  37.067   0.246
76832NA+    NA+45162  18.170  24.598   2.415
76833NA+    NA+45163  42.525  32.525   0.468
76834NA+    NA+45164  14.186  26.556   4.202
76835NA+    NA+45165  25.164  23.193  10.995
76836NA+    NA+45166  43.336  17.785   2.384
76837NA+    NA+45167  43.980  17.092  14.409
76838NA+    NA+45168  28.530  16.698   3.265
76839NA+    NA+45169  27.980   0.821   3.153
76840NA+    NA+45170   0.277   0.950   2.751
76841NA+    NA+45171  30.507  31.527   1.712
76842NA+    NA+45172  38.870   9.253   4.142
76843NA+    NA+45173   7.209  14.677  10.418
76844NA+    NA+45174  36.864  38.920   4.795
76845NA+    NA+45175  29.017  17.106   3.357
76846NA+    NA+45176   5.261  44.413  12.883
76847NA+    NA+45177   7.717   1.284   4.181
76848NA+    NA+45178  35.040  10.729   0.409
76849NA+    NA+45179  17.215  28.166  12.484
76850NA+    NA+45180   5.220   5.927   2.682
76851NA+    NA+45181  14.778  42.386  12.526
76852NA+    NA+45182   8.184  21.212  12.961
76853NA+    NA+45183  30.014  32.485  14.330
76854NA+    NA+45184  20.124  11.714   0.881
76855NA+    NA+45185   3.930   6.325   1.851
76856NA+    NA+45186  30.967  24.500  12.390
76857NA+    NA+45187  30.641   0.429  11.937
76858NA+    NA+45188  34.082   3.756  13.450
76859NA+    NA+45189  30.444  41.802  13.981
76860NA+    NA+45190  23.537  37.021   3.773
76861NA+    NA+45191  14.265  34.018   4.600
76862NA+    NA+45192  22.523  16.291   1.701
76863NA+    NA+45193  44.337  20.054  11.567
76864NA+    NA+45194   0.784  30.093  13.938
76865NA+    NA+45195  37.839  16.195   3.284
76866NA+    NA+45196  33.527  11.340   3.237
76867NA+    NA+45197   2.229   8.834   2.333
76868NA+    NA+45198  12.250  40.961   3.173
76869NA+    NA+45199   1.364  36.936   0.436
76870NA+    NA+45200   3.256   9.264   4.314
76871NA+    NA+45201   1.438  30.588  12.955
76872NA+    NA+45202  35.534  31.458  14.929
76873NA+    NA+45203  21.017   8.305  10.552
76874NA+    NA+45204  41.329  14.694  11.451
76875NA+    NA+45205  18.156  43.428  12.972
76876NA+    NA+45206  10.351  36.429   1.713
76877NA+    NA+45207  14.686  37.456   2.763
76878NA+    NA+45208  38.869  16.610  11.945
76879NA+    NA+45209  43.983  31.969   1.825
76880NA+    NA+45210  16.148  27.488  10.962
76881NA+    NA+45211   3.796  29.565   0.349
76882NA+    NA+45212  42.292  33.024  12.865
76883NA+    NA+45213  39.418  16.781  13.821
76884NA+    NA+45214  31.921  14.151   2.293
76885NA+    NA+45215  24.183  11.689   3.763
76886NA+    NA+45216  40.367  13.164   0.268
76887NA+    NA+45217  22.684  33.989  14.378
76888NA+    NA+45218  32.083   6.776   2.386
76889NA+    NA+45219  19.743   6.763   1.336
76890NA+    NA+45220  40.894  44.817   3.672
76891NA+    NA+45221  30.541  12.127   2.200
76892NA+    NA+45222  29.603  30.658   3.869
76893NA+    NA+45223  37.088  22.219   2.789
76894NA+    NA+45224  20.115  21.583   0.369
76895NA+    NA+45225  40.967  26.496  11.580
76896NA+    NA+45226  11.822   3.360   4.121
76897NA+    NA+45227   8.329   4.337  12.417
76898NA+    NA+45228  28.535  11.771   5.753
76899NA+    NA+45229  30.602  18.640   0.294
76900NA+    NA+45230  36.886   5.914  10.433
76901NA+    NA+45231  30.943  13.223   5.109
76902NA+    NA+45232   0.363  35.099   1.823
76903NA+    NA+45233  40.843  26.628   0.331
76904NA+    NA+45234  38.837  14.148  11.866
76905NA+    NA+45235  38.381  11.626   4.801
76906NA+    NA+45236   5.891  21.656   2.694
76907NA+    NA+45237  13.129   1.931  10.568
76908NA+    NA+45238  15.802  40.997   0.397
76909NA+    NA+45239  14.749   0.965   0.756
76910NA+    NA+45240  43.400  30.150  10.561
76911NA+    NA+45241  36.441  23.124  10.523
76912NA+    NA+45242  18.229  32.892  13.998
76913NA+    NA+45243  17.061  32.452   2.868
76914NA+    NA+45244  18.236  18.782  12.846
76915NA+    NA+45245  40.519   9.320  11.373
76916NA+    NA+45246  27.042  17.619  11.026
76917NA+    NA+45247  41.433  12.704  10.927
76918NA+    NA+45248  30.088  31.979  12.958
76919NA+    NA+45249  23.045  37.489   2.283
76920NA+    NA+45250  13.748  17.121   0.310
76921NA+    NA+45251  40.947  37.476   0.343
76922NA+    NA+45252  38.346  30.516   2.316
76923NA+    NA+45253  17.580  43.890   2.779
76924NA+    NA+45254   5.334   5.865   3.718
76925NA+    NA+45255  16.246  23.699   1.264
76926NA+    NA+45256  27.609  16.604  10.894
76927NA+    NA+45257  16.087  34.383  11.029
76928NA+    NA+45258  18.067  26.015   2.182
76929NA+    NA+45259  42.397  31.536  12.553
76930NA+    NA+45260  15.110  43.399  11.610
76931NA+    NA+45261  32.072   7.720  11.543
76932NA+    NA+45262  18.201  25.190  11.095
76933NA+    NA+45263  23.215  31.574  11.988
76934NA+    NA+45264  33.528  18.620   3.191
76935NA+    NA+45265   0.337  27.618  14.371
76936NA+    NA+45266  40.821  24.717  12.951
76937NA+    NA+45267  14.192  24.592  13.365
76938NA+    NA+45268   7.706   3.394   3.234
76939NA+    NA+45269  33.504  33.463  13.941
76940NA+    NA+45270  28.983  25.091  11.431
76941NA+    NA+45271  41.834  38.893   1.439
76942NA+    NA+45272   9.301   5.203  14.920
76943NA+    NA+45273  14.746  36.498   3.264
76944NA+    NA+45274  36.886  20.721   0.433
76945NA+    NA+45275  28.115  36.059   2.315
76946NA+    NA+45276   7.215   3.382  11.376
76947NA+    NA+45277   1.341  19.764   0.742
76948NA+    NA+45278  41.849   5.409  12.834
76949NA+    NA+45279  11.679  20.721   4.636
76950NA+    NA+45280  32.501   2.309  11.958
76951NA+    NA+45281  16.211   6.914   3.264
76952NA+    NA+45282  22.611  42.511   0.276
76953NA+    NA+45283  30.448  21.081  10.566
76954NA+    NA+45284  16.777  28.549  13.051
76955NA+    NA+45285  16.591  42.299   2.838
76956NA+    NA+45286  33.441  11.170   4.774
76957NA+    NA+45287  36.070  43.863  13.969
76958NA+    NA+45288  10.870  30.550  13.998
76959NA+    NA+45289  21.629  35.084   2.271
76960NA+    NA+45290   1.800  29.000  11.887
76961NA+    NA+45291   6.329  36.396   0.434
76962NA+    NA+45292  33.504  10.716   1.217
76963NA+    NA+45293   6.882  21.211   0.899
76964NA+    NA+45294   2.343  33.889  13.037
76965NA+    NA+45295  39.818   7.317  10.569
76966NA+    NA+45296  43.413  24.227  14.899
76967NA+    NA+45297  22.653  44.265   0.919
76968NA+    NA+45298  32.524  25.090   1.221
76969NA+    NA+45299  32.543  37.407   4.629
76970NA+    NA+45300  18.160  44.901  12.035
76971NA+    NA+45301  28.482   1.314  12.356
76972NA+    NA+45302   1.904   1.789   2.322
76973NA+    NA+45303  32.129  14.116  14.430
76974NA+    NA+45304  16.764  13.183   2.884
76975NA+    NA+45305  15.613  39.380   3.719
76976NA+    NA+45306   5.864   7.289   4.637
76977NA+    NA+45307  39.488  11.863   1.375
76978NA+    NA+45308  29.107  16.098   0.891
76979NA+    NA+45309   0.302  36.844  10.614
76980NA+    NA+45310  27.502  40.340  12.444
76981NA+    NA+45311   6.923  16.675   4.214
76982NA+    NA+45312  16.643  17.602  11.590
76983NA+    NA+45313  35.461   3.791  10.912
76984NA+    NA+45314  17.782  40.466   2.811
76985NA+    NA+45315  13.206  39.404   0.270
76986NA+    NA+45316  37.440  23.005   4.280
76987NA+    NA+45317  12.348  44.882  12.537
76988NA+    NA+45318  12.768  34.432   1.360
76989NA+    NA+45319  16.311   7.833   0.891
76990NA+    NA+45320  21.222  40.400  12.360
76991NA+    NA+45321   9.382  22.644  10.971
76992NA+    NA+45322  40.436  16.299   3.835
76993NA+    NA+45323  27.027  33.010   1.905
76994NA+    NA+45324  38.070  42.783  14.979
76995NA+    NA+45325  39.320   1.419  10.985
76996NA+    NA+45326   3.716  25.152   0.406
76997NA+    NA+45327  38.439  37.409  11.889
76998NA+    NA+45328  28.133  33.457  14.998
76999NA+    NA+45329   0.872  19.700  10.151
77000NA+    NA+45330  22.252  32.948  11.494
77001NA+    NA+45331  11.787  37.972   4.615
77002NA+    NA+45332  17.176  25.517  11.491
77003NA+    NA+45333  44.328  40.815   4.201
77004NA+    NA+45334  25.120   9.738  14.412
77005NA+    NA+45335   2.452  26.144  12.925
77006NA+    NA+45336  29.660  29.022  14.433
77007NA+    NA+45337  17.726  22.632  12.027
77008NA+    NA+45338  32.010   8.756   2.828
77009NA+    NA+45339  19.111  35.428  14.482
77010NA+    NA+45340   5.213  20.220   3.763
77011NA+    NA+45341  35.504  32.496  13.445
77012NA+    NA+45342  32.074  39.886   4.284
77013NA+    NA+45343  18.112  28.586   2.685
77014NA+    NA+45344  17.102  43.811   3.242
77015NA+    NA+45345   8.776  14.606  12.368
77016NA+    NA+45346  27.952  22.606  11.120
77017NA+    NA+45347  25.152  22.251  10.464
77018NA+    NA+45348  29.060  31.418  11.912
77019NA+    NA+45349  21.556  10.332   4.687
77020NA+    NA+45350  40.348  37.862   3.640
77021NA+    NA+45351  36.998  28.615  10.904
77022NA+    NA+45352  27.147   3.439  13.821
77023NA+    NA+45353  39.995  14.768   3.712
77024NA+    NA+45354  40.381  39.441   4.116
77025NA+    NA+45355  26.196   7.344   4.663
77026NA+    NA+45356   7.267  19.135   0.365
77027NA+    NA+45357   7.294  35.579   0.832
77028NA+    NA+45358  39.387   6.911   2.232
77029NA+    NA+45359   1.462  11.650  13.806
77030NA+    NA+45360  21.055  37.403  13.359
77031NA+    NA+45361  26.636  25.005   3.373
77032NA+    NA+45362  18.633  19.108  14.390
77033NA+    NA+45363  26.968   8.886  12.532
77034NA+    NA+45364   4.279   1.840  11.104
77035NA+    NA+45365  34.530  40.874  11.577
77036NA+    NA+45366   5.279   9.889   0.478
77037NA+    NA+45367  26.666  13.180   4.240
77038NA+    NA+45368   1.266  41.487   2.413
77039NA+    NA+45369  30.463  35.860  13.916
77040NA+    NA+45370  35.556  42.914   2.333
77041NA+    NA+45371   4.936   4.704   3.302
77042NA+    NA+45372   8.195   2.734   1.326
77043NA+    NA+45373  25.604  21.094  11.557
77044NA+    NA+45374   5.783  29.653   4.698
77045NA+    NA+45375  32.998  22.129   5.647
77046NA+    NA+45376   8.897  16.224  10.542
77047NA+    NA+45377   3.775  30.436  10.579
77048NA+    NA+45378  38.399  28.534  13.957
77049NA+    NA+45379  21.046  30.430  10.967
77050NA+    NA+45380  43.949  10.649   1.795
77051NA+    NA+45381  42.432  33.045  10.980
77052NA+    NA+45382  34.380  25.112   0.747
77053NA+    NA+45383  16.720  17.174   4.750
77054NA+    NA+45384  43.881   3.890   4.252
77055NA+    NA+45385  22.189  37.979   3.337
77056NA+    NA+45386  10.819  33.991  12.344
77057NA+    NA+45387   6.407  27.505  12.519
77058NA+    NA+45388   3.889  17.117  10.577
77059NA+    NA+45389  26.113   6.329   3.778
77060NA+    NA+45390  29.993  42.460  10.586
77061NA+    NA+45391   3.917   7.362  13.851
77062NA+    NA+45392  11.278  36.877   1.859
77063NA+    NA+45393  42.008  15.676  13.055
77064NA+    NA+45394  43.965  37.477  12.506
77065NA+    NA+45395  26.471  32.096   2.866
77066NA+    NA+45396  15.173   1.842   0.756
77067NA+    NA+45397  35.887  42.859  12.473
77068NA+    NA+45398   3.739  14.265   3.164
77069NA+    NA+45399  41.885   8.823  13.932
77070NA+    NA+45400  24.648  44.453  10.642
77071NA+    NA+45401   0.892  38.397  12.556
77072NA+    NA+45402  33.100   7.880  10.485
77073NA+    NA+45403   0.447  42.344  11.429
77074NA+    NA+45404  40.959  41.451  13.346
77075NA+    NA+45405  39.848  24.481  12.478
77076NA+    NA+45406  25.016  44.868  12.007
77077NA+    NA+45407  19.534  33.074  14.299
77078NA+    NA+45408   2.413  10.680   1.755
77079NA+    NA+45409  12.828  38.022   0.371
77080NA+    NA+45410   6.400  30.439  12.481
77081NA+    NA+45411  35.581  40.542  12.478
77082NA+    NA+45412  41.390   4.883  14.491
77083NA+    NA+45413   9.184   9.815   0.875
77084NA+    NA+45414  23.057   6.809   0.767
77085NA+    NA+45415  24.125  42.002  12.561
77086NA+    NA+45416  11.139  11.207  12.915
77087NA+    NA+45417  41.034  39.870   1.864
77088NA+    NA+45418   5.737  39.808  14.989
77089NA+    NA+45419  36.386  10.732   1.282
77090NA+    NA+45420   8.278  31.013  12.976
77091NA+    NA+45421  40.931  29.999  14.869
77092NA+    NA+45422  33.402   4.931   4.765
77093NA+    NA+45423  10.211  18.133  14.364
77094NA+    NA+45424   9.334  16.760   0.332
77095NA+    NA+45425  40.901  35.964   2.783
77096NA+    NA+45426  36.910  19.222   0.730
77097NA+    NA+45427  26.540  44.789   2.794
77098NA+    NA+45428  43.507  40.447  11.446
77099NA+    NA+45429  22.019   9.661   0.874
77100NA+    NA+45430   7.238  28.642  13.493
77101NA+    NA+45431  29.090  23.549   2.332
77102NA+    NA+45432  19.664   9.741   2.742
77103NA+    NA+45433  32.114  16.680   4.148
77104NA+    NA+45434   2.359   9.792   1.248
77105NA+    NA+45435   0.838  34.386  12.410
77106NA+    NA+45436  40.926  37.553   3.231
77107NA+    NA+45437  24.540  34.488  11.592
77108NA+    NA+45438  26.970  27.033  13.060
77109NA+    NA+45439  29.548   7.185   1.229
77110NA+    NA+45440  36.963   6.270  11.469
77111NA+    NA+45441  18.703  43.017  13.325
77112NA+    NA+45442   0.358  20.561   1.855
77113NA+    NA+45443  16.624  12.293  13.331
77114NA+    NA+45444   1.384  28.643  14.909
77115NA+    NA+45445  34.942  33.534   2.899
77116NA+    NA+45446  31.642   6.252   1.248
77117NA+    NA+45447  40.433  24.200   1.916
77118NA+    NA+45448  34.614  22.687  13.952
77119NA+    NA+45449  34.999  34.375   4.176
77120NA+    NA+45450   5.418  41.389   4.269
77121NA+    NA+45451  29.428  42.359  14.343
77122NA+    NA+45452  16.794   4.892  13.798
77123NA+    NA+45453  18.633   3.912   3.197
77124NA+    NA+45454  36.556  23.142  14.973
77125NA+    NA+45455  24.560  11.797  12.382
77126NA+    NA+45456  11.661  44.833  12.910
77127NA+    NA+45457   6.709  36.085  13.321
77128NA+    NA+45458  35.959  20.591   1.804
77129NA+    NA+45459  25.693  33.889  14.797
77130NA+    NA+45460  31.447  44.900   3.274
77131NA+    NA+45461   3.775  37.032   4.297
77132NA+    NA+45462   4.842  15.652   4.780
77133NA+    NA+45463  25.518  41.961   3.731
77134NA+    NA+45464  11.285  35.445  12.420
77135NA+    NA+45465  26.484  15.131  10.554
77136NA+    NA+45466  17.662  16.160  14.372
77137NA+    NA+45467   4.375   7.798   2.858
77138NA+    NA+45468  27.562  25.090  13.494
77139NA+    NA+45469  28.029  28.000  13.009
77140NA+    NA+45470  18.289  21.153  14.976
77141NA+    NA+45471   9.359  43.454  13.334
77142NA+    NA+45472  27.528  24.636  13.024
77143NA+    NA+45473  16.602   3.241   3.802
77144NA+    NA+45474  40.006   8.374   0.897
77145NA+    NA+45475   7.227  43.894  13.047
77146NA+    NA+45476  22.509  30.908  14.405
77147NA+    NA+45477  22.135  44.453  10.412
77148NA+    NA+45478   9.888  11.316  12.557
77149NA+    NA+45479  27.661  14.208   2.707
77150NA+    NA+45480  20.080  15.293  13.405
77151NA+    NA+45481   1.446   6.316   0.326
77152NA+    NA+45482  12.679  21.131  14.028
77153NA+    NA+45483   6.413   7.390  12.983
77154NA+    NA+45484  28.982  31.504   3.656
77155NA+    NA+45485  16.690  38.003   2.878
77156NA+    NA+45486  27.469   3.339  11.051
77157NA+    NA+45487  40.966  23.048  14.815
77158NA+    NA+45488  12.310   4.303  14.350
77159NA+    NA+45489  10.268  39.030  11.050
77160NA+    NA+45490  35.522  38.505  13.953
77161NA+    NA+45491  18.193  33.393   1.857
77162NA+    NA+45492  16.605  25.974   4.699
77163NA+    NA+45493  25.509  31.087   2.860
77164NA+    NA+45494  42.782   9.337  11.125
77165NA+    NA+45495  23.613  43.968  11.517
77166NA+    NA+45496  15.585  26.661  13.499
77167NA+    NA+45497  37.067  27.634   4.834
77168NA+    NA+45498  34.866  24.074   3.756
77169NA+    NA+45499  22.723  28.589   1.820
77170NA+    NA+45500   4.902  16.083  11.129
77171NA+    NA+45501  16.690  10.308   1.327
77172NA+    NA+45502   5.778   1.263  11.918
77173NA+    NA+45503  12.125  26.205  13.521
77174NA+    NA+45504  37.003  11.855   0.949
77175NA+    NA+45505  31.921  36.890  11.923
77176NA+    NA+45506   3.901   4.225  12.479
77177NA+    NA+45507  10.637  39.436   2.247
77178NA+    NA+45508  36.390   2.416  11.112
77179NA+    NA+45509   4.229   6.228   2.355
77180NA+    NA+45510   2.330  38.878   9.587
77181NA+    NA+45511  22.565  29.427  10.966
77182NA+    NA+45512   5.804   8.315   3.188
77183NA+    NA+45513  13.732  23.508  11.868
77184NA+    NA+45514  10.360  19.176  14.853
77185NA+    NA+45515   8.806   2.252   0.366
77186NA+    NA+45516  32.512  10.343   3.813
77187NA+    NA+45517  33.439  11.221   0.266
77188NA+    NA+45518   6.349  40.981  10.518
77189NA+    NA+45519  18.070  36.510   3.849
77190NA+    NA+45520  34.524  42.809  12.018
77191NA+    NA+45521  38.981  34.481  14.508
77192NA+    NA+45522  18.725   3.315   5.165
77193NA+    NA+45523  36.994  13.703  12.548
77194NA+    NA+45524  39.814   7.792   2.730
77195NA+    NA+45525  24.194  43.769  13.968
77196NA+    NA+45526   0.890  23.519  11.998
77197NA+    NA+45527  11.366  32.960  12.522
77198NA+    NA+45528   2.318  26.993   0.306
77199NA+    NA+45529  10.648  32.516  11.430
77200NA+    NA+45530  19.616  21.022   0.327
77201NA+    NA+45531  12.775   2.850   3.329
77202NA+    NA+45532   5.324  43.905   1.274
77203NA+    NA+45533  33.045  33.064  13.985
77204NA+    NA+45534  19.688   3.447   2.794
77205NA+    NA+45535  18.270   6.832   3.250
77206NA+    NA+45536  36.070  27.626   4.751
77207NA+    NA+45537  19.557  22.149  13.446
77208NA+    NA+45538  25.529   7.861  11.090
77209NA+    NA+45539   2.424  17.616   1.405
77210NA+    NA+45540   5.232  20.075   3.322
77211NA+    NA+45541  23.208  40.891  12.355
77212NA+    NA+45542   6.277  23.106   2.370
77213NA+    NA+45543  17.160   3.948   2.726
77214NA+    NA+45544  35.519  12.181  11.873
77215NA+    NA+45545  19.213   0.865   4.761
77216NA+    NA+45546  30.579  22.505   1.874
77217NA+    NA+45547  13.635  34.488   3.166
77218NA+    NA+45548  24.608  27.658  12.848
77219NA+    NA+45549   4.866  19.165  13.050
77220NA+    NA+45550  42.472  11.186   3.243
77221NA+    NA+45551  27.992  43.422  11.876
77222NA+    NA+45552   4.821  37.007   3.835
77223NA+    NA+45553  17.143   5.264  13.056
77224NA+    NA+45554  17.231   1.959   3.756
77225NA+    NA+45555   0.918   5.295  12.344
77226NA+    NA+45556  19.631  37.873   2.667
77227NA+    NA+45557  15.162  33.571   0.836
77228NA+    NA+45558  30.612   6.339   4.161
77229NA+    NA+45559   5.194  44.997   1.812
77230NA+    NA+45560  16.652  38.411  14.458
77231NA+    NA+45561  20.029  42.358   1.851
77232NA+    NA+45562  35.930  11.845   2.795
77233NA+    NA+45563  39.883  16.703   0.827
77234NA+    NA+45564  14.127  42.405   2.196
77235NA+    NA+45565   5.927  24.539  12.900
77236NA+    NA+45566   4.843   9.298   3.293
77237NA+    NA+45567  20.182  40.004   0.254
77238NA+    NA+45568  41.414  13.713  12.520
77239NA+    NA+45569  22.995  16.260   1.754
77240NA+    NA+45570   0.282  10.210  13.866
77241NA+    NA+45571   0.464   2.450   1.397
77242NA+    NA+45572  35.444  22.163   1.333
77243NA+    NA+45573  18.662  25.542   9.966
77244NA+    NA+45574  21.237   6.287  12.894
77245NA+    NA+45575   0.865  20.750  11.119
77246NA+    NA+45576  19.082  42.987   2.311
77247NA+    NA+45577  30.632  12.731  11.996
77248NA+    NA+45578  10.227  36.514  13.852
77249NA+    NA+45579  34.611  44.763   1.815
77250NA+    NA+45580  26.968  41.513  10.627
77251NA+    NA+45581  15.783  39.008  11.445
77252NA+    NA+45582   3.797  14.690   0.826
77253NA+    NA+45583  24.541   0.465   4.771
77254NA+    NA+45584   0.330  15.671  10.894
77255NA+    NA+45585  28.505  43.283   1.844
77256NA+    NA+45586  40.898   9.303   1.364
77257NA+    NA+45587  31.989  26.637   1.861
77258NA+    NA+45588  13.287  14.709   4.706
77259NA+    NA+45589  44.814  29.521  10.492
77260NA+    NA+45590  23.192  26.013   4.227
77261NA+    NA+45591   5.826  10.302  14.762
77262NA+    NA+45592  17.101  27.658   3.671
77263NA+    NA+45593  35.892  15.797   0.809
77264NA+    NA+45594  29.532  21.592  11.536
77265NA+    NA+45595   0.311  31.415  11.455
77266NA+    NA+45596  28.971  27.548   2.741
77267NA+    NA+45597  36.029   3.879   0.264
77268NA+    NA+45598  25.649   5.829  10.444
77269NA+    NA+45599   2.804  31.408   0.336
77270NA+    NA+45600  42.328  39.446   1.888
77271NA+    NA+45601  21.756  41.415  13.892
77272NA+    NA+45602  11.345  43.505  11.592
77273NA+    NA+45603  29.162  15.147   3.225
77274NA+    NA+45604  18.756  22.070   3.688
77275NA+    NA+45605   0.399  41.817   0.260
77276NA+    NA+45606  38.334  25.525   3.739
77277NA+    NA+45607  27.180  36.356   4.780
77278NA+    NA+45608  13.754  26.467  10.107
77279NA+    NA+45609   8.334  11.337   2.393
77280NA+    NA+45610  22.620  30.112   4.195
77281NA+    NA+45611  23.511  40.859   2.181
77282NA+    NA+45612  26.528  31.580   2.697
77283NA+    NA+45613  21.535  34.386  10.924
77284NA+    NA+45614  13.167  44.824  13.936
77285NA+    NA+45615  21.080  39.901   3.315
77286NA+    NA+45616  16.073  16.589  13.424
77287NA+    NA+45617  33.402  22.530   3.833
77288NA+    NA+45618  27.470  18.697  12.471
77289NA+    NA+45619   3.731  23.649   0.290
77290NA+    NA+45620  22.522  41.906  12.001
77291NA+    NA+45621  37.442  23.093   2.820
77292NA+    NA+45622  35.524  39.924  14.838
77293NA+    NA+45623   2.960  12.731  13.993
77294NA+    NA+45624  31.988  34.533  10.148
77295NA+    NA+45625   5.877  23.985   4.220
77296NA+    NA+45626  27.194   1.805  12.954
77297NA+    NA+45627  32.128  21.125   3.695
77298NA+    NA+45628  11.803   7.789   3.838
77299NA+    NA+45629  32.538  19.176   1.886
77300NA+    NA+45630  18.760  43.842  13.416
77301NA+    NA+45631  22.569  31.050   2.227
77302NA+    NA+45632  20.666  28.487  13.988
77303NA+    NA+45633   3.393  39.556  12.560
77304NA+    NA+45634  34.926  12.177   4.662
77305NA+    NA+45635  37.363  13.239   4.742
77306NA+    NA+45636  21.695  19.757  10.058
77307NA+    NA+45637  16.102  25.099  13.796
77308NA+    NA+45638   2.288  30.564  13.966
77309NA+    NA+45639  35.044  38.965  13.978
77310NA+    NA+45640  42.030   4.922  12.388
77311NA+    NA+45641  30.498  24.078  13.813
77312NA+    NA+45642  43.886  42.008   4.724
77313NA+    NA+45643   6.700  14.754  11.077
77314NA+    NA+45644  40.344  26.680  11.869
77315NA+    NA+45645  12.174   3.923  12.556
77316NA+    NA+45646  44.927  23.715   3.335
77317NA+    NA+45647  44.893  35.425  13.061
77318NA+    NA+45648   8.716  18.179   1.325
77319NA+    NA+45649  44.357   5.300   5.117
77320NA+    NA+45650   1.824  36.957   5.313
77321NA+    NA+45651  14.164  17.293   2.766
77322NA+    NA+45652  21.709  38.070  13.503
77323NA+    NA+45653  29.158  28.140   2.742
77324NA+    NA+45654  25.998   9.334  11.017
77325NA+    NA+45655  39.524   5.798   3.851
77326NA+    NA+45656  30.072  39.503   3.827
77327NA+    NA+45657  39.530  24.056  13.036
77328NA+    NA+45658   5.814   9.799   4.290
77329NA+    NA+45659  40.844  18.686   2.733
77330NA+    NA+45660  27.089   5.848   2.283
77331NA+    NA+45661   9.327  43.019  12.011
77332NA+    NA+45662  23.719  22.684  14.299
77333NA+    NA+45663  38.523  21.723   0.292
77334NA+    NA+45664  12.234  42.326  13.035
77335NA+    NA+45665  17.146   4.372  12.426
77336NA+    NA+45666   5.763  31.124   1.243
77337NA+    NA+45667   1.958   5.398  13.477
77338NA+    NA+45668  23.626  38.564  11.096
77339NA+    NA+45669  10.244   6.694   2.256
77340NA+    NA+45670  41.972  44.339  11.886
77341NA+    NA+45671  12.752  43.276   4.257
77342NA+    NA+45672  25.186  39.050   1.910
77343NA+    NA+45673  41.854   5.727   4.314
77344NA+    NA+45674  40.487   8.309  14.358
77345NA+    NA+45675  14.205   1.305   4.600
77346NA+    NA+45676  39.502   2.749  10.411
77347NA+    NA+45677  22.065  19.058   5.148
77348NA+    NA+45678  29.930  33.593   2.867
77349NA+    NA+45679  15.604  40.345  12.577
77350NA+    NA+45680  20.036   6.236  11.875
77351NA+    NA+45681   6.340  14.602   0.476
77352NA+    NA+45682   9.237  31.598  10.944
77353NA+    NA+45683  37.576  28.500   4.205
77354NA+    NA+45684  20.151   2.751   1.368
77355NA+    NA+45685  26.038  19.283   2.227
77356NA+    NA+45686  24.632  35.901  13.309
77357NA+    NA+45687  29.564  30.570   4.215
77358NA+    NA+45688  12.280  32.977   3.251
77359NA+    NA+45689  41.942  20.194   4.293
77360NA+    NA+45690  10.270  10.849  11.043
77361NA+    NA+45691   3.908  31.078  14.420
77362NA+    NA+45692   6.731  24.067  10.624
77363NA+    NA+45693  20.270   3.739  10.481
77364NA+    NA+45694  30.493  33.486  12.028
77365NA+    NA+45695  18.610  36.889  13.387
77366NA+    NA+45696  37.478   6.681   0.480
77367NA+    NA+45697  41.325  40.355   4.658
77368NA+    NA+45698   0.936  31.093  12.030
77369NA+    NA+45699   3.939  21.655  14.341
77370NA+    NA+45700  21.718  38.982   4.602
77371NA+    NA+45701  29.984  10.177  10.949
77372NA+    NA+45702   8.347  11.262   1.345
77373NA+    NA+45703  32.042  42.301   0.859
77374NA+    NA+45704   3.936  41.344   4.146
77375NA+    NA+45705  13.140  18.769   1.232
77376NA+    NA+45706   2.379  21.205  13.442
77377NA+    NA+45707  44.854   2.301  12.889
77378NA+    NA+45708  41.413  14.786   4.613
77379NA+    NA+45709  35.857  19.070   2.281
77380NA+    NA+45710  26.960  33.026   3.830
77381NA+    NA+45711  22.062   3.404   3.707
77382NA+    NA+45712  44.836  12.764  10.554
77383NA+    NA+45713  30.935  11.127   4.703
77384NA+    NA+45714  14.243  40.859  12.951
77385NA+    NA+45715  22.084  15.297  12.557
77386NA+    NA+45716  24.587  40.809  13.491
77387NA+    NA+45717  25.499  42.928  11.898
77388NA+    NA+45718  30.093   2.379  13.062
77389NA+    NA+45719  12.348   8.360   1.307
77390NA+    NA+45720  16.706  16.604   2.831
77391NA+    NA+45721  31.953  38.920   2.323
77392NA+    NA+45722   5.701  43.501  12.953
77393NA+    NA+45723  15.721  37.554  10.155
77394NA+    NA+45724  43.814  20.207  13.546
77395NA+    NA+45725  35.524  21.617  14.400
77396NA+    NA+45726   9.156  17.622   4.697
77397NA+    NA+45727  20.641  18.249   4.209
77398NA+    NA+45728  25.193  39.382   3.266
77399NA+    NA+45729  30.932  15.735   2.297
77400NA+    NA+45730   6.239  14.148   1.857
77401NA+    NA+45731   4.745   2.905  12.479
77402NA+    NA+45732  31.999  32.041  13.377
77403NA+    NA+45733  18.148  16.299   1.925
77404NA+    NA+45734  13.314  10.757   2.889
77405NA+    NA+45735  26.457  42.983  11.563
77406NA+    NA+45736  26.552  23.233  11.446
77407NA+    NA+45737  40.420  40.865  11.565
77408NA+    NA+45738  38.529  25.044   3.359
77409NA+    NA+45739  26.501  39.558  11.114
77410NA+    NA+45740  32.492   4.385  14.295
77411NA+    NA+45741  18.232   0.395  10.508
77412NA+    NA+45742   4.208  18.089  12.982
77413NA+    NA+45743  20.600  40.996  14.946
77414NA+    NA+45744  42.944  20.560   4.243
77415NA+    NA+45745  43.908  26.072   0.903
77416NA+    NA+45746  15.296  40.970  14.017
77417NA+    NA+45747  44.823   9.720  14.441
77418NA+    NA+45748  40.861  42.885  12.064
77419NA+    NA+45749  32.109   4.207   3.700
77420NA+    NA+45750  13.287   6.865  13.451
77421NA+    NA+45751  41.024  39.503  12.076
77422NA+    NA+45752  34.447  22.687   1.290
77423NA+    NA+45753   1.270   5.226  14.909
77424NA+    NA+45754  27.171  36.094   1.329
77425NA+    NA+45755  37.520   9.244  13.358
77426NA+    NA+45756  42.853  17.596  14.878
77427NA+    NA+45757   8.728  19.201  12.940
77428NA+    NA+45758  19.212  43.910  11.061
77429NA+    NA+45759   3.938  34.392   3.376
77430NA+    NA+45760   7.874  24.977  14.870
77431NA+    NA+45761   0.478  12.224  14.891
77432NA+    NA+45762   2.735  33.474  10.606
77433NA+    NA+45763  13.691  27.949   4.704
77434NA+    NA+45764  10.782   0.277  14.508
77435NA+    NA+45765  40.498  31.097  11.478
77436NA+    NA+45766   3.436   9.240  12.028
77437NA+    NA+45767  25.648  28.551   0.352
77438NA+    NA+45768  32.504  40.030   3.717
77439NA+    NA+45769  21.541  31.568  13.860
77440NA+    NA+45770  26.546   4.442  14.899
77441NA+    NA+45771   9.709  35.025  11.502
77442NA+    NA+45772  40.978   2.436   4.304
77443NA+    NA+45773   5.932  33.014  11.983
77444NA+    NA+45774  13.803  25.124   1.817
77445NA+    NA+45775   5.692  27.072   0.919
77446NA+    NA+45776  21.559  31.068  11.483
77447NA+    NA+45777  31.997  21.581  12.974
77448NA+    NA+45778  16.104  13.775  12.847
77449NA+    NA+45779  34.910  34.527   3.737
77450NA+    NA+45780  10.185   8.656  11.382
77451NA+    NA+45781  34.495   9.320  14.393
77452NA+    NA+45782  22.527  12.149  13.329
77453NA+    NA+45783  30.489  31.968   0.459
77454NA+    NA+45784  33.085   5.396  14.304
77455NA+    NA+45785  30.925  16.178  14.971
77456NA+    NA+45786   2.804  26.106  11.593
77457NA+    NA+45787  16.239  34.875  14.323
77458NA+    NA+45788  21.140   0.987  13.352
77459NA+    NA+45789   7.853  34.615   1.367
77460NA+    NA+45790  30.433  28.548  10.537
77461NA+    NA+45791  22.559  30.489   4.127
77462NA+    NA+45792  38.908  22.691  14.882
77463NA+    NA+45793  42.925  42.931   3.278
77464NA+    NA+45794  40.828  32.917  11.413
77465NA+    NA+45795  40.815  19.613  10.431
77466NA+    NA+45796  38.054  17.227  11.396
77467NA+    NA+45797  16.292   9.152   3.265
77468NA+    NA+45798  22.102  12.275   2.877
77469NA+    NA+45799  41.340  43.488   0.735
77470NA+    NA+45800  39.385  28.948   3.227
77471NA+    NA+45801  15.663  27.639   3.640
77472NA+    NA+45802  12.717   4.748   0.913
77473NA+    NA+45803  23.191  44.795   1.340
77474NA+    NA+45804  12.292  40.478  13.408
77475NA+    NA+45805   9.869  41.033  12.500
77476NA+    NA+45806  26.699  28.943   1.316
77477NA+    NA+45807  38.942  17.776   4.813
77478NA+    NA+45808  18.079  33.901   0.811
77479NA+    NA+45809  28.964  32.630   4.188
77480NA+    NA+45810  34.531  32.562  13.840
77481NA+    NA+45811  17.597  35.011  14.819
77482NA+    NA+45812  43.385  10.327  11.487
77483NA+    NA+45813  36.858  17.738  13.031
77484NA+    NA+45814   1.926  18.726   0.390
77485NA+    NA+45815  15.739  33.994   2.819
77486NA+    NA+45816  24.676  18.260   1.344
77487NA+    NA+45817  30.003  12.361  11.064
77488NA+    NA+45818  27.945   4.311   2.788
77489NA+    NA+45819  18.702   8.655  11.476
77490NA+    NA+45820  24.043  36.442  14.962
77491NA+    NA+45821  15.778  18.639   5.230
77492NA+    NA+45822  22.567  31.020  10.474
77493NA+    NA+45823  18.090  33.113   1.832
77494NA+    NA+45824  19.622  11.765  13.999
77495NA+    NA+45825  17.622   9.313   1.755
77496NA+    NA+45826  39.993  13.640   0.782
77497NA+    NA+45827  28.619  12.830  14.967
77498NA+    NA+45828  35.461  44.435   3.200
77499NA+    NA+45829   9.690  39.422  10.518
77500NA+    NA+45830  13.267  10.764  11.379
77501NA+    NA+45831  13.181  11.364  10.017
77502NA+    NA+45832  24.063   4.730   0.395
77503NA+    NA+45833   3.754  39.022  13.544
77504NA+    NA+45834  28.500  31.126  12.841
77505NA+    NA+45835  41.005  44.413  12.523
77506NA+    NA+45836  34.528  26.458  10.446
77507NA+    NA+45837  32.110  38.945  11.373
77508NA+    NA+45838  32.992  17.077   4.748
77509NA+    NA+45839  26.604   3.359  12.091
77510NA+    NA+45840   1.859  39.893  12.069
77511NA+    NA+45841   8.295  32.975  10.936
77512NA+    NA+45842   3.814  29.453  14.928
77513NA+    NA+45843   7.365   1.966   0.769
77514NA+    NA+45844  43.921   3.429   2.695
77515NA+    NA+45845  26.132  38.982  10.567
77516NA+    NA+45846  41.459   6.780   2.201
77517NA+    NA+45847  21.531  22.210  10.997
77518NA+    NA+45848  30.149  10.835  12.902
77519NA+    NA+45849  34.076  37.565   9.941
77520NA+    NA+45850   4.772  15.101   5.101
77521NA+    NA+45851  40.313  13.291   4.277
77522NA+    NA+45852  21.746   9.391   2.825
77523NA+    NA+45853  13.348   4.713  12.870
77524NA+    NA+45854  14.822  41.930   1.450
77525NA+    NA+45855  21.557  30.956  12.441
77526NA+    NA+45856  26.996  17.725   2.255
77527NA+    NA+45857  28.974   3.829   2.339
77528NA+    NA+45858  16.204  18.664  12.030
77529NA+    NA+45859  15.144  18.675   2.824
77530NA+    NA+45860  25.978  32.040   2.717
77531NA+    NA+45861  15.769  34.903   1.729
77532NA+    NA+45862   5.208  26.073   2.834
77533NA+    NA+45863  31.573  11.349  12.974
77534NA+    NA+45864  16.290  13.799   0.283
77535NA+    NA+45865   1.859  42.309  13.414
77536NA+    NA+45866   6.196  42.013   3.648
77537NA+    NA+45867   6.684  42.499   0.883
77538NA+    NA+45868  10.724   6.765   3.206
77539NA+    NA+45869  14.715   3.861  12.937
77540NA+    NA+45870  17.287   8.893  12.946
77541NA+    NA+45871  20.199   1.326   2.209
77542NA+    NA+45872  34.890   3.327  10.591
77543NA+    NA+45873  12.321  12.786   0.962
77544NA+    NA+45874  31.552   8.724   0.354
77545NA+    NA+45875  11.639  25.627  12.390
77546NA+    NA+45876  13.259  25.133   1.427
77547NA+    NA+45877  26.538  32.408   5.081
77548NA+    NA+45878   8.799   0.747   0.847
77549NA+    NA+45879  41.520   2.287   0.344
77550NA+    NA+45880   9.162  11.830  12.412
77551NA+    NA+45881  35.520  30.963  11.516
77552NA+    NA+45882   9.766   7.213  10.917
77553NA+    NA+45883  34.492  10.336   2.786
77554NA+    NA+45884   5.387  32.446   2.668
77555NA+    NA+45885   4.759  15.727  14.845
77556NA+    NA+45886   8.386  37.069   4.645
77557NA+    NA+45887   0.850   9.845  14.900
77558NA+    NA+45888  40.823  44.453   4.182
77559NA+    NA+45889  25.023  12.636  12.028
77560NA+    NA+45890  39.410  22.186  13.387
77561NA+    NA+45891   2.450  36.964   3.192
77562NA+    NA+45892  29.967   0.440   2.390
77563NA+    NA+45893  25.201  23.676   3.746
77564NA+    NA+45894  21.261  40.308   0.914
77565NA+    NA+45895  35.417  11.296   1.225
77566NA+    NA+45896  40.454  43.479  10.970
77567NA+    NA+45897   4.928  24.519  11.589
77568NA+    NA+45898   3.858  17.593   2.690
77569NA+    NA+45899   6.345  28.956  12.894
77570NA+    NA+45900  22.575  35.896  11.540
77571NA+    NA+45901  37.553   6.711   4.177
77572NA+    NA+45902  20.110  36.868   2.413
77573NA+    NA+45903   4.823  15.210  10.969
77574NA+    NA+45904  10.823  29.167  14.834
77575NA+    NA+45905  21.516  26.581  13.909
77576NA+    NA+45906  13.270  22.586   4.216
77577NA+    NA+45907  44.901  14.759  10.436
77578NA+    NA+45908  23.706  21.154  10.027
77579NA+    NA+45909  31.077   1.268  12.543
77580NA+    NA+45910  42.959  37.542  10.995
77581NA+    NA+45911  22.164  40.312  10.997
77582NA+    NA+45912  16.290  17.308   2.246
77583NA+    NA+45913   2.799  44.454  10.519
77584NA+    NA+45914  36.364  23.099   3.654
77585NA+    NA+45915  21.567  38.544   0.327
77586NA+    NA+45916   1.427  10.307   4.653
77587NA+    NA+45917  29.535  22.145   5.736
77588NA+    NA+45918   3.738  26.075   1.897
77589NA+    NA+45919  26.095   2.291  14.280
77590NA+    NA+45920  41.508  33.555  14.787
77591NA+    NA+45921  30.128  20.600  10.948
77592NA+    NA+45922  11.145  29.084   4.132
77593NA+    NA+45923   6.774   2.468  10.530
77594NA+    NA+45924  10.643  25.676   3.338
77595NA+    NA+45925  33.589  21.564  14.440
77596NA+    NA+45926  11.696  40.800   0.271
77597NA+    NA+45927  37.047   9.786   4.648
77598NA+    NA+45928  13.142  42.499  14.945
77599NA+    NA+45929   3.839   6.335   2.368
77600NA+    NA+45930  40.462   0.853   4.182
77601NA+    NA+45931  15.771  34.100   3.302
77602NA+    NA+45932  21.729   2.353  13.481
77603NA+    NA+45933  27.095  25.662   2.850
77604NA+    NA+45934   0.440  31.460  14.421
77605NA+    NA+45935  11.766   2.844  12.078
77606NA+    NA+45936   6.858  10.140  10.645
77607NA+    NA+45937  23.084  27.943   2.416
77608NA+    NA+45938  33.992  23.547   4.799
77609NA+    NA+45939  22.517  40.947   3.199
77610NA+    NA+45940  18.689  15.624   4.128
77611NA+    NA+45941  43.483  39.024  13.978
77612NA+    NA+45942   8.881  15.100   1.240
77613NA+    NA+45943  34.370   6.868   4.219
77614NA+    NA+45944   7.346  40.977   3.350
77615NA+    NA+45945  36.362   3.935  11.066
77616NA+    NA+45946  35.041  40.326  12.021
77617NA+    NA+45947  31.567   3.224  13.358
77618NA+    NA+45948   5.209  17.064  10.051
77619NA+    NA+45949  30.624   0.965   0.758
77620NA+    NA+45950  28.438  29.120   1.420
77621NA+    NA+45951   1.343  43.288   1.373
77622NA+    NA+45952  31.504  12.782   0.844
77623NA+    NA+45953  10.235   5.327  12.452
77624NA+    NA+45954  15.212  27.181  13.813
77625NA+    NA+45955  12.729   0.372  10.464
77626NA+    NA+45956  17.670  10.723   3.383
77627NA+    NA+45957  18.780  18.201  12.487
77628NA+    NA+45958  10.261  19.121   1.411
77629NA+    NA+45959  11.736  33.960   2.703
77630NA+    NA+45960  39.505   1.969   4.330
77631NA+    NA+45961  24.178  23.233  14.764
77632NA+    NA+45962   9.848  37.410  10.957
77633NA+    NA+45963   2.328   0.849  12.396
77634NA+    NA+45964  40.376  21.667   0.455
77635NA+    NA+45965  34.377  10.233   3.251
77636NA+    NA+45966   1.330  13.676  13.337
77637NA+    NA+45967  33.423  26.029  10.130
77638NA+    NA+45968   8.387   8.877  11.080
77639NA+    NA+45969  28.463  19.180   0.925
77640NA+    NA+45970  34.051  15.143  11.082
77641NA+    NA+45971  15.602  15.175  10.952
77642NA+    NA+45972  20.532  39.505   4.750
77643NA+    NA+45973  11.715  19.740   5.318
77644NA+    NA+45974   0.927   3.372  13.043
77645NA+    NA+45975   9.876  30.160  12.366
77646NA+    NA+45976  15.775  30.921  12.000
77647NA+    NA+45977  29.473  33.389  11.972
77648NA+    NA+45978   3.443  40.054  13.795
77649NA+    NA+45979  32.122   1.808   1.917
77650NA+    NA+45980  36.884   1.238   4.604
77651NA+    NA+45981  13.128  42.947  14.903
77652NA+    NA+45982  10.814  40.802  14.377
77653NA+    NA+45983  41.976  20.082  12.911
77654NA+    NA+45984   3.945  19.645   0.865
77655NA+    NA+45985  25.473  23.584  13.503
77656NA+    NA+45986  13.656   0.488   0.728
77657NA+    NA+45987  15.702  43.463  14.384
77658NA+    NA+45988  25.602  37.463  13.423
77659NA+    NA+45989  13.716  24.568  10.995
77660NA+    NA+45990  29.501  26.135  10.471
77661NA+    NA+45991  42.411  31.937   4.271
77662NA+    NA+45992  42.508  34.401  14.899
77663NA+    NA+45993  44.448  12.310   1.926
77664NA+    NA+45994  39.419   7.899   3.780
77665NA+    NA+45995  37.349   6.293   1.374
77666NA+    NA+45996  20.227  26.103  13.877
77667NA+    NA+45997  38.075  10.369  13.403
77668NA+    NA+45998  26.625  24.077  12.985
77669NA+    NA+45999  12.800   3.455   4.322
77670NA+    NA+46000  34.096  13.739  10.972
77671NA+    NA+46001   2.388  28.166  11.399
77672NA+    NA+46002  17.304  33.578   2.896
77673NA+    NA+46003  31.059  11.221  11.516
77674NA+    NA+46004  44.942  11.312  14.966
77675NA+    NA+46005  20.116   6.322   2.729
77676NA+    NA+46006  33.536  44.966  10.033
77677NA+    NA+46007   3.941  36.938  11.999
77678NA+    NA+46008  31.127  29.169  12.350
77679NA+    NA+46009  32.546  10.712   2.825
77680NA+    NA+46010  12.664  23.210  14.782
77681NA+    NA+46011  31.435  22.048   9.975
77682NA+    NA+46012  13.325  16.133  12.355
77683NA+    NA+46013  40.453  43.773  11.468
77684NA+    NA+46014   4.385  42.359   4.690
77685NA+    NA+46015  20.629  11.304  13.807
77686NA+    NA+46016  13.264   5.695   2.358
77687NA+    NA+46017  31.896  26.501  14.022
77688NA+    NA+46018  35.475  38.458  11.888
77689NA+    NA+46019  43.443  29.134   3.207
77690NA+    NA+46020  12.149  18.556  13.367
77691NA+    NA+46021  30.509  37.065   4.257
77692NA+    NA+46022  28.021  29.572   5.127
77693NA+    NA+46023  29.555  34.606   4.208
77694NA+    NA+46024  27.625  30.050  14.315
77695NA+    NA+46025   0.755   0.428   2.818
77696NA+    NA+46026  24.526  39.398   4.738
77697NA+    NA+46027  26.047  34.985   0.881
77698NA+    NA+46028  32.593  22.140   0.428
77699NA+    NA+46029  34.959  42.292  12.844
77700NA+    NA+46030  30.413  10.345  13.986
77701NA+    NA+46031  20.711  39.029  12.050
77702NA+    NA+46032   9.379   2.733  12.345
77703NA+    NA+46033  37.864   0.775  14.363
77704NA+    NA+46034  42.456  14.281   3.164
77705NA+    NA+46035  20.125   0.337  13.527
77706NA+    NA+46036  11.868  43.786   3.845
77707NA+    NA+46037   0.767   9.158   2.418
77708NA+    NA+46038  25.703  11.711   4.687
77709NA+    NA+46039  38.995  14.699  10.594
77710NA+    NA+46040  41.468  12.791  10.480
77711NA+    NA+46041  35.554  39.014   4.629
77712NA+    NA+46042  24.520   5.263   2.289
77713NA+    NA+46043   6.691  40.987  10.520
77714NA+    NA+46044  40.453  25.054  11.536
77715NA+    NA+46045  36.366  30.605   3.157
77716NA+    NA+46046  14.293  35.983   5.135
77717NA+    NA+46047  25.508  13.788  13.385
77718NA+    NA+46048  31.953  26.584   3.353
77719NA+    NA+46049  29.089   9.275   4.826
77720NA+    NA+46050  19.159  34.585  10.551
77721NA+    NA+46051  43.986  31.079   1.904
77722NA+    NA+46052  30.533  40.507   1.212
77723NA+    NA+46053  16.148  22.218  11.413
77724NA+    NA+46054  19.767  11.180  10.495
77725NA+    NA+46055   0.418  16.639  13.914
77726NA+    NA+46056  32.048  35.982   1.872
77727NA+    NA+46057   6.314  17.729  13.844
77728NA+    NA+46058  27.003  34.498   0.340
77729NA+    NA+46059   2.897   1.402  10.622
77730NA+    NA+46060  18.691   6.368  12.020
77731NA+    NA+46061  41.497   6.868  12.353
77732NA+    NA+46062  29.452  37.909  14.348
77733NA+    NA+46063  24.620   1.450   3.186
77734NA+    NA+46064  22.239  14.130  11.420
77735NA+    NA+46065   2.321  11.844  12.578
77736NA+    NA+46066  17.661  33.090   3.187
77737NA+    NA+46067  37.073   8.328   3.643
77738NA+    NA+46068   9.709  39.409  12.562
77739NA+    NA+46069  10.240  41.464   4.200
77740NA+    NA+46070  33.517  41.525   3.171
77741NA+    NA+46071  43.285  42.994   1.391
77742NA+    NA+46072   2.305  19.284  14.451
77743NA+    NA+46073  12.774   7.175  14.372
77744NA+    NA+46074  20.263  41.408  11.878
77745NA+    NA+46075  22.042  14.600   1.719
77746NA+    NA+46076  33.408  29.501   1.403
77747NA+    NA+46077  26.665   3.393  12.877
77748NA+    NA+46078  34.583  26.622   0.455
77749NA+    NA+46079  15.216  16.740   0.940
77750NA+    NA+46080   6.868  13.191   0.317
77751NA+    NA+46081  19.148  25.180   0.926
77752NA+    NA+46082   9.700  26.637  14.822
77753NA+    NA+46083  37.999  24.673  11.912
77754NA+    NA+46084  16.658  30.572   2.292
77755NA+    NA+46085  23.518   4.230   4.177
77756NA+    NA+46086  36.893  21.598   2.812
77757NA+    NA+46087  36.475   9.722  11.946
77758NA+    NA+46088   0.958  17.728  12.045
77759NA+    NA+46089  38.444  17.101   4.303
77760NA+    NA+46090  14.154  38.879   1.835
77761NA+    NA+46091  39.370  31.616   2.220
77762NA+    NA+46092  23.710  10.372   2.852
77763NA+    NA+46093  12.130  28.966  10.406
77764NA+    NA+46094   4.435  22.089  13.811
77765NA+    NA+46095  23.677   9.316  13.537
77766NA+    NA+46096  25.021  35.948   3.363
77767NA+    NA+46097  19.606  10.750   1.871
77768NA+    NA+46098   9.188   8.243  10.896
77769NA+    NA+46099  40.477   5.692  14.435
77770NA+    NA+46100   7.760  25.148   2.406
77771NA+    NA+46101  18.133  19.083  14.014
77772NA+    NA+46102   8.710  25.052  14.767
77773NA+    NA+46103   0.854  33.432  12.528
77774NA+    NA+46104  23.126   7.402  12.825
77775CL-    CL-46105  36.493  23.658   0.445
77776CL-    CL-46106  28.518   6.916   4.148
77777CL-    CL-46107  12.354  17.194  13.877
77778CL-    CL-46108  29.149  16.810   0.809
77779CL-    CL-46109  17.588  20.727  11.984
77780CL-    CL-46110  19.709  13.184  11.973
77781CL-    CL-46111   8.268  14.671  12.507
77782CL-    CL-46112  18.126  34.995   3.676
77783CL-    CL-46113  11.706  34.029   4.226
77784CL-    CL-46114   0.416  19.094  14.922
77785CL-    CL-46115  34.084  16.272   3.735
77786CL-    CL-46116   8.857  32.966   2.244
77787CL-    CL-46117  33.936  40.838  14.500
77788CL-    CL-46118  43.346   8.322  12.461
77789CL-    CL-46119  31.629  16.745   0.373
77790CL-    CL-46120  39.004  31.055  11.893
77791CL-    CL-46121  17.153  36.452   4.305
77792CL-    CL-46122  36.043  20.127  10.429
77793CL-    CL-46123   1.873   1.929  10.977
77794CL-    CL-46124   5.234   6.797   4.640
77795CL-    CL-46125  19.234  36.863   1.814
77796CL-    CL-46126  16.088  33.553  14.509
77797CL-    CL-46127  19.130  33.601   0.424
77798CL-    CL-46128  34.368  40.421   3.347
77799CL-    CL-46129  20.630  32.474   3.297
77800CL-    CL-46130   7.173  16.245   3.777
77801CL-    CL-46131  33.102  20.033  14.475
77802CL-    CL-46132  16.680  33.005  10.545
77803CL-    CL-46133  19.546  17.651   1.779
77804CL-    CL-46134  41.500  12.308  13.490
77805CL-    CL-46135  25.140  30.575  13.834
77806CL-    CL-46136   3.811  31.568  11.382
77807CL-    CL-46137  32.085   9.149  11.858
77808CL-    CL-46138  18.702   3.955  11.073
77809CL-    CL-46139   2.886  35.457   3.868
77810CL-    CL-46140  24.519  41.410   3.325
77811CL-    CL-46141  44.992   7.712  11.458
77812CL-    CL-46142  40.984  41.900   1.823
77813CL-    CL-46143  23.668  42.497  13.358
77814CL-    CL-46144  43.018  35.946  11.056
77815CL-    CL-46145   0.453   3.721  13.471
77816CL-    CL-46146  29.618  22.082  11.121
77817CL-    CL-46147   8.724  14.835   3.714
77818CL-    CL-46148  32.545  24.152   4.626
77819CL-    CL-46149  30.420   5.282  12.902
77820CL-    CL-46150  43.506   7.219  14.415
77821CL-    CL-46151   5.284  39.451  11.050
77822CL-    CL-46152   3.732  17.594  14.407
77823CL-    CL-46153  28.028  18.246  11.003
77824CL-    CL-46154  17.303  11.304   4.617
77825CL-    CL-46155  43.875  23.213   1.923
77826CL-    CL-46156  16.715  44.005  12.988
77827CL-    CL-46157  31.474   4.341  14.868
77828CL-    CL-46158  36.090  12.359   4.778
77829CL-    CL-46159  39.879  37.068   0.458
77830CL-    CL-46160  34.023  33.403  13.846
77831CL-    CL-46161  34.506   4.836  12.541
77832CL-    CL-46162  22.075  10.781   0.733
77833CL-    CL-46163   0.767  16.276  14.839
77834CL-    CL-46164  25.698   6.186  12.835
77835CL-    CL-46165  14.241   7.832  13.455
77836CL-    CL-46166  14.663  38.366   4.167
77837CL-    CL-46167  10.248  20.656   1.886
77838CL-    CL-46168  31.965  24.542   0.445
77839CL-    CL-46169  29.642  16.251   2.705
77840CL-    CL-46170  14.134  10.681  12.501
77841CL-    CL-46171  18.096   9.886   3.685
77842CL-    CL-46172   2.395   6.427  10.539
77843CL-    CL-46173  29.498  36.409   0.961
77844CL-    CL-46174  38.472  36.451   1.815
77845CL-    CL-46175   8.790   8.747   2.849
77846CL-    CL-46176   1.923   0.879   0.941
77847CL-    CL-46177  15.108  11.372   1.290
77848CL-    CL-46178  23.220  40.936   3.304
77849CL-    CL-46179   4.348   4.722  14.832
77850CL-    CL-46180  22.592  31.502  12.466
77851CL-    CL-46181  32.405  15.266  12.550
77852CL-    CL-46182   2.404   7.275   0.321
77853CL-    CL-46183  26.473  13.160   1.384
77854CL-    CL-46184  26.176  17.141  12.459
77855CL-    CL-46185  22.567  33.059   0.761
77856CL-    CL-46186  16.746  24.604  14.492
77857CL-    CL-46187  31.513  36.001  14.492
77858CL-    CL-46188  43.936  14.824  11.110
77859CL-    CL-46189  27.035  39.379   3.754
77860CL-    CL-46190  43.880  23.001   3.365
77861CL-    CL-46191  41.434  17.307  10.972
77862CL-    CL-46192  13.308  19.671   4.267
77863CL-    CL-46193   0.326   9.186  11.592
77864CL-    CL-46194  25.172  23.641  12.568
77865CL-    CL-46195  10.305  12.143   4.696
77866CL-    CL-46196  30.108  40.826  10.512
77867CL-    CL-46197  21.213  31.899   4.680
77868CL-    CL-46198  17.761  22.575   4.661
77869CL-    CL-46199  12.326   0.922   3.285
77870CL-    CL-46200  10.644   3.934  10.488
77871CL-    CL-46201   7.894  44.936  11.103
77872CL-    CL-46202  31.909  21.740   0.781
77873CL-    CL-46203  35.010  40.340  12.383
77874CL-    CL-46204  17.666  34.449   0.476
77875CL-    CL-46205   1.419  14.823  11.986
77876CL-    CL-46206   6.386  20.109   2.333
77877CL-    CL-46207  17.218   4.854   2.852
77878CL-    CL-46208  15.102   4.241   4.328
77879CL-    CL-46209  32.517  13.340   0.768
77880CL-    CL-46210   7.885  15.645   4.116
77881CL-    CL-46211   1.879  19.212   3.235
77882CL-    CL-46212  13.794  27.047   4.646
77883CL-    CL-46213  25.706  11.709   3.861
77884CL-    CL-46214   6.907  28.934  12.560
77885CL-    CL-46215  23.567  27.997  12.908
77886CL-    CL-46216  30.003  24.631  11.962
77887CL-    CL-46217  22.656   7.261  13.807
77888CL-    CL-46218   5.237  40.833  14.990
77889CL-    CL-46219  16.752  18.120   4.173
77890CL-    CL-46220  44.831  12.158  14.315
77891CL-    CL-46221  38.973  41.316   1.296
77892CL-    CL-46222   5.732  32.576   1.827
77893CL-    CL-46223  11.867  19.143   1.301
77894CL-    CL-46224   1.240  43.839  11.927
77895CL-    CL-46225   3.788   8.735   2.842
77896CL-    CL-46226  33.955   1.778   3.230
77897CL-    CL-46227   9.780  23.569   0.887
77898CL-    CL-46228  26.166  18.565  13.493
77899CL-    CL-46229  34.087  41.381   0.893
77900CL-    CL-46230  34.911  18.561   3.746
77901CL-    CL-46231  42.396  42.411   2.211
77902CL-    CL-46232  38.912  43.921  13.924
77903CL-    CL-46233   3.893  20.652  13.943
77904CL-    CL-46234  43.012   9.253   3.219
77905CL-    CL-46235  15.123  31.914  10.585
77906CL-    CL-46236   9.389  43.896  12.013
77907CL-    CL-46237   3.714  16.123   0.297
77908CL-    CL-46238  16.160  16.785  14.492
77909CL-    CL-46239  26.572   7.415   2.396
77910CL-    CL-46240  23.729   7.744  14.880
77911CL-    CL-46241  18.109  23.184   0.269
77912CL-    CL-46242  36.574  19.651  12.856
77913CL-    CL-46243  16.683  19.675  12.965
77914CL-    CL-46244   6.194  21.049  10.128
77915CL-    CL-46245  19.227  23.692  14.389
77916CL-    CL-46246   8.695  41.446  12.530
77917CL-    CL-46247   4.317  18.225   2.776
77918CL-    CL-46248  43.772   3.351   3.696
77919CL-    CL-46249  40.434  30.506  10.026
77920CL-    CL-46250   5.365   6.237  14.383
77921CL-    CL-46251  17.746   3.435   4.242
77922CL-    CL-46252  20.070  44.436   3.667
77923CL-    CL-46253  28.156  40.467  14.385
77924CL-    CL-46254  14.194   7.221  13.994
77925CL-    CL-46255  33.443  38.437   3.301
77926CL-    CL-46256  30.139  23.984   0.764
77927CL-    CL-46257  44.382  28.597  13.026
77928CL-    CL-46258  32.910   2.880   0.912
77929CL-    CL-46259  15.804  25.594  12.888
77930CL-    CL-46260  30.910  36.922   4.749
77931CL-    CL-46261  18.753  14.691  14.935
77932CL-    CL-46262  44.878   2.232  10.429
77933CL-    CL-46263  18.055  39.037   1.927
77934CL-    CL-46264  31.445  34.580  12.017
77935CL-    CL-46265  16.124  29.951  11.124
77936CL-    CL-46266  17.130  20.132  13.370
77937CL-    CL-46267   7.269  35.872   0.887
77938CL-    CL-46268  10.337  33.525  11.965
77939CL-    CL-46269  12.664  10.669   3.765
77940CL-    CL-46270   6.797   8.751   4.277
77941CL-    CL-46271  43.910   2.876   3.303
77942CL-    CL-46272  23.078   9.389   1.788
77943CL-    CL-46273  28.680  26.631   0.334
77944CL-    CL-46274  40.961  42.396  11.408
77945CL-    CL-46275  42.008  22.057  14.297
77946CL-    CL-46276  29.621   1.360   0.345
77947CL-    CL-46277  38.830   4.736   3.233
77948CL-    CL-46278  34.103  16.238  14.788
77949CL-    CL-46279  12.239  25.023  12.005
77950CL-    CL-46280   7.258   9.704  14.321
77951CL-    CL-46281   2.304  16.177   4.661
77952CL-    CL-46282  36.846  35.385  13.027
77953CL-    CL-46283  18.753  14.104   0.481
77954CL-    CL-46284  11.735   6.227   3.652
77955CL-    CL-46285  27.663  35.378   3.673
77956CL-    CL-46286   6.748   2.255   1.816
77957CL-    CL-46287  19.649   2.838  13.496
77958CL-    CL-46288  32.446  24.506   4.803
77959CL-    CL-46289  14.662   3.718  14.339
77960CL-    CL-46290  28.014  26.509  12.429
77961CL-    CL-46291  29.169   2.327   4.622
77962CL-    CL-46292   7.702  44.944  14.395
77963CL-    CL-46293   1.956  20.032  12.095
77964CL-    CL-46294  43.396  39.542   4.251
77965CL-    CL-46295  40.032  32.445  12.839
77966CL-    CL-46296  39.535   2.804   2.341
77967CL-    CL-46297  33.896  36.377   2.798
77968CL-    CL-46298   2.825  31.420  12.868
77969CL-    CL-46299  16.297  33.435  10.440
77970CL-    CL-46300  36.383  36.986  14.419
77971CL-    CL-46301  37.922  31.537   0.849
77972CL-    CL-46302  39.925   5.786  14.291
77973CL-    CL-46303  16.592  43.273   2.819
77974CL-    CL-46304   1.903  19.060   2.355
77975CL-    CL-46305  28.665   7.845  10.437
77976CL-    CL-46306  29.999  24.649   0.729
77977CL-    CL-46307  12.751  42.376   3.834
77978CL-    CL-46308   9.275  29.591   4.275
77979CL-    CL-46309  27.623  32.394  10.005
77980CL-    CL-46310   0.408  30.103   2.854
77981CL-    CL-46311  29.147  34.051   1.385
77982CL-    CL-46312  36.538   5.318  13.438
77983CL-    CL-46313  24.005  42.412   3.629
77984CL-    CL-46314  36.517  40.465   4.287
77985CL-    CL-46315  22.252  16.701  10.530
77986CL-    CL-46316  10.778  11.182  10.954
77987CL-    CL-46317  39.000  24.211  14.765
77988CL-    CL-46318  30.429  20.230   9.999
77989CL-    CL-46319   8.684  22.613  10.578
77990CL-    CL-46320  33.016  38.513  13.030
77991CL-    CL-46321  42.853  31.602   4.318
77992CL-    CL-46322   4.325  31.907  11.383
77993CL-    CL-46323  31.902  10.299   4.779
77994CL-    CL-46324   1.859  10.288  14.329
77995CL-    CL-46325  36.956   3.344   0.857
77996CL-    CL-46326  41.478  22.702   0.896
77997CL-    CL-46327   1.386  15.651   1.817
77998CL-    CL-46328  34.597   4.848  11.470
77999CL-    CL-46329   4.877   2.937  10.597
78000CL-    CL-46330  14.615  19.178   4.812
78001CL-    CL-46331  30.949   8.887  13.516
78002CL-    CL-46332  42.775  28.174  14.389
78003CL-    CL-46333  39.409  25.702  13.377
78004CL-    CL-46334  36.558  32.127   0.855
78005CL-    CL-46335  14.210  24.143  10.586
78006CL-    CL-46336   6.838  37.982   2.269
78007CL-    CL-46337  13.164  36.851  14.488
78008CL-    CL-46338  20.037  18.755   2.204
78009CL-    CL-46339   2.430  40.026   4.221
78010CL-    CL-46340  17.719   1.402   1.374
78011CL-    CL-46341  29.485  38.354   4.276
78012CL-    CL-46342  26.501  42.287   1.331
78013CL-    CL-46343   3.454  41.493   1.734
78014CL-    CL-46344  30.423  37.354  14.905
78015CL-    CL-46345   4.354  16.084  14.012
78016CL-    CL-46346  37.877  44.885  10.595
78017CL-    CL-46347  18.697  17.101   3.192
78018CL-    CL-46348  31.955  12.815   2.339
78019CL-    CL-46349  16.793  36.895  13.314
78020CL-    CL-46350   1.464  25.100  14.281
78021CL-    CL-46351  22.535   9.742   0.790
78022CL-    CL-46352  33.448  21.569   0.891
78023CL-    CL-46353  15.148  19.585  14.951
78024CL-    CL-46354  44.271  25.988   3.678
78025CL-    CL-46355  25.983   8.267  10.426
78026CL-    CL-46356  29.447  21.262  13.844
78027CL-    CL-46357   3.229  16.313   1.236
78028CL-    CL-46358  36.008  30.439  14.336
78029CL-    CL-46359  35.548  22.205  10.890
78030CL-    CL-46360   2.401  35.890   3.268
78031CL-    CL-46361  24.725  24.681  14.804
78032CL-    CL-46362  12.311  38.960   1.737
78033CL-    CL-46363  43.010  22.646   0.763
78034CL-    CL-46364  11.319  44.759  14.773
78035CL-    CL-46365   5.283  44.482  11.010
78036CL-    CL-46366  30.996  10.190  14.319
78037CL-    CL-46367  30.993  15.112   2.668
78038CL-    CL-46368  34.417   7.241   1.288
78039CL-    CL-46369  30.612   1.427  10.986
78040CL-    CL-46370  38.520   6.776  13.482
78041CL-    CL-46371  32.037  35.580   2.377
78042CL-    CL-46372  25.623  19.590   2.734
78043CL-    CL-46373  42.785  11.347  11.424
78044CL-    CL-46374  28.996  23.027   4.712
78045CL-    CL-46375   6.272   2.287  13.811
78046CL-    CL-46376  31.631   5.727  13.490
78047CL-    CL-46377  30.627  39.904   2.871
78048CL-    CL-46378  31.008  43.417   0.947
78049CL-    CL-46379  36.850  35.892   0.827
78050CL-    CL-46380  38.465  23.572  12.002
78051CL-    CL-46381  26.039  29.628   0.957
78052CL-    CL-46382  15.673  44.418  11.407
78053CL-    CL-46383   1.790  43.850  11.022
78054CL-    CL-46384  18.085  17.692  14.281
78055CL-    CL-46385  33.899  43.777   1.282
78056CL-    CL-46386   6.835  15.131   2.193
78057CL-    CL-46387  39.994   8.295  10.158
78058CL-    CL-46388  11.786   9.869  13.036
78059CL-    CL-46389  44.455   4.230   9.970
78060CL-    CL-46390  34.511  25.489   2.901
78061CL-    CL-46391  42.015   8.856   5.140
78062CL-    CL-46392  20.744   4.411   4.718
78063CL-    CL-46393  29.629  22.598  14.506
78064CL-    CL-46394  21.034  23.994   1.402
78065CL-    CL-46395  25.604  13.755  14.880
78066CL-    CL-46396  15.247  27.971   3.842
78067CL-    CL-46397  34.106   1.973   3.727
78068CL-    CL-46398   2.294   4.868   5.116
78069CL-    CL-46399  28.002  14.800  12.048
78070CL-    CL-46400  10.710  42.953   2.730
78071CL-    CL-46401   6.327   1.300   0.938
78072CL-    CL-46402  29.983  40.943  12.930
78073CL-    CL-46403  18.077   5.368   3.696
78074CL-    CL-46404   3.445  37.058   9.935
78075CL-    CL-46405   2.461  21.215   0.273
78076CL-    CL-46406  40.426   9.867  14.279
78077CL-    CL-46407  44.981   5.714  11.494
78078CL-    CL-46408   1.470  31.152  14.349
78079CL-    CL-46409  28.169  22.061  13.439
78080CL-    CL-46410   0.338  11.793  10.895
78081CL-    CL-46411  29.026  41.831  14.948
78082CL-    CL-46412  40.925   1.905  11.894
78083CL-    CL-46413  11.831   4.698  12.521
78084CL-    CL-46414  43.949  27.522   3.724
78085CL-    CL-46415   7.895  30.571  11.410
78086CL-    CL-46416  21.119  35.581   4.141
78087CL-    CL-46417  13.224   6.317   0.247
78088CL-    CL-46418  31.548   8.226  11.442
78089CL-    CL-46419   8.822  28.524   1.430
78090CL-    CL-46420  32.129  40.870  11.904
78091CL-    CL-46421  21.053  30.937   9.554
78092CL-    CL-46422  20.194  11.790  14.432
78093CL-    CL-46423  31.045  24.623   4.283
78094CL-    CL-46424   0.879  24.656  14.355
78095CL-    CL-46425   6.247  35.988  12.410
78096CL-    CL-46426  44.390  35.920  12.044
78097CL-    CL-46427  18.748  44.869  14.420
78098CL-    CL-46428   3.252  20.124  13.810
78099CL-    CL-46429   8.328  29.573  13.542
78100CL-    CL-46430  24.724  30.101  14.380
78101CL-    CL-46431  34.959  10.657  13.861
78102CL-    CL-46432  36.910   6.320   3.208
78103CL-    CL-46433  18.254  19.213   4.272
78104CL-    CL-46434  15.098  30.072   2.399
78105CL-    CL-46435  33.114  18.276  13.839
78106CL-    CL-46436  39.425  43.443   4.598
78107CL-    CL-46437  28.182  11.170  12.871
78108CL-    CL-46438  17.176  11.803   0.740
78109CL-    CL-46439  24.606  43.371   4.161
78110CL-    CL-46440  11.139  39.391  11.115
78111CL-    CL-46441  25.201   1.823  11.097
78112CL-    CL-46442   3.902  11.340   2.867
78113CL-    CL-46443  16.650  17.133   1.245
78114CL-    CL-46444  10.826   0.816   1.436
78115CL-    CL-46445  16.737  17.626  10.503
78116CL-    CL-46446  26.001   6.265   0.739
78117CL-    CL-46447   2.323  28.446  12.882
78118CL-    CL-46448  29.560  21.589   3.864
78119CL-    CL-46449  36.061  20.663  10.486
78120CL-    CL-46450  28.149  41.360   1.390
78121CL-    CL-46451  25.049   4.809   4.693
78122CL-    CL-46452  41.834  24.639   2.385
78123CL-    CL-46453  22.080  12.782  14.871
78124CL-    CL-46454  15.754   9.732  11.535
78125CL-    CL-46455  11.166  19.635  11.087
78126CL-    CL-46456  12.189  14.180   4.148
78127CL-    CL-46457  37.499   3.896  14.898
78128CL-    CL-46458  40.037   0.494   2.397
78129CL-    CL-46459  16.303   6.768  13.812
78130CL-    CL-46460   6.269  19.564  13.908
78131CL-    CL-46461   8.657  22.210   3.364
78132CL-    CL-46462  33.892  15.636   4.222
78133CL-    CL-46463   4.214  30.564   1.790
78134CL-    CL-46464  42.854  30.077   2.345
78135CL-    CL-46465  11.856  30.651  13.942
78136CL-    CL-46466  43.389  19.594  13.517
78137CL-    CL-46467  25.017  32.920   2.837
78138CL-    CL-46468   0.914  39.491   3.853
78139CL-    CL-46469  24.215  12.813  11.905
78140CL-    CL-46470  24.988  27.452   2.722
78141CL-    CL-46471  43.959  43.799   2.198
78142CL-    CL-46472  38.445  36.080   0.937
78143CL-    CL-46473  16.590  24.703   5.271
78144CL-    CL-46474  12.118   5.247   0.789
78145CL-    CL-46475  31.564   9.784   2.818
78146CL-    CL-46476  15.164  23.026   1.772
78147CL-    CL-46477  14.588   3.894   0.872
78148CL-    CL-46478  31.113  44.404   3.824
78149CL-    CL-46479  15.810  36.469   0.742
78150CL-    CL-46480   1.958   5.204  12.403
78151CL-    CL-46481   2.932   5.720   4.254
78152CL-    CL-46482  44.405  41.299   0.954
78153CL-    CL-46483  43.296  13.256  12.909
78154CL-    CL-46484  31.622  31.527  13.492
78155CL-    CL-46485   4.817  28.158   3.185
78156CL-    CL-46486  42.957   8.889   3.824
78157CL-    CL-46487  25.117  11.279  12.445
78158CL-    CL-46488  18.134   2.268   2.340
78159CL-    CL-46489   2.910  22.674  11.987
78160CL-    CL-46490  44.270   3.858   1.434
78161CL-    CL-46491  17.757   8.318  10.466
78162CL-    CL-46492  35.990   1.823   2.350
78163CL-    CL-46493  30.586   4.249   3.766
78164CL-    CL-46494   0.492  25.570  12.514
78165CL-    CL-46495   0.343   8.822   4.717
78166CL-    CL-46496  19.637  39.472   4.607
78167CL-    CL-46497   2.920  40.974   1.778
78168CL-    CL-46498   6.688  32.935   0.427
78169CL-    CL-46499  25.539  25.040  11.097
78170CL-    CL-46500   9.749  43.325   3.864
78171CL-    CL-46501  31.419  40.506   2.329
78172CL-    CL-46502  24.219  26.597  12.382
78173CL-    CL-46503  12.773   3.720  10.431
78174CL-    CL-46504  39.424  14.335   5.315
78175CL-    CL-46505   1.370  11.319  11.590
78176CL-    CL-46506  24.060   6.318  13.511
78177CL-    CL-46507  29.512   1.309   1.434
78178CL-    CL-46508  21.180  11.373   5.221
78179CL-    CL-46509  21.514  28.532   4.246
78180CL-    CL-46510  24.020  33.094   0.858
78181CL-    CL-46511  29.488  29.655  13.489
78182CL-    CL-46512  21.059  37.833  14.018
78183CL-    CL-46513  43.310  22.177   2.416
78184CL-    CL-46514  12.248  18.106   4.343
78185CL-    CL-46515  43.825  21.647  13.939
78186CL-    CL-46516  17.252  44.424  10.000
78187CL-    CL-46517   1.415  36.062   0.763
78188CL-    CL-46518   6.837  39.418  13.798
78189CL-    CL-46519  34.036  43.440  13.987
78190CL-    CL-46520   1.864  15.323  11.970
78191CL-    CL-46521   7.793  38.527   2.774
78192CL-    CL-46522  34.049  33.495   0.304
78193CL-    CL-46523  16.572  18.265  10.616
78194CL-    CL-46524  40.949  35.955   4.284
78195CL-    CL-46525   8.872   1.469   4.157
78196CL-    CL-46526   3.946  39.556   4.620
78197CL-    CL-46527  15.154  31.592  14.798
78198CL-    CL-46528   5.330  10.154   1.435
78199CL-    CL-46529   0.276  35.998   0.447
78200CL-    CL-46530  12.849  30.497  12.519
78201CL-    CL-46531  22.737   1.310   1.903
78202CL-    CL-46532  29.955  29.942  11.889
78203CL-    CL-46533  38.982  41.416   2.812
78204CL-    CL-46534  29.109  31.945   0.806
78205CL-    CL-46535  30.080   7.314   3.770
78206CL-    CL-46536  11.764   8.275   4.180
78207CL-    CL-46537  43.274  20.072   4.341
78208CL-    CL-46538  22.016  18.214   5.265
78209CL-    CL-46539  15.577  13.729  14.009
78210CL-    CL-46540  33.602  29.461   2.253
78211CL-    CL-46541  13.328  32.422   2.380
78212CL-    CL-46542  31.500  19.756  14.470
78213CL-    CL-46543  10.839  26.105  14.916
78214CL-    CL-46544  21.211   0.263   0.900
78215CL-    CL-46545   8.802   4.354   2.288
78216CL-    CL-46546   6.212  24.171  13.377
78217CL-    CL-46547  22.118  11.649  14.282
78218CL-    CL-46548   9.730  24.529  12.939
78219CL-    CL-46549   0.759  13.782   2.390
78220CL-    CL-46550   9.393  37.036  11.999
78221CL-    CL-46551  13.688  21.679   0.379
78222CL-    CL-46552  19.633  20.669   2.856
78223CL-    CL-46553  34.542  43.384   3.835
78224CL-    CL-46554  43.972   7.828   4.790
78225CL-    CL-46555   6.393  14.617   1.397
78226CL-    CL-46556  29.926  30.538   4.129
78227CL-    CL-46557  15.725  37.849  14.768
78228CL-    CL-46558  26.173  26.566   1.852
78229CL-    CL-46559   9.356   4.702   3.363
78230CL-    CL-46560   0.947   8.846  11.880
78231CL-    CL-46561   9.867  12.727   2.222
78232CL-    CL-46562  25.980  17.299  11.560
78233CL-    CL-46563  27.682  26.485  10.502
78234CL-    CL-46564  22.533   8.308   0.876
78235CL-    CL-46565  10.821  28.002  12.029
78236CL-    CL-46566  15.770   1.845  10.116
78237CL-    CL-46567  16.762   0.917   1.218
78238CL-    CL-46568  32.455  22.164   9.596
78239CL-    CL-46569  10.355  39.413  10.547
78240CL-    CL-46570  14.652   4.805   0.457
78241CL-    CL-46571  11.684  12.308   4.736
78242CL-    CL-46572   4.380  42.934   3.701
78243CL-    CL-46573  44.362  23.518   2.267
78244CL-    CL-46574  16.122  21.615  13.532
78245CL-    CL-46575  23.688  26.517  13.335
78246CL-    CL-46576  33.128  33.400   9.988
78247CL-    CL-46577   7.814   7.870   2.370
78248CL-    CL-46578  15.798  38.459  14.807
78249CL-    CL-46579  30.506  11.766   3.631
78250CL-    CL-46580   2.942  36.480   2.777
78251CL-    CL-46581   7.245  30.507   0.927
78252CL-    CL-46582  10.696  12.751   4.684
78253CL-    CL-46583  10.382  18.093  10.593
78254CL-    CL-46584  21.608  29.612  13.841
78255CL-    CL-46585   6.902  41.941   1.263
78256CL-    CL-46586  23.086  27.142  14.483
78257CL-    CL-46587  43.850  42.457   1.408
78258CL-    CL-46588  42.889  28.620  13.352
78259CL-    CL-46589  33.531  25.184   0.831
78260CL-    CL-46590  37.978   9.289  14.367
78261CL-    CL-46591  15.645  13.259   0.417
78262CL-    CL-46592  44.938   7.358  12.870
78263CL-    CL-46593  35.966  11.837  10.643
78264CL-    CL-46594  30.548  39.809  11.564
78265CL-    CL-46595  42.825  41.331   0.306
78266CL-    CL-46596  12.188  31.925  12.856
78267CL-    CL-46597  29.568  13.607   1.427
78268CL-    CL-46598   2.436  23.117  13.808
78269CL-    CL-46599  24.504  18.549   3.305
78270CL-    CL-46600  30.099   3.752   3.317
78271CL-    CL-46601  38.035  16.793  11.402
78272CL-    CL-46602   2.784  29.977  12.919
78273CL-    CL-46603   6.372  28.063  14.850
78274CL-    CL-46604  31.047  25.213   1.914
78275CL-    CL-46605  38.525  12.230   3.644
78276CL-    CL-46606  25.091  32.050  14.447
78277CL-    CL-46607  27.605   7.273  12.956
78278CL-    CL-46608  16.786  26.166  10.148
78279CL-    CL-46609  21.018  16.280  12.563
78280CL-    CL-46610  29.953  22.552   0.285
78281CL-    CL-46611  34.023  42.283  10.620
78282CL-    CL-46612  25.609  31.942  12.552
78283CL-    CL-46613  26.607  44.789   0.396
78284CL-    CL-46614  16.634   0.890  11.863
78285CL-    CL-46615  13.251  24.191  13.374
78286CL-    CL-46616  34.566  32.391  10.478
78287CL-    CL-46617  15.579  16.213   3.844
78288CL-    CL-46618  10.370   9.686  11.951
78289CL-    CL-46619  21.025  36.938  11.033
78290CL-    CL-46620  38.922  32.113  13.919
78291CL-    CL-46621  44.479  15.577  13.797
78292CL-    CL-46622   5.906  12.615   2.244
78293CL-    CL-46623  36.533  23.034  10.989
78294CL-    CL-46624  42.976   9.330   4.663
78295CL-    CL-46625  37.072   0.900   4.701
78296CL-    CL-46626   9.337  29.638  13.839
78297CL-    CL-46627  35.497  14.108  12.487
78298CL-    CL-46628   2.798   5.296  14.349
78299CL-    CL-46629  41.890  41.518   2.241
78300CL-    CL-46630   3.350  10.248   4.775
78301CL-    CL-46631  24.009  23.608  12.055
78302CL-    CL-46632  29.542  10.667   4.711
78303CL-    CL-46633   4.755  26.511   2.255
78304CL-    CL-46634  21.571  42.856   0.288
78305CL-    CL-46635  43.507  31.905   3.736
78306CL-    CL-46636   7.214  34.992   1.321
78307CL-    CL-46637  30.633  26.561   1.772
78308CL-    CL-46638   2.824  12.222   1.234
78309CL-    CL-46639  37.524  12.845  14.287
78310CL-    CL-46640   7.696   8.311  11.942
78311CL-    CL-46641  18.195  25.485   4.243
78312CL-    CL-46642  39.877  19.152   2.866
78313CL-    CL-46643  32.593  35.053   3.682
78314CL-    CL-46644  44.462   2.944   2.810
78315CL-    CL-46645  16.075   8.761   2.753
78316CL-    CL-46646  44.832   8.163  11.600
78317CL-    CL-46647  36.844  33.944  13.480
78318CL-    CL-46648  16.134   0.879   0.805
78319CL-    CL-46649  38.966  16.117  12.924
78320CL-    CL-46650  20.039  36.854  10.958
78321CL-    CL-46651  20.670  10.672  12.569
78322CL-    CL-46652   7.738   6.747   4.127
78323CL-    CL-46653   1.448  33.452   1.227
78324CL-    CL-46654  40.913   2.308   1.416
78325CL-    CL-46655  29.528  27.528   3.766
78326CL-    CL-46656   1.853   9.195   0.458
78327CL-    CL-46657   4.710  30.012   0.281
78328CL-    CL-46658  33.064  44.845   3.244
78329CL-    CL-46659  26.984  11.843  14.491
78330CL-    CL-46660  36.997  17.802  11.968
78331CL-    CL-46661   4.796  13.285  14.762
78332CL-    CL-46662   6.851   4.932  13.954
78333CL-    CL-46663  18.746  36.031   3.320
78334CL-    CL-46664  18.157  26.187   3.715
78335CL-    CL-46665  12.283   2.838  11.447
78336CL-    CL-46666  40.836  41.804  14.890
78337CL-    CL-46667  43.416  41.977  11.598
78338CL-    CL-46668  12.160  36.400  10.985
78339CL-    CL-46669   6.697  32.433  10.628
78340CL-    CL-46670  24.044   2.787  13.318
78341CL-    CL-46671  26.112  24.506  13.954
78342CL-    CL-46672  17.206  34.473  14.018
78343CL-    CL-46673   6.344  22.542   3.367
78344CL-    CL-46674  26.680  23.659  11.377
78345CL-    CL-46675  31.411  21.733  10.914
78346CL-    CL-46676  37.483   4.707   1.821
78347CL-    CL-46677   3.801  37.567  13.006
78348CL-    CL-46678  40.967  23.723  12.980
78349CL-    CL-46679  30.542   9.756   1.383
78350CL-    CL-46680  31.550  22.034  12.831
78351CL-    CL-46681  18.755  15.778  11.555
78352CL-    CL-46682  17.786  38.914  12.067
78353CL-    CL-46683  35.013   6.348   1.891
78354CL-    CL-46684  29.039  25.964   1.787
78355CL-    CL-46685  40.986   0.347  11.449
78356CL-    CL-46686  25.686  44.987  13.461
78357CL-    CL-46687   6.369  36.854  11.533
78358CL-    CL-46688  42.524  37.836   3.845
78359CL-    CL-46689  30.635  28.436   2.731
78360CL-    CL-46690  33.422  40.313   2.332
78361CL-    CL-46691  22.630   2.380   2.878
78362CL-    CL-46692  37.012  35.873  11.545
78363CL-    CL-46693  19.662  34.470  11.090
78364CL-    CL-46694  39.978   8.184   9.487
78365CL-    CL-46695   8.305  14.101  10.483
78366CL-    CL-46696  37.532   2.881   1.832
78367CL-    CL-46697  11.331  15.744   4.115
78368CL-    CL-46698   1.859  29.668  12.974
78369CL-    CL-46699  31.938  17.764   3.300
78370CL-    CL-46700   6.182   1.807  14.917
78371CL-    CL-46701  29.128  22.069   3.657
78372CL-    CL-46702  24.041   1.399   3.816
78373CL-    CL-46703  42.912  12.675   2.718
78374CL-    CL-46704  15.239  24.524  11.514
78375CL-    CL-46705   1.943  13.676  12.475
78376CL-    CL-46706  22.143  18.187   1.779
78377CL-    CL-46707  16.081  20.591   3.827
78378CL-    CL-46708  33.927  28.454   4.144
78379CL-    CL-46709  15.722  14.664  13.810
78380CL-    CL-46710  44.473  28.131   5.205
78381CL-    CL-46711  42.475   6.869   0.412
78382CL-    CL-46712   6.849  42.869   9.962
78383CL-    CL-46713  36.036  30.009  10.462
78384CL-    CL-46714  14.315  11.660  11.949
78385CL-    CL-46715   6.710  23.670   3.224
78386CL-    CL-46716   2.775  21.605   0.258
78387CL-    CL-46717  37.046   2.915  12.418
78388CL-    CL-46718   1.267  36.067   0.387
78389CL-    CL-46719  26.079  36.856   3.700
78390CL-    CL-46720  20.621  28.651   0.842
78391CL-    CL-46721  35.947   9.158   4.190
78392CL-    CL-46722   9.258  36.404  14.278
78393CL-    CL-46723  36.424  29.518   1.736
78394CL-    CL-46724   1.837   7.752   4.142
78395CL-    CL-46725   2.353  41.889  11.026
78396CL-    CL-46726  37.888  41.350   3.233
78397CL-    CL-46727  31.908  37.504   0.860
78398CL-    CL-46728  32.118  44.381  11.914
78399CL-    CL-46729  15.256  37.973   4.625
78400CL-    CL-46730  17.715  22.016   9.604
78401CL-    CL-46731  23.087  18.058  14.953
78402CL-    CL-46732  34.073  10.633   1.402
78403CL-    CL-46733  13.706  37.365   2.230
78404CL-    CL-46734  16.621  11.268   0.387
78405CL-    CL-46735  13.250  14.232   1.398
78406CL-    CL-46736  29.641   2.957  12.850
78407CL-    CL-46737   2.412  23.604  14.990
78408CL-    CL-46738  27.565  15.653   4.303
78409CL-    CL-46739   1.816  42.459   0.956
78410CL-    CL-46740   6.807  35.939  10.609
78411CL-    CL-46741  20.043  25.519   3.776
78412CL-    CL-46742  17.175   0.312  13.959
78413CL-    CL-46743  28.107  25.470   3.169
78414CL-    CL-46744  30.075  42.380   1.795
78415CL-    CL-46745   2.960   1.341   0.930
78416CL-    CL-46746  31.924  16.126   2.300
78417CL-    CL-46747  43.450  28.510   2.674
78418CL-    CL-46748  35.098  10.687  12.847
78419CL-    CL-46749  33.097  40.997   4.606
78420CL-    CL-46750  12.832  28.542   4.677
78421CL-    CL-46751  18.162  24.125   4.324
78422CL-    CL-46752  37.451  18.138  10.967
78423CL-    CL-46753  39.343   5.237   5.316
78424CL-    CL-46754  13.654  32.075   1.235
78425CL-    CL-46755  32.464  41.952  12.973
78426CL-    CL-46756   1.259  29.964   1.810
78427CL-    CL-46757  34.399   9.835  14.765
78428CL-    CL-46758   5.392  36.894  13.846
78429CL-    CL-46759  18.575  12.199   3.680
78430CL-    CL-46760  20.191  43.775   3.358
78431CL-    CL-46761  28.977  34.418   2.377
78432CL-    CL-46762  22.244  23.681   0.307
78433CL-    CL-46763   9.823  21.156   1.360
78434CL-    CL-46764  18.748  28.024   2.272
78435CL-    CL-46765  39.498   8.718   9.964
78436CL-    CL-46766  21.037  16.623   4.140
78437CL-    CL-46767  44.007  29.507   0.945
78438CL-    CL-46768   3.921  28.678   1.922
78439CL-    CL-46769   8.884  22.512   3.746
78440CL-    CL-46770  40.934  12.649  12.471
78441CL-    CL-46771  20.170  40.396  10.117
78442CL-    CL-46772   8.729  15.659   3.179
78443CL-    CL-46773  43.392  42.966   2.340
78444CL-    CL-46774  43.318  25.549  11.021
78445CL-    CL-46775  33.521  15.763   4.211
78446CL-    CL-46776  34.013  29.500   4.725
78447CL-    CL-46777   9.394  40.437   1.369
78448CL-    CL-46778  15.811  23.241  11.018
78449CL-    CL-46779  14.758  24.691  11.979
78450CL-    CL-46780  11.723  40.397  14.907
78451CL-    CL-46781  11.637  18.757  11.069
78452CL-    CL-46782  25.182   2.955  11.462
78453CL-    CL-46783  26.068  20.085  11.429
78454CL-    CL-46784   2.270  17.763   0.740
78455CL-    CL-46785   1.373  30.499  13.360
78456CL-    CL-46786  11.256   7.745   4.598
78457CL-    CL-46787  27.984   5.780   0.929
78458CL-    CL-46788  27.627   8.247  12.047
78459CL-    CL-46789  28.506  32.540   4.733
78460CL-    CL-46790   3.844  36.469   1.714
78461CL-    CL-46791  35.933   7.818  13.352
78462CL-    CL-46792  34.386  11.736  14.872
78463CL-    CL-46793  14.795  39.458  11.927
78464CL-    CL-46794  10.731  23.993   1.713
78465CL-    CL-46795  44.473  32.019  14.290
78466CL-    CL-46796  21.573  12.763  12.564
78467CL-    CL-46797  44.393  32.034   0.756
78468CL-    CL-46798  14.734  27.687  13.456
78469CL-    CL-46799   7.874  27.483  13.851
78470CL-    CL-46800   1.781   8.762  13.945
78471CL-    CL-46801  35.542  33.043  13.902
78472CL-    CL-46802  36.002  41.528  11.101
78473CL-    CL-46803  13.615  37.414   1.796
78474CL-    CL-46804  41.360  12.199   1.798
78475CL-    CL-46805  19.691  12.192   4.246
78476CL-    CL-46806  14.731  26.104   3.865
78477CL-    CL-46807  12.281   5.224   2.671
78478CL-    CL-46808   9.752  27.649   0.885
78479CL-    CL-46809  35.981  20.714   3.678
78480CL-    CL-46810  44.930  42.828   1.742
78481CL-    CL-46811   8.294  32.606   0.459
78482CL-    CL-46812   8.774  33.442   4.752
78483CL-    CL-46813  37.925   2.409   4.256
78484CL-    CL-46814   3.236  24.223  11.433
78485CL-    CL-46815  28.451   7.307   3.256
78486CL-    CL-46816  25.574  25.187  13.904
78487CL-    CL-46817  26.990  14.276   2.313
78488CL-    CL-46818  43.981   4.726  12.826
78489CL-    CL-46819  12.303  28.019   0.951
78490CL-    CL-46820  19.070  25.161  11.913
78491CL-    CL-46821  11.128  11.850  12.002
78492CL-    CL-46822  16.125  10.283   3.668
78493CL-    CL-46823  14.299   0.312   3.646
78494CL-    CL-46824  21.186  39.337  13.388
78495CL-    CL-46825  13.640  30.140  10.893
78496CL-    CL-46826  38.884  20.214  14.861
78497CL-    CL-46827  28.023   8.746  10.427
78498CL-    CL-46828   6.921  23.044   0.789
78499CL-    CL-46829  14.809  26.686  13.967
78500CL-    CL-46830   6.257   4.914  10.632
78501CL-    CL-46831  37.020  16.694   4.701
78502CL-    CL-46832  19.626  44.863   0.299
78503CL-    CL-46833  14.700  24.680   4.275
78504CL-    CL-46834  29.496  27.145  14.450
78505CL-    CL-46835  42.861  10.362   1.886
78506CL-    CL-46836   3.940   0.281  14.844
78507CL-    CL-46837  42.951  29.471  13.448
78508CL-    CL-46838   8.371  27.527   0.338
78509CL-    CL-46839  40.382  30.125   2.778
78510CL-    CL-46840   8.343  31.049  11.405
78511CL-    CL-46841  24.149  32.140  14.884
78512CL-    CL-46842  39.040   2.760   4.324
78513CL-    CL-46843  29.936  34.111   4.745
78514CL-    CL-46844  27.033   9.357   3.779
78515CL-    CL-46845  19.208   7.833   2.719
78516CL-    CL-46846   0.783  29.996  13.044
78517CL-    CL-46847  18.777  23.173   9.447
78518CL-    CL-46848  40.543   6.399   2.348
78519CL-    CL-46849  21.070   7.354   3.347
78520CL-    CL-46850  28.508  21.662   4.244
78521CL-    CL-46851  14.285  28.517   2.891
78522CL-    CL-46852  25.512  41.518  11.962
78523CL-    CL-46853  12.132   8.368   4.669
78524CL-    CL-46854  22.558  29.483  13.478
78525CL-    CL-46855  34.963  41.468  10.059
78526CL-    CL-46856  16.750  23.090   3.199
78527CL-    CL-46857   5.817  20.085  12.844
78528CL-    CL-46858  31.961  20.037   1.911
78529CL-    CL-46859  33.925  14.333   2.694
78530CL-    CL-46860   5.422  38.409   2.264
78531CL-    CL-46861  38.377  19.084   4.113
78532CL-    CL-46862  14.258  12.299   4.271
78533CL-    CL-46863   6.810  43.505  14.769
78534CL-    CL-46864  22.234  14.638  14.885
78535CL-    CL-46865  15.658  25.524  13.307
78536CL-    CL-46866  35.422  11.252   2.757
78537CL-    CL-46867  38.539  33.002   3.828
78538CL-    CL-46868  44.350  24.647   3.857
78539CL-    CL-46869  10.721  21.182  13.487
78540CL-    CL-46870  31.526  28.581   2.259
78541CL-    CL-46871  10.150  41.947   2.724
78542CL-    CL-46872  27.956  13.726   3.703
78543CL-    CL-46873  33.089  40.327  14.769
78544CL-    CL-46874  43.393  17.747   2.674
78545CL-    CL-46875   4.788  18.790   3.305
78546CL-    CL-46876  28.553  26.969  10.419
78547CL-    CL-46877  22.722  16.241  13.042
78548CL-    CL-46878  23.146   4.931   4.805
78549CL-    CL-46879  13.260  29.489   1.844
78550CL-    CL-46880  27.184   9.810   5.246
78551CL-    CL-46881  40.900   4.241   2.230
78552CL-    CL-46882  42.463  32.601  14.475
78553CL-    CL-46883  10.284  14.826  14.513
78554CL-    CL-46884  19.112   4.738   3.295
78555CL-    CL-46885  24.690   9.669  10.531
78556CL-    CL-46886  16.147  32.084  12.564
78557CL-    CL-46887  28.136   1.282   4.797
78558CL-    CL-46888  21.068  11.777  11.895
78559CL-    CL-46889  44.269  30.987   2.706
78560CL-    CL-46890  12.844  42.463  12.510
78561CL-    CL-46891  21.101   5.735   1.835
78562CL-    CL-46892  43.370  33.619   3.181
78563CL-    CL-46893  38.976  11.693   1.404
78564CL-    CL-46894  38.929   7.280  11.918
78565CL-    CL-46895  11.260  43.892  11.072
78566CL-    CL-46896  37.048  35.594   2.666
78567CL-    CL-46897   2.887  27.178  11.033
78568CL-    CL-46898   7.716  10.234  13.953
78569CL-    CL-46899   4.815   9.275  11.447
78570CL-    CL-46900  12.788  24.144  14.826
78571CL-    CL-46901   7.256  44.861   1.431
78572CL-    CL-46902   6.813   7.715   1.738
78573CL-    CL-46903   7.325  34.575   2.869
78574CL-    CL-46904   9.719   8.351   1.362
78575CL-    CL-46905  34.575  12.168  14.904
78576CL-    CL-46906  16.188  14.129  11.487
78577CL-    CL-46907  33.056  42.400   0.859
78578CL-    CL-46908  37.446  41.342   0.424
78579CL-    CL-46909  32.416   8.275  13.443
78580CL-    CL-46910  29.009  20.744  11.892
78581CL-    CL-46911  20.107   2.391   3.870
78582CL-    CL-46912  17.753   5.280   0.814
78583CL-    CL-46913  20.124  28.961  11.120
78584CL-    CL-46914  28.544  14.265   0.737
78585CL-    CL-46915  14.802  40.522  14.334
78586CL-    CL-46916  32.913  19.780   3.364
78587CL-    CL-46917  43.452   9.716  12.920
78588CL-    CL-46918   8.286  44.371  13.353
78589CL-    CL-46919  24.987  14.628  12.398
78590CL-    CL-46920  19.133  40.315  11.091
78591CL-    CL-46921  37.851  35.468   4.183
78592CL-    CL-46922  27.141  31.141   4.665
78593CL-    CL-46923   0.420  26.559  14.400
78594CL-    CL-46924   9.230   0.830  12.560
78595CL-    CL-46925  42.495  21.658   3.701
78596CL-    CL-46926  12.750  44.336   0.922
78597CL-    CL-46927  16.099  35.393  10.643
78598CL-    CL-46928   0.981  31.023  14.436
78599CL-    CL-46929  22.605  38.336  13.839
78600CL-    CL-46930  32.526   0.928  12.567
78601CL-    CL-46931  44.822  26.054   1.897
78602CL-    CL-46932  33.063  30.131   4.199
78603CL-    CL-46933  18.154  36.967  14.953
78604CL-    CL-46934  21.579  22.051   2.833
78605CL-    CL-46935  34.577   3.809   0.299
78606CL-    CL-46936  36.873  29.559  10.972
78607CL-    CL-46937  33.404   1.950  11.010
78608CL-    CL-46938   9.171   8.318  10.597
78609CL-    CL-46939  42.468   6.289  12.455
78610CL-    CL-46940  25.210   6.725  14.802
78611CL-    CL-46941  10.644  43.870  11.071
78612CL-    CL-46942   5.337  37.572   3.852
78613CL-    CL-46943  29.529  17.240   0.293
78614CL-    CL-46944   7.801  21.757   3.196
78615CL-    CL-46945   0.849  43.394  12.848
78616CL-    CL-46946  34.561  20.613  14.965
78617CL-    CL-46947   2.409  43.494  14.291
78618CL-    CL-46948  39.809  30.490  14.794
78619CL-    CL-46949  14.155  10.217   5.110
78620CL-    CL-46950   7.330   9.275   4.642
78621CL-    CL-46951  35.955  29.506   0.444
78622CL-    CL-46952   1.808   0.258  13.386
78623CL-    CL-46953  20.209  42.019   2.411
78624CL-    CL-46954  40.315   0.905  10.613
78625CL-    CL-46955  24.087  17.633   0.956
78626CL-    CL-46956  24.570   4.883   3.859
78627CL-    CL-46957   5.280  35.416  13.500
78628CL-    CL-46958  19.157  43.362  11.981
78629CL-    CL-46959  44.770  21.753   3.867
78630CL-    CL-46960  40.866  44.451  11.612
78631CL-    CL-46961  34.929  26.022   3.260
78632CL-    CL-46962   7.669  41.998   2.295
78633CL-    CL-46963   6.332   0.454   0.883
78634CL-    CL-46964  35.979  29.455  10.427
78635CL-    CL-46965  19.536  28.552  11.046
78636CL-    CL-46966  19.058  31.962   1.813
78637CL-    CL-46967  19.158   9.782   2.251
78638CL-    CL-46968  32.603  11.272  13.821
78639CL-    CL-46969   3.835  44.373   3.863
78640CL-    CL-46970  17.741  12.637  11.531
78641CL-    CL-46971   2.798   2.904   4.289
78642CL-    CL-46972  39.052   5.695   2.773
78643CL-    CL-46973  24.012  21.165   4.314
78644CL-    CL-46974   9.343  14.814  10.571
78645CL-    CL-46975  21.723   4.373  14.417
78646CL-    CL-46976  35.007   6.826  13.945
78647CL-    CL-46977   8.760  14.291  11.084
78648CL-    CL-46978  20.192  31.556   4.129
78649CL-    CL-46979  44.491  23.687  10.902
78650CL-    CL-46980  31.116  24.115   1.788
78651CL-    CL-46981  34.112  35.899   4.344
78652CL-    CL-46982   8.332   6.748   0.263
78653CL-    CL-46983  28.138   9.784   1.406
78654CL-    CL-46984   6.860  16.176   3.183
78655CL-    CL-46985   0.865  25.567  10.923
78656CL-    CL-46986  19.261  31.009  13.012
78657CL-    CL-46987  38.463   5.384  10.621
78658CL-    CL-46988  30.569  16.179   4.741
78659CL-    CL-46989  42.029  32.392   3.743
78660CL-    CL-46990  26.630  16.301  13.526
78661CL-    CL-46991   4.433  10.770   1.803
78662CL-    CL-46992  31.576  18.205  14.344
78663CL-    CL-46993  43.765  37.556  12.891
78664CL-    CL-46994   2.454  44.935  12.883
78665CL-    CL-46995  27.116  42.001   2.293
78666CL-    CL-46996  35.542  11.229  13.532
78667CL-    CL-46997  26.525  20.165   2.741
78668CL-    CL-46998   4.834  42.860  14.926
78669CL-    CL-46999  37.050   7.193   2.272
78670CL-    CL-47000  44.486  30.592  14.982
78671CL-    CL-47001  21.524  15.792  14.496
78672CL-    CL-47002  19.725   3.931  12.535
78673CL-    CL-47003  40.381  36.450  14.461
78674CL-    CL-47004  31.485  12.170   0.907
78675CL-    CL-47005  25.621   6.721   0.786
78676CL-    CL-47006  25.055  37.026   4.650
78677CL-    CL-47007  27.456  12.825   0.297
78678CL-    CL-47008   3.393  14.815  11.499
78679CL-    CL-47009  19.767  37.079   1.428
78680CL-    CL-47010  24.545  31.552   1.365
78681CL-    CL-47011  20.182  10.749   4.803
78682CL-    CL-47012   3.890  15.724  14.830
78683CL-    CL-47013  34.601  38.399   0.268
78684CL-    CL-47014  22.168   0.291  11.406
78685CL-    CL-47015  16.743  29.544  10.977
78686CL-    CL-47016   6.419   5.200   3.833
78687CL-    CL-47017  34.993  37.438  13.862
78688CL-    CL-47018   4.395  15.126   2.304
78689CL-    CL-47019  17.635  24.603  13.509
78690CL-    CL-47020  29.147  13.178  12.366
78691CL-    CL-47021  15.690  22.013  13.540
78692CL-    CL-47022  36.464  42.778  14.448
78693CL-    CL-47023  24.158  11.748   3.326
78694CL-    CL-47024  35.090  24.028   3.356
78695CL-    CL-47025  13.775  18.601   0.882
78696CL-    CL-47026  12.197   5.310  11.064
78697CL-    CL-47027  25.077  36.407  14.872
78698CL-    CL-47028  30.012  35.491  11.413
78699CL-    CL-47029  39.816   7.230  10.965
78700CL-    CL-47030  35.421  32.898   2.822
78701CL-    CL-47031  17.778  32.625   0.789
78702CL-    CL-47032  20.719   6.304   0.318
78703CL-    CL-47033  20.246  38.327   1.416
78704CL-    CL-47034  10.849  17.087   4.794
78705CL-    CL-47035  39.353   6.283   3.648
78706CL-    CL-47036  20.178  13.714  14.367
78707CL-    CL-47037  35.998  19.704   3.289
78708CL-    CL-47038   1.320   0.825   0.760
78709CL-    CL-47039   6.207  40.046  12.853
78710CL-    CL-47040  24.068  14.251   2.295
78711CL-    CL-47041   6.343  22.165   4.818
78712CL-    CL-47042   5.859  43.288   3.770
78713CL-    CL-47043  38.989   4.928   0.369
78714CL-    CL-47044  31.427  17.163   3.718
78715CL-    CL-47045  10.742  15.613   4.650
78716CL-    CL-47046   6.194  41.040  12.500
78717CL-    CL-47047  42.346  15.162  14.424
78718CL-    CL-47048  27.040  33.987  10.505
78719CL-    CL-47049  34.522   4.776   3.187
78720CL-    CL-47050   9.808   8.332   4.745
78721CL-    CL-47051  28.582   0.929  12.977
78722CL-    CL-47052   6.356   8.738  14.758
78723CL-    CL-47053  33.553   3.821   2.868
78724CL-    CL-47054  12.247  13.621  10.562
78725CL-    CL-47055  15.773  32.094  12.521
78726CL-    CL-47056   2.407  17.640   4.752
78727CL-    CL-47057  39.981  20.175   1.337
78728CL-    CL-47058   2.832  19.704   3.644
78729CL-    CL-47059  34.559  39.933  13.057
78730CL-    CL-47060  42.450   6.261   3.824
78731CL-    CL-47061  21.248  43.824  13.049
78732CL-    CL-47062  17.148  20.678   2.202
78733CL-    CL-47063  23.223  42.823  11.373
78734CL-    CL-47064   3.927  19.718   1.853
78735CL-    CL-47065  44.779  26.611   4.334
78736CL-    CL-47066  43.905  28.576  14.863
78737CL-    CL-47067  20.608  14.217  13.399
78738CL-    CL-47068   7.312   8.882  14.339
78739CL-    CL-47069  10.833  34.913   9.963
78740CL-    CL-47070  37.501  39.822  14.487
78741CL-    CL-47071   8.330  11.803   4.646
78742CL-    CL-47072  25.614  32.002   5.088
78743CL-    CL-47073  23.987  42.952  13.443
78744CL-    CL-47074  20.653   8.270   9.931
78745CL-    CL-47075  12.237  38.537  14.885
78746CL-    CL-47076  33.510  18.608  14.942
78747CL-    CL-47077  30.576  12.265   0.798
78748CL-    CL-47078  28.980  10.815  11.377
78749CL-    CL-47079  34.006  33.038   0.776
78750CL-    CL-47080  29.485  24.122   3.743
78751CL-    CL-47081  20.126   7.291   0.949
78752CL-    CL-47082  42.479  40.522  11.437
78753CL-    CL-47083  41.388  36.931  10.561
78754CL-    CL-47084  27.532  29.054  11.445
78755CL-    CL-47085  32.595  14.591   0.258
78756CL-    CL-47086  32.114  35.092  13.437
78757CL-    CL-47087  39.982  34.016  13.528
78758CL-    CL-47088  33.573  13.658  12.446
78759CL-    CL-47089  16.266   4.309  13.518
78760CL-    CL-47090  27.462  39.837   4.665
78761CL-    CL-47091  33.878   0.454  14.491
78762CL-    CL-47092  29.934  25.534   4.191
78763CL-    CL-47093  10.741   0.765   2.827
78764CL-    CL-47094  22.565   2.379  10.641
78765CL-    CL-47095  31.043  34.117  14.902
78766CL-    CL-47096   1.829  26.203   1.749
78767CL-    CL-47097  24.982  26.664  14.475
78768CL-    CL-47098  13.615  13.305   1.904
78769CL-    CL-47099  21.025   6.761   1.374
78770CL-    CL-47100  43.854  31.132  12.842
78771CL-    CL-47101   6.185  35.010   0.848
78772CL-    CL-47102  33.399  11.362  10.449
78773CL-    CL-47103  41.916   2.723  11.465
78774CL-    CL-47104  35.468  42.784   4.616
78775CL-    CL-47105  15.702   3.330  12.028
78776CL-    CL-47106   2.868  39.018  14.884
78777CL-    CL-47107  44.864  32.105  10.900
78778CL-    CL-47108  38.870  14.742   1.753
78779CL-    CL-47109  24.136  21.066   1.306
78780CL-    CL-47110  38.840  23.008  13.434
78781CL-    CL-47111  22.081  30.629  13.415
78782CL-    CL-47112  41.400  25.165  13.862
78783CL-    CL-47113  17.723  22.605  13.394
78784CL-    CL-47114  37.831  43.368  11.449
78785CL-    CL-47115  20.051  44.458   4.681
78786CL-    CL-47116   7.293  10.703  14.330
78787CL-    CL-47117  35.482  19.168   4.835
78788CL-    CL-47118  22.720   8.737   1.417
78789CL-    CL-47119  17.064  27.488   2.323
78790CL-    CL-47120  41.471  39.388   2.183
78791CL-    CL-47121  13.685  14.812  11.526
78792CL-    CL-47122  42.900  29.464   2.708
78793CL-    CL-47123  12.335   7.719  12.554
78794CL-    CL-47124  13.775  43.273   0.939
78795CL-    CL-47125   9.195  35.905   2.319
78796CL-    CL-47126  38.884   1.750   1.360
78797CL-    CL-47127   3.313  25.195  13.362
78798CL-    CL-47128  17.155   0.812  14.840
78799CL-    CL-47129  25.581   1.969  14.933
78800CL-    CL-47130  24.525   0.784   4.225
78801CL-    CL-47131  26.978  32.026   5.091
78802CL-    CL-47132  39.316  21.532  14.515
78803CL-    CL-47133   4.212   0.249   0.360
78804CL-    CL-47134   2.470   0.827  11.608
78805CL-    CL-47135  40.854  22.031  11.966
78806CL-    CL-47136  18.070  26.158  13.445
78807CL-    CL-47137  31.930  24.705   3.194
78808CL-    CL-47138  13.313   3.302  14.364
78809CL-    CL-47139  36.538  42.411  11.493
78810CL-    CL-47140  11.852   1.928   3.786
78811CL-    CL-47141  16.277   2.407   3.769
78812CL-    CL-47142  16.635  11.220   4.134
78813CL-    CL-47143  32.943  42.285   3.637
78814CL-    CL-47144  29.016  18.062  11.045
78815CL-    CL-47145  29.505  28.152   4.775
78816CL-    CL-47146  12.785  37.463   1.437
78817CL-    CL-47147   0.751  14.725   0.781
78818CL-    CL-47148  36.362   0.878  13.514
78819CL-    CL-47149   8.253  13.611  13.810
78820CL-    CL-47150  16.140  31.924  14.873
78821CL-    CL-47151  28.461   7.741  14.852
78822CL-    CL-47152   4.887  14.783  11.561
78823CL-    CL-47153  25.004   4.239  10.443
78824CL-    CL-47154  44.482  32.067   3.818
78825CL-    CL-47155  25.971  13.655   4.152
78826CL-    CL-47156  38.878  10.302   4.631
78827CL-    CL-47157  12.627  22.247   3.788
78828CL-    CL-47158  38.930  43.995   5.203
78829CL-    CL-47159  17.588  16.170  11.510
78830CL-    CL-47160  31.449   7.285   1.314
78831CL-    CL-47161  18.208  31.974   4.136
78832CL-    CL-47162  33.921  39.017  12.056
78833CL-    CL-47163  16.668   7.172   1.735
78834CL-    CL-47164   3.873  44.769   1.722
78835CL-    CL-47165   8.183  35.434   1.232
78836CL-    CL-47166  10.798  34.438   5.303
78837CL-    CL-47167  11.166  40.470  10.409
78838CL-    CL-47168   0.399  22.157  13.003
78839CL-    CL-47169  26.594  29.531   0.373
78840CL-    CL-47170  38.396  25.680  13.481
78841CL-    CL-47171   8.346  37.537  11.039
78842CL-    CL-47172  40.494  25.710  13.805
78843CL-    CL-47173  43.878  43.470   4.354
78844CL-    CL-47174  38.460  25.168   0.796
78845CL-    CL-47175  30.620  19.223   5.302
78846CL-    CL-47176  39.531  12.713  12.395
78847CL-    CL-47177  40.539  43.295   0.306
78848CL-    CL-47178  12.156  38.481  12.508
78849CL-    CL-47179  14.209  32.079   0.480
78850CL-    CL-47180  24.215  37.513  14.306
78851CL-    CL-47181   5.912  18.059   2.314
78852CL-    CL-47182   1.359  39.866   2.781
78853CL-    CL-47183  15.154  22.174   4.751
78854CL-    CL-47184  19.152  22.173   0.861
78855CL-    CL-47185  12.724   1.881  14.432
78856CL-    CL-47186   9.863  29.039  13.478
78857CL-    CL-47187  11.289  16.570  10.521
78858CL-    CL-47188  24.011   9.800   0.763
78859CL-    CL-47189  28.056  38.061  13.871
78860CL-    CL-47190   6.700   1.241  11.990
78861CL-    CL-47191  35.866  37.463  11.375
78862CL-    CL-47192  25.592   4.707  14.809
78863CL-    CL-47193  33.124   6.219   2.377
78864CL-    CL-47194  17.255  41.410  10.126
78865CL-    CL-47195  43.289  30.649   4.791
78866CL-    CL-47196  39.392  11.664  12.409
78867CL-    CL-47197  38.481  27.064   0.368
78868CL-    CL-47198  32.445  28.663   3.174
78869CL-    CL-47199  37.940  10.776  12.982
78870CL-    CL-47200  16.167   0.255  10.570
78871CL-    CL-47201  24.177  42.520  14.496
78872CL-    CL-47202  43.806  19.690  11.036
78873CL-    CL-47203  38.498  14.757  10.498
78874CL-    CL-47204  31.595  21.094   3.851
78875CL-    CL-47205  38.398  32.892   0.403
78876CL-    CL-47206  10.204   0.448   2.704
78877CL-    CL-47207  25.199  18.232   3.231
78878CL-    CL-47208  19.740  25.670  13.511
78879CL-    CL-47209  44.340  29.447   5.148
78880CL-    CL-47210   9.314  17.642  11.880
78881CL-    CL-47211  36.392  41.019   3.213
78882CL-    CL-47212  36.030  14.207   2.332
78883CL-    CL-47213  22.066   5.712   4.790
78884CL-    CL-47214  13.116   4.381  12.026
78885CL-    CL-47215  35.427  34.523   0.807
78886CL-    CL-47216  12.786  38.914  11.503
78887CL-    CL-47217  41.904  31.124   2.285
78888CL-    CL-47218  19.105  38.528  10.578
78889CL-    CL-47219  33.411  33.622   0.300
78890CL-    CL-47220  34.460  11.638  10.439
78891CL-    CL-47221  32.941  33.604   3.370
78892CL-    CL-47222   9.353  13.113   3.340
78893CL-    CL-47223  18.546  18.720   2.901
78894CL-    CL-47224  43.403  33.497   3.711
78895CL-    CL-47225   7.692  43.775   0.433
78896CL-    CL-47226  40.862  19.159   3.186
78897CL-    CL-47227   0.986  33.114   2.773
78898CL-    CL-47228  39.335  17.589  14.494
78899CL-    CL-47229  19.709  27.617   0.475
78900CL-    CL-47230  13.788   2.899  10.581
78901CL-    CL-47231  29.589  29.082   4.227
78902CL-    CL-47232  18.234  10.871   4.648
78903CL-    CL-47233  17.094  37.912  11.966
78904CL-    CL-47234  31.464  10.878   1.750
78905CL-    CL-47235  14.130  31.146  14.510
78906CL-    CL-47236  15.137  25.621  12.563
78907CL-    CL-47237  20.769  33.131   3.289
78908CL-    CL-47238   8.167  35.969  11.425
78909CL-    CL-47239  20.229   3.227  14.850
78910CL-    CL-47240   2.431  13.325  13.980
78911CL-    CL-47241   6.254  36.030  13.799
78912CL-    CL-47242  10.821   6.362   4.135
78913CL-    CL-47243  24.495  10.705   3.171
78914CL-    CL-47244   4.302  19.275   0.439
78915CL-    CL-47245  16.765   6.689  14.989
78916CL-    CL-47246  26.511  32.510  10.572
78917CL-    CL-47247  36.070  39.896   1.423
78918CL-    CL-47248  25.053  44.361   2.747
78919CL-    CL-47249  26.176   5.812  12.015
78920CL-    CL-47250   0.316   2.864  12.978
78921CL-    CL-47251  32.995  32.968  13.007
78922CL-    CL-47252  28.485   6.735   0.353
78923CL-    CL-47253  10.229  32.007   0.460
78924CL-    CL-47254   0.280  25.539   4.222
78925CL-    CL-47255  44.492   6.324   4.729
78926CL-    CL-47256  38.516  12.265  10.519
78927CL-    CL-47257  14.170  37.456  14.802
78928CL-    CL-47258  36.407  43.367   1.874
78929CL-    CL-47259  14.655   4.887  10.996
78930CL-    CL-47260  32.013  26.189  12.408
78931CL-    CL-47261  27.144  42.398  13.458
78932CL-    CL-47262  12.787  41.904   0.398
78933CL-    CL-47263   1.846  11.706   4.318
78934CL-    CL-47264   3.304  13.186  14.941
78935CL-    CL-47265  12.296   1.849   0.267
78936CL-    CL-47266   9.656  16.806  14.771
78937CL-    CL-47267  16.215  28.132  14.469
78938CL-    CL-47268  24.009  37.083   2.763
78939CL-    CL-47269  21.066  43.899  10.034
78940CL-    CL-47270  40.900  30.100  11.387
78941CL-    CL-47271   8.404   4.226   0.467
78942CL-    CL-47272  37.910  36.916  11.384
78943CL-    CL-47273  20.662  30.130  12.401
78944CL-    CL-47274  18.711  39.900   0.873
78945CL-    CL-47275  41.936  27.638   2.795
78946CL-    CL-47276   4.933  14.203  11.436
78947CL-    CL-47277  22.211  35.912   2.768
78948CL-    CL-47278  23.162  26.557   2.894
78949CL-    CL-47279  25.101   8.204   2.252
78950CL-    CL-47280  22.670  29.126  14.437
78951CL-    CL-47281  17.569   0.970   2.259
78952CL-    CL-47282  21.153  32.105   1.912
78953CL-    CL-47283  36.412  11.184  13.011
78954CL-    CL-47284  37.084  41.812  10.469
78955CL-    CL-47285   6.686  11.756   0.817
78956CL-    CL-47286  10.788  34.993   0.292
78957CL-    CL-47287  13.324  38.497  14.867
78958CL-    CL-47288  18.200  34.090   2.701
78959CL-    CL-47289  21.048  30.565  13.862
78960CL-    CL-47290   2.392   1.246   4.335
78961CL-    CL-47291   0.898  44.390   3.633
78962CL-    CL-47292  31.648   2.963  11.436
78963CL-    CL-47293  35.361  10.353  14.310
78964CL-    CL-47294  36.033  38.412   4.622
78965CL-    CL-47295  38.330  21.067  12.517
78966CL-    CL-47296  35.901   3.729   0.899
78967CL-    CL-47297  32.079  42.961  13.044
78968CL-    CL-47298  11.747  21.114   0.759
78969CL-    CL-47299  29.575  14.660   0.476
78970CL-    CL-47300  42.494   8.363   4.711
78971CL-    CL-47301   2.743   3.855  14.944
78972CL-    CL-47302  31.547  16.726   3.728
78973CL-    CL-47303  36.934  33.890   0.408
78974CL-    CL-47304   2.394  21.035  10.496
78975CL-    CL-47305   3.818  33.099  12.033
78976CL-    CL-47306  28.660  17.073   3.237
78977CL-    CL-47307  39.368  11.700  14.345
78978CL-    CL-47308  10.384  32.410  11.918
78979CL-    CL-47309  26.700  12.714  11.551
78980CL-    CL-47310  37.845  40.984   4.732
78981CL-    CL-47311  11.684  38.018   1.779
78982CL-    CL-47312   6.416  17.609  12.064
78983CL-    CL-47313  12.261  27.690   4.698
78984CL-    CL-47314  26.553  42.494   2.246
78985CL-    CL-47315  34.941  18.230  13.438
78986CL-    CL-47316   8.172   0.865  11.120
78987CL-    CL-47317   7.384  17.651   0.772
78988CL-    CL-47318  15.316  44.387   4.691
78989CL-    CL-47319  23.636   1.944  11.884
78990CL-    CL-47320  35.921  15.675  13.906
78991CL-    CL-47321   2.469  18.160  14.503
78992CL-    CL-47322  40.419  34.092   4.250
78993CL-    CL-47323  17.266   1.301   2.401
78994CL-    CL-47324  11.277  38.400   4.285
78995CL-    CL-47325  34.514  43.301   3.226
78996CL-    CL-47326   0.419  16.317   3.690
78997CL-    CL-47327  40.489   7.210  14.028
78998CL-    CL-47328  16.193  44.493   0.375
78999CL-    CL-47329   6.890   9.367  12.401
79000CL-    CL-47330  39.430   7.369  12.342
79001CL-    CL-47331  21.204  37.493   4.758
79002CL-    CL-47332   8.693  11.343   4.676
79003CL-    CL-47333  14.181   7.201  11.855
79004CL-    CL-47334  36.494  13.169   4.834
79005CL-    CL-47335  32.053  14.704  13.365
79006CL-    CL-47336  34.396  12.644  11.928
79007CL-    CL-47337   7.399  17.173  10.455
79008CL-    CL-47338  36.394  31.576   0.771
79009CL-    CL-47339  42.307  37.895  13.922
79010CL-    CL-47340  10.723  22.733  12.837
79011CL-    CL-47341  20.592   3.430  12.568
79012CL-    CL-47342  37.027  33.037   2.749
79013CL-    CL-47343   7.268   0.742   4.212
79014CL-    CL-47344  19.192  23.195   1.261
79015CL-    CL-47345  12.189   8.385  13.392
79016CL-    CL-47346   0.970  43.787   2.303
79017CL-    CL-47347  35.090  36.842  12.004
79018CL-    CL-47348  12.228  27.543  14.418
79019CL-    CL-47349  24.198  25.014  14.343
79020CL-    CL-47350  32.048  15.234   2.374
79021CL-    CL-47351  31.636  22.555   5.188
79022CL-    CL-47352  36.500  15.609   0.925
79023CL-    CL-47353  13.639   6.819  10.486
79024CL-    CL-47354   4.291   4.395  14.344
79025CL-    CL-47355  13.761  13.344  12.519
79026CL-    CL-47356  27.613   5.401  11.022
79027CL-    CL-47357   0.882  37.918  11.563
79028CL-    CL-47358  20.626   7.883  10.897
79029CL-    CL-47359  42.319  44.335  14.827
79030CL-    CL-47360  27.164  35.536   0.401
79031CL-    CL-47361  35.898  28.079  13.399
79032CL-    CL-47362   0.948  18.678   2.700
79033CL-    CL-47363  14.302   3.410   1.367
79034CL-    CL-47364   3.718  27.463   3.680
79035CL-    CL-47365   1.410  38.876  11.601
79036CL-    CL-47366  20.150  10.165  11.949
79037CL-    CL-47367  35.050  20.605  12.006
79038CL-    CL-47368  42.417   4.934   1.358
79039CL-    CL-47369   9.176  44.493  14.873
79040CL-    CL-47370  36.070   4.385   3.255
79041CL-    CL-47371  32.583   9.859   4.332
79042CL-    CL-47372  28.558  35.434  11.380
79043CL-    CL-47373  31.636   3.267   3.660
79044CL-    CL-47374   4.885   9.228  12.554
79045CL-    CL-47375  15.673  36.936   5.082
79046CL-    CL-47376  24.564  30.484   2.876
79047CL-    CL-47377  25.666  43.830  12.922
79048CL-    CL-47378  10.242  25.691   0.424
79049CL-    CL-47379  40.936   7.774  10.035
79050CL-    CL-47380  42.817  15.269   3.725
79051CL-    CL-47381  34.969  10.696   2.885
79052CL-    CL-47382  44.466  34.906  11.880
79053CL-    CL-47383  42.338  14.641  13.517
79054CL-    CL-47384   3.900  12.806   3.149
79055CL-    CL-47385   2.283  18.597  10.633
79056CL-    CL-47386  42.916  21.041  10.623
79057CL-    CL-47387  31.979  34.604   2.753
79058CL-    CL-47388   4.324  29.542  10.446
79059CL-    CL-47389  40.881  27.147   3.636
79060CL-    CL-47390  38.532  14.737  14.909
79061CL-    CL-47391  41.805  26.641   2.259
79062CL-    CL-47392   4.399  34.945  13.533
79063CL-    CL-47393   2.359  33.483  13.803
79064CL-    CL-47394  16.723  44.917  13.856
79065CL-    CL-47395  11.651  15.609   4.663
79066CL-    CL-47396  11.148  25.613  11.118
79067CL-    CL-47397   3.717  40.023  11.527
79068CL-    CL-47398  13.351  34.010  14.314
79069CL-    CL-47399  16.228  11.658  13.513
79070CL-    CL-47400  34.590  26.019   1.837
79071CL-    CL-47401  34.430  35.580  10.581
79072CL-    CL-47402  13.294  40.492   1.259
79073CL-    CL-47403  15.201  15.178   3.315
79074CL-    CL-47404  21.596  14.690   3.231
79075CL-    CL-47405   5.273  35.054   1.923
79076CL-    CL-47406  39.482  40.907  13.998
79077CL-    CL-47407  42.024  34.499   4.749
79078CL-    CL-47408   8.160  17.743  12.543
79079CL-    CL-47409  18.156  30.908   1.799
79080CL-    CL-47410  16.134   5.209   1.426
79081CL-    CL-47411   4.379  10.282  13.013
79082CL-    CL-47412   3.874   7.797  14.363
79083CL-    CL-47413  36.065   6.920  10.919
79084CL-    CL-47414  21.114   9.779  10.564
79085CL-    CL-47415  17.127  43.825   1.708
79086CL-    CL-47416  32.407   7.796  13.530
79087CL-    CL-47417  18.648  31.599   0.437
79088CL-    CL-47418  36.851  19.061  12.957
79089CL-    CL-47419  25.980  42.334  11.989
79090CL-    CL-47420  11.206   5.285  12.365
79091CL-    CL-47421   4.829  13.229   0.275
79092CL-    CL-47422  37.998  30.932   3.212
79093CL-    CL-47423   8.286  43.368  14.972
79094CL-    CL-47424  31.410  32.550   2.374
79095CL-    CL-47425   5.419  40.393  10.608
79096CL-    CL-47426  13.772  17.253  14.464
79097CL-    CL-47427  38.058   7.732   1.842
79098CL-    CL-47428  16.087  15.738  11.397
79099CL-    CL-47429  42.947  28.043  10.644
79100CL-    CL-47430  32.452  20.633   4.698
79101CL-    CL-47431  25.050   8.165  13.353
79102CL-    CL-47432  28.117  32.628  13.896
79103CL-    CL-47433   1.399  32.629  14.024
79104CL-    CL-47434  19.243   7.699   0.898
79105CL-    CL-47435  20.669   3.284   1.238
79106CL-    CL-47436  16.756   9.800  13.799
79107CL-    CL-47437   4.837  33.620   3.336
79108CL-    CL-47438  33.454  17.298  10.944
79109CL-    CL-47439   6.282  33.412   4.702
79110CL-    CL-47440  22.099  16.161  14.346
79111CL-    CL-47441  12.615  34.023   0.746
79112CL-    CL-47442  38.966  36.374  13.513
79113CL-    CL-47443  21.175   1.319   0.780
79114CL-    CL-47444  21.574   8.781   2.183
79115CL-    CL-47445   7.820  29.567   3.642
79116CL-    CL-47446  44.758  43.781   4.696
79117CL-    CL-47447  13.262  33.535  11.034
79118CL-    CL-47448  41.924  35.411   0.862
79119CL-    CL-47449  33.915   6.837  12.524
79120CL-    CL-47450  12.297  27.626   1.723
79121CL-    CL-47451  27.121  16.233  13.355
79122CL-    CL-47452  19.652  30.149   9.575
79123CL-    CL-47453  17.635  30.148  10.502
79124CL-    CL-47454  18.752  19.125   1.858
79125CL-    CL-47455  33.399   0.922   4.822
79126CL-    CL-47456  19.277  39.915   2.690
79127CL-    CL-47457  37.958  36.456  11.462
79128CL-    CL-47458  20.058  29.016  12.079
79129CL-    CL-47459  37.939   6.203   5.565
79130CL-    CL-47460  40.461   6.216  13.857
79131CL-    CL-47461  27.975  36.021   9.927
79132CL-    CL-47462  30.017  28.662   1.261
79133CL-    CL-47463  10.648  15.694  12.500
79134CL-    CL-47464  25.694  11.704   2.805
79135CL-    CL-47465  38.050   3.393   0.441
79136CL-    CL-47466  31.514  28.535   4.776
79137CL-    CL-47467  34.533  23.076   1.365
79138CL-    CL-47468  35.583  13.647  14.309
79139CL-    CL-47469  13.646   4.388   4.303
79140CL-    CL-47470  15.649  36.910   3.831
79141CL-    CL-47471   5.373  44.875   2.288
79142CL-    CL-47472  29.660  37.006   2.178
79143CL-    CL-47473  21.573   2.302  14.492
79144CL-    CL-47474  38.859  31.593  14.864
79145CL-    CL-47475  31.957  39.821  12.417
79146CL-    CL-47476  21.190  14.190  13.995
79147CL-    CL-47477  14.696  15.092   4.721
79148CL-    CL-47478  33.449  35.548   2.291
79149CL-    CL-47479  25.497   0.295   4.810
79150CL-    CL-47480   9.749   4.897   2.311
79151CL-    CL-47481   7.729  16.804  14.770
79152CL-    CL-47482  44.926  12.656  13.962
79153CL-    CL-47483  17.256  17.071  13.403
79154CL-    CL-47484  37.071  40.937  14.884
79155CL-    CL-47485  25.217  31.143   0.338
79156CL-    CL-47486  25.477  19.640   1.760
79157CL-    CL-47487  40.389  13.605  14.383
79158CL-    CL-47488  39.983  28.628  11.586
79159CL-    CL-47489   3.757  39.423   4.137
79160CL-    CL-47490   0.355  12.231   3.198
79161CL-    CL-47491  18.664  42.314   3.851
79162CL-    CL-47492  27.189  38.361  12.407
79163CL-    CL-47493  39.033  33.388  10.510
79164CL-    CL-47494  38.060  22.683  11.946
79165CL-    CL-47495  30.485   1.467   1.414
79166CL-    CL-47496  23.608  33.944   0.877
79167CL-    CL-47497  24.141  29.167   0.881
79168CL-    CL-47498  13.789  17.228  10.473
79169CL-    CL-47499  34.454  18.093   3.730
79170CL-    CL-47500   2.455   4.784   4.693
79171CL-    CL-47501  44.306  33.539  11.574
79172CL-    CL-47502  34.001  33.963   1.281
79173CL-    CL-47503  23.108  20.617  10.596
79174CL-    CL-47504  21.249  32.584   4.245
79175CL-    CL-47505  41.917  10.776  14.766
79176CL-    CL-47506   0.961   9.675  12.918
79177CL-    CL-47507   6.750   7.321   4.781
79178CL-    CL-47508  38.013   7.400   1.276
79179CL-    CL-47509  40.456  41.938  14.342
79180CL-    CL-47510  44.405  41.488  14.762
79181CL-    CL-47511  35.991   8.879   4.647
79182CL-    CL-47512  27.062  43.983   1.369
79183CL-    CL-47513  26.981   0.462  11.445
79184CL-    CL-47514   2.793  29.538   2.330
79185CL-    CL-47515   2.745  39.507  11.949
79186CL-    CL-47516  30.428  31.118  12.525
79187CL-    CL-47517  11.331  38.891  10.454
79188CL-    CL-47518   9.161  14.180  14.399
79189CL-    CL-47519  26.173  25.553   3.195
79190CL-    CL-47520   1.837  19.065  11.045
79191CL-    CL-47521  18.684  25.626  10.420
79192CL-    CL-47522  14.734  38.541  11.073
79193CL-    CL-47523  10.821  10.201  13.892
79194CL-    CL-47524  38.324  42.324   0.283
79195CL-    CL-47525  44.812  18.616  14.505
79196CL-    CL-47526  10.171  20.139  10.606
79197CL-    CL-47527  23.646  10.215  13.976
79198CL-    CL-47528  26.505  22.016   3.253
79199CL-    CL-47529  23.623  44.889  11.964
79200CL-    CL-47530  25.699  25.617  11.914
79201CL-    CL-47531  36.397  43.306   0.364
79202CL-    CL-47532  26.655  33.528  12.340
79203CL-    CL-47533  35.918  16.725  12.889
79204CL-    CL-47534  24.519   2.947   3.356
79205CL-    CL-47535  39.900  14.721   4.155
79206CL-    CL-47536  24.230   3.861  13.528
79207CL-    CL-47537  27.167  19.546   1.837
79208CL-    CL-47538   2.289  36.098   2.848
79209CL-    CL-47539  41.371  29.154   0.434
79210CL-    CL-47540  22.242   2.444  13.969
79211CL-    CL-47541  38.003   2.724   4.179
79212CL-    CL-47542  23.080  24.202  10.625
79213CL-    CL-47543  22.045  26.117   3.756
79214CL-    CL-47544   2.342  15.754  10.985
79215CL-    CL-47545  30.485   3.299  11.538
79216CL-    CL-47546  27.526  22.521   3.191
79217CL-    CL-47547  22.060  26.109   1.780
79218CL-    CL-47548  34.400  44.786  10.451
79219CL-    CL-47549  29.949  32.021   4.330
79220CL-    CL-47550   7.358  44.838  12.066
79221CL-    CL-47551  22.732  26.039   1.431
79222CL-    CL-47552  39.885  43.448   2.191
79223CL-    CL-47553  39.519   2.875  14.020
79224CL-    CL-47554  38.359  16.733  11.601
79225CL-    CL-47555   1.864   6.365   0.826
79226CL-    CL-47556  42.498  39.550   0.426
79227CL-    CL-47557  34.373   6.309  11.948
79228CL-    CL-47558  17.065  13.728   4.597
79229CL-    CL-47559  34.543  25.002  13.825
79230CL-    CL-47560  15.611  42.818  10.918
79231CL-    CL-47561  30.413  32.105   1.764
79232CL-    CL-47562   3.389  36.893   1.816
79233CL-    CL-47563   3.317  39.497   0.267
79234CL-    CL-47564   0.393  31.054   2.722
79235CL-    CL-47565   3.925  25.002  10.998
79236CL-    CL-47566  40.417  41.478   1.291
79237CL-    CL-47567  14.744  14.189   0.438
79238CL-    CL-47568   0.249  15.188  11.983
79239CL-    CL-47569  41.446   1.776  10.929
79240CL-    CL-47570  26.506  25.986   4.235
79241CL-    CL-47571  25.039   5.737  12.344
79242CL-    CL-47572   5.388  43.894   0.864
79243CL-    CL-47573   8.319  19.639  11.518
79244CL-    CL-47574  36.562   3.374   3.224
79245CL-    CL-47575  23.589  25.032  10.545
79246CL-    CL-47576  33.491  21.095  14.815
79247CL-    CL-47577  37.076  38.410   4.669
79248CL-    CL-47578  27.974  31.000   0.859
79249CL-    CL-47579   8.224  16.693  14.907
79250CL-    CL-47580  44.797  31.051  10.503
79251CL-    CL-47581   6.363  12.326   1.352
79252CL-    CL-47582  28.960  22.111  12.986
79253CL-    CL-47583  30.655  14.834  11.948
79254CL-    CL-47584  42.327   8.885  11.981
79255CL-    CL-47585   5.753   6.827   4.745
79256CL-    CL-47586   6.378  44.771  13.447
79257CL-    CL-47587  44.961  32.936   3.380
79258CL-    CL-47588  27.563   8.705  12.942
79259CL-    CL-47589  24.229  13.748  11.105
79260CL-    CL-47590  18.763  14.701   3.153
79261CL-    CL-47591  37.883  24.177   0.444
79262CL-    CL-47592  12.707   9.849   4.179
79263CL-    CL-47593  21.559  14.679  12.415
79264CL-    CL-47594  12.642  18.737   4.755
79265CL-    CL-47595  19.152  21.239  11.982
79266CL-    CL-47596  35.440   5.729  12.038
79267CL-    CL-47597  16.700  22.006  14.932
79268CL-    CL-47598   4.750  39.476   4.252
79269CL-    CL-47599   9.392  22.603   4.706
79270CL-    CL-47600   5.349  38.512   3.838
79271CL-    CL-47601  27.690  13.126   4.638
79272CL-    CL-47602  43.820  31.049   0.778
79273CL-    CL-47603   7.815  19.230   4.760
79274CL-    CL-47604  17.071   8.714   0.805
79275CL-    CL-47605   9.389  15.629  12.839
79276CL-    CL-47606  27.452   0.397  14.023
79277CL-    CL-47607  40.831  15.686  11.109
79278CL-    CL-47608   8.387  18.699  12.090
79279CL-    CL-47609  44.996  38.997  12.984
79280CL-    CL-47610  39.427  39.326   3.835
79281CL-    CL-47611  26.608  25.564   1.336
79282CL-    CL-47612  16.770  30.075  12.048
79283CL-    CL-47613  15.690   2.955   3.337
79284CL-    CL-47614  16.297  20.204  11.600
79285CL-    CL-47615  26.467  17.116  12.472
79286CL-    CL-47616  19.640   6.912   0.896
79287CL-    CL-47617  24.171  10.281   2.292
79288CL-    CL-47618  42.300  19.671   5.089
79289CL-    CL-47619   1.907  13.250  13.888
79290CL-    CL-47620  20.702  24.489  12.548
79291CL-    CL-47621  44.765  25.128  13.548
79292CL-    CL-47622  28.018  38.434   4.117
79293CL-    CL-47623  26.192  26.680  14.372
79294CL-    CL-47624  26.509   9.367  10.121
79295CL-    CL-47625   4.388   7.668  12.999
79296CL-    CL-47626  35.543  19.767  10.560
79297CL-    CL-47627  20.712  22.509  10.921
79298CL-    CL-47628  25.157   9.762   3.249
79299CL-    CL-47629  28.507  33.100   4.737
79300CL-    CL-47630   8.239  15.580   1.769
79301CL-    CL-47631   0.347  12.818   1.792
79302CL-    CL-47632  21.573   8.318  14.812
79303CL-    CL-47633  29.115  28.134   4.230
79304CL-    CL-47634  28.068   9.251   3.764
79305CL-    CL-47635  27.013  11.315   3.296
79306CL-    CL-47636   6.779  27.690  13.507
79307CL-    CL-47637  37.473  27.671  11.427
79308CL-    CL-47638  24.178  34.902   3.781
79309CL-    CL-47639   5.361  20.723   1.743
79310CL-    CL-47640  30.116  37.948  12.554
79311CL-    CL-47641  14.330  28.479   0.328
79312CL-    CL-47642  39.821  11.831   3.346
79313CL-    CL-47643   5.199  24.493  11.122
79314CL-    CL-47644   4.772   5.793   3.785
79315CL-    CL-47645  14.247   5.294   4.270
79316CL-    CL-47646  35.527  19.715  14.027
79317CL-    CL-47647  28.058  12.617  12.499
79318CL-    CL-47648  29.076  44.303  12.499
79319CL-    CL-47649   2.923  35.027  13.992
79320CL-    CL-47650  32.936   7.228  14.897
79321CL-    CL-47651  22.576  40.992   3.738
79322CL-    CL-47652  11.145   4.263   4.115
79323CL-    CL-47653  17.587  27.464   2.339
79324CL-    CL-47654  36.902  36.860  11.045
79325CL-    CL-47655  27.130  33.605  14.929
79326CL-    CL-47656  38.525   4.421   2.351
79327CL-    CL-47657  43.979  36.939   4.611
79328CL-    CL-47658  11.218   1.805  12.955
79329CL-    CL-47659  17.678  35.399  10.927
79330CL-    CL-47660  37.869  43.347   1.320
79331CL-    CL-47661  33.567  20.625  10.559
79332CL-    CL-47662  33.520  28.464   1.250
79333CL-    CL-47663  37.541  39.933  14.859
79334CL-    CL-47664  12.353   5.249  11.592
79335CL-    CL-47665  32.571  20.728  13.464
79336CL-    CL-47666  33.017  14.677   4.287
79337CL-    CL-47667   3.269   5.917   4.312
79338CL-    CL-47668  13.190  17.611  14.857
79339CL-    CL-47669  42.355  15.702  11.520
79340CL-    CL-47670   3.928  22.079  12.894
79341CL-    CL-47671  21.683   4.761  14.869
79342CL-    CL-47672  21.111  35.899  10.522
79343CL-    CL-47673  20.616   1.369  11.390
79344CL-    CL-47674  14.176   9.291  11.379
79345CL-    CL-47675  23.728  14.216   2.263
79346CL-    CL-47676   5.263  26.694   5.095
79347CL-    CL-47677  34.613  40.820  11.051
79348CL-    CL-47678  30.597  31.905   3.350
79349CL-    CL-47679  39.055  24.182   4.172
79350CL-    CL-47680   9.659  36.519  11.032
79351CL-    CL-47681  37.573  30.943  14.799
79352CL-    CL-47682  31.530  24.659   2.698
79353CL-    CL-47683  19.100  41.392  12.961
79354CL-    CL-47684  27.455  15.190   4.319
79355CL-    CL-47685  15.222  44.330   3.367
79356CL-    CL-47686  28.488  41.039  13.014
79357CL-    CL-47687  41.926  10.821  12.971
79358CL-    CL-47688   5.758  15.156   1.750
79359CL-    CL-47689  13.301  23.077  14.847
79360CL-    CL-47690  32.579  14.258   5.255
79361CL-    CL-47691   0.963  29.456   1.380
79362CL-    CL-47692  29.977  34.585  14.430
79363CL-    CL-47693   7.709  27.039  13.924
79364CL-    CL-47694  16.245  29.921  11.931
79365CL-    CL-47695   9.301  44.365   1.791
79366CL-    CL-47696  44.987  37.570   0.246
79367CL-    CL-47697   3.751  33.972   3.673
79368CL-    CL-47698  17.647   2.364   4.652
79369CL-    CL-47699  44.270   4.746   5.263
79370CL-    CL-47700  11.844  27.543  14.375
79371CL-    CL-47701  22.094  36.028  12.457
79372CL-    CL-47702  25.187  36.872  11.426
79373CL-    CL-47703  16.737  18.746   0.846
79374CL-    CL-47704  38.027  14.601  12.444
79375CL-    CL-47705  29.659  34.445  10.483
79376CL-    CL-47706   4.376   9.645  14.313
79377CL-    CL-47707   1.882  30.941  12.390
79378CL-    CL-47708   2.360  37.540   9.985
79379CL-    CL-47709  30.572  30.111   2.203
79380CL-    CL-47710  21.520   6.248   0.814
79381CL-    CL-47711  23.071  32.055   1.392
79382CL-    CL-47712  43.928  12.829   0.406
79383CL-    CL-47713  25.572  30.005  13.838
79384CL-    CL-47714  41.508  38.347   4.629
79385CL-    CL-47715  35.943  37.556   0.285
79386CL-    CL-47716  10.853  10.794  14.986
79387CL-    CL-47717  38.020  12.764  12.376
79388CL-    CL-47718  39.029  44.865  13.344
79389CL-    CL-47719  10.318   6.347   2.196
79390CL-    CL-47720  10.683  13.310   0.313
79391CL-    CL-47721  22.629  19.682  12.072
79392CL-    CL-47722   0.754  21.113  10.550
79393CL-    CL-47723  38.859  21.604  11.413
79394CL-    CL-47724   1.361   4.368  14.018
79395CL-    CL-47725  31.467   9.252   2.227
79396CL-    CL-47726   3.900  33.393   3.284
79397CL-    CL-47727  13.315   4.804  12.026
79398CL-    CL-47728  12.352  34.064  11.927
79399CL-    CL-47729  16.671   8.823   4.281
79400CL-    CL-47730  13.141  35.400   1.764
79401CL-    CL-47731  19.619   9.210  13.518
79402CL-    CL-47732   9.834   6.199   0.341
79403CL-    CL-47733  13.318  11.290  11.408
79404CL-    CL-47734  16.566   3.389   4.250
79405CL-    CL-47735   0.772  11.708   4.333
79406CL-    CL-47736  43.825  42.879   1.705
79407CL-    CL-47737   9.845  40.024  13.897
79408CL-    CL-47738  19.280  24.039  14.415
79409CL-    CL-47739  41.496  44.383  12.824
79410CL-    CL-47740   9.809   0.342  10.596
79411CL-    CL-47741  14.682  34.458   3.202
79412CL-    CL-47742   5.870   3.951  11.981
79413CL-    CL-47743   3.739  35.899  13.523
79414CL-    CL-47744  13.625  34.462  14.912
79415CL-    CL-47745   4.424  25.105   0.377
79416CL-    CL-47746  38.830  17.796   1.304
79417CL-    CL-47747  15.246   3.728  14.921
79418CL-    CL-47748   9.294  28.668  11.501
79419CL-    CL-47749   2.348   3.831   3.743
79420CL-    CL-47750   2.936   4.749  12.842
79421CL-    CL-47751  15.757  35.020   4.803
79422CL-    CL-47752  30.496  26.501   0.855
79423CL-    CL-47753  29.131  37.909   1.757
79424CL-    CL-47754  19.081  30.090   1.434
79425CL-    CL-47755  21.642   8.378  13.927
79426CL-    CL-47756  28.448   0.482  11.087
79427CL-    CL-47757  19.743  10.348  12.377
79428CL-    CL-47758  44.979  25.558   1.848
79429CL-    CL-47759  29.057  39.808  11.020
79430CL-    CL-47760  41.430  32.598  12.940
79431CL-    CL-47761  18.093  38.859   4.179
79432CL-    CL-47762   5.824  16.106   1.795
79433CL-    CL-47763  17.140  44.947  11.588
79434CL-    CL-47764  10.322  25.069  10.893
79435CL-    CL-47765   3.368  21.522   0.784
79436CL-    CL-47766  33.522   4.386  13.357
79437CL-    CL-47767   4.360  11.274  14.768
79438CL-    CL-47768  37.074  32.013   3.739
79439CL-    CL-47769   7.807  33.554   3.269
79440CL-    CL-47770  23.647   5.372   1.859
79441CL-    CL-47771  29.079  25.149   2.323
79442CL-    CL-47772  41.459  34.489  13.000
79443CL-    CL-47773  34.965   2.401   0.882
79444CL-    CL-47774  12.734  43.509  14.954
79445CL-    CL-47775  36.967  18.742   0.918
79446CL-    CL-47776  36.988   6.827   4.601
79447CL-    CL-47777   4.424  36.858   1.723
79448CL-    CL-47778  12.361  23.016  10.978
79449CL-    CL-47779   9.736  22.216   1.344
79450CL-    CL-47780  40.469  42.855   5.208
79451CL-    CL-47781   9.797   4.936   4.265
79452CL-    CL-47782  36.588  10.383  11.384
79453CL-    CL-47783  18.790  29.940   2.252
79454CL-    CL-47784  10.773  43.980   2.254
79455CL-    CL-47785  37.889   9.160  10.511
79456CL-    CL-47786  37.354  21.747  13.483
79457CL-    CL-47787  23.024  32.115   0.879
79458CL-    CL-47788   2.917  34.380  12.066
79459CL-    CL-47789  39.855  37.009   4.769
79460CL-    CL-47790   3.439  27.018   2.859
79461CL-    CL-47791  35.560   3.280  13.451
79462CL-    CL-47792   5.255   5.742   1.370
79463CL-    CL-47793  23.071  36.371  14.327
79464CL-    CL-47794  41.035   2.735   0.905
79465CL-    CL-47795  26.156   3.282   4.827
79466CL-    CL-47796  20.190  14.597   3.233
79467CL-    CL-47797   8.331  27.570   4.612
79468CL-    CL-47798  35.949  18.158   4.298
79469CL-    CL-47799  19.631  35.415   3.181
79470CL-    CL-47800  13.282  39.017   2.225
79471CL-    CL-47801  13.638   3.860  12.895
79472CL-    CL-47802   0.327  25.491   1.831
79473CL-    CL-47803  30.158  29.060  14.290
79474CL-    CL-47804  27.964  31.599  14.793
79475CL-    CL-47805  10.672  19.168   3.685
79476CL-    CL-47806  25.071  27.970  13.362
79477CL-    CL-47807  16.612   4.395   1.789
79478CL-    CL-47808  39.555   2.934   0.479
79479CL-    CL-47809  24.707  38.433  14.479
79480CL-    CL-47810   7.207  26.697   1.284
79481CL-    CL-47811   7.276  35.065  12.508
79482CL-    CL-47812   5.820  15.214  14.793
79483CL-    CL-47813  42.024  14.594   4.609
79484CL-    CL-47814   8.166  29.614   1.436
79485CL-    CL-47815  34.476  41.428  12.088
79486CL-    CL-47816  43.849  28.533  14.375
79487CL-    CL-47817  44.971  40.990   1.311
79488CL-    CL-47818   5.290   9.317   2.726
79489CL-    CL-47819   9.797   8.340   2.414
79490CL-    CL-47820   7.719   6.741  14.905
79491CL-    CL-47821   4.720  37.993   3.292
79492CL-    CL-47822  25.589  15.663  12.825
79493CL-    CL-47823  28.115  32.000  13.428
79494CL-    CL-47824  28.437  30.048   2.826
79495CL-    CL-47825  40.492  16.746  14.793
79496CL-    CL-47826   3.391  24.710  10.993
79497CL-    CL-47827  37.374  27.632   3.731
79498CL-    CL-47828   5.761  37.481  10.414
79499CL-    CL-47829  44.960   0.749  11.871
79500CL-    CL-47830  40.372   0.951  11.099
79501CL-    CL-47831  30.453  11.273   9.957
79502CL-    CL-47832  15.278  39.005  14.461
79503CL-    CL-47833  10.212  39.485   3.280
79504CL-    CL-47834   9.179  42.359   1.421
79505CL-    CL-47835  11.629  21.545  11.084
79506CL-    CL-47836  23.572  28.027  11.915
79507CL-    CL-47837  10.807  13.814  14.018
79508CL-    CL-47838  21.096  11.661  10.528
79509CL-    CL-47839  38.839   6.427  11.989
79510CL-    CL-47840   5.380  44.293   3.729
79511CL-    CL-47841  19.684  11.236   3.307
79512CL-    CL-47842  14.644  35.971   2.310
79513CL-    CL-47843  37.558  31.504  13.948
79514CL-    CL-47844  37.997  30.413   0.855
79515CL-    CL-47845  30.058   0.787  13.487
79516CL-    CL-47846   0.259   6.840  14.399
79517CL-    CL-47847  27.655  21.094   3.200
79518CL-    CL-47848   2.348  38.959   2.249
79519CL-    CL-47849  14.327  11.252  12.996
79520CL-    CL-47850   3.398  23.007   3.169
79521CL-    CL-47851  37.517  26.520  11.567
79522CL-    CL-47852   3.441   5.391   4.333
79523CL-    CL-47853  27.173  26.122   4.165
79524CL-    CL-47854  43.910  21.090  10.531
79525CL-    CL-47855  15.823  35.054   0.821
79526CL-    CL-47856  25.063   4.879  12.010
79527CL-    CL-47857   4.251  34.098   4.246
79528CL-    CL-47858  23.705  25.668  13.473
79529CL-    CL-47859  30.609  42.290  14.424
79530CL-    CL-47860  20.688  36.906  12.911
79531CL-    CL-47861   5.243  27.545   1.775
79532CL-    CL-47862  32.454   3.883   3.268
79533CL-    CL-47863  30.542  20.707  13.450
79534CL-    CL-47864  24.189  37.555   1.347
79535CL-    CL-47865   5.897   9.749   0.895
79536CL-    CL-47866  26.547  12.718  12.082
79537CL-    CL-47867  12.684  21.732   4.244
79538CL-    CL-47868   5.427   2.283   1.303
79539CL-    CL-47869   1.369  42.418  12.460
79540CL-    CL-47870  27.463  19.123  12.898
79541CL-    CL-47871   8.332  32.581  12.403
79542CL-    CL-47872  37.047  15.238  13.053
79543CL-    CL-47873  32.964  23.622   4.299
79544CL-    CL-47874  44.998  35.985   3.324
79545CL-    CL-47875  40.866  11.700  10.514
79546CL-    CL-47876  24.199  44.825  12.898
79547CL-    CL-47877  33.617  29.038   1.345
79548CL-    CL-47878  26.686  22.529   3.800
79549CL-    CL-47879  25.535  30.426   5.100
79550CL-    CL-47880  37.483  31.041  11.378
79551CL-    CL-47881  22.013  26.077  12.887
79552CL-    CL-47882  42.373  17.795  11.461
79553CL-    CL-47883  15.749  18.569  12.475
79554CL-    CL-47884  19.653  31.413  13.007
79555CL-    CL-47885  16.799  21.194   4.121
79556CL-    CL-47886  30.431   2.943  12.896
79557CL-    CL-47887  18.774  26.999  14.783
79558CL-    CL-47888   9.329  22.106   0.750
79559CL-    CL-47889  10.149  14.688  12.525
79560CL-    CL-47890  22.159  43.489   3.686
79561CL-    CL-47891  44.402  11.789  14.381
79562CL-    CL-47892  26.527  39.456   4.253
79563CL-    CL-47893  30.930  42.982  13.829
79564CL-    CL-47894   7.255  22.192   2.361
79565CL-    CL-47895  18.208  42.956  11.967
79566CL-    CL-47896  37.402   9.727  13.512
79567CL-    CL-47897  43.298  31.123  11.413
79568CL-    CL-47898  18.109  20.709   4.206
79569CL-    CL-47899  27.451  23.638  13.496
79570CL-    CL-47900  12.301  29.134  13.856
79571CL-    CL-47901   3.849   1.428  14.934
79572CL-    CL-47902  11.246   2.832   2.188
79573CL-    CL-47903   0.984  23.190  13.810
79574CL-    CL-47904  28.096  20.731   3.853
79575CL-    CL-47905  17.719   0.974  11.381
79576CL-    CL-47906  26.581  43.424   4.788
79577CL-    CL-47907   3.345  35.378  12.090
79578CL-    CL-47908   6.238   8.679   3.715
79579CL-    CL-47909  10.202  32.539   3.753
79580CL-    CL-47910  39.841  18.608   0.363
79581CL-    CL-47911  41.333   7.736  14.404
79582CL-    CL-47912  21.750  26.078  14.820
79583CL-    CL-47913   1.939  39.993   4.671
79584CL-    CL-47914  19.690  29.934  10.565
79585CL-    CL-47915   7.288  32.519   3.771
79586CL-    CL-47916  10.760  15.744  12.062
79587CL-    CL-47917   1.838  35.470  11.874
79588CL-    CL-47918   8.187  22.660  12.004
79589CL-    CL-47919   6.890  24.149   4.118
79590CL-    CL-47920  41.833  38.567   0.865
79591CL-    CL-47921  38.855  38.499  10.028
79592CL-    CL-47922  28.184  43.412   4.225
79593CL-    CL-47923  28.170  21.234  10.976
79594CL-    CL-47924  11.640  29.983  10.593
79595CL-    CL-47925  35.481   5.800  14.945
79596CL-    CL-47926   9.819  30.029   3.691
79597CL-    CL-47927  38.333  25.119  11.413
79598CL-    CL-47928  10.855  24.667   2.898
79599CL-    CL-47929  23.659  30.579  11.008
79600CL-    CL-47930  36.474   5.725  13.939
79601CL-    CL-47931  39.531   1.250   1.434
79602CL-    CL-47932  29.120  30.163   3.860
79603CL-    CL-47933   5.701  13.728   2.843
79604CL-    CL-47934  22.572  34.605  14.925
79605CL-    CL-47935  32.510  21.229   2.817
79606CL-    CL-47936  19.577  14.200   4.620
79607CL-    CL-47937  27.553  23.731   4.301
  45.00000  45.00000  15.00000   0.00000   0.00000   0.00000   0.00000   0.00000   0.00000

